<event>
 8    1  0.1022673E+005  0.1043930E+01  0.7957747E-01            NaN
         13   -1    0    0    0    0  0.00000000000E+00  0.00000000000E+00  0.74505805969E-08  0.10566000000E+00  0.10566000000E+00 0.  1.
     999900   -1    0    0    0    0 -0.00000000000E+00 -0.00000000000E+00 -0.74505805969E-08  0.93827000000E+00  0.93827000000E+00 0. -1.
     999902    2    1    2    0    0  0.49726981858E-02 -0.22461785305E-01 -0.49353112165E-03  0.10209190657E+01  0.10206597060E+01 0.  0.
     999903    2    3    3    0    0  0.10244810410E+00  0.76099222617E-01  0.14706506932E-01  0.12993827563E+00  0.19518412091E-01 0.  0.
         14    1    1    2    0    0 -0.49726981858E-02  0.22461785305E-01  0.49353112165E-03  0.23010934342E-01  0.00000000000E+00 0.  1.
     999901    1    3    3    0    0 -0.97475405917E-01 -0.98561007921E-01 -0.15200038054E-01  0.89098079003E+00  0.88000000000E+00 0.  1.
        -11    1    4    4    0    0  0.28841759242E-01  0.32646960433E-01  0.30714780506E-02  0.43673403807E-01  0.51100000000E-03 0. -1.
         11    1    4    4    0    0  0.73606344861E-01  0.43452262184E-01  0.11635028881E-01  0.86264871824E-01  0.51100000000E-03 0.  1.
</event>
<event>
 8    1  0.1022673E+005  0.1043930E+01  0.7957747E-01            NaN
         13   -1    0    0    0    0  0.00000000000E+00  0.00000000000E+00  0.74505805969E-08  0.10566000000E+00  0.10566000000E+00 0.  1.
     999900   -1    0    0    0    0 -0.00000000000E+00 -0.00000000000E+00 -0.74505805969E-08  0.93827000000E+00  0.93827000000E+00 0. -1.
     999902    2    1    2    0    0  0.13045807932E-01  0.18895761045E-01 -0.52374611124E-02  0.10203784844E+01  0.10201066500E+01 0.  0.
     999903    2    3    3    0    0 -0.77313335089E-01 -0.95643705583E-01  0.28545725421E-01  0.12772773080E+00  0.19350570394E-01 0.  0.
         14    1    1    2    0    0 -0.13045807932E-01 -0.18895761045E-01  0.52374611124E-02  0.23551515641E-01  0.00000000000E+00 0. -1.
     999901    1    3    3    0    0  0.90359143020E-01  0.11453946663E+00 -0.33783186533E-01  0.89265075356E+00  0.88000000000E+00 0.  1.
        -11    1    4    4    0    0 -0.34941472492E-01 -0.56539789315E-01  0.10378538839E-01  0.67272798849E-01  0.51100000000E-03 0.  1.
         11    1    4    4    0    0 -0.42371862597E-01 -0.39103916269E-01  0.18167186582E-01  0.60454931948E-01  0.51100000000E-03 0. -1.
</event>
<event>
 8    1  0.1265356E+005  0.1043930E+01  0.7957747E-01            NaN
         13   -1    0    0    0    0  0.00000000000E+00  0.00000000000E+00  0.74505805969E-08  0.10566000000E+00  0.10566000000E+00 0. -1.
     999900   -1    0    0    0    0 -0.00000000000E+00 -0.00000000000E+00 -0.74505805969E-08  0.93827000000E+00  0.93827000000E+00 0.  1.
     999902    2    1    2    0    0 -0.14342007591E-02 -0.96568998437E-02 -0.21506172620E-01  0.10203116151E+01  0.10200382168E+01 0.  0.
     999903    2    3    3    0    0  0.51817334667E-01 -0.62583016085E-01 -0.10430679829E+00  0.13324180754E+00  0.16486389328E-01 0.  0.
         14    1    1    2    0    0  0.14342007591E-02  0.96568998437E-02  0.21506172620E-01  0.23618384940E-01  0.00000000000E+00 0. -1.
     999901    1    3    3    0    0 -0.53251535427E-01  0.52926116241E-01  0.82800625666E-01  0.88706980752E+00  0.88000000000E+00 0.  1.
        -11    1    4    4    0    0  0.35747494812E-01 -0.31690234340E-01 -0.54624386019E-01  0.72568857004E-01  0.51100000000E-03 0. -1.
         11    1    4    4    0    0  0.16069839856E-01 -0.30892781745E-01 -0.49682412267E-01  0.60672950535E-01  0.51100000000E-03 0.  1.
</event>
<event>
 8    1  0.1022673E+005  0.1043930E+01  0.7957747E-01            NaN
         13   -1    0    0    0    0  0.00000000000E+00  0.00000000000E+00  0.74505805969E-08  0.10566000000E+00  0.10566000000E+00 0. -1.
     999900   -1    0    0    0    0 -0.00000000000E+00 -0.00000000000E+00 -0.74505805969E-08  0.93827000000E+00  0.93827000000E+00 0. -1.
     999902    2    1    2    0    0  0.16441921761E-01  0.14540296087E-01 -0.87782952033E-02  0.10202907219E+01  0.10200168341E+01 0.  0.
     999903    2    3    3    0    0 -0.29664580539E-01 -0.35269266799E-01  0.11826038035E+00  0.12858133698E+00  0.20584803566E-01 0.  0.
         14    1    1    2    0    0 -0.16441921761E-01 -0.14540296087E-01  0.87782952033E-02  0.23639278080E-01  0.00000000000E+00 0.  1.
     999901    1    3    3    0    0  0.46106502300E-01  0.49809562886E-01 -0.12703867556E+00  0.89170938494E+00  0.88000000000E+00 0. -1.
        -11    1    4    4    0    0 -0.13288330099E-01 -0.15911849464E-01  0.28107469271E-01  0.34929323211E-01  0.51100000000E-03 0. -1.
         11    1    4    4    0    0 -0.16376250440E-01 -0.19357417335E-01  0.90152911084E-01  0.93652013765E-01  0.51100000000E-03 0.  1.
</event>
<event>
 8    1  0.1022673E+005  0.1043930E+01  0.7957747E-01            NaN
         13   -1    0    0    0    0  0.00000000000E+00  0.00000000000E+00  0.74505805969E-08  0.10566000000E+00  0.10566000000E+00 0.  1.
     999900   -1    0    0    0    0 -0.00000000000E+00 -0.00000000000E+00 -0.74505805969E-08  0.93827000000E+00  0.93827000000E+00 0. -1.
     999902    2    1    2    0    0 -0.13415395701E-01 -0.13986061977E-01 -0.87713118192E-02  0.10226575135E+01  0.10224362431E+01 0.  0.
     999903    2    3    3    0    0  0.10981768628E+00 -0.43412703275E-01  0.53863100497E-01  0.13138012158E+00  0.20369480270E-01 0.  0.
         14    1    1    2    0    0  0.13415395701E-01  0.13986061977E-01  0.87713118192E-02  0.21272486514E-01  0.00000000000E+00 0. -1.
     999901    1    3    3    0    0 -0.12323308198E+00  0.29426641298E-01 -0.62634412316E-01  0.89127739190E+00  0.88000000000E+00 0. -1.
        -11    1    4    4    0    0  0.49849604470E-01 -0.22813869545E-01  0.14365186775E-01  0.56675174649E-01  0.51100000000E-03 0.  1.
         11    1    4    4    0    0  0.59968081809E-01 -0.20598833730E-01  0.39497913721E-01  0.74704946933E-01  0.51100000000E-03 0. -1.
</event>
<event>
 8    1  0.1022673E+005  0.1043930E+01  0.7957747E-01            NaN
         13   -1    0    0    0    0  0.00000000000E+00  0.00000000000E+00  0.74505805969E-08  0.10566000000E+00  0.10566000000E+00 0. -1.
     999900   -1    0    0    0    0 -0.00000000000E+00 -0.00000000000E+00 -0.74505805969E-08  0.93827000000E+00  0.93827000000E+00 0. -1.
     999902    2    1    2    0    0  0.12559828357E-01  0.11457329217E-01 -0.18867217231E-01  0.10185333158E+01  0.10182166390E+01 0.  0.
     999903    2    3    3    0    0  0.49468675472E-01 -0.51959576537E-01 -0.10792124340E+00  0.13100045079E+00  0.19161834075E-01 0.  0.
         14    1    1    2    0    0 -0.12559828357E-01 -0.11457329217E-01  0.18867217231E-01  0.25396684177E-01  0.00000000000E+00 0.  1.
     999901    1    3    3    0    0 -0.36908847116E-01  0.63416905754E-01  0.89054026166E-01  0.88753286503E+00  0.88000000000E+00 0.  1.
        -11    1    4    4    0    0  0.17906979098E-01 -0.20615505678E-01 -0.25624530935E-01  0.37450456358E-01  0.51100000000E-03 0.  1.
         11    1    4    4    0    0  0.31561696374E-01 -0.31344070859E-01 -0.82296712461E-01  0.93549994436E-01  0.51100000000E-03 0. -1.
</event>
<event>
 8    1  0.1022673E+005  0.1043930E+01  0.7957747E-01            NaN
         13   -1    0    0    0    0  0.00000000000E+00  0.00000000000E+00  0.74505805969E-08  0.10566000000E+00  0.10566000000E+00 0.  1.
     999900   -1    0    0    0    0 -0.00000000000E+00 -0.00000000000E+00 -0.74505805969E-08  0.93827000000E+00  0.93827000000E+00 0.  1.
     999902    2    1    2    0    0  0.64282072770E-02 -0.46148270125E-02  0.22611317270E-01  0.10199739956E+01  0.10196926309E+01 0.  0.
     999903    2    3    3    0    0 -0.59808317437E-01 -0.76973479364E-01  0.87063053103E-01  0.13218061987E+00  0.19743092288E-01 0.  0.
         14    1    1    2    0    0 -0.64282072770E-02  0.46148270125E-02 -0.22611317270E-01  0.23956004380E-01  0.00000000000E+00 0. -1.
     999901    1    3    3    0    0  0.66236524714E-01  0.72358652351E-01 -0.64451735833E-01  0.88779337575E+00  0.88000000000E+00 0. -1.
        -11    1    4    4    0    0 -0.47447631858E-01 -0.46256153787E-01  0.55589238304E-01  0.86494705435E-01  0.51100000000E-03 0. -1.
         11    1    4    4    0    0 -0.12360685579E-01 -0.30717325577E-01  0.31473814800E-01  0.45685914433E-01  0.51100000000E-03 0.  1.
</event>
<event>
 8    1  0.1022673E+005  0.1043930E+01  0.7957747E-01            NaN
         13   -1    0    0    0    0  0.00000000000E+00  0.00000000000E+00  0.74505805969E-08  0.10566000000E+00  0.10566000000E+00 0. -1.
     999900   -1    0    0    0    0 -0.00000000000E+00 -0.00000000000E+00 -0.74505805969E-08  0.93827000000E+00  0.93827000000E+00 0.  1.
     999902    2    1    2    0    0  0.58581714685E-02  0.47867584254E-03  0.23165417880E-01  0.10200305463E+01  0.10197505241E+01 0.  0.
     999903    2    3    3    0    0  0.77155134856E-01  0.86741236995E-01  0.59863744099E-01  0.13218413297E+00  0.20298278781E-01 0.  0.
         14    1    1    2    0    0 -0.58581714685E-02 -0.47867584254E-03 -0.23165417880E-01  0.23899453740E-01  0.00000000000E+00 0.  1.
     999901    1    3    3    0    0 -0.71296963387E-01 -0.86262561152E-01 -0.36698326218E-01  0.88784641329E+00  0.88000000000E+00 0. -1.
        -11    1    4    4    0    0  0.12631081475E-01  0.48002010402E-02  0.78652336456E-02  0.15643182878E-01  0.51100000000E-03 0. -1.
         11    1    4    4    0    0  0.64524053381E-01  0.81941035954E-01  0.51998510453E-01  0.11654095009E+00  0.51100000000E-03 0.  1.
</event>
<event>
 8    1  0.1022673E+005  0.1043930E+01  0.7957747E-01            NaN
         13   -1    0    0    0    0  0.00000000000E+00  0.00000000000E+00  0.74505805969E-08  0.10566000000E+00  0.10566000000E+00 0.  1.
     999900   -1    0    0    0    0 -0.00000000000E+00 -0.00000000000E+00 -0.74505805969E-08  0.93827000000E+00  0.93827000000E+00 0.  1.
     999902    2    1    2    0    0  0.59249473739E-02 -0.17437360732E-01  0.13720405051E-01  0.10209644592E+01  0.10207061334E+01 0.  0.
     999903    2    3    3    0    0  0.94210061501E-01  0.81246864837E-01  0.35293569359E-01  0.13079692485E+00  0.19636974747E-01 0.  0.
         14    1    1    2    0    0 -0.59249473739E-02  0.17437360732E-01 -0.13720405051E-01  0.22965540827E-01  0.00000000000E+00 0. -1.
     999901    1    3    3    0    0 -0.88285114127E-01 -0.98684225569E-01 -0.21573164307E-01  0.89016753433E+00  0.88000000000E+00 0.  1.
        -11    1    4    4    0    0  0.19239651161E-01  0.26635100618E-01  0.13440688764E-01  0.35503605411E-01  0.51100000000E-03 0.  1.
         11    1    4    4    0    0  0.74970410340E-01  0.54611764219E-01  0.21852880594E-01  0.95293319435E-01  0.51100000000E-03 0. -1.
</event>
<event>
 8    1  0.1022673E+005  0.1043930E+01  0.7957747E-01            NaN
         13   -1    0    0    0    0  0.00000000000E+00  0.00000000000E+00  0.74505805969E-08  0.10566000000E+00  0.10566000000E+00 0.  1.
     999900   -1    0    0    0    0 -0.00000000000E+00 -0.00000000000E+00 -0.74505805969E-08  0.93827000000E+00  0.93827000000E+00 0.  1.
     999902    2    1    2    0    0  0.21119366317E-01 -0.14583089954E-02 -0.11376420712E-01  0.10198971632E+01  0.10196139692E+01 0.  0.
     999903    2    3    3    0    0  0.12616846647E+00 -0.36432909805E-01 -0.39034295794E-02  0.13292795188E+00  0.20217932159E-01 0.  0.
         14    1    1    2    0    0 -0.21119366317E-01  0.14583089954E-02  0.11376420712E-01  0.24032836849E-01  0.00000000000E+00 0.  1.
     999901    1    3    3    0    0 -0.10504910015E+00  0.34974600809E-01 -0.74729911329E-02  0.88696921127E+00  0.88000000000E+00 0.  1.
        -11    1    4    4    0    0  0.27850606377E-01 -0.15607407810E-01  0.36829994111E-02  0.32141453915E-01  0.51100000000E-03 0. -1.
         11    1    4    4    0    0  0.98317860092E-01 -0.20825501995E-01 -0.75864289905E-02  0.10078649797E+00  0.51100000000E-03 0.  1.
</event>
<event>
 8    1  0.1022673E+005  0.1043930E+01  0.7957747E-01            NaN
         13   -1    0    0    0    0  0.00000000000E+00  0.00000000000E+00  0.74505805969E-08  0.10566000000E+00  0.10566000000E+00 0. -1.
     999900   -1    0    0    0    0 -0.00000000000E+00 -0.00000000000E+00 -0.74505805969E-08  0.93827000000E+00  0.93827000000E+00 0. -1.
     999902    2    1    2    0    0  0.18096847379E-01 -0.16760213036E-01  0.41974491493E-02  0.10189096242E+01  0.10186023773E+01 0.  0.
     999903    2    3    3    0    0 -0.90162535248E-01  0.43136465433E-01  0.76249425138E-01  0.12733843059E+00  0.20274704911E-01 0.  0.
         14    1    1    2    0    0 -0.18096847379E-01  0.16760213036E-01 -0.41974491493E-02  0.25020375805E-01  0.00000000000E+00 0.  1.
     999901    1    3    3    0    0  0.10825938263E+00 -0.59896678470E-01 -0.72051975989E-01  0.89157119360E+00  0.88000000000E+00 0. -1.
        -11    1    4    4    0    0 -0.55210568347E-01  0.32137854022E-01  0.58491088645E-01  0.86617071587E-01  0.51100000000E-03 0. -1.
         11    1    4    4    0    0 -0.34951966901E-01  0.10998611411E-01  0.17758336493E-01  0.40721359005E-01  0.51100000000E-03 0.  1.
</event>
<event>
 8    1  0.1022673E+005  0.1043930E+01  0.7957747E-01            NaN
         13   -1    0    0    0    0  0.00000000000E+00  0.00000000000E+00  0.74505805969E-08  0.10566000000E+00  0.10566000000E+00 0.  1.
     999900   -1    0    0    0    0 -0.00000000000E+00 -0.00000000000E+00 -0.74505805969E-08  0.93827000000E+00  0.93827000000E+00 0.  1.
     999902    2    1    2    0    0  0.21516685195E-01  0.10338764076E-01  0.99762584194E-02  0.10180575529E+01  0.10177287446E+01 0.  0.
     999903    2    3    3    0    0 -0.12046683324E+00 -0.17084929989E-01 -0.23792912392E-01  0.12561610647E+00  0.20227475882E-01 0.  0.
         14    1    1    2    0    0 -0.21516685195E-01 -0.10338764076E-01 -0.99762584194E-02  0.25872447051E-01  0.00000000000E+00 0. -1.
     999901    1    3    3    0    0  0.14198351843E+00  0.27423694065E-01  0.33769170811E-01  0.89244144648E+00  0.88000000000E+00 0.  1.
        -11    1    4    4    0    0 -0.66238750779E-01 -0.17532578972E-01 -0.71829008406E-02  0.68897159707E-01  0.51100000000E-03 0. -1.
         11    1    4    4    0    0 -0.54228082459E-01  0.44764898290E-03 -0.16610011551E-01  0.56718946759E-01  0.51100000000E-03 0.  1.
</event>
<event>
 8    1  0.1022673E+005  0.1043930E+01  0.7957747E-01            NaN
         13   -1    0    0    0    0  0.00000000000E+00  0.00000000000E+00  0.74505805969E-08  0.10566000000E+00  0.10566000000E+00 0.  1.
     999900   -1    0    0    0    0 -0.00000000000E+00 -0.00000000000E+00 -0.74505805969E-08  0.93827000000E+00  0.93827000000E+00 0.  1.
     999902    2    1    2    0    0  0.12682877067E-03 -0.53415988821E-02 -0.24407469965E-01  0.10189445371E+01  0.10186381577E+01 0.  0.
     999903    2    3    3    0    0 -0.28170391349E-01 -0.12487707970E+00 -0.14143978933E-01  0.13035306572E+00  0.20100090008E-01 0.  0.
         14    1    1    2    0    0 -0.12682877067E-03  0.53415988821E-02  0.24407469965E-01  0.24985462858E-01  0.00000000000E+00 0.  1.
     999901    1    3    3    0    0  0.28297220120E-01  0.11953548082E+00 -0.10263491032E-01  0.88859147143E+00  0.88000000000E+00 0. -1.
        -11    1    4    4    0    0 -0.24976408913E-01 -0.11192577959E+00 -0.62619954843E-02  0.11485066324E+00  0.51100000000E-03 0. -1.
         11    1    4    4    0    0 -0.31939824357E-02 -0.12951300110E-01 -0.78819834483E-02  0.15502402473E-01  0.51100000000E-03 0.  1.
</event>
<event>
 8    1  0.1022673E+005  0.1043930E+01  0.7957747E-01            NaN
         13   -1    0    0    0    0  0.00000000000E+00  0.00000000000E+00  0.74505805969E-08  0.10566000000E+00  0.10566000000E+00 0.  1.
     999900   -1    0    0    0    0 -0.00000000000E+00 -0.00000000000E+00 -0.74505805969E-08  0.93827000000E+00  0.93827000000E+00 0. -1.
     999902    2    1    2    0    0  0.13286265333E-01 -0.16629169287E-01 -0.11145745768E-01  0.10199033114E+01  0.10196202640E+01 0.  0.
     999903    2    3    3    0    0  0.64292153302E-01  0.33244860798E-01  0.10548263857E+00  0.12934663181E+00  0.19111838609E-01 0.  0.
         14    1    1    2    0    0 -0.13286265333E-01  0.16629169287E-01  0.11145745768E-01  0.24026688627E-01  0.00000000000E+00 0.  1.
     999901    1    3    3    0    0 -0.51005887968E-01 -0.49874030085E-01 -0.11662838434E+00  0.89055667956E+00  0.88000000000E+00 0. -1.
        -11    1    4    4    0    0  0.29778550898E-01  0.25791396670E-01  0.51548713310E-01  0.64880576452E-01  0.51100000000E-03 0.  1.
         11    1    4    4    0    0  0.34513602404E-01  0.74534641274E-02  0.53933925259E-01  0.64466055356E-01  0.51100000000E-03 0. -1.
</event>
<event>
 8    1  0.1022673E+005  0.1043930E+01  0.7957747E-01            NaN
         13   -1    0    0    0    0  0.00000000000E+00  0.00000000000E+00  0.74505805969E-08  0.10566000000E+00  0.10566000000E+00 0. -1.
     999900   -1    0    0    0    0 -0.00000000000E+00 -0.00000000000E+00 -0.74505805969E-08  0.93827000000E+00  0.93827000000E+00 0.  1.
     999902    2    1    2    0    0 -0.14852631823E-02 -0.20276935365E-01  0.97371255044E-02  0.10213873354E+01  0.10211385397E+01 0.  0.
     999903    2    3    3    0    0  0.10069744460E+00  0.63727863120E-01  0.49382761860E-01  0.13061806761E+00  0.20523316755E-01 0.  0.
         14    1    1    2    0    0  0.14852631823E-02  0.20276935365E-01 -0.97371255044E-02  0.22542664607E-01  0.00000000000E+00 0.  1.
     999901    1    3    3    0    0 -0.10218270779E+00 -0.84004798484E-01 -0.39645636355E-01  0.89076926778E+00  0.88000000000E+00 0.  1.
        -11    1    4    4    0    0  0.67857203020E-01  0.33663117579E-01  0.24517553423E-01  0.79618948961E-01  0.51100000000E-03 0.  1.
         11    1    4    4    0    0  0.32840241584E-01  0.30064745541E-01  0.24865208437E-01  0.50999118652E-01  0.51100000000E-03 0. -1.
</event>
<event>
 8    1  0.1022673E+005  0.1043930E+01  0.7957747E-01            NaN
         13   -1    0    0    0    0  0.00000000000E+00  0.00000000000E+00  0.74505805969E-08  0.10566000000E+00  0.10566000000E+00 0.  1.
     999900   -1    0    0    0    0 -0.00000000000E+00 -0.00000000000E+00 -0.74505805969E-08  0.93827000000E+00  0.93827000000E+00 0. -1.
     999902    2    1    2    0    0 -0.34809537692E-02 -0.11885071449E-01 -0.19690928391E-01  0.10206683444E+01  0.10204032362E+01 0.  0.
     999903    2    3    3    0    0 -0.85786795093E-01 -0.63056251264E-01  0.72755184790E-01  0.13053407077E+00  0.20257385894E-01 0.  0.
         14    1    1    2    0    0  0.34809537692E-02  0.11885071449E-01  0.19690928391E-01  0.23261655646E-01  0.00000000000E+00 0.  1.
     999901    1    3    3    0    0  0.82305841324E-01  0.51171179815E-01 -0.92446113180E-01  0.89013427358E+00  0.88000000000E+00 0. -1.
        -11    1    4    4    0    0 -0.76553022456E-01 -0.55734447311E-01  0.71532527491E-01  0.11867542911E+00  0.51100000000E-03 0.  1.
         11    1    4    4    0    0 -0.92337726367E-02 -0.73218039528E-02  0.12226572981E-02  0.11858641663E-01  0.51100000000E-03 0. -1.
</event>
<event>
 8    1  0.1022673E+005  0.1043930E+01  0.7957747E-01            NaN
         13   -1    0    0    0    0  0.00000000000E+00  0.00000000000E+00  0.74505805969E-08  0.10566000000E+00  0.10566000000E+00 0.  1.
     999900   -1    0    0    0    0 -0.00000000000E+00 -0.00000000000E+00 -0.74505805969E-08  0.93827000000E+00  0.93827000000E+00 0. -1.
     999902    2    1    2    0    0 -0.76779748108E-02  0.20436982717E-01  0.78067771983E-02  0.10207445017E+01  0.10204811466E+01 0.  0.
     999903    2    3    3    0    0  0.71134386856E-01  0.39114863125E-01  0.10210210529E+00  0.13200839890E+00  0.20280630305E-01 0.  0.
         14    1    1    2    0    0  0.76779748108E-02 -0.20436982717E-01 -0.78067771983E-02  0.23185498269E-01  0.00000000000E+00 0. -1.
     999901    1    3    3    0    0 -0.78812361667E-01 -0.18677880408E-01 -0.94295328093E-01  0.88873610283E+00  0.88000000000E+00 0. -1.
        -11    1    4    4    0    0  0.30008933895E-01  0.25130024928E-01  0.59060209224E-01  0.70854948317E-01  0.51100000000E-03 0. -1.
         11    1    4    4    0    0  0.41125452961E-01  0.13984838197E-01  0.43041896067E-01  0.61153450587E-01  0.51100000000E-03 0.  1.
</event>
<event>
 8    1  0.1022673E+005  0.1043930E+01  0.7957747E-01            NaN
         13   -1    0    0    0    0  0.00000000000E+00  0.00000000000E+00  0.74505805969E-08  0.10566000000E+00  0.10566000000E+00 0. -1.
     999900   -1    0    0    0    0 -0.00000000000E+00 -0.00000000000E+00 -0.74505805969E-08  0.93827000000E+00  0.93827000000E+00 0.  1.
     999902    2    1    2    0    0  0.76623362612E-02 -0.83524937393E-02  0.19145841928E-01  0.10216805323E+01  0.10214382367E+01 0.  0.
     999903    2    3    3    0    0  0.12902404521E+00 -0.56809756270E-02  0.26114801145E-01  0.13332003804E+00  0.20316790551E-01 0.  0.
         14    1    1    2    0    0 -0.76623362612E-02  0.83524937393E-02 -0.19145841928E-01  0.22249467674E-01  0.00000000000E+00 0.  1.
     999901    1    3    3    0    0 -0.12136170895E+00 -0.26715181123E-02 -0.69689592165E-02  0.88836049428E+00  0.88000000000E+00 0.  1.
        -11    1    4    4    0    0  0.90936195257E-01 -0.13250017320E-01  0.18800323175E-01  0.93801214487E-01  0.51100000000E-03 0.  1.
         11    1    4    4    0    0  0.38087849955E-01  0.75690416928E-02  0.73144779698E-02  0.39518823557E-01  0.51100000000E-03 0. -1.
</event>
<event>
 8    1  0.1022673E+005  0.1043930E+01  0.7957747E-01            NaN
         13   -1    0    0    0    0  0.00000000000E+00  0.00000000000E+00  0.74505805969E-08  0.10566000000E+00  0.10566000000E+00 0.  1.
     999900   -1    0    0    0    0 -0.00000000000E+00 -0.00000000000E+00 -0.74505805969E-08  0.93827000000E+00  0.93827000000E+00 0. -1.
     999902    2    1    2    0    0  0.15054606211E-01  0.18614409571E-01 -0.46365749950E-02  0.10195448562E+01  0.10192531965E+01 0.  0.
     999903    2    3    3    0    0  0.49936892456E-01 -0.11148163111E-03 -0.11989589021E+00  0.13114621669E+00  0.18182409253E-01 0.  0.
         14    1    1    2    0    0 -0.15054606211E-01 -0.18614409571E-01  0.46365749950E-02  0.24385143828E-01  0.00000000000E+00 0.  1.
     999901    1    3    3    0    0 -0.34882286245E-01  0.18725891202E-01  0.11525931521E+00  0.88839863948E+00  0.88000000000E+00 0.  1.
        -11    1    4    4    0    0  0.26094236791E-01  0.45611099982E-02 -0.81571296593E-01  0.85766254826E-01  0.51100000000E-03 0. -1.
         11    1    4    4    0    0  0.23842655666E-01 -0.46725916293E-02 -0.38324593615E-01  0.45379961860E-01  0.51100000000E-03 0.  1.
</event>
<event>
 8    1  0.1022673E+005  0.1043930E+01  0.7957747E-01            NaN
         13   -1    0    0    0    0  0.00000000000E+00  0.00000000000E+00  0.74505805969E-08  0.10566000000E+00  0.10566000000E+00 0. -1.
     999900   -1    0    0    0    0 -0.00000000000E+00 -0.00000000000E+00 -0.74505805969E-08  0.93827000000E+00  0.93827000000E+00 0. -1.
     999902    2    1    2    0    0 -0.21616289232E-01  0.53525669259E-02 -0.76774791994E-02  0.10203745841E+01  0.10201026587E+01 0.  0.
     999903    2    3    3    0    0 -0.16779555045E-01 -0.10153266452E+00 -0.78509901483E-01  0.13106863067E+00  0.20609363986E-01 0.  0.
         14    1    1    2    0    0  0.21616289232E-01 -0.53525669259E-02  0.76774791994E-02  0.23555415931E-01  0.00000000000E+00 0. -1.
     999901    1    3    3    0    0 -0.48367341864E-02  0.10688523144E+00  0.70832422283E-01  0.88930595340E+00  0.88000000000E+00 0. -1.
        -11    1    4    4    0    0 -0.21387114522E-01 -0.73894310751E-01 -0.57538432756E-01  0.96066176118E-01  0.51100000000E-03 0. -1.
         11    1    4    4    0    0  0.46075594766E-02 -0.27638353768E-01 -0.20971468726E-01  0.35002454555E-01  0.51100000000E-03 0.  1.
</event>
<event>
 8    1  0.1148392E+005  0.1043930E+01  0.7957747E-01            NaN
         13   -1    0    0    0    0  0.00000000000E+00  0.00000000000E+00  0.74505805969E-08  0.10566000000E+00  0.10566000000E+00 0. -1.
     999900   -1    0    0    0    0 -0.00000000000E+00 -0.00000000000E+00 -0.74505805969E-08  0.93827000000E+00  0.93827000000E+00 0. -1.
     999902    2    1    2    0    0 -0.12447862960E-01 -0.10257291617E-02  0.19707370586E-01  0.10205980076E+01  0.10203312753E+01 0.  0.
     999903    2    3    3    0    0 -0.75657164898E-01  0.85988916139E-01  0.60887512450E-01  0.13309433528E+00  0.29811283308E-01 0.  0.
         14    1    1    2    0    0  0.12447862960E-01  0.10257291617E-02 -0.19707370586E-01  0.23331992371E-01  0.00000000000E+00 0. -1.
     999901    1    3    3    0    0  0.63209301938E-01 -0.87014645300E-01 -0.41180141864E-01  0.88750367235E+00  0.88000000000E+00 0. -1.
        -11    1    4    4    0    0 -0.44156983924E-01  0.69907730985E-01  0.38304346136E-01  0.91128558282E-01  0.51100000000E-03 0. -1.
         11    1    4    4    0    0 -0.31500180974E-01  0.16081185154E-01  0.22583166314E-01  0.41965776999E-01  0.51100000000E-03 0.  1.
</event>
<event>
 8    1  0.1022673E+005  0.1043930E+01  0.7957747E-01            NaN
         13   -1    0    0    0    0  0.00000000000E+00  0.00000000000E+00  0.74505805969E-08  0.10566000000E+00  0.10566000000E+00 0.  1.
     999900   -1    0    0    0    0 -0.00000000000E+00 -0.00000000000E+00 -0.74505805969E-08  0.93827000000E+00  0.93827000000E+00 0. -1.
     999902    2    1    2    0    0  0.51246497412E-02  0.10383133554E-01 -0.19943716912E-01  0.10208687047E+01  0.10206081956E+01 0.  0.
     999903    2    3    3    0    0  0.12883116513E+00 -0.99016057293E-02  0.12703553099E-01  0.13138536204E+00  0.20130131465E-01 0.  0.
         14    1    1    2    0    0 -0.51246497412E-02 -0.10383133554E-01  0.19943716912E-01  0.23061295316E-01  0.00000000000E+00 0.  1.
     999901    1    3    3    0    0 -0.12370651539E+00  0.20284739284E-01 -0.32647270011E-01  0.88948334264E+00  0.88000000000E+00 0. -1.
        -11    1    4    4    0    0  0.40046500669E-01  0.15679541744E-02 -0.41296691319E-02  0.40292629404E-01  0.51100000000E-03 0.  1.
         11    1    4    4    0    0  0.88784664461E-01 -0.11469559904E-01  0.16833222231E-01  0.91092732639E-01  0.51100000000E-03 0. -1.
</event>
<event>
 8    1  0.1022673E+005  0.1043930E+01  0.7957747E-01            NaN
         13   -1    0    0    0    0  0.00000000000E+00  0.00000000000E+00  0.74505805969E-08  0.10566000000E+00  0.10566000000E+00 0. -1.
     999900   -1    0    0    0    0 -0.00000000000E+00 -0.00000000000E+00 -0.74505805969E-08  0.93827000000E+00  0.93827000000E+00 0.  1.
     999902    2    1    2    0    0 -0.11740897882E-01 -0.20120232191E-01  0.74931670676E-02  0.10194592015E+01  0.10191654643E+01 0.  0.
     999903    2    3    3    0    0 -0.95003702336E-02 -0.59657389142E-01  0.11543735235E+00  0.13197953758E+00  0.21060743295E-01 0.  0.
         14    1    1    2    0    0  0.11740897882E-01  0.20120232191E-01 -0.74931670676E-02  0.24470798499E-01  0.00000000000E+00 0.  1.
     999901    1    3    3    0    0 -0.22405276485E-02  0.39537156951E-01 -0.10794418528E+00  0.88747966392E+00  0.88000000000E+00 0.  1.
        -11    1    4    4    0    0  0.62342762679E-02 -0.18474463987E-01  0.29030964956E-01  0.34974706110E-01  0.51100000000E-03 0.  1.
         11    1    4    4    0    0 -0.15734646502E-01 -0.41182925155E-01  0.86406387391E-01  0.97004831466E-01  0.51100000000E-03 0. -1.
</event>
<event>
 8    1  0.1022673E+005  0.1043930E+01  0.7957747E-01            NaN
         13   -1    0    0    0    0  0.00000000000E+00  0.00000000000E+00  0.74505805969E-08  0.10566000000E+00  0.10566000000E+00 0. -1.
     999900   -1    0    0    0    0 -0.00000000000E+00 -0.00000000000E+00 -0.74505805969E-08  0.93827000000E+00  0.93827000000E+00 0.  1.
     999902    2    1    2    0    0 -0.13651998949E-01  0.13249118449E-01  0.14414098791E-01  0.10200619783E+01  0.10197827009E+01 0.  0.
     999903    2    3    3    0    0  0.85090170548E-01 -0.29655953354E-01 -0.88559300806E-01  0.12754061597E+00  0.17436922601E-01 0.  0.
         14    1    1    2    0    0  0.13651998949E-01 -0.13249118449E-01 -0.14414098791E-01  0.23868021681E-01  0.00000000000E+00 0.  1.
     999901    1    3    3    0    0 -0.98742169497E-01  0.42905071804E-01  0.10297339960E+00  0.89252136235E+00  0.88000000000E+00 0. -1.
        -11    1    4    4    0    0  0.45549925085E-01 -0.14532505123E-01 -0.58819015277E-01  0.75801893509E-01  0.51100000000E-03 0.  1.
         11    1    4    4    0    0  0.39540245463E-01 -0.15123448231E-01 -0.29740285529E-01  0.51738722462E-01  0.51100000000E-03 0. -1.
</event>
<event>
 8    1  0.1022673E+005  0.1043930E+01  0.7957747E-01            NaN
         13   -1    0    0    0    0  0.00000000000E+00  0.00000000000E+00  0.74505805969E-08  0.10566000000E+00  0.10566000000E+00 0.  1.
     999900   -1    0    0    0    0 -0.00000000000E+00 -0.00000000000E+00 -0.74505805969E-08  0.93827000000E+00  0.93827000000E+00 0.  1.
     999902    2    1    2    0    0 -0.11241671643E-01 -0.87929059602E-03  0.20720653428E-01  0.10203398789E+01  0.10200671423E+01 0.  0.
     999903    2    3    3    0    0 -0.12048482256E+00 -0.37895679607E-01  0.35276159374E-01  0.13269347308E+00  0.20260191978E-01 0.  0.
         14    1    1    2    0    0  0.11241671643E-01  0.87929059602E-03 -0.20720653428E-01  0.23590121063E-01  0.00000000000E+00 0. -1.
     999901    1    3    3    0    0  0.10924315091E+00  0.37016389011E-01 -0.14555505946E-01  0.88764640586E+00  0.88000000000E+00 0. -1.
        -11    1    4    4    0    0 -0.72139326947E-01 -0.26934998020E-01  0.12032231709E-01  0.77939799407E-01  0.51100000000E-03 0. -1.
         11    1    4    4    0    0 -0.48345495609E-01 -0.10960681587E-01  0.23243927665E-01  0.54753673674E-01  0.51100000000E-03 0.  1.
</event>
<event>
 8    1  0.1022673E+005  0.1043930E+01  0.7957747E-01            NaN
         13   -1    0    0    0    0  0.00000000000E+00  0.00000000000E+00  0.74505805969E-08  0.10566000000E+00  0.10566000000E+00 0. -1.
     999900   -1    0    0    0    0 -0.00000000000E+00 -0.00000000000E+00 -0.74505805969E-08  0.93827000000E+00  0.93827000000E+00 0.  1.
     999902    2    1    2    0    0  0.13120132850E-01 -0.19995114959E-01  0.27944516057E-02  0.10198519713E+01  0.10195676985E+01 0.  0.
     999903    2    3    3    0    0  0.96685314808E-01  0.73368501776E-01 -0.37853570061E-01  0.13004740495E+00  0.27357770647E-01 0.  0.
         14    1    1    2    0    0 -0.13120132850E-01  0.19995114959E-01 -0.27944516057E-02  0.24078028740E-01  0.00000000000E+00 0.  1.
     999901    1    3    3    0    0 -0.83565181958E-01 -0.93363616735E-01  0.40648021667E-01  0.88980456631E+00  0.88000000000E+00 0. -1.
        -11    1    4    4    0    0  0.10851405730E-01  0.21548664523E-01 -0.82580969560E-02  0.25505984305E-01  0.51100000000E-03 0.  1.
         11    1    4    4    0    0  0.85833909078E-01  0.51819837253E-01 -0.29595473105E-01  0.10454142064E+00  0.51100000000E-03 0. -1.
</event>
<event>
 8    1  0.1022673E+005  0.1043930E+01  0.7957747E-01            NaN
         13   -1    0    0    0    0  0.00000000000E+00  0.00000000000E+00  0.74505805969E-08  0.10566000000E+00  0.10566000000E+00 0. -1.
     999900   -1    0    0    0    0 -0.00000000000E+00 -0.00000000000E+00 -0.74505805969E-08  0.93827000000E+00  0.93827000000E+00 0. -1.
     999902    2    1    2    0    0 -0.20947103387E-01 -0.78368224547E-02  0.73242793235E-02  0.10203961522E+01  0.10201247303E+01 0.  0.
     999903    2    3    3    0    0  0.46949853282E-01  0.11248751445E+00 -0.35326911677E-01  0.12859624923E+00  0.20767161524E-01 0.  0.
         14    1    1    2    0    0  0.20947103387E-01  0.78368224547E-02 -0.73242793235E-02  0.23533847838E-01  0.00000000000E+00 0.  1.
     999901    1    3    3    0    0 -0.67896956668E-01 -0.12032433690E+00  0.42651191001E-01  0.89179990293E+00  0.88000000000E+00 0.  1.
        -11    1    4    4    0    0  0.13729153645E-01  0.38522621575E-01 -0.20545285940E-02  0.40950753858E-01  0.51100000000E-03 0. -1.
         11    1    4    4    0    0  0.33220699637E-01  0.73964892871E-01 -0.33272383083E-01  0.87645495371E-01  0.51100000000E-03 0.  1.
</event>
<event>
 8    1  0.1022673E+005  0.1043930E+01  0.7957747E-01            NaN
         13   -1    0    0    0    0  0.00000000000E+00  0.00000000000E+00  0.74505805969E-08  0.10566000000E+00  0.10566000000E+00 0. -1.
     999900   -1    0    0    0    0 -0.00000000000E+00 -0.00000000000E+00 -0.74505805969E-08  0.93827000000E+00  0.93827000000E+00 0.  1.
     999902    2    1    2    0    0  0.19752887261E-01 -0.13133370290E-01  0.20158335062E-03  0.10202086466E+01  0.10199328311E+01 0.  0.
     999903    2    3    3    0    0 -0.23872985523E-01 -0.98463864798E-01  0.80986596727E-01  0.13132691745E+00  0.20564004677E-01 0.  0.
         14    1    1    2    0    0 -0.19752887261E-01  0.13133370290E-01 -0.20158335062E-03  0.23721353380E-01  0.00000000000E+00 0. -1.
     999901    1    3    3    0    0  0.43625872785E-01  0.85330494508E-01 -0.80785013376E-01  0.88888172917E+00  0.88000000000E+00 0.  1.
        -11    1    4    4    0    0 -0.47872261568E-02 -0.56571286392E-01  0.37836532184E-01  0.68228236581E-01  0.51100000000E-03 0.  1.
         11    1    4    4    0    0 -0.19085759366E-01 -0.41892578406E-01  0.43150064542E-01  0.63098680867E-01  0.51100000000E-03 0. -1.
</event>
<event>
 8    1  0.1022673E+005  0.1043930E+01  0.7957747E-01            NaN
         13   -1    0    0    0    0  0.00000000000E+00  0.00000000000E+00  0.74505805969E-08  0.10566000000E+00  0.10566000000E+00 0.  1.
     999900   -1    0    0    0    0 -0.00000000000E+00 -0.00000000000E+00 -0.74505805969E-08  0.93827000000E+00  0.93827000000E+00 0. -1.
     999902    2    1    2    0    0 -0.14691761883E-01  0.15062379592E-01  0.80705099142E-02  0.10213943332E+01  0.10211456937E+01 0.  0.
     999903    2    3    3    0    0 -0.48028927763E-02  0.30718045992E-01 -0.12567808519E+00  0.13109574495E+00  0.20602114411E-01 0.  0.
         14    1    1    2    0    0  0.14691761883E-01 -0.15062379592E-01 -0.80705099142E-02  0.22535666763E-01  0.00000000000E+00 0. -1.
     999901    1    3    3    0    0 -0.98888691065E-02 -0.15655666400E-01  0.13374859510E+00  0.89029858829E+00  0.88000000000E+00 0.  1.
        -11    1    4    4    0    0  0.57913687864E-02  0.18742674864E-01 -0.49333594880E-01  0.53093243621E-01  0.51100000000E-03 0.  1.
         11    1    4    4    0    0 -0.10594261563E-01  0.11975371129E-01 -0.76344490306E-01  0.78002501324E-01  0.51100000000E-03 0. -1.
</event>
<event>
 8    1  0.1022673E+005  0.1043930E+01  0.7957747E-01            NaN
         13   -1    0    0    0    0  0.00000000000E+00  0.00000000000E+00  0.74505805969E-08  0.10566000000E+00  0.10566000000E+00 0.  1.
     999900   -1    0    0    0    0 -0.00000000000E+00 -0.00000000000E+00 -0.74505805969E-08  0.93827000000E+00  0.93827000000E+00 0.  1.
     999902    2    1    2    0    0  0.89688904304E-04  0.23342649287E-01  0.49080483963E-02  0.10200767768E+01  0.10197978497E+01 0.  0.
     999903    2    3    3    0    0  0.10783968003E+00 -0.54938945106E-01  0.41107883947E-01  0.12931951650E+00  0.19646754120E-01 0.  0.
         14    1    1    2    0    0 -0.89688904304E-04 -0.23342649287E-01 -0.49080483963E-02  0.23853223239E-01  0.00000000000E+00 0.  1.
     999901    1    3    3    0    0 -0.10774999113E+00  0.78281594393E-01 -0.36199835551E-01  0.89075726026E+00  0.88000000000E+00 0.  1.
        -11    1    4    4    0    0  0.35334974510E-01 -0.13416401910E-01  0.43917437341E-02  0.38054024727E-01  0.51100000000E-03 0.  1.
         11    1    4    4    0    0  0.72504705520E-01 -0.41522543196E-01  0.36716140213E-01  0.91265491776E-01  0.51100000000E-03 0. -1.
</event>
<event>
 8    1  0.1022673E+005  0.1043930E+01  0.7957747E-01            NaN
         13   -1    0    0    0    0  0.00000000000E+00  0.00000000000E+00  0.74505805969E-08  0.10566000000E+00  0.10566000000E+00 0. -1.
     999900   -1    0    0    0    0 -0.00000000000E+00 -0.00000000000E+00 -0.74505805969E-08  0.93827000000E+00  0.93827000000E+00 0.  1.
     999902    2    1    2    0    0  0.11451243915E-01 -0.10752229652E-01 -0.17629527971E-01  0.10203176794E+01  0.10200444231E+01 0.  0.
     999903    2    3    3    0    0  0.13934326515E-01  0.72316627865E-01 -0.10768437183E+00  0.13182655633E+00  0.18932957941E-01 0.  0.
         14    1    1    2    0    0 -0.11451243915E-01  0.10752229652E-01  0.17629527971E-01  0.23612320643E-01  0.00000000000E+00 0. -1.
     999901    1    3    3    0    0 -0.24830826008E-02 -0.83068857517E-01  0.90054843862E-01  0.88849112302E+00  0.88000000000E+00 0.  1.
        -11    1    4    4    0    0  0.28614320094E-03  0.42132103942E-01 -0.50834866336E-01  0.66027576185E-01  0.51100000000E-03 0.  1.
         11    1    4    4    0    0  0.13648183314E-01  0.30184523923E-01 -0.56849505498E-01  0.65798980148E-01  0.51100000000E-03 0. -1.
</event>
<event>
 8    1  0.1022673E+005  0.1043930E+01  0.7957747E-01            NaN
         13   -1    0    0    0    0  0.00000000000E+00  0.00000000000E+00  0.74505805969E-08  0.10566000000E+00  0.10566000000E+00 0. -1.
     999900   -1    0    0    0    0 -0.00000000000E+00 -0.00000000000E+00 -0.74505805969E-08  0.93827000000E+00  0.93827000000E+00 0.  1.
     999902    2    1    2    0    0 -0.55747734945E-02 -0.18458660575E-01 -0.13421209698E-01  0.10204368282E+01  0.10201663547E+01 0.  0.
     999903    2    3    3    0    0 -0.42143544897E-02 -0.12618781969E+00  0.35358405470E-01  0.13252530487E+00  0.19277265686E-01 0.  0.
         14    1    1    2    0    0  0.55747734945E-02  0.18458660575E-01  0.13421209698E-01  0.23493171763E-01  0.00000000000E+00 0. -1.
     999901    1    3    3    0    0 -0.13604190047E-02  0.10772915912E+00 -0.48779615168E-01  0.88791152336E+00  0.88000000000E+00 0.  1.
        -11    1    4    4    0    0 -0.10383842245E-01 -0.10809344696E+00  0.29644146632E-01  0.11256577635E+00  0.51100000000E-03 0. -1.
         11    1    4    4    0    0  0.61694877551E-02 -0.18094372731E-01  0.57142588381E-02  0.19959528520E-01  0.51100000000E-03 0.  1.
</event>
<event>
 8    1  0.1022673E+005  0.1043930E+01  0.7957747E-01            NaN
         13   -1    0    0    0    0  0.00000000000E+00  0.00000000000E+00  0.74505805969E-08  0.10566000000E+00  0.10566000000E+00 0.  1.
     999900   -1    0    0    0    0 -0.00000000000E+00 -0.00000000000E+00 -0.74505805969E-08  0.93827000000E+00  0.93827000000E+00 0.  1.
     999902    2    1    2    0    0  0.22152524721E-01  0.18477246892E-01 -0.92821204212E-02  0.10136265223E+01  0.10131734431E+01 0.  0.
     999903    2    3    3    0    0 -0.81225330687E-01 -0.55259913887E-01 -0.70020673655E-01  0.12244005371E+00  0.20915534518E-01 0.  0.
         14    1    1    2    0    0 -0.22152524721E-01 -0.18477246892E-01  0.92821204212E-02  0.30303477750E-01  0.00000000000E+00 0.  1.
     999901    1    3    3    0    0  0.10337785541E+00  0.73737160779E-01  0.60738553234E-01  0.89118646854E+00  0.88000000000E+00 0.  1.
        -11    1    4    4    0    0 -0.71405638083E-01 -0.39336241034E-01 -0.59888886720E-01  0.10115851364E+00  0.51100000000E-03 0. -1.
         11    1    4    4    0    0 -0.98196926048E-02 -0.15923672853E-01 -0.10131786935E-01  0.21281540063E-01  0.51100000000E-03 0.  1.
</event>
<event>
 8    1  0.1022673E+005  0.1043930E+01  0.7957747E-01            NaN
         13   -1    0    0    0    0  0.00000000000E+00  0.00000000000E+00  0.74505805969E-08  0.10566000000E+00  0.10566000000E+00 0.  1.
     999900   -1    0    0    0    0 -0.00000000000E+00 -0.00000000000E+00 -0.74505805969E-08  0.93827000000E+00  0.93827000000E+00 0. -1.
     999902    2    1    2    0    0  0.35239631472E-02 -0.14753199960E-01 -0.17367388750E-01  0.10208713483E+01  0.10206108996E+01 0.  0.
     999903    2    3    3    0    0 -0.89896769126E-01  0.90852195209E-01  0.29869588331E-02  0.12941510589E+00  0.20094706645E-01 0.  0.
         14    1    1    2    0    0 -0.35239631472E-02  0.14753199960E-01  0.17367388750E-01  0.23058651680E-01  0.00000000000E+00 0.  1.
     999901    1    3    3    0    0  0.93420732273E-01 -0.10560539517E+00 -0.20354347583E-01  0.89145624243E+00  0.88000000000E+00 0. -1.
        -11    1    4    4    0    0 -0.27086452295E-01  0.35353135708E-01 -0.66920877065E-02  0.45039596592E-01  0.51100000000E-03 0. -1.
         11    1    4    4    0    0 -0.62810316830E-01  0.55499059501E-01  0.96790465395E-02  0.84375509295E-01  0.51100000000E-03 0.  1.
</event>
<event>
 8    1  0.1022673E+005  0.1043930E+01  0.7957747E-01            NaN
         13   -1    0    0    0    0  0.00000000000E+00  0.00000000000E+00  0.74505805969E-08  0.10566000000E+00  0.10566000000E+00 0.  1.
     999900   -1    0    0    0    0 -0.00000000000E+00 -0.00000000000E+00 -0.74505805969E-08  0.93827000000E+00  0.93827000000E+00 0. -1.
     999902    2    1    2    0    0 -0.23453570081E-01 -0.40483715160E-02  0.98040694627E-03  0.10201094110E+01  0.10198312556E+01 0.  0.
     999903    2    3    3    0    0 -0.13035848771E+00  0.14974466225E-01 -0.12459695810E-01  0.13333369748E+00  0.20126124980E-01 0.  0.
         14    1    1    2    0    0  0.23453570081E-01  0.40483715160E-02 -0.98040694627E-03  0.23820588978E-01  0.00000000000E+00 0.  1.
     999901    1    3    3    0    0  0.10690491763E+00 -0.19022837741E-01  0.13440102756E-01  0.88677571354E+00  0.88000000000E+00 0.  1.
        -11    1    4    4    0    0 -0.87227031296E-01  0.89363375474E-03 -0.52608821503E-02  0.87391598978E-01  0.51100000000E-03 0.  1.
         11    1    4    4    0    0 -0.43131456414E-01  0.14080832470E-01 -0.71988136594E-02  0.45942098500E-01  0.51100000000E-03 0. -1.
</event>
<event>
 8    1  0.1022673E+005  0.1043930E+01  0.7957747E-01            NaN
         13   -1    0    0    0    0  0.00000000000E+00  0.00000000000E+00  0.74505805969E-08  0.10566000000E+00  0.10566000000E+00 0.  1.
     999900   -1    0    0    0    0 -0.00000000000E+00 -0.00000000000E+00 -0.74505805969E-08  0.93827000000E+00  0.93827000000E+00 0. -1.
     999902    2    1    2    0    0 -0.76403545687E-02 -0.19105711326E-01  0.12708490077E-01  0.10197451092E+01  0.10194582771E+01 0.  0.
     999903    2    3    3    0    0  0.36982437366E-01  0.61658406533E-01 -0.10319833702E+00  0.12736154320E+00  0.20040113600E-01 0.  0.
         14    1    1    2    0    0  0.76403545687E-02  0.19105711326E-01 -0.12708490077E-01  0.24184890805E-01  0.00000000000E+00 0. -1.
     999901    1    3    3    0    0 -0.44622791934E-01 -0.80764117859E-01  0.11590682709E+00  0.89238356600E+00  0.88000000000E+00 0. -1.
        -11    1    4    4    0    0  0.21270744158E-01  0.47199223348E-01 -0.60570658007E-01  0.79682350455E-01  0.51100000000E-03 0. -1.
         11    1    4    4    0    0  0.15711693208E-01  0.14459183185E-01 -0.42627679011E-01  0.47679192744E-01  0.51100000000E-03 0.  1.
</event>
<event>
 8    1  0.1022673E+005  0.1043930E+01  0.7957747E-01            NaN
         13   -1    0    0    0    0  0.00000000000E+00  0.00000000000E+00  0.74505805969E-08  0.10566000000E+00  0.10566000000E+00 0.  1.
     999900   -1    0    0    0    0 -0.00000000000E+00 -0.00000000000E+00 -0.74505805969E-08  0.93827000000E+00  0.93827000000E+00 0.  1.
     999902    2    1    2    0    0 -0.77481527282E-02  0.12748425523E-01 -0.12888990717E-01  0.10242149726E+01  0.10240252086E+01 0.  0.
     999903    2    3    3    0    0 -0.34414754215E-01 -0.95472218577E-01 -0.85544340629E-01  0.13421406511E+00  0.19906311372E-01 0.  0.
         14    1    1    2    0    0  0.77481527282E-02 -0.12748425523E-01  0.12888990717E-01  0.19715027408E-01  0.00000000000E+00 0.  1.
     999901    1    3    3    0    0  0.26666601487E-01  0.10822064410E+00  0.72655349912E-01  0.89000090748E+00  0.88000000000E+00 0. -1.
        -11    1    4    4    0    0 -0.25300884636E-01 -0.82500323070E-01 -0.63888156591E-01  0.10737036716E+00  0.51100000000E-03 0.  1.
         11    1    4    4    0    0 -0.91138695798E-02 -0.12971895507E-01 -0.21656184038E-01  0.26843697954E-01  0.51100000000E-03 0. -1.
</event>
<event>
 8    1  0.1022673E+005  0.1043930E+01  0.7957747E-01            NaN
         13   -1    0    0    0    0  0.00000000000E+00  0.00000000000E+00  0.74505805969E-08  0.10566000000E+00  0.10566000000E+00 0.  1.
     999900   -1    0    0    0    0 -0.00000000000E+00 -0.00000000000E+00 -0.74505805969E-08  0.93827000000E+00  0.93827000000E+00 0. -1.
     999902    2    1    2    0    0  0.18301366102E-01  0.29404642979E-02 -0.10053257407E-03  0.10253936455E+01  0.10252260881E+01 0.  0.
     999903    2    3    3    0    0 -0.98008591219E-01 -0.74730602883E-01  0.45786654049E-01  0.13316809400E+00  0.21141821353E-01 0.  0.
         14    1    1    2    0    0 -0.18301366102E-01 -0.29404642979E-02  0.10053257407E-03  0.18536354504E-01  0.00000000000E+00 0.  1.
     999901    1    3    3    0    0  0.11630995732E+00  0.77671067181E-01 -0.45887186624E-01  0.89222555150E+00  0.88000000000E+00 0.  1.
        -11    1    4    4    0    0 -0.33783439022E-01 -0.35006347754E-01  0.25701662347E-01  0.55023646768E-01  0.51100000000E-03 0. -1.
         11    1    4    4    0    0 -0.64225152197E-01 -0.39724255129E-01  0.20084991702E-01  0.78144447231E-01  0.51100000000E-03 0.  1.
</event>
<event>
 8    1  0.1022673E+005  0.1043930E+01  0.7957747E-01            NaN
         13   -1    0    0    0    0  0.00000000000E+00  0.00000000000E+00  0.74505805969E-08  0.10566000000E+00  0.10566000000E+00 0.  1.
     999900   -1    0    0    0    0 -0.00000000000E+00 -0.00000000000E+00 -0.74505805969E-08  0.93827000000E+00  0.93827000000E+00 0.  1.
     999902    2    1    2    0    0  0.75740255937E-02 -0.16792130720E-01  0.24088866378E-01  0.10136048454E+01  0.10131511080E+01 0.  0.
     999903    2    3    3    0    0 -0.12094966682E+00 -0.12350849108E-01 -0.97721405507E-02  0.12361347900E+00  0.20085618753E-01 0.  0.
         14    1    1    2    0    0 -0.75740255937E-02  0.16792130720E-01 -0.24088866378E-01  0.30325154594E-01  0.00000000000E+00 0. -1.
     999901    1    3    3    0    0  0.12852369241E+00 -0.44412816117E-02  0.33861006928E-01  0.88999136641E+00  0.88000000000E+00 0. -1.
        -11    1    4    4    0    0 -0.65082232702E-01 -0.11655402632E-01  0.34026002521E-02  0.66207131289E-01  0.51100000000E-03 0.  1.
         11    1    4    4    0    0 -0.55867434119E-01 -0.69544647547E-03 -0.13174740803E-01  0.57406347707E-01  0.51100000000E-03 0. -1.
</event>
<event>
 8    1  0.1022673E+005  0.1043930E+01  0.7957747E-01            NaN
         13   -1    0    0    0    0  0.00000000000E+00  0.00000000000E+00  0.74505805969E-08  0.10566000000E+00  0.10566000000E+00 0. -1.
     999900   -1    0    0    0    0 -0.00000000000E+00 -0.00000000000E+00 -0.74505805969E-08  0.93827000000E+00  0.93827000000E+00 0. -1.
     999902    2    1    2    0    0 -0.24494107092E-02 -0.26832275317E-01  0.71791165880E-02  0.10160461278E+01  0.10156634401E+01 0.  0.
     999903    2    3    3    0    0  0.62956941309E-01 -0.10910311728E+00  0.23281402213E-01  0.12964567324E+00  0.19972737451E-01 0.  0.
         14    1    1    2    0    0  0.24494107092E-02  0.26832275317E-01 -0.71791165880E-02  0.27883872158E-01  0.00000000000E+00 0.  1.
     999901    1    3    3    0    0 -0.65406352019E-01  0.82270841961E-01 -0.16102285625E-01  0.88640045460E+00  0.88000000000E+00 0.  1.
        -11    1    4    4    0    0  0.47623492996E-01 -0.94008216775E-01  0.24110153919E-01  0.10810690334E+00  0.51100000000E-03 0.  1.
         11    1    4    4    0    0  0.15333448314E-01 -0.15094900503E-01 -0.82875170588E-03  0.21538769900E-01  0.51100000000E-03 0. -1.
</event>
<event>
 8    1  0.1022673E+005  0.1043930E+01  0.7957747E-01            NaN
         13   -1    0    0    0    0  0.00000000000E+00  0.00000000000E+00  0.74505805969E-08  0.10566000000E+00  0.10566000000E+00 0.  1.
     999900   -1    0    0    0    0 -0.00000000000E+00 -0.00000000000E+00 -0.74505805969E-08  0.93827000000E+00  0.93827000000E+00 0.  1.
     999902    2    1    2    0    0  0.24973577731E-02  0.22644035040E-01 -0.82517551654E-03  0.10211337276E+01  0.10208792385E+01 0.  0.
     999903    2    3    3    0    0  0.23851087243E-01  0.67928129522E-01  0.10971412615E+00  0.13280632843E+00  0.20426116908E-01 0.  0.
         14    1    1    2    0    0 -0.24973577731E-02 -0.22644035040E-01  0.82517551654E-03  0.22796272357E-01  0.00000000000E+00 0.  1.
     999901    1    3    3    0    0 -0.21353729470E-01 -0.45284094483E-01 -0.11053930167E+00  0.88832739921E+00  0.88000000000E+00 0.  1.
        -11    1    4    4    0    0  0.21791067215E-01  0.64486953393E-01  0.10927052427E+00  0.12873898541E+00  0.51100000000E-03 0.  1.
         11    1    4    4    0    0  0.20600200284E-02  0.34411761297E-02  0.44360188059E-03  0.40673430273E-02  0.51100000000E-03 0. -1.
</event>
<event>
 8    1  0.1022673E+005  0.1043930E+01  0.7957747E-01            NaN
         13   -1    0    0    0    0  0.00000000000E+00  0.00000000000E+00  0.74505805969E-08  0.10566000000E+00  0.10566000000E+00 0.  1.
     999900   -1    0    0    0    0 -0.00000000000E+00 -0.00000000000E+00 -0.74505805969E-08  0.93827000000E+00  0.93827000000E+00 0.  1.
     999902    2    1    2    0    0 -0.12492419658E-01  0.18912254586E-01  0.62809469080E-02  0.10204101315E+01  0.10201390357E+01 0.  0.
     999903    2    3    3    0    0 -0.23463193675E-01 -0.10304555108E+00  0.72226650426E-01  0.12948763199E+00  0.19530764230E-01 0.  0.
         14    1    1    2    0    0  0.12492419658E-01 -0.18912254586E-01 -0.62809469080E-02  0.23519868547E-01  0.00000000000E+00 0. -1.
     999901    1    3    3    0    0  0.10970774018E-01  0.12195780566E+00 -0.65945703518E-01  0.89092249947E+00  0.88000000000E+00 0.  1.
        -11    1    4    4    0    0 -0.18990137396E-01 -0.90749155422E-01  0.70071797012E-01  0.11621683349E+00  0.51100000000E-03 0.  1.
         11    1    4    4    0    0 -0.44730562789E-02 -0.12296395654E-01  0.21548534137E-02  0.13270798499E-01  0.51100000000E-03 0. -1.
</event>
<event>
 8    1  0.1022673E+005  0.1043930E+01  0.7957747E-01            NaN
         13   -1    0    0    0    0  0.00000000000E+00  0.00000000000E+00  0.74505805969E-08  0.10566000000E+00  0.10566000000E+00 0.  1.
     999900   -1    0    0    0    0 -0.00000000000E+00 -0.00000000000E+00 -0.74505805969E-08  0.93827000000E+00  0.93827000000E+00 0. -1.
     999902    2    1    2    0    0  0.64453458377E-04 -0.14780403052E-01  0.18854729598E-01  0.10199724272E+01  0.10196910252E+01 0.  0.
     999903    2    3    3    0    0 -0.79016532256E-01  0.95132835827E-01 -0.28111331636E-01  0.12837805004E+00  0.19920038757E-01 0.  0.
         14    1    1    2    0    0 -0.64453458377E-04  0.14780403052E-01 -0.18854729598E-01  0.23957572849E-01  0.00000000000E+00 0. -1.
     999901    1    3    3    0    0  0.79080985715E-01 -0.10991323888E+00  0.46966061234E-01  0.89159437711E+00  0.88000000000E+00 0. -1.
        -11    1    4    4    0    0 -0.24690538058E-01  0.26596080480E-01  0.68893197848E-03  0.36300274307E-01  0.51100000000E-03 0.  1.
         11    1    4    4    0    0 -0.54325994198E-01  0.68536755347E-01 -0.28800263615E-01  0.92077775736E-01  0.51100000000E-03 0. -1.
</event>
<event>
 8    1  0.1022673E+005  0.1043930E+01  0.7957747E-01            NaN
         13   -1    0    0    0    0  0.00000000000E+00  0.00000000000E+00  0.74505805969E-08  0.10566000000E+00  0.10566000000E+00 0.  1.
     999900   -1    0    0    0    0 -0.00000000000E+00 -0.00000000000E+00 -0.74505805969E-08  0.93827000000E+00  0.93827000000E+00 0. -1.
     999902    2    1    2    0    0 -0.20265390033E-01 -0.65945843077E-02 -0.96265229140E-02  0.10205452931E+01  0.10202773401E+01 0.  0.
     999903    2    3    3    0    0  0.60937308875E-01  0.10922561826E+00 -0.24327506279E-01  0.12912826577E+00  0.20944931652E-01 0.  0.
         14    1    1    2    0    0  0.20265390033E-01  0.65945843077E-02  0.96265229140E-02  0.23384706943E-01  0.00000000000E+00 0.  1.
     999901    1    3    3    0    0 -0.81202698908E-01 -0.11582020256E+00  0.14700983365E-01  0.89141702729E+00  0.88000000000E+00 0. -1.
        -11    1    4    4    0    0  0.32669744818E-01  0.61614501633E-01 -0.30507754141E-02  0.69808505138E-01  0.51100000000E-03 0.  1.
         11    1    4    4    0    0  0.28267564057E-01  0.47611116622E-01 -0.21276730865E-01  0.59319760628E-01  0.51100000000E-03 0. -1.
</event>
<event>
 8    1  0.1022673E+005  0.1043930E+01  0.7957747E-01            NaN
         13   -1    0    0    0    0  0.00000000000E+00  0.00000000000E+00  0.74505805969E-08  0.10566000000E+00  0.10566000000E+00 0. -1.
     999900   -1    0    0    0    0 -0.00000000000E+00 -0.00000000000E+00 -0.74505805969E-08  0.93827000000E+00  0.93827000000E+00 0.  1.
     999902    2    1    2    0    0 -0.22269154047E-01 -0.59271714162E-02  0.37334539658E-02  0.10205850806E+01  0.10203180492E+01 0.  0.
     999903    2    3    3    0    0 -0.38810086551E-02  0.74451362103E-01 -0.10528925254E+00  0.13003200354E+00  0.16261232970E-01 0.  0.
         14    1    1    2    0    0  0.22269154047E-01  0.59271714162E-02 -0.37334539658E-02  0.23344919393E-01  0.00000000000E+00 0.  1.
     999901    1    3    3    0    0 -0.18388145392E-01 -0.80378533519E-01  0.10902270650E+00  0.89055307707E+00  0.88000000000E+00 0.  1.
        -11    1    4    4    0    0 -0.11964407025E-02  0.61669583298E-01 -0.75447867848E-01  0.97453634403E-01  0.51100000000E-03 0.  1.
         11    1    4    4    0    0 -0.26845679526E-02  0.12781778805E-01 -0.29841384688E-01  0.32578369137E-01  0.51100000000E-03 0. -1.
</event>
<event>
 8    1  0.1022673E+005  0.1043930E+01  0.7957747E-01            NaN
         13   -1    0    0    0    0  0.00000000000E+00  0.00000000000E+00  0.74505805969E-08  0.10566000000E+00  0.10566000000E+00 0.  1.
     999900   -1    0    0    0    0 -0.00000000000E+00 -0.00000000000E+00 -0.74505805969E-08  0.93827000000E+00  0.93827000000E+00 0.  1.
     999902    2    1    2    0    0 -0.20083115901E-01  0.15253793891E-01 -0.62483359769E-02  0.10179482473E+01  0.10176166187E+01 0.  0.
     999903    2    3    3    0    0 -0.93624884542E-01 -0.33847211496E-01 -0.81900927824E-01  0.13028692947E+00  0.18859196197E-01 0.  0.
         14    1    1    2    0    0  0.20083115901E-01 -0.15253793891E-01  0.62483359769E-02  0.25981752728E-01  0.00000000000E+00 0. -1.
     999901    1    3    3    0    0  0.73541768641E-01  0.49101005386E-01  0.75652591847E-01  0.88766131780E+00  0.88000000000E+00 0. -1.
        -11    1    4    4    0    0 -0.33923601279E-01 -0.21590688571E-01 -0.36193938863E-01  0.54103889769E-01  0.51100000000E-03 0. -1.
         11    1    4    4    0    0 -0.59701283264E-01 -0.12256522924E-01 -0.45706988961E-01  0.76183039703E-01  0.51100000000E-03 0.  1.
</event>
<event>
 8    1  0.1022673E+005  0.1043930E+01  0.7957747E-01            NaN
         13   -1    0    0    0    0  0.00000000000E+00  0.00000000000E+00  0.74505805969E-08  0.10566000000E+00  0.10566000000E+00 0. -1.
     999900   -1    0    0    0    0 -0.00000000000E+00 -0.00000000000E+00 -0.74505805969E-08  0.93827000000E+00  0.93827000000E+00 0. -1.
     999902    2    1    2    0    0  0.11815740974E-02  0.19647502974E-01 -0.90331107652E-02  0.10222731863E+01  0.10220437612E+01 0.  0.
     999903    2    3    3    0    0 -0.93744138338E-03 -0.12679866547E-01  0.12882994637E+00  0.13095070167E+00  0.19730011999E-01 0.  0.
         14    1    1    2    0    0 -0.11815740974E-02 -0.19647502974E-01  0.90331107652E-02  0.21656813721E-01  0.00000000000E+00 0.  1.
     999901    1    3    3    0    0  0.21190154808E-02  0.32327369521E-01 -0.13786305714E+00  0.89132248461E+00  0.88000000000E+00 0. -1.
        -11    1    4    4    0    0 -0.23779448050E-02 -0.16575988016E-01  0.70195493689E-01  0.72167073208E-01  0.51100000000E-03 0.  1.
         11    1    4    4    0    0  0.14405034217E-02  0.38961214690E-02  0.58634452683E-01  0.58783628461E-01  0.51100000000E-03 0. -1.
</event>
<event>
 8    1  0.1022673E+005  0.1043930E+01  0.7957747E-01            NaN
         13   -1    0    0    0    0  0.00000000000E+00  0.00000000000E+00  0.74505805969E-08  0.10566000000E+00  0.10566000000E+00 0.  1.
     999900   -1    0    0    0    0 -0.00000000000E+00 -0.00000000000E+00 -0.74505805969E-08  0.93827000000E+00  0.93827000000E+00 0. -1.
     999902    2    1    2    0    0 -0.18383029983E-02 -0.10735931223E-01  0.20419467601E-01  0.10207870911E+01  0.10205247136E+01 0.  0.
     999903    2    3    3    0    0  0.19246776785E-01 -0.69650509126E-01  0.11093842935E+00  0.13393355720E+00  0.20229453767E-01 0.  0.
         14    1    1    2    0    0  0.18383029983E-02  0.10735931223E-01 -0.20419467601E-01  0.23142908941E-01  0.00000000000E+00 0. -1.
     999901    1    3    3    0    0 -0.21085079783E-01  0.58914577903E-01 -0.90518961751E-01  0.88685353386E+00  0.88000000000E+00 0.  1.
        -11    1    4    4    0    0  0.53145456523E-02 -0.52636350973E-01  0.74603564720E-01  0.91459186685E-01  0.51100000000E-03 0. -1.
         11    1    4    4    0    0  0.13932231133E-01 -0.17014158153E-01  0.36334864632E-01  0.42474370516E-01  0.51100000000E-03 0.  1.
</event>
<event>
 8    1  0.1022673E+005  0.1043930E+01  0.7957747E-01            NaN
         13   -1    0    0    0    0  0.00000000000E+00  0.00000000000E+00  0.74505805969E-08  0.10566000000E+00  0.10566000000E+00 0.  1.
     999900   -1    0    0    0    0 -0.00000000000E+00 -0.00000000000E+00 -0.74505805969E-08  0.93827000000E+00  0.93827000000E+00 0. -1.
     999902    2    1    2    0    0  0.10543314995E-02  0.17105165017E-01 -0.15619719742E-01  0.10207422030E+01  0.10204787950E+01 0.  0.
     999903    2    3    3    0    0 -0.73012251013E-01  0.91084652092E-01  0.56926997634E-01  0.13157301248E+00  0.21061146914E-01 0.  0.
         14    1    1    2    0    0 -0.10543314995E-02 -0.17105165017E-01  0.15619719742E-01  0.23187797006E-01  0.00000000000E+00 0.  1.
     999901    1    3    3    0    0  0.74066582512E-01 -0.73979487075E-01 -0.72546717376E-01  0.88916919051E+00  0.88000000000E+00 0. -1.
        -11    1    4    4    0    0 -0.35679255209E-01  0.31642416299E-01  0.15927224942E-01  0.50281103576E-01  0.51100000000E-03 0. -1.
         11    1    4    4    0    0 -0.37332995804E-01  0.59442235793E-01  0.40999772692E-01  0.81291908906E-01  0.51100000000E-03 0.  1.
</event>
<event>
 8    1  0.1022673E+005  0.1043930E+01  0.7957747E-01            NaN
         13   -1    0    0    0    0  0.00000000000E+00  0.00000000000E+00  0.74505805969E-08  0.10566000000E+00  0.10566000000E+00 0. -1.
     999900   -1    0    0    0    0 -0.00000000000E+00 -0.00000000000E+00 -0.74505805969E-08  0.93827000000E+00  0.93827000000E+00 0.  1.
     999902    2    1    2    0    0  0.13206215471E-01 -0.16841872595E-01 -0.10775234423E-01  0.10199683958E+01  0.10196868980E+01 0.  0.
     999903    2    3    3    0    0  0.88922591197E-01 -0.96682528529E-01 -0.83949798161E-02  0.13311262087E+00  0.19843275957E-01 0.  0.
         14    1    1    2    0    0 -0.13206215471E-01  0.16841872595E-01  0.10775234423E-01  0.23961604212E-01  0.00000000000E+00 0. -1.
     999901    1    3    3    0    0 -0.75716375726E-01  0.79840655934E-01 -0.23802546066E-02  0.88685577492E+00  0.88000000000E+00 0.  1.
        -11    1    4    4    0    0  0.32875663137E-01 -0.46472897789E-01 -0.10232958292E-01  0.57840418497E-01  0.51100000000E-03 0.  1.
         11    1    4    4    0    0  0.56046928061E-01 -0.50209630740E-01  0.18379784760E-02  0.75272202372E-01  0.51100000000E-03 0. -1.
</event>
<event>
 8    1  0.1022673E+005  0.1043930E+01  0.7957747E-01            NaN
         13   -1    0    0    0    0  0.00000000000E+00  0.00000000000E+00  0.74505805969E-08  0.10566000000E+00  0.10566000000E+00 0. -1.
     999900   -1    0    0    0    0 -0.00000000000E+00 -0.00000000000E+00 -0.74505805969E-08  0.93827000000E+00  0.93827000000E+00 0.  1.
     999902    2    1    2    0    0 -0.14200335024E-01  0.17830773170E-01  0.44458222044E-02  0.10207060615E+01  0.10204418222E+01 0.  0.
     999903    2    3    3    0    0 -0.11484596664E-01 -0.11017187202E+00  0.63437020164E-01  0.12948666431E+00  0.21744041965E-01 0.  0.
         14    1    1    2    0    0  0.14200335024E-01 -0.17830773170E-01 -0.44458222044E-02  0.23223938549E-01  0.00000000000E+00 0. -1.
     999901    1    3    3    0    0 -0.27157383604E-02  0.12800264519E+00 -0.58991197960E-01  0.89121939714E+00  0.88000000000E+00 0.  1.
        -11    1    4    4    0    0 -0.97762917213E-02 -0.80032338038E-01  0.34611977194E-01  0.87743951917E-01  0.51100000000E-03 0.  1.
         11    1    4    4    0    0 -0.17083049427E-02 -0.30139533982E-01  0.28825042971E-01  0.41742712390E-01  0.51100000000E-03 0. -1.
</event>
<event>
 8    1  0.1022673E+005  0.1043930E+01  0.7957747E-01            NaN
         13   -1    0    0    0    0  0.00000000000E+00  0.00000000000E+00  0.74505805969E-08  0.10566000000E+00  0.10566000000E+00 0.  1.
     999900   -1    0    0    0    0 -0.00000000000E+00 -0.00000000000E+00 -0.74505805969E-08  0.93827000000E+00  0.93827000000E+00 0.  1.
     999902    2    1    2    0    0 -0.13771148192E-01  0.42198123245E-02  0.16567704097E-01  0.10219768645E+01  0.10217410491E+01 0.  0.
     999903    2    3    3    0    0  0.89071224300E-01  0.90786392143E-01  0.28319699158E-01  0.13169127230E+00  0.19098006244E-01 0.  0.
         14    1    1    2    0    0  0.13771148192E-01 -0.42198123245E-02 -0.16567704097E-01  0.21953135485E-01  0.00000000000E+00 0. -1.
     999901    1    3    3    0    0 -0.10284237249E+00 -0.86566579818E-01 -0.11751995061E-01  0.89028559222E+00  0.88000000000E+00 0. -1.
        -11    1    4    4    0    0  0.58916314729E-02  0.82852326658E-03  0.25276097555E-02  0.64844201199E-02  0.51100000000E-03 0.  1.
         11    1    4    4    0    0  0.83179592827E-01  0.89957868876E-01  0.25792089403E-01  0.12520685218E+00  0.51100000000E-03 0. -1.
</event>
<event>
 8    1  0.1022673E+005  0.1043930E+01  0.7957747E-01            NaN
         13   -1    0    0    0    0  0.00000000000E+00  0.00000000000E+00  0.74505805969E-08  0.10566000000E+00  0.10566000000E+00 0. -1.
     999900   -1    0    0    0    0 -0.00000000000E+00 -0.00000000000E+00 -0.74505805969E-08  0.93827000000E+00  0.93827000000E+00 0. -1.
     999902    2    1    2    0    0  0.12354804895E-01  0.16671761901E-01  0.12838693832E-01  0.10195287519E+01  0.10192367022E+01 0.  0.
     999903    2    3    3    0    0 -0.11848709645E+00  0.44432403727E-01  0.15947375455E-01  0.12941644423E+00  0.21928673629E-01 0.  0.
         14    1    1    2    0    0 -0.12354804895E-01 -0.16671761901E-01 -0.12838693832E-01  0.24401248087E-01  0.00000000000E+00 0. -1.
     999901    1    3    3    0    0  0.13084190135E+00 -0.27760641827E-01 -0.31086816224E-02  0.89011230768E+00  0.88000000000E+00 0.  1.
        -11    1    4    4    0    0 -0.59045215947E-01  0.27057888038E-01 -0.18521534424E-02  0.64978138051E-01  0.51100000000E-03 0. -1.
         11    1    4    4    0    0 -0.59441880506E-01  0.17374515690E-01  0.17799528897E-01  0.64438306181E-01  0.51100000000E-03 0.  1.
</event>
<event>
 8    1  0.1022673E+005  0.1043930E+01  0.7957747E-01            NaN
         13   -1    0    0    0    0  0.00000000000E+00  0.00000000000E+00  0.74505805969E-08  0.10566000000E+00  0.10566000000E+00 0.  1.
     999900   -1    0    0    0    0 -0.00000000000E+00 -0.00000000000E+00 -0.74505805969E-08  0.93827000000E+00  0.93827000000E+00 0.  1.
     999902    2    1    2    0    0  0.50865893367E-02 -0.20197555925E-01 -0.10936522424E-01  0.10204050732E+01  0.10201338595E+01 0.  0.
     999903    2    3    3    0    0  0.56060288756E-01 -0.11587779002E+00  0.26963475491E-01  0.13294271625E+00  0.19398932893E-01 0.  0.
         14    1    1    2    0    0 -0.50865893367E-02  0.20197555925E-01  0.10936522424E-01  0.23524926762E-01  0.00000000000E+00 0.  1.
     999901    1    3    3    0    0 -0.50973699420E-01  0.95680234098E-01 -0.37899997915E-01  0.88746235699E+00  0.88000000000E+00 0.  1.
        -11    1    4    4    0    0  0.48354679564E-02 -0.24642871711E-01  0.10064012768E-02  0.25138155084E-01  0.51100000000E-03 0. -1.
         11    1    4    4    0    0  0.51224820800E-01 -0.91234918312E-01  0.25957074214E-01  0.10780456117E+00  0.51100000000E-03 0.  1.
</event>
<event>
 8    1  0.1022673E+005  0.1043930E+01  0.7957747E-01            NaN
         13   -1    0    0    0    0  0.00000000000E+00  0.00000000000E+00  0.74505805969E-08  0.10566000000E+00  0.10566000000E+00 0.  1.
     999900   -1    0    0    0    0 -0.00000000000E+00 -0.00000000000E+00 -0.74505805969E-08  0.93827000000E+00  0.93827000000E+00 0.  1.
     999902    2    1    2    0    0  0.14401174203E-02 -0.92768077700E-02 -0.20754876143E-01  0.10211506676E+01  0.10208965609E+01 0.  0.
     999903    2    3    3    0    0  0.53084833676E-01  0.11284467667E+00 -0.36980746124E-01  0.13106970919E+00  0.16117458359E-01 0.  0.
         14    1    1    2    0    0 -0.14401174203E-02  0.92768077700E-02  0.20754876143E-01  0.22779332393E-01  0.00000000000E+00 0.  1.
     999901    1    3    3    0    0 -0.51644716255E-01 -0.12212148444E+00  0.16225869982E-01  0.89008095842E+00  0.88000000000E+00 0.  1.
        -11    1    4    4    0    0  0.28475679404E-01  0.47577736364E-01 -0.22422602604E-01  0.59812536676E-01  0.51100000000E-03 0.  1.
         11    1    4    4    0    0  0.24609154272E-01  0.65266940307E-01 -0.14558143520E-01  0.71257172514E-01  0.51100000000E-03 0. -1.
</event>
<event>
 8    1  0.1118068E+005  0.1043930E+01  0.7957747E-01            NaN
         13   -1    0    0    0    0  0.00000000000E+00  0.00000000000E+00  0.74505805969E-08  0.10566000000E+00  0.10566000000E+00 0. -1.
     999900   -1    0    0    0    0 -0.00000000000E+00 -0.00000000000E+00 -0.74505805969E-08  0.93827000000E+00  0.93827000000E+00 0. -1.
     999902    2    1    2    0    0 -0.22103108905E-01 -0.80003668758E-02  0.25528633843E-02  0.10202853303E+01  0.10200113160E+01 0.  0.
     999903    2    3    3    0    0  0.17506673516E-01  0.87316837922E-01 -0.91307625119E-01  0.12929481650E+00  0.21197956660E-01 0.  0.
         14    1    1    2    0    0  0.22103108905E-01  0.80003668758E-02 -0.25528633843E-02  0.23644669693E-01  0.00000000000E+00 0.  1.
     999901    1    3    3    0    0 -0.39609782421E-01 -0.95317204798E-01  0.93860488503E-01  0.89099051381E+00  0.88000000000E+00 0.  1.
        -11    1    4    4    0    0  0.17914847570E-01  0.59117545037E-01 -0.51048161696E-01  0.80137393446E-01  0.51100000000E-03 0. -1.
         11    1    4    4    0    0 -0.40817405377E-03  0.28199292885E-01 -0.40259463422E-01  0.49157423054E-01  0.51100000000E-03 0.  1.
</event>
<event>
 8    1  0.1022673E+005  0.1043930E+01  0.7957747E-01            NaN
         13   -1    0    0    0    0  0.00000000000E+00  0.00000000000E+00  0.74505805969E-08  0.10566000000E+00  0.10566000000E+00 0. -1.
     999900   -1    0    0    0    0 -0.00000000000E+00 -0.00000000000E+00 -0.74505805969E-08  0.93827000000E+00  0.93827000000E+00 0. -1.
     999902    2    1    2    0    0  0.14820952408E-03  0.28879246768E-01  0.77640638593E-02  0.10140249244E+01  0.10135838563E+01 0.  0.
     999903    2    3    3    0    0  0.43666934428E-01 -0.70254104087E-01  0.90052463406E-01  0.12357970913E+00  0.17890166016E-01 0.  0.
         14    1    1    2    0    0 -0.14820952408E-03 -0.28879246768E-01 -0.77640638593E-02  0.29905075615E-01  0.00000000000E+00 0. -1.
     999901    1    3    3    0    0 -0.43518724904E-01  0.99133350854E-01 -0.82288399546E-01  0.89044521525E+00  0.88000000000E+00 0.  1.
        -11    1    4    4    0    0  0.13215288936E-01 -0.17844292354E-01  0.36337747460E-01  0.42588210138E-01  0.51100000000E-03 0. -1.
         11    1    4    4    0    0  0.30451645491E-01 -0.52409811732E-01  0.53714715945E-01  0.80991498993E-01  0.51100000000E-03 0.  1.
</event>
<event>
 8    1  0.1022673E+005  0.1043930E+01  0.7957747E-01            NaN
         13   -1    0    0    0    0  0.00000000000E+00  0.00000000000E+00  0.74505805969E-08  0.10566000000E+00  0.10566000000E+00 0.  1.
     999900   -1    0    0    0    0 -0.00000000000E+00 -0.00000000000E+00 -0.74505805969E-08  0.93827000000E+00  0.93827000000E+00 0.  1.
     999902    2    1    2    0    0 -0.19854812190E-01 -0.12628947965E-01 -0.16557991178E-02  0.10203409016E+01  0.10200681888E+01 0.  0.
     999903    2    3    3    0    0 -0.88258563046E-01 -0.13174141545E-01  0.95996876745E-01  0.13230069107E+00  0.18026107643E-01 0.  0.
         14    1    1    2    0    0  0.19854812190E-01  0.12628947965E-01  0.16557991178E-02  0.23589098425E-01  0.00000000000E+00 0.  1.
     999901    1    3    3    0    0  0.68403750856E-01  0.54519357989E-03 -0.97652675863E-01  0.88804021050E+00  0.88000000000E+00 0.  1.
        -11    1    4    4    0    0 -0.20458593593E-01 -0.21229402024E-02  0.12108533600E-01  0.23873387565E-01  0.51100000000E-03 0. -1.
         11    1    4    4    0    0 -0.67799969454E-01 -0.11051201343E-01  0.83888343146E-01  0.10842730351E+00  0.51100000000E-03 0.  1.
</event>
<event>
 8    1  0.1022673E+005  0.1043930E+01  0.7957747E-01            NaN
         13   -1    0    0    0    0  0.00000000000E+00  0.00000000000E+00  0.74505805969E-08  0.10566000000E+00  0.10566000000E+00 0. -1.
     999900   -1    0    0    0    0 -0.00000000000E+00 -0.00000000000E+00 -0.74505805969E-08  0.93827000000E+00  0.93827000000E+00 0.  1.
     999902    2    1    2    0    0  0.10007062472E-01  0.50418208844E-03  0.22304724224E-01  0.10194780835E+01  0.10191848049E+01 0.  0.
     999903    2    3    3    0    0 -0.61633135988E-01  0.20575778812E-01 -0.10710755875E+00  0.12690723138E+00  0.20283247022E-01 0.  0.
         14    1    1    2    0    0 -0.10007062472E-01 -0.50418208844E-03 -0.22304724224E-01  0.24451916522E-01  0.00000000000E+00 0.  1.
     999901    1    3    3    0    0  0.71640198461E-01 -0.20071596723E-01  0.12941228297E+00  0.89257085210E+00  0.88000000000E+00 0. -1.
        -11    1    4    4    0    0 -0.31683097860E-01  0.20490508178E-01 -0.66288691765E-01  0.76276676595E-01  0.51100000000E-03 0. -1.
         11    1    4    4    0    0 -0.29950038128E-01  0.85270633637E-04 -0.40818866984E-01  0.50630554785E-01  0.51100000000E-03 0.  1.
</event>
<event>
 8    1  0.1022673E+005  0.1043930E+01  0.7957747E-01            NaN
         13   -1    0    0    0    0  0.00000000000E+00  0.00000000000E+00  0.74505805969E-08  0.10566000000E+00  0.10566000000E+00 0.  1.
     999900   -1    0    0    0    0 -0.00000000000E+00 -0.00000000000E+00 -0.74505805969E-08  0.93827000000E+00  0.93827000000E+00 0. -1.
     999902    2    1    2    0    0 -0.90365240183E-02 -0.66552009461E-02 -0.20850416082E-01  0.10202510998E+01  0.10199762822E+01 0.  0.
     999903    2    3    3    0    0  0.75394015637E-02  0.56591580916E-01 -0.11781948623E+00  0.13251357251E+00  0.20468657898E-01 0.  0.
         14    1    1    2    0    0  0.90365240183E-02  0.66552009461E-02  0.20850416082E-01  0.23678900244E-01  0.00000000000E+00 0.  1.
     999901    1    3    3    0    0 -0.16575925582E-01 -0.63246781862E-01  0.96969070148E-01  0.88773752725E+00  0.88000000000E+00 0.  1.
        -11    1    4    4    0    0 -0.18968361823E-02  0.34602225604E-01 -0.52128702468E-01  0.62598520320E-01  0.51100000000E-03 0.  1.
         11    1    4    4    0    0  0.94362377461E-02  0.21989355312E-01 -0.65690783762E-01  0.69915052185E-01  0.51100000000E-03 0. -1.
</event>
<event>
 8    1  0.1022673E+005  0.1043930E+01  0.7957747E-01            NaN
         13   -1    0    0    0    0  0.00000000000E+00  0.00000000000E+00  0.74505805969E-08  0.10566000000E+00  0.10566000000E+00 0. -1.
     999900   -1    0    0    0    0 -0.00000000000E+00 -0.00000000000E+00 -0.74505805969E-08  0.93827000000E+00  0.93827000000E+00 0. -1.
     999902    2    1    2    0    0 -0.10652426970E-01 -0.20587255696E-01  0.54636648285E-02  0.10201148592E+01  0.10198368326E+01 0.  0.
     999903    2    3    3    0    0  0.63963790046E-01 -0.75393849041E-01 -0.83133252736E-01  0.13083382584E+00  0.20754598592E-01 0.  0.
         14    1    1    2    0    0  0.10652426970E-01  0.20587255696E-01 -0.54636648285E-02  0.23815140789E-01  0.00000000000E+00 0.  1.
     999901    1    3    3    0    0 -0.74616217016E-01  0.54806593345E-01  0.88596917564E-01  0.88928103337E+00  0.88000000000E+00 0.  1.
        -11    1    4    4    0    0  0.39791247920E-01 -0.49123787530E-01 -0.39873980108E-01  0.74744132365E-01  0.51100000000E-03 0.  1.
         11    1    4    4    0    0  0.24172542125E-01 -0.26270061511E-01 -0.43259272627E-01  0.56089693472E-01  0.51100000000E-03 0. -1.
</event>
<event>
 8    1  0.1022673E+005  0.1043930E+01  0.7957747E-01            NaN
         13   -1    0    0    0    0  0.00000000000E+00  0.00000000000E+00  0.74505805969E-08  0.10566000000E+00  0.10566000000E+00 0.  1.
     999900   -1    0    0    0    0 -0.00000000000E+00 -0.00000000000E+00 -0.74505805969E-08  0.93827000000E+00  0.93827000000E+00 0. -1.
     999902    2    1    2    0    0  0.10988314783E-01 -0.10016668922E-01 -0.21180678770E-01  0.10180514786E+01  0.10177225138E+01 0.  0.
     999903    2    3    3    0    0  0.38579952607E-01 -0.11114345232E+00 -0.54891240363E-01  0.13118941108E+00  0.18876799864E-01 0.  0.
         14    1    1    2    0    0 -0.10988314783E-01  0.10016668922E-01  0.21180678770E-01  0.25878521427E-01  0.00000000000E+00 0.  1.
     999901    1    3    3    0    0 -0.27591637823E-01  0.10112678340E+00  0.33710561593E-01  0.88686206750E+00  0.88000000000E+00 0.  1.
        -11    1    4    4    0    0  0.41906628088E-02 -0.29918119329E-01 -0.20513594337E-01  0.36520188836E-01  0.51100000000E-03 0.  1.
         11    1    4    4    0    0  0.34389289798E-01 -0.81225332993E-01 -0.34377646026E-01  0.94669222243E-01  0.51100000000E-03 0. -1.
</event>
<event>
 8    1  0.1022673E+005  0.1043930E+01  0.7957747E-01            NaN
         13   -1    0    0    0    0  0.00000000000E+00  0.00000000000E+00  0.74505805969E-08  0.10566000000E+00  0.10566000000E+00 0.  1.
     999900   -1    0    0    0    0 -0.00000000000E+00 -0.00000000000E+00 -0.74505805969E-08  0.93827000000E+00  0.93827000000E+00 0.  1.
     999902    2    1    2    0    0  0.18342114044E-01  0.11191663222E-01 -0.10084163009E-01  0.10201944398E+01  0.10199182900E+01 0.  0.
     999903    2    3    3    0    0  0.12432190958E+00  0.36082518829E-01  0.23558574422E-01  0.13284833737E+00  0.18324544924E-01 0.  0.
         14    1    1    2    0    0 -0.18342114044E-01 -0.11191663222E-01  0.10084163009E-01  0.23735560176E-01  0.00000000000E+00 0.  1.
     999901    1    3    3    0    0 -0.10597979554E+00 -0.24890855607E-01 -0.33642737431E-01  0.88734610245E+00  0.88000000000E+00 0.  1.
        -11    1    4    4    0    0  0.92650446346E-01  0.34841222663E-01  0.16162696676E-01  0.10029710808E+00  0.51100000000E-03 0. -1.
         11    1    4    4    0    0  0.31671463236E-01  0.12412961657E-02  0.73958777457E-02  0.32551229290E-01  0.51100000000E-03 0.  1.
</event>
<event>
 8    1  0.1022673E+005  0.1043930E+01  0.7957747E-01            NaN
         13   -1    0    0    0    0  0.00000000000E+00  0.00000000000E+00  0.74505805969E-08  0.10566000000E+00  0.10566000000E+00 0. -1.
     999900   -1    0    0    0    0 -0.00000000000E+00 -0.00000000000E+00 -0.74505805969E-08  0.93827000000E+00  0.93827000000E+00 0. -1.
     999902    2    1    2    0    0  0.34984383863E-02 -0.19049005708E-01 -0.16019195098E-01  0.10187959931E+01  0.10184859142E+01 0.  0.
     999903    2    3    3    0    0 -0.13619388666E-01 -0.58130337697E-01  0.11206106129E+00  0.12850114164E+00  0.19754443473E-01 0.  0.
         14    1    1    2    0    0 -0.34984383863E-02  0.19049005708E-01  0.16019195098E-01  0.25134006867E-01  0.00000000000E+00 0. -1.
     999901    1    3    3    0    0  0.17117827053E-01  0.39081331989E-01 -0.12808025639E+00  0.89029485149E+00  0.88000000000E+00 0. -1.
        -11    1    4    4    0    0 -0.11125437007E-01 -0.21803065586E-01  0.61472262774E-01  0.66168340081E-01  0.51100000000E-03 0.  1.
         11    1    4    4    0    0 -0.24939516593E-02 -0.36327272111E-01  0.50588798520E-01  0.62332801562E-01  0.51100000000E-03 0. -1.
</event>
<event>
 8    1  0.1022673E+005  0.1043930E+01  0.7957747E-01            NaN
         13   -1    0    0    0    0  0.00000000000E+00  0.00000000000E+00  0.74505805969E-08  0.10566000000E+00  0.10566000000E+00 0. -1.
     999900   -1    0    0    0    0 -0.00000000000E+00 -0.00000000000E+00 -0.74505805969E-08  0.93827000000E+00  0.93827000000E+00 0. -1.
     999902    2    1    2    0    0  0.35086974753E-02 -0.83695328770E-02 -0.22323764731E-01  0.10198320642E+01  0.10195473155E+01 0.  0.
     999903    2    3    3    0    0  0.78837585840E-02  0.28804636084E-01  0.12210422338E+00  0.12727366064E+00  0.19931949602E-01 0.  0.
         14    1    1    2    0    0 -0.35086974753E-02  0.83695328770E-02  0.22323764731E-01  0.24097935811E-01  0.00000000000E+00 0. -1.
     999901    1    3    3    0    0 -0.43750611087E-02 -0.37174168961E-01 -0.14442798812E+00  0.89255840355E+00  0.88000000000E+00 0.  1.
        -11    1    4    4    0    0  0.11450595529E-01  0.65218800052E-02  0.39646874623E-01  0.41782614149E-01  0.51100000000E-03 0. -1.
         11    1    4    4    0    0 -0.35668369445E-02  0.22282756079E-01  0.82457348761E-01  0.85491046490E-01  0.51100000000E-03 0.  1.
</event>
<event>
 8    1  0.1022673E+005  0.1043930E+01  0.7957747E-01            NaN
         13   -1    0    0    0    0  0.00000000000E+00  0.00000000000E+00  0.74505805969E-08  0.10566000000E+00  0.10566000000E+00 0.  1.
     999900   -1    0    0    0    0 -0.00000000000E+00 -0.00000000000E+00 -0.74505805969E-08  0.93827000000E+00  0.93827000000E+00 0. -1.
     999902    2    1    2    0    0 -0.13624294038E-02  0.11849159999E-01  0.19736498228E-01  0.10208694673E+01  0.10206089756E+01 0.  0.
     999903    2    3    3    0    0 -0.77740880068E-01  0.68154332994E-01 -0.74978535238E-01  0.13071505496E+00  0.27856548716E-01 0.  0.
         14    1    1    2    0    0  0.13624294038E-02 -0.11849159999E-01 -0.19736498228E-01  0.23060532710E-01  0.00000000000E+00 0. -1.
     999901    1    3    3    0    0  0.76378450664E-01 -0.56305172995E-01  0.94715033466E-01  0.89015441233E+00  0.88000000000E+00 0. -1.
        -11    1    4    4    0    0 -0.50269151437E-01  0.40453307683E-01 -0.62289883233E-01  0.89686946447E-01  0.51100000000E-03 0.  1.
         11    1    4    4    0    0 -0.27471728631E-01  0.27701025311E-01 -0.12688652005E-01  0.41028108510E-01  0.51100000000E-03 0. -1.
</event>
<event>
 8    1  0.1022673E+005  0.1043930E+01  0.7957747E-01            NaN
         13   -1    0    0    0    0  0.00000000000E+00  0.00000000000E+00  0.74505805969E-08  0.10566000000E+00  0.10566000000E+00 0. -1.
     999900   -1    0    0    0    0 -0.00000000000E+00 -0.00000000000E+00 -0.74505805969E-08  0.93827000000E+00  0.93827000000E+00 0. -1.
     999902    2    1    2    0    0  0.22531877200E-01 -0.58326401267E-02  0.26636875950E-02  0.10205035105E+01  0.10202345879E+01 0.  0.
     999903    2    3    3    0    0 -0.91901431297E-01  0.84047191480E-01  0.23521497124E-01  0.12831047392E+00  0.20012831370E-01 0.  0.
         14    1    1    2    0    0 -0.22531877200E-01  0.58326401267E-02 -0.26636875950E-02  0.23426489549E-01  0.00000000000E+00 0.  1.
     999901    1    3    3    0    0  0.11443330850E+00 -0.89879831607E-01 -0.20857809529E-01  0.89219303653E+00  0.88000000000E+00 0.  1.
        -11    1    4    4    0    0 -0.80413888848E-01  0.69024946937E-01  0.13301529173E-01  0.10680837335E+00  0.51100000000E-03 0.  1.
         11    1    4    4    0    0 -0.11487542449E-01  0.15022244544E-01  0.10219967951E-01  0.21502100562E-01  0.51100000000E-03 0. -1.
</event>
<event>
 8    1  0.1022673E+005  0.1043930E+01  0.7957747E-01            NaN
         13   -1    0    0    0    0  0.00000000000E+00  0.00000000000E+00  0.74505805969E-08  0.10566000000E+00  0.10566000000E+00 0.  1.
     999900   -1    0    0    0    0 -0.00000000000E+00 -0.00000000000E+00 -0.74505805969E-08  0.93827000000E+00  0.93827000000E+00 0. -1.
     999902    2    1    2    0    0  0.14475333852E-01 -0.18362334778E-01 -0.18305275729E-02  0.10204766109E+01  0.10202070633E+01 0.  0.
     999903    2    3    3    0    0  0.58794801473E-01 -0.11486858558E+00 -0.29030951523E-01  0.13367475327E+00  0.19352593646E-01 0.  0.
         14    1    1    2    0    0 -0.14475333852E-01  0.18362334778E-01  0.18305275729E-02  0.23453389090E-01  0.00000000000E+00 0. -1.
     999901    1    3    3    0    0 -0.44319467621E-01  0.96506250804E-01  0.27200423950E-01  0.88680185764E+00  0.88000000000E+00 0.  1.
        -11    1    4    4    0    0  0.25535074572E-01 -0.51383271462E-01 -0.31285643184E-02  0.57465899934E-01  0.51100000000E-03 0. -1.
         11    1    4    4    0    0  0.33259726901E-01 -0.63485314121E-01 -0.25902387205E-01  0.76208853334E-01  0.51100000000E-03 0.  1.
</event>
<event>
 8    1  0.1022673E+005  0.1043930E+01  0.7957747E-01            NaN
         13   -1    0    0    0    0  0.00000000000E+00  0.00000000000E+00  0.74505805969E-08  0.10566000000E+00  0.10566000000E+00 0.  1.
     999900   -1    0    0    0    0 -0.00000000000E+00 -0.00000000000E+00 -0.74505805969E-08  0.93827000000E+00  0.93827000000E+00 0.  1.
     999902    2    1    2    0    0  0.75008303717E-02 -0.19373352632E-01  0.10539924610E-01  0.10206345228E+01  0.10203686343E+01 0.  0.
     999903    2    3    3    0    0 -0.11090830105E+00  0.49924460928E-01 -0.37625667069E-01  0.12870244375E+00  0.18855374941E-01 0.  0.
         14    1    1    2    0    0 -0.75008303717E-02  0.19373352632E-01 -0.10539924610E-01  0.23295477228E-01  0.00000000000E+00 0. -1.
     999901    1    3    3    0    0  0.11840913142E+00 -0.69297813560E-01  0.48165591680E-01  0.89193207902E+00  0.88000000000E+00 0. -1.
        -11    1    4    4    0    0 -0.31829473585E-01  0.14984123433E-01 -0.21434226797E-02  0.35249038647E-01  0.51100000000E-03 0. -1.
         11    1    4    4    0    0 -0.79078827464E-01  0.34940337494E-01 -0.35482244389E-01  0.93453405103E-01  0.51100000000E-03 0.  1.
</event>
<event>
 8    1  0.1022673E+005  0.1043930E+01  0.7957747E-01            NaN
         13   -1    0    0    0    0  0.00000000000E+00  0.00000000000E+00  0.74505805969E-08  0.10566000000E+00  0.10566000000E+00 0. -1.
     999900   -1    0    0    0    0 -0.00000000000E+00 -0.00000000000E+00 -0.74505805969E-08  0.93827000000E+00  0.93827000000E+00 0.  1.
     999902    2    1    2    0    0 -0.32085351099E-02  0.17954343771E-01 -0.15338980133E-01  0.10200985613E+01  0.10198201495E+01 0.  0.
     999903    2    3    3    0    0 -0.27303816852E-01  0.10803974221E+00 -0.70248846371E-01  0.13346952107E+00  0.21473898738E-01 0.  0.
         14    1    1    2    0    0  0.32085351099E-02 -0.17954343771E-01  0.15338980133E-01  0.23831438675E-01  0.00000000000E+00 0.  1.
     999901    1    3    3    0    0  0.24095281742E-01 -0.90085398438E-01  0.54909866238E-01  0.88662904026E+00  0.88000000000E+00 0. -1.
        -11    1    4    4    0    0 -0.23624953378E-01  0.56267295161E-01 -0.31374244976E-01  0.68620341705E-01  0.51100000000E-03 0.  1.
         11    1    4    4    0    0 -0.36788634739E-02  0.51772447048E-01 -0.38874601395E-01  0.64849179365E-01  0.51100000000E-03 0. -1.
</event>
<event>
 8    1  0.1022673E+005  0.1043930E+01  0.7957747E-01            NaN
         13   -1    0    0    0    0  0.00000000000E+00  0.00000000000E+00  0.74505805969E-08  0.10566000000E+00  0.10566000000E+00 0. -1.
     999900   -1    0    0    0    0 -0.00000000000E+00 -0.00000000000E+00 -0.74505805969E-08  0.93827000000E+00  0.93827000000E+00 0. -1.
     999902    2    1    2    0    0  0.73558103290E-02  0.85047739185E-02  0.20814275215E-01  0.10202725873E+01  0.10199982741E+01 0.  0.
     999903    2    3    3    0    0 -0.12326700617E+00  0.34201204790E-01 -0.48860541906E-02  0.12988888700E+00  0.21972078215E-01 0.  0.
         14    1    1    2    0    0 -0.73558103290E-02 -0.85047739185E-02 -0.20814275215E-01  0.23657412744E-01  0.00000000000E+00 0.  1.
     999901    1    3    3    0    0  0.13062281650E+00 -0.25696430872E-01  0.25700329405E-01  0.89038370026E+00  0.88000000000E+00 0.  1.
        -11    1    4    4    0    0 -0.50135350303E-01  0.20037971833E-01  0.70300185894E-02  0.54449572520E-01  0.51100000000E-03 0. -1.
         11    1    4    4    0    0 -0.73131655868E-01  0.14163232957E-01 -0.11916072780E-01  0.75439314481E-01  0.51100000000E-03 0.  1.
</event>
<event>
 8    1  0.1022673E+005  0.1043930E+01  0.7957747E-01            NaN
         13   -1    0    0    0    0  0.00000000000E+00  0.00000000000E+00  0.74505805969E-08  0.10566000000E+00  0.10566000000E+00 0.  1.
     999900   -1    0    0    0    0 -0.00000000000E+00 -0.00000000000E+00 -0.74505805969E-08  0.93827000000E+00  0.93827000000E+00 0.  1.
     999902    2    1    2    0    0 -0.38979931438E-03 -0.11443995482E-01  0.20944392671E-01  0.10200598395E+01  0.10197805115E+01 0.  0.
     999903    2    3    3    0    0 -0.89816171066E-01  0.37530797799E-01 -0.81088544100E-01  0.12831641987E+00  0.20353040432E-01 0.  0.
         14    1    1    2    0    0  0.38979931438E-03  0.11443995482E-01 -0.20944392671E-01  0.23870160461E-01  0.00000000000E+00 0. -1.
     999901    1    3    3    0    0  0.89426371751E-01 -0.48974793281E-01  0.10203293677E+00  0.89174341967E+00  0.88000000000E+00 0. -1.
        -11    1    4    4    0    0 -0.64908885943E-01  0.18907316565E-01 -0.48076744886E-01  0.82959536003E-01  0.51100000000E-03 0.  1.
         11    1    4    4    0    0 -0.24907285123E-01  0.18623481234E-01 -0.33011799214E-01  0.45356883864E-01  0.51100000000E-03 0. -1.
</event>
<event>
 8    1  0.1022673E+005  0.1043930E+01  0.7957747E-01            NaN
         13   -1    0    0    0    0  0.00000000000E+00  0.00000000000E+00  0.74505805969E-08  0.10566000000E+00  0.10566000000E+00 0.  1.
     999900   -1    0    0    0    0 -0.00000000000E+00 -0.00000000000E+00 -0.74505805969E-08  0.93827000000E+00  0.93827000000E+00 0. -1.
     999902    2    1    2    0    0 -0.13341731797E-01  0.89033256263E-02 -0.18050186384E-01  0.10197829455E+01  0.10194970209E+01 0.  0.
     999903    2    3    3    0    0 -0.11634878319E-01  0.12929105836E+00 -0.14501089547E-02  0.13142959115E+00  0.20496010548E-01 0.  0.
         14    1    1    2    0    0  0.13341731797E-01 -0.89033256263E-02  0.18050186384E-01  0.24147054542E-01  0.00000000000E+00 0.  1.
     999901    1    3    3    0    0 -0.17068534777E-02 -0.12038773273E+00 -0.16600077430E-01  0.88835335431E+00  0.88000000000E+00 0. -1.
        -11    1    4    4    0    0 -0.41308367481E-02  0.76139541393E-01  0.88638810964E-02  0.76766679522E-01  0.51100000000E-03 0. -1.
         11    1    4    4    0    0 -0.75040415708E-02  0.53151516966E-01 -0.10313990051E-01  0.54662911627E-01  0.51100000000E-03 0.  1.
</event>
<event>
 8    1  0.1022673E+005  0.1043930E+01  0.7957747E-01            NaN
         13   -1    0    0    0    0  0.00000000000E+00  0.00000000000E+00  0.74505805969E-08  0.10566000000E+00  0.10566000000E+00 0.  1.
     999900   -1    0    0    0    0 -0.00000000000E+00 -0.00000000000E+00 -0.74505805969E-08  0.93827000000E+00  0.93827000000E+00 0. -1.
     999902    2    1    2    0    0 -0.15363375336E-02 -0.42149202616E-02  0.27815285016E-01  0.10157552601E+01  0.10153644334E+01 0.  0.
     999903    2    3    3    0    0  0.26678615680E-01  0.33532719798E-01 -0.11383986467E+00  0.12318193018E+00  0.19444312886E-01 0.  0.
         14    1    1    2    0    0  0.15363375336E-02  0.42149202616E-02 -0.27815285016E-01  0.28174739863E-01  0.00000000000E+00 0. -1.
     999901    1    3    3    0    0 -0.28214953213E-01 -0.37747640060E-01  0.14165514969E+00  0.89257332996E+00  0.88000000000E+00 0.  1.
        -11    1    4    4    0    0  0.20846852281E-01  0.12283950117E-01 -0.70879915433E-01  0.74897998727E-01  0.51100000000E-03 0.  1.
         11    1    4    4    0    0  0.58317633983E-02  0.21248769681E-01 -0.42959949237E-01  0.48283931455E-01  0.51100000000E-03 0. -1.
</event>
<event>
 8    1  0.1022673E+005  0.1043930E+01  0.7957747E-01            NaN
         13   -1    0    0    0    0  0.00000000000E+00  0.00000000000E+00  0.74505805969E-08  0.10566000000E+00  0.10566000000E+00 0. -1.
     999900   -1    0    0    0    0 -0.00000000000E+00 -0.00000000000E+00 -0.74505805969E-08  0.93827000000E+00  0.93827000000E+00 0.  1.
     999902    2    1    2    0    0  0.15205340571E-01  0.17636860167E-01 -0.10569556634E-03  0.10206432572E+01  0.10203775704E+01 0.  0.
     999903    2    3    3    0    0  0.53275887846E-01  0.70951054318E-01  0.95842091363E-01  0.13300721260E+00  0.25156307198E-01 0.  0.
         14    1    1    2    0    0 -0.15205340571E-01 -0.17636860167E-01  0.10569556634E-03  0.23286742795E-01  0.00000000000E+00 0. -1.
     999901    1    3    3    0    0 -0.38070547275E-01 -0.53314194151E-01 -0.95947786930E-01  0.88763604461E+00  0.88000000000E+00 0.  1.
        -11    1    4    4    0    0  0.52603898854E-02  0.24690226846E-01  0.21697685665E-01  0.33291585839E-01  0.51100000000E-03 0. -1.
         11    1    4    4    0    0  0.48015497960E-01  0.46260827472E-01  0.74144405699E-01  0.99715626760E-01  0.51100000000E-03 0.  1.
</event>
<event>
 8    1  0.1022673E+005  0.1043930E+01  0.7957747E-01            NaN
         13   -1    0    0    0    0  0.00000000000E+00  0.00000000000E+00  0.74505805969E-08  0.10566000000E+00  0.10566000000E+00 0.  1.
     999900   -1    0    0    0    0 -0.00000000000E+00 -0.00000000000E+00 -0.74505805969E-08  0.93827000000E+00  0.93827000000E+00 0. -1.
     999902    2    1    2    0    0  0.75141677981E-02 -0.73963480727E-02  0.20812285708E-01  0.10205993352E+01  0.10203326336E+01 0.  0.
     999903    2    3    3    0    0  0.29705622472E-01  0.12426899140E+00  0.17031142705E-01  0.13051927179E+00  0.20494249374E-01 0.  0.
         14    1    1    2    0    0 -0.75141677981E-02  0.73963480727E-02 -0.20812285708E-01  0.23330664777E-01  0.00000000000E+00 0.  1.
     999901    1    3    3    0    0 -0.22191454674E-01 -0.13166533947E+00  0.37811430035E-02  0.89008006343E+00  0.88000000000E+00 0. -1.
        -11    1    4    4    0    0  0.25946929422E-01  0.12004157238E+00  0.12888552547E-01  0.12348926331E+00  0.51100000000E-03 0.  1.
         11    1    4    4    0    0  0.37586930500E-02  0.42274190220E-02  0.41425901579E-02  0.70300084814E-02  0.51100000000E-03 0. -1.
</event>
<event>
 8    1  0.1022673E+005  0.1043930E+01  0.7957747E-01            NaN
         13   -1    0    0    0    0  0.00000000000E+00  0.00000000000E+00  0.74505805969E-08  0.10566000000E+00  0.10566000000E+00 0. -1.
     999900   -1    0    0    0    0 -0.00000000000E+00 -0.00000000000E+00 -0.74505805969E-08  0.93827000000E+00  0.93827000000E+00 0. -1.
     999902    2    1    2    0    0 -0.34122747336E-02  0.71135823938E-02  0.22261066204E-01  0.10203121732E+01  0.10200387880E+01 0.  0.
     999903    2    3    3    0    0  0.12451406260E+00  0.16242098084E-01  0.27770066171E-01  0.13099849028E+00  0.24937328322E-01 0.  0.
         14    1    1    2    0    0  0.34122747336E-02 -0.71135823938E-02 -0.22261066204E-01  0.23617826781E-01  0.00000000000E+00 0.  1.
     999901    1    3    3    0    0 -0.12792633734E+00 -0.91285156905E-02 -0.55089999671E-02  0.88931368294E+00  0.88000000000E+00 0. -1.
        -11    1    4    4    0    0  0.87660468430E-01  0.15022506960E-04  0.16764765992E-01  0.89250638378E-01  0.51100000000E-03 0.  1.
         11    1    4    4    0    0  0.36853594174E-01  0.16227075577E-01  0.11005300179E-01  0.41747851901E-01  0.51100000000E-03 0. -1.
</event>
<event>
 8    1  0.1022673E+005  0.1043930E+01  0.7957747E-01            NaN
         13   -1    0    0    0    0  0.00000000000E+00  0.00000000000E+00  0.74505805969E-08  0.10566000000E+00  0.10566000000E+00 0.  1.
     999900   -1    0    0    0    0 -0.00000000000E+00 -0.00000000000E+00 -0.74505805969E-08  0.93827000000E+00  0.93827000000E+00 0.  1.
     999902    2    1    2    0    0 -0.12521091194E-01  0.24980833476E-01  0.38541670548E-02  0.10157222995E+01  0.10153305448E+01 0.  0.
     999903    2    3    3    0    0  0.86008132398E-01 -0.81581034337E-01 -0.26895019350E-01  0.12330482315E+00  0.20685099541E-01 0.  0.
         14    1    1    2    0    0  0.12521091194E-01 -0.24980833476E-01 -0.38541670548E-02  0.28207700536E-01  0.00000000000E+00 0.  1.
     999901    1    3    3    0    0 -0.98529223592E-01  0.10656186781E+00  0.30749186405E-01  0.89241747632E+00  0.88000000000E+00 0. -1.
        -11    1    4    4    0    0  0.42976904267E-01 -0.30106434157E-01 -0.49275413170E-02  0.52706294334E-01  0.51100000000E-03 0.  1.
         11    1    4    4    0    0  0.43031228131E-01 -0.51474600181E-01 -0.21967478033E-01  0.70598528812E-01  0.51100000000E-03 0. -1.
</event>
<event>
 8    1  0.1022673E+005  0.1043930E+01  0.7957747E-01            NaN
         13   -1    0    0    0    0  0.00000000000E+00  0.00000000000E+00  0.74505805969E-08  0.10566000000E+00  0.10566000000E+00 0. -1.
     999900   -1    0    0    0    0 -0.00000000000E+00 -0.00000000000E+00 -0.74505805969E-08  0.93827000000E+00  0.93827000000E+00 0. -1.
     999902    2    1    2    0    0  0.78797362285E-02  0.38686987736E-02 -0.22327699801E-01  0.10199386838E+01  0.10196564792E+01 0.  0.
     999903    2    3    3    0    0  0.56656179672E-01  0.51882722056E-01 -0.10703608379E+00  0.13322565348E+00  0.19763905739E-01 0.  0.
         14    1    1    2    0    0 -0.78797362285E-02 -0.38686987736E-02  0.22327699801E-01  0.23991316172E-01  0.00000000000E+00 0. -1.
     999901    1    3    3    0    0 -0.48776443444E-01 -0.48014023283E-01  0.84708383987E-01  0.88671303035E+00  0.88000000000E+00 0. -1.
        -11    1    4    4    0    0  0.45231304278E-01  0.49027822178E-01 -0.83249268983E-01  0.10667848959E+00  0.51100000000E-03 0.  1.
         11    1    4    4    0    0  0.11424875395E-01  0.28548998783E-02 -0.23786814806E-01  0.26547163892E-01  0.51100000000E-03 0. -1.
</event>
<event>
 8    1  0.1022673E+005  0.1043930E+01  0.7957747E-01            NaN
         13   -1    0    0    0    0  0.00000000000E+00  0.00000000000E+00  0.74505805969E-08  0.10566000000E+00  0.10566000000E+00 0.  1.
     999900   -1    0    0    0    0 -0.00000000000E+00 -0.00000000000E+00 -0.74505805969E-08  0.93827000000E+00  0.93827000000E+00 0. -1.
     999902    2    1    2    0    0  0.14362968844E-01  0.67455132226E-02  0.17818924647E-01  0.10200697632E+01  0.10197906702E+01 0.  0.
     999903    2    3    3    0    0  0.11898874796E+00 -0.18898915819E-01 -0.47619232992E-01  0.13108925565E+00  0.20032734152E-01 0.  0.
         14    1    1    2    0    0 -0.14362968844E-01 -0.67455132226E-02 -0.17818924647E-01  0.23860236760E-01  0.00000000000E+00 0.  1.
     999901    1    3    3    0    0 -0.10462577911E+00  0.25644429041E-01  0.65438157639E-01  0.88898050759E+00  0.88000000000E+00 0.  1.
        -11    1    4    4    0    0  0.69617515328E-01 -0.37928411081E-02 -0.34621624241E-01  0.77845372825E-01  0.51100000000E-03 0.  1.
         11    1    4    4    0    0  0.49371232627E-01 -0.15106074711E-01 -0.12997608751E-01  0.53243882828E-01  0.51100000000E-03 0. -1.
</event>
<event>
 8    1  0.1022673E+005  0.1043930E+01  0.7957747E-01            NaN
         13   -1    0    0    0    0  0.00000000000E+00  0.00000000000E+00  0.74505805969E-08  0.10566000000E+00  0.10566000000E+00 0. -1.
     999900   -1    0    0    0    0 -0.00000000000E+00 -0.00000000000E+00 -0.74505805969E-08  0.93827000000E+00  0.93827000000E+00 0. -1.
     999902    2    1    2    0    0 -0.10999012662E-01 -0.57282252604E-02  0.19397317526E-01  0.10209072553E+01  0.10206476264E+01 0.  0.
     999903    2    3    3    0    0 -0.11748409775E+00 -0.29977631717E-01 -0.47221679465E-01  0.13165746040E+00  0.20065598414E-01 0.  0.
         14    1    1    2    0    0  0.10999012662E-01  0.57282252604E-02 -0.19397317526E-01  0.23022744653E-01  0.00000000000E+00 0.  1.
     999901    1    3    3    0    0  0.10648508509E+00  0.24249406456E-01  0.66618996991E-01  0.88924979495E+00  0.88000000000E+00 0.  1.
        -11    1    4    4    0    0 -0.98201198438E-01 -0.25527754671E-01 -0.47089510995E-01  0.11186073842E+00  0.51100000000E-03 0.  1.
         11    1    4    4    0    0 -0.19282899309E-01 -0.44498770460E-02 -0.13216847011E-03  0.19796721976E-01  0.51100000000E-03 0. -1.
</event>
<event>
 8    1  0.1333589E+005  0.1043930E+01  0.7957747E-01            NaN
         13   -1    0    0    0    0  0.00000000000E+00  0.00000000000E+00  0.74505805969E-08  0.10566000000E+00  0.10566000000E+00 0. -1.
     999900   -1    0    0    0    0 -0.00000000000E+00 -0.00000000000E+00 -0.74505805969E-08  0.93827000000E+00  0.93827000000E+00 0.  1.
     999902    2    1    2    0    0 -0.10656722068E-02  0.14595107778E-01 -0.19260175043E-01  0.10197410114E+01  0.10194540809E+01 0.  0.
     999903    2    3    3    0    0 -0.10394469687E+00  0.47804007514E-01  0.58392551793E-01  0.12973153349E+00  0.18189489653E-01 0.  0.
         14    1    1    2    0    0  0.10656722068E-02 -0.14595107778E-01  0.19260175043E-01  0.24188988631E-01  0.00000000000E+00 0. -1.
     999901    1    3    3    0    0  0.10287902466E+00 -0.33208899736E-01 -0.77652726836E-01  0.89000947788E+00  0.88000000000E+00 0.  1.
        -11    1    4    4    0    0 -0.62494476048E-01  0.29771406488E-01  0.45067327836E-01  0.82602792568E-01  0.51100000000E-03 0.  1.
         11    1    4    4    0    0 -0.41450220822E-01  0.18032601026E-01  0.13325223957E-01  0.47128740918E-01  0.51100000000E-03 0. -1.
</event>
<event>
 8    1  0.1022673E+005  0.1043930E+01  0.7957747E-01            NaN
         13   -1    0    0    0    0  0.00000000000E+00  0.00000000000E+00  0.74505805969E-08  0.10566000000E+00  0.10566000000E+00 0. -1.
     999900   -1    0    0    0    0 -0.00000000000E+00 -0.00000000000E+00 -0.74505805969E-08  0.93827000000E+00  0.93827000000E+00 0.  1.
     999902    2    1    2    0    0 -0.29245450280E-01 -0.30699464660E-02  0.30607675864E-02  0.10143649999E+01  0.10139340530E+01 0.  0.
     999903    2    3    3    0    0 -0.36280155248E-01  0.10184794272E+00 -0.60529752403E-01  0.12582630924E+00  0.21889633841E-01 0.  0.
         14    1    1    2    0    0  0.29245450280E-01  0.30699464660E-02 -0.30607675864E-02  0.29565000111E-01  0.00000000000E+00 0.  1.
     999901    1    3    3    0    0  0.70347049679E-02 -0.10491788919E+00  0.63590519989E-01  0.88853869065E+00  0.88000000000E+00 0. -1.
        -11    1    4    4    0    0 -0.23462282522E-01  0.45419220682E-01 -0.38115450723E-01  0.63768589551E-01  0.51100000000E-03 0. -1.
         11    1    4    4    0    0 -0.12817872726E-01  0.56428722040E-01 -0.22414301679E-01  0.62057719690E-01  0.51100000000E-03 0.  1.
</event>
<event>
 8    1  0.1022673E+005  0.1043930E+01  0.7957747E-01            NaN
         13   -1    0    0    0    0  0.00000000000E+00  0.00000000000E+00  0.74505805969E-08  0.10566000000E+00  0.10566000000E+00 0. -1.
     999900   -1    0    0    0    0 -0.00000000000E+00 -0.00000000000E+00 -0.74505805969E-08  0.93827000000E+00  0.93827000000E+00 0. -1.
     999902    2    1    2    0    0  0.24227444606E-03 -0.23546501444E-01 -0.34176413199E-02  0.10201355322E+01  0.10198579937E+01 0.  0.
     999903    2    3    3    0    0 -0.80432373652E-01 -0.95568894960E-01  0.39432522684E-01  0.13248032852E+00  0.19832629272E-01 0.  0.
         14    1    1    2    0    0 -0.24227444606E-03  0.23546501444E-01  0.34176413199E-02  0.23794467831E-01  0.00000000000E+00 0.  1.
     999901    1    3    3    0    0  0.80674648098E-01  0.72022393515E-01 -0.42850164004E-01  0.88765520365E+00  0.88000000000E+00 0.  1.
        -11    1    4    4    0    0 -0.42449700163E-01 -0.62687116357E-01  0.29577810186E-01  0.81281975723E-01  0.51100000000E-03 0.  1.
         11    1    4    4    0    0 -0.37982673489E-01 -0.32881778603E-01  0.98547124977E-02  0.51198352795E-01  0.51100000000E-03 0. -1.
</event>
<event>
 8    1  0.1022673E+005  0.1043930E+01  0.7957747E-01            NaN
         13   -1    0    0    0    0  0.00000000000E+00  0.00000000000E+00  0.74505805969E-08  0.10566000000E+00  0.10566000000E+00 0.  1.
     999900   -1    0    0    0    0 -0.00000000000E+00 -0.00000000000E+00 -0.74505805969E-08  0.93827000000E+00  0.93827000000E+00 0.  1.
     999902    2    1    2    0    0 -0.11936147631E-01  0.63475173301E-02  0.19637184592E-01  0.10200892447E+01  0.10198106125E+01 0.  0.
     999903    2    3    3    0    0 -0.11899784678E+00  0.23655263560E-01 -0.45933971244E-01  0.13101031566E+00  0.18267842362E-01 0.  0.
         14    1    1    2    0    0  0.11936147631E-01 -0.63475173301E-02 -0.19637184592E-01  0.23840755341E-01  0.00000000000E+00 0. -1.
     999901    1    3    3    0    0  0.10706169915E+00 -0.17307746230E-01  0.65571155836E-01  0.88907892899E+00  0.88000000000E+00 0. -1.
        -11    1    4    4    0    0 -0.41105565995E-01  0.10593708972E-01 -0.25140238980E-01  0.49337480301E-01  0.51100000000E-03 0. -1.
         11    1    4    4    0    0 -0.77892280783E-01  0.13061554587E-01 -0.20793732264E-01  0.81672835363E-01  0.51100000000E-03 0.  1.
</event>
<event>
 8    1  0.1022673E+005  0.1043930E+01  0.7957747E-01            NaN
         13   -1    0    0    0    0  0.00000000000E+00  0.00000000000E+00  0.74505805969E-08  0.10566000000E+00  0.10566000000E+00 0. -1.
     999900   -1    0    0    0    0 -0.00000000000E+00 -0.00000000000E+00 -0.74505805969E-08  0.93827000000E+00  0.93827000000E+00 0. -1.
     999902    2    1    2    0    0 -0.21157480548E-01  0.13552430361E-01 -0.50674614090E-02  0.10182982518E+01  0.10179756102E+01 0.  0.
     999903    2    3    3    0    0 -0.78312606573E-01  0.78972210423E-01  0.66490738341E-01  0.13113026768E+00  0.20116024690E-01 0.  0.
         14    1    1    2    0    0  0.21157480548E-01 -0.13552430361E-01  0.50674614090E-02  0.25631748223E-01  0.00000000000E+00 0.  1.
     999901    1    3    3    0    0  0.57155126025E-01 -0.65419780062E-01 -0.71558199750E-01  0.88716798410E+00  0.88000000000E+00 0. -1.
        -11    1    4    4    0    0 -0.55330026358E-01  0.67645324620E-01  0.51067496281E-01  0.10121982048E+00  0.51100000000E-03 0. -1.
         11    1    4    4    0    0 -0.22982580215E-01  0.11326885804E-01  0.15423242060E-01  0.29910447205E-01  0.51100000000E-03 0.  1.
</event>
<event>
 8    1  0.1022673E+005  0.1043930E+01  0.7957747E-01            NaN
         13   -1    0    0    0    0  0.00000000000E+00  0.00000000000E+00  0.74505805969E-08  0.10566000000E+00  0.10566000000E+00 0. -1.
     999900   -1    0    0    0    0 -0.00000000000E+00 -0.00000000000E+00 -0.74505805969E-08  0.93827000000E+00  0.93827000000E+00 0.  1.
     999902    2    1    2    0    0  0.19160820764E-01 -0.12507405792E-01 -0.72126420597E-02  0.10199384503E+01  0.10196562401E+01 0.  0.
     999903    2    3    3    0    0  0.49497962153E-01 -0.78740975485E-01 -0.92700321695E-01  0.13279958220E+00  0.19803785326E-01 0.  0.
         14    1    1    2    0    0 -0.19160820764E-01  0.12507405792E-01  0.72126420597E-02  0.23991549709E-01  0.00000000000E+00 0. -1.
     999901    1    3    3    0    0 -0.30337141390E-01  0.66233569693E-01  0.85487679635E-01  0.88713886809E+00  0.88000000000E+00 0. -1.
        -11    1    4    4    0    0  0.20112688222E-01 -0.28593926191E-01 -0.22146828561E-01  0.41386905887E-01  0.51100000000E-03 0. -1.
         11    1    4    4    0    0  0.29385273931E-01 -0.50147049294E-01 -0.70553493134E-01  0.91412676317E-01  0.51100000000E-03 0.  1.
</event>
<event>
 8    1  0.1022673E+005  0.1043930E+01  0.7957747E-01            NaN
         13   -1    0    0    0    0  0.00000000000E+00  0.00000000000E+00  0.74505805969E-08  0.10566000000E+00  0.10566000000E+00 0.  1.
     999900   -1    0    0    0    0 -0.00000000000E+00 -0.00000000000E+00 -0.74505805969E-08  0.93827000000E+00  0.93827000000E+00 0.  1.
     999902    2    1    2    0    0 -0.21780073591E-01 -0.22915063203E-02  0.90683036663E-02  0.10202264826E+01  0.10199510866E+01 0.  0.
     999903    2    3    3    0    0  0.34878669537E-01  0.82464746757E-01  0.92468261521E-01  0.13042347709E+00  0.21046328428E-01 0.  0.
         14    1    1    2    0    0  0.21780073591E-01  0.22915063203E-02 -0.90683036663E-02  0.23703517423E-01  0.00000000000E+00 0.  1.
     999901    1    3    3    0    0 -0.56658743128E-01 -0.84756253078E-01 -0.83399957855E-01  0.88980300549E+00  0.88000000000E+00 0.  1.
        -11    1    4    4    0    0  0.19610498755E-01  0.61380917422E-01  0.54559281200E-01  0.84434382636E-01  0.51100000000E-03 0. -1.
         11    1    4    4    0    0  0.15268170782E-01  0.21083829335E-01  0.37908980321E-01  0.45989094451E-01  0.51100000000E-03 0.  1.
</event>
<event>
 8    1  0.1022673E+005  0.1043930E+01  0.7957747E-01            NaN
         13   -1    0    0    0    0  0.00000000000E+00  0.00000000000E+00  0.74505805969E-08  0.10566000000E+00  0.10566000000E+00 0. -1.
     999900   -1    0    0    0    0 -0.00000000000E+00 -0.00000000000E+00 -0.74505805969E-08  0.93827000000E+00  0.93827000000E+00 0. -1.
     999902    2    1    2    0    0  0.76776319440E-02  0.22087159548E-01  0.35842992869E-03  0.10205437408E+01  0.10202757518E+01 0.  0.
     999903    2    3    3    0    0  0.93497385508E-01 -0.31845247010E-01  0.83375013349E-01  0.13084407925E+00  0.20319925409E-01 0.  0.
         14    1    1    2    0    0 -0.76776319440E-02 -0.22087159548E-01 -0.35842992869E-03  0.23386259239E-01  0.00000000000E+00 0.  1.
     999901    1    3    3    0    0 -0.85819753564E-01  0.53932406558E-01 -0.83016583420E-01  0.88969966152E+00  0.88000000000E+00 0.  1.
        -11    1    4    4    0    0  0.27639765144E-01 -0.21249653991E-02  0.31082871795E-01  0.41651868328E-01  0.51100000000E-03 0.  1.
         11    1    4    4    0    0  0.65857620364E-01 -0.29720281611E-01  0.52292141554E-01  0.89192210917E-01  0.51100000000E-03 0. -1.
</event>
<event>
 8    1  0.1022673E+005  0.1043930E+01  0.7957747E-01            NaN
         13   -1    0    0    0    0  0.00000000000E+00  0.00000000000E+00  0.74505805969E-08  0.10566000000E+00  0.10566000000E+00 0. -1.
     999900   -1    0    0    0    0 -0.00000000000E+00 -0.00000000000E+00 -0.74505805969E-08  0.93827000000E+00  0.93827000000E+00 0.  1.
     999902    2    1    2    0    0 -0.13844852125E-01  0.19105875857E-01 -0.17247109701E-02  0.10202722518E+01  0.10199979307E+01 0.  0.
     999903    2    3    3    0    0 -0.27649469450E-01  0.33957916836E-01  0.12203668616E+00  0.13138078822E+00  0.21220873413E-01 0.  0.
         14    1    1    2    0    0  0.13844852125E-01 -0.19105875857E-01  0.17247109701E-02  0.23657748214E-01  0.00000000000E+00 0.  1.
     999901    1    3    3    0    0  0.13804617325E-01 -0.14852040979E-01 -0.12376139713E+00  0.88889146357E+00  0.88000000000E+00 0.  1.
        -11    1    4    4    0    0  0.25636666302E-03  0.69187693669E-02  0.40093585233E-01  0.40690192815E-01  0.51100000000E-03 0.  1.
         11    1    4    4    0    0 -0.27905836113E-01  0.27039147469E-01  0.81943100925E-01  0.90690595406E-01  0.51100000000E-03 0. -1.
</event>
<event>
 8    1  0.1022673E+005  0.1043930E+01  0.7957747E-01            NaN
         13   -1    0    0    0    0  0.00000000000E+00  0.00000000000E+00  0.74505805969E-08  0.10566000000E+00  0.10566000000E+00 0.  1.
     999900   -1    0    0    0    0 -0.00000000000E+00 -0.00000000000E+00 -0.74505805969E-08  0.93827000000E+00  0.93827000000E+00 0.  1.
     999902    2    1    2    0    0 -0.88357199496E-02  0.18806193277E-01 -0.10189681341E-01  0.10207875615E+01  0.10205251948E+01 0.  0.
     999903    2    3    3    0    0 -0.91646094621E-01  0.27430533370E-01 -0.90479573508E-01  0.13321874494E+00  0.20229680196E-01 0.  0.
         14    1    1    2    0    0  0.88357199496E-02 -0.18806193277E-01  0.10189681341E-01  0.23142438472E-01  0.00000000000E+00 0.  1.
     999901    1    3    3    0    0  0.82810374672E-01 -0.86243400936E-02  0.80289892167E-01  0.88756881659E+00  0.88000000000E+00 0. -1.
        -11    1    4    4    0    0 -0.11891719555E-01 -0.22520446415E-03 -0.45008265014E-02  0.12727225590E-01  0.51100000000E-03 0. -1.
         11    1    4    4    0    0 -0.79754375066E-01  0.27655737835E-01 -0.85978747007E-01  0.12049151935E+00  0.51100000000E-03 0.  1.
</event>
<event>
 8    1  0.1022673E+005  0.1043930E+01  0.7957747E-01            NaN
         13   -1    0    0    0    0  0.00000000000E+00  0.00000000000E+00  0.74505805969E-08  0.10566000000E+00  0.10566000000E+00 0.  1.
     999900   -1    0    0    0    0 -0.00000000000E+00 -0.00000000000E+00 -0.74505805969E-08  0.93827000000E+00  0.93827000000E+00 0. -1.
     999902    2    1    2    0    0 -0.21631066904E-01 -0.63611929163E-02  0.15720978295E-01  0.10164433307E+01  0.10160716154E+01 0.  0.
     999903    2    3    3    0    0 -0.70958776263E-02  0.88832158130E-01 -0.85858721450E-01  0.12538133442E+00  0.20180564283E-01 0.  0.
         14    1    1    2    0    0  0.21631066904E-01  0.63611929163E-02 -0.15720978295E-01  0.27486669301E-01  0.00000000000E+00 0. -1.
     999901    1    3    3    0    0 -0.14535189278E-01 -0.95193351046E-01  0.10157969975E+00  0.89106199628E+00  0.88000000000E+00 0.  1.
        -11    1    4    4    0    0 -0.10231394698E-01  0.40539157064E-01 -0.29940542094E-01  0.51427637267E-01  0.51100000000E-03 0.  1.
         11    1    4    4    0    0  0.31355170721E-02  0.48293001065E-01 -0.55918179356E-01  0.73953697154E-01  0.51100000000E-03 0. -1.
</event>
<event>
 8    1  0.1022673E+005  0.1043930E+01  0.7957747E-01            NaN
         13   -1    0    0    0    0  0.00000000000E+00  0.00000000000E+00  0.74505805969E-08  0.10566000000E+00  0.10566000000E+00 0. -1.
     999900   -1    0    0    0    0 -0.00000000000E+00 -0.00000000000E+00 -0.74505805969E-08  0.93827000000E+00  0.93827000000E+00 0. -1.
     999902    2    1    2    0    0  0.19938243526E-01  0.75615524548E-02 -0.97687391646E-02  0.10204749601E+01  0.10202053741E+01 0.  0.
     999903    2    3    3    0    0  0.47397548596E-01 -0.34950328788E-04  0.12003147593E+00  0.13049753563E+00  0.19378409517E-01 0.  0.
         14    1    1    2    0    0 -0.19938243526E-01 -0.75615524548E-02  0.97687391646E-02  0.23455039870E-01  0.00000000000E+00 0. -1.
     999901    1    3    3    0    0 -0.27459305070E-01  0.75965027835E-02 -0.12980021510E+00  0.88997742451E+00  0.88000000000E+00 0. -1.
        -11    1    4    4    0    0  0.10512148528E-01 -0.44184414839E-02  0.13521896014E-01  0.17695498994E-01  0.51100000000E-03 0.  1.
         11    1    4    4    0    0  0.36885400067E-01  0.43834911551E-02  0.10650957992E+00  0.11280203663E+00  0.51100000000E-03 0. -1.
</event>
<event>
 8    1  0.1022673E+005  0.1043930E+01  0.7957747E-01            NaN
         13   -1    0    0    0    0  0.00000000000E+00  0.00000000000E+00  0.74505805969E-08  0.10566000000E+00  0.10566000000E+00 0.  1.
     999900   -1    0    0    0    0 -0.00000000000E+00 -0.00000000000E+00 -0.74505805969E-08  0.93827000000E+00  0.93827000000E+00 0.  1.
     999902    2    1    2    0    0 -0.18460370799E-01 -0.87642275873E-02  0.14393272197E-01  0.10189347353E+01  0.10186281124E+01 0.  0.
     999903    2    3    3    0    0  0.10768048181E+00 -0.65983590569E-01 -0.36246160518E-02  0.12791834119E+00  0.20026077601E-01 0.  0.
         14    1    1    2    0    0  0.18460370799E-01  0.87642275873E-02 -0.14393272197E-01  0.24995264747E-01  0.00000000000E+00 0. -1.
     999901    1    3    3    0    0 -0.12614085261E+00  0.57219362981E-01  0.18017888249E-01  0.89101639407E+00  0.88000000000E+00 0. -1.
        -11    1    4    4    0    0  0.10103997267E+00 -0.64411104115E-01 -0.74892716017E-02  0.12005922173E+00  0.51100000000E-03 0.  1.
         11    1    4    4    0    0  0.66405091338E-02 -0.15724864538E-02  0.38646555500E-02  0.78591194623E-02  0.51100000000E-03 0. -1.
</event>
<event>
 8    1  0.1022673E+005  0.1043930E+01  0.7957747E-01            NaN
         13   -1    0    0    0    0  0.00000000000E+00  0.00000000000E+00  0.74505805969E-08  0.10566000000E+00  0.10566000000E+00 0. -1.
     999900   -1    0    0    0    0 -0.00000000000E+00 -0.00000000000E+00 -0.74505805969E-08  0.93827000000E+00  0.93827000000E+00 0.  1.
     999902    2    1    2    0    0  0.98497172112E-02  0.22341429946E-01  0.13273614297E-03  0.10195133245E+01  0.10192209009E+01 0.  0.
     999903    2    3    3    0    0 -0.22006226553E-01 -0.89786421238E-01  0.85836223443E-01  0.12769913768E+00  0.19832727089E-01 0.  0.
         14    1    1    2    0    0 -0.98497172112E-02 -0.22341429946E-01 -0.13273614297E-03  0.24416675450E-01  0.00000000000E+00 0.  1.
     999901    1    3    3    0    0  0.31855943764E-01  0.11212785118E+00 -0.85703487300E-01  0.89181418687E+00  0.88000000000E+00 0.  1.
        -11    1    4    4    0    0 -0.13231008143E-01 -0.36700891629E-01  0.48309400512E-01  0.62097297217E-01  0.51100000000E-03 0.  1.
         11    1    4    4    0    0 -0.87752184096E-02 -0.53085529609E-01  0.37526822931E-01  0.65601840464E-01  0.51100000000E-03 0. -1.
</event>
<event>
 8    1  0.1022673E+005  0.1043930E+01  0.7957747E-01            NaN
         13   -1    0    0    0    0  0.00000000000E+00  0.00000000000E+00  0.74505805969E-08  0.10566000000E+00  0.10566000000E+00 0. -1.
     999900   -1    0    0    0    0 -0.00000000000E+00 -0.00000000000E+00 -0.74505805969E-08  0.93827000000E+00  0.93827000000E+00 0.  1.
     999902    2    1    2    0    0 -0.18563921199E-01  0.60248789150E-02  0.13860556667E-01  0.10199918846E+01  0.10197109450E+01 0.  0.
     999903    2    3    3    0    0  0.10268415710E+00  0.29895617542E-01 -0.66409913500E-01  0.12773953410E+00  0.21663976846E-01 0.  0.
         14    1    1    2    0    0  0.18563921199E-01 -0.60248789150E-02 -0.13860556667E-01  0.23938115368E-01  0.00000000000E+00 0.  1.
     999901    1    3    3    0    0 -0.12124807830E+00 -0.23870738627E-01  0.80270470167E-01  0.89225235053E+00  0.88000000000E+00 0.  1.
        -11    1    4    4    0    0  0.70461894621E-01  0.12515227698E-01 -0.35829835241E-01  0.80034665817E-01  0.51100000000E-03 0. -1.
         11    1    4    4    0    0  0.32222262479E-01  0.17380389844E-01 -0.30580078259E-01  0.47704868281E-01  0.51100000000E-03 0.  1.
</event>
<event>
 8    1  0.1038362E+005  0.1043930E+01  0.7957747E-01            NaN
         13   -1    0    0    0    0  0.00000000000E+00  0.00000000000E+00  0.74505805969E-08  0.10566000000E+00  0.10566000000E+00 0.  1.
     999900   -1    0    0    0    0 -0.00000000000E+00 -0.00000000000E+00 -0.74505805969E-08  0.93827000000E+00  0.93827000000E+00 0. -1.
     999902    2    1    2    0    0  0.41146847148E-03 -0.27502721078E-01 -0.34571952907E-02  0.10162077856E+01  0.10158295833E+01 0.  0.
     999903    2    3    3    0    0 -0.57828364141E-01 -0.11466536103E+00 -0.52042252536E-03  0.12998104905E+00  0.20063338554E-01 0.  0.
         14    1    1    2    0    0 -0.41146847148E-03  0.27502721078E-01  0.34571952907E-02  0.27722214418E-01  0.00000000000E+00 0. -1.
     999901    1    3    3    0    0  0.58239832612E-01  0.87162639952E-01 -0.29367727653E-02  0.88622673653E+00  0.88000000000E+00 0.  1.
        -11    1    4    4    0    0 -0.34778535021E-01 -0.64773260474E-01  0.94378085511E-02  0.74124591883E-01  0.51100000000E-03 0. -1.
         11    1    4    4    0    0 -0.23049829119E-01 -0.49892100555E-01 -0.99582310764E-02  0.55856457169E-01  0.51100000000E-03 0.  1.
</event>
<event>
 8    1  0.1022673E+005  0.1043930E+01  0.7957747E-01            NaN
         13   -1    0    0    0    0  0.00000000000E+00  0.00000000000E+00  0.74505805969E-08  0.10566000000E+00  0.10566000000E+00 0.  1.
     999900   -1    0    0    0    0 -0.00000000000E+00 -0.00000000000E+00 -0.74505805969E-08  0.93827000000E+00  0.93827000000E+00 0. -1.
     999902    2    1    2    0    0 -0.15449062266E-02  0.14669905289E-01 -0.14269480851E-01  0.10234065758E+01  0.10232007665E+01 0.  0.
     999903    2    3    3    0    0 -0.43907226270E-01 -0.70656215991E-01  0.99169747782E-01  0.13102573126E+00  0.20321368095E-01 0.  0.
         14    1    1    2    0    0  0.15449062266E-02 -0.14669905289E-01  0.14269480851E-01  0.20523424183E-01  0.00000000000E+00 0.  1.
     999901    1    3    3    0    0  0.42362320043E-01  0.85326121280E-01 -0.11343922863E+00  0.89238084455E+00  0.88000000000E+00 0. -1.
        -11    1    4    4    0    0 -0.33625316370E-01 -0.59951614087E-01  0.91097622781E-01  0.11412228498E+00  0.51100000000E-03 0.  1.
         11    1    4    4    0    0 -0.10281909900E-01 -0.10704601904E-01  0.80721250013E-02  0.16903446280E-01  0.51100000000E-03 0. -1.
</event>
<event>
 8    1  0.1022673E+005  0.1043930E+01  0.7957747E-01            NaN
         13   -1    0    0    0    0  0.00000000000E+00  0.00000000000E+00  0.74505805969E-08  0.10566000000E+00  0.10566000000E+00 0.  1.
     999900   -1    0    0    0    0 -0.00000000000E+00 -0.00000000000E+00 -0.74505805969E-08  0.93827000000E+00  0.93827000000E+00 0.  1.
     999902    2    1    2    0    0  0.22527299614E-01 -0.44970999549E-02  0.52909013070E-02  0.10203567785E+01  0.10200844370E+01 0.  0.
     999903    2    3    3    0    0 -0.40188205427E-01  0.10530915210E+00  0.60745657886E-01  0.12958976204E+00  0.19959010543E-01 0.  0.
         14    1    1    2    0    0 -0.22527299614E-01  0.44970999549E-02 -0.52909013070E-02  0.23573221514E-01  0.00000000000E+00 0. -1.
     999901    1    3    3    0    0  0.62715505041E-01 -0.10980625205E+00 -0.55454756579E-01  0.89076701645E+00  0.88000000000E+00 0.  1.
        -11    1    4    4    0    0 -0.37865188803E-01  0.76387070675E-01  0.48538295785E-01  0.98107004684E-01  0.51100000000E-03 0.  1.
         11    1    4    4    0    0 -0.23230166240E-02  0.28922081425E-01  0.12207362101E-01  0.31482757355E-01  0.51100000000E-03 0. -1.
</event>
<event>
 8    1  0.1022673E+005  0.1043930E+01  0.7957747E-01            NaN
         13   -1    0    0    0    0  0.00000000000E+00  0.00000000000E+00  0.74505805969E-08  0.10566000000E+00  0.10566000000E+00 0. -1.
     999900   -1    0    0    0    0 -0.00000000000E+00 -0.00000000000E+00 -0.74505805969E-08  0.93827000000E+00  0.93827000000E+00 0. -1.
     999902    2    1    2    0    0 -0.59644657755E-02  0.23539806356E-01 -0.31314036697E-02  0.10194452492E+01  0.10191511728E+01 0.  0.
     999903    2    3    3    0    0 -0.60395456681E-02  0.13009331215E+00  0.15705403680E-01  0.13281766073E+00  0.20811663057E-01 0.  0.
         14    1    1    2    0    0  0.59644657755E-02 -0.23539806356E-01  0.31314036697E-02  0.24484750850E-01  0.00000000000E+00 0.  1.
     999901    1    3    3    0    0  0.75079892653E-04 -0.10655350580E+00 -0.18836807349E-01  0.88662758842E+00  0.88000000000E+00 0. -1.
        -11    1    4    4    0    0 -0.12485584456E-01  0.73177649425E-01  0.13769834221E-01  0.75503163179E-01  0.51100000000E-03 0.  1.
         11    1    4    4    0    0  0.64460387877E-02  0.56915662725E-01  0.19355694592E-02  0.57314497552E-01  0.51100000000E-03 0. -1.
</event>
<event>
 8    1  0.1022673E+005  0.1043930E+01  0.7957747E-01            NaN
         13   -1    0    0    0    0  0.00000000000E+00  0.00000000000E+00  0.74505805969E-08  0.10566000000E+00  0.10566000000E+00 0. -1.
     999900   -1    0    0    0    0 -0.00000000000E+00 -0.00000000000E+00 -0.74505805969E-08  0.93827000000E+00  0.93827000000E+00 0. -1.
     999902    2    1    2    0    0 -0.70914661919E-02  0.92494579012E-04 -0.22578502654E-01  0.10202638590E+01  0.10199893410E+01 0.  0.
     999903    2    3    3    0    0  0.10469606098E+00  0.64594386925E-01 -0.39139348548E-01  0.13069587005E+00  0.20391709971E-01 0.  0.
         14    1    1    2    0    0  0.70914661919E-02 -0.92494579012E-04  0.22578502654E-01  0.23666141005E-01  0.00000000000E+00 0. -1.
     999901    1    3    3    0    0 -0.11178752717E+00 -0.64501892346E-01  0.16560845895E-01  0.88956798895E+00  0.88000000000E+00 0.  1.
        -11    1    4    4    0    0  0.71971994189E-01  0.55022690782E-01 -0.28089607735E-01  0.94851207858E-01  0.51100000000E-03 0. -1.
         11    1    4    4    0    0  0.32724066789E-01  0.95716961432E-02 -0.11049740813E-01  0.35844662187E-01  0.51100000000E-03 0.  1.
</event>
<event>
 8    1  0.1022673E+005  0.1043930E+01  0.7957747E-01            NaN
         13   -1    0    0    0    0  0.00000000000E+00  0.00000000000E+00  0.74505805969E-08  0.10566000000E+00  0.10566000000E+00 0.  1.
     999900   -1    0    0    0    0 -0.00000000000E+00 -0.00000000000E+00 -0.74505805969E-08  0.93827000000E+00  0.93827000000E+00 0.  1.
     999902    2    1    2    0    0  0.18979264530E-01 -0.12035729162E-01  0.61675882713E-02  0.10206252708E+01  0.10203591686E+01 0.  0.
     999903    2    3    3    0    0 -0.45933379831E-01  0.11288434434E+00 -0.35727671529E-01  0.12845158313E+00  0.19250769188E-01 0.  0.
         14    1    1    2    0    0 -0.18979264530E-01  0.12035729162E-01 -0.61675882713E-02  0.23304729212E-01  0.00000000000E+00 0. -1.
     999901    1    3    3    0    0  0.64912644361E-01 -0.12492007350E+00  0.41895259800E-01  0.89217368766E+00  0.88000000000E+00 0.  1.
        -11    1    4    4    0    0 -0.10499787198E-01  0.45882351350E-01 -0.80186112003E-02  0.47749292593E-01  0.51100000000E-03 0. -1.
         11    1    4    4    0    0 -0.35433592633E-01  0.67001992993E-01 -0.27709060329E-01  0.80702290533E-01  0.51100000000E-03 0.  1.
</event>
<event>
 8    1  0.1022673E+005  0.1043930E+01  0.7957747E-01            NaN
         13   -1    0    0    0    0  0.00000000000E+00  0.00000000000E+00  0.74505805969E-08  0.10566000000E+00  0.10566000000E+00 0.  1.
     999900   -1    0    0    0    0 -0.00000000000E+00 -0.00000000000E+00 -0.74505805969E-08  0.93827000000E+00  0.93827000000E+00 0. -1.
     999902    2    1    2    0    0 -0.85120392560E-02  0.12380368929E-01  0.17413353223E-01  0.10209310170E+01  0.10206719298E+01 0.  0.
     999903    2    3    3    0    0 -0.12662772724E+00 -0.82031724521E-02  0.33312896966E-01  0.13265865260E+00  0.19664578807E-01 0.  0.
         14    1    1    2    0    0  0.85120392560E-02 -0.12380368929E-01 -0.17413353223E-01  0.22998982968E-01  0.00000000000E+00 0.  1.
     999901    1    3    3    0    0  0.11811568799E+00  0.20583541381E-01 -0.15899543743E-01  0.88827236443E+00  0.88000000000E+00 0.  1.
        -11    1    4    4    0    0 -0.80268270078E-01 -0.12404498477E-01  0.14798560827E-01  0.82559828533E-01  0.51100000000E-03 0. -1.
         11    1    4    4    0    0 -0.46359457166E-01  0.42013260247E-02  0.18514336139E-01  0.50098824066E-01  0.51100000000E-03 0.  1.
</event>
<event>
 8    1  0.1022673E+005  0.1043930E+01  0.7957747E-01            NaN
         13   -1    0    0    0    0  0.00000000000E+00  0.00000000000E+00  0.74505805969E-08  0.10566000000E+00  0.10566000000E+00 0. -1.
     999900   -1    0    0    0    0 -0.00000000000E+00 -0.00000000000E+00 -0.74505805969E-08  0.93827000000E+00  0.93827000000E+00 0. -1.
     999902    2    1    2    0    0  0.70766656012E-02  0.32718209862E-02 -0.22064403139E-01  0.10205286775E+01  0.10202603392E+01 0.  0.
     999903    2    3    3    0    0 -0.10628793591E+00  0.66773063763E-01  0.26598536633E-01  0.12965718149E+00  0.18647659276E-01 0.  0.
         14    1    1    2    0    0 -0.70766656012E-02 -0.32718209862E-02  0.22064403139E-01  0.23401322494E-01  0.00000000000E+00 0. -1.
     999901    1    3    3    0    0  0.11336460151E+00 -0.63501242777E-01 -0.48662939772E-01  0.89087149602E+00  0.88000000000E+00 0.  1.
        -11    1    4    4    0    0 -0.23405784051E-01  0.16944908144E-01 -0.15306401061E-02  0.28940708685E-01  0.51100000000E-03 0. -1.
         11    1    4    4    0    0 -0.82882151857E-01  0.49828155620E-01  0.28129176740E-01  0.10071647280E+00  0.51100000000E-03 0.  1.
</event>
<event>
 8    1  0.1022673E+005  0.1043930E+01  0.7957747E-01            NaN
         13   -1    0    0    0    0  0.00000000000E+00  0.00000000000E+00  0.74505805969E-08  0.10566000000E+00  0.10566000000E+00 0. -1.
     999900   -1    0    0    0    0 -0.00000000000E+00 -0.00000000000E+00 -0.74505805969E-08  0.93827000000E+00  0.93827000000E+00 0.  1.
     999902    2    1    2    0    0  0.19319929148E-01 -0.11413148358E-01 -0.67236815648E-02  0.10205050665E+01  0.10202361801E+01 0.  0.
     999903    2    3    3    0    0 -0.12629765947E+00  0.95180756013E-03 -0.11214927828E-01  0.12844142212E+00  0.20479735985E-01 0.  0.
         14    1    1    2    0    0 -0.19319929148E-01  0.11413148358E-01  0.67236815648E-02  0.23424933544E-01  0.00000000000E+00 0.  1.
     999901    1    3    3    0    0  0.14561758862E+00 -0.12364955919E-01  0.44912462632E-02  0.89206364433E+00  0.88000000000E+00 0. -1.
        -11    1    4    4    0    0 -0.50560805152E-01  0.93258002517E-03 -0.14568675906E-01  0.52628624927E-01  0.51100000000E-03 0. -1.
         11    1    4    4    0    0 -0.75736854316E-01  0.19227534955E-04  0.33537480780E-02  0.75812797195E-01  0.51100000000E-03 0.  1.
</event>
<event>
 8    1  0.1022673E+005  0.1043930E+01  0.7957747E-01            NaN
         13   -1    0    0    0    0  0.00000000000E+00  0.00000000000E+00  0.74505805969E-08  0.10566000000E+00  0.10566000000E+00 0. -1.
     999900   -1    0    0    0    0 -0.00000000000E+00 -0.00000000000E+00 -0.74505805969E-08  0.93827000000E+00  0.93827000000E+00 0. -1.
     999902    2    1    2    0    0  0.21296220508E-01 -0.98216865312E-02 -0.24242916297E-02  0.10203530680E+01  0.10200806397E+01 0.  0.
     999903    2    3    3    0    0 -0.42380871122E-01 -0.11898163358E+00  0.27490987506E-01  0.13082196117E+00  0.20146060698E-01 0.  0.
         14    1    1    2    0    0 -0.21296220508E-01  0.98216865312E-02  0.24242916297E-02  0.23576932034E-01  0.00000000000E+00 0.  1.
     999901    1    3    3    0    0  0.63677091631E-01  0.10915994705E+00 -0.29915279135E-01  0.88953110680E+00  0.88000000000E+00 0.  1.
        -11    1    4    4    0    0 -0.65417948529E-03 -0.18136845593E-01 -0.46059907099E-03  0.18161673694E-01  0.51100000000E-03 0. -1.
         11    1    4    4    0    0 -0.41726691637E-01 -0.10084478799E+00  0.27951586577E-01  0.11266028747E+00  0.51100000000E-03 0.  1.
</event>
<event>
 8    1  0.1022673E+005  0.1043930E+01  0.7957747E-01            NaN
         13   -1    0    0    0    0  0.00000000000E+00  0.00000000000E+00  0.74505805969E-08  0.10566000000E+00  0.10566000000E+00 0.  1.
     999900   -1    0    0    0    0 -0.00000000000E+00 -0.00000000000E+00 -0.74505805969E-08  0.93827000000E+00  0.93827000000E+00 0. -1.
     999902    2    1    2    0    0  0.10134399736E-01 -0.23062185105E-01  0.39724189883E-02  0.10184280285E+01  0.10181086870E+01 0.  0.
     999903    2    3    3    0    0  0.16738620631E-01  0.11342531887E+00  0.50520812788E-01  0.12666617267E+00  0.18614037523E-01 0.  0.
         14    1    1    2    0    0 -0.10134399736E-01  0.23062185105E-01 -0.39724189883E-02  0.25501971540E-01  0.00000000000E+00 0. -1.
     999901    1    3    3    0    0 -0.66042208946E-02 -0.13648750397E+00 -0.46548393800E-01  0.89176185579E+00  0.88000000000E+00 0. -1.
        -11    1    4    4    0    0  0.80482495467E-02  0.64543002650E-01  0.18648921056E-01  0.67665477826E-01  0.51100000000E-03 0. -1.
         11    1    4    4    0    0  0.86903710840E-02  0.48882316220E-01  0.31871891732E-01  0.59000694845E-01  0.51100000000E-03 0.  1.
</event>
<event>
 8    1  0.1022673E+005  0.1043930E+01  0.7957747E-01            NaN
         13   -1    0    0    0    0  0.00000000000E+00  0.00000000000E+00  0.74505805969E-08  0.10566000000E+00  0.10566000000E+00 0. -1.
     999900   -1    0    0    0    0 -0.00000000000E+00 -0.00000000000E+00 -0.74505805969E-08  0.93827000000E+00  0.93827000000E+00 0. -1.
     999902    2    1    2    0    0 -0.12697146350E-01 -0.18938836423E-01 -0.14220790343E-02  0.10210844455E+01  0.10208288424E+01 0.  0.
     999903    2    3    3    0    0  0.49925599225E-01  0.26622670837E-01  0.11615448647E+00  0.12989327189E+00  0.13381528110E-01 0.  0.
         14    1    1    2    0    0  0.12697146350E-01  0.18938836423E-01  0.14220790343E-02  0.22845554475E-01  0.00000000000E+00 0. -1.
     999901    1    3    3    0    0 -0.62622745576E-01 -0.45561507260E-01 -0.11757656551E+00  0.89119117363E+00  0.88000000000E+00 0. -1.
        -11    1    4    4    0    0  0.15673012241E-01  0.11949152356E-01  0.53197051008E-01  0.56732820410E-01  0.51100000000E-03 0. -1.
         11    1    4    4    0    0  0.34252586985E-01  0.14673518481E-01  0.62957435463E-01  0.73160451481E-01  0.51100000000E-03 0.  1.
</event>
<event>
 8    1  0.1022673E+005  0.1043930E+01  0.7957747E-01            NaN
         13   -1    0    0    0    0  0.00000000000E+00  0.00000000000E+00  0.74505805969E-08  0.10566000000E+00  0.10566000000E+00 0.  1.
     999900   -1    0    0    0    0 -0.00000000000E+00 -0.00000000000E+00 -0.74505805969E-08  0.93827000000E+00  0.93827000000E+00 0. -1.
     999902    2    1    2    0    0  0.25755337548E-01  0.26570401487E-02  0.17439360710E-01  0.10127125597E+01  0.10122312977E+01 0.  0.
     999903    2    3    3    0    0 -0.74908045539E-01  0.57436581437E-01  0.76624238723E-01  0.12331008356E+00  0.20589477287E-01 0.  0.
         14    1    1    2    0    0 -0.25755337548E-01 -0.26570401487E-02 -0.17439360710E-01  0.31217440263E-01  0.00000000000E+00 0. -1.
     999901    1    3    3    0    0  0.10066338309E+00 -0.54779541289E-01 -0.59184878013E-01  0.88940247617E+00  0.88000000000E+00 0. -1.
        -11    1    4    4    0    0 -0.47126241429E-01  0.23419904781E-01  0.39546245196E-01  0.65829637712E-01  0.51100000000E-03 0. -1.
         11    1    4    4    0    0 -0.27781804110E-01  0.34016676656E-01  0.37077993527E-01  0.57480445852E-01  0.51100000000E-03 0.  1.
</event>
<event>
 8    1  0.1022673E+005  0.1043930E+01  0.7957747E-01            NaN
         13   -1    0    0    0    0  0.00000000000E+00  0.00000000000E+00  0.74505805969E-08  0.10566000000E+00  0.10566000000E+00 0.  1.
     999900   -1    0    0    0    0 -0.00000000000E+00 -0.00000000000E+00 -0.74505805969E-08  0.93827000000E+00  0.93827000000E+00 0. -1.
     999902    2    1    2    0    0 -0.11325588418E-01 -0.16793960805E-01  0.14654352722E-01  0.10189288775E+01  0.10186221092E+01 0.  0.
     999903    2    3    3    0    0 -0.37800037702E-01  0.11582422036E+00 -0.29061799333E-01  0.12752572494E+00  0.23960998941E-01 0.  0.
         14    1    1    2    0    0  0.11325588418E-01  0.16793960805E-01 -0.14654352722E-01  0.25001122499E-01  0.00000000000E+00 0. -1.
     999901    1    3    3    0    0  0.26474449285E-01 -0.13261818116E+00  0.43716152054E-01  0.89140315256E+00  0.88000000000E+00 0. -1.
        -11    1    4    4    0    0 -0.59655589183E-02  0.52723893482E-01 -0.72308263916E-02  0.53553177388E-01  0.51100000000E-03 0.  1.
         11    1    4    4    0    0 -0.31834478784E-01  0.63100326875E-01 -0.21830972941E-01  0.73972547555E-01  0.51100000000E-03 0. -1.
</event>
<event>
 8    1  0.1022673E+005  0.1043930E+01  0.7957747E-01            NaN
         13   -1    0    0    0    0  0.00000000000E+00  0.00000000000E+00  0.74505805969E-08  0.10566000000E+00  0.10566000000E+00 0.  1.
     999900   -1    0    0    0    0 -0.00000000000E+00 -0.00000000000E+00 -0.74505805969E-08  0.93827000000E+00  0.93827000000E+00 0. -1.
     999902    2    1    2    0    0  0.17669427947E-01  0.13097241206E-01  0.33616870370E-02  0.10216803404E+01  0.10214380405E+01 0.  0.
     999903    2    3    3    0    0  0.86133219694E-01 -0.97000560916E-01 -0.14220800473E-01  0.13200738890E+00  0.19891686869E-01 0.  0.
         14    1    1    2    0    0 -0.17669427947E-01 -0.13097241206E-01 -0.33616870370E-02  0.22249659568E-01  0.00000000000E+00 0. -1.
     999901    1    3    3    0    0 -0.68463791747E-01  0.11009780212E+00  0.17582487510E-01  0.88967295153E+00  0.88000000000E+00 0. -1.
        -11    1    4    4    0    0  0.21704076535E-01 -0.15252585137E-01  0.22400256202E-02  0.26626812189E-01  0.51100000000E-03 0.  1.
         11    1    4    4    0    0  0.64429143159E-01 -0.81747975779E-01 -0.16460826093E-01  0.10538057672E+00  0.51100000000E-03 0. -1.
</event>
<event>
 8    1  0.1022673E+005  0.1043930E+01  0.7957747E-01            NaN
         13   -1    0    0    0    0  0.00000000000E+00  0.00000000000E+00  0.74505805969E-08  0.10566000000E+00  0.10566000000E+00 0. -1.
     999900   -1    0    0    0    0 -0.00000000000E+00 -0.00000000000E+00 -0.74505805969E-08  0.93827000000E+00  0.93827000000E+00 0.  1.
     999902    2    1    2    0    0 -0.65803769645E-02 -0.69977105595E-02  0.21928798841E-01  0.10199896255E+01  0.10197086322E+01 0.  0.
     999903    2    3    3    0    0  0.21541079270E-01 -0.78538620766E-01 -0.97254053678E-01  0.12863477443E+00  0.21359334927E-01 0.  0.
         14    1    1    2    0    0  0.65803769645E-02  0.69977105595E-02 -0.21928798841E-01  0.23940374530E-01  0.00000000000E+00 0.  1.
     999901    1    3    3    0    0 -0.28121456234E-01  0.71540910207E-01  0.11918285252E+00  0.89135485104E+00  0.88000000000E+00 0. -1.
        -11    1    4    4    0    0  0.25016324899E-02 -0.25635941702E-01 -0.45122025201E-01  0.51958810141E-01  0.51100000000E-03 0.  1.
         11    1    4    4    0    0  0.19039446780E-01 -0.52902679064E-01 -0.52132028477E-01  0.76675964291E-01  0.51100000000E-03 0. -1.
</event>
<event>
 8    1  0.1022673E+005  0.1043930E+01  0.7957747E-01            NaN
         13   -1    0    0    0    0  0.00000000000E+00  0.00000000000E+00  0.74505805969E-08  0.10566000000E+00  0.10566000000E+00 0. -1.
     999900   -1    0    0    0    0 -0.00000000000E+00 -0.00000000000E+00 -0.74505805969E-08  0.93827000000E+00  0.93827000000E+00 0. -1.
     999902    2    1    2    0    0  0.15340062306E-01  0.17188387386E-01 -0.57705322739E-02  0.10201801113E+01  0.10199036240E+01 0.  0.
     999903    2    3    3    0    0 -0.26611220321E-01  0.12417774133E+00  0.29976289031E-01  0.13198842744E+00  0.19851916380E-01 0.  0.
         14    1    1    2    0    0 -0.15340062306E-01 -0.17188387386E-01  0.57705322739E-02  0.23749888741E-01  0.00000000000E+00 0. -1.
     999901    1    3    3    0    0  0.41951282627E-01 -0.10698935395E+00 -0.35746821305E-01  0.88819168382E+00  0.88000000000E+00 0. -1.
        -11    1    4    4    0    0 -0.16544971894E-01  0.60462856402E-01  0.24297150297E-01  0.67231731592E-01  0.51100000000E-03 0.  1.
         11    1    4    4    0    0 -0.10066248427E-01  0.63714884932E-01  0.56791387338E-02  0.64756695848E-01  0.51100000000E-03 0. -1.
</event>
<event>
 8    1  0.1022673E+005  0.1043930E+01  0.7957747E-01            NaN
         13   -1    0    0    0    0  0.00000000000E+00  0.00000000000E+00  0.74505805969E-08  0.10566000000E+00  0.10566000000E+00 0.  1.
     999900   -1    0    0    0    0 -0.00000000000E+00 -0.00000000000E+00 -0.74505805969E-08  0.93827000000E+00  0.93827000000E+00 0. -1.
     999902    2    1    2    0    0  0.43743266003E-02  0.13195659774E-01 -0.19044882100E-01  0.10203510326E+01  0.10200785568E+01 0.  0.
     999903    2    3    3    0    0 -0.12760819473E-02 -0.73094337715E-01  0.10290113337E+00  0.12774321194E+00  0.19628406895E-01 0.  0.
         14    1    1    2    0    0 -0.43743266003E-02 -0.13195659774E-01  0.19044882100E-01  0.23578967413E-01  0.00000000000E+00 0. -1.
     999901    1    3    3    0    0  0.56504085476E-02  0.86289997489E-01 -0.12194601547E+00  0.89260782064E+00  0.88000000000E+00 0. -1.
        -11    1    4    4    0    0 -0.31794030517E-02 -0.37146107755E-01  0.68271847652E-01  0.77789769430E-01  0.51100000000E-03 0.  1.
         11    1    4    4    0    0  0.19033211043E-02 -0.35948229960E-01  0.34629285720E-01  0.49953442514E-01  0.51100000000E-03 0. -1.
</event>
<event>
 8    1  0.1022673E+005  0.1043930E+01  0.7957747E-01            NaN
         13   -1    0    0    0    0  0.00000000000E+00  0.00000000000E+00  0.74505805969E-08  0.10566000000E+00  0.10566000000E+00 0. -1.
     999900   -1    0    0    0    0 -0.00000000000E+00 -0.00000000000E+00 -0.74505805969E-08  0.93827000000E+00  0.93827000000E+00 0. -1.
     999902    2    1    2    0    0 -0.30138330632E-01 -0.31828072712E-02 -0.13882427056E-02  0.10135922932E+01  0.10131381744E+01 0.  0.
     999903    2    3    3    0    0  0.10055107091E+00 -0.38157344051E-01  0.53247926729E-01  0.12157881298E+00  0.19482435631E-01 0.  0.
         14    1    1    2    0    0  0.30138330632E-01  0.31828072712E-02  0.13882427056E-02  0.30337706789E-01  0.00000000000E+00 0. -1.
     999901    1    3    3    0    0 -0.13068940155E+00  0.34974536779E-01 -0.54636169434E-01  0.89201348023E+00  0.88000000000E+00 0. -1.
        -11    1    4    4    0    0  0.83631943101E-01 -0.28233767399E-01  0.35568037768E-01  0.95167189514E-01  0.51100000000E-03 0.  1.
         11    1    4    4    0    0  0.16919127814E-01 -0.99235766511E-02  0.17679888961E-01  0.26411623468E-01  0.51100000000E-03 0. -1.
</event>
<event>
 8    1  0.1022673E+005  0.1043930E+01  0.7957747E-01            NaN
         13   -1    0    0    0    0  0.00000000000E+00  0.00000000000E+00  0.74505805969E-08  0.10566000000E+00  0.10566000000E+00 0. -1.
     999900   -1    0    0    0    0 -0.00000000000E+00 -0.00000000000E+00 -0.74505805969E-08  0.93827000000E+00  0.93827000000E+00 0.  1.
     999902    2    1    2    0    0  0.13613227653E-01 -0.55585188089E-02  0.15258193034E-01  0.10227396826E+01  0.10225201361E+01 0.  0.
     999903    2    3    3    0    0  0.27214751513E-01  0.12504832377E+00 -0.25540992598E-01  0.13206144530E+00  0.20252334552E-01 0.  0.
         14    1    1    2    0    0 -0.13613227653E-01  0.55585188089E-02 -0.15258193034E-01  0.21190317438E-01  0.00000000000E+00 0.  1.
     999901    1    3    3    0    0 -0.13601523860E-01 -0.13060684258E+00  0.40799185632E-01  0.89067823726E+00  0.88000000000E+00 0.  1.
        -11    1    4    4    0    0  0.13228649177E-01  0.54705251408E-01 -0.11182151880E-02  0.56295410265E-01  0.51100000000E-03 0. -1.
         11    1    4    4    0    0  0.13986102336E-01  0.70343072362E-01 -0.24422777410E-01  0.75766035037E-01  0.51100000000E-03 0.  1.
</event>
<event>
 8    1  0.1512720E+005  0.1043930E+01  0.7957747E-01            NaN
         13   -1    0    0    0    0  0.00000000000E+00  0.00000000000E+00  0.74505805969E-08  0.10566000000E+00  0.10566000000E+00 0. -1.
     999900   -1    0    0    0    0 -0.00000000000E+00 -0.00000000000E+00 -0.74505805969E-08  0.93827000000E+00  0.93827000000E+00 0.  1.
     999902    2    1    2    0    0  0.40726841904E-03 -0.22856534764E-01  0.65941465234E-02  0.10201377782E+01  0.10198602928E+01 0.  0.
     999903    2    3    3    0    0  0.38813392362E-01 -0.12428764840E+00 -0.18208814711E-01  0.13313242984E+00  0.20947170910E-01 0.  0.
         14    1    1    2    0    0 -0.40726841904E-03  0.22856534764E-01 -0.65941465234E-02  0.23792221783E-01  0.00000000000E+00 0. -1.
     999901    1    3    3    0    0 -0.38406123943E-01  0.10143111364E+00  0.24802961235E-01  0.88700534838E+00  0.88000000000E+00 0. -1.
        -11    1    4    4    0    0  0.28365409699E-01 -0.57743671640E-01 -0.53850187033E-02  0.64561502688E-01  0.51100000000E-03 0.  1.
         11    1    4    4    0    0  0.10447982663E-01 -0.66543976762E-01 -0.12823796008E-01  0.68570927149E-01  0.51100000000E-03 0. -1.
</event>
<event>
 8    1  0.1022673E+005  0.1043930E+01  0.7957747E-01            NaN
         13   -1    0    0    0    0  0.00000000000E+00  0.00000000000E+00  0.74505805969E-08  0.10566000000E+00  0.10566000000E+00 0.  1.
     999900   -1    0    0    0    0 -0.00000000000E+00 -0.00000000000E+00 -0.74505805969E-08  0.93827000000E+00  0.93827000000E+00 0. -1.
     999902    2    1    2    0    0 -0.86955190147E-02 -0.21062177971E-01  0.98513249565E-02  0.10191050932E+01  0.10188026870E+01 0.  0.
     999903    2    3    3    0    0 -0.27821452513E-01  0.58106567656E-01 -0.10811764637E+00  0.12750531206E+00  0.20439489271E-01 0.  0.
         14    1    1    2    0    0  0.86955190147E-02  0.21062177971E-01 -0.98513249565E-02  0.24824906752E-01  0.00000000000E+00 0. -1.
     999901    1    3    3    0    0  0.19125933499E-01 -0.79168745628E-01  0.11796897133E+00  0.89159978119E+00  0.88000000000E+00 0.  1.
        -11    1    4    4    0    0  0.18090971009E-02  0.56547330323E-02 -0.19177286530E-01  0.20081789702E-01  0.51100000000E-03 0. -1.
         11    1    4    4    0    0 -0.29630549614E-01  0.52451834624E-01 -0.88940359844E-01  0.10742352236E+00  0.51100000000E-03 0.  1.
</event>
<event>
 8    1  0.1022673E+005  0.1043930E+01  0.7957747E-01            NaN
         13   -1    0    0    0    0  0.00000000000E+00  0.00000000000E+00  0.74505805969E-08  0.10566000000E+00  0.10566000000E+00 0.  1.
     999900   -1    0    0    0    0 -0.00000000000E+00 -0.00000000000E+00 -0.74505805969E-08  0.93827000000E+00  0.93827000000E+00 0. -1.
     999902    2    1    2    0    0 -0.16973293846E-01  0.15778495285E-01 -0.81506542230E-02  0.10193640320E+01  0.10190679776E+01 0.  0.
     999903    2    3    3    0    0 -0.99313789225E-01 -0.34596322093E-01 -0.76317451843E-01  0.13146522491E+00  0.19965411912E-01 0.  0.
         14    1    1    2    0    0  0.16973293846E-01 -0.15778495285E-01  0.81506542230E-02  0.24565967958E-01  0.00000000000E+00 0.  1.
     999901    1    3    3    0    0  0.82340495379E-01  0.50374817378E-01  0.68166797620E-01  0.88789880713E+00  0.88000000000E+00 0.  1.
        -11    1    4    4    0    0 -0.23702057845E-01 -0.14358414781E-01 -0.12203177513E-01  0.30284158954E-01  0.51100000000E-03 0. -1.
         11    1    4    4    0    0 -0.75611731380E-01 -0.20237907312E-01 -0.64114274330E-01  0.10118106596E+00  0.51100000000E-03 0.  1.
</event>
<event>
 8    1  0.1022673E+005  0.1043930E+01  0.7957747E-01            NaN
         13   -1    0    0    0    0  0.00000000000E+00  0.00000000000E+00  0.74505805969E-08  0.10566000000E+00  0.10566000000E+00 0. -1.
     999900   -1    0    0    0    0 -0.00000000000E+00 -0.00000000000E+00 -0.74505805969E-08  0.93827000000E+00  0.93827000000E+00 0.  1.
     999902    2    1    2    0    0  0.16757762849E-01 -0.13794421674E-01  0.13017707882E-02  0.10221859596E+01  0.10219546628E+01 0.  0.
     999903    2    3    3    0    0 -0.40536663128E-01  0.35926248743E-01 -0.11756150408E+00  0.13096024498E+00  0.19898796863E-01 0.  0.
         14    1    1    2    0    0 -0.16757762849E-01  0.13794421674E-01 -0.13017707882E-02  0.21744040384E-01  0.00000000000E+00 0.  1.
     999901    1    3    3    0    0  0.57294425977E-01 -0.49720670418E-01  0.11886327487E+00  0.89122571464E+00  0.88000000000E+00 0. -1.
        -11    1    4    4    0    0 -0.70341956739E-02  0.52030859204E-02 -0.40942553597E-01  0.41870106615E-01  0.51100000000E-03 0.  1.
         11    1    4    4    0    0 -0.33502467454E-01  0.30723162823E-01 -0.76618950487E-01  0.89090138366E-01  0.51100000000E-03 0. -1.
</event>
<event>
 8    1  0.1022673E+005  0.1043930E+01  0.7957747E-01            NaN
         13   -1    0    0    0    0  0.00000000000E+00  0.00000000000E+00  0.74505805969E-08  0.10566000000E+00  0.10566000000E+00 0.  1.
     999900   -1    0    0    0    0 -0.00000000000E+00 -0.00000000000E+00 -0.74505805969E-08  0.93827000000E+00  0.93827000000E+00 0. -1.
     999902    2    1    2    0    0  0.44143752395E-03  0.99702158869E-02 -0.23769266600E-01  0.10181505875E+01  0.10178241699E+01 0.  0.
     999903    2    3    3    0    0 -0.74006806949E-02  0.30881370659E-02  0.12408667564E+00  0.12575480008E+00  0.18773918280E-01 0.  0.
         14    1    1    2    0    0 -0.44143752395E-03 -0.99702158869E-02  0.23769266600E-01  0.25779412457E-01  0.00000000000E+00 0.  1.
     999901    1    3    3    0    0  0.78421182189E-02  0.68820788210E-02 -0.14785594224E+00  0.89239578746E+00  0.88000000000E+00 0. -1.
        -11    1    4    4    0    0 -0.10585112827E-01  0.61966024672E-02  0.48293111487E-01  0.49828989893E-01  0.51100000000E-03 0.  1.
         11    1    4    4    0    0  0.31844321318E-02 -0.31084654013E-02  0.75793564149E-01  0.75925810187E-01  0.51100000000E-03 0. -1.
</event>
<event>
 7    1  0.1022673E+005  0.1043930E+01  0.7957747E-01            NaN
         13   -1    0    0    0    0  0.00000000000E+00  0.00000000000E+00  0.74505805969E-08  0.10566000000E+00  0.10566000000E+00 0. -1.
     999900   -1    0    0    0    0 -0.00000000000E+00 -0.00000000000E+00 -0.74505805969E-08  0.93827000000E+00  0.93827000000E+00 0.  1.
     999903    2    1    2    0    0  0.23602788733E-01  0.62241792043E-02  0.31784423559E-01  0.43795940404E-01  0.17663600202E-01 0.  0.
         14    1    1    2    0    0 -0.39524406437E-01  0.55160248054E-01  0.86518603460E-01  0.10995590213E+00  0.00000000000E+00 0. -1.
     999901    1    1    2    0    0  0.15921617704E-01 -0.61384427258E-01 -0.11830302702E+00  0.89017815746E+00  0.88000000000E+00 0.  1.
        -11    1    3    3    0    0  0.32393307262E-02  0.14445853876E-02 -0.19651069301E-02  0.40869128621E-02  0.51100000000E-03 0.  1.
         11    1    3    3    0    0  0.20363458007E-01  0.47795938167E-02  0.33749530489E-01  0.39709027542E-01  0.51100000000E-03 0. -1.
</event>
<event>
 8    1  0.1022673E+005  0.1043930E+01  0.7957747E-01            NaN
         13   -1    0    0    0    0  0.00000000000E+00  0.00000000000E+00  0.74505805969E-08  0.10566000000E+00  0.10566000000E+00 0. -1.
     999900   -1    0    0    0    0 -0.00000000000E+00 -0.00000000000E+00 -0.74505805969E-08  0.93827000000E+00  0.93827000000E+00 0.  1.
     999902    2    1    2    0    0  0.22416017292E-01  0.77985807558E-02  0.25495437499E-02  0.10200596027E+01  0.10197802691E+01 0.  0.
     999903    2    3    3    0    0  0.37409260399E-01 -0.10377405098E+00  0.66924971405E-01  0.13055555822E+00  0.19932274416E-01 0.  0.
         14    1    1    2    0    0 -0.22416017292E-01 -0.77985807558E-02 -0.25495437499E-02  0.23870397281E-01  0.00000000000E+00 0. -1.
     999901    1    3    3    0    0 -0.14993243107E-01  0.11157263174E+00 -0.64375427655E-01  0.88950404450E+00  0.88000000000E+00 0.  1.
        -11    1    4    4    0    0  0.13620461657E-01 -0.60805436623E-01  0.44434593919E-01  0.76534386758E-01  0.51100000000E-03 0. -1.
         11    1    4    4    0    0  0.23788798742E-01 -0.42968614361E-01  0.22490377486E-01  0.54021171463E-01  0.51100000000E-03 0.  1.
</event>
<event>
 8    1  0.1022673E+005  0.1043930E+01  0.7957747E-01            NaN
         13   -1    0    0    0    0  0.00000000000E+00  0.00000000000E+00  0.74505805969E-08  0.10566000000E+00  0.10566000000E+00 0.  1.
     999900   -1    0    0    0    0 -0.00000000000E+00 -0.00000000000E+00 -0.74505805969E-08  0.93827000000E+00  0.93827000000E+00 0.  1.
     999902    2    1    2    0    0 -0.74499996709E-02 -0.15188997979E-01 -0.13833021213E-01  0.10220768393E+01  0.10218431900E+01 0.  0.
     999903    2    3    3    0    0 -0.11216922764E+00  0.17766313670E-02  0.66861950272E-01  0.13203997061E+00  0.19466417129E-01 0.  0.
         14    1    1    2    0    0  0.74499996709E-02  0.15188997979E-01  0.13833021213E-01  0.21853160654E-01  0.00000000000E+00 0.  1.
     999901    1    3    3    0    0  0.10471922797E+00 -0.16965629346E-01 -0.80694971484E-01  0.89003686874E+00  0.88000000000E+00 0.  1.
        -11    1    4    4    0    0 -0.54481943134E-01 -0.60471883117E-02  0.40360980512E-01  0.68074374643E-01  0.51100000000E-03 0. -1.
         11    1    4    4    0    0 -0.57687284508E-01  0.78238196787E-02  0.26500969760E-01  0.63965595967E-01  0.51100000000E-03 0.  1.
</event>
<event>
 8    1  0.1022673E+005  0.1043930E+01  0.7957747E-01            NaN
         13   -1    0    0    0    0  0.00000000000E+00  0.00000000000E+00  0.74505805969E-08  0.10566000000E+00  0.10566000000E+00 0. -1.
     999900   -1    0    0    0    0 -0.00000000000E+00 -0.00000000000E+00 -0.74505805969E-08  0.93827000000E+00  0.93827000000E+00 0.  1.
     999902    2    1    2    0    0  0.15093278877E-01 -0.73385461227E-02 -0.16490801087E-01  0.10204011274E+01  0.10201298216E+01 0.  0.
     999903    2    3    3    0    0  0.12162673220E+00 -0.45505765068E-01  0.16465641196E-01  0.13254289524E+00  0.20800603361E-01 0.  0.
         14    1    1    2    0    0 -0.15093278877E-01  0.73385461227E-02  0.16490801087E-01  0.23528872624E-01  0.00000000000E+00 0. -1.
     999901    1    3    3    0    0 -0.10653345332E+00  0.38167218945E-01 -0.32956442282E-01  0.88785823213E+00  0.88000000000E+00 0.  1.
        -11    1    4    4    0    0  0.39231047351E-01 -0.17214253587E-01 -0.40660809761E-02  0.43037190176E-01  0.51100000000E-03 0.  1.
         11    1    4    4    0    0  0.82395684846E-01 -0.28291511481E-01  0.20531722172E-01  0.89505705067E-01  0.51100000000E-03 0. -1.
</event>
<event>
 8    1  0.1022673E+005  0.1043930E+01  0.7957747E-01            NaN
         13   -1    0    0    0    0  0.00000000000E+00  0.00000000000E+00  0.74505805969E-08  0.10566000000E+00  0.10566000000E+00 0.  1.
     999900   -1    0    0    0    0 -0.00000000000E+00 -0.00000000000E+00 -0.74505805969E-08  0.93827000000E+00  0.93827000000E+00 0.  1.
     999902    2    1    2    0    0 -0.79318517469E-02  0.11224822039E-01  0.19026872282E-01  0.10204580429E+01  0.10201880633E+01 0.  0.
     999903    2    3    3    0    0 -0.52890863317E-01  0.10867506999E+00 -0.47731475958E-01  0.13142793057E+00  0.19679758045E-01 0.  0.
         14    1    1    2    0    0  0.79318517469E-02 -0.11224822039E-01 -0.19026872282E-01  0.23471957114E-01  0.00000000000E+00 0. -1.
     999901    1    3    3    0    0  0.44959011571E-01 -0.97450247951E-01  0.66758348240E-01  0.88903011232E+00  0.88000000000E+00 0. -1.
        -11    1    4    4    0    0 -0.88849682815E-02  0.36985871135E-01 -0.19115224830E-01  0.42574056258E-01  0.51100000000E-03 0. -1.
         11    1    4    4    0    0 -0.44005895036E-01  0.71689198854E-01 -0.28616251128E-01  0.88853874310E-01  0.51100000000E-03 0.  1.
</event>
<event>
 8    1  0.1022673E+005  0.1043930E+01  0.7957747E-01            NaN
         13   -1    0    0    0    0  0.00000000000E+00  0.00000000000E+00  0.74505805969E-08  0.10566000000E+00  0.10566000000E+00 0. -1.
     999900   -1    0    0    0    0 -0.00000000000E+00 -0.00000000000E+00 -0.74505805969E-08  0.93827000000E+00  0.93827000000E+00 0.  1.
     999902    2    1    2    0    0  0.66445005298E-02 -0.51077179075E-02 -0.19290236299E-01  0.10228978488E+01  0.10226816013E+01 0.  0.
     999903    2    3    3    0    0  0.74355163910E-03  0.10800145800E+00 -0.76084601792E-01  0.13382298868E+00  0.21327397136E-01 0.  0.
         14    1    1    2    0    0 -0.66445005298E-02  0.51077179075E-02  0.19290236299E-01  0.21032151245E-01  0.00000000000E+00 0. -1.
     999901    1    3    3    0    0  0.59009488907E-02 -0.11310917591E+00  0.56794365493E-01  0.88907486008E+00  0.88000000000E+00 0. -1.
        -11    1    4    4    0    0  0.17537203057E-02  0.75902772727E-01 -0.64678934743E-01  0.99739321048E-01  0.51100000000E-03 0.  1.
         11    1    4    4    0    0 -0.10101686666E-02  0.32098685276E-01 -0.11405667049E-01  0.34083667628E-01  0.51100000000E-03 0. -1.
</event>
<event>
 8    1  0.1124063E+005  0.1043930E+01  0.7957747E-01            NaN
         13   -1    0    0    0    0  0.00000000000E+00  0.00000000000E+00  0.74505805969E-08  0.10566000000E+00  0.10566000000E+00 0.  1.
     999900   -1    0    0    0    0 -0.00000000000E+00 -0.00000000000E+00 -0.74505805969E-08  0.93827000000E+00  0.93827000000E+00 0.  1.
     999902    2    1    2    0    0  0.22616817743E-01  0.22661238925E-02 -0.43797565484E-02  0.10207818245E+01  0.10205193262E+01 0.  0.
     999903    2    3    3    0    0  0.94331388532E-01  0.69952992390E-01  0.58882080573E-01  0.13301690523E+00  0.20846238422E-01 0.  0.
         14    1    1    2    0    0 -0.22616817743E-01 -0.22661238925E-02  0.43797565484E-02  0.23148175516E-01  0.00000000000E+00 0.  1.
     999901    1    3    3    0    0 -0.71714570789E-01 -0.67686868497E-01 -0.63261837122E-01  0.88776491926E+00  0.88000000000E+00 0. -1.
        -11    1    4    4    0    0  0.41421683510E-01  0.31872932809E-01  0.37794803437E-01  0.64500759673E-01  0.51100000000E-03 0. -1.
         11    1    4    4    0    0  0.52909705022E-01  0.38080059581E-01  0.21087277137E-01  0.68516145552E-01  0.51100000000E-03 0.  1.
</event>
<event>
 8    1  0.1022673E+005  0.1043930E+01  0.7957747E-01            NaN
         13   -1    0    0    0    0  0.00000000000E+00  0.00000000000E+00  0.74505805969E-08  0.10566000000E+00  0.10566000000E+00 0. -1.
     999900   -1    0    0    0    0 -0.00000000000E+00 -0.00000000000E+00 -0.74505805969E-08  0.93827000000E+00  0.93827000000E+00 0.  1.
     999902    2    1    2    0    0 -0.15267871279E-01  0.41867703517E-02  0.17549180788E-01  0.10202950537E+01  0.10200212674E+01 0.  0.
     999903    2    3    3    0    0  0.87109582426E-01  0.34683336851E-01 -0.84774251323E-01  0.12794911836E+00  0.19831540434E-01 0.  0.
         14    1    1    2    0    0  0.15267871279E-01 -0.41867703517E-02 -0.17549180788E-01  0.23634946280E-01  0.00000000000E+00 0. -1.
     999901    1    3    3    0    0 -0.10237745370E+00 -0.30496566499E-01  0.10232343211E+00  0.89234593536E+00  0.88000000000E+00 0. -1.
        -11    1    4    4    0    0  0.21036021813E-01  0.65224471813E-02 -0.31866878221E-01  0.38740361117E-01  0.51100000000E-03 0.  1.
         11    1    4    4    0    0  0.66073560613E-01  0.28160889669E-01 -0.52907373102E-01  0.89208757242E-01  0.51100000000E-03 0. -1.
</event>
<event>
 8    1  0.1022673E+005  0.1043930E+01  0.7957747E-01            NaN
         13   -1    0    0    0    0  0.00000000000E+00  0.00000000000E+00  0.74505805969E-08  0.10566000000E+00  0.10566000000E+00 0.  1.
     999900   -1    0    0    0    0 -0.00000000000E+00 -0.00000000000E+00 -0.74505805969E-08  0.93827000000E+00  0.93827000000E+00 0.  1.
     999902    2    1    2    0    0 -0.13244432267E-01 -0.70442897621E-02  0.18458114393E-01  0.10201447316E+01  0.10198674102E+01 0.  0.
     999903    2    3    3    0    0  0.36064588470E-01 -0.24829736053E-01 -0.11850039248E+00  0.12800946486E+00  0.20661794244E-01 0.  0.
         14    1    1    2    0    0  0.13244432267E-01  0.70442897621E-02 -0.18458114393E-01  0.23785268367E-01  0.00000000000E+00 0.  1.
     999901    1    3    3    0    0 -0.49309020737E-01  0.17785446291E-01  0.13695850687E+00  0.89213526678E+00  0.88000000000E+00 0. -1.
        -11    1    4    4    0    0  0.98047844522E-02  0.28640290032E-02 -0.26595464296E-01  0.28494145055E-01  0.51100000000E-03 0. -1.
         11    1    4    4    0    0  0.26259804018E-01 -0.27693765056E-01 -0.91904928180E-01  0.99515319800E-01  0.51100000000E-03 0.  1.
</event>
<event>
 8    1  0.1022673E+005  0.1043930E+01  0.7957747E-01            NaN
         13   -1    0    0    0    0  0.00000000000E+00  0.00000000000E+00  0.74505805969E-08  0.10566000000E+00  0.10566000000E+00 0. -1.
     999900   -1    0    0    0    0 -0.00000000000E+00 -0.00000000000E+00 -0.74505805969E-08  0.93827000000E+00  0.93827000000E+00 0.  1.
     999902    2    1    2    0    0  0.44885605220E-02 -0.21480597052E-01 -0.78132272048E-02  0.10206360148E+01  0.10203701608E+01 0.  0.
     999903    2    3    3    0    0 -0.89368512672E-01  0.26857247194E-01  0.87278579278E-01  0.12923927431E+00  0.19421556023E-01 0.  0.
         14    1    1    2    0    0 -0.44885605220E-02  0.21480597052E-01  0.78132272048E-02  0.23293985160E-01  0.00000000000E+00 0.  1.
     999901    1    3    3    0    0  0.93857073194E-01 -0.48337844246E-01 -0.95091806483E-01  0.89139674053E+00  0.88000000000E+00 0. -1.
        -11    1    4    4    0    0 -0.42553501991E-01  0.46785354838E-02  0.31780492922E-01  0.53319321801E-01  0.51100000000E-03 0. -1.
         11    1    4    4    0    0 -0.46815010681E-01  0.22178711710E-01  0.55498086356E-01  0.75919952505E-01  0.51100000000E-03 0.  1.
</event>
<event>
 8    1  0.1022673E+005  0.1043930E+01  0.7957747E-01            NaN
         13   -1    0    0    0    0  0.00000000000E+00  0.00000000000E+00  0.74505805969E-08  0.10566000000E+00  0.10566000000E+00 0.  1.
     999900   -1    0    0    0    0 -0.00000000000E+00 -0.00000000000E+00 -0.74505805969E-08  0.93827000000E+00  0.93827000000E+00 0. -1.
     999902    2    1    2    0    0 -0.32567163620E-02 -0.10572931240E-01  0.23028265330E-01  0.10183821218E+01  0.10180616150E+01 0.  0.
     999903    2    3    3    0    0  0.10435029664E+00 -0.52956026139E-01  0.53735130018E-01  0.13028386850E+00  0.19826675921E-01 0.  0.
         14    1    1    2    0    0  0.32567163620E-02  0.10572931240E-01 -0.23028265330E-01  0.25547878201E-01  0.00000000000E+00 0. -1.
     999901    1    3    3    0    0 -0.10760701301E+00  0.42383094900E-01 -0.30706864688E-01  0.88809825330E+00  0.88000000000E+00 0.  1.
        -11    1    4    4    0    0  0.28769523433E-01 -0.21037067744E-01  0.24203429307E-01  0.43084925543E-01  0.51100000000E-03 0. -1.
         11    1    4    4    0    0  0.75580773211E-01 -0.31918958395E-01  0.29531700711E-01  0.87198942953E-01  0.51100000000E-03 0.  1.
</event>
<event>
 8    1  0.1022673E+005  0.1043930E+01  0.7957747E-01            NaN
         13   -1    0    0    0    0  0.00000000000E+00  0.00000000000E+00  0.74505805969E-08  0.10566000000E+00  0.10566000000E+00 0.  1.
     999900   -1    0    0    0    0 -0.00000000000E+00 -0.00000000000E+00 -0.74505805969E-08  0.93827000000E+00  0.93827000000E+00 0. -1.
     999902    2    1    2    0    0 -0.18827479689E-01  0.55821604286E-02  0.12611911871E-01  0.10205913019E+01  0.10203244145E+01 0.  0.
     999903    2    3    3    0    0  0.62204893611E-01 -0.95260195747E-01 -0.56462199706E-01  0.12845529256E+00  0.19204908453E-01 0.  0.
         14    1    1    2    0    0  0.18827479689E-01 -0.55821604286E-02 -0.12611911871E-01  0.23338698069E-01  0.00000000000E+00 0. -1.
     999901    1    3    3    0    0 -0.81032373301E-01  0.10084235618E+00  0.69074111577E-01  0.89213600937E+00  0.88000000000E+00 0.  1.
        -11    1    4    4    0    0  0.34474400361E-01 -0.62765996701E-01 -0.43595382570E-01  0.83838375012E-01  0.51100000000E-03 0.  1.
         11    1    4    4    0    0  0.27730493250E-01 -0.32494199046E-01 -0.12866817136E-01  0.44616917551E-01  0.51100000000E-03 0. -1.
</event>
<event>
 8    1  0.1022673E+005  0.1043930E+01  0.7957747E-01            NaN
         13   -1    0    0    0    0  0.00000000000E+00  0.00000000000E+00  0.74505805969E-08  0.10566000000E+00  0.10566000000E+00 0. -1.
     999900   -1    0    0    0    0 -0.00000000000E+00 -0.00000000000E+00 -0.74505805969E-08  0.93827000000E+00  0.93827000000E+00 0.  1.
     999902    2    1    2    0    0 -0.18563072903E-01  0.53053755035E-02  0.12595730592E-01  0.10208781646E+01  0.10206178716E+01 0.  0.
     999903    2    3    3    0    0 -0.89110514561E-01  0.50809813348E-01 -0.79722969535E-01  0.13207540936E+00  0.23787411529E-01 0.  0.
         14    1    1    2    0    0  0.18563072903E-01 -0.53053755035E-02 -0.12595730592E-01  0.23051835371E-01  0.00000000000E+00 0.  1.
     999901    1    3    3    0    0  0.70547441658E-01 -0.45504437844E-01  0.92318700127E-01  0.88880275527E+00  0.88000000000E+00 0. -1.
        -11    1    4    4    0    0 -0.76174847849E-01  0.41215905360E-01 -0.55113913780E-01  0.10266042525E+00  0.51100000000E-03 0.  1.
         11    1    4    4    0    0 -0.12935666712E-01  0.95939079881E-02 -0.24609055755E-01  0.29414984106E-01  0.51100000000E-03 0. -1.
</event>
<event>
 8    1  0.1022673E+005  0.1043930E+01  0.7957747E-01            NaN
         13   -1    0    0    0    0  0.00000000000E+00  0.00000000000E+00  0.74505805969E-08  0.10566000000E+00  0.10566000000E+00 0.  1.
     999900   -1    0    0    0    0 -0.00000000000E+00 -0.00000000000E+00 -0.74505805969E-08  0.93827000000E+00  0.93827000000E+00 0.  1.
     999902    2    1    2    0    0  0.58678690695E-02  0.48750225434E-02  0.22215820086E-01  0.10204408452E+01  0.10201704652E+01 0.  0.
     999903    2    3    3    0    0  0.79087134243E-01 -0.93555145046E-01 -0.37978006677E-01  0.12989446488E+00  0.20564606660E-01 0.  0.
         14    1    1    2    0    0 -0.58678690695E-02 -0.48750225434E-02 -0.22215820086E-01  0.23489154823E-01  0.00000000000E+00 0. -1.
     999901    1    3    3    0    0 -0.73219265174E-01  0.98430167589E-01  0.60193826764E-01  0.89054638030E+00  0.88000000000E+00 0.  1.
        -11    1    4    4    0    0  0.30779668603E-01 -0.51579090838E-01 -0.15172516311E-01  0.61953668037E-01  0.51100000000E-03 0. -1.
         11    1    4    4    0    0  0.48307465640E-01 -0.41976054208E-01 -0.22805490366E-01  0.67940796840E-01  0.51100000000E-03 0.  1.
</event>
<event>
 8    1  0.1022673E+005  0.1043930E+01  0.7957747E-01            NaN
         13   -1    0    0    0    0  0.00000000000E+00  0.00000000000E+00  0.74505805969E-08  0.10566000000E+00  0.10566000000E+00 0. -1.
     999900   -1    0    0    0    0 -0.00000000000E+00 -0.00000000000E+00 -0.74505805969E-08  0.93827000000E+00  0.93827000000E+00 0. -1.
     999902    2    1    2    0    0  0.83422798476E-02  0.93402483840E-02  0.20311700373E-01  0.10200679162E+01  0.10197887794E+01 0.  0.
     999903    2    3    3    0    0 -0.44952711305E-01  0.12110429045E+00  0.12930740700E-01  0.13136884688E+00  0.20089162669E-01 0.  0.
         14    1    1    2    0    0 -0.83422798476E-02 -0.93402483840E-02 -0.20311700373E-01  0.23862083835E-01  0.00000000000E+00 0.  1.
     999901    1    3    3    0    0  0.53294991153E-01 -0.11176404207E+00  0.73809596729E-02  0.88869906928E+00  0.88000000000E+00 0.  1.
        -11    1    4    4    0    0 -0.10934813274E-01  0.58152239618E-01  0.57862426498E-02  0.59455822582E-01  0.51100000000E-03 0. -1.
         11    1    4    4    0    0 -0.34017898031E-01  0.62952050831E-01  0.71444980503E-02  0.71913024298E-01  0.51100000000E-03 0.  1.
</event>
<event>
 8    1  0.1022673E+005  0.1043930E+01  0.7957747E-01            NaN
         13   -1    0    0    0    0  0.00000000000E+00  0.00000000000E+00  0.74505805969E-08  0.10566000000E+00  0.10566000000E+00 0.  1.
     999900   -1    0    0    0    0 -0.00000000000E+00 -0.00000000000E+00 -0.74505805969E-08  0.93827000000E+00  0.93827000000E+00 0.  1.
     999902    2    1    2    0    0 -0.46509364949E-02  0.18390222813E-01 -0.14452407751E-01  0.10200824929E+01  0.10198037011E+01 0.  0.
     999903    2    3    3    0    0 -0.32452019419E-01 -0.35738774713E-01  0.11704023005E+00  0.12823432062E+00  0.20377241096E-01 0.  0.
         14    1    1    2    0    0  0.46509364949E-02 -0.18390222813E-01  0.14452407751E-01  0.23847507106E-01  0.00000000000E+00 0. -1.
     999901    1    3    3    0    0  0.27801082924E-01  0.54128997526E-01 -0.13149263780E+00  0.89184817227E+00  0.88000000000E+00 0.  1.
        -11    1    4    4    0    0 -0.33730950988E-01 -0.26122977415E-01  0.96619377496E-01  0.10562079451E+00  0.51100000000E-03 0. -1.
         11    1    4    4    0    0  0.12789315688E-02 -0.96157972987E-02  0.20420852549E-01  0.22613526118E-01  0.51100000000E-03 0.  1.
</event>
<event>
 8    1  0.1022673E+005  0.1043930E+01  0.7957747E-01            NaN
         13   -1    0    0    0    0  0.00000000000E+00  0.00000000000E+00  0.74505805969E-08  0.10566000000E+00  0.10566000000E+00 0.  1.
     999900   -1    0    0    0    0 -0.00000000000E+00 -0.00000000000E+00 -0.74505805969E-08  0.93827000000E+00  0.93827000000E+00 0. -1.
     999902    2    1    2    0    0 -0.43292988814E-02  0.70063207874E-04  0.23511879409E-01  0.10200227582E+01  0.10197425513E+01 0.  0.
     999903    2    3    3    0    0 -0.47058842669E-01  0.11972994687E+00  0.12780174442E-01  0.13083241233E+00  0.20099562373E-01 0.  0.
         14    1    1    2    0    0  0.43292988814E-02 -0.70063207874E-04 -0.23511879409E-01  0.23907241811E-01  0.00000000000E+00 0. -1.
     999901    1    3    3    0    0  0.42729543788E-01 -0.11965988366E+00  0.10731704967E-01  0.88919034586E+00  0.88000000000E+00 0.  1.
        -11    1    4    4    0    0 -0.33743286211E-01  0.88586207974E-01  0.49224080208E-03  0.94797832410E-01  0.51100000000E-03 0.  1.
         11    1    4    4    0    0 -0.13315556458E-01  0.31143738896E-01  0.12287933640E-01  0.36034579924E-01  0.51100000000E-03 0. -1.
</event>
<event>
 8    1  0.1022673E+005  0.1043930E+01  0.7957747E-01            NaN
         13   -1    0    0    0    0  0.00000000000E+00  0.00000000000E+00  0.74505805969E-08  0.10566000000E+00  0.10566000000E+00 0. -1.
     999900   -1    0    0    0    0 -0.00000000000E+00 -0.00000000000E+00 -0.74505805969E-08  0.93827000000E+00  0.93827000000E+00 0. -1.
     999902    2    1    2    0    0  0.20475442942E-01  0.67154185943E-02 -0.90475557112E-02  0.10205591020E+01  0.10202914690E+01 0.  0.
     999903    2    3    3    0    0  0.11625380496E+00  0.32462447951E-01 -0.54335894371E-01  0.13383059911E+00  0.19735302048E-01 0.  0.
         14    1    1    2    0    0 -0.20475442942E-01 -0.67154185943E-02  0.90475557112E-02  0.23370898034E-01  0.00000000000E+00 0.  1.
     999901    1    3    3    0    0 -0.95778362020E-01 -0.25747029357E-01  0.45288338659E-01  0.88672850285E+00  0.88000000000E+00 0.  1.
        -11    1    4    4    0    0  0.67336179666E-02  0.47279194483E-02 -0.86943963309E-02  0.11981171971E-01  0.51100000000E-03 0. -1.
         11    1    4    4    0    0  0.10952018700E+00  0.27734528503E-01 -0.45641498040E-01  0.12184942714E+00  0.51100000000E-03 0.  1.
</event>
<event>
 8    1  0.1022673E+005  0.1043930E+01  0.7957747E-01            NaN
         13   -1    0    0    0    0  0.00000000000E+00  0.00000000000E+00  0.74505805969E-08  0.10566000000E+00  0.10566000000E+00 0. -1.
     999900   -1    0    0    0    0 -0.00000000000E+00 -0.00000000000E+00 -0.74505805969E-08  0.93827000000E+00  0.93827000000E+00 0. -1.
     999902    2    1    2    0    0 -0.95336737253E-02  0.16514309132E-01  0.23007708119E-01  0.10140474303E+01  0.10136070357E+01 0.  0.
     999903    2    3    3    0    0 -0.11217522698E+00  0.10871463505E-01  0.55313073666E-01  0.12747494772E+00  0.22110086191E-01 0.  0.
         14    1    1    2    0    0  0.95336737253E-02 -0.16514309132E-01 -0.23007708119E-01  0.29882569731E-01  0.00000000000E+00 0.  1.
     999901    1    3    3    0    0  0.10264155326E+00  0.56428456271E-02 -0.32305365546E-01  0.88657248254E+00  0.88000000000E+00 0. -1.
        -11    1    4    4    0    0 -0.56984813490E-01  0.15784195554E-02  0.16446711298E-01  0.59333934727E-01  0.51100000000E-03 0.  1.
         11    1    4    4    0    0 -0.55190413495E-01  0.92930439494E-02  0.38866362368E-01  0.68141012997E-01  0.51100000000E-03 0. -1.
</event>
<event>
 8    1  0.1022673E+005  0.1043930E+01  0.7957747E-01            NaN
         13   -1    0    0    0    0  0.00000000000E+00  0.00000000000E+00  0.74505805969E-08  0.10566000000E+00  0.10566000000E+00 0.  1.
     999900   -1    0    0    0    0 -0.00000000000E+00 -0.00000000000E+00 -0.74505805969E-08  0.93827000000E+00  0.93827000000E+00 0. -1.
     999902    2    1    2    0    0 -0.20043937989E-02  0.22791375709E-01 -0.41857177780E-02  0.10206709236E+01  0.10204058750E+01 0.  0.
     999903    2    3    3    0    0 -0.10491259042E+00 -0.64978477175E-01 -0.35113493591E-01  0.12980046651E+00  0.19655776501E-01 0.  0.
         14    1    1    2    0    0  0.20043937989E-02 -0.22791375709E-01  0.41857177780E-02  0.23259076390E-01  0.00000000000E+00 0.  1.
     999901    1    3    3    0    0  0.10290819662E+00  0.87769852884E-01  0.30927775813E-01  0.89087045709E+00  0.88000000000E+00 0. -1.
        -11    1    4    4    0    0 -0.95093373638E-01 -0.56043883182E-01 -0.25191953366E-01  0.11321908932E+00  0.51100000000E-03 0. -1.
         11    1    4    4    0    0 -0.98192167853E-02 -0.89345939929E-02 -0.99215402244E-02  0.16581377190E-01  0.51100000000E-03 0.  1.
</event>
<event>
 8    1  0.1022673E+005  0.1043930E+01  0.7957747E-01            NaN
         13   -1    0    0    0    0  0.00000000000E+00  0.00000000000E+00  0.74505805969E-08  0.10566000000E+00  0.10566000000E+00 0.  1.
     999900   -1    0    0    0    0 -0.00000000000E+00 -0.00000000000E+00 -0.74505805969E-08  0.93827000000E+00  0.93827000000E+00 0.  1.
     999902    2    1    2    0    0  0.23956535457E-01 -0.24901230712E-02 -0.10556125497E-01  0.10176326981E+01  0.10172928586E+01 0.  0.
     999903    2    3    3    0    0  0.49955856657E-01 -0.71791114500E-01 -0.94798393444E-01  0.13051638560E+00  0.19955945861E-01 0.  0.
         14    1    1    2    0    0 -0.23956535457E-01  0.24901230712E-02  0.10556125497E-01  0.26297301944E-01  0.00000000000E+00 0.  1.
     999901    1    3    3    0    0 -0.25999321200E-01  0.69300991429E-01  0.84242267947E-01  0.88711631246E+00  0.88000000000E+00 0. -1.
        -11    1    4    4    0    0  0.29102838747E-01 -0.25654362232E-01 -0.46246738166E-01  0.60366741147E-01  0.51100000000E-03 0. -1.
         11    1    4    4    0    0  0.20853017910E-01 -0.46136752268E-01 -0.48551655278E-01  0.70149644454E-01  0.51100000000E-03 0.  1.
</event>
<event>
 8    1  0.1022673E+005  0.1043930E+01  0.7957747E-01            NaN
         13   -1    0    0    0    0  0.00000000000E+00  0.00000000000E+00  0.74505805969E-08  0.10566000000E+00  0.10566000000E+00 0. -1.
     999900   -1    0    0    0    0 -0.00000000000E+00 -0.00000000000E+00 -0.74505805969E-08  0.93827000000E+00  0.93827000000E+00 0. -1.
     999902    2    1    2    0    0 -0.77273027774E-02 -0.18351246452E-01  0.93188888162E-02  0.10219454340E+01  0.10217089355E+01 0.  0.
     999903    2    3    3    0    0 -0.11064614026E+00 -0.41210144928E-01  0.60516345441E-01  0.13417519573E+00  0.19997766982E-01 0.  0.
         14    1    1    2    0    0  0.77273027774E-02  0.18351246452E-01 -0.93188888162E-02  0.21984566026E-01  0.00000000000E+00 0. -1.
     999901    1    3    3    0    0  0.10291883748E+00  0.22858898476E-01 -0.51197456625E-01  0.88777023824E+00  0.88000000000E+00 0. -1.
        -11    1    4    4    0    0 -0.40203658550E-01 -0.56379747574E-02  0.24586982138E-01  0.47464741986E-01  0.51100000000E-03 0.  1.
         11    1    4    4    0    0 -0.70442481709E-01 -0.35572170171E-01  0.35929363303E-01  0.86710453743E-01  0.51100000000E-03 0. -1.
</event>
<event>
 8    1  0.1022673E+005  0.1043930E+01  0.7957747E-01            NaN
         13   -1    0    0    0    0  0.00000000000E+00  0.00000000000E+00  0.74505805969E-08  0.10566000000E+00  0.10566000000E+00 0. -1.
     999900   -1    0    0    0    0 -0.00000000000E+00 -0.00000000000E+00 -0.74505805969E-08  0.93827000000E+00  0.93827000000E+00 0. -1.
     999902    2    1    2    0    0 -0.77674994904E-02  0.16175103565E-01 -0.10123806142E-01  0.10233275857E+01  0.10231201729E+01 0.  0.
     999903    2    3    3    0    0  0.78809053146E-01  0.37788332259E-01  0.97405489549E-01  0.13230279338E+00  0.19426137783E-01 0.  0.
         14    1    1    2    0    0  0.77674994904E-02 -0.16175103565E-01  0.10123806142E-01  0.20602414287E-01  0.00000000000E+00 0. -1.
     999901    1    3    3    0    0 -0.86576552636E-01 -0.21613228694E-01 -0.10752929569E+00  0.89102479233E+00  0.88000000000E+00 0. -1.
        -11    1    4    4    0    0  0.12676859391E-01  0.70142090104E-02  0.68820390459E-02  0.16047600272E-01  0.51100000000E-03 0. -1.
         11    1    4    4    0    0  0.66132193755E-01  0.30774123248E-01  0.90523450503E-01  0.11625519311E+00  0.51100000000E-03 0.  1.
</event>
<event>
 8    1  0.1022673E+005  0.1043930E+01  0.7957747E-01            NaN
         13   -1    0    0    0    0  0.00000000000E+00  0.00000000000E+00  0.74505805969E-08  0.10566000000E+00  0.10566000000E+00 0. -1.
     999900   -1    0    0    0    0 -0.00000000000E+00 -0.00000000000E+00 -0.74505805969E-08  0.93827000000E+00  0.93827000000E+00 0. -1.
     999902    2    1    2    0    0  0.19401817031E-01 -0.12094376270E-01 -0.54382612091E-02  0.10204293803E+01  0.10201587333E+01 0.  0.
     999903    2    3    3    0    0 -0.98794749247E-01  0.67746348667E-01 -0.40921734433E-01  0.12823879163E+00  0.20509244077E-01 0.  0.
         14    1    1    2    0    0 -0.19401817031E-01  0.12094376270E-01  0.54382612091E-02  0.23500619703E-01  0.00000000000E+00 0.  1.
     999901    1    3    3    0    0  0.11819656628E+00 -0.79840724937E-01  0.35483473224E-01  0.89219058867E+00  0.88000000000E+00 0.  1.
        -11    1    4    4    0    0 -0.62461613064E-01  0.50579576116E-01 -0.19532731742E-01  0.82713574200E-01  0.51100000000E-03 0.  1.
         11    1    4    4    0    0 -0.36333136183E-01  0.17166772551E-01 -0.21389002691E-01  0.45525217427E-01  0.51100000000E-03 0. -1.
</event>
<event>
 8    1  0.1022673E+005  0.1043930E+01  0.7957747E-01            NaN
         13   -1    0    0    0    0  0.00000000000E+00  0.00000000000E+00  0.74505805969E-08  0.10566000000E+00  0.10566000000E+00 0.  1.
     999900   -1    0    0    0    0 -0.00000000000E+00 -0.00000000000E+00 -0.74505805969E-08  0.93827000000E+00  0.93827000000E+00 0. -1.
     999902    2    1    2    0    0 -0.15087231842E-01  0.11089334429E-01  0.14273447842E-01  0.10203858029E+01  0.10201141395E+01 0.  0.
     999903    2    3    3    0    0 -0.17775606899E-01  0.12907017159E+00 -0.10503653567E-01  0.13216251453E+00  0.19532591058E-01 0.  0.
         14    1    1    2    0    0  0.15087231842E-01 -0.11089334429E-01 -0.14273447842E-01  0.23544197078E-01  0.00000000000E+00 0. -1.
     999901    1    3    3    0    0  0.26883750576E-02 -0.11798083716E+00  0.24777101409E-01  0.88822328840E+00  0.88000000000E+00 0.  1.
        -11    1    4    4    0    0  0.12610697529E-02  0.27740212052E-01 -0.84779433894E-02  0.29038703599E-01  0.51100000000E-03 0. -1.
         11    1    4    4    0    0 -0.19036676652E-01  0.10132995953E+00 -0.20257101773E-02  0.10312381093E+00  0.51100000000E-03 0.  1.
</event>
<event>
 8    1  0.1022673E+005  0.1043930E+01  0.7957747E-01            NaN
         13   -1    0    0    0    0  0.00000000000E+00  0.00000000000E+00  0.74505805969E-08  0.10566000000E+00  0.10566000000E+00 0.  1.
     999900   -1    0    0    0    0 -0.00000000000E+00 -0.00000000000E+00 -0.74505805969E-08  0.93827000000E+00  0.93827000000E+00 0.  1.
     999902    2    1    2    0    0  0.10168984377E-01  0.16906303652E-01  0.12697371043E-01  0.10204682316E+01  0.10201984891E+01 0.  0.
     999903    2    3    3    0    0  0.10820496190E+00 -0.47943544603E-02 -0.70684449646E-01  0.13084218683E+00  0.19801182251E-01 0.  0.
         14    1    1    2    0    0 -0.10168984377E-01 -0.16906303652E-01 -0.12697371043E-01  0.23461768429E-01  0.00000000000E+00 0. -1.
     999901    1    3    3    0    0 -0.98035977527E-01  0.21700658112E-01  0.83381820689E-01  0.88962604474E+00  0.88000000000E+00 0. -1.
        -11    1    4    4    0    0  0.10653005928E-03 -0.14958420552E-02  0.99589021213E-04  0.15874290790E-02  0.51100000000E-03 0. -1.
         11    1    4    4    0    0  0.10809843184E+00 -0.32985124051E-02 -0.70784038667E-01  0.12925475776E+00  0.51100000000E-03 0.  1.
</event>
<event>
 7    1  0.1022673E+005  0.1043930E+01  0.7957747E-01            NaN
         13   -1    0    0    0    0  0.00000000000E+00  0.00000000000E+00  0.74505805969E-08  0.10566000000E+00  0.10566000000E+00 0.  1.
     999900   -1    0    0    0    0 -0.00000000000E+00 -0.00000000000E+00 -0.74505805969E-08  0.93827000000E+00  0.93827000000E+00 0. -1.
     999903    2    1    2    0    0 -0.62214033044E-01  0.15684443041E-02  0.25012312487E-01  0.70123194984E-01  0.20459735423E-01 0.  0.
         14    1    1    2    0    0 -0.44770810250E-01  0.52297510277E-01  0.46094650418E-01  0.82850297699E-01  0.00000000000E+00 0.  1.
     999901    1    1    2    0    0  0.10698484329E+00 -0.53865954581E-01 -0.71106962905E-01  0.89095650732E+00  0.88000000000E+00 0. -1.
        -11    1    3    3    0    0 -0.35312378796E-01  0.70994681012E-02  0.55252980292E-02  0.36443882653E-01  0.51100000000E-03 0. -1.
         11    1    3    3    0    0 -0.26901654249E-01 -0.55310237971E-02  0.19487014458E-01  0.33679312330E-01  0.51100000000E-03 0.  1.
</event>
<event>
 8    1  0.1022673E+005  0.1043930E+01  0.7957747E-01            NaN
         13   -1    0    0    0    0  0.00000000000E+00  0.00000000000E+00  0.74505805969E-08  0.10566000000E+00  0.10566000000E+00 0. -1.
     999900   -1    0    0    0    0 -0.00000000000E+00 -0.00000000000E+00 -0.74505805969E-08  0.93827000000E+00  0.93827000000E+00 0. -1.
     999902    2    1    2    0    0  0.24735560150E-01  0.38766491659E-02  0.45194340680E-02  0.10184878769E+01  0.10181700515E+01 0.  0.
     999903    2    3    3    0    0 -0.96834263964E-01 -0.48028503247E-01  0.62898859922E-01  0.12670229483E+00  0.20336989313E-01 0.  0.
         14    1    1    2    0    0 -0.24735560150E-01 -0.38766491659E-02 -0.45194340680E-02  0.25442123123E-01  0.00000000000E+00 0. -1.
     999901    1    3    3    0    0  0.12156982411E+00  0.51905152413E-01 -0.58379425854E-01  0.89178558205E+00  0.88000000000E+00 0. -1.
        -11    1    4    4    0    0 -0.62711592257E-01 -0.20502548931E-01  0.41149857293E-01  0.77760338170E-01  0.51100000000E-03 0.  1.
         11    1    4    4    0    0 -0.34122671708E-01 -0.27525954316E-01  0.21749002629E-01  0.48941956661E-01  0.51100000000E-03 0. -1.
</event>
<event>
 8    1  0.1022673E+005  0.1043930E+01  0.7957747E-01            NaN
         13   -1    0    0    0    0  0.00000000000E+00  0.00000000000E+00  0.74505805969E-08  0.10566000000E+00  0.10566000000E+00 0. -1.
     999900   -1    0    0    0    0 -0.00000000000E+00 -0.00000000000E+00 -0.74505805969E-08  0.93827000000E+00  0.93827000000E+00 0.  1.
     999902    2    1    2    0    0 -0.21540388590E-01 -0.45352716459E-02  0.67659764201E-02  0.10209009864E+01  0.10206412144E+01 0.  0.
     999903    2    3    3    0    0  0.22135195509E-01 -0.12732805041E+00 -0.90359916645E-02  0.13116207789E+00  0.20480288767E-01 0.  0.
         14    1    1    2    0    0  0.21540388590E-01  0.45352716459E-02 -0.67659764201E-02  0.23029013579E-01  0.00000000000E+00 0.  1.
     999901    1    3    3    0    0 -0.43675584099E-01  0.12279277877E+00  0.15801968085E-01  0.88973890853E+00  0.88000000000E+00 0. -1.
        -11    1    4    4    0    0  0.10711010890E-01 -0.64905608949E-01 -0.14831781742E-01  0.67436686588E-01  0.51100000000E-03 0.  1.
         11    1    4    4    0    0  0.11424184620E-01 -0.62422441464E-01  0.57957900774E-02  0.63725391299E-01  0.51100000000E-03 0. -1.
</event>
<event>
 8    1  0.1022673E+005  0.1043930E+01  0.7957747E-01            NaN
         13   -1    0    0    0    0  0.00000000000E+00  0.00000000000E+00  0.74505805969E-08  0.10566000000E+00  0.10566000000E+00 0.  1.
     999900   -1    0    0    0    0 -0.00000000000E+00 -0.00000000000E+00 -0.74505805969E-08  0.93827000000E+00  0.93827000000E+00 0. -1.
     999902    2    1    2    0    0 -0.13707124637E-01 -0.12033783125E-01 -0.15076266274E-01  0.10202658709E+01  0.10199914001E+01 0.  0.
     999903    2    3    3    0    0 -0.58882353909E-01 -0.30103260299E-01 -0.11412256652E+00  0.13337383859E+00  0.19780868302E-01 0.  0.
         14    1    1    2    0    0  0.13707124637E-01  0.12033783125E-01  0.15076266274E-01  0.23664129117E-01  0.00000000000E+00 0.  1.
     999901    1    3    3    0    0  0.45175229273E-01  0.18069477174E-01  0.99046300242E-01  0.88689203229E+00  0.88000000000E+00 0. -1.
        -11    1    4    4    0    0 -0.34640229401E-01 -0.68412352612E-02 -0.54683128196E-01  0.65094190395E-01  0.51100000000E-03 0. -1.
         11    1    4    4    0    0 -0.24242124509E-01 -0.23262025038E-01 -0.59439438320E-01  0.68279648200E-01  0.51100000000E-03 0.  1.
</event>
<event>
 8    1  0.1022673E+005  0.1043930E+01  0.7957747E-01            NaN
         13   -1    0    0    0    0  0.00000000000E+00  0.00000000000E+00  0.74505805969E-08  0.10566000000E+00  0.10566000000E+00 0.  1.
     999900   -1    0    0    0    0 -0.00000000000E+00 -0.00000000000E+00 -0.74505805969E-08  0.93827000000E+00  0.93827000000E+00 0. -1.
     999902    2    1    2    0    0  0.14619427674E-01  0.21734256837E-02 -0.19250928387E-01  0.10196596541E+01  0.10193707670E+01 0.  0.
     999903    2    3    3    0    0 -0.96971756611E-02  0.47211995661E-01 -0.12081689099E+00  0.13234042480E+00  0.24377430892E-01 0.  0.
         14    1    1    2    0    0 -0.14619427674E-01 -0.21734256837E-02  0.19250928387E-01  0.24270345867E-01  0.00000000000E+00 0.  1.
     999901    1    3    3    0    0  0.24316603335E-01 -0.45038569977E-01  0.10156596261E+00  0.88731922933E+00  0.88000000000E+00 0.  1.
        -11    1    4    4    0    0 -0.62432189111E-02  0.89609669859E-02 -0.91655869474E-02  0.14266948405E-01  0.51100000000E-03 0. -1.
         11    1    4    4    0    0 -0.34539567500E-02  0.38251028675E-01 -0.11165130405E+00  0.11807347640E+00  0.51100000000E-03 0.  1.
</event>
<event>
 8    1  0.1022673E+005  0.1043930E+01  0.7957747E-01            NaN
         13   -1    0    0    0    0  0.00000000000E+00  0.00000000000E+00  0.74505805969E-08  0.10566000000E+00  0.10566000000E+00 0. -1.
     999900   -1    0    0    0    0 -0.00000000000E+00 -0.00000000000E+00 -0.74505805969E-08  0.93827000000E+00  0.93827000000E+00 0.  1.
     999902    2    1    2    0    0 -0.22070259757E-01  0.82249020094E-02  0.23401326188E-02  0.10202609992E+01  0.10199864141E+01 0.  0.
     999903    2    3    3    0    0  0.54730954280E-01  0.21446122251E-01  0.11337137665E+00  0.12986717380E+00  0.23600853164E-01 0.  0.
         14    1    1    2    0    0  0.22070259757E-01 -0.82249020094E-02 -0.23401326188E-02  0.23669000813E-01  0.00000000000E+00 0.  1.
     999901    1    3    3    0    0 -0.76801214037E-01 -0.13221220242E-01 -0.11103124403E+00  0.89039382539E+00  0.88000000000E+00 0.  1.
        -11    1    4    4    0    0  0.17348908511E-01  0.17642154301E-02  0.15783961748E-01  0.23526403297E-01  0.51100000000E-03 0.  1.
         11    1    4    4    0    0  0.37382045768E-01  0.19681906821E-01  0.97587414903E-01  0.10634077050E+00  0.51100000000E-03 0. -1.
</event>
<event>
 8    1  0.1076647E+005  0.1043930E+01  0.7957747E-01            NaN
         13   -1    0    0    0    0  0.00000000000E+00  0.00000000000E+00  0.74505805969E-08  0.10566000000E+00  0.10566000000E+00 0.  1.
     999900   -1    0    0    0    0 -0.00000000000E+00 -0.00000000000E+00 -0.74505805969E-08  0.93827000000E+00  0.93827000000E+00 0. -1.
     999902    2    1    2    0    0 -0.11629784251E-01  0.24554252323E-02 -0.20423308274E-01  0.10202996696E+01  0.10200259915E+01 0.  0.
     999903    2    3    3    0    0  0.52061620392E-01  0.11666733978E+00  0.12415519158E-01  0.13003041535E+00  0.20786613724E-01 0.  0.
         14    1    1    2    0    0  0.11629784251E-01 -0.24554252323E-02  0.20423308274E-01  0.23630330418E-01  0.00000000000E+00 0.  1.
     999901    1    3    3    0    0 -0.63691404643E-01 -0.11421191455E+00 -0.32838827433E-01  0.89026925424E+00  0.88000000000E+00 0.  1.
        -11    1    4    4    0    0  0.19468484071E-01  0.45170370625E-01  0.14952195508E-01  0.51412192386E-01  0.51100000000E-03 0. -1.
         11    1    4    4    0    0  0.32593136321E-01  0.71496969155E-01 -0.25366763499E-02  0.78618222961E-01  0.51100000000E-03 0.  1.
</event>
<event>
 8    1  0.1103908E+005  0.1043930E+01  0.7957747E-01            NaN
         13   -1    0    0    0    0  0.00000000000E+00  0.00000000000E+00  0.74505805969E-08  0.10566000000E+00  0.10566000000E+00 0. -1.
     999900   -1    0    0    0    0 -0.00000000000E+00 -0.00000000000E+00 -0.74505805969E-08  0.93827000000E+00  0.93827000000E+00 0. -1.
     999902    2    1    2    0    0 -0.30176950911E-02  0.96087730879E-03 -0.22419970203E-01  0.10212874552E+01  0.10210364251E+01 0.  0.
     999903    2    3    3    0    0  0.35490570806E-01  0.33209983610E-01  0.11757754769E+00  0.12880653309E+00  0.20103721511E-01 0.  0.
         14    1    1    2    0    0  0.30176950911E-02 -0.96087730879E-03  0.22419970203E-01  0.22642544750E-01  0.00000000000E+00 0. -1.
     999901    1    3    3    0    0 -0.38508265897E-01 -0.32249106301E-01 -0.13999751789E+00  0.89248092216E+00  0.88000000000E+00 0. -1.
        -11    1    4    4    0    0  0.11742554976E-01  0.12662715886E-01  0.67655310046E-01  0.69826456801E-01  0.51100000000E-03 0. -1.
         11    1    4    4    0    0  0.23748015830E-01  0.20547267724E-01  0.49922237645E-01  0.58980076291E-01  0.51100000000E-03 0.  1.
</event>
<event>
 8    1  0.1022673E+005  0.1043930E+01  0.7957747E-01            NaN
         13   -1    0    0    0    0  0.00000000000E+00  0.00000000000E+00  0.74505805969E-08  0.10566000000E+00  0.10566000000E+00 0.  1.
     999900   -1    0    0    0    0 -0.00000000000E+00 -0.00000000000E+00 -0.74505805969E-08  0.93827000000E+00  0.93827000000E+00 0. -1.
     999902    2    1    2    0    0  0.20725405005E-02  0.24248870069E-01 -0.25916603616E-02  0.10194551184E+01  0.10191612820E+01 0.  0.
     999903    2    3    3    0    0  0.64921009594E-01  0.39681025351E-01  0.10424769887E+00  0.13063414088E+00  0.20208285007E-01 0.  0.
         14    1    1    2    0    0 -0.20725405005E-02 -0.24248870069E-01  0.25916603616E-02  0.24474881556E-01  0.00000000000E+00 0. -1.
     999901    1    3    3    0    0 -0.62848469094E-01 -0.15432155281E-01 -0.10683935923E+00  0.88882097757E+00  0.88000000000E+00 0. -1.
        -11    1    4    4    0    0  0.34821130767E-01  0.32777305258E-01  0.62055069125E-01  0.78345105865E-01  0.51100000000E-03 0. -1.
         11    1    4    4    0    0  0.30099878827E-01  0.69037200929E-02  0.42192629745E-01  0.52289035011E-01  0.51100000000E-03 0.  1.
</event>
<event>
 8    1  0.1022673E+005  0.1043930E+01  0.7957747E-01            NaN
         13   -1    0    0    0    0  0.00000000000E+00  0.00000000000E+00  0.74505805969E-08  0.10566000000E+00  0.10566000000E+00 0.  1.
     999900   -1    0    0    0    0 -0.00000000000E+00 -0.00000000000E+00 -0.74505805969E-08  0.93827000000E+00  0.93827000000E+00 0.  1.
     999902    2    1    2    0    0 -0.22661783139E-01  0.60352178813E-02 -0.30162361551E-02  0.10202851707E+01  0.10200111527E+01 0.  0.
     999903    2    3    3    0    0  0.59479407085E-01  0.23786184898E-01  0.11027018666E+00  0.12905226878E+00  0.19783618246E-01 0.  0.
         14    1    1    2    0    0  0.22661783139E-01 -0.60352178813E-02  0.30162361551E-02  0.23644829254E-01  0.00000000000E+00 0.  1.
     999901    1    3    3    0    0 -0.82141190224E-01 -0.17750967016E-01 -0.11328642281E+00  0.89123290197E+00  0.88000000000E+00 0.  1.
        -11    1    4    4    0    0  0.26781479805E-01  0.16936038634E-01  0.38350027723E-01  0.49750003141E-01  0.51100000000E-03 0.  1.
         11    1    4    4    0    0  0.32697927280E-01  0.68501462634E-02  0.71920158937E-01  0.79302265634E-01  0.51100000000E-03 0. -1.
</event>
<event>
 8    1  0.1022673E+005  0.1043930E+01  0.7957747E-01            NaN
         13   -1    0    0    0    0  0.00000000000E+00  0.00000000000E+00  0.74505805969E-08  0.10566000000E+00  0.10566000000E+00 0.  1.
     999900   -1    0    0    0    0 -0.00000000000E+00 -0.00000000000E+00 -0.74505805969E-08  0.93827000000E+00  0.93827000000E+00 0.  1.
     999902    2    1    2    0    0  0.15524395530E-01 -0.17526029931E-01 -0.14700680911E-02  0.10204708934E+01  0.10202012128E+01 0.  0.
     999903    2    3    3    0    0 -0.61265212444E-01 -0.84525294161E-01  0.77706837885E-01  0.13105843131E+00  0.15492196578E-01 0.  0.
         14    1    1    2    0    0 -0.15524395530E-01  0.17526029931E-01  0.14700680911E-02  0.23459106588E-01  0.00000000000E+00 0. -1.
     999901    1    3    3    0    0  0.76789607974E-01  0.66999264230E-01 -0.79176905977E-01  0.88941246210E+00  0.88000000000E+00 0.  1.
        -11    1    4    4    0    0 -0.28148642290E-01 -0.32674231106E-01  0.23822248393E-01  0.49271818321E-01  0.51100000000E-03 0.  1.
         11    1    4    4    0    0 -0.33116570154E-01 -0.51851063055E-01  0.53884589492E-01  0.81786612991E-01  0.51100000000E-03 0. -1.
</event>
<event>
 7    1  0.1022673E+005  0.1043930E+01  0.7957747E-01            NaN
         13   -1    0    0    0    0  0.00000000000E+00  0.00000000000E+00  0.74505805969E-08  0.10566000000E+00  0.10566000000E+00 0. -1.
     999900   -1    0    0    0    0 -0.00000000000E+00 -0.00000000000E+00 -0.74505805969E-08  0.93827000000E+00  0.93827000000E+00 0.  1.
     999903    2    1    2    0    0 -0.66602918338E-01  0.55299696331E-01 -0.76853840422E-01  0.11752295848E+00  0.20276287529E-01 0.  0.
         14    1    1    2    0    0  0.31496999257E-01 -0.20415868012E-01 -0.14621696355E-01  0.40282286841E-01  0.00000000000E+00 0.  1.
     999901    1    1    2    0    0  0.35105919082E-01 -0.34883828319E-01  0.91475536777E-01  0.88612475468E+00  0.88000000000E+00 0. -1.
        -11    1    3    3    0    0 -0.49326582553E-01  0.28788698821E-01 -0.52662199127E-01  0.77688282669E-01  0.51100000000E-03 0.  1.
         11    1    3    3    0    0 -0.17276335785E-01  0.26510997509E-01 -0.24191641295E-01  0.39834675807E-01  0.51100000000E-03 0. -1.
</event>
<event>
 8    1  0.1022673E+005  0.1043930E+01  0.7957747E-01            NaN
         13   -1    0    0    0    0  0.00000000000E+00  0.00000000000E+00  0.74505805969E-08  0.10566000000E+00  0.10566000000E+00 0. -1.
     999900   -1    0    0    0    0 -0.00000000000E+00 -0.00000000000E+00 -0.74505805969E-08  0.93827000000E+00  0.93827000000E+00 0.  1.
     999902    2    1    2    0    0  0.27064681569E-02 -0.20817082792E-01 -0.10389781669E-01  0.10205072873E+01  0.10202384525E+01 0.  0.
     999903    2    3    3    0    0  0.62506105593E-02  0.59279318254E-01 -0.11463939752E+00  0.13073429560E+00  0.19903689988E-01 0.  0.
         14    1    1    2    0    0 -0.27064681569E-02  0.20817082792E-01  0.10389781669E-01  0.23422712674E-01  0.00000000000E+00 0. -1.
     999901    1    3    3    0    0 -0.35441424024E-02 -0.80096401047E-01  0.10424961586E+00  0.88977299173E+00  0.88000000000E+00 0. -1.
        -11    1    4    4    0    0 -0.70807921045E-02  0.17570872430E-01 -0.38122230249E-01  0.42572746387E-01  0.51100000000E-03 0.  1.
         11    1    4    4    0    0  0.13331402664E-01  0.41708445824E-01 -0.76517167276E-01  0.88161549209E-01  0.51100000000E-03 0. -1.
</event>
<event>
 8    1  0.1022673E+005  0.1043930E+01  0.7957747E-01            NaN
         13   -1    0    0    0    0  0.00000000000E+00  0.00000000000E+00  0.74505805969E-08  0.10566000000E+00  0.10566000000E+00 0.  1.
     999900   -1    0    0    0    0 -0.00000000000E+00 -0.00000000000E+00 -0.74505805969E-08  0.93827000000E+00  0.93827000000E+00 0. -1.
     999902    2    1    2    0    0 -0.13184863396E-01  0.96147370661E-02  0.16778872733E-01  0.10205245655E+01  0.10202561318E+01 0.  0.
     999903    2    3    3    0    0  0.11072898651E+00 -0.35249563432E-02  0.65920688287E-01  0.13038850192E+00  0.19552250973E-01 0.  0.
         14    1    1    2    0    0  0.13184863396E-01 -0.96147370661E-02 -0.16778872733E-01  0.23405434451E-01  0.00000000000E+00 0.  1.
     999901    1    3    3    0    0 -0.12391384990E+00  0.13139693409E-01 -0.49141815554E-01  0.89013606363E+00  0.88000000000E+00 0.  1.
        -11    1    4    4    0    0  0.26089817380E-01 -0.76084415062E-02  0.21847456321E-01  0.34873190588E-01  0.51100000000E-03 0.  1.
         11    1    4    4    0    0  0.84639169127E-01  0.40834851630E-02  0.44073231966E-01  0.95515311331E-01  0.51100000000E-03 0. -1.
</event>
<event>
 8    1  0.1022673E+005  0.1043930E+01  0.7957747E-01            NaN
         13   -1    0    0    0    0  0.00000000000E+00  0.00000000000E+00  0.74505805969E-08  0.10566000000E+00  0.10566000000E+00 0.  1.
     999900   -1    0    0    0    0 -0.00000000000E+00 -0.00000000000E+00 -0.74505805969E-08  0.93827000000E+00  0.93827000000E+00 0.  1.
     999902    2    1    2    0    0 -0.20493032259E-01 -0.70087817256E-02  0.96266255295E-02  0.10202285378E+01  0.10199531901E+01 0.  0.
     999903    2    3    3    0    0 -0.54685913940E-02  0.73375650783E-01 -0.10440322279E+00  0.12911115094E+00  0.18861727060E-01 0.  0.
         14    1    1    2    0    0  0.20493032259E-01  0.70087817256E-02 -0.96266255295E-02  0.23701462223E-01  0.00000000000E+00 0. -1.
     999901    1    3    3    0    0 -0.15024440865E-01 -0.80384432509E-01  0.11402984832E+00  0.89111738684E+00  0.88000000000E+00 0. -1.
        -11    1    4    4    0    0 -0.20160845505E-03  0.19545940090E-01 -0.15102736458E-01  0.24707047365E-01  0.51100000000E-03 0. -1.
         11    1    4    4    0    0 -0.52669829389E-02  0.53829710694E-01 -0.89300486336E-01  0.10440410358E+00  0.51100000000E-03 0.  1.
</event>
<event>
 8    1  0.1022673E+005  0.1043930E+01  0.7957747E-01            NaN
         13   -1    0    0    0    0  0.00000000000E+00  0.00000000000E+00  0.74505805969E-08  0.10566000000E+00  0.10566000000E+00 0. -1.
     999900   -1    0    0    0    0 -0.00000000000E+00 -0.00000000000E+00 -0.74505805969E-08  0.93827000000E+00  0.93827000000E+00 0. -1.
     999902    2    1    2    0    0  0.25409217714E-01  0.59526737290E-02 -0.57733976571E-03  0.10178264372E+01  0.10174916512E+01 0.  0.
     999903    2    3    3    0    0 -0.11804430635E+00  0.15955464723E-01  0.33911599249E-01  0.12548768073E+00  0.20202136873E-01 0.  0.
         14    1    1    2    0    0 -0.25409217714E-01 -0.59526737290E-02  0.57733976571E-03  0.26103562794E-01  0.00000000000E+00 0. -1.
     999901    1    3    3    0    0  0.14345352407E+00 -0.10002790994E-01 -0.34488939014E-01  0.89233875648E+00  0.88000000000E+00 0. -1.
        -11    1    4    4    0    0 -0.43586500452E-01 -0.20813494286E-02  0.18188668571E-01  0.47277942241E-01  0.51100000000E-03 0. -1.
         11    1    4    4    0    0 -0.74457805902E-01  0.18036814152E-01  0.15722930677E-01  0.78209738489E-01  0.51100000000E-03 0.  1.
</event>
<event>
 8    1  0.1022673E+005  0.1043930E+01  0.7957747E-01            NaN
         13   -1    0    0    0    0  0.00000000000E+00  0.00000000000E+00  0.74505805969E-08  0.10566000000E+00  0.10566000000E+00 0.  1.
     999900   -1    0    0    0    0 -0.00000000000E+00 -0.00000000000E+00 -0.74505805969E-08  0.93827000000E+00  0.93827000000E+00 0.  1.
     999902    2    1    2    0    0  0.22099356394E-02  0.29677278779E-01  0.48881770546E-02  0.10137717679E+01  0.10133230868E+01 0.  0.
     999903    2    3    3    0    0 -0.34821368717E-01  0.76485414765E-01 -0.92610332663E-01  0.12637767361E+00  0.18223509016E-01 0.  0.
         14    1    1    2    0    0 -0.22099356394E-02 -0.29677278779E-01 -0.48881770546E-02  0.30158232146E-01  0.00000000000E+00 0. -1.
     999901    1    3    3    0    0  0.37031304356E-01 -0.46808135986E-01  0.97498509718E-01  0.88739409424E+00  0.88000000000E+00 0. -1.
        -11    1    4    4    0    0 -0.22648391252E-03  0.14203762006E-02 -0.78155968197E-02  0.79632555003E-02  0.51100000000E-03 0. -1.
         11    1    4    4    0    0 -0.34594884804E-01  0.75065038564E-01 -0.84794735843E-01  0.11841441811E+00  0.51100000000E-03 0.  1.
</event>
<event>
 8    1  0.1022673E+005  0.1043930E+01  0.7957747E-01            NaN
         13   -1    0    0    0    0  0.00000000000E+00  0.00000000000E+00  0.74505805969E-08  0.10566000000E+00  0.10566000000E+00 0. -1.
     999900   -1    0    0    0    0 -0.00000000000E+00 -0.00000000000E+00 -0.74505805969E-08  0.93827000000E+00  0.93827000000E+00 0. -1.
     999902    2    1    2    0    0  0.59196383537E-02  0.23268126824E-01 -0.62704280535E-02  0.10191153650E+01  0.10188132120E+01 0.  0.
     999903    2    3    3    0    0  0.12796753144E+00 -0.26722446481E-03 -0.15279790786E-01  0.13033486923E+00  0.19440823566E-01 0.  0.
         14    1    1    2    0    0 -0.59196383537E-02 -0.23268126824E-01  0.62704280535E-02  0.24814635039E-01  0.00000000000E+00 0. -1.
     999901    1    3    3    0    0 -0.12204789308E+00  0.23535351289E-01  0.90093627325E-02  0.88878049573E+00  0.88000000000E+00 0.  1.
        -11    1    4    4    0    0  0.10589757638E+00 -0.75973364915E-02 -0.12134325924E-01  0.10686215041E+00  0.51100000000E-03 0.  1.
         11    1    4    4    0    0  0.22069955061E-01  0.73301120267E-02 -0.31454648620E-02  0.23472718823E-01  0.51100000000E-03 0. -1.
</event>
<event>
 8    1  0.1022673E+005  0.1043930E+01  0.7957747E-01            NaN
         13   -1    0    0    0    0  0.00000000000E+00  0.00000000000E+00  0.74505805969E-08  0.10566000000E+00  0.10566000000E+00 0. -1.
     999900   -1    0    0    0    0 -0.00000000000E+00 -0.00000000000E+00 -0.74505805969E-08  0.93827000000E+00  0.93827000000E+00 0. -1.
     999902    2    1    2    0    0 -0.21391224379E-01  0.43891699770E-02  0.11248503376E-01  0.10193662437E+01  0.10190702433E+01 0.  0.
     999903    2    3    3    0    0  0.11629555414E+00  0.46073048361E-01  0.15318434580E-01  0.12767584958E+00  0.20471600592E-01 0.  0.
         14    1    1    2    0    0  0.21391224379E-01 -0.43891699770E-02 -0.11248503376E-01  0.24563756262E-01  0.00000000000E+00 0.  1.
     999901    1    3    3    0    0 -0.13768677851E+00 -0.41683878384E-01 -0.40699312036E-02  0.89169039416E+00  0.88000000000E+00 0. -1.
        -11    1    4    4    0    0  0.69351717093E-01  0.37949047610E-01  0.11327095333E-01  0.79864604725E-01  0.51100000000E-03 0. -1.
         11    1    4    4    0    0  0.46943837042E-01  0.81240007510E-02  0.39913392464E-02  0.47811244854E-01  0.51100000000E-03 0.  1.
</event>
<event>
 8    1  0.1022673E+005  0.1043930E+01  0.7957747E-01            NaN
         13   -1    0    0    0    0  0.00000000000E+00  0.00000000000E+00  0.74505805969E-08  0.10566000000E+00  0.10566000000E+00 0. -1.
     999900   -1    0    0    0    0 -0.00000000000E+00 -0.00000000000E+00 -0.74505805969E-08  0.93827000000E+00  0.93827000000E+00 0.  1.
     999902    2    1    2    0    0  0.93953957067E-02  0.60401101586E-02  0.20095886571E-01  0.10209386745E+01  0.10206797617E+01 0.  0.
     999903    2    3    3    0    0  0.17922205560E-02  0.10806272587E+00 -0.69928183925E-01  0.13044962029E+00  0.21127890352E-01 0.  0.
         14    1    1    2    0    0 -0.93953957067E-02 -0.60401101586E-02 -0.20095886571E-01  0.22991325501E-01  0.00000000000E+00 0.  1.
     999901    1    3    3    0    0  0.76031751507E-02 -0.10202261571E+00  0.90024070496E-01  0.89048905420E+00  0.88000000000E+00 0. -1.
        -11    1    4    4    0    0  0.12030474302E-02  0.45303272984E-01 -0.17199262298E-01  0.48475866271E-01  0.51100000000E-03 0. -1.
         11    1    4    4    0    0  0.58917312586E-03  0.62759452887E-01 -0.52728921628E-01  0.81973754023E-01  0.51100000000E-03 0.  1.
</event>
<event>
 8    1  0.1022673E+005  0.1043930E+01  0.7957747E-01            NaN
         13   -1    0    0    0    0  0.00000000000E+00  0.00000000000E+00  0.74505805969E-08  0.10566000000E+00  0.10566000000E+00 0.  1.
     999900   -1    0    0    0    0 -0.00000000000E+00 -0.00000000000E+00 -0.74505805969E-08  0.93827000000E+00  0.93827000000E+00 0.  1.
     999902    2    1    2    0    0  0.15280437587E-01  0.15007478006E-01  0.90958247717E-02  0.10206609176E+01  0.10203956382E+01 0.  0.
     999903    2    3    3    0    0 -0.24368031261E-01 -0.38528713994E-01  0.12118379064E+00  0.13105323042E+00  0.20277458945E-01 0.  0.
         14    1    1    2    0    0 -0.15280437587E-01 -0.15007478006E-01 -0.90958247717E-02  0.23269082433E-01  0.00000000000E+00 0. -1.
     999901    1    3    3    0    0  0.39648468848E-01  0.53536192001E-01 -0.11208796587E+00  0.88960768715E+00  0.88000000000E+00 0.  1.
        -11    1    4    4    0    0 -0.86008453991E-02 -0.47307139342E-02  0.47045093714E-01  0.48060962948E-01  0.51100000000E-03 0.  1.
         11    1    4    4    0    0 -0.15767185862E-01 -0.33798000060E-01  0.74138696923E-01  0.82992267475E-01  0.51100000000E-03 0. -1.
</event>
<event>
 8    1  0.1022673E+005  0.1043930E+01  0.7957747E-01            NaN
         13   -1    0    0    0    0  0.00000000000E+00  0.00000000000E+00  0.74505805969E-08  0.10566000000E+00  0.10566000000E+00 0. -1.
     999900   -1    0    0    0    0 -0.00000000000E+00 -0.00000000000E+00 -0.74505805969E-08  0.93827000000E+00  0.93827000000E+00 0.  1.
     999902    2    1    2    0    0  0.10060015076E-01  0.19651679781E-01 -0.77851420583E-02  0.10205205818E+01  0.10202520557E+01 0.  0.
     999903    2    3    3    0    0 -0.62143455685E-01 -0.76441578270E-01 -0.81504723272E-01  0.12929567640E+00  0.19215307610E-01 0.  0.
         14    1    1    2    0    0 -0.10060015076E-01 -0.19651679781E-01  0.77851420583E-02  0.23409418156E-01  0.00000000000E+00 0. -1.
     999901    1    3    3    0    0  0.72203470760E-01  0.96093258052E-01  0.73719581214E-01  0.89122490545E+00  0.88000000000E+00 0. -1.
        -11    1    4    4    0    0 -0.73724747992E-02 -0.36994530722E-02 -0.12757450825E-01  0.15200427962E-01  0.51100000000E-03 0. -1.
         11    1    4    4    0    0 -0.54770980885E-01 -0.72742125198E-01 -0.68747272447E-01  0.11409524844E+00  0.51100000000E-03 0.  1.
</event>
<event>
 8    1  0.1022673E+005  0.1043930E+01  0.7957747E-01            NaN
         13   -1    0    0    0    0  0.00000000000E+00  0.00000000000E+00  0.74505805969E-08  0.10566000000E+00  0.10566000000E+00 0.  1.
     999900   -1    0    0    0    0 -0.00000000000E+00 -0.00000000000E+00 -0.74505805969E-08  0.93827000000E+00  0.93827000000E+00 0. -1.
     999902    2    1    2    0    0  0.15927037564E-01 -0.17262713990E-01  0.54223722033E-02  0.10198245247E+01  0.10195395957E+01 0.  0.
     999903    2    3    3    0    0  0.26829681741E-01 -0.12573058883E+00 -0.25592759886E-01  0.13255563312E+00  0.19697556279E-01 0.  0.
         14    1    1    2    0    0 -0.15927037564E-01  0.17262713990E-01 -0.54223722033E-02  0.24105475315E-01  0.00000000000E+00 0.  1.
     999901    1    3    3    0    0 -0.10902644177E-01  0.10846787484E+00  0.31015132089E-01  0.88726889157E+00  0.88000000000E+00 0.  1.
        -11    1    4    4    0    0  0.90691687039E-02 -0.70739706056E-01 -0.61612768225E-02  0.71586159884E-01  0.51100000000E-03 0.  1.
         11    1    4    4    0    0  0.17760513037E-01 -0.54990882773E-01 -0.19431483063E-01  0.60969473235E-01  0.51100000000E-03 0. -1.
</event>
<event>
 8    1  0.1022673E+005  0.1043930E+01  0.7957747E-01            NaN
         13   -1    0    0    0    0  0.00000000000E+00  0.00000000000E+00  0.74505805969E-08  0.10566000000E+00  0.10566000000E+00 0.  1.
     999900   -1    0    0    0    0 -0.00000000000E+00 -0.00000000000E+00 -0.74505805969E-08  0.93827000000E+00  0.93827000000E+00 0. -1.
     999902    2    1    2    0    0 -0.12563668067E-01  0.99235918088E-02  0.17503192923E-01  0.10202090137E+01  0.10199332068E+01 0.  0.
     999903    2    3    3    0    0  0.11166290412E+00  0.26423793204E-01 -0.53308921794E-01  0.12851464144E+00  0.22524451543E-01 0.  0.
         14    1    1    2    0    0  0.12563668067E-01 -0.99235918088E-02 -0.17503192923E-01  0.23720986324E-01  0.00000000000E+00 0.  1.
     999901    1    3    3    0    0 -0.12422657219E+00 -0.16500201395E-01  0.70812114717E-01  0.89169437223E+00  0.88000000000E+00 0. -1.
        -11    1    4    4    0    0  0.10095085297E+00  0.16440889138E-01 -0.46327458365E-01  0.11228478112E+00  0.51100000000E-03 0. -1.
         11    1    4    4    0    0  0.10712051151E-01  0.99829040657E-02 -0.69814634289E-02  0.16229860322E-01  0.51100000000E-03 0.  1.
</event>
<event>
 8    1  0.1022673E+005  0.1043930E+01  0.7957747E-01            NaN
         13   -1    0    0    0    0  0.00000000000E+00  0.00000000000E+00  0.74505805969E-08  0.10566000000E+00  0.10566000000E+00 0.  1.
     999900   -1    0    0    0    0 -0.00000000000E+00 -0.00000000000E+00 -0.74505805969E-08  0.93827000000E+00  0.93827000000E+00 0.  1.
     999902    2    1    2    0    0 -0.18023599350E-01  0.93527295016E-02  0.10795826963E-01  0.10209327488E+01  0.10206737011E+01 0.  0.
     999903    2    3    3    0    0 -0.10233533471E+00 -0.53270978420E-01  0.63560696981E-01  0.13311839376E+00  0.19241275556E-01 0.  0.
         14    1    1    2    0    0  0.18023599350E-01 -0.93527295016E-02 -0.10795826963E-01  0.22997251194E-01  0.00000000000E+00 0. -1.
     999901    1    3    3    0    0  0.84311735361E-01  0.62623707922E-01 -0.52764870018E-01  0.88781435504E+00  0.88000000000E+00 0.  1.
        -11    1    4    4    0    0 -0.75096386772E-01 -0.47875906558E-01  0.45739928860E-01  0.10011978799E+00  0.51100000000E-03 0. -1.
         11    1    4    4    0    0 -0.27238947939E-01 -0.53950718623E-02  0.17820768121E-01  0.32998605768E-01  0.51100000000E-03 0.  1.
</event>
<event>
 8    1  0.1126989E+005  0.1043930E+01  0.7957747E-01            NaN
         13   -1    0    0    0    0  0.00000000000E+00  0.00000000000E+00  0.74505805969E-08  0.10566000000E+00  0.10566000000E+00 0.  1.
     999900   -1    0    0    0    0 -0.00000000000E+00 -0.00000000000E+00 -0.74505805969E-08  0.93827000000E+00  0.93827000000E+00 0.  1.
     999902    2    1    2    0    0  0.16212688023E-01  0.17178354124E-01  0.67408093687E-02  0.10193660912E+01  0.10190700871E+01 0.  0.
     999903    2    3    3    0    0 -0.51146211125E-02 -0.12381960059E+00 -0.23112842092E-01  0.12738710164E+00  0.18325320103E-01 0.  0.
         14    1    1    2    0    0 -0.16212688023E-01 -0.17178354124E-01 -0.67408093687E-02  0.24563908775E-01  0.00000000000E+00 0. -1.
     999901    1    3    3    0    0  0.21327309136E-01  0.14099795471E+00  0.29853651460E-01  0.89197898958E+00  0.88000000000E+00 0.  1.
        -11    1    4    4    0    0 -0.99284757658E-02 -0.37504758248E-01 -0.60509158849E-02  0.39269023750E-01  0.51100000000E-03 0.  1.
         11    1    4    4    0    0  0.48138546533E-02 -0.86314842340E-01 -0.17061926207E-01  0.88118077894E-01  0.51100000000E-03 0. -1.
</event>
<event>
 8    1  0.1022673E+005  0.1043930E+01  0.7957747E-01            NaN
         13   -1    0    0    0    0  0.00000000000E+00  0.00000000000E+00  0.74505805969E-08  0.10566000000E+00  0.10566000000E+00 0. -1.
     999900   -1    0    0    0    0 -0.00000000000E+00 -0.00000000000E+00 -0.74505805969E-08  0.93827000000E+00  0.93827000000E+00 0. -1.
     999902    2    1    2    0    0 -0.13964564210E-01  0.60324352437E-02  0.19161968957E-01  0.10194640975E+01  0.10191704793E+01 0.  0.
     999903    2    3    3    0    0 -0.11357363363E+00  0.56756345384E-01 -0.26246835125E-01  0.13123167230E+00  0.20312618341E-01 0.  0.
         14    1    1    2    0    0  0.13964564210E-01 -0.60324352437E-02 -0.19161968957E-01  0.24465902453E-01  0.00000000000E+00 0.  1.
     999901    1    3    3    0    0  0.99609069419E-01 -0.50723910140E-01  0.45408804082E-01  0.88823242525E+00  0.88000000000E+00 0.  1.
        -11    1    4    4    0    0 -0.55561320867E-01  0.26718927995E-01 -0.23057100834E-01  0.65824406640E-01  0.51100000000E-03 0.  1.
         11    1    4    4    0    0 -0.58012312762E-01  0.30037417389E-01 -0.31897342913E-02  0.65407265661E-01  0.51100000000E-03 0. -1.
</event>
<event>
 8    1  0.1022673E+005  0.1043930E+01  0.7957747E-01            NaN
         13   -1    0    0    0    0  0.00000000000E+00  0.00000000000E+00  0.74505805969E-08  0.10566000000E+00  0.10566000000E+00 0.  1.
     999900   -1    0    0    0    0 -0.00000000000E+00 -0.00000000000E+00 -0.74505805969E-08  0.93827000000E+00  0.93827000000E+00 0.  1.
     999902    2    1    2    0    0  0.11894810006E-01 -0.12100461482E-01  0.15241835831E-01  0.10211216412E+01  0.10208668791E+01 0.  0.
     999903    2    3    3    0    0  0.11101728888E+00  0.23385592161E-01 -0.62955293449E-01  0.13140296830E+00  0.20776110164E-01 0.  0.
         14    1    1    2    0    0 -0.11894810006E-01  0.12100461482E-01 -0.15241835831E-01  0.22808358833E-01  0.00000000000E+00 0. -1.
     999901    1    3    3    0    0 -0.99122478875E-01 -0.35486053643E-01  0.78197129280E-01  0.88971867287E+00  0.88000000000E+00 0.  1.
        -11    1    4    4    0    0  0.25385208935E-01  0.14516634932E-01 -0.16237938574E-01  0.33452552855E-01  0.51100000000E-03 0.  1.
         11    1    4    4    0    0  0.85632079946E-01  0.88689572291E-02 -0.46717354875E-01  0.97950415444E-01  0.51100000000E-03 0. -1.
</event>
<event>
 8    1  0.1022673E+005  0.1043930E+01  0.7957747E-01            NaN
         13   -1    0    0    0    0  0.00000000000E+00  0.00000000000E+00  0.74505805969E-08  0.10566000000E+00  0.10566000000E+00 0.  1.
     999900   -1    0    0    0    0 -0.00000000000E+00 -0.00000000000E+00 -0.74505805969E-08  0.93827000000E+00  0.93827000000E+00 0. -1.
     999902    2    1    2    0    0  0.84227074516E-02 -0.18826421109E-01 -0.11649956313E-01  0.10202425009E+01  0.10199674813E+01 0.  0.
     999903    2    3    3    0    0  0.15420252282E-01  0.12399899122E+00 -0.22577086297E-01  0.12863302010E+00  0.20571704616E-01 0.  0.
         14    1    1    2    0    0 -0.84227074516E-02  0.18826421109E-01  0.11649956313E-01  0.23687499122E-01  0.00000000000E+00 0.  1.
     999901    1    3    3    0    0 -0.69975448302E-02 -0.14282541233E+00  0.10927129984E-01  0.89160948078E+00  0.88000000000E+00 0.  1.
        -11    1    4    4    0    0 -0.76638314484E-03  0.64582688156E-01 -0.60613758714E-02  0.64873047955E-01  0.51100000000E-03 0.  1.
         11    1    4    4    0    0  0.16186635427E-01  0.59416303064E-01 -0.16515710425E-01  0.63759972146E-01  0.51100000000E-03 0. -1.
</event>
<event>
 8    1  0.1033458E+005  0.1043930E+01  0.7957747E-01            NaN
         13   -1    0    0    0    0  0.00000000000E+00  0.00000000000E+00  0.74505805969E-08  0.10566000000E+00  0.10566000000E+00 0.  1.
     999900   -1    0    0    0    0 -0.00000000000E+00 -0.00000000000E+00 -0.74505805969E-08  0.93827000000E+00  0.93827000000E+00 0.  1.
     999902    2    1    2    0    0 -0.16737574488E-01  0.39427041675E-02  0.14782327759E-01  0.10212538334E+01  0.10210020489E+01 0.  0.
     999903    2    3    3    0    0 -0.56638351657E-02 -0.23408830643E-01  0.12937504274E+00  0.13333366558E+00  0.21445566253E-01 0.  0.
         14    1    1    2    0    0  0.16737574488E-01 -0.39427041675E-02 -0.14782327759E-01  0.22676166561E-01  0.00000000000E+00 0. -1.
     999901    1    3    3    0    0 -0.11073739322E-01  0.27351534811E-01 -0.11459271498E+00  0.88792016786E+00  0.88000000000E+00 0.  1.
        -11    1    4    4    0    0  0.77941341625E-02 -0.89072310141E-02  0.61570909656E-01  0.62700281727E-01  0.51100000000E-03 0. -1.
         11    1    4    4    0    0 -0.13457969328E-01 -0.14501599629E-01  0.67804133087E-01  0.70633383856E-01  0.51100000000E-03 0.  1.
</event>
<event>
 8    1  0.1022673E+005  0.1043930E+01  0.7957747E-01            NaN
         13   -1    0    0    0    0  0.00000000000E+00  0.00000000000E+00  0.74505805969E-08  0.10566000000E+00  0.10566000000E+00 0. -1.
     999900   -1    0    0    0    0 -0.00000000000E+00 -0.00000000000E+00 -0.74505805969E-08  0.93827000000E+00  0.93827000000E+00 0. -1.
     999902    2    1    2    0    0  0.42740718272E-02  0.19589408056E-02  0.22975053792E-01  0.10204788116E+01  0.10202093152E+01 0.  0.
     999903    2    3    3    0    0  0.25455887087E-01  0.12314569670E+00 -0.27802306559E-01  0.13047137379E+00  0.20903261102E-01 0.  0.
         14    1    1    2    0    0 -0.42740718272E-02 -0.19589408056E-02 -0.22975053792E-01  0.23451188366E-01  0.00000000000E+00 0.  1.
     999901    1    3    3    0    0 -0.21181815260E-01 -0.12118675589E+00  0.50777360351E-01  0.89000743785E+00  0.88000000000E+00 0.  1.
        -11    1    4    4    0    0  0.17243214440E-01  0.44632364077E-01 -0.17060427714E-01  0.50800548049E-01  0.51100000000E-03 0.  1.
         11    1    4    4    0    0  0.82126726470E-02  0.78513332621E-01 -0.10741878845E-01  0.79670825736E-01  0.51100000000E-03 0. -1.
</event>
<event>
 8    1  0.1022673E+005  0.1043930E+01  0.7957747E-01            NaN
         13   -1    0    0    0    0  0.00000000000E+00  0.00000000000E+00  0.74505805969E-08  0.10566000000E+00  0.10566000000E+00 0. -1.
     999900   -1    0    0    0    0 -0.00000000000E+00 -0.00000000000E+00 -0.74505805969E-08  0.93827000000E+00  0.93827000000E+00 0. -1.
     999902    2    1    2    0    0 -0.86847295075E-02  0.20525153437E-01  0.53092230144E-02  0.10210194282E+01  0.10207623516E+01 0.  0.
     999903    2    3    3    0    0 -0.11707450267E+00  0.46649570717E-01  0.38203811344E-01  0.13337485856E+00  0.21135280260E-01 0.  0.
         14    1    1    2    0    0  0.86847295075E-02 -0.20525153437E-01 -0.53092230144E-02  0.22910571779E-01  0.00000000000E+00 0.  1.
     999901    1    3    3    0    0  0.10838977316E+00 -0.26124417279E-01 -0.32894588330E-01  0.88764456966E+00  0.88000000000E+00 0. -1.
        -11    1    4    4    0    0 -0.10282963902E+00  0.37946489456E-01  0.25890022734E-01  0.11262515315E+00  0.51100000000E-03 0. -1.
         11    1    4    4    0    0 -0.14244863644E-01  0.87030812608E-02  0.12313788611E-01  0.20749705411E-01  0.51100000000E-03 0.  1.
</event>
<event>
 8    1  0.1022673E+005  0.1043930E+01  0.7957747E-01            NaN
         13   -1    0    0    0    0  0.00000000000E+00  0.00000000000E+00  0.74505805969E-08  0.10566000000E+00  0.10566000000E+00 0. -1.
     999900   -1    0    0    0    0 -0.00000000000E+00 -0.00000000000E+00 -0.74505805969E-08  0.93827000000E+00  0.93827000000E+00 0. -1.
     999902    2    1    2    0    0  0.13644383114E-01  0.93044534706E-03 -0.20184756611E-01  0.10195484636E+01  0.10192568912E+01 0.  0.
     999903    2    3    3    0    0 -0.46787680373E-01 -0.11571567400E+00 -0.29900768718E-01  0.12974356791E+00  0.18977175769E-01 0.  0.
         14    1    1    2    0    0 -0.13644383114E-01 -0.93044534706E-03  0.20184756611E-01  0.24381536428E-01  0.00000000000E+00 0. -1.
     999901    1    3    3    0    0  0.60432063488E-01  0.11664611935E+00  0.97160121064E-02  0.88980489566E+00  0.88000000000E+00 0.  1.
        -11    1    4    4    0    0 -0.38734861354E-02 -0.24288998611E-01 -0.11189129062E-01  0.27026229455E-01  0.51100000000E-03 0. -1.
         11    1    4    4    0    0 -0.42914194238E-01 -0.91426675388E-01 -0.18711639655E-01  0.10271733845E+00  0.51100000000E-03 0.  1.
</event>
<event>
 8    1  0.1022673E+005  0.1043930E+01  0.7957747E-01            NaN
         13   -1    0    0    0    0  0.00000000000E+00  0.00000000000E+00  0.74505805969E-08  0.10566000000E+00  0.10566000000E+00 0.  1.
     999900   -1    0    0    0    0 -0.00000000000E+00 -0.00000000000E+00 -0.74505805969E-08  0.93827000000E+00  0.93827000000E+00 0. -1.
     999902    2    1    2    0    0 -0.22612230081E-01 -0.30925187294E-02 -0.56285707488E-02  0.10204234598E+01  0.10201526748E+01 0.  0.
     999903    2    3    3    0    0 -0.27076148192E-01 -0.12369301620E+00 -0.31340714944E-01  0.13181470403E+00  0.18968282135E-01 0.  0.
         14    1    1    2    0    0  0.22612230081E-01  0.30925187294E-02  0.56285707488E-02  0.23506540154E-01  0.00000000000E+00 0.  1.
     999901    1    3    3    0    0  0.44639181109E-02  0.12060049747E+00  0.25712144195E-01  0.88860875582E+00  0.88000000000E+00 0. -1.
        -11    1    4    4    0    0 -0.28429572259E-01 -0.12052953693E+00 -0.32695717968E-01  0.12808154023E+00  0.51100000000E-03 0.  1.
         11    1    4    4    0    0  0.13534240670E-02 -0.31634792672E-02  0.13550030243E-02  0.37331638023E-02  0.51100000000E-03 0. -1.
</event>
<event>
 8    1  0.1022673E+005  0.1043930E+01  0.7957747E-01            NaN
         13   -1    0    0    0    0  0.00000000000E+00  0.00000000000E+00  0.74505805969E-08  0.10566000000E+00  0.10566000000E+00 0. -1.
     999900   -1    0    0    0    0 -0.00000000000E+00 -0.00000000000E+00 -0.74505805969E-08  0.93827000000E+00  0.93827000000E+00 0.  1.
     999902    2    1    2    0    0  0.61059143555E-02  0.58857475211E-02  0.21774057311E-01  0.10205626342E+01  0.10202950830E+01 0.  0.
     999903    2    3    3    0    0  0.74343853421E-01  0.78326585594E-01  0.76918539964E-01  0.13323800062E+00  0.13184857425E-01 0.  0.
         14    1    1    2    0    0 -0.61059143555E-02 -0.58857475211E-02 -0.21774057311E-01  0.23367365829E-01  0.00000000000E+00 0.  1.
     999901    1    3    3    0    0 -0.68237939065E-01 -0.72440838073E-01 -0.55144482654E-01  0.88732463356E+00  0.88000000000E+00 0.  1.
        -11    1    4    4    0    0  0.35908858019E-01  0.30417743781E-01  0.28440959804E-01  0.54989403857E-01  0.51100000000E-03 0. -1.
         11    1    4    4    0    0  0.38434995402E-01  0.47908841813E-01  0.48477580160E-01  0.78248596758E-01  0.51100000000E-03 0.  1.
</event>
<event>
 8    1  0.1022673E+005  0.1043930E+01  0.7957747E-01            NaN
         13   -1    0    0    0    0  0.00000000000E+00  0.00000000000E+00  0.74505805969E-08  0.10566000000E+00  0.10566000000E+00 0. -1.
     999900   -1    0    0    0    0 -0.00000000000E+00 -0.00000000000E+00 -0.74505805969E-08  0.93827000000E+00  0.93827000000E+00 0.  1.
     999902    2    1    2    0    0  0.37082100514E-02 -0.11329519225E-01  0.20299708212E-01  0.10203888237E+01  0.10201172308E+01 0.  0.
     999903    2    3    3    0    0  0.74856798846E-02  0.10641398927E+00 -0.68248811804E-01  0.12813401511E+00  0.19505204447E-01 0.  0.
         14    1    1    2    0    0 -0.37082100514E-02  0.11329519225E-01 -0.20299708212E-01  0.23541176291E-01  0.00000000000E+00 0.  1.
     999901    1    3    3    0    0 -0.37774698332E-02 -0.11774350849E+00  0.88548520015E-01  0.89225480860E+00  0.88000000000E+00 0.  1.
        -11    1    4    4    0    0 -0.15882655615E-02  0.73082967605E-01 -0.53407515772E-01  0.90533234800E-01  0.51100000000E-03 0. -1.
         11    1    4    4    0    0  0.90739454461E-02  0.33331021663E-01 -0.14841296032E-01  0.37600780310E-01  0.51100000000E-03 0.  1.
</event>
<event>
 8    1  0.1022673E+005  0.1043930E+01  0.7957747E-01            NaN
         13   -1    0    0    0    0  0.00000000000E+00  0.00000000000E+00  0.74505805969E-08  0.10566000000E+00  0.10566000000E+00 0.  1.
     999900   -1    0    0    0    0 -0.00000000000E+00 -0.00000000000E+00 -0.74505805969E-08  0.93827000000E+00  0.93827000000E+00 0.  1.
     999902    2    1    2    0    0  0.19406749575E-01  0.15514893634E-01 -0.16593363641E-02  0.10190284488E+01  0.10187241493E+01 0.  0.
     999903    2    3    3    0    0 -0.11729467666E+00  0.24365587226E-01  0.38678819295E-01  0.12751693375E+00  0.20317340312E-01 0.  0.
         14    1    1    2    0    0 -0.19406749575E-01 -0.15514893634E-01  0.16593363641E-02  0.24901551171E-01  0.00000000000E+00 0.  1.
     999901    1    3    3    0    0  0.13670142624E+00 -0.88506935927E-02 -0.40338155659E-01  0.89151151508E+00  0.88000000000E+00 0.  1.
        -11    1    4    4    0    0 -0.57337102865E-01  0.17518305106E-02  0.20284577709E-01  0.60846836310E-01  0.51100000000E-03 0.  1.
         11    1    4    4    0    0 -0.59957573798E-01  0.22613756716E-01  0.18394241586E-01  0.66670097443E-01  0.51100000000E-03 0. -1.
</event>
<event>
 8    1  0.1022673E+005  0.1043930E+01  0.7957747E-01            NaN
         13   -1    0    0    0    0  0.00000000000E+00  0.00000000000E+00  0.74505805969E-08  0.10566000000E+00  0.10566000000E+00 0. -1.
     999900   -1    0    0    0    0 -0.00000000000E+00 -0.00000000000E+00 -0.74505805969E-08  0.93827000000E+00  0.93827000000E+00 0. -1.
     999902    2    1    2    0    0 -0.32122428215E-02  0.17599458760E-01 -0.16737991566E-01  0.10194306160E+01  0.10191361838E+01 0.  0.
     999903    2    3    3    0    0  0.42843820671E-01 -0.98371802318E-01  0.64558821521E-01  0.12691749782E+00  0.20678620744E-01 0.  0.
         14    1    1    2    0    0  0.32122428215E-02 -0.17599458760E-01  0.16737991566E-01  0.24499383957E-01  0.00000000000E+00 0. -1.
     999901    1    3    3    0    0 -0.46056063493E-01  0.11597126108E+00 -0.81296813087E-01  0.89251311822E+00  0.88000000000E+00 0.  1.
        -11    1    4    4    0    0  0.91418787021E-02 -0.26534310228E-01  0.71196253888E-02  0.28958483250E-01  0.51100000000E-03 0. -1.
         11    1    4    4    0    0  0.33701941969E-01 -0.71837492090E-01  0.57439196132E-01  0.97959014570E-01  0.51100000000E-03 0.  1.
</event>
<event>
 8    1  0.1022673E+005  0.1043930E+01  0.7957747E-01            NaN
         13   -1    0    0    0    0  0.00000000000E+00  0.00000000000E+00  0.74505805969E-08  0.10566000000E+00  0.10566000000E+00 0.  1.
     999900   -1    0    0    0    0 -0.00000000000E+00 -0.00000000000E+00 -0.74505805969E-08  0.93827000000E+00  0.93827000000E+00 0.  1.
     999902    2    1    2    0    0  0.59538596836E-02 -0.31304632087E-02  0.22978640026E-01  0.10199870231E+01  0.10197059680E+01 0.  0.
     999903    2    3    3    0    0 -0.66557525035E-01 -0.96498543484E-01 -0.50405469269E-01  0.12905451903E+00  0.19299857926E-01 0.  0.
         14    1    1    2    0    0 -0.59538596836E-02  0.31304632087E-02 -0.22978640026E-01  0.23942976893E-01  0.00000000000E+00 0. -1.
     999901    1    3    3    0    0  0.72511384718E-01  0.93368080276E-01  0.73384109295E-01  0.89093250408E+00  0.88000000000E+00 0. -1.
        -11    1    4    4    0    0 -0.50616374275E-01 -0.57972559533E-01 -0.35721057213E-01  0.84847451658E-01  0.51100000000E-03 0. -1.
         11    1    4    4    0    0 -0.15941150760E-01 -0.38525983952E-01 -0.14684412056E-01  0.44207067370E-01  0.51100000000E-03 0.  1.
</event>
<event>
 8    1  0.1022673E+005  0.1043930E+01  0.7957747E-01            NaN
         13   -1    0    0    0    0  0.00000000000E+00  0.00000000000E+00  0.74505805969E-08  0.10566000000E+00  0.10566000000E+00 0. -1.
     999900   -1    0    0    0    0 -0.00000000000E+00 -0.00000000000E+00 -0.74505805969E-08  0.93827000000E+00  0.93827000000E+00 0. -1.
     999902    2    1    2    0    0  0.22812796953E-01  0.33072203352E-02  0.33677957989E-02  0.10206340034E+01  0.10203681029E+01 0.  0.
     999903    2    3    3    0    0 -0.66276327031E-01 -0.45135707037E-01  0.99838352859E-01  0.12957274979E+00  0.19789320654E-01 0.  0.
         14    1    1    2    0    0 -0.22812796953E-01 -0.33072203352E-02 -0.33677957989E-02  0.23295996646E-01  0.00000000000E+00 0. -1.
     999901    1    3    3    0    0  0.89089123984E-01  0.48442927372E-01 -0.96470557060E-01  0.89106125356E+00  0.88000000000E+00 0. -1.
        -11    1    4    4    0    0 -0.52423407776E-01 -0.42787903278E-01  0.89084076564E-01  0.11187158785E+00  0.51100000000E-03 0.  1.
         11    1    4    4    0    0 -0.13852919256E-01 -0.23478037589E-02  0.10754276295E-01  0.17701161940E-01  0.51100000000E-03 0. -1.
</event>
<event>
 8    1  0.1022673E+005  0.1043930E+01  0.7957747E-01            NaN
         13   -1    0    0    0    0  0.00000000000E+00  0.00000000000E+00  0.74505805969E-08  0.10566000000E+00  0.10566000000E+00 0. -1.
     999900   -1    0    0    0    0 -0.00000000000E+00 -0.00000000000E+00 -0.74505805969E-08  0.93827000000E+00  0.93827000000E+00 0.  1.
     999902    2    1    2    0    0 -0.10856901291E-01 -0.19763454712E-01 -0.22333411152E-02  0.10212704709E+01  0.10210190598E+01 0.  0.
     999903    2    3    3    0    0 -0.13115755378E+00  0.17332567414E-02  0.66743254568E-02  0.13278090868E+00  0.19517043777E-01 0.  0.
         14    1    1    2    0    0  0.10856901291E-01  0.19763454712E-01  0.22333411152E-02  0.22659529129E-01  0.00000000000E+00 0. -1.
     999901    1    3    3    0    0  0.12030065249E+00 -0.21496711454E-01 -0.89076665719E-02  0.88848956219E+00  0.88000000000E+00 0.  1.
        -11    1    4    4    0    0 -0.78731833714E-01  0.90067893720E-03  0.13553927443E-01  0.79896701638E-01  0.51100000000E-03 0. -1.
         11    1    4    4    0    0 -0.52425720067E-01  0.83257780416E-03 -0.68796019860E-02  0.52884207046E-01  0.51100000000E-03 0.  1.
</event>
<event>
 6    1  0.1022673E+005  0.1043930E+01  0.7957747E-01            NaN
         13   -1    0    0    0    0  0.00000000000E+00  0.00000000000E+00  0.74505805969E-08  0.10566000000E+00  0.10566000000E+00 0.  1.
     999900   -1    0    0    0    0 -0.00000000000E+00 -0.00000000000E+00 -0.74505805969E-08  0.93827000000E+00  0.93827000000E+00 0. -1.
         14    1    1    2    0    0  0.27278326779E-01  0.21702532676E-01  0.18166775058E-01  0.39308252981E-01  0.00000000000E+00 0.  1.
     999901    1    1    2    0    0  0.67514884406E-01  0.11191565714E-01 -0.65767865571E-01  0.88510390514E+00  0.88000000000E+00 0. -1.
        -11    1    1    2    0    0 -0.52926571277E-01  0.49683708667E-02  0.22018466149E-01  0.57541121199E-01  0.51100000000E-03 0. -1.
         11    1    1    2    0    0 -0.41866639908E-01 -0.37862469257E-01  0.25582624364E-01  0.61976720676E-01  0.51100000000E-03 0.  1.
</event>
<event>
 8    1  0.1022673E+005  0.1043930E+01  0.7957747E-01            NaN
         13   -1    0    0    0    0  0.00000000000E+00  0.00000000000E+00  0.74505805969E-08  0.10566000000E+00  0.10566000000E+00 0. -1.
     999900   -1    0    0    0    0 -0.00000000000E+00 -0.00000000000E+00 -0.74505805969E-08  0.93827000000E+00  0.93827000000E+00 0. -1.
     999902    2    1    2    0    0 -0.73503803501E-02  0.22552856082E-01  0.41193518266E-02  0.10198545256E+01  0.10195703139E+01 0.  0.
     999903    2    3    3    0    0 -0.77355104841E-01 -0.50364248209E-02 -0.10263880109E+00  0.13021463603E+00  0.20296554600E-01 0.  0.
         14    1    1    2    0    0  0.73503803501E-02 -0.22552856082E-01 -0.41193518266E-02  0.24075474413E-01  0.00000000000E+00 0. -1.
     999901    1    3    3    0    0  0.70004724491E-01  0.27589280903E-01  0.10675815291E+00  0.88963988955E+00  0.88000000000E+00 0.  1.
        -11    1    4    4    0    0 -0.49568234202E-01 -0.12519542288E-01 -0.70253794545E-01  0.86888466151E-01  0.51100000000E-03 0.  1.
         11    1    4    4    0    0 -0.27786870639E-01  0.74831174673E-02 -0.32385006542E-01  0.43326169882E-01  0.51100000000E-03 0. -1.
</event>
<event>
 8    1  0.1022673E+005  0.1043930E+01  0.7957747E-01            NaN
         13   -1    0    0    0    0  0.00000000000E+00  0.00000000000E+00  0.74505805969E-08  0.10566000000E+00  0.10566000000E+00 0.  1.
     999900   -1    0    0    0    0 -0.00000000000E+00 -0.00000000000E+00 -0.74505805969E-08  0.93827000000E+00  0.93827000000E+00 0. -1.
     999902    2    1    2    0    0 -0.13919577391E-01 -0.27877068304E-02 -0.19208982238E-01  0.10200446291E+01  0.10197649408E+01 0.  0.
     999903    2    3    3    0    0  0.32664894130E-01 -0.43244182198E-01  0.11393560521E+00  0.12789311700E+00  0.20934962105E-01 0.  0.
         14    1    1    2    0    0  0.13919577391E-01  0.27877068304E-02  0.19208982238E-01  0.23885370893E-01  0.00000000000E+00 0.  1.
     999901    1    3    3    0    0 -0.46584471521E-01  0.40456475368E-01 -0.13314458745E+00  0.89215151211E+00  0.88000000000E+00 0.  1.
        -11    1    4    4    0    0  0.26798024252E-01 -0.19071711056E-01  0.58121523306E-01  0.66785004746E-01  0.51100000000E-03 0. -1.
         11    1    4    4    0    0  0.58668698781E-02 -0.24172471142E-01  0.55814081906E-01  0.61108112255E-01  0.51100000000E-03 0.  1.
</event>
<event>
 8    1  0.1022673E+005  0.1043930E+01  0.7957747E-01            NaN
         13   -1    0    0    0    0  0.00000000000E+00  0.00000000000E+00  0.74505805969E-08  0.10566000000E+00  0.10566000000E+00 0.  1.
     999900   -1    0    0    0    0 -0.00000000000E+00 -0.00000000000E+00 -0.74505805969E-08  0.93827000000E+00  0.93827000000E+00 0.  1.
     999902    2    1    2    0    0  0.19639470822E-01 -0.14194267651E-01 -0.70340969411E-03  0.10196878707E+01  0.10193996629E+01 0.  0.
     999903    2    3    3    0    0  0.10430401849E+00 -0.34226757331E-01  0.71470967637E-01  0.13245705122E+00  0.19646170439E-01 0.  0.
         14    1    1    2    0    0 -0.19639470822E-01  0.14194267651E-01  0.70340969411E-03  0.24242129310E-01  0.00000000000E+00 0. -1.
     999901    1    3    3    0    0 -0.84664547665E-01  0.20032489681E-01 -0.72174377331E-01  0.88723081947E+00  0.88000000000E+00 0. -1.
        -11    1    4    4    0    0  0.47863874261E-01 -0.11261264167E-01  0.42457721214E-01  0.64966804921E-01  0.51100000000E-03 0. -1.
         11    1    4    4    0    0  0.56440144226E-01 -0.22965493164E-01  0.29013246423E-01  0.67490246299E-01  0.51100000000E-03 0.  1.
</event>
<event>
 8    1  0.1022673E+005  0.1043930E+01  0.7957747E-01            NaN
         13   -1    0    0    0    0  0.00000000000E+00  0.00000000000E+00  0.74505805969E-08  0.10566000000E+00  0.10566000000E+00 0.  1.
     999900   -1    0    0    0    0 -0.00000000000E+00 -0.00000000000E+00 -0.74505805969E-08  0.93827000000E+00  0.93827000000E+00 0.  1.
     999902    2    1    2    0    0 -0.72933172913E-02  0.19272123743E-01  0.99140281599E-02  0.10210630985E+01  0.10208070121E+01 0.  0.
     999903    2    3    3    0    0 -0.12375854574E+00  0.90498151972E-02  0.42148073817E-01  0.13274576851E+00  0.21140059903E-01 0.  0.
         14    1    1    2    0    0  0.72933172913E-02 -0.19272123743E-01 -0.99140281599E-02  0.22866901518E-01  0.00000000000E+00 0. -1.
     999901    1    3    3    0    0  0.11646522845E+00  0.10222308545E-01 -0.32234045657E-01  0.88831732997E+00  0.88000000000E+00 0. -1.
        -11    1    4    4    0    0 -0.63636809653E-01  0.72087298173E-02  0.10918192930E-01  0.64969819041E-01  0.51100000000E-03 0. -1.
         11    1    4    4    0    0 -0.60121736085E-01  0.18410853799E-02  0.31229880887E-01  0.67775949469E-01  0.51100000000E-03 0.  1.
</event>
<event>
 8    1  0.1022673E+005  0.1043930E+01  0.7957747E-01            NaN
         13   -1    0    0    0    0  0.00000000000E+00  0.00000000000E+00  0.74505805969E-08  0.10566000000E+00  0.10566000000E+00 0.  1.
     999900   -1    0    0    0    0 -0.00000000000E+00 -0.00000000000E+00 -0.74505805969E-08  0.93827000000E+00  0.93827000000E+00 0. -1.
     999902    2    1    2    0    0  0.27820566006E-02  0.15788771535E-01  0.17773545731E-01  0.10199941676E+01  0.10197132822E+01 0.  0.
     999903    2    3    3    0    0  0.96542999830E-01  0.84859471197E-01 -0.20530894183E-01  0.13149593678E+00  0.18654305286E-01 0.  0.
         14    1    1    2    0    0 -0.27820566006E-02 -0.15788771535E-01 -0.17773545731E-01  0.23935832415E-01  0.00000000000E+00 0. -1.
     999901    1    3    3    0    0 -0.93760943229E-01 -0.69070699662E-01  0.38304439915E-01  0.88849823081E+00  0.88000000000E+00 0.  1.
        -11    1    4    4    0    0  0.33945574615E-01  0.22050312091E-01 -0.12914894547E-01  0.42492045390E-01  0.51100000000E-03 0.  1.
         11    1    4    4    0    0  0.62597425215E-01  0.62809159106E-01 -0.76159996364E-02  0.89003891390E-01  0.51100000000E-03 0. -1.
</event>
<event>
 8    1  0.1022673E+005  0.1043930E+01  0.7957747E-01            NaN
         13   -1    0    0    0    0  0.00000000000E+00  0.00000000000E+00  0.74505805969E-08  0.10566000000E+00  0.10566000000E+00 0. -1.
     999900   -1    0    0    0    0 -0.00000000000E+00 -0.00000000000E+00 -0.74505805969E-08  0.93827000000E+00  0.93827000000E+00 0. -1.
     999902    2    1    2    0    0  0.19016806572E-01  0.13641597111E-01  0.28212816438E-02  0.10203568854E+01  0.10200845464E+01 0.  0.
     999903    2    3    3    0    0 -0.95102060350E-01 -0.80862466325E-01 -0.16767696650E-01  0.12775514781E+00  0.21379471429E-01 0.  0.
         14    1    1    2    0    0 -0.19016806572E-01 -0.13641597111E-01 -0.28212816438E-02  0.23573114645E-01  0.00000000000E+00 0.  1.
     999901    1    3    3    0    0  0.11411886692E+00  0.94504063437E-01  0.19588978294E-01  0.89260173754E+00  0.88000000000E+00 0.  1.
        -11    1    4    4    0    0 -0.50192670441E-01 -0.38938495800E-01 -0.18899132938E-01  0.66279325344E-01  0.51100000000E-03 0.  1.
         11    1    4    4    0    0 -0.44909389909E-01 -0.41923970525E-01  0.21314362877E-02  0.61475822469E-01  0.51100000000E-03 0. -1.
</event>
<event>
 8    1  0.1022673E+005  0.1043930E+01  0.7957747E-01            NaN
         13   -1    0    0    0    0  0.00000000000E+00  0.00000000000E+00  0.74505805969E-08  0.10566000000E+00  0.10566000000E+00 0.  1.
     999900   -1    0    0    0    0 -0.00000000000E+00 -0.00000000000E+00 -0.74505805969E-08  0.93827000000E+00  0.93827000000E+00 0.  1.
     999902    2    1    2    0    0 -0.11167095416E-01  0.16576820674E-01 -0.15763173178E-01  0.10184746934E+01  0.10181565344E+01 0.  0.
     999903    2    3    3    0    0 -0.14936498870E-01  0.86784905211E-01 -0.96303883930E-01  0.13200405679E+00  0.19897592298E-01 0.  0.
         14    1    1    2    0    0  0.11167095416E-01 -0.16576820674E-01  0.15763173178E-01  0.25455306565E-01  0.00000000000E+00 0.  1.
     999901    1    3    3    0    0  0.37694034540E-02 -0.70208084537E-01  0.80540710752E-01  0.88647063664E+00  0.88000000000E+00 0. -1.
        -11    1    4    4    0    0  0.11056286259E-03  0.39684312210E-01 -0.32596267555E-01  0.51357907270E-01  0.51100000000E-03 0. -1.
         11    1    4    4    0    0 -0.15047061732E-01  0.47100593002E-01 -0.63707616375E-01  0.80646149524E-01  0.51100000000E-03 0.  1.
</event>
<event>
 8    1  0.1022673E+005  0.1043930E+01  0.7957747E-01            NaN
         13   -1    0    0    0    0  0.00000000000E+00  0.00000000000E+00  0.74505805969E-08  0.10566000000E+00  0.10566000000E+00 0.  1.
     999900   -1    0    0    0    0 -0.00000000000E+00 -0.00000000000E+00 -0.74505805969E-08  0.93827000000E+00  0.93827000000E+00 0. -1.
     999902    2    1    2    0    0 -0.98041206460E-02 -0.53482845670E-02  0.18947778244E-01  0.10219358365E+01  0.10216991292E+01 0.  0.
     999903    2    3    3    0    0 -0.13010571019E+00  0.79879703041E-02 -0.17684612507E-01  0.13289575851E+00  0.18900624834E-01 0.  0.
         14    1    1    2    0    0  0.98041206460E-02  0.53482845670E-02 -0.18947778244E-01  0.21994163540E-01  0.00000000000E+00 0. -1.
     999901    1    3    3    0    0  0.12030158954E+00 -0.13336254871E-01  0.36632390751E-01  0.88904007794E+00  0.88000000000E+00 0.  1.
        -11    1    4    4    0    0 -0.11186685512E+00  0.90970219962E-03 -0.18066654983E-01  0.11332116296E+00  0.51100000000E-03 0. -1.
         11    1    4    4    0    0 -0.18238855066E-01  0.70782681044E-02  0.38204247558E-03  0.19574595550E-01  0.51100000000E-03 0.  1.
</event>
<event>
 8    1  0.1022673E+005  0.1043930E+01  0.7957747E-01            NaN
         13   -1    0    0    0    0  0.00000000000E+00  0.00000000000E+00  0.74505805969E-08  0.10566000000E+00  0.10566000000E+00 0. -1.
     999900   -1    0    0    0    0 -0.00000000000E+00 -0.00000000000E+00 -0.74505805969E-08  0.93827000000E+00  0.93827000000E+00 0. -1.
     999902    2    1    2    0    0  0.19540552913E-01 -0.81255708191E-02 -0.10284326990E-01  0.10204007524E+01  0.10201294379E+01 0.  0.
     999903    2    3    3    0    0 -0.19048774508E-01  0.54631264885E-01 -0.11585247695E+00  0.13103457875E+00  0.20020826623E-01 0.  0.
         14    1    1    2    0    0 -0.19540552913E-01  0.81255708191E-02  0.10284326990E-01  0.23529247564E-01  0.00000000000E+00 0.  1.
     999901    1    3    3    0    0  0.38589327421E-01 -0.62756835704E-01  0.10556814996E+00  0.88936617369E+00  0.88000000000E+00 0.  1.
        -11    1    4    4    0    0  0.36533317880E-02  0.15294618983E-01 -0.27141652105E-01  0.31372003490E-01  0.51100000000E-03 0. -1.
         11    1    4    4    0    0 -0.22702106296E-01  0.39336645902E-01 -0.88710824844E-01  0.99662575256E-01  0.51100000000E-03 0.  1.
</event>
<event>
 8    1  0.1022673E+005  0.1043930E+01  0.7957747E-01            NaN
         13   -1    0    0    0    0  0.00000000000E+00  0.00000000000E+00  0.74505805969E-08  0.10566000000E+00  0.10566000000E+00 0. -1.
     999900   -1    0    0    0    0 -0.00000000000E+00 -0.00000000000E+00 -0.74505805969E-08  0.93827000000E+00  0.93827000000E+00 0. -1.
     999902    2    1    2    0    0 -0.82527463155E-02  0.12253970566E-01  0.19328172738E-01  0.10196021173E+01  0.10193118422E+01 0.  0.
     999903    2    3    3    0    0 -0.12762052482E+00  0.19768525108E-01 -0.69343802376E-02  0.13112316043E+00  0.21619542805E-01 0.  0.
         14    1    1    2    0    0  0.82527463155E-02 -0.12253970566E-01 -0.19328172738E-01  0.24327882723E-01  0.00000000000E+00 0.  1.
     999901    1    3    3    0    0  0.11936777850E+00 -0.75145545425E-02  0.26262552976E-01  0.88847895685E+00  0.88000000000E+00 0.  1.
        -11    1    4    4    0    0 -0.94199101049E-01  0.24026377834E-01 -0.39633725211E-02  0.97297003617E-01  0.51100000000E-03 0.  1.
         11    1    4    4    0    0 -0.33421423771E-01 -0.42578527255E-02 -0.29710077166E-02  0.33826156811E-01  0.51100000000E-03 0. -1.
</event>
<event>
 8    1  0.1129808E+005  0.1043930E+01  0.7957747E-01            NaN
         13   -1    0    0    0    0  0.00000000000E+00  0.00000000000E+00  0.74505805969E-08  0.10566000000E+00  0.10566000000E+00 0. -1.
     999900   -1    0    0    0    0 -0.00000000000E+00 -0.00000000000E+00 -0.74505805969E-08  0.93827000000E+00  0.93827000000E+00 0. -1.
     999902    2    1    2    0    0 -0.59188472491E-02  0.21787874873E-01  0.51215295591E-02  0.10207788810E+01  0.10205163152E+01 0.  0.
     999903    2    3    3    0    0  0.32195043470E-01  0.12455272240E+00 -0.29440688289E-01  0.13330616064E+00  0.18811614895E-01 0.  0.
         14    1    1    2    0    0  0.59188472491E-02 -0.21787874873E-01 -0.51215295591E-02  0.23151118964E-01  0.00000000000E+00 0.  1.
     999901    1    3    3    0    0 -0.38113890719E-01 -0.10276484753E+00  0.34562217848E-01  0.88747272040E+00  0.88000000000E+00 0.  1.
        -11    1    4    4    0    0  0.87351459934E-02  0.66142714581E-01 -0.10272767323E-01  0.67505202297E-01  0.51100000000E-03 0.  1.
         11    1    4    4    0    0  0.23459897476E-01  0.58410007820E-01 -0.19167920967E-01  0.65800958339E-01  0.51100000000E-03 0. -1.
</event>
<event>
 8    1  0.1022673E+005  0.1043930E+01  0.7957747E-01            NaN
         13   -1    0    0    0    0  0.00000000000E+00  0.00000000000E+00  0.74505805969E-08  0.10566000000E+00  0.10566000000E+00 0. -1.
     999900   -1    0    0    0    0 -0.00000000000E+00 -0.00000000000E+00 -0.74505805969E-08  0.93827000000E+00  0.93827000000E+00 0. -1.
     999902    2    1    2    0    0  0.13171800781E-02 -0.21035741661E-01  0.11818837739E-01  0.10197655154E+01  0.10194791730E+01 0.  0.
     999903    2    3    3    0    0  0.93477488694E-02 -0.10387716228E+00  0.80908452012E-01  0.13314239039E+00  0.17403254245E-01 0.  0.
         14    1    1    2    0    0 -0.13171800781E-02  0.21035741661E-01 -0.11818837739E-01  0.24164484602E-01  0.00000000000E+00 0. -1.
     999901    1    3    3    0    0 -0.80305687913E-02  0.82841420621E-01 -0.69089614273E-01  0.88662312501E+00  0.88000000000E+00 0. -1.
        -11    1    4    4    0    0  0.94635868179E-02 -0.24697769407E-01  0.17742052882E-01  0.31852485783E-01  0.51100000000E-03 0.  1.
         11    1    4    4    0    0 -0.11583794849E-03 -0.79179392875E-01  0.63166399130E-01  0.10128990460E+00  0.51100000000E-03 0. -1.
</event>
<event>
 8    1  0.1022673E+005  0.1043930E+01  0.7957747E-01            NaN
         13   -1    0    0    0    0  0.00000000000E+00  0.00000000000E+00  0.74505805969E-08  0.10566000000E+00  0.10566000000E+00 0.  1.
     999900   -1    0    0    0    0 -0.00000000000E+00 -0.00000000000E+00 -0.74505805969E-08  0.93827000000E+00  0.93827000000E+00 0. -1.
     999902    2    1    2    0    0  0.16312121725E-01 -0.14902449404E-01 -0.73784733402E-02  0.10206360054E+01  0.10203701512E+01 0.  0.
     999903    2    3    3    0    0 -0.18822373274E-01  0.11673763386E+00 -0.48064673826E-01  0.12922201006E+00  0.20153364927E-01 0.  0.
         14    1    1    2    0    0 -0.16312121725E-01  0.14902449404E-01  0.73784733402E-02  0.23293994553E-01  0.00000000000E+00 0.  1.
     999901    1    3    3    0    0  0.35134494999E-01 -0.13164008327E+00  0.40686200486E-01  0.89141399539E+00  0.88000000000E+00 0. -1.
        -11    1    4    4    0    0 -0.17850298612E-01  0.48644814838E-01 -0.19345028663E-01  0.55312226733E-01  0.51100000000E-03 0. -1.
         11    1    4    4    0    0 -0.97207466214E-03  0.68092819026E-01 -0.28719645163E-01  0.73909783327E-01  0.51100000000E-03 0.  1.
</event>
<event>
 8    1  0.1022673E+005  0.1043930E+01  0.7957747E-01            NaN
         13   -1    0    0    0    0  0.00000000000E+00  0.00000000000E+00  0.74505805969E-08  0.10566000000E+00  0.10566000000E+00 0.  1.
     999900   -1    0    0    0    0 -0.00000000000E+00 -0.00000000000E+00 -0.74505805969E-08  0.93827000000E+00  0.93827000000E+00 0.  1.
     999902    2    1    2    0    0  0.43750727662E-02  0.12005755323E-01 -0.16234678294E-01  0.10232697918E+01  0.10230612018E+01 0.  0.
     999903    2    3    3    0    0 -0.73792997859E-02 -0.12476472653E+00  0.34249475672E-01  0.13119749667E+00  0.20471089307E-01 0.  0.
         14    1    1    2    0    0 -0.43750727662E-02 -0.12005755323E-01  0.16234678294E-01  0.20660208176E-01  0.00000000000E+00 0. -1.
     999901    1    3    3    0    0  0.11754372552E-01  0.13677048185E+00 -0.50484153966E-01  0.89207229515E+00  0.88000000000E+00 0.  1.
        -11    1    4    4    0    0 -0.13315514110E-01 -0.56560245307E-01  0.17977895145E-01  0.60826228718E-01  0.51100000000E-03 0.  1.
         11    1    4    4    0    0  0.59362143245E-02 -0.68204481222E-01  0.16271580526E-01  0.70371267952E-01  0.51100000000E-03 0. -1.
</event>
<event>
 8    1  0.1022673E+005  0.1043930E+01  0.7957747E-01            NaN
         13   -1    0    0    0    0  0.00000000000E+00  0.00000000000E+00  0.74505805969E-08  0.10566000000E+00  0.10566000000E+00 0.  1.
     999900   -1    0    0    0    0 -0.00000000000E+00 -0.00000000000E+00 -0.74505805969E-08  0.93827000000E+00  0.93827000000E+00 0.  1.
     999902    2    1    2    0    0  0.95670988608E-02 -0.16865467952E-01  0.13813716495E-01  0.10201226030E+01  0.10198447592E+01 0.  0.
     999903    2    3    3    0    0  0.21779630966E-02  0.12202041762E+00 -0.32982415126E-01  0.12797140140E+00  0.19877475400E-01 0.  0.
         14    1    1    2    0    0 -0.95670988608E-02  0.16865467952E-01 -0.13813716495E-01  0.23807397028E-01  0.00000000000E+00 0. -1.
     999901    1    3    3    0    0  0.73891357643E-02 -0.13888588557E+00  0.46796131622E-01  0.89215120158E+00  0.88000000000E+00 0. -1.
        -11    1    4    4    0    0  0.11062756292E-01  0.69463377202E-01 -0.19142433394E-01  0.72898828703E-01  0.51100000000E-03 0.  1.
         11    1    4    4    0    0 -0.88847931957E-02  0.52557040418E-01 -0.13839981732E-01  0.55072572693E-01  0.51100000000E-03 0. -1.
</event>
<event>
 8    1  0.1022673E+005  0.1043930E+01  0.7957747E-01            NaN
         13   -1    0    0    0    0  0.00000000000E+00  0.00000000000E+00  0.74505805969E-08  0.10566000000E+00  0.10566000000E+00 0. -1.
     999900   -1    0    0    0    0 -0.00000000000E+00 -0.00000000000E+00 -0.74505805969E-08  0.93827000000E+00  0.93827000000E+00 0.  1.
     999902    2    1    2    0    0 -0.78834417934E-02  0.22064027730E-01  0.35392667590E-03  0.10204972187E+01  0.10202281501E+01 0.  0.
     999903    2    3    3    0    0  0.12616341558E+00  0.60910051694E-02  0.23045883460E-01  0.12991391419E+00  0.19804155645E-01 0.  0.
         14    1    1    2    0    0  0.78834417934E-02 -0.22064027730E-01 -0.35392667590E-03  0.23432781275E-01  0.00000000000E+00 0.  1.
     999901    1    3    3    0    0 -0.13404685737E+00  0.15973022561E-01 -0.22691956784E-01  0.89058330454E+00  0.88000000000E+00 0. -1.
        -11    1    4    4    0    0  0.36791201893E-01 -0.35698088645E-02 -0.56043730444E-03  0.36971763321E-01  0.51100000000E-03 0.  1.
         11    1    4    4    0    0  0.89372213684E-01  0.96608140338E-02  0.23606320765E-01  0.92942150866E-01  0.51100000000E-03 0. -1.
</event>
<event>
 8    1  0.1022673E+005  0.1043930E+01  0.7957747E-01            NaN
         13   -1    0    0    0    0  0.00000000000E+00  0.00000000000E+00  0.74505805969E-08  0.10566000000E+00  0.10566000000E+00 0.  1.
     999900   -1    0    0    0    0 -0.00000000000E+00 -0.00000000000E+00 -0.74505805969E-08  0.93827000000E+00  0.93827000000E+00 0.  1.
     999902    2    1    2    0    0 -0.10933471602E-01  0.18591010292E-01 -0.10044717156E-01  0.10201379255E+01  0.10198604435E+01 0.  0.
     999903    2    3    3    0    0 -0.49714060756E-02 -0.54956345885E-02 -0.12985469606E+00  0.13167287628E+00  0.20508227150E-01 0.  0.
         14    1    1    2    0    0  0.10933471602E-01 -0.18591010292E-01  0.10044717156E-01  0.23792074472E-01  0.00000000000E+00 0. -1.
     999901    1    3    3    0    0 -0.59620655265E-02  0.24086644880E-01  0.11980997891E+00  0.88846504925E+00  0.88000000000E+00 0. -1.
        -11    1    4    4    0    0 -0.69524373557E-02  0.21544662819E-02 -0.11077552469E+00  0.11101556693E+00  0.51100000000E-03 0.  1.
         11    1    4    4    0    0  0.19810312801E-02 -0.76501008704E-02 -0.19079171377E-01  0.20657309352E-01  0.51100000000E-03 0. -1.
</event>
<event>
 8    1  0.1022673E+005  0.1043930E+01  0.7957747E-01            NaN
         13   -1    0    0    0    0  0.00000000000E+00  0.00000000000E+00  0.74505805969E-08  0.10566000000E+00  0.10566000000E+00 0.  1.
     999900   -1    0    0    0    0 -0.00000000000E+00 -0.00000000000E+00 -0.74505805969E-08  0.93827000000E+00  0.93827000000E+00 0. -1.
     999902    2    1    2    0    0  0.14494057507E-01  0.12944063756E-01 -0.13549252789E-01  0.10202401553E+01  0.10199650807E+01 0.  0.
     999903    2    3    3    0    0  0.91178730393E-01 -0.45413767441E-01 -0.82074714861E-01  0.13233142439E+00  0.19984391728E-01 0.  0.
         14    1    1    2    0    0 -0.14494057507E-01 -0.12944063756E-01  0.13549252789E-01  0.23689844674E-01  0.00000000000E+00 0.  1.
     999901    1    3    3    0    0 -0.76684672886E-01  0.58357831196E-01  0.68525462072E-01  0.88790873093E+00  0.88000000000E+00 0.  1.
        -11    1    4    4    0    0  0.32378750763E-01 -0.27056207550E-01 -0.34011616204E-01  0.54198459626E-01  0.51100000000E-03 0.  1.
         11    1    4    4    0    0  0.58799979630E-01 -0.18357559891E-01 -0.48063098657E-01  0.78132964766E-01  0.51100000000E-03 0. -1.
</event>
<event>
 7    1  0.1022673E+005  0.1043930E+01  0.7957747E-01            NaN
         13   -1    0    0    0    0  0.00000000000E+00  0.00000000000E+00  0.74505805969E-08  0.10566000000E+00  0.10566000000E+00 0. -1.
     999900   -1    0    0    0    0 -0.00000000000E+00 -0.00000000000E+00 -0.74505805969E-08  0.93827000000E+00  0.93827000000E+00 0. -1.
     999903    2    1    2    0    0  0.91240602192E-01 -0.19130654971E-01 -0.52419874469E-01  0.10983418690E+00  0.24997518365E-01 0.  0.
         14    1    1    2    0    0 -0.10102859495E-01 -0.20091874587E-01 -0.38754605416E-01  0.44807037788E-01  0.00000000000E+00 0.  1.
     999901    1    1    2    0    0 -0.81137742697E-01  0.39222529558E-01  0.91174479885E-01  0.88928877531E+00  0.88000000000E+00 0.  1.
        -11    1    3    3    0    0  0.83101199316E-01 -0.24494010886E-01 -0.45407730451E-01  0.97815586707E-01  0.51100000000E-03 0.  1.
         11    1    3    3    0    0  0.81394028764E-02  0.53633559154E-02 -0.70121440186E-02  0.12018600193E-01  0.51100000000E-03 0. -1.
</event>
<event>
 8    1  0.1022673E+005  0.1043930E+01  0.7957747E-01            NaN
         13   -1    0    0    0    0  0.00000000000E+00  0.00000000000E+00  0.74505805969E-08  0.10566000000E+00  0.10566000000E+00 0. -1.
     999900   -1    0    0    0    0 -0.00000000000E+00 -0.00000000000E+00 -0.74505805969E-08  0.93827000000E+00  0.93827000000E+00 0. -1.
     999902    2    1    2    0    0  0.65029352633E-02  0.83841104848E-02 -0.19946173049E-01  0.10213372734E+01  0.10210873590E+01 0.  0.
     999903    2    3    3    0    0 -0.10109383428E+00 -0.58252075342E-01  0.52472310343E-01  0.12933846017E+00  0.19021732720E-01 0.  0.
         14    1    1    2    0    0 -0.65029352633E-02 -0.83841104848E-02  0.19946173049E-01  0.22592726594E-01  0.00000000000E+00 0. -1.
     999901    1    3    3    0    0  0.10759676954E+00  0.66636185827E-01 -0.72418483392E-01  0.89199881324E+00  0.88000000000E+00 0. -1.
        -11    1    4    4    0    0 -0.34134701234E-01 -0.16893783024E-01  0.79375019038E-02  0.38908132706E-01  0.51100000000E-03 0. -1.
         11    1    4    4    0    0 -0.66959133044E-01 -0.41358292318E-01  0.44534808440E-01  0.90430327464E-01  0.51100000000E-03 0.  1.
</event>
<event>
 8    1  0.1022673E+005  0.1043930E+01  0.7957747E-01            NaN
         13   -1    0    0    0    0  0.00000000000E+00  0.00000000000E+00  0.74505805969E-08  0.10566000000E+00  0.10566000000E+00 0.  1.
     999900   -1    0    0    0    0 -0.00000000000E+00 -0.00000000000E+00 -0.74505805969E-08  0.93827000000E+00  0.93827000000E+00 0. -1.
     999902    2    1    2    0    0 -0.11959898563E-01  0.11287306640E-01  0.16869781809E-01  0.10203708828E+01  0.10200988709E+01 0.  0.
     999903    2    3    3    0    0  0.12182950691E+00  0.19201390565E-01 -0.30784423692E-01  0.12894889460E+00  0.21656743139E-01 0.  0.
         14    1    1    2    0    0  0.11959898563E-01 -0.11287306640E-01 -0.16869781809E-01  0.23559117197E-01  0.00000000000E+00 0. -1.
     999901    1    3    3    0    0 -0.13378940548E+00 -0.79140839251E-02  0.47654205501E-01  0.89142198820E+00  0.88000000000E+00 0. -1.
        -11    1    4    4    0    0  0.66081965843E-01  0.10089207571E-01 -0.27741692324E-01  0.72377350967E-01  0.51100000000E-03 0. -1.
         11    1    4    4    0    0  0.55747541070E-01  0.91121829941E-02 -0.30427313676E-02  0.56571543637E-01  0.51100000000E-03 0.  1.
</event>
<event>
 8    1  0.1022673E+005  0.1043930E+01  0.7957747E-01            NaN
         13   -1    0    0    0    0  0.00000000000E+00  0.00000000000E+00  0.74505805969E-08  0.10566000000E+00  0.10566000000E+00 0. -1.
     999900   -1    0    0    0    0 -0.00000000000E+00 -0.00000000000E+00 -0.74505805969E-08  0.93827000000E+00  0.93827000000E+00 0. -1.
     999902    2    1    2    0    0 -0.95056630205E-02  0.23167783486E-01 -0.53744076178E-02  0.10183177358E+01  0.10179955908E+01 0.  0.
     999903    2    3    3    0    0 -0.95355407707E-02  0.46763318299E-01  0.11843559474E+00  0.12933760842E+00  0.20578930365E-01 0.  0.
         14    1    1    2    0    0  0.95056630205E-02 -0.23167783486E-01  0.53744076178E-02  0.25612264218E-01  0.00000000000E+00 0.  1.
     999901    1    3    3    0    0  0.29877750153E-04 -0.23595534813E-01 -0.12381000236E+00  0.88898012736E+00  0.88000000000E+00 0. -1.
        -11    1    4    4    0    0 -0.56241110739E-02  0.47496901311E-01  0.11147445393E+00  0.12130293179E+00  0.51100000000E-03 0. -1.
         11    1    4    4    0    0 -0.39114296968E-02 -0.73358301123E-03  0.69611408081E-02  0.80346766368E-02  0.51100000000E-03 0.  1.
</event>
<event>
 8    1  0.1022673E+005  0.1043930E+01  0.7957747E-01            NaN
         13   -1    0    0    0    0  0.00000000000E+00  0.00000000000E+00  0.74505805969E-08  0.10566000000E+00  0.10566000000E+00 0.  1.
     999900   -1    0    0    0    0 -0.00000000000E+00 -0.00000000000E+00 -0.74505805969E-08  0.93827000000E+00  0.93827000000E+00 0.  1.
     999902    2    1    2    0    0 -0.12372788362E-01 -0.41476605749E-02  0.19388651716E-01  0.10205588897E+01  0.10202912519E+01 0.  0.
     999903    2    3    3    0    0  0.74264700130E-01 -0.10448090113E+00  0.15299602355E-01  0.13062095150E+00  0.19906048115E-01 0.  0.
         14    1    1    2    0    0  0.12372788362E-01  0.41476605749E-02 -0.19388651716E-01  0.23371110275E-01  0.00000000000E+00 0. -1.
     999901    1    3    3    0    0 -0.86637488492E-01  0.10033324055E+00  0.40890493611E-02  0.88993793823E+00  0.88000000000E+00 0.  1.
        -11    1    4    4    0    0  0.49858381537E-02 -0.56103517639E-02 -0.37393698705E-02  0.84011092743E-02  0.51100000000E-03 0.  1.
         11    1    4    4    0    0  0.69278861976E-01 -0.98870549366E-01  0.19038972226E-01  0.12221984222E+00  0.51100000000E-03 0. -1.
</event>
<event>
 8    1  0.1022673E+005  0.1043930E+01  0.7957747E-01            NaN
         13   -1    0    0    0    0  0.00000000000E+00  0.00000000000E+00  0.74505805969E-08  0.10566000000E+00  0.10566000000E+00 0.  1.
     999900   -1    0    0    0    0 -0.00000000000E+00 -0.00000000000E+00 -0.74505805969E-08  0.93827000000E+00  0.93827000000E+00 0.  1.
     999902    2    1    2    0    0  0.15610295642E-01  0.22101323623E-02  0.17020947618E-01  0.10207291665E+01  0.10204654589E+01 0.  0.
     999903    2    3    3    0    0  0.93439789362E-01 -0.40793589160E-01  0.84140145479E-01  0.13370507619E+00  0.20059216451E-01 0.  0.
         14    1    1    2    0    0 -0.15610295642E-01 -0.22101323623E-02 -0.17020947618E-01  0.23200833453E-01  0.00000000000E+00 0. -1.
     999901    1    3    3    0    0 -0.77829493719E-01  0.43003721523E-01 -0.67119197861E-01  0.88702409036E+00  0.88000000000E+00 0.  1.
        -11    1    4    4    0    0  0.25097621009E-01 -0.16662327283E-02  0.20619350836E-01  0.32528228691E-01  0.51100000000E-03 0. -1.
         11    1    4    4    0    0  0.68342168352E-01 -0.39127356432E-01  0.63520794642E-01  0.10117684750E+00  0.51100000000E-03 0.  1.
</event>
<event>
 8    1  0.1022673E+005  0.1043930E+01  0.7957747E-01            NaN
         13   -1    0    0    0    0  0.00000000000E+00  0.00000000000E+00  0.74505805969E-08  0.10566000000E+00  0.10566000000E+00 0.  1.
     999900   -1    0    0    0    0 -0.00000000000E+00 -0.00000000000E+00 -0.74505805969E-08  0.93827000000E+00  0.93827000000E+00 0. -1.
     999902    2    1    2    0    0  0.16929352669E-01  0.76964219054E-04  0.16932761476E-01  0.10199857456E+01  0.10197046602E+01 0.  0.
     999903    2    3    3    0    0  0.10676952839E+00 -0.49493093005E-01  0.58734288827E-01  0.13303827514E+00  0.20004187594E-01 0.  0.
         14    1    1    2    0    0 -0.16929352669E-01 -0.76964219054E-04 -0.16932761476E-01  0.23944254352E-01  0.00000000000E+00 0. -1.
     999901    1    3    3    0    0 -0.89840175720E-01  0.49570057224E-01 -0.41801527351E-01  0.88694747051E+00  0.88000000000E+00 0.  1.
        -11    1    4    4    0    0  0.93286098236E-01 -0.46982122867E-01  0.45359228373E-01  0.11387421443E+00  0.51100000000E-03 0. -1.
         11    1    4    4    0    0  0.13483430153E-01 -0.25109701379E-02  0.13375060454E-01  0.19164060709E-01  0.51100000000E-03 0.  1.
</event>
<event>
 8    1  0.1022673E+005  0.1043930E+01  0.7957747E-01            NaN
         13   -1    0    0    0    0  0.00000000000E+00  0.00000000000E+00  0.74505805969E-08  0.10566000000E+00  0.10566000000E+00 0.  1.
     999900   -1    0    0    0    0 -0.00000000000E+00 -0.00000000000E+00 -0.74505805969E-08  0.93827000000E+00  0.93827000000E+00 0.  1.
     999902    2    1    2    0    0 -0.14499653948E-01 -0.16327769274E-01  0.12300516233E-01  0.10188673043E+01  0.10185590043E+01 0.  0.
     999903    2    3    3    0    0 -0.32406830417E-01  0.12204623987E+00  0.53767499752E-02  0.12784767946E+00  0.19251814971E-01 0.  0.
         14    1    1    2    0    0  0.14499653948E-01  0.16327769274E-01 -0.12300516233E-01  0.25062695659E-01  0.00000000000E+00 0.  1.
     999901    1    3    3    0    0  0.17907176469E-01 -0.13837400915E+00  0.69237662583E-02  0.89101962488E+00  0.88000000000E+00 0.  1.
        -11    1    4    4    0    0 -0.77337339346E-02  0.25143146151E-01 -0.66303700181E-02  0.27133215189E-01  0.51100000000E-03 0. -1.
         11    1    4    4    0    0 -0.24673096483E-01  0.96903093721E-01  0.12007119993E-01  0.10071446427E+00  0.51100000000E-03 0.  1.
</event>
<event>
 8    1  0.1022673E+005  0.1043930E+01  0.7957747E-01            NaN
         13   -1    0    0    0    0  0.00000000000E+00  0.00000000000E+00  0.74505805969E-08  0.10566000000E+00  0.10566000000E+00 0.  1.
     999900   -1    0    0    0    0 -0.00000000000E+00 -0.00000000000E+00 -0.74505805969E-08  0.93827000000E+00  0.93827000000E+00 0.  1.
     999902    2    1    2    0    0  0.99949489289E-02 -0.76793162859E-02 -0.20825519908E-01  0.10195871739E+01  0.10192965378E+01 0.  0.
     999903    2    3    3    0    0 -0.13919326353E-01 -0.10148711262E+00 -0.81208029425E-01  0.13222149806E+00  0.19859477140E-01 0.  0.
         14    1    1    2    0    0 -0.99949489289E-02  0.76793162859E-02  0.20825519908E-01  0.24342826092E-01  0.00000000000E+00 0.  1.
     999901    1    3    3    0    0  0.23914275282E-01  0.93807796335E-01  0.60382509517E-01  0.88736567585E+00  0.88000000000E+00 0. -1.
        -11    1    4    4    0    0  0.31557095875E-02 -0.43599123491E-01 -0.38858966912E-01  0.58490362477E-01  0.51100000000E-03 0.  1.
         11    1    4    4    0    0 -0.17075035941E-01 -0.57887989130E-01 -0.42349062513E-01  0.73731135585E-01  0.51100000000E-03 0. -1.
</event>
<event>
 8    1  0.1022673E+005  0.1043930E+01  0.7957747E-01            NaN
         13   -1    0    0    0    0  0.00000000000E+00  0.00000000000E+00  0.74505805969E-08  0.10566000000E+00  0.10566000000E+00 0.  1.
     999900   -1    0    0    0    0 -0.00000000000E+00 -0.00000000000E+00 -0.74505805969E-08  0.93827000000E+00  0.93827000000E+00 0. -1.
     999902    2    1    2    0    0 -0.24458636007E-01  0.21034715529E-02 -0.40681871944E-02  0.10190462781E+01  0.10187424195E+01 0.  0.
     999903    2    3    3    0    0  0.64143280627E-01  0.75721361684E-01  0.78013973613E-01  0.12775094294E+00  0.19647856837E-01 0.  0.
         14    1    1    2    0    0  0.24458636007E-01 -0.21034715529E-02  0.40681871944E-02  0.24883721887E-01  0.00000000000E+00 0.  1.
     999901    1    3    3    0    0 -0.88601916634E-01 -0.73617890131E-01 -0.82082160807E-01  0.89129533517E+00  0.88000000000E+00 0.  1.
        -11    1    4    4    0    0  0.22871433111E-01  0.19160275949E-01  0.33092850224E-01  0.44560256776E-01  0.51100000000E-03 0. -1.
         11    1    4    4    0    0  0.41271847516E-01  0.56561085735E-01  0.44921123389E-01  0.83190686164E-01  0.51100000000E-03 0.  1.
</event>
<event>
 8    1  0.1022673E+005  0.1043930E+01  0.7957747E-01            NaN
         13   -1    0    0    0    0  0.00000000000E+00  0.00000000000E+00  0.74505805969E-08  0.10566000000E+00  0.10566000000E+00 0.  1.
     999900   -1    0    0    0    0 -0.00000000000E+00 -0.00000000000E+00 -0.74505805969E-08  0.93827000000E+00  0.93827000000E+00 0. -1.
     999902    2    1    2    0    0 -0.24293220390E-02  0.23169687233E-01 -0.39084430596E-02  0.10203077237E+01  0.10200342342E+01 0.  0.
     999903    2    3    3    0    0  0.88015774496E-01  0.87053859792E-01 -0.42672051573E-01  0.13252164564E+00  0.20394399058E-01 0.  0.
         14    1    1    2    0    0  0.24293220390E-02 -0.23169687233E-01  0.39084430596E-02  0.23622276334E-01  0.00000000000E+00 0.  1.
     999901    1    3    3    0    0 -0.90445096535E-01 -0.63884172559E-01  0.38763608513E-01  0.88778607803E+00  0.88000000000E+00 0. -1.
        -11    1    4    4    0    0  0.62126148155E-01  0.53044820111E-01 -0.19867255330E-01  0.84073659255E-01  0.51100000000E-03 0. -1.
         11    1    4    4    0    0  0.25889626340E-01  0.34009039682E-01 -0.22804796242E-01  0.48447986385E-01  0.51100000000E-03 0.  1.
</event>
<event>
 8    1  0.1022673E+005  0.1043930E+01  0.7957747E-01            NaN
         13   -1    0    0    0    0  0.00000000000E+00  0.00000000000E+00  0.74505805969E-08  0.10566000000E+00  0.10566000000E+00 0. -1.
     999900   -1    0    0    0    0 -0.00000000000E+00 -0.00000000000E+00 -0.74505805969E-08  0.93827000000E+00  0.93827000000E+00 0. -1.
     999902    2    1    2    0    0  0.88069404500E-03  0.20224089562E-01 -0.15456543932E-01  0.10184605247E+01  0.10181420069E+01 0.  0.
     999903    2    3    3    0    0  0.21256385932E-01  0.10527958590E-01  0.12349654399E+00  0.12727191145E+00  0.19597734889E-01 0.  0.
         14    1    1    2    0    0 -0.88069404500E-03 -0.20224089562E-01  0.15456543932E-01  0.25469475278E-01  0.00000000000E+00 0. -1.
     999901    1    3    3    0    0 -0.20375691887E-01  0.96961309724E-02 -0.13895308792E+00  0.89118861327E+00  0.88000000000E+00 0. -1.
        -11    1    4    4    0    0  0.21624404203E-01  0.11541015804E-01  0.78055878428E-01  0.81815592530E-01  0.51100000000E-03 0.  1.
         11    1    4    4    0    0 -0.36801827185E-03 -0.10130572145E-02  0.45440665562E-01  0.45456318923E-01  0.51100000000E-03 0. -1.
</event>
<event>
 8    1  0.1022673E+005  0.1043930E+01  0.7957747E-01            NaN
         13   -1    0    0    0    0  0.00000000000E+00  0.00000000000E+00  0.74505805969E-08  0.10566000000E+00  0.10566000000E+00 0. -1.
     999900   -1    0    0    0    0 -0.00000000000E+00 -0.00000000000E+00 -0.74505805969E-08  0.93827000000E+00  0.93827000000E+00 0.  1.
     999902    2    1    2    0    0  0.22634812578E-01  0.54211114209E-02 -0.41102857513E-02  0.10202949066E+01  0.10200211169E+01 0.  0.
     999903    2    3    3    0    0  0.99873755599E-02  0.40269130588E-01  0.12211447694E+00  0.13051570210E+00  0.20026294410E-01 0.  0.
         14    1    1    2    0    0 -0.22634812578E-01 -0.54211114209E-02  0.41102857513E-02  0.23635093366E-01  0.00000000000E+00 0. -1.
     999901    1    3    3    0    0  0.12647437018E-01 -0.34848019167E-01 -0.12622476269E+00  0.88977920453E+00  0.88000000000E+00 0.  1.
        -11    1    4    4    0    0  0.15811067869E-01  0.33747721308E-01  0.10094824421E+00  0.10760905023E+00  0.51100000000E-03 0. -1.
         11    1    4    4    0    0 -0.58236923095E-02  0.65214092804E-02  0.21166232726E-01  0.22906651871E-01  0.51100000000E-03 0.  1.
</event>
<event>
 8    1  0.1022673E+005  0.1043930E+01  0.7957747E-01            NaN
         13   -1    0    0    0    0  0.00000000000E+00  0.00000000000E+00  0.74505805969E-08  0.10566000000E+00  0.10566000000E+00 0. -1.
     999900   -1    0    0    0    0 -0.00000000000E+00 -0.00000000000E+00 -0.74505805969E-08  0.93827000000E+00  0.93827000000E+00 0.  1.
     999902    2    1    2    0    0  0.11226954784E-01  0.46616547780E-02  0.19496562903E-01  0.10209541104E+01  0.10206955491E+01 0.  0.
     999903    2    3    3    0    0  0.99448258875E-01 -0.53384436145E-01 -0.63328801185E-01  0.13077862874E+00  0.18779202866E-01 0.  0.
         14    1    1    2    0    0 -0.11226954784E-01 -0.46616547780E-02 -0.19496562903E-01  0.22975889624E-01  0.00000000000E+00 0. -1.
     999901    1    3    3    0    0 -0.88221304091E-01  0.58046090923E-01  0.82825364088E-01  0.89017548163E+00  0.88000000000E+00 0. -1.
        -11    1    4    4    0    0  0.39393424601E-01 -0.31115517589E-01 -0.24326994544E-01  0.55786029803E-01  0.51100000000E-03 0. -1.
         11    1    4    4    0    0  0.60054834274E-01 -0.22268918555E-01 -0.39001806641E-01  0.74992598939E-01  0.51100000000E-03 0.  1.
</event>
<event>
 8    1  0.1022673E+005  0.1043930E+01  0.7957747E-01            NaN
         13   -1    0    0    0    0  0.00000000000E+00  0.00000000000E+00  0.74505805969E-08  0.10566000000E+00  0.10566000000E+00 0.  1.
     999900   -1    0    0    0    0 -0.00000000000E+00 -0.00000000000E+00 -0.74505805969E-08  0.93827000000E+00  0.93827000000E+00 0.  1.
     999902    2    1    2    0    0 -0.16190621234E-01  0.18816895937E-01  0.27906531294E-02  0.10189500173E+01  0.10186437740E+01 0.  0.
     999903    2    3    3    0    0 -0.10452252505E-01  0.12985520489E+00 -0.52825877963E-02  0.13191697841E+00  0.20063888950E-01 0.  0.
         14    1    1    2    0    0  0.16190621234E-01 -0.18816895937E-01 -0.27906531294E-02  0.24979982657E-01  0.00000000000E+00 0. -1.
     999901    1    3    3    0    0 -0.57383687287E-02 -0.11103830896E+00  0.80732409257E-02  0.88703303893E+00  0.88000000000E+00 0. -1.
        -11    1    4    4    0    0 -0.14898338517E-01  0.76878395372E-01 -0.77593134135E-02  0.78693813170E-01  0.51100000000E-03 0. -1.
         11    1    4    4    0    0  0.44460860113E-02  0.52976809521E-01  0.24767256172E-02  0.53223165244E-01  0.51100000000E-03 0.  1.
</event>
<event>
 8    1  0.1022673E+005  0.1043930E+01  0.7957747E-01            NaN
         13   -1    0    0    0    0  0.00000000000E+00  0.00000000000E+00  0.74505805969E-08  0.10566000000E+00  0.10566000000E+00 0. -1.
     999900   -1    0    0    0    0 -0.00000000000E+00 -0.00000000000E+00 -0.74505805969E-08  0.93827000000E+00  0.93827000000E+00 0. -1.
     999902    2    1    2    0    0 -0.80739805365E-02 -0.39576174417E-02 -0.25621299523E-01  0.10167766782E+01  0.10164140448E+01 0.  0.
     999903    2    3    3    0    0  0.95210150557E-01  0.67268209504E-01 -0.48531517291E-01  0.12758288138E+00  0.18223574610E-01 0.  0.
         14    1    1    2    0    0  0.80739805365E-02  0.39576174417E-02  0.25621299523E-01  0.27153321837E-01  0.00000000000E+00 0. -1.
     999901    1    3    3    0    0 -0.10328413109E+00 -0.71225826946E-01  0.22910217768E-01  0.88919379678E+00  0.88000000000E+00 0.  1.
        -11    1    4    4    0    0  0.51554708914E-01  0.47293184680E-01 -0.29875184185E-01  0.76074444326E-01  0.51100000000E-03 0. -1.
         11    1    4    4    0    0  0.43655441643E-01  0.19975024824E-01 -0.18656333106E-01  0.51508437054E-01  0.51100000000E-03 0.  1.
</event>
<event>
 8    1  0.1022673E+005  0.1043930E+01  0.7957747E-01            NaN
         13   -1    0    0    0    0  0.00000000000E+00  0.00000000000E+00  0.74505805969E-08  0.10566000000E+00  0.10566000000E+00 0. -1.
     999900   -1    0    0    0    0 -0.00000000000E+00 -0.00000000000E+00 -0.74505805969E-08  0.93827000000E+00  0.93827000000E+00 0. -1.
     999902    2    1    2    0    0 -0.37174521375E-02  0.96810717803E-02 -0.14937165106E-01  0.10257458997E+01  0.10255847061E+01 0.  0.
     999903    2    3    3    0    0  0.22638882382E-01 -0.85149094702E-01 -0.10163410413E+00  0.13602472089E+00  0.20257004865E-01 0.  0.
         14    1    1    2    0    0  0.37174521375E-02 -0.96810717803E-02  0.14937165106E-01  0.18184100270E-01  0.00000000000E+00 0. -1.
     999901    1    3    3    0    0 -0.26356334519E-01  0.94830166482E-01  0.86696939025E-01  0.88972117884E+00  0.88000000000E+00 0. -1.
        -11    1    4    4    0    0  0.74040156300E-02 -0.41599355614E-01 -0.34436145646E-01  0.54510871236E-01  0.51100000000E-03 0. -1.
         11    1    4    4    0    0  0.15234866752E-01 -0.43549739088E-01 -0.67197958484E-01  0.81513849652E-01  0.51100000000E-03 0.  1.
</event>
<event>
 8    1  0.1022673E+005  0.1043930E+01  0.7957747E-01            NaN
         13   -1    0    0    0    0  0.00000000000E+00  0.00000000000E+00  0.74505805969E-08  0.10566000000E+00  0.10566000000E+00 0.  1.
     999900   -1    0    0    0    0 -0.00000000000E+00 -0.00000000000E+00 -0.74505805969E-08  0.93827000000E+00  0.93827000000E+00 0. -1.
     999902    2    1    2    0    0 -0.10663157840E-01 -0.12628889209E-01  0.69945004768E-02  0.10259824427E+01  0.10258254519E+01 0.  0.
     999903    2    3    3    0    0 -0.22471111238E-01  0.81892651721E-01  0.10458306906E+00  0.13547849646E+00  0.14333437266E-01 0.  0.
         14    1    1    2    0    0  0.10663157840E-01  0.12628889209E-01 -0.69945004768E-02  0.17947557346E-01  0.00000000000E+00 0. -1.
     999901    1    3    3    0    0  0.11807953398E-01 -0.94521540929E-01 -0.97588568583E-01  0.89050394619E+00  0.88000000000E+00 0. -1.
        -11    1    4    4    0    0 -0.11029111311E-02  0.21139444859E-01  0.32777421638E-01  0.39021955770E-01  0.51100000000E-03 0.  1.
         11    1    4    4    0    0 -0.21368200107E-01  0.60753206862E-01  0.71805647422E-01  0.96456540693E-01  0.51100000000E-03 0. -1.
</event>
<event>
 8    1  0.1022673E+005  0.1043930E+01  0.7957747E-01            NaN
         13   -1    0    0    0    0  0.00000000000E+00  0.00000000000E+00  0.74505805969E-08  0.10566000000E+00  0.10566000000E+00 0. -1.
     999900   -1    0    0    0    0 -0.00000000000E+00 -0.00000000000E+00 -0.74505805969E-08  0.93827000000E+00  0.93827000000E+00 0. -1.
     999902    2    1    2    0    0  0.11076065580E-01  0.17023642800E-01 -0.11807567604E-01  0.10204373991E+01  0.10201669389E+01 0.  0.
     999903    2    3    3    0    0  0.11423130170E+00 -0.45923540820E-02 -0.64451643555E-01  0.13258625575E+00  0.18847303619E-01 0.  0.
         14    1    1    2    0    0 -0.11076065580E-01 -0.17023642800E-01  0.11807567604E-01  0.23492600870E-01  0.00000000000E+00 0. -1.
     999901    1    3    3    0    0 -0.10315523612E+00  0.21615996882E-01  0.52644075951E-01  0.88785114338E+00  0.88000000000E+00 0. -1.
        -11    1    4    4    0    0  0.53645881013E-01 -0.98570732268E-02 -0.24319045393E-01  0.59722018821E-01  0.51100000000E-03 0.  1.
         11    1    4    4    0    0  0.60585420688E-01  0.52647191448E-02 -0.40132598162E-01  0.72864236933E-01  0.51100000000E-03 0. -1.
</event>
<event>
 8    1  0.1022673E+005  0.1043930E+01  0.7957747E-01            NaN
         13   -1    0    0    0    0  0.00000000000E+00  0.00000000000E+00  0.74505805969E-08  0.10566000000E+00  0.10566000000E+00 0.  1.
     999900   -1    0    0    0    0 -0.00000000000E+00 -0.00000000000E+00 -0.74505805969E-08  0.93827000000E+00  0.93827000000E+00 0.  1.
     999902    2    1    2    0    0  0.14321850171E-01  0.20067472176E-01  0.49763760404E-02  0.10187787943E+01  0.10184682855E+01 0.  0.
     999903    2    3    3    0    0  0.29031418179E-02  0.24474374288E-01 -0.12498123682E+00  0.12915033876E+00  0.21262107539E-01 0.  0.
         14    1    1    2    0    0 -0.14321850171E-01 -0.20067472176E-01 -0.49763760404E-02  0.25151205744E-01  0.00000000000E+00 0. -1.
     999901    1    3    3    0    0  0.11418708353E-01 -0.44069021115E-02  0.12995761286E+00  0.88962845549E+00  0.88000000000E+00 0. -1.
        -11    1    4    4    0    0  0.10690057535E-01  0.21435955835E-01 -0.98740376353E-01  0.10160561292E+00  0.51100000000E-03 0. -1.
         11    1    4    4    0    0 -0.77869157174E-02  0.30384184530E-02 -0.26240860463E-01  0.27544725846E-01  0.51100000000E-03 0.  1.
</event>
<event>
 8    1  0.1022673E+005  0.1043930E+01  0.7957747E-01            NaN
         13   -1    0    0    0    0  0.00000000000E+00  0.00000000000E+00  0.74505805969E-08  0.10566000000E+00  0.10566000000E+00 0.  1.
     999900   -1    0    0    0    0 -0.00000000000E+00 -0.00000000000E+00 -0.74505805969E-08  0.93827000000E+00  0.93827000000E+00 0.  1.
     999902    2    1    2    0    0  0.21987298611E-01  0.94839269535E-02 -0.10895465851E-02  0.10199597417E+01  0.10196780381E+01 0.  0.
     999903    2    3    3    0    0  0.29028315017E-01 -0.36392711148E-01  0.12023857858E+00  0.13042348287E+00  0.19644251285E-01 0.  0.
         14    1    1    2    0    0 -0.21987298611E-01 -0.94839269535E-02  0.10895465851E-02  0.23970258289E-01  0.00000000000E+00 0.  1.
     999901    1    3    3    0    0 -0.70410164059E-02  0.45876638101E-01 -0.12132812516E+00  0.88953625884E+00  0.88000000000E+00 0.  1.
        -11    1    4    4    0    0 -0.48234203607E-03 -0.55969609844E-02  0.31063376037E-01  0.31571396516E-01  0.51100000000E-03 0.  1.
         11    1    4    4    0    0  0.29510657053E-01 -0.30795750163E-01  0.89175202540E-01  0.98852086355E-01  0.51100000000E-03 0. -1.
</event>
<event>
 8    1  0.1022673E+005  0.1043930E+01  0.7957747E-01            NaN
         13   -1    0    0    0    0  0.00000000000E+00  0.00000000000E+00  0.74505805969E-08  0.10566000000E+00  0.10566000000E+00 0. -1.
     999900   -1    0    0    0    0 -0.00000000000E+00 -0.00000000000E+00 -0.74505805969E-08  0.93827000000E+00  0.93827000000E+00 0.  1.
     999902    2    1    2    0    0  0.18420779018E-01  0.15039842487E-01 -0.62546671092E-03  0.10201410704E+01  0.10198636627E+01 0.  0.
     999903    2    3    3    0    0  0.97740022514E-01 -0.47418816012E-01 -0.71416012481E-01  0.13154446466E+00  0.20051015702E-01 0.  0.
         14    1    1    2    0    0 -0.18420779018E-01 -0.15039842487E-01  0.62546671092E-03  0.23788929574E-01  0.00000000000E+00 0. -1.
     999901    1    3    3    0    0 -0.79319243495E-01  0.62458658499E-01  0.70790545770E-01  0.88859660577E+00  0.88000000000E+00 0. -1.
        -11    1    4    4    0    0  0.44713367749E-01 -0.32456115237E-01 -0.38787243076E-01  0.67508488490E-01  0.51100000000E-03 0.  1.
         11    1    4    4    0    0  0.53026654765E-01 -0.14962700775E-01 -0.32628769405E-01  0.64035976169E-01  0.51100000000E-03 0. -1.
</event>
<event>
 8    1  0.1022673E+005  0.1043930E+01  0.7957747E-01            NaN
         13   -1    0    0    0    0  0.00000000000E+00  0.00000000000E+00  0.74505805969E-08  0.10566000000E+00  0.10566000000E+00 0. -1.
     999900   -1    0    0    0    0 -0.00000000000E+00 -0.00000000000E+00 -0.74505805969E-08  0.93827000000E+00  0.93827000000E+00 0. -1.
     999902    2    1    2    0    0  0.18484645364E-04  0.30106348117E-02  0.23380729569E-01  0.10203562269E+01  0.10200838725E+01 0.  0.
     999903    2    3    3    0    0 -0.10061224651E+00  0.81071217644E-01 -0.16626659952E-02  0.13083547372E+00  0.20488783470E-01 0.  0.
         14    1    1    2    0    0 -0.18484645364E-04 -0.30106348117E-02 -0.23380729569E-01  0.23573773114E-01  0.00000000000E+00 0.  1.
     999901    1    3    3    0    0  0.10063073116E+00 -0.78060582832E-01  0.25043395564E-01  0.88952075316E+00  0.88000000000E+00 0.  1.
        -11    1    4    4    0    0 -0.63894212869E-01  0.50663969415E-01  0.88180899517E-02  0.82020290578E-01  0.51100000000E-03 0. -1.
         11    1    4    4    0    0 -0.36718033642E-01  0.30407248228E-01 -0.10480755947E-01  0.48815183146E-01  0.51100000000E-03 0.  1.
</event>
<event>
 8    1  0.1022673E+005  0.1043930E+01  0.7957747E-01            NaN
         13   -1    0    0    0    0  0.00000000000E+00  0.00000000000E+00  0.74505805969E-08  0.10566000000E+00  0.10566000000E+00 0. -1.
     999900   -1    0    0    0    0 -0.00000000000E+00 -0.00000000000E+00 -0.74505805969E-08  0.93827000000E+00  0.93827000000E+00 0.  1.
     999902    2    1    2    0    0  0.19383310042E-01  0.11585242280E-01 -0.34457607357E-03  0.10213457294E+01  0.10210960041E+01 0.  0.
     999903    2    3    3    0    0 -0.88024695606E-01  0.48473973724E-01 -0.80600361048E-01  0.13042584005E+00  0.20406086971E-01 0.  0.
         14    1    1    2    0    0 -0.19383310042E-01 -0.11585242280E-01  0.34457607357E-03  0.22584270623E-01  0.00000000000E+00 0.  1.
     999901    1    3    3    0    0  0.10740800565E+00 -0.36888731444E-01  0.80255784974E-01  0.89091988933E+00  0.88000000000E+00 0.  1.
        -11    1    4    4    0    0 -0.25185290259E-01  0.23782796066E-01 -0.22126282451E-01  0.41106614191E-01  0.51100000000E-03 0.  1.
         11    1    4    4    0    0 -0.62839405347E-01  0.24691177658E-01 -0.58474078597E-01  0.89319225855E-01  0.51100000000E-03 0. -1.
</event>
<event>
 8    1  0.1120805E+005  0.1043930E+01  0.7957747E-01            NaN
         13   -1    0    0    0    0  0.00000000000E+00  0.00000000000E+00  0.74505805969E-08  0.10566000000E+00  0.10566000000E+00 0.  1.
     999900   -1    0    0    0    0 -0.00000000000E+00 -0.00000000000E+00 -0.74505805969E-08  0.93827000000E+00  0.93827000000E+00 0.  1.
     999902    2    1    2    0    0  0.56483394814E-02 -0.84148495342E-02 -0.21820329433E-01  0.10198709018E+01  0.10195870811E+01 0.  0.
     999903    2    3    3    0    0  0.79815429727E-01 -0.81748679804E-01  0.58860565185E-01  0.13004619167E+00  0.19851860379E-01 0.  0.
         14    1    1    2    0    0 -0.56483394814E-02  0.84148495342E-02  0.21820329433E-01  0.24059098241E-01  0.00000000000E+00 0.  1.
     999901    1    3    3    0    0 -0.74167090246E-01  0.73333830270E-01 -0.80680894618E-01  0.88982471009E+00  0.88000000000E+00 0.  1.
        -11    1    4    4    0    0  0.37293703350E-01 -0.52168197984E-01  0.31030945165E-01  0.71242696954E-01  0.51100000000E-03 0.  1.
         11    1    4    4    0    0  0.42521726377E-01 -0.29580481820E-01  0.27829620020E-01  0.58803494711E-01  0.51100000000E-03 0. -1.
</event>
<event>
 8    1  0.1022673E+005  0.1043930E+01  0.7957747E-01            NaN
         13   -1    0    0    0    0  0.00000000000E+00  0.00000000000E+00  0.74505805969E-08  0.10566000000E+00  0.10566000000E+00 0. -1.
     999900   -1    0    0    0    0 -0.00000000000E+00 -0.00000000000E+00 -0.74505805969E-08  0.93827000000E+00  0.93827000000E+00 0.  1.
     999902    2    1    2    0    0 -0.41150719923E-02  0.19254763152E-01 -0.10943589811E-01  0.10214035294E+01  0.10211550949E+01 0.  0.
     999903    2    3    3    0    0 -0.76773248780E-01 -0.58555123647E-01  0.84336281577E-01  0.12988132379E+00  0.20825840798E-01 0.  0.
         14    1    1    2    0    0  0.41150719923E-02 -0.19254763152E-01  0.10943589811E-01  0.22526470640E-01  0.00000000000E+00 0. -1.
     999901    1    3    3    0    0  0.72658176788E-01  0.77809886799E-01 -0.95279871388E-01  0.89152220557E+00  0.88000000000E+00 0.  1.
        -11    1    4    4    0    0 -0.16648051199E-01 -0.24599814771E-01  0.26396832597E-01  0.39741192579E-01  0.51100000000E-03 0. -1.
         11    1    4    4    0    0 -0.60125197581E-01 -0.33955308876E-01  0.57939448980E-01  0.90140131208E-01  0.51100000000E-03 0.  1.
</event>
<event>
 8    1  0.1022673E+005  0.1043930E+01  0.7957747E-01            NaN
         13   -1    0    0    0    0  0.00000000000E+00  0.00000000000E+00  0.74505805969E-08  0.10566000000E+00  0.10566000000E+00 0. -1.
     999900   -1    0    0    0    0 -0.00000000000E+00 -0.00000000000E+00 -0.74505805969E-08  0.93827000000E+00  0.93827000000E+00 0. -1.
     999902    2    1    2    0    0 -0.84145731355E-02 -0.22553775015E-01  0.20762586538E-02  0.10197682811E+01  0.10194820050E+01 0.  0.
     999903    2    3    3    0    0  0.69981926397E-01  0.95273839789E-01 -0.43210451054E-01  0.12731086253E+00  0.19139959962E-01 0.  0.
         14    1    1    2    0    0  0.84145731355E-02  0.22553775015E-01 -0.20762586538E-02  0.24161718864E-01  0.00000000000E+00 0.  1.
     999901    1    3    3    0    0 -0.78396499532E-01 -0.11782761480E+00  0.45286709708E-01  0.89245741861E+00  0.88000000000E+00 0. -1.
        -11    1    4    4    0    0  0.36177140542E-01  0.56943705031E-01 -0.33349514277E-01  0.75258370059E-01  0.51100000000E-03 0. -1.
         11    1    4    4    0    0  0.33804785855E-01  0.38330134758E-01 -0.98609367777E-02  0.52052492471E-01  0.51100000000E-03 0.  1.
</event>
<event>
 8    1  0.1022673E+005  0.1043930E+01  0.7957747E-01            NaN
         13   -1    0    0    0    0  0.00000000000E+00  0.00000000000E+00  0.74505805969E-08  0.10566000000E+00  0.10566000000E+00 0. -1.
     999900   -1    0    0    0    0 -0.00000000000E+00 -0.00000000000E+00 -0.74505805969E-08  0.93827000000E+00  0.93827000000E+00 0. -1.
     999902    2    1    2    0    0  0.17804325381E-01  0.13829555468E-01  0.10918428595E-02  0.10213591620E+01  0.10211097370E+01 0.  0.
     999903    2    3    3    0    0  0.12903554513E+00  0.17930880444E-01  0.24951018415E-01  0.13402694386E+00  0.19208851575E-01 0.  0.
         14    1    1    2    0    0 -0.17804325381E-01 -0.13829555468E-01 -0.10918428595E-02  0.22570837990E-01  0.00000000000E+00 0.  1.
     999901    1    3    3    0    0 -0.11123121975E+00 -0.41013249754E-02 -0.23859175555E-01  0.88733221815E+00  0.88000000000E+00 0.  1.
        -11    1    4    4    0    0  0.14609548482E-01 -0.14678927253E-02 -0.21405201977E-02  0.14847106237E-01  0.51100000000E-03 0.  1.
         11    1    4    4    0    0  0.11442599665E+00  0.19398773169E-01  0.27091538612E-01  0.11917983762E+00  0.51100000000E-03 0. -1.
</event>
<event>
 8    1  0.1022673E+005  0.1043930E+01  0.7957747E-01            NaN
         13   -1    0    0    0    0  0.00000000000E+00  0.00000000000E+00  0.74505805969E-08  0.10566000000E+00  0.10566000000E+00 0.  1.
     999900   -1    0    0    0    0 -0.00000000000E+00 -0.00000000000E+00 -0.74505805969E-08  0.93827000000E+00  0.93827000000E+00 0. -1.
     999902    2    1    2    0    0 -0.19367218107E-01 -0.39121161341E-02 -0.11431985745E-01  0.10211027337E+01  0.10208475443E+01 0.  0.
     999903    2    3    3    0    0 -0.93864381255E-01 -0.92300347510E-01  0.67157670322E-02  0.13335747309E+00  0.20229628831E-01 0.  0.
         14    1    1    2    0    0  0.19367218107E-01  0.39121161341E-02  0.11431985745E-01  0.22827266326E-01  0.00000000000E+00 0.  1.
     999901    1    3    3    0    0  0.74497163148E-01  0.88388231376E-01 -0.18147752777E-01  0.88774526059E+00  0.88000000000E+00 0. -1.
        -11    1    4    4    0    0 -0.33284233292E-01 -0.44795475534E-01 -0.22207909486E-02  0.55853986854E-01  0.51100000000E-03 0. -1.
         11    1    4    4    0    0 -0.60580147963E-01 -0.47504871976E-01  0.89365579808E-02  0.77503486233E-01  0.51100000000E-03 0.  1.
</event>
<event>
 8    1  0.1022673E+005  0.1043930E+01  0.7957747E-01            NaN
         13   -1    0    0    0    0  0.00000000000E+00  0.00000000000E+00  0.74505805969E-08  0.10566000000E+00  0.10566000000E+00 0.  1.
     999900   -1    0    0    0    0 -0.00000000000E+00 -0.00000000000E+00 -0.74505805969E-08  0.93827000000E+00  0.93827000000E+00 0.  1.
     999902    2    1    2    0    0 -0.27212793061E-02  0.23323857832E-01 -0.63026225308E-02  0.10196168193E+01  0.10193268992E+01 0.  0.
     999903    2    3    3    0    0 -0.35317109337E-01  0.11119954805E+00  0.55598740891E-01  0.13247736923E+00  0.29092880095E-01 0.  0.
         14    1    1    2    0    0  0.27212793061E-02 -0.23323857832E-01  0.63026225308E-02  0.24313180705E-01  0.00000000000E+00 0. -1.
     999901    1    3    3    0    0  0.32595830031E-01 -0.87875690214E-01 -0.61901363422E-01  0.88713945006E+00  0.88000000000E+00 0.  1.
        -11    1    4    4    0    0 -0.26691457886E-01  0.10177342746E+00  0.40626177032E-01  0.11278746314E+00  0.51100000000E-03 0. -1.
         11    1    4    4    0    0 -0.86256514507E-02  0.94261205863E-02  0.14972563859E-01  0.19689906088E-01  0.51100000000E-03 0.  1.
</event>
<event>
 8    1  0.1022673E+005  0.1043930E+01  0.7957747E-01            NaN
         13   -1    0    0    0    0  0.00000000000E+00  0.00000000000E+00  0.74505805969E-08  0.10566000000E+00  0.10566000000E+00 0. -1.
     999900   -1    0    0    0    0 -0.00000000000E+00 -0.00000000000E+00 -0.74505805969E-08  0.93827000000E+00  0.93827000000E+00 0.  1.
     999902    2    1    2    0    0  0.28504333035E-01  0.26568086182E-03 -0.43188429415E-02  0.10150991139E+01  0.10146896033E+01 0.  0.
     999903    2    3    3    0    0 -0.70720424449E-01 -0.98222098440E-01  0.16519133594E-01  0.12381935063E+00  0.20233407034E-01 0.  0.
         14    1    1    2    0    0 -0.28504333035E-01 -0.26568086182E-03  0.43188429415E-02  0.28830886085E-01  0.00000000000E+00 0. -1.
     999901    1    3    3    0    0  0.99224757484E-01  0.98487779302E-01 -0.20837976536E-01  0.89127976328E+00  0.88000000000E+00 0. -1.
        -11    1    4    4    0    0 -0.11080342576E-01 -0.26174365007E-01  0.97116827345E-02  0.30040793559E-01  0.51100000000E-03 0. -1.
         11    1    4    4    0    0 -0.59640081873E-01 -0.72047733434E-01  0.68074508600E-02  0.93778557074E-01  0.51100000000E-03 0.  1.
</event>
<event>
 8    1  0.1022673E+005  0.1043930E+01  0.7957747E-01            NaN
         13   -1    0    0    0    0  0.00000000000E+00  0.00000000000E+00  0.74505805969E-08  0.10566000000E+00  0.10566000000E+00 0.  1.
     999900   -1    0    0    0    0 -0.00000000000E+00 -0.00000000000E+00 -0.74505805969E-08  0.93827000000E+00  0.93827000000E+00 0. -1.
     999902    2    1    2    0    0  0.13761430541E-01  0.18976491055E-01  0.54582026227E-02  0.10198618435E+01  0.10195778065E+01 0.  0.
     999903    2    3    3    0    0  0.64410572242E-01 -0.99866499605E-01 -0.45917864197E-01  0.12894742994E+00  0.19923600952E-01 0.  0.
         14    1    1    2    0    0 -0.13761430541E-01 -0.18976491055E-01 -0.54582026227E-02  0.24068156539E-01  0.00000000000E+00 0. -1.
     999901    1    3    3    0    0 -0.50649141701E-01  0.11884299066E+00  0.51376066820E-01  0.89091441352E+00  0.88000000000E+00 0.  1.
        -11    1    4    4    0    0  0.35450168737E-01 -0.36855775701E-01 -0.18892334987E-01  0.54518291502E-01  0.51100000000E-03 0.  1.
         11    1    4    4    0    0  0.28960403506E-01 -0.63010723903E-01 -0.27025529211E-01  0.74429138435E-01  0.51100000000E-03 0. -1.
</event>
<event>
 8    1  0.1022673E+005  0.1043930E+01  0.7957747E-01            NaN
         13   -1    0    0    0    0  0.00000000000E+00  0.00000000000E+00  0.74505805969E-08  0.10566000000E+00  0.10566000000E+00 0. -1.
     999900   -1    0    0    0    0 -0.00000000000E+00 -0.00000000000E+00 -0.74505805969E-08  0.93827000000E+00  0.93827000000E+00 0. -1.
     999902    2    1    2    0    0  0.72206103520E-02 -0.15911974502E-01 -0.20757141518E-01  0.10167972325E+01  0.10164351553E+01 0.  0.
     999903    2    3    3    0    0  0.11489325609E-01  0.66995846455E-01  0.10233376778E+00  0.12436051172E+00  0.19310328890E-01 0.  0.
         14    1    1    2    0    0 -0.72206103520E-02  0.15911974502E-01  0.20757141518E-01  0.27132767467E-01  0.00000000000E+00 0. -1.
     999901    1    3    3    0    0 -0.42687152568E-02 -0.82907820957E-01 -0.12309090930E+00  0.89243672081E+00  0.88000000000E+00 0. -1.
        -11    1    4    4    0    0 -0.24295356464E-02  0.21363541257E-01  0.20960510456E-01  0.30031777471E-01  0.51100000000E-03 0.  1.
         11    1    4    4    0    0  0.13918861255E-01  0.45632305198E-01  0.81373257324E-01  0.94328734248E-01  0.51100000000E-03 0. -1.
</event>
<event>
 8    1  0.1022673E+005  0.1043930E+01  0.7957747E-01            NaN
         13   -1    0    0    0    0  0.00000000000E+00  0.00000000000E+00  0.74505805969E-08  0.10566000000E+00  0.10566000000E+00 0.  1.
     999900   -1    0    0    0    0 -0.00000000000E+00 -0.00000000000E+00 -0.74505805969E-08  0.93827000000E+00  0.93827000000E+00 0.  1.
     999902    2    1    2    0    0 -0.15392629810E-02  0.24153414342E-01  0.33300679145E-02  0.10194995660E+01  0.10192068087E+01 0.  0.
     999903    2    3    3    0    0 -0.12099423369E+00 -0.27514851481E-01  0.31237630290E-01  0.12948949200E+00  0.19876301342E-01 0.  0.
         14    1    1    2    0    0  0.15392629810E-02 -0.24153414342E-01 -0.33300679145E-02  0.24430434037E-01  0.00000000000E+00 0. -1.
     999901    1    3    3    0    0  0.11945497070E+00  0.51668265823E-01 -0.27907562375E-01  0.89001007396E+00  0.88000000000E+00 0. -1.
        -11    1    4    4    0    0 -0.53401401566E-01 -0.30239970361E-02  0.90552912337E-02  0.54250471589E-01  0.51100000000E-03 0. -1.
         11    1    4    4    0    0 -0.67592832120E-01 -0.24490854445E-01  0.22182339056E-01  0.75239020411E-01  0.51100000000E-03 0.  1.
</event>
<event>
 8    1  0.1022673E+005  0.1043930E+01  0.7957747E-01            NaN
         13   -1    0    0    0    0  0.00000000000E+00  0.00000000000E+00  0.74505805969E-08  0.10566000000E+00  0.10566000000E+00 0. -1.
     999900   -1    0    0    0    0 -0.00000000000E+00 -0.00000000000E+00 -0.74505805969E-08  0.93827000000E+00  0.93827000000E+00 0.  1.
     999902    2    1    2    0    0  0.29616424193E-02  0.14415538292E-01 -0.20098225210E-01  0.10190198068E+01  0.10187152933E+01 0.  0.
     999903    2    3    3    0    0 -0.11868546630E-01  0.12840385615E+00  0.12646784701E-01  0.13094013310E+00  0.18893507332E-01 0.  0.
         14    1    1    2    0    0 -0.29616424193E-02 -0.14415538292E-01  0.20098225210E-01  0.24910193228E-01  0.00000000000E+00 0. -1.
     999901    1    3    3    0    0  0.14830189049E-01 -0.11398831786E+00 -0.32745009911E-01  0.88807967367E+00  0.88000000000E+00 0. -1.
        -11    1    4    4    0    0 -0.13212733601E-02  0.28334781571E-01 -0.49198626589E-02  0.28793606575E-01  0.51100000000E-03 0. -1.
         11    1    4    4    0    0 -0.10547273270E-01  0.10006907458E+00  0.17566647360E-01  0.10214652653E+00  0.51100000000E-03 0.  1.
</event>
<event>
 8    1  0.1022673E+005  0.1043930E+01  0.7957747E-01            NaN
         13   -1    0    0    0    0  0.00000000000E+00  0.00000000000E+00  0.74505805969E-08  0.10566000000E+00  0.10566000000E+00 0. -1.
     999900   -1    0    0    0    0 -0.00000000000E+00 -0.00000000000E+00 -0.74505805969E-08  0.93827000000E+00  0.93827000000E+00 0.  1.
     999902    2    1    2    0    0  0.17294308892E-02  0.22717498968E-01 -0.35204117003E-02  0.10208763888E+01  0.10206160552E+01 0.  0.
     999903    2    3    3    0    0  0.66263762356E-01 -0.23390908468E-01  0.10780124085E+00  0.13032421431E+00  0.20622136328E-01 0.  0.
         14    1    1    2    0    0 -0.17294308892E-02 -0.22717498968E-01  0.35204117003E-02  0.23053611194E-01  0.00000000000E+00 0. -1.
     999901    1    3    3    0    0 -0.64534331467E-01  0.46108407436E-01 -0.11132165255E+00  0.89055217450E+00  0.88000000000E+00 0.  1.
        -11    1    4    4    0    0  0.34012878087E-01 -0.12599357811E-01  0.37208322051E-01  0.51964796198E-01  0.51100000000E-03 0.  1.
         11    1    4    4    0    0  0.32250884269E-01 -0.10791550657E-01  0.70592918795E-01  0.78359418112E-01  0.51100000000E-03 0. -1.
</event>
<event>
 8    1  0.1022673E+005  0.1043930E+01  0.7957747E-01            NaN
         13   -1    0    0    0    0  0.00000000000E+00  0.00000000000E+00  0.74505805969E-08  0.10566000000E+00  0.10566000000E+00 0.  1.
     999900   -1    0    0    0    0 -0.00000000000E+00 -0.00000000000E+00 -0.74505805969E-08  0.93827000000E+00  0.93827000000E+00 0. -1.
     999902    2    1    2    0    0 -0.96273009782E-02  0.28188991502E-02  0.19800484180E-01  0.10217333721E+01  0.10214922385E+01 0.  0.
     999903    2    3    3    0    0 -0.92260808738E-01  0.84360329370E-01  0.43345955552E-01  0.13379661158E+00  0.19847906897E-01 0.  0.
         14    1    1    2    0    0  0.96273009782E-02 -0.28188991502E-02 -0.19800484180E-01  0.22196627904E-01  0.00000000000E+00 0. -1.
     999901    1    3    3    0    0  0.82633507760E-01 -0.81541430220E-01 -0.23545471372E-01  0.88793676051E+00  0.88000000000E+00 0. -1.
        -11    1    4    4    0    0 -0.80097543163E-01  0.62772429589E-01  0.36026157432E-01  0.10795433978E+00  0.51100000000E-03 0.  1.
         11    1    4    4    0    0 -0.12163265575E-01  0.21587899781E-01  0.73197981202E-02  0.25842271803E-01  0.51100000000E-03 0. -1.
</event>
<event>
 8    1  0.1022673E+005  0.1043930E+01  0.7957747E-01            NaN
         13   -1    0    0    0    0  0.00000000000E+00  0.00000000000E+00  0.74505805969E-08  0.10566000000E+00  0.10566000000E+00 0. -1.
     999900   -1    0    0    0    0 -0.00000000000E+00 -0.00000000000E+00 -0.74505805969E-08  0.93827000000E+00  0.93827000000E+00 0.  1.
     999902    2    1    2    0    0  0.18396051688E-01  0.10326276867E-01  0.12131770198E-01  0.10195942945E+01  0.10193038305E+01 0.  0.
     999903    2    3    3    0    0  0.12886561221E+00 -0.70282734179E-02 -0.19430053777E-01  0.13195650077E+00  0.19474302742E-01 0.  0.
         14    1    1    2    0    0 -0.18396051688E-01 -0.10326276867E-01 -0.12131770198E-01  0.24335705451E-01  0.00000000000E+00 0. -1.
     999901    1    3    3    0    0 -0.11046956052E+00  0.17354550285E-01  0.31561823975E-01  0.88763779378E+00  0.88000000000E+00 0.  1.
        -11    1    4    4    0    0  0.10955143791E+00 -0.34908303042E-02 -0.22992823121E-01  0.11199390376E+00  0.51100000000E-03 0. -1.
         11    1    4    4    0    0  0.19314174303E-01 -0.35374431137E-02  0.35627693436E-02  0.19962597005E-01  0.51100000000E-03 0.  1.
</event>
<event>
 8    1  0.1022673E+005  0.1043930E+01  0.7957747E-01            NaN
         13   -1    0    0    0    0  0.00000000000E+00  0.00000000000E+00  0.74505805969E-08  0.10566000000E+00  0.10566000000E+00 0.  1.
     999900   -1    0    0    0    0 -0.00000000000E+00 -0.00000000000E+00 -0.74505805969E-08  0.93827000000E+00  0.93827000000E+00 0.  1.
     999902    2    1    2    0    0  0.11035440957E-01  0.35127828946E-02  0.20667736670E-01  0.10202387371E+01  0.10199636291E+01 0.  0.
     999903    2    3    3    0    0 -0.11868160922E-01  0.19559761402E-01 -0.12405379516E+00  0.12797958060E+00  0.21586835063E-01 0.  0.
         14    1    1    2    0    0 -0.11035440957E-01 -0.35127828946E-02 -0.20667736670E-01  0.23691262943E-01  0.00000000000E+00 0. -1.
     999901    1    3    3    0    0  0.22903601879E-01 -0.16046978507E-01  0.14472153183E+00  0.89225915645E+00  0.88000000000E+00 0. -1.
        -11    1    4    4    0    0 -0.10754246198E-01  0.79317156626E-02 -0.26061019277E-01  0.29291701408E-01  0.51100000000E-03 0. -1.
         11    1    4    4    0    0 -0.11139147238E-02  0.11628045739E-01 -0.97992775884E-01  0.98687879196E-01  0.51100000000E-03 0.  1.
</event>
<event>
 8    1  0.1022673E+005  0.1043930E+01  0.7957747E-01            NaN
         13   -1    0    0    0    0  0.00000000000E+00  0.00000000000E+00  0.74505805969E-08  0.10566000000E+00  0.10566000000E+00 0. -1.
     999900   -1    0    0    0    0 -0.00000000000E+00 -0.00000000000E+00 -0.74505805969E-08  0.93827000000E+00  0.93827000000E+00 0.  1.
     999902    2    1    2    0    0  0.61194425466E-02  0.20614565895E-01 -0.34298646025E-02  0.10221545121E+01  0.10219225385E+01 0.  0.
     999903    2    3    3    0    0 -0.24629926273E-01  0.15620211261E-01  0.12719084311E+00  0.13196788188E+00  0.19682149475E-01 0.  0.
         14    1    1    2    0    0 -0.61194425466E-02 -0.20614565895E-01  0.34298646025E-02  0.21775487946E-01  0.00000000000E+00 0.  1.
     999901    1    3    3    0    0  0.30749368820E-01  0.49943546333E-02 -0.13062070771E+00  0.89018663018E+00  0.88000000000E+00 0.  1.
        -11    1    4    4    0    0 -0.10427895785E-01 -0.33705812751E-03  0.18952926850E-01  0.21640914395E-01  0.51100000000E-03 0.  1.
         11    1    4    4    0    0 -0.14202030488E-01  0.15957269389E-01  0.10823791626E+00  0.11032696748E+00  0.51100000000E-03 0. -1.
</event>
<event>
 8    1  0.1022673E+005  0.1043930E+01  0.7957747E-01            NaN
         13   -1    0    0    0    0  0.00000000000E+00  0.00000000000E+00  0.74505805969E-08  0.10566000000E+00  0.10566000000E+00 0. -1.
     999900   -1    0    0    0    0 -0.00000000000E+00 -0.00000000000E+00 -0.74505805969E-08  0.93827000000E+00  0.93827000000E+00 0. -1.
     999902    2    1    2    0    0  0.12534931936E-01  0.15297629529E-01 -0.83614557888E-02  0.10224577870E+01  0.10222322976E+01 0.  0.
     999903    2    3    3    0    0 -0.11756004786E+00 -0.42112970322E-01 -0.33057636679E-01  0.13070076736E+00  0.19900153820E-01 0.  0.
         14    1    1    2    0    0 -0.12534931936E-01 -0.15297629529E-01  0.83614557888E-02  0.21472212992E-01  0.00000000000E+00 0. -1.
     999901    1    3    3    0    0  0.13009497980E+00  0.57410599852E-01  0.24696180890E-01  0.89175701965E+00  0.88000000000E+00 0.  1.
        -11    1    4    4    0    0 -0.10610443586E+00 -0.39513875588E-01 -0.23710811606E-01  0.11568042782E+00  0.51100000000E-03 0. -1.
         11    1    4    4    0    0 -0.11455612004E-01 -0.25990947339E-02 -0.93468250728E-02  0.15020339536E-01  0.51100000000E-03 0.  1.
</event>
<event>
 8    1  0.1022673E+005  0.1043930E+01  0.7957747E-01            NaN
         13   -1    0    0    0    0  0.00000000000E+00  0.00000000000E+00  0.74505805969E-08  0.10566000000E+00  0.10566000000E+00 0. -1.
     999900   -1    0    0    0    0 -0.00000000000E+00 -0.00000000000E+00 -0.74505805969E-08  0.93827000000E+00  0.93827000000E+00 0. -1.
     999902    2    1    2    0    0  0.52823817894E-02 -0.89559063737E-02  0.21628562304E-01  0.10199319475E+01  0.10196495825E+01 0.  0.
     999903    2    3    3    0    0  0.88431355068E-01  0.22191601584E-01  0.94032594453E-01  0.13250518270E+00  0.20072939092E-01 0.  0.
         14    1    1    2    0    0 -0.52823817894E-02  0.89559063737E-02 -0.21628562304E-01  0.23998052498E-01  0.00000000000E+00 0.  1.
     999901    1    3    3    0    0 -0.83148973278E-01 -0.31147507958E-01 -0.72404032149E-01  0.88742676480E+00  0.88000000000E+00 0. -1.
        -11    1    4    4    0    0  0.25039433091E-01  0.20267885941E-02  0.37851038760E-01  0.45431743723E-01  0.51100000000E-03 0. -1.
         11    1    4    4    0    0  0.63391921976E-01  0.20164812990E-01  0.56181555693E-01  0.87073438981E-01  0.51100000000E-03 0.  1.
</event>
<event>
 8    1  0.1022673E+005  0.1043930E+01  0.7957747E-01            NaN
         13   -1    0    0    0    0  0.00000000000E+00  0.00000000000E+00  0.74505805969E-08  0.10566000000E+00  0.10566000000E+00 0.  1.
     999900   -1    0    0    0    0 -0.00000000000E+00 -0.00000000000E+00 -0.74505805969E-08  0.93827000000E+00  0.93827000000E+00 0. -1.
     999902    2    1    2    0    0  0.59382604392E-02 -0.17963130568E-01 -0.91504302323E-02  0.10229141162E+01  0.10226982066E+01 0.  0.
     999903    2    3    3    0    0  0.77485108106E-02 -0.11721419732E+00 -0.64967126729E-01  0.13557564932E+00  0.18995306321E-01 0.  0.
         14    1    1    2    0    0 -0.59382604392E-02  0.17963130568E-01  0.91504302323E-02  0.21015883761E-01  0.00000000000E+00 0.  1.
     999901    1    3    3    0    0 -0.18102503714E-02  0.99251066748E-01  0.55816696497E-01  0.88733846691E+00  0.88000000000E+00 0.  1.
        -11    1    4    4    0    0  0.12844840598E-01 -0.54306875634E-01 -0.28122927098E-01  0.62493094184E-01  0.51100000000E-03 0.  1.
         11    1    4    4    0    0 -0.50963297870E-02 -0.62907321682E-01 -0.36844199632E-01  0.73082555141E-01  0.51100000000E-03 0. -1.
</event>
<event>
 8    1  0.1022673E+005  0.1043930E+01  0.7957747E-01            NaN
         13   -1    0    0    0    0  0.00000000000E+00  0.00000000000E+00  0.74505805969E-08  0.10566000000E+00  0.10566000000E+00 0.  1.
     999900   -1    0    0    0    0 -0.00000000000E+00 -0.00000000000E+00 -0.74505805969E-08  0.93827000000E+00  0.93827000000E+00 0. -1.
     999902    2    1    2    0    0 -0.89898916254E-02 -0.17091995711E-01  0.13709516374E-01  0.10202465605E+01  0.10199716363E+01 0.  0.
     999903    2    3    3    0    0  0.12451129353E+00  0.78678837153E-02  0.28141078510E-01  0.12971086101E+00  0.21633801213E-01 0.  0.
         14    1    1    2    0    0  0.89898916254E-02  0.17091995711E-01 -0.13709516374E-01  0.23683439532E-01  0.00000000000E+00 0. -1.
     999901    1    3    3    0    0 -0.13350118515E+00 -0.24959879426E-01 -0.14431562135E-01  0.89053569946E+00  0.88000000000E+00 0. -1.
        -11    1    4    4    0    0  0.74000434420E-01  0.15182217445E-01  0.15241092182E-01  0.77065660529E-01  0.51100000000E-03 0. -1.
         11    1    4    4    0    0  0.50510859108E-01 -0.73143337302E-02  0.12899986327E-01  0.52645200484E-01  0.51100000000E-03 0.  1.
</event>
<event>
 8    1  0.1022673E+005  0.1043930E+01  0.7957747E-01            NaN
         13   -1    0    0    0    0  0.00000000000E+00  0.00000000000E+00  0.74505805969E-08  0.10566000000E+00  0.10566000000E+00 0. -1.
     999900   -1    0    0    0    0 -0.00000000000E+00 -0.00000000000E+00 -0.74505805969E-08  0.93827000000E+00  0.93827000000E+00 0. -1.
     999902    2    1    2    0    0  0.22792689402E-01  0.12563023069E-02 -0.78407968803E-02  0.10197936564E+01  0.10195079885E+01 0.  0.
     999903    2    3    3    0    0 -0.35098227901E-01 -0.40860275526E-01  0.11507525414E+00  0.12837146686E+00  0.18315885760E-01 0.  0.
         14    1    1    2    0    0 -0.22792689402E-01 -0.12563023069E-02  0.78407968803E-02  0.24136343579E-01  0.00000000000E+00 0. -1.
     999901    1    3    3    0    0  0.57890917302E-01  0.42116577833E-01 -0.12291605102E+00  0.89142218956E+00  0.88000000000E+00 0.  1.
        -11    1    4    4    0    0 -0.14736057024E-01 -0.51048705802E-02  0.35790540458E-01  0.39044013466E-01  0.51100000000E-03 0. -1.
         11    1    4    4    0    0 -0.20362170877E-01 -0.35755404946E-01  0.79284713684E-01  0.89327453398E-01  0.51100000000E-03 0.  1.
</event>
<event>
 8    1  0.1022673E+005  0.1043930E+01  0.7957747E-01            NaN
         13   -1    0    0    0    0  0.00000000000E+00  0.00000000000E+00  0.74505805969E-08  0.10566000000E+00  0.10566000000E+00 0. -1.
     999900   -1    0    0    0    0 -0.00000000000E+00 -0.00000000000E+00 -0.74505805969E-08  0.93827000000E+00  0.93827000000E+00 0. -1.
     999902    2    1    2    0    0  0.97072692355E-03 -0.39843941423E-02  0.21923497365E-01  0.10216262460E+01  0.10213827534E+01 0.  0.
     999903    2    3    3    0    0  0.10016756593E+00  0.61156351861E-01  0.59064335071E-01  0.13288400466E+00  0.19897798346E-01 0.  0.
         14    1    1    2    0    0 -0.97072692355E-03  0.39843941423E-02 -0.21923497365E-01  0.22303754037E-01  0.00000000000E+00 0.  1.
     999901    1    3    3    0    0 -0.99196839005E-01 -0.65140746003E-01 -0.37140837706E-01  0.88874224131E+00  0.88000000000E+00 0. -1.
        -11    1    4    4    0    0  0.34919610642E-01  0.18199879006E-01  0.30099487726E-01  0.49566673134E-01  0.51100000000E-03 0.  1.
         11    1    4    4    0    0  0.65247955286E-01  0.42956472854E-01  0.28964847345E-01  0.83317331522E-01  0.51100000000E-03 0. -1.
</event>
<event>
 8    1  0.1022673E+005  0.1043930E+01  0.7957747E-01            NaN
         13   -1    0    0    0    0  0.00000000000E+00  0.00000000000E+00  0.74505805969E-08  0.10566000000E+00  0.10566000000E+00 0. -1.
     999900   -1    0    0    0    0 -0.00000000000E+00 -0.00000000000E+00 -0.74505805969E-08  0.93827000000E+00  0.93827000000E+00 0.  1.
     999902    2    1    2    0    0  0.31652852597E-02  0.25706651517E-01  0.78792229604E-03  0.10180172274E+01  0.10176873800E+01 0.  0.
     999903    2    3    3    0    0 -0.80390739912E-01 -0.30319088547E-01  0.92207342922E-01  0.12758025412E+00  0.19814362436E-01 0.  0.
         14    1    1    2    0    0 -0.31652852597E-02 -0.25706651517E-01 -0.78792229604E-03  0.25912772614E-01  0.00000000000E+00 0.  1.
     999901    1    3    3    0    0  0.83556025172E-01  0.56025740063E-01 -0.91419420626E-01  0.89043697327E+00  0.88000000000E+00 0.  1.
        -11    1    4    4    0    0 -0.11102265199E-01 -0.12264010533E-02  0.22280841300E-01  0.24929126782E-01  0.51100000000E-03 0.  1.
         11    1    4    4    0    0 -0.69288474713E-01 -0.29092687493E-01  0.69926501622E-01  0.10265112734E+00  0.51100000000E-03 0. -1.
</event>
<event>
 8    1  0.1022673E+005  0.1043930E+01  0.7957747E-01            NaN
         13   -1    0    0    0    0  0.00000000000E+00  0.00000000000E+00  0.74505805969E-08  0.10566000000E+00  0.10566000000E+00 0.  1.
     999900   -1    0    0    0    0 -0.00000000000E+00 -0.00000000000E+00 -0.74505805969E-08  0.93827000000E+00  0.93827000000E+00 0. -1.
     999902    2    1    2    0    0  0.15213682494E-01  0.16341362667E-01 -0.19425114818E-02  0.10215186274E+01  0.10212727533E+01 0.  0.
     999903    2    3    3    0    0 -0.12119578635E+00 -0.17084490836E-01  0.37484086653E-01  0.12951005825E+00  0.19685019202E-01 0.  0.
         14    1    1    2    0    0 -0.15213682494E-01 -0.16341362667E-01  0.19425114818E-02  0.22411372553E-01  0.00000000000E+00 0.  1.
     999901    1    3    3    0    0  0.13640946884E+00  0.33425853503E-01 -0.39426598135E-01  0.89200856919E+00  0.88000000000E+00 0.  1.
        -11    1    4    4    0    0 -0.31810220953E-01  0.33308543497E-02  0.58579785356E-02  0.32520174989E-01  0.51100000000E-03 0. -1.
         11    1    4    4    0    0 -0.89385565396E-01 -0.20415345186E-01  0.31626108118E-01  0.96989883266E-01  0.51100000000E-03 0.  1.
</event>
<event>
 8    1  0.1022673E+005  0.1043930E+01  0.7957747E-01            NaN
         13   -1    0    0    0    0  0.00000000000E+00  0.00000000000E+00  0.74505805969E-08  0.10566000000E+00  0.10566000000E+00 0.  1.
     999900   -1    0    0    0    0 -0.00000000000E+00 -0.00000000000E+00 -0.74505805969E-08  0.93827000000E+00  0.93827000000E+00 0.  1.
     999902    2    1    2    0    0  0.18248200833E-01 -0.17493303204E-02 -0.16234445849E-01  0.10194429785E+01  0.10191488469E+01 0.  0.
     999903    2    3    3    0    0  0.12219329926E+00 -0.34771235150E-01  0.28125741247E-01  0.13160129447E+00  0.19687615579E-01 0.  0.
         14    1    1    2    0    0 -0.18248200833E-01  0.17493303204E-02  0.16234445849E-01  0.24487021506E-01  0.00000000000E+00 0.  1.
     999901    1    3    3    0    0 -0.10394509843E+00  0.33021904830E-01 -0.44360187096E-01  0.88784168402E+00  0.88000000000E+00 0. -1.
        -11    1    4    4    0    0  0.88724837472E-01 -0.26666671405E-01  0.11497901249E-01  0.93357758126E-01  0.51100000000E-03 0. -1.
         11    1    4    4    0    0  0.33468461793E-01 -0.81045637452E-02  0.16627839999E-01  0.38243536347E-01  0.51100000000E-03 0.  1.
</event>
<event>
 8    1  0.1022673E+005  0.1043930E+01  0.7957747E-01            NaN
         13   -1    0    0    0    0  0.00000000000E+00  0.00000000000E+00  0.74505805969E-08  0.10566000000E+00  0.10566000000E+00 0.  1.
     999900   -1    0    0    0    0 -0.00000000000E+00 -0.00000000000E+00 -0.74505805969E-08  0.93827000000E+00  0.93827000000E+00 0. -1.
     999902    2    1    2    0    0 -0.12030475010E-02 -0.16315334975E-01 -0.13957366464E-01  0.10224254526E+01  0.10221992764E+01 0.  0.
     999903    2    3    3    0    0  0.11441910748E+00  0.54947077356E-01  0.26282668543E-01  0.13109718844E+00  0.19615827440E-01 0.  0.
         14    1    1    2    0    0  0.12030475010E-02  0.16315334975E-01  0.13957366464E-01  0.21504547362E-01  0.00000000000E+00 0.  1.
     999901    1    3    3    0    0 -0.11562215498E+00 -0.71262412331E-01 -0.40240035007E-01  0.89132826419E+00  0.88000000000E+00 0. -1.
        -11    1    4    4    0    0  0.79921148948E-01  0.42937918772E-01  0.10608965151E-01  0.91344765478E-01  0.51100000000E-03 0. -1.
         11    1    4    4    0    0  0.34497958530E-01  0.12009158583E-01  0.15673703393E-01  0.39752422966E-01  0.51100000000E-03 0.  1.
</event>
<event>
 8    1  0.1022673E+005  0.1043930E+01  0.7957747E-01            NaN
         13   -1    0    0    0    0  0.00000000000E+00  0.00000000000E+00  0.74505805969E-08  0.10566000000E+00  0.10566000000E+00 0. -1.
     999900   -1    0    0    0    0 -0.00000000000E+00 -0.00000000000E+00 -0.74505805969E-08  0.93827000000E+00  0.93827000000E+00 0.  1.
     999902    2    1    2    0    0 -0.10798165015E-01 -0.13107678422E-01  0.21906406373E-01  0.10162117345E+01  0.10158336415E+01 0.  0.
     999903    2    3    3    0    0 -0.38070913019E-01  0.90504369575E-01  0.79433409076E-01  0.12784884959E+00  0.19880305171E-01 0.  0.
         14    1    1    2    0    0  0.10798165015E-01  0.13107678422E-01 -0.21906406373E-01  0.27718265485E-01  0.00000000000E+00 0. -1.
     999901    1    3    3    0    0  0.27272748004E-01 -0.10361204800E+00 -0.57527002703E-01  0.88836288493E+00  0.88000000000E+00 0. -1.
        -11    1    4    4    0    0 -0.82547654787E-02  0.44211827354E-01  0.32441632050E-01  0.55457618432E-01  0.51100000000E-03 0.  1.
         11    1    4    4    0    0 -0.29816147541E-01  0.46292542220E-01  0.46991777026E-01  0.72391231157E-01  0.51100000000E-03 0. -1.
</event>
<event>
 8    1  0.1022673E+005  0.1043930E+01  0.7957747E-01            NaN
         13   -1    0    0    0    0  0.00000000000E+00  0.00000000000E+00  0.74505805969E-08  0.10566000000E+00  0.10566000000E+00 0. -1.
     999900   -1    0    0    0    0 -0.00000000000E+00 -0.00000000000E+00 -0.74505805969E-08  0.93827000000E+00  0.93827000000E+00 0. -1.
     999902    2    1    2    0    0 -0.17297270403E-01 -0.13599421755E-01 -0.69807372291E-02  0.10208460114E+01  0.10205849835E+01 0.  0.
     999903    2    3    3    0    0  0.22701027673E-01 -0.69973957456E-01  0.10650787710E+00  0.13086982204E+00  0.19268914282E-01 0.  0.
         14    1    1    2    0    0  0.17297270403E-01  0.13599421755E-01  0.69807372291E-02  0.23083988557E-01  0.00000000000E+00 0. -1.
     999901    1    3    3    0    0 -0.39998298076E-01  0.56374535702E-01 -0.11348861432E+00  0.88997618940E+00  0.88000000000E+00 0. -1.
        -11    1    4    4    0    0  0.13504033709E-01 -0.15427748509E-01  0.33349866614E-01  0.39151616501E-01  0.51100000000E-03 0.  1.
         11    1    4    4    0    0  0.91969939643E-02 -0.54546208947E-01  0.73158010482E-01  0.91718205538E-01  0.51100000000E-03 0. -1.
</event>
<event>
 8    1  0.1022673E+005  0.1043930E+01  0.7957747E-01            NaN
         13   -1    0    0    0    0  0.00000000000E+00  0.00000000000E+00  0.74505805969E-08  0.10566000000E+00  0.10566000000E+00 0. -1.
     999900   -1    0    0    0    0 -0.00000000000E+00 -0.00000000000E+00 -0.74505805969E-08  0.93827000000E+00  0.93827000000E+00 0. -1.
     999902    2    1    2    0    0 -0.17457178430E-01 -0.26871931838E-02 -0.16087585569E-01  0.10200389034E+01  0.10197590794E+01 0.  0.
     999903    2    3    3    0    0 -0.91117357855E-01 -0.19506939160E-01 -0.93358602892E-01  0.13342763799E+00  0.20105030896E-01 0.  0.
         14    1    1    2    0    0  0.17457178430E-01  0.26871931838E-02  0.16087585569E-01  0.23891096571E-01  0.00000000000E+00 0.  1.
     999901    1    3    3    0    0  0.73660179426E-01  0.16819745976E-01  0.77271017323E-01  0.88661126544E+00  0.88000000000E+00 0.  1.
        -11    1    4    4    0    0 -0.57537555191E-01 -0.14695474273E-01 -0.45741251977E-01  0.74960326005E-01  0.51100000000E-03 0.  1.
         11    1    4    4    0    0 -0.33579802665E-01 -0.48114648868E-02 -0.47617350915E-01  0.58467311983E-01  0.51100000000E-03 0. -1.
</event>
<event>
 8    1  0.1022673E+005  0.1043930E+01  0.7957747E-01            NaN
         13   -1    0    0    0    0  0.00000000000E+00  0.00000000000E+00  0.74505805969E-08  0.10566000000E+00  0.10566000000E+00 0.  1.
     999900   -1    0    0    0    0 -0.00000000000E+00 -0.00000000000E+00 -0.74505805969E-08  0.93827000000E+00  0.93827000000E+00 0.  1.
     999902    2    1    2    0    0  0.23249471298E-01 -0.43105839375E-02 -0.82017110206E-03  0.10202700818E+01  0.10199957098E+01 0.  0.
     999903    2    3    3    0    0  0.12921207918E+00  0.17606746119E-01  0.18771446646E-01  0.13342608473E+00  0.21080653733E-01 0.  0.
         14    1    1    2    0    0 -0.23249471298E-01  0.43105839375E-02  0.82017110206E-03  0.23659918219E-01  0.00000000000E+00 0. -1.
     999901    1    3    3    0    0 -0.10596260788E+00 -0.21917330057E-01 -0.19591617748E-01  0.88684399705E+00  0.88000000000E+00 0. -1.
        -11    1    4    4    0    0  0.20611376625E-01 -0.41255857655E-02  0.64189372552E-02  0.21984384931E-01  0.51100000000E-03 0.  1.
         11    1    4    4    0    0  0.10860070255E+00  0.21732331885E-01  0.12352509391E-01  0.11144169980E+00  0.51100000000E-03 0. -1.
</event>
<event>
 8    1  0.1022673E+005  0.1043930E+01  0.7957747E-01            NaN
         13   -1    0    0    0    0  0.00000000000E+00  0.00000000000E+00  0.74505805969E-08  0.10566000000E+00  0.10566000000E+00 0. -1.
     999900   -1    0    0    0    0 -0.00000000000E+00 -0.00000000000E+00 -0.74505805969E-08  0.93827000000E+00  0.93827000000E+00 0. -1.
     999902    2    1    2    0    0 -0.17577057804E-01  0.15807573179E-01  0.50783660975E-03  0.10202849111E+01  0.10200108870E+01 0.  0.
     999903    2    3    3    0    0  0.11584966150E+00  0.19068521681E-01  0.48988819067E-01  0.12890186837E+00  0.20761374880E-01 0.  0.
         14    1    1    2    0    0  0.17577057804E-01 -0.15807573179E-01 -0.50783660975E-03  0.23645088895E-01  0.00000000000E+00 0. -1.
     999901    1    3    3    0    0 -0.13342671931E+00 -0.32609485018E-02 -0.48480982457E-01  0.89138304273E+00  0.88000000000E+00 0.  1.
        -11    1    4    4    0    0  0.59545248796E-01  0.27210438135E-02  0.16411440812E-01  0.61827479685E-01  0.51100000000E-03 0. -1.
         11    1    4    4    0    0  0.56304412707E-01  0.16347477867E-01  0.32577378255E-01  0.67074388688E-01  0.51100000000E-03 0.  1.
</event>
<event>
 8    1  0.1022673E+005  0.1043930E+01  0.7957747E-01            NaN
         13   -1    0    0    0    0  0.00000000000E+00  0.00000000000E+00  0.74505805969E-08  0.10566000000E+00  0.10566000000E+00 0.  1.
     999900   -1    0    0    0    0 -0.00000000000E+00 -0.00000000000E+00 -0.74505805969E-08  0.93827000000E+00  0.93827000000E+00 0.  1.
     999902    2    1    2    0    0  0.44101335091E-02 -0.93944375409E-02  0.21010552056E-01  0.10204960923E+01  0.10202269974E+01 0.  0.
     999903    2    3    3    0    0 -0.13212947013E-01 -0.66828196980E-01 -0.10761488657E+00  0.12911866762E+00  0.21215009728E-01 0.  0.
         14    1    1    2    0    0 -0.44101335091E-02  0.93944375409E-02 -0.21010552056E-01  0.23433907741E-01  0.00000000000E+00 0. -1.
     999901    1    3    3    0    0  0.17623080522E-01  0.57433759439E-01  0.12862543862E+00  0.89137742464E+00  0.88000000000E+00 0. -1.
        -11    1    4    4    0    0  0.55049082852E-02 -0.22216435823E-01 -0.37328574132E-01  0.43789925824E-01  0.51100000000E-03 0. -1.
         11    1    4    4    0    0 -0.18717855298E-01 -0.44611761157E-01 -0.70286312434E-01  0.85328741799E-01  0.51100000000E-03 0.  1.
</event>
<event>
 8    1  0.1022673E+005  0.1043930E+01  0.7957747E-01            NaN
         13   -1    0    0    0    0  0.00000000000E+00  0.00000000000E+00  0.74505805969E-08  0.10566000000E+00  0.10566000000E+00 0.  1.
     999900   -1    0    0    0    0 -0.00000000000E+00 -0.00000000000E+00 -0.74505805969E-08  0.93827000000E+00  0.93827000000E+00 0. -1.
     999902    2    1    2    0    0 -0.14520858116E-01 -0.12663576283E-01  0.14807188298E-01  0.10196303228E+01  0.10193407286E+01 0.  0.
     999903    2    3    3    0    0 -0.77357879987E-01 -0.32202640313E-01 -0.97935342548E-01  0.13000054333E+00  0.16957544217E-01 0.  0.
         14    1    1    2    0    0  0.14520858116E-01  0.12663576283E-01 -0.14807188298E-01  0.24299677158E-01  0.00000000000E+00 0. -1.
     999901    1    3    3    0    0  0.62837021871E-01  0.19539064030E-01  0.11274253085E+00  0.88962977952E+00  0.88000000000E+00 0.  1.
        -11    1    4    4    0    0 -0.18063427963E-01 -0.11561326763E-01 -0.35342773410E-01  0.41343977307E-01  0.51100000000E-03 0.  1.
         11    1    4    4    0    0 -0.59294452025E-01 -0.20641313550E-01 -0.62592569138E-01  0.88656566019E-01  0.51100000000E-03 0. -1.
</event>
<event>
 7    1  0.1022673E+005  0.1043930E+01  0.7957747E-01            NaN
         13   -1    0    0    0    0  0.00000000000E+00  0.00000000000E+00  0.74505805969E-08  0.10566000000E+00  0.10566000000E+00 0.  1.
     999900   -1    0    0    0    0 -0.00000000000E+00 -0.00000000000E+00 -0.74505805969E-08  0.93827000000E+00  0.93827000000E+00 0. -1.
     999903    2    1    2    0    0 -0.30740502707E-02 -0.17559646332E-01  0.10460555558E+00  0.10806442976E+00  0.20440346271E-01 0.  0.
         14    1    1    2    0    0  0.36967842717E-01 -0.24303135712E-02 -0.37057361684E-01  0.52400151471E-01  0.00000000000E+00 0. -1.
     999901    1    1    2    0    0 -0.33893792446E-01  0.19989959903E-01 -0.67548193901E-01  0.88346541877E+00  0.88000000000E+00 0.  1.
        -11    1    3    3    0    0 -0.44390548231E-02 -0.14189375930E-01  0.10297968545E+00  0.10404864407E+00  0.51100000000E-03 0. -1.
         11    1    3    3    0    0  0.13650045524E-02 -0.33702704016E-02  0.16258701396E-02  0.40157856913E-02  0.51100000000E-03 0.  1.
</event>
<event>
 8    1  0.1022673E+005  0.1043930E+01  0.7957747E-01            NaN
         13   -1    0    0    0    0  0.00000000000E+00  0.00000000000E+00  0.74505805969E-08  0.10566000000E+00  0.10566000000E+00 0. -1.
     999900   -1    0    0    0    0 -0.00000000000E+00 -0.00000000000E+00 -0.74505805969E-08  0.93827000000E+00  0.93827000000E+00 0.  1.
     999902    2    1    2    0    0  0.17155487187E-01  0.90666703611E-02 -0.67818927001E-02  0.10233749685E+01  0.10231685183E+01 0.  0.
     999903    2    3    3    0    0 -0.63093875899E-01  0.67940922640E-01 -0.93851106818E-01  0.13349453500E+00  0.20394962066E-01 0.  0.
         14    1    1    2    0    0 -0.17155487187E-01 -0.90666703611E-02  0.67818927001E-02  0.20555031517E-01  0.00000000000E+00 0. -1.
     999901    1    3    3    0    0  0.80249363085E-01 -0.58874252279E-01  0.87069214118E-01  0.88988043349E+00  0.88000000000E+00 0. -1.
        -11    1    4    4    0    0 -0.52330167376E-01  0.62876396421E-01 -0.73802984960E-01  0.11017726333E+00  0.51100000000E-03 0.  1.
         11    1    4    4    0    0 -0.10763708523E-01  0.50645262194E-02 -0.20048121858E-01  0.23317271668E-01  0.51100000000E-03 0. -1.
</event>
<event>
 8    1  0.1022673E+005  0.1043930E+01  0.7957747E-01            NaN
         13   -1    0    0    0    0  0.00000000000E+00  0.00000000000E+00  0.74505805969E-08  0.10566000000E+00  0.10566000000E+00 0. -1.
     999900   -1    0    0    0    0 -0.00000000000E+00 -0.00000000000E+00 -0.74505805969E-08  0.93827000000E+00  0.93827000000E+00 0.  1.
     999902    2    1    2    0    0  0.17188051581E-01 -0.11135284851E-01 -0.11354430152E-01  0.10205131947E+01  0.10202444971E+01 0.  0.
     999903    2    3    3    0    0 -0.99022827906E-01 -0.72037987437E-01  0.36849799649E-01  0.12948134597E+00  0.20310567215E-01 0.  0.
         14    1    1    2    0    0 -0.17188051581E-01  0.11135284851E-01  0.11354430152E-01  0.23416805289E-01  0.00000000000E+00 0. -1.
     999901    1    3    3    0    0  0.11621087949E+00  0.60902702586E-01 -0.48204229802E-01  0.89103184874E+00  0.88000000000E+00 0. -1.
        -11    1    4    4    0    0 -0.18509623698E-01 -0.18823181805E-01  0.15565953018E-01  0.30650911195E-01  0.51100000000E-03 0.  1.
         11    1    4    4    0    0 -0.80513204208E-01 -0.53214805632E-01  0.21283846632E-01  0.98830434779E-01  0.51100000000E-03 0. -1.
</event>
<event>
 8    1  0.1022673E+005  0.1043930E+01  0.7957747E-01            NaN
         13   -1    0    0    0    0  0.00000000000E+00  0.00000000000E+00  0.74505805969E-08  0.10566000000E+00  0.10566000000E+00 0.  1.
     999900   -1    0    0    0    0 -0.00000000000E+00 -0.00000000000E+00 -0.74505805969E-08  0.93827000000E+00  0.93827000000E+00 0. -1.
     999902    2    1    2    0    0 -0.28761898143E-01 -0.13969318736E-02  0.19835557865E-01  0.10089636224E+01  0.10083575476E+01 0.  0.
     999903    2    3    3    0    0  0.10877915221E+00 -0.90571464520E-02  0.43079243282E-01  0.11794370778E+00  0.11830517507E-01 0.  0.
         14    1    1    2    0    0  0.28761898143E-01  0.13969318736E-02 -0.19835557865E-01  0.34966377554E-01  0.00000000000E+00 0. -1.
     999901    1    3    3    0    0 -0.13754105036E+00  0.76602145784E-02 -0.23243685416E-01  0.89101991467E+00  0.88000000000E+00 0. -1.
        -11    1    4    4    0    0  0.38012798393E-01 -0.51237717549E-02  0.95242191675E-02  0.39524647379E-01  0.51100000000E-03 0. -1.
         11    1    4    4    0    0  0.70766353822E-01 -0.39333746970E-02  0.33555024114E-01  0.78419060400E-01  0.51100000000E-03 0.  1.
</event>
<event>
 8    1  0.1022673E+005  0.1043930E+01  0.7957747E-01            NaN
         13   -1    0    0    0    0  0.00000000000E+00  0.00000000000E+00  0.74505805969E-08  0.10566000000E+00  0.10566000000E+00 0. -1.
     999900   -1    0    0    0    0 -0.00000000000E+00 -0.00000000000E+00 -0.74505805969E-08  0.93827000000E+00  0.93827000000E+00 0. -1.
     999902    2    1    2    0    0 -0.13134771201E-01 -0.14692008427E-02 -0.15848202643E-01  0.10232939565E+01  0.10230858591E+01 0.  0.
     999903    2    3    3    0    0  0.48290017514E-01 -0.96308261081E-01 -0.77212069416E-01  0.13394982951E+00  0.19329930613E-01 0.  0.
         14    1    1    2    0    0  0.13134771201E-01  0.14692008427E-02  0.15848202643E-01  0.20636043532E-01  0.00000000000E+00 0. -1.
     999901    1    3    3    0    0 -0.61424788715E-01  0.94839060238E-01  0.61363866772E-01  0.88934412696E+00  0.88000000000E+00 0.  1.
        -11    1    4    4    0    0  0.38029375017E-01 -0.83726898994E-01 -0.72305714790E-01  0.11698206910E+00  0.51100000000E-03 0.  1.
         11    1    4    4    0    0  0.10260642497E-01 -0.12581362087E-01 -0.49063546260E-02  0.16967760404E-01  0.51100000000E-03 0. -1.
</event>
<event>
 8    1  0.1022673E+005  0.1043930E+01  0.7957747E-01            NaN
         13   -1    0    0    0    0  0.00000000000E+00  0.00000000000E+00  0.74505805969E-08  0.10566000000E+00  0.10566000000E+00 0.  1.
     999900   -1    0    0    0    0 -0.00000000000E+00 -0.00000000000E+00 -0.74505805969E-08  0.93827000000E+00  0.93827000000E+00 0. -1.
     999902    2    1    2    0    0  0.20204937408E-01 -0.11697694349E-01 -0.35273078341E-02  0.10203181926E+01  0.10200449484E+01 0.  0.
     999903    2    3    3    0    0 -0.26210226152E-01 -0.11347571401E+00 -0.57872925096E-01  0.13157380931E+00  0.19966927935E-01 0.  0.
         14    1    1    2    0    0 -0.20204937408E-01  0.11697694349E-01  0.35273078341E-02  0.23611807413E-01  0.00000000000E+00 0.  1.
     999901    1    3    3    0    0  0.46415163560E-01  0.10177801966E+00  0.54345617262E-01  0.88874438328E+00  0.88000000000E+00 0.  1.
        -11    1    4    4    0    0 -0.13319569785E-01 -0.23236992211E-01 -0.16550289821E-01  0.31488759271E-01  0.51100000000E-03 0.  1.
         11    1    4    4    0    0 -0.12890656367E-01 -0.90238721800E-01 -0.41322635275E-01  0.10008505004E+00  0.51100000000E-03 0. -1.
</event>
<event>
 8    1  0.1022673E+005  0.1043930E+01  0.7957747E-01            NaN
         13   -1    0    0    0    0  0.00000000000E+00  0.00000000000E+00  0.74505805969E-08  0.10566000000E+00  0.10566000000E+00 0.  1.
     999900   -1    0    0    0    0 -0.00000000000E+00 -0.00000000000E+00 -0.74505805969E-08  0.93827000000E+00  0.93827000000E+00 0. -1.
     999902    2    1    2    0    0 -0.21318642216E-01 -0.11188836307E-01  0.27875415264E-02  0.10196927363E+01  0.10194046456E+01 0.  0.
     999903    2    3    3    0    0  0.11755450891E+00 -0.31375635157E-01  0.34734535447E-01  0.12800115881E+00  0.19347239012E-01 0.  0.
         14    1    1    2    0    0  0.21318642216E-01  0.11188836307E-01 -0.27875415264E-02  0.24237263699E-01  0.00000000000E+00 0. -1.
     999901    1    3    3    0    0 -0.13887315112E+00  0.20186798850E-01 -0.31946993920E-01  0.89169157749E+00  0.88000000000E+00 0. -1.
        -11    1    4    4    0    0  0.51608634504E-01 -0.20898911350E-01  0.22795574414E-01  0.60167391374E-01  0.51100000000E-03 0. -1.
         11    1    4    4    0    0  0.65945874405E-01 -0.10476723807E-01  0.11938961033E-01  0.67833767434E-01  0.51100000000E-03 0.  1.
</event>
<event>
 8    1  0.1022673E+005  0.1043930E+01  0.7957747E-01            NaN
         13   -1    0    0    0    0  0.00000000000E+00  0.00000000000E+00  0.74505805969E-08  0.10566000000E+00  0.10566000000E+00 0. -1.
     999900   -1    0    0    0    0 -0.00000000000E+00 -0.00000000000E+00 -0.74505805969E-08  0.93827000000E+00  0.93827000000E+00 0.  1.
     999902    2    1    2    0    0 -0.12364308045E-01  0.17586466082E-01  0.69435718102E-02  0.10213385615E+01  0.10210886760E+01 0.  0.
     999903    2    3    3    0    0  0.88263782450E-01 -0.91043011264E-01 -0.10296518756E-01  0.12880083310E+00  0.20107489071E-01 0.  0.
         14    1    1    2    0    0  0.12364308045E-01 -0.17586466082E-01 -0.69435718102E-02  0.22591438470E-01  0.00000000000E+00 0. -1.
     999901    1    3    3    0    0 -0.10062809049E+00  0.10862947735E+00  0.17240090566E-01  0.89253772843E+00  0.88000000000E+00 0.  1.
        -11    1    4    4    0    0  0.23846851548E-01 -0.17723281970E-01  0.46045914359E-02  0.30070757154E-01  0.51100000000E-03 0. -1.
         11    1    4    4    0    0  0.64416930901E-01 -0.73319729295E-01 -0.14901110192E-01  0.98730075947E-01  0.51100000000E-03 0.  1.
</event>
<event>
 8    1  0.1022673E+005  0.1043930E+01  0.7957747E-01            NaN
         13   -1    0    0    0    0  0.00000000000E+00  0.00000000000E+00  0.74505805969E-08  0.10566000000E+00  0.10566000000E+00 0. -1.
     999900   -1    0    0    0    0 -0.00000000000E+00 -0.00000000000E+00 -0.74505805969E-08  0.93827000000E+00  0.93827000000E+00 0. -1.
     999902    2    1    2    0    0 -0.75447023280E-02  0.18828603856E-01  0.12674706612E-01  0.10200116588E+01  0.10197311887E+01 0.  0.
     999903    2    3    3    0    0 -0.86043116397E-01 -0.81106607871E-01  0.50471350150E-01  0.13008040654E+00  0.19795334276E-01 0.  0.
         14    1    1    2    0    0  0.75447023280E-02 -0.18828603856E-01 -0.12674706612E-01  0.23918341165E-01  0.00000000000E+00 0. -1.
     999901    1    3    3    0    0  0.78498414069E-01  0.99935211727E-01 -0.37796643538E-01  0.88993125230E+00  0.88000000000E+00 0. -1.
        -11    1    4    4    0    0 -0.50908016550E-01 -0.60513180879E-01  0.31044642042E-01  0.84955883432E-01  0.51100000000E-03 0.  1.
         11    1    4    4    0    0 -0.35135099847E-01 -0.20593426992E-01  0.19426708108E-01  0.45124523105E-01  0.51100000000E-03 0. -1.
</event>
<event>
 8    1  0.1022673E+005  0.1043930E+01  0.7957747E-01            NaN
         13   -1    0    0    0    0  0.00000000000E+00  0.00000000000E+00  0.74505805969E-08  0.10566000000E+00  0.10566000000E+00 0. -1.
     999900   -1    0    0    0    0 -0.00000000000E+00 -0.00000000000E+00 -0.74505805969E-08  0.93827000000E+00  0.93827000000E+00 0.  1.
     999902    2    1    2    0    0  0.15719481887E-01  0.13590941202E-01  0.33273622869E-03  0.10231471584E+01  0.10229360592E+01 0.  0.
     999903    2    3    3    0    0  0.79470906446E-01  0.97304939071E-01  0.47414154258E-01  0.13562874305E+00  0.19057223801E-01 0.  0.
         14    1    1    2    0    0 -0.15719481887E-01 -0.13590941202E-01 -0.33273622869E-03  0.20782841648E-01  0.00000000000E+00 0.  1.
     999901    1    3    3    0    0 -0.63751424559E-01 -0.83713997868E-01 -0.47081418029E-01  0.88751841530E+00  0.88000000000E+00 0. -1.
        -11    1    4    4    0    0  0.53995757409E-02  0.16498337195E-01  0.48102765624E-02  0.18020833221E-01  0.51100000000E-03 0. -1.
         11    1    4    4    0    0  0.74071330706E-01  0.80806601876E-01  0.42603877696E-01  0.11760790983E+00  0.51100000000E-03 0.  1.
</event>
<event>
 8    1  0.1022673E+005  0.1043930E+01  0.7957747E-01            NaN
         13   -1    0    0    0    0  0.00000000000E+00  0.00000000000E+00  0.74505805969E-08  0.10566000000E+00  0.10566000000E+00 0.  1.
     999900   -1    0    0    0    0 -0.00000000000E+00 -0.00000000000E+00 -0.74505805969E-08  0.93827000000E+00  0.93827000000E+00 0.  1.
     999902    2    1    2    0    0 -0.17672056818E-01 -0.81188169376E-02 -0.34029661713E-03  0.10244792267E+01  0.10242945638E+01 0.  0.
     999903    2    3    3    0    0 -0.10195999489E+00  0.49262925830E-01 -0.72088425320E-01  0.13569077330E+00  0.19813340809E-01 0.  0.
         14    1    1    2    0    0  0.17672056818E-01  0.81188169376E-02  0.34029661713E-03  0.19450773311E-01  0.00000000000E+00 0.  1.
     999901    1    3    3    0    0  0.84287938072E-01 -0.57381742767E-01  0.71748128703E-01  0.88878845339E+00  0.88000000000E+00 0.  1.
        -11    1    4    4    0    0 -0.39941605452E-01  0.88045509916E-02 -0.26175936882E-01  0.48562256506E-01  0.51100000000E-03 0.  1.
         11    1    4    4    0    0 -0.62018389437E-01  0.40458374838E-01 -0.45912488438E-01  0.87128516793E-01  0.51100000000E-03 0. -1.
</event>
<event>
 8    1  0.1022673E+005  0.1043930E+01  0.7957747E-01            NaN
         13   -1    0    0    0    0  0.00000000000E+00  0.00000000000E+00  0.74505805969E-08  0.10566000000E+00  0.10566000000E+00 0. -1.
     999900   -1    0    0    0    0 -0.00000000000E+00 -0.00000000000E+00 -0.74505805969E-08  0.93827000000E+00  0.93827000000E+00 0. -1.
     999902    2    1    2    0    0 -0.15139702060E-01  0.69988926765E-03 -0.13457832888E-01  0.10236614606E+01  0.10234607820E+01 0.  0.
     999903    2    3    3    0    0  0.11914987425E+00 -0.72338212529E-02 -0.53805416503E-01  0.13252479231E+00  0.20464042309E-01 0.  0.
         14    1    1    2    0    0  0.15139702060E-01 -0.69988926765E-03  0.13457832888E-01  0.20268539403E-01  0.00000000000E+00 0. -1.
     999901    1    3    3    0    0 -0.13428957631E+00  0.79337105205E-02  0.40347583615E-01  0.89113666829E+00  0.88000000000E+00 0. -1.
        -11    1    4    4    0    0  0.38626612241E-01  0.71905466305E-02 -0.18279802806E-01  0.43337413925E-01  0.51100000000E-03 0.  1.
         11    1    4    4    0    0  0.80523262008E-01 -0.14424367883E-01 -0.35525613697E-01  0.89187378383E-01  0.51100000000E-03 0. -1.
</event>
<event>
 8    1  0.1022673E+005  0.1043930E+01  0.7957747E-01            NaN
         13   -1    0    0    0    0  0.00000000000E+00  0.00000000000E+00  0.74505805969E-08  0.10566000000E+00  0.10566000000E+00 0.  1.
     999900   -1    0    0    0    0 -0.00000000000E+00 -0.00000000000E+00 -0.74505805969E-08  0.93827000000E+00  0.93827000000E+00 0.  1.
     999902    2    1    2    0    0 -0.28660255326E-02 -0.82385635779E-02  0.22143215815E-01  0.10201306294E+01  0.10198529752E+01 0.  0.
     999903    2    3    3    0    0  0.37252422316E-01 -0.12313021176E+00  0.20082117820E-01  0.13175355365E+00  0.20172144771E-01 0.  0.
         14    1    1    2    0    0  0.28660255326E-02  0.82385635779E-02 -0.22143215815E-01  0.23799370555E-01  0.00000000000E+00 0. -1.
     999901    1    3    3    0    0 -0.40118447848E-01  0.11489164819E+00  0.20610979949E-02  0.88837707580E+00  0.88000000000E+00 0. -1.
        -11    1    4    4    0    0  0.18390797245E-01 -0.38093176077E-01  0.13477172915E-01  0.44398274716E-01  0.51100000000E-03 0.  1.
         11    1    4    4    0    0  0.18861625071E-01 -0.85037035687E-01  0.66049449047E-02  0.87355278930E-01  0.51100000000E-03 0. -1.
</event>
<event>
 8    1  0.1022673E+005  0.1043930E+01  0.7957747E-01            NaN
         13   -1    0    0    0    0  0.00000000000E+00  0.00000000000E+00  0.74505805969E-08  0.10566000000E+00  0.10566000000E+00 0. -1.
     999900   -1    0    0    0    0 -0.00000000000E+00 -0.00000000000E+00 -0.74505805969E-08  0.93827000000E+00  0.93827000000E+00 0.  1.
     999902    2    1    2    0    0  0.21862021788E-01  0.24989631464E-02 -0.82021467104E-02  0.10204466437E+01  0.10201763988E+01 0.  0.
     999903    2    3    3    0    0  0.74278335907E-01 -0.35373127780E-01  0.10069566747E+00  0.13137943633E+00  0.18772572787E-01 0.  0.
         14    1    1    2    0    0 -0.21862021788E-01 -0.24989631464E-02  0.82021467104E-02  0.23483356321E-01  0.00000000000E+00 0. -1.
     999901    1    3    3    0    0 -0.52416314119E-01  0.37872090927E-01 -0.10889781418E+00  0.88906720735E+00  0.88000000000E+00 0.  1.
        -11    1    4    4    0    0  0.58281151718E-01 -0.28535101522E-01  0.89982529853E-01  0.11094170300E+00  0.51100000000E-03 0. -1.
         11    1    4    4    0    0  0.15997184189E-01 -0.68380262582E-02  0.10713137613E-01  0.20437733328E-01  0.51100000000E-03 0.  1.
</event>
<event>
 8    1  0.1022673E+005  0.1043930E+01  0.7957747E-01            NaN
         13   -1    0    0    0    0  0.00000000000E+00  0.00000000000E+00  0.74505805969E-08  0.10566000000E+00  0.10566000000E+00 0. -1.
     999900   -1    0    0    0    0 -0.00000000000E+00 -0.00000000000E+00 -0.74505805969E-08  0.93827000000E+00  0.93827000000E+00 0.  1.
     999902    2    1    2    0    0 -0.72840663145E-02 -0.21524740578E-01  0.51668716591E-02  0.10206261668E+01  0.10203600853E+01 0.  0.
     999903    2    3    3    0    0 -0.74174187362E-01 -0.15984031015E-01  0.10628350454E+00  0.13229652010E+00  0.21186943496E-01 0.  0.
         14    1    1    2    0    0  0.72840663145E-02  0.21524740578E-01 -0.51668716591E-02  0.23303833199E-01  0.00000000000E+00 0. -1.
     999901    1    3    3    0    0  0.66890121047E-01 -0.55407095634E-02 -0.10111663289E+00  0.88832964670E+00  0.88000000000E+00 0.  1.
        -11    1    4    4    0    0 -0.10756089505E-01 -0.77656525354E-02  0.29638175720E-01  0.32475858753E-01  0.51100000000E-03 0.  1.
         11    1    4    4    0    0 -0.63418097857E-01 -0.82183784796E-02  0.76645328824E-01  0.99820661350E-01  0.51100000000E-03 0. -1.
</event>
<event>
 8    1  0.1022673E+005  0.1043930E+01  0.7957747E-01            NaN
         13   -1    0    0    0    0  0.00000000000E+00  0.00000000000E+00  0.74505805969E-08  0.10566000000E+00  0.10566000000E+00 0.  1.
     999900   -1    0    0    0    0 -0.00000000000E+00 -0.00000000000E+00 -0.74505805969E-08  0.93827000000E+00  0.93827000000E+00 0. -1.
     999902    2    1    2    0    0  0.31540650980E-02 -0.16666786570E-01 -0.17086482734E-01  0.10198535012E+01  0.10195692650E+01 0.  0.
     999903    2    3    3    0    0  0.63671476525E-01 -0.11348293102E+00 -0.14263570385E-01  0.13247326043E+00  0.20329356414E-01 0.  0.
         14    1    1    2    0    0 -0.31540650980E-02  0.16666786570E-01  0.17086482734E-01  0.24076498778E-01  0.00000000000E+00 0.  1.
     999901    1    3    3    0    0 -0.60517411427E-01  0.96816144454E-01 -0.28229123491E-02  0.88738024079E+00  0.88000000000E+00 0. -1.
        -11    1    4    4    0    0  0.57382059284E-01 -0.89154377503E-01 -0.16239093583E-01  0.10726216965E+00  0.51100000000E-03 0. -1.
         11    1    4    4    0    0  0.62894172414E-02 -0.24328553521E-01  0.19755231986E-02  0.25211090785E-01  0.51100000000E-03 0.  1.
</event>
<event>
 7    1  0.1022673E+005  0.1043930E+01  0.7957747E-01            NaN
         13   -1    0    0    0    0  0.00000000000E+00  0.00000000000E+00  0.74505805969E-08  0.10566000000E+00  0.10566000000E+00 0.  1.
     999900   -1    0    0    0    0 -0.00000000000E+00 -0.00000000000E+00 -0.74505805969E-08  0.93827000000E+00  0.93827000000E+00 0.  1.
     999903    2    1    2    0    0  0.50544753137E-01  0.95518693434E-01 -0.52223033476E-02  0.11003998273E+00  0.20073178168E-01 0.  0.
         14    1    1    2    0    0 -0.33877967355E-01  0.60690214328E-02 -0.32155039010E-01  0.47100915352E-01  0.00000000000E+00 0. -1.
     999901    1    1    2    0    0 -0.16666785782E-01 -0.10158771487E+00  0.37377342358E-01  0.88678910192E+00  0.88000000000E+00 0. -1.
        -11    1    3    3    0    0  0.42860436967E-01  0.66522012182E-01  0.20766863602E-02  0.79162926354E-01  0.51100000000E-03 0.  1.
         11    1    3    3    0    0  0.76843161704E-02  0.28996681251E-01 -0.72989897078E-02  0.30877056375E-01  0.51100000000E-03 0. -1.
</event>
<event>
 8    1  0.1022673E+005  0.1043930E+01  0.7957747E-01            NaN
         13   -1    0    0    0    0  0.00000000000E+00  0.00000000000E+00  0.74505805969E-08  0.10566000000E+00  0.10566000000E+00 0. -1.
     999900   -1    0    0    0    0 -0.00000000000E+00 -0.00000000000E+00 -0.74505805969E-08  0.93827000000E+00  0.93827000000E+00 0.  1.
     999902    2    1    2    0    0 -0.11750819190E-01 -0.26045044912E-01 -0.81510870699E-02  0.10142169332E+01  0.10137815945E+01 0.  0.
     999903    2    3    3    0    0 -0.10791413319E+00 -0.43112811292E-02 -0.63937288410E-01  0.12695606984E+00  0.19126409361E-01 0.  0.
         14    1    1    2    0    0  0.11750819190E-01  0.26045044912E-01  0.81510870699E-02  0.29713066764E-01  0.00000000000E+00 0. -1.
     999901    1    3    3    0    0  0.96163313995E-01 -0.21733763783E-01  0.55786201340E-01  0.88726086339E+00  0.88000000000E+00 0. -1.
        -11    1    4    4    0    0 -0.73404808278E-01  0.56417564059E-02 -0.39954067622E-01  0.83765648891E-01  0.51100000000E-03 0.  1.
         11    1    4    4    0    0 -0.34509324908E-01 -0.99530375351E-02 -0.23983220788E-01  0.43190420953E-01  0.51100000000E-03 0. -1.
</event>
<event>
 8    1  0.1022673E+005  0.1043930E+01  0.7957747E-01            NaN
         13   -1    0    0    0    0  0.00000000000E+00  0.00000000000E+00  0.74505805969E-08  0.10566000000E+00  0.10566000000E+00 0.  1.
     999900   -1    0    0    0    0 -0.00000000000E+00 -0.00000000000E+00 -0.74505805969E-08  0.93827000000E+00  0.93827000000E+00 0.  1.
     999902    2    1    2    0    0  0.14119166989E-01 -0.18779414387E-01  0.71032534399E-03  0.10204242168E+01  0.10201534494E+01 0.  0.
     999903    2    3    3    0    0  0.50571623825E-01  0.88201983682E-01 -0.78067654732E-01  0.12970553435E+00  0.19796157805E-01 0.  0.
         14    1    1    2    0    0 -0.14119166989E-01  0.18779414387E-01 -0.71032534399E-03  0.23505783188E-01  0.00000000000E+00 0.  1.
     999901    1    3    3    0    0 -0.36452456835E-01 -0.10698139807E+00  0.78777980076E-01  0.89071868246E+00  0.88000000000E+00 0. -1.
        -11    1    4    4    0    0  0.22756470939E-01  0.21677893277E-01 -0.25382471540E-01  0.40401967886E-01  0.51100000000E-03 0.  1.
         11    1    4    4    0    0  0.27815152886E-01  0.66524090404E-01 -0.52685183192E-01  0.89303566464E-01  0.51100000000E-03 0. -1.
</event>
<event>
 8    1  0.1022673E+005  0.1043930E+01  0.7957747E-01            NaN
         13   -1    0    0    0    0  0.00000000000E+00  0.00000000000E+00  0.74505805969E-08  0.10566000000E+00  0.10566000000E+00 0. -1.
     999900   -1    0    0    0    0 -0.00000000000E+00 -0.00000000000E+00 -0.74505805969E-08  0.93827000000E+00  0.93827000000E+00 0. -1.
     999902    2    1    2    0    0  0.20590583191E-02  0.28626397113E-02  0.26090501976E-01  0.10176022823E+01  0.10172616459E+01 0.  0.
     999903    2    3    3    0    0 -0.35982207356E-01  0.10640237459E+00 -0.55755739583E-01  0.12694723016E+00  0.19766440898E-01 0.  0.
         14    1    1    2    0    0 -0.20590583191E-02 -0.28626397113E-02 -0.26090501976E-01  0.26327717726E-01  0.00000000000E+00 0.  1.
     999901    1    3    3    0    0  0.38041265675E-01 -0.10353973488E+00  0.81846241559E-01  0.89065505211E+00  0.88000000000E+00 0. -1.
        -11    1    4    4    0    0 -0.24768062116E-01  0.56846491953E-01 -0.39824111622E-01  0.73696686057E-01  0.51100000000E-03 0. -1.
         11    1    4    4    0    0 -0.11214145239E-01  0.49555882635E-01 -0.15931627961E-01  0.53250544107E-01  0.51100000000E-03 0.  1.
</event>
<event>
 8    1  0.1022673E+005  0.1043930E+01  0.7957747E-01            NaN
         13   -1    0    0    0    0  0.00000000000E+00  0.00000000000E+00  0.74505805969E-08  0.10566000000E+00  0.10566000000E+00 0.  1.
     999900   -1    0    0    0    0 -0.00000000000E+00 -0.00000000000E+00 -0.74505805969E-08  0.93827000000E+00  0.93827000000E+00 0.  1.
     999902    2    1    2    0    0  0.71686220601E-02 -0.19052600203E-02  0.22772117852E-01  0.10199802921E+01  0.10196990770E+01 0.  0.
     999903    2    3    3    0    0  0.69033206340E-01  0.95185427843E-01  0.56236540353E-01  0.13185096815E+00  0.19906784751E-01 0.  0.
         14    1    1    2    0    0 -0.71686220601E-02  0.19052600203E-02 -0.22772117852E-01  0.23949707920E-01  0.00000000000E+00 0. -1.
     999901    1    3    3    0    0 -0.61864584280E-01 -0.97090687863E-01 -0.33464422501E-01  0.88812932393E+00  0.88000000000E+00 0.  1.
        -11    1    4    4    0    0  0.60227669667E-01  0.72027730769E-01  0.39020987725E-01  0.10167725801E+00  0.51100000000E-03 0.  1.
         11    1    4    4    0    0  0.88055366731E-02  0.23157697074E-01  0.17215552628E-01  0.30173710132E-01  0.51100000000E-03 0. -1.
</event>
<event>
 8    1  0.1022673E+005  0.1043930E+01  0.7957747E-01            NaN
         13   -1    0    0    0    0  0.00000000000E+00  0.00000000000E+00  0.74505805969E-08  0.10566000000E+00  0.10566000000E+00 0. -1.
     999900   -1    0    0    0    0 -0.00000000000E+00 -0.00000000000E+00 -0.74505805969E-08  0.93827000000E+00  0.93827000000E+00 0. -1.
     999902    2    1    2    0    0 -0.11638874817E-01 -0.97007209957E-03  0.21756178911E-01  0.10192371717E+01  0.10189380141E+01 0.  0.
     999903    2    3    3    0    0  0.49338013796E-01 -0.44537731909E-01  0.11164591295E+00  0.13148918598E+00  0.20167969239E-01 0.  0.
         14    1    1    2    0    0  0.11638874817E-01  0.97007209957E-03 -0.21756178911E-01  0.24692828264E-01  0.00000000000E+00 0.  1.
     999901    1    3    3    0    0 -0.60976888613E-01  0.43567659810E-01 -0.89889734036E-01  0.88774798575E+00  0.88000000000E+00 0.  1.
        -11    1    4    4    0    0  0.43225230784E-01 -0.40289536656E-01  0.82996020059E-01  0.10188359930E+00  0.51100000000E-03 0.  1.
         11    1    4    4    0    0  0.61127830115E-02 -0.42481952538E-02  0.28649892888E-01  0.29605586679E-01  0.51100000000E-03 0. -1.
</event>
<event>
 7    1  0.1022673E+005  0.1043930E+01  0.7957747E-01            NaN
         13   -1    0    0    0    0  0.00000000000E+00  0.00000000000E+00  0.74505805969E-08  0.10566000000E+00  0.10566000000E+00 0. -1.
     999900   -1    0    0    0    0 -0.00000000000E+00 -0.00000000000E+00 -0.74505805969E-08  0.93827000000E+00  0.93827000000E+00 0. -1.
     999903    2    1    2    0    0 -0.70655396648E-01  0.20999297154E-01  0.68862332625E-01  0.10279673813E+00  0.19798812068E-01 0.  0.
         14    1    1    2    0    0 -0.25697715551E-01  0.64711345206E-02 -0.48437212022E-01  0.55212423194E-01  0.00000000000E+00 0.  1.
     999901    1    1    2    0    0  0.96353112199E-01 -0.27470431675E-01 -0.20425120603E-01  0.88592083867E+00  0.88000000000E+00 0. -1.
        -11    1    3    3    0    0 -0.34345426436E-01  0.79319061853E-02  0.19999225618E-01  0.40530896846E-01  0.51100000000E-03 0.  1.
         11    1    3    3    0    0 -0.36309970212E-01  0.13067390969E-01  0.48863107007E-01  0.62265841285E-01  0.51100000000E-03 0. -1.
</event>
<event>
 8    1  0.1022673E+005  0.1043930E+01  0.7957747E-01            NaN
         13   -1    0    0    0    0  0.00000000000E+00  0.00000000000E+00  0.74505805969E-08  0.10566000000E+00  0.10566000000E+00 0. -1.
     999900   -1    0    0    0    0 -0.00000000000E+00 -0.00000000000E+00 -0.74505805969E-08  0.93827000000E+00  0.93827000000E+00 0.  1.
     999902    2    1    2    0    0  0.53160571020E-02 -0.48438903094E-02  0.22551256943E-01  0.10202597037E+01  0.10199850882E+01 0.  0.
     999903    2    3    3    0    0 -0.14313926635E-01  0.10363948288E+00 -0.72272907850E-01  0.12832607348E+00  0.17267802916E-01 0.  0.
         14    1    1    2    0    0 -0.53160571020E-02  0.48438903094E-02 -0.22551256943E-01  0.23670296284E-01  0.00000000000E+00 0.  1.
     999901    1    3    3    0    0  0.19629983737E-01 -0.10848337319E+00  0.94824164794E-01  0.89193363024E+00  0.88000000000E+00 0. -1.
        -11    1    4    4    0    0  0.19847739659E-02  0.48101964641E-01 -0.33743783348E-01  0.58793217004E-01  0.51100000000E-03 0. -1.
         11    1    4    4    0    0 -0.16298700600E-01  0.55537518241E-01 -0.38529124503E-01  0.69532856475E-01  0.51100000000E-03 0.  1.
</event>
<event>
 8    1  0.1022673E+005  0.1043930E+01  0.7957747E-01            NaN
         13   -1    0    0    0    0  0.00000000000E+00  0.00000000000E+00  0.74505805969E-08  0.10566000000E+00  0.10566000000E+00 0. -1.
     999900   -1    0    0    0    0 -0.00000000000E+00 -0.00000000000E+00 -0.74505805969E-08  0.93827000000E+00  0.93827000000E+00 0.  1.
     999902    2    1    2    0    0 -0.49136536621E-02 -0.20953180743E-01 -0.94494397856E-02  0.10204252837E+01  0.10201545412E+01 0.  0.
     999903    2    3    3    0    0  0.37258639874E-02 -0.26362219698E-01  0.12572217798E+00  0.13004600205E+00  0.19926061388E-01 0.  0.
         14    1    1    2    0    0  0.49136536621E-02  0.20953180743E-01  0.94494397856E-02  0.23504716289E-01  0.00000000000E+00 0.  1.
     999901    1    3    3    0    0 -0.86395176495E-02  0.54090389555E-02 -0.13517161777E+00  0.89037928166E+00  0.88000000000E+00 0.  1.
        -11    1    4    4    0    0  0.11919897506E-01 -0.16475297377E-01  0.80865788746E-01  0.83384988401E-01  0.51100000000E-03 0. -1.
         11    1    4    4    0    0 -0.81940335184E-02 -0.98869223211E-02  0.44856389234E-01  0.46661013646E-01  0.51100000000E-03 0.  1.
</event>
<event>
 8    1  0.1022673E+005  0.1043930E+01  0.7957747E-01            NaN
         13   -1    0    0    0    0  0.00000000000E+00  0.00000000000E+00  0.74505805969E-08  0.10566000000E+00  0.10566000000E+00 0. -1.
     999900   -1    0    0    0    0 -0.00000000000E+00 -0.00000000000E+00 -0.74505805969E-08  0.93827000000E+00  0.93827000000E+00 0. -1.
     999902    2    1    2    0    0 -0.15764781110E-01  0.13574328272E-01 -0.14797990999E-01  0.10184001890E+01  0.10180801411E+01 0.  0.
     999903    2    3    3    0    0  0.98893775009E-01  0.57343210491E-01  0.52092248226E-01  0.12736898662E+00  0.21000807155E-01 0.  0.
         14    1    1    2    0    0  0.15764781110E-01 -0.13574328272E-01  0.14797990999E-01  0.25529810988E-01  0.00000000000E+00 0. -1.
     999901    1    3    3    0    0 -0.11465855612E+00 -0.43768882220E-01 -0.66890239225E-01  0.89103120240E+00  0.88000000000E+00 0.  1.
        -11    1    4    4    0    0  0.32568803246E-01  0.30629361486E-01  0.20970412033E-01  0.49385261281E-01  0.51100000000E-03 0.  1.
         11    1    4    4    0    0  0.66324971763E-01  0.26713849005E-01  0.31121836193E-01  0.77983725334E-01  0.51100000000E-03 0. -1.
</event>
<event>
 8    1  0.1022673E+005  0.1043930E+01  0.7957747E-01            NaN
         13   -1    0    0    0    0  0.00000000000E+00  0.00000000000E+00  0.74505805969E-08  0.10566000000E+00  0.10566000000E+00 0. -1.
     999900   -1    0    0    0    0 -0.00000000000E+00 -0.00000000000E+00 -0.74505805969E-08  0.93827000000E+00  0.93827000000E+00 0.  1.
     999902    2    1    2    0    0 -0.15269830384E-01  0.15519320219E-01 -0.97619893283E-02  0.10200697096E+01  0.10197906153E+01 0.  0.
     999903    2    3    3    0    0  0.49652162554E-01  0.52496825405E-01  0.10556560699E+00  0.12940554425E+00  0.19504962954E-01 0.  0.
         14    1    1    2    0    0  0.15269830384E-01 -0.15519320219E-01  0.97619893283E-02  0.23860290351E-01  0.00000000000E+00 0. -1.
     999901    1    3    3    0    0 -0.64921992937E-01 -0.36977505186E-01 -0.11532759632E+00  0.89066416540E+00  0.88000000000E+00 0.  1.
        -11    1    4    4    0    0  0.22762093515E-01  0.14208579691E-01  0.50138706904E-01  0.56869567336E-01  0.51100000000E-03 0. -1.
         11    1    4    4    0    0  0.26890069039E-01  0.38288245714E-01  0.55426900083E-01  0.72535976912E-01  0.51100000000E-03 0.  1.
</event>
<event>
 8    1  0.1022673E+005  0.1043930E+01  0.7957747E-01            NaN
         13   -1    0    0    0    0  0.00000000000E+00  0.00000000000E+00  0.74505805969E-08  0.10566000000E+00  0.10566000000E+00 0. -1.
     999900   -1    0    0    0    0 -0.00000000000E+00 -0.00000000000E+00 -0.74505805969E-08  0.93827000000E+00  0.93827000000E+00 0.  1.
     999902    2    1    2    0    0  0.11151537770E-01 -0.62114946005E-02  0.19537341403E-01  0.10205923230E+01  0.10203254591E+01 0.  0.
     999903    2    3    3    0    0 -0.31634707957E-01  0.17294208931E-01  0.12614935310E+00  0.13281459068E+00  0.20644897668E-01 0.  0.
         14    1    1    2    0    0 -0.11151537770E-01  0.62114946005E-02 -0.19537341403E-01  0.23337677024E-01  0.00000000000E+00 0.  1.
     999901    1    3    3    0    0  0.42786245726E-01 -0.23505703532E-01 -0.10661201170E+00  0.88777773230E+00  0.88000000000E+00 0.  1.
        -11    1    4    4    0    0 -0.20065977247E-01  0.17228577478E-01  0.10869954428E+00  0.11187188821E+00  0.51100000000E-03 0.  1.
         11    1    4    4    0    0 -0.11568730710E-01  0.65631453001E-04  0.17449808821E-01  0.20942702467E-01  0.51100000000E-03 0. -1.
</event>
<event>
 8    1  0.1022673E+005  0.1043930E+01  0.7957747E-01            NaN
         13   -1    0    0    0    0  0.00000000000E+00  0.00000000000E+00  0.74505805969E-08  0.10566000000E+00  0.10566000000E+00 0. -1.
     999900   -1    0    0    0    0 -0.00000000000E+00 -0.00000000000E+00 -0.74505805969E-08  0.93827000000E+00  0.93827000000E+00 0.  1.
     999902    2    1    2    0    0  0.14765957686E-01  0.15386378539E-01 -0.11186483980E-01  0.10198486467E+01  0.10195642945E+01 0.  0.
     999903    2    3    3    0    0  0.40253587430E-03 -0.73396331854E-01 -0.10618632531E+00  0.13017811930E+00  0.16841125110E-01 0.  0.
         14    1    1    2    0    0 -0.14765957686E-01 -0.15386378539E-01  0.11186483980E-01  0.24081353259E-01  0.00000000000E+00 0.  1.
     999901    1    3    3    0    0  0.14363421812E-01  0.88782710393E-01  0.94999841334E-01  0.88967052745E+00  0.88000000000E+00 0. -1.
        -11    1    4    4    0    0 -0.19457914734E-02 -0.69316106365E-02 -0.39928803120E-02  0.82484874165E-02  0.51100000000E-03 0. -1.
         11    1    4    4    0    0  0.23483273477E-02 -0.66464721217E-01 -0.10219344500E+00  0.12192963188E+00  0.51100000000E-03 0.  1.
</event>
<event>
 8    1  0.1022673E+005  0.1043930E+01  0.7957747E-01            NaN
         13   -1    0    0    0    0  0.00000000000E+00  0.00000000000E+00  0.74505805969E-08  0.10566000000E+00  0.10566000000E+00 0. -1.
     999900   -1    0    0    0    0 -0.00000000000E+00 -0.00000000000E+00 -0.74505805969E-08  0.93827000000E+00  0.93827000000E+00 0.  1.
     999902    2    1    2    0    0 -0.21521476734E-01  0.70715119936E-02 -0.24017289796E-02  0.10211495578E+01  0.10208954261E+01 0.  0.
     999903    2    3    3    0    0  0.10945357638E+00 -0.63512059614E-01  0.10242553668E-01  0.12857105541E+00  0.20291359896E-01 0.  0.
         14    1    1    2    0    0  0.21521476734E-01 -0.70715119936E-02  0.24017289796E-02  0.22780442155E-01  0.00000000000E+00 0.  1.
     999901    1    3    3    0    0 -0.13097505311E+00  0.70583571607E-01 -0.12644282647E-01  0.89257850243E+00  0.88000000000E+00 0. -1.
        -11    1    4    4    0    0  0.46016672841E-01 -0.15347902262E-01  0.39011036833E-02  0.48667977297E-01  0.51100000000E-03 0. -1.
         11    1    4    4    0    0  0.63436903535E-01 -0.48164157352E-01  0.63414499843E-02  0.79903078117E-01  0.51100000000E-03 0.  1.
</event>
<event>
 8    1  0.1022673E+005  0.1043930E+01  0.7957747E-01            NaN
         13   -1    0    0    0    0  0.00000000000E+00  0.00000000000E+00  0.74505805969E-08  0.10566000000E+00  0.10566000000E+00 0.  1.
     999900   -1    0    0    0    0 -0.00000000000E+00 -0.00000000000E+00 -0.74505805969E-08  0.93827000000E+00  0.93827000000E+00 0. -1.
     999902    2    1    2    0    0  0.20672638073E-01  0.69434775133E-02 -0.67253926423E-02  0.10211089406E+01  0.10208538915E+01 0.  0.
     999903    2    3    3    0    0 -0.27864747304E-01 -0.11337820538E+00 -0.54003490605E-01  0.13034050624E+00  0.21004974937E-01 0.  0.
         14    1    1    2    0    0 -0.20672638073E-01 -0.69434775133E-02  0.67253926423E-02  0.22821059377E-01  0.00000000000E+00 0.  1.
     999901    1    3    3    0    0  0.48537385377E-01  0.12032168289E+00  0.47278097963E-01  0.89076843439E+00  0.88000000000E+00 0.  1.
        -11    1    4    4    0    0 -0.29454037329E-01 -0.90005365387E-01 -0.47890723941E-01  0.10612393073E+00  0.51100000000E-03 0.  1.
         11    1    4    4    0    0  0.15892900248E-02 -0.23372839988E-01 -0.61127666642E-02  0.24216575505E-01  0.51100000000E-03 0. -1.
</event>
<event>
 8    1  0.1022673E+005  0.1043930E+01  0.7957747E-01            NaN
         13   -1    0    0    0    0  0.00000000000E+00  0.00000000000E+00  0.74505805969E-08  0.10566000000E+00  0.10566000000E+00 0.  1.
     999900   -1    0    0    0    0 -0.00000000000E+00 -0.00000000000E+00 -0.74505805969E-08  0.93827000000E+00  0.93827000000E+00 0. -1.
     999902    2    1    2    0    0 -0.23272940683E-01 -0.43160340248E-03 -0.11306632897E-01  0.10180522876E+01  0.10177233437E+01 0.  0.
     999903    2    3    3    0    0 -0.25353750758E-01 -0.12509652947E+00  0.20157900268E-02  0.12916356541E+00  0.19677623219E-01 0.  0.
         14    1    1    2    0    0  0.23272940683E-01  0.43160340248E-03  0.11306632897E-01  0.25877712360E-01  0.00000000000E+00 0. -1.
     999901    1    3    3    0    0  0.20808100746E-02  0.12466492607E+00 -0.13322422924E-01  0.88888872223E+00  0.88000000000E+00 0. -1.
        -11    1    4    4    0    0 -0.83646543191E-02 -0.87350109462E-01  0.13687759099E-02  0.87761858079E-01  0.51100000000E-03 0. -1.
         11    1    4    4    0    0 -0.16989096439E-01 -0.37746420009E-01  0.64701411689E-03  0.41401707327E-01  0.51100000000E-03 0.  1.
</event>
<event>
 8    1  0.1022673E+005  0.1043930E+01  0.7957747E-01            NaN
         13   -1    0    0    0    0  0.00000000000E+00  0.00000000000E+00  0.74505805969E-08  0.10566000000E+00  0.10566000000E+00 0.  1.
     999900   -1    0    0    0    0 -0.00000000000E+00 -0.00000000000E+00 -0.74505805969E-08  0.93827000000E+00  0.93827000000E+00 0. -1.
     999902    2    1    2    0    0 -0.12833607608E-01 -0.61146859674E-02 -0.18185892042E-01  0.10208471592E+01  0.10205861575E+01 0.  0.
     999903    2    3    3    0    0 -0.12817158461E+00  0.26762949939E-01  0.36046991095E-02  0.13244487549E+00  0.19607156839E-01 0.  0.
         14    1    1    2    0    0  0.12833607608E-01  0.61146859674E-02  0.18185892042E-01  0.23082840772E-01  0.00000000000E+00 0.  1.
     999901    1    3    3    0    0  0.11533797700E+00 -0.32877635906E-01 -0.21790591152E-01  0.88840228373E+00  0.88000000000E+00 0.  1.
        -11    1    4    4    0    0 -0.91528273620E-01  0.23998916619E-01  0.99674966849E-02  0.95147175376E-01  0.51100000000E-03 0.  1.
         11    1    4    4    0    0 -0.36643310985E-01  0.27640333196E-02 -0.63627975754E-02  0.37297700119E-01  0.51100000000E-03 0. -1.
</event>
<event>
 8    1  0.1022673E+005  0.1043930E+01  0.7957747E-01            NaN
         13   -1    0    0    0    0  0.00000000000E+00  0.00000000000E+00  0.74505805969E-08  0.10566000000E+00  0.10566000000E+00 0.  1.
     999900   -1    0    0    0    0 -0.00000000000E+00 -0.00000000000E+00 -0.74505805969E-08  0.93827000000E+00  0.93827000000E+00 0. -1.
     999902    2    1    2    0    0  0.12067464977E-01 -0.18229208303E-01 -0.63175608510E-02  0.10211739168E+01  0.10209203343E+01 0.  0.
     999903    2    3    3    0    0 -0.11985420021E+00  0.33412160724E-01 -0.30167279850E-01  0.12952434113E+00  0.19623668897E-01 0.  0.
         14    1    1    2    0    0 -0.12067464977E-01  0.18229208303E-01  0.63175608510E-02  0.22756083174E-01  0.00000000000E+00 0. -1.
     999901    1    3    3    0    0  0.13192166518E+00 -0.51641369027E-01  0.23849718999E-01  0.89164957569E+00  0.88000000000E+00 0.  1.
        -11    1    4    4    0    0 -0.89480768877E-01  0.33098854563E-01 -0.25785322540E-01  0.98830593197E-01  0.51100000000E-03 0.  1.
         11    1    4    4    0    0 -0.30373431329E-01  0.31330616096E-03 -0.43819573096E-02  0.30693747935E-01  0.51100000000E-03 0. -1.
</event>
<event>
 8    1  0.1022673E+005  0.1043930E+01  0.7957747E-01            NaN
         13   -1    0    0    0    0  0.00000000000E+00  0.00000000000E+00  0.74505805969E-08  0.10566000000E+00  0.10566000000E+00 0.  1.
     999900   -1    0    0    0    0 -0.00000000000E+00 -0.00000000000E+00 -0.74505805969E-08  0.93827000000E+00  0.93827000000E+00 0. -1.
     999902    2    1    2    0    0 -0.22882666106E-01 -0.55109423487E-02  0.29581117364E-02  0.10202079150E+01  0.10199320823E+01 0.  0.
     999903    2    3    3    0    0  0.62971417342E-01 -0.30228249336E-01 -0.10653590448E+00  0.12893309287E+00  0.19866983477E-01 0.  0.
         14    1    1    2    0    0  0.22882666106E-01  0.55109423487E-02 -0.29581117364E-02  0.23722085042E-01  0.00000000000E+00 0. -1.
     999901    1    3    3    0    0 -0.85854083448E-01  0.24717306987E-01  0.10949401622E+00  0.89127482209E+00  0.88000000000E+00 0.  1.
        -11    1    4    4    0    0  0.43773169313E-01 -0.19574854674E-01 -0.55343587466E-01  0.73228676636E-01  0.51100000000E-03 0.  1.
         11    1    4    4    0    0  0.19198248029E-01 -0.10653394661E-01 -0.51192317014E-01  0.55704416230E-01  0.51100000000E-03 0. -1.
</event>
<event>
 7    1  0.1022673E+005  0.1043930E+01  0.7957747E-01            NaN
         13   -1    0    0    0    0  0.00000000000E+00  0.00000000000E+00  0.74505805969E-08  0.10566000000E+00  0.10566000000E+00 0. -1.
     999900   -1    0    0    0    0 -0.00000000000E+00 -0.00000000000E+00 -0.74505805969E-08  0.93827000000E+00  0.93827000000E+00 0.  1.
     999903    2    1    2    0    0  0.61378425687E-01 -0.36591474996E-01  0.32572426555E-02  0.76357484316E-01  0.26713453522E-01 0.  0.
         14    1    1    2    0    0 -0.24735260190E-01  0.63387301362E-01 -0.51116111204E-01  0.85103700832E-01  0.00000000000E+00 0.  1.
     999901    1    1    2    0    0 -0.36643165497E-01 -0.26795826366E-01  0.47858868548E-01  0.88246881485E+00  0.88000000000E+00 0. -1.
        -11    1    3    3    0    0  0.16133788461E-01 -0.89922012521E-02 -0.10959573444E-01  0.21483300131E-01  0.51100000000E-03 0.  1.
         11    1    3    3    0    0  0.45244637226E-01 -0.27599273744E-01  0.14216816099E-01  0.54874184184E-01  0.51100000000E-03 0. -1.
</event>
<event>
 8    1  0.1022673E+005  0.1043930E+01  0.7957747E-01            NaN
         13   -1    0    0    0    0  0.00000000000E+00  0.00000000000E+00  0.74505805969E-08  0.10566000000E+00  0.10566000000E+00 0. -1.
     999900   -1    0    0    0    0 -0.00000000000E+00 -0.00000000000E+00 -0.74505805969E-08  0.93827000000E+00  0.93827000000E+00 0. -1.
     999902    2    1    2    0    0 -0.71824910768E-02  0.62310819989E-02 -0.21767885100E-01  0.10201759397E+01  0.10198993541E+01 0.  0.
     999903    2    3    3    0    0  0.83973198299E-01  0.88186213877E-01  0.39501745070E-01  0.12956942108E+00  0.19988513354E-01 0.  0.
         14    1    1    2    0    0  0.71824910768E-02 -0.62310819989E-02  0.21767885100E-01  0.23754060340E-01  0.00000000000E+00 0. -1.
     999901    1    3    3    0    0 -0.91155689376E-01 -0.81955131879E-01 -0.61269630169E-01  0.89060651857E+00  0.88000000000E+00 0. -1.
        -11    1    4    4    0    0  0.53747781026E-01  0.45171921143E-01  0.16162150578E-01  0.72047225188E-01  0.51100000000E-03 0.  1.
         11    1    4    4    0    0  0.30225417273E-01  0.43014292734E-01  0.23339594491E-01  0.57522195897E-01  0.51100000000E-03 0. -1.
</event>
<event>
 8    1  0.1022673E+005  0.1043930E+01  0.7957747E-01            NaN
         13   -1    0    0    0    0  0.00000000000E+00  0.00000000000E+00  0.74505805969E-08  0.10566000000E+00  0.10566000000E+00 0. -1.
     999900   -1    0    0    0    0 -0.00000000000E+00 -0.00000000000E+00 -0.74505805969E-08  0.93827000000E+00  0.93827000000E+00 0.  1.
     999902    2    1    2    0    0 -0.82712431513E-02 -0.21232774868E-01  0.44145596395E-02  0.10207193876E+01  0.10204554550E+01 0.  0.
     999903    2    3    3    0    0 -0.35423035124E-02  0.73861229267E-01  0.10482175282E+00  0.12990692868E+00  0.20498320726E-01 0.  0.
         14    1    1    2    0    0  0.82712431513E-02  0.21232774868E-01 -0.44145596395E-02  0.23210612415E-01  0.00000000000E+00 0.  1.
     999901    1    3    3    0    0 -0.47289396389E-02 -0.95094004135E-01 -0.10040719318E+00  0.89081245890E+00  0.88000000000E+00 0.  1.
        -11    1    4    4    0    0  0.73669656774E-02  0.43853243171E-01  0.66877571338E-01  0.80313447124E-01  0.51100000000E-03 0. -1.
         11    1    4    4    0    0 -0.10909269190E-01  0.30007986095E-01  0.37944181482E-01  0.49593481558E-01  0.51100000000E-03 0.  1.
</event>
<event>
 8    1  0.1022673E+005  0.1043930E+01  0.7957747E-01            NaN
         13   -1    0    0    0    0  0.00000000000E+00  0.00000000000E+00  0.74505805969E-08  0.10566000000E+00  0.10566000000E+00 0. -1.
     999900   -1    0    0    0    0 -0.00000000000E+00 -0.00000000000E+00 -0.74505805969E-08  0.93827000000E+00  0.93827000000E+00 0. -1.
     999902    2    1    2    0    0 -0.64758687081E-02 -0.22927848412E-01 -0.74627022982E-02  0.10189637221E+01  0.10186578188E+01 0.  0.
     999903    2    3    3    0    0 -0.16076194782E-01  0.96833678218E-01  0.77453906899E-01  0.12674972305E+00  0.20764857894E-01 0.  0.
         14    1    1    2    0    0  0.64758687081E-02  0.22927848412E-01  0.74627022982E-02  0.24966277935E-01  0.00000000000E+00 0.  1.
     999901    1    3    3    0    0  0.96003260741E-02 -0.11976152663E+00 -0.84916609198E-01  0.89221399902E+00  0.88000000000E+00 0. -1.
        -11    1    4    4    0    0 -0.96257519257E-02  0.87832874404E-01  0.73650449138E-01  0.11503007739E+00  0.51100000000E-03 0.  1.
         11    1    4    4    0    0 -0.64504428565E-02  0.90008038140E-02  0.38034577617E-02  0.11719645655E-01  0.51100000000E-03 0. -1.
</event>
<event>
 8    1  0.1022673E+005  0.1043930E+01  0.7957747E-01            NaN
         13   -1    0    0    0    0  0.00000000000E+00  0.00000000000E+00  0.74505805969E-08  0.10566000000E+00  0.10566000000E+00 0. -1.
     999900   -1    0    0    0    0 -0.00000000000E+00 -0.00000000000E+00 -0.74505805969E-08  0.93827000000E+00  0.93827000000E+00 0. -1.
     999902    2    1    2    0    0 -0.21516208973E-01 -0.46185510338E-02 -0.81138243070E-02  0.10204755248E+01  0.10202059519E+01 0.  0.
     999903    2    3    3    0    0 -0.11707751092E+00  0.56260510994E-01  0.18756042756E-01  0.13280429490E+00  0.20317552612E-01 0.  0.
         14    1    1    2    0    0  0.21516208973E-01  0.46185510338E-02  0.81138243070E-02  0.23454475205E-01  0.00000000000E+00 0. -1.
     999901    1    3    3    0    0  0.95561301947E-01 -0.60879062027E-01 -0.26869867063E-01  0.88767122989E+00  0.88000000000E+00 0.  1.
        -11    1    4    4    0    0 -0.31865978063E-01  0.22291719163E-01  0.12522168581E-01  0.40858623669E-01  0.51100000000E-03 0.  1.
         11    1    4    4    0    0 -0.85211532858E-01  0.33968791830E-01  0.62338741746E-02  0.91945671233E-01  0.51100000000E-03 0. -1.
</event>
<event>
 8    1  0.1022673E+005  0.1043930E+01  0.7957747E-01            NaN
         13   -1    0    0    0    0  0.00000000000E+00  0.00000000000E+00  0.74505805969E-08  0.10566000000E+00  0.10566000000E+00 0.  1.
     999900   -1    0    0    0    0 -0.00000000000E+00 -0.00000000000E+00 -0.74505805969E-08  0.93827000000E+00  0.93827000000E+00 0.  1.
     999902    2    1    2    0    0 -0.12119426788E-01  0.29939622662E-02  0.20545117659E-01  0.10198894889E+01  0.10196061119E+01 0.  0.
     999903    2    3    3    0    0 -0.87163685781E-01 -0.65552814591E-01 -0.67217122577E-01  0.12970270384E+00  0.20247720791E-01 0.  0.
         14    1    1    2    0    0  0.12119426788E-01 -0.29939622662E-02 -0.20545117659E-01  0.24040511129E-01  0.00000000000E+00 0. -1.
     999901    1    3    3    0    0  0.75044258993E-01  0.68546776857E-01  0.87762240235E-01  0.89018678503E+00  0.88000000000E+00 0. -1.
        -11    1    4    4    0    0 -0.46541451066E-01 -0.41996292841E-01 -0.48025295236E-01  0.78971421306E-01  0.51100000000E-03 0.  1.
         11    1    4    4    0    0 -0.40622234716E-01 -0.23556521751E-01 -0.19191827341E-01  0.50731282538E-01  0.51100000000E-03 0. -1.
</event>
<event>
 8    1  0.1022673E+005  0.1043930E+01  0.7957747E-01            NaN
         13   -1    0    0    0    0  0.00000000000E+00  0.00000000000E+00  0.74505805969E-08  0.10566000000E+00  0.10566000000E+00 0.  1.
     999900   -1    0    0    0    0 -0.00000000000E+00 -0.00000000000E+00 -0.74505805969E-08  0.93827000000E+00  0.93827000000E+00 0.  1.
     999902    2    1    2    0    0 -0.10044336004E-01 -0.14787837586E-01 -0.16250033691E-01  0.10197715145E+01  0.10194853159E+01 0.  0.
     999903    2    3    3    0    0  0.86850409632E-01 -0.12917577127E-01 -0.95228495130E-01  0.13093537271E+00  0.19124541530E-01 0.  0.
         14    1    1    2    0    0  0.10044336004E-01  0.14787837586E-01  0.16250033691E-01  0.24158485490E-01  0.00000000000E+00 0. -1.
     999901    1    3    3    0    0 -0.96894745636E-01 -0.18702604587E-02  0.78978461439E-01  0.88883614180E+00  0.88000000000E+00 0. -1.
        -11    1    4    4    0    0  0.70226634360E-01 -0.30955790026E-02 -0.70513247891E-01  0.99567776073E-01  0.51100000000E-03 0. -1.
         11    1    4    4    0    0  0.16623775272E-01 -0.98219981242E-02 -0.24715247239E-01  0.31367596633E-01  0.51100000000E-03 0.  1.
</event>
<event>
 8    1  0.1022673E+005  0.1043930E+01  0.7957747E-01            NaN
         13   -1    0    0    0    0  0.00000000000E+00  0.00000000000E+00  0.74505805969E-08  0.10566000000E+00  0.10566000000E+00 0. -1.
     999900   -1    0    0    0    0 -0.00000000000E+00 -0.00000000000E+00 -0.74505805969E-08  0.93827000000E+00  0.93827000000E+00 0. -1.
     999902    2    1    2    0    0  0.23672106714E-01  0.45048685062E-02 -0.67485189610E-02  0.10189059119E+01  0.10185985727E+01 0.  0.
     999903    2    3    3    0    0  0.81889663152E-01 -0.42970729511E-01 -0.91777654596E-01  0.13162175777E+00  0.18674814834E-01 0.  0.
         14    1    1    2    0    0 -0.23672106714E-01 -0.45048685062E-02  0.67485189610E-02  0.25024088089E-01  0.00000000000E+00 0.  1.
     999901    1    3    3    0    0 -0.58217556438E-01  0.47475598017E-01  0.85029135635E-01  0.88728415414E+00  0.88000000000E+00 0.  1.
        -11    1    4    4    0    0  0.48448276179E-01 -0.33175168982E-01 -0.49258375715E-01  0.76645130314E-01  0.51100000000E-03 0. -1.
         11    1    4    4    0    0  0.33441386973E-01 -0.97955605285E-02 -0.42519278881E-01  0.54976627455E-01  0.51100000000E-03 0.  1.
</event>
<event>
 8    1  0.1022673E+005  0.1043930E+01  0.7957747E-01            NaN
         13   -1    0    0    0    0  0.00000000000E+00  0.00000000000E+00  0.74505805969E-08  0.10566000000E+00  0.10566000000E+00 0. -1.
     999900   -1    0    0    0    0 -0.00000000000E+00 -0.00000000000E+00 -0.74505805969E-08  0.93827000000E+00  0.93827000000E+00 0.  1.
     999902    2    1    2    0    0  0.12440776373E-01  0.20232175731E-01  0.84816247116E-02  0.10187099324E+01  0.10183976996E+01 0.  0.
     999903    2    3    3    0    0 -0.77367484417E-03  0.10842619254E+00  0.72402503106E-01  0.13189614980E+00  0.19940764160E-01 0.  0.
         14    1    1    2    0    0 -0.12440776373E-01 -0.20232175731E-01 -0.84816247116E-02  0.25220067592E-01  0.00000000000E+00 0. -1.
     999901    1    3    3    0    0  0.13214451217E-01 -0.88194016810E-01 -0.63920878394E-01  0.88681378260E+00  0.88000000000E+00 0.  1.
        -11    1    4    4    0    0  0.58124567448E-02  0.95170076051E-01  0.60830603030E-01  0.11310062518E+00  0.51100000000E-03 0.  1.
         11    1    4    4    0    0 -0.65861315889E-02  0.13256116491E-01  0.11571900075E-01  0.18795524629E-01  0.51100000000E-03 0. -1.
</event>
<event>
 8    1  0.1022673E+005  0.1043930E+01  0.7957747E-01            NaN
         13   -1    0    0    0    0  0.00000000000E+00  0.00000000000E+00  0.74505805969E-08  0.10566000000E+00  0.10566000000E+00 0. -1.
     999900   -1    0    0    0    0 -0.00000000000E+00 -0.00000000000E+00 -0.74505805969E-08  0.93827000000E+00  0.93827000000E+00 0. -1.
     999902    2    1    2    0    0  0.27202223909E-02  0.19448087241E-01 -0.10746306470E-01  0.10215444955E+01  0.10212991949E+01 0.  0.
     999903    2    3    3    0    0  0.58903166425E-01  0.65702055276E-01 -0.99074323210E-01  0.13413377254E+00  0.19743463043E-01 0.  0.
         14    1    1    2    0    0 -0.27202223909E-02 -0.19448087241E-01  0.10746306470E-01  0.22385504461E-01  0.00000000000E+00 0. -1.
     999901    1    3    3    0    0 -0.56182944034E-01 -0.46253968035E-01  0.88328016740E-01  0.88741072300E+00  0.88000000000E+00 0.  1.
        -11    1    4    4    0    0  0.16597004332E-01  0.12473509270E-01 -0.35043357430E-01  0.40735083248E-01  0.51100000000E-03 0.  1.
         11    1    4    4    0    0  0.42306162093E-01  0.53228546006E-01 -0.64030965781E-01  0.93398689288E-01  0.51100000000E-03 0. -1.
</event>
<event>
 8    1  0.1022673E+005  0.1043930E+01  0.7957747E-01            NaN
         13   -1    0    0    0    0  0.00000000000E+00  0.00000000000E+00  0.74505805969E-08  0.10566000000E+00  0.10566000000E+00 0.  1.
     999900   -1    0    0    0    0 -0.00000000000E+00 -0.00000000000E+00 -0.74505805969E-08  0.93827000000E+00  0.93827000000E+00 0.  1.
     999902    2    1    2    0    0  0.12398240815E-01 -0.18171419335E-01 -0.88962935538E-02  0.10202010958E+01  0.10199251026E+01 0.  0.
     999903    2    3    3    0    0 -0.47008729095E-01 -0.10779704253E+00  0.54922865345E-01  0.13136206343E+00  0.20234811136E-01 0.  0.
         14    1    1    2    0    0 -0.12398240815E-01  0.18171419335E-01  0.88962935538E-02  0.23728904209E-01  0.00000000000E+00 0.  1.
     999901    1    3    3    0    0  0.59406969910E-01  0.89625623194E-01 -0.63819158899E-01  0.88883903236E+00  0.88000000000E+00 0. -1.
        -11    1    4    4    0    0 -0.36310861603E-01 -0.58287298266E-01  0.31698792022E-01  0.75637043479E-01  0.51100000000E-03 0. -1.
         11    1    4    4    0    0 -0.10697867492E-01 -0.49509744262E-01  0.23224073323E-01  0.55725019951E-01  0.51100000000E-03 0.  1.
</event>
<event>
 8    1  0.1022673E+005  0.1043930E+01  0.7957747E-01            NaN
         13   -1    0    0    0    0  0.00000000000E+00  0.00000000000E+00  0.74505805969E-08  0.10566000000E+00  0.10566000000E+00 0. -1.
     999900   -1    0    0    0    0 -0.00000000000E+00 -0.00000000000E+00 -0.74505805969E-08  0.93827000000E+00  0.93827000000E+00 0. -1.
     999902    2    1    2    0    0  0.20677843990E-01  0.95996072955E-02 -0.90703110068E-02  0.10193943885E+01  0.10190990742E+01 0.  0.
     999903    2    3    3    0    0  0.30137173547E-01 -0.46300305880E-01 -0.11753290474E+00  0.13092468528E+00  0.16592828737E-01 0.  0.
         14    1    1    2    0    0 -0.20677843990E-01 -0.95996072955E-02  0.90703110068E-02  0.24535611549E-01  0.00000000000E+00 0. -1.
     999901    1    3    3    0    0 -0.94593295566E-02  0.55899913176E-01  0.10846259373E+00  0.88846970317E+00  0.88000000000E+00 0.  1.
        -11    1    4    4    0    0  0.46728155253E-02 -0.37848807083E-02 -0.27478080442E-01  0.28133015350E-01  0.51100000000E-03 0.  1.
         11    1    4    4    0    0  0.25464358021E-01 -0.42515425172E-01 -0.90054824299E-01  0.10279166993E+00  0.51100000000E-03 0. -1.
</event>
<event>
 8    1  0.1022673E+005  0.1043930E+01  0.7957747E-01            NaN
         13   -1    0    0    0    0  0.00000000000E+00  0.00000000000E+00  0.74505805969E-08  0.10566000000E+00  0.10566000000E+00 0.  1.
     999900   -1    0    0    0    0 -0.00000000000E+00 -0.00000000000E+00 -0.74505805969E-08  0.93827000000E+00  0.93827000000E+00 0. -1.
     999902    2    1    2    0    0  0.14947746714E-01  0.18088566429E-01  0.13439800773E-02  0.10204260078E+01  0.10201552822E+01 0.  0.
     999903    2    3    3    0    0 -0.31049029146E-01 -0.10415453416E+00  0.65559142204E-01  0.12847159972E+00  0.19868105402E-01 0.  0.
         14    1    1    2    0    0 -0.14947746714E-01 -0.18088566429E-01 -0.13439800773E-02  0.23503992208E-01  0.00000000000E+00 0. -1.
     999901    1    3    3    0    0  0.45996775859E-01  0.12224310058E+00 -0.64215162127E-01  0.89195440807E+00  0.88000000000E+00 0. -1.
        -11    1    4    4    0    0 -0.33584160608E-01 -0.96015135935E-01  0.62566588474E-01  0.11942211389E+00  0.51100000000E-03 0.  1.
         11    1    4    4    0    0  0.25351314625E-02 -0.81393982209E-02  0.29925537302E-02  0.90494858284E-02  0.51100000000E-03 0. -1.
</event>
<event>
 8    1  0.1022673E+005  0.1043930E+01  0.7957747E-01            NaN
         13   -1    0    0    0    0  0.00000000000E+00  0.00000000000E+00  0.74505805969E-08  0.10566000000E+00  0.10566000000E+00 0.  1.
     999900   -1    0    0    0    0 -0.00000000000E+00 -0.00000000000E+00 -0.74505805969E-08  0.93827000000E+00  0.93827000000E+00 0.  1.
     999902    2    1    2    0    0 -0.22410680636E-02  0.20456373867E-01  0.12772422272E-01  0.10197097525E+01  0.10194220711E+01 0.  0.
     999903    2    3    3    0    0 -0.34458616703E-01 -0.11615442498E+00 -0.33780636374E-01  0.12737143770E+00  0.20077475965E-01 0.  0.
         14    1    1    2    0    0  0.22410680636E-02 -0.20456373867E-01 -0.12772422272E-01  0.24220247492E-01  0.00000000000E+00 0. -1.
     999901    1    3    3    0    0  0.32217548639E-01  0.13661079885E+00  0.46553058646E-01  0.89233831481E+00  0.88000000000E+00 0. -1.
        -11    1    4    4    0    0 -0.18688439295E-01 -0.84635273457E-01 -0.30849487758E-01  0.92001843961E-01  0.51100000000E-03 0.  1.
         11    1    4    4    0    0 -0.15770177407E-01 -0.31519151522E-01 -0.29311486158E-02  0.35369593740E-01  0.51100000000E-03 0. -1.
</event>
<event>
 8    1  0.1022673E+005  0.1043930E+01  0.7957747E-01            NaN
         13   -1    0    0    0    0  0.00000000000E+00  0.00000000000E+00  0.74505805969E-08  0.10566000000E+00  0.10566000000E+00 0. -1.
     999900   -1    0    0    0    0 -0.00000000000E+00 -0.00000000000E+00 -0.74505805969E-08  0.93827000000E+00  0.93827000000E+00 0. -1.
     999902    2    1    2    0    0 -0.15310490555E-01 -0.96614604874E-02  0.15539085404E-01  0.10200717076E+01  0.10197926606E+01 0.  0.
     999903    2    3    3    0    0 -0.56038302473E-01 -0.16305390907E-01 -0.11404931486E+00  0.12962460085E+00  0.19726474827E-01 0.  0.
         14    1    1    2    0    0  0.15310490555E-01  0.96614604874E-02 -0.15539085404E-01  0.23858292374E-01  0.00000000000E+00 0.  1.
     999901    1    3    3    0    0  0.40727811918E-01  0.66439304199E-02  0.12958840027E+00  0.89044710677E+00  0.88000000000E+00 0.  1.
        -11    1    4    4    0    0 -0.30144256275E-01 -0.17843046330E-01 -0.74482646734E-01  0.82310244042E-01  0.51100000000E-03 0. -1.
         11    1    4    4    0    0 -0.25894046199E-01  0.15376554225E-02 -0.39566668129E-01  0.47314356812E-01  0.51100000000E-03 0.  1.
</event>
<event>
 8    1  0.1022673E+005  0.1043930E+01  0.7957747E-01            NaN
         13   -1    0    0    0    0  0.00000000000E+00  0.00000000000E+00  0.74505805969E-08  0.10566000000E+00  0.10566000000E+00 0.  1.
     999900   -1    0    0    0    0 -0.00000000000E+00 -0.00000000000E+00 -0.74505805969E-08  0.93827000000E+00  0.93827000000E+00 0.  1.
     999902    2    1    2    0    0 -0.16489312453E-03 -0.20796697286E-01  0.10123055531E-01  0.10207998020E+01  0.10205377159E+01 0.  0.
     999903    2    3    3    0    0 -0.22171126850E-01  0.12358381406E+00  0.20255662757E-01  0.12870525759E+00  0.19754328462E-01 0.  0.
         14    1    1    2    0    0  0.16489312453E-03  0.20796697286E-01 -0.10123055531E-01  0.23130198033E-01  0.00000000000E+00 0.  1.
     999901    1    3    3    0    0  0.22006233725E-01 -0.14438051135E+00 -0.10132607226E-01  0.89209454438E+00  0.88000000000E+00 0. -1.
        -11    1    4    4    0    0 -0.87238125065E-02  0.77620374483E-01  0.20712266757E-01  0.80810188434E-01  0.51100000000E-03 0. -1.
         11    1    4    4    0    0 -0.13447314343E-01  0.45963439580E-01 -0.45660400051E-03  0.47895069155E-01  0.51100000000E-03 0.  1.
</event>
<event>
 8    1  0.1022673E+005  0.1043930E+01  0.7957747E-01            NaN
         13   -1    0    0    0    0  0.00000000000E+00  0.00000000000E+00  0.74505805969E-08  0.10566000000E+00  0.10566000000E+00 0. -1.
     999900   -1    0    0    0    0 -0.00000000000E+00 -0.00000000000E+00 -0.74505805969E-08  0.93827000000E+00  0.93827000000E+00 0.  1.
     999902    2    1    2    0    0  0.66827510767E-02 -0.12408560120E-01 -0.18508109635E-01  0.10206666888E+01  0.10204015425E+01 0.  0.
     999903    2    3    3    0    0  0.87490908448E-01  0.40532314757E-01  0.83993098483E-01  0.12946570574E+00  0.20223767411E-01 0.  0.
         14    1    1    2    0    0 -0.66827510767E-02  0.12408560120E-01  0.18508109635E-01  0.23263311210E-01  0.00000000000E+00 0. -1.
     999901    1    3    3    0    0 -0.80808157371E-01 -0.52940874878E-01 -0.10250120812E+00  0.89120098305E+00  0.88000000000E+00 0.  1.
        -11    1    4    4    0    0  0.45020400546E-01  0.10954986640E-01  0.33681684015E-01  0.57284947034E-01  0.51100000000E-03 0.  1.
         11    1    4    4    0    0  0.42470507902E-01  0.29577328118E-01  0.50311414468E-01  0.72180758702E-01  0.51100000000E-03 0. -1.
</event>
<event>
 8    1  0.1022673E+005  0.1043930E+01  0.7957747E-01            NaN
         13   -1    0    0    0    0  0.00000000000E+00  0.00000000000E+00  0.74505805969E-08  0.10566000000E+00  0.10566000000E+00 0. -1.
     999900   -1    0    0    0    0 -0.00000000000E+00 -0.00000000000E+00 -0.74505805969E-08  0.93827000000E+00  0.93827000000E+00 0. -1.
     999902    2    1    2    0    0  0.16017153115E-01 -0.15559328491E-01  0.45391530425E-02  0.10211430343E+01  0.10208887553E+01 0.  0.
     999903    2    3    3    0    0 -0.89685733805E-02 -0.13280462408E-01  0.12819732963E+00  0.13214313303E+00  0.27756914347E-01 0.  0.
         14    1    1    2    0    0 -0.16017153115E-01  0.15559328491E-01 -0.45391530425E-02  0.22786965734E-01  0.00000000000E+00 0.  1.
     999901    1    3    3    0    0  0.24985726496E-01 -0.22788660837E-02 -0.12365817658E+00  0.88899990123E+00  0.88000000000E+00 0. -1.
        -11    1    4    4    0    0 -0.14724300004E-01 -0.18867053173E-01  0.91893520351E-01  0.94960259633E-01  0.51100000000E-03 0.  1.
         11    1    4    4    0    0  0.57557266235E-02  0.55865907657E-02  0.36303809274E-01  0.37182873399E-01  0.51100000000E-03 0. -1.
</event>
<event>
 8    1  0.1022673E+005  0.1043930E+01  0.7957747E-01            NaN
         13   -1    0    0    0    0  0.00000000000E+00  0.00000000000E+00  0.74505805969E-08  0.10566000000E+00  0.10566000000E+00 0.  1.
     999900   -1    0    0    0    0 -0.00000000000E+00 -0.00000000000E+00 -0.74505805969E-08  0.93827000000E+00  0.93827000000E+00 0. -1.
     999902    2    1    2    0    0  0.26229905439E-02  0.19773281559E-01 -0.13260922119E-01  0.10199776557E+01  0.10196963780E+01 0.  0.
     999903    2    3    3    0    0  0.12094886372E-01  0.10675336219E+00 -0.75943052303E-01  0.13342009935E+00  0.22158725220E-01 0.  0.
         14    1    1    2    0    0 -0.26229905439E-02 -0.19773281559E-01  0.13260922119E-01  0.23952344321E-01  0.00000000000E+00 0.  1.
     999901    1    3    3    0    0 -0.94718958281E-02 -0.86980080627E-01  0.62682130184E-01  0.88655755633E+00  0.88000000000E+00 0.  1.
        -11    1    4    4    0    0  0.17432296884E-01  0.59712106399E-01 -0.39711001112E-01  0.73801391284E-01  0.51100000000E-03 0.  1.
         11    1    4    4    0    0 -0.53374105116E-02  0.47041255788E-01 -0.36232051191E-01  0.59618708067E-01  0.51100000000E-03 0. -1.
</event>
<event>
 8    1  0.1022673E+005  0.1043930E+01  0.7957747E-01            NaN
         13   -1    0    0    0    0  0.00000000000E+00  0.00000000000E+00  0.74505805969E-08  0.10566000000E+00  0.10566000000E+00 0. -1.
     999900   -1    0    0    0    0 -0.00000000000E+00 -0.00000000000E+00 -0.74505805969E-08  0.93827000000E+00  0.93827000000E+00 0.  1.
     999902    2    1    2    0    0  0.91539909764E-02 -0.82692722998E-02 -0.20563633669E-01  0.10199500199E+01  0.10196680851E+01 0.  0.
     999903    2    3    3    0    0  0.32451279353E-01  0.78394723156E-02  0.12197271266E+00  0.12803137714E+00  0.20003700696E-01 0.  0.
         14    1    1    2    0    0 -0.91539909764E-02  0.82692722998E-02  0.20563633669E-01  0.23979980084E-01  0.00000000000E+00 0. -1.
     999901    1    3    3    0    0 -0.23297288377E-01 -0.16108744615E-01 -0.14253634633E+00  0.89191864277E+00  0.88000000000E+00 0.  1.
        -11    1    4    4    0    0  0.27078431392E-02  0.85629833400E-02  0.33603012385E-01  0.34786213656E-01  0.51100000000E-03 0. -1.
         11    1    4    4    0    0  0.29743436214E-01 -0.72351102444E-03  0.88369700276E-01  0.93245163488E-01  0.51100000000E-03 0.  1.
</event>
<event>
 8    1  0.1100943E+005  0.1043930E+01  0.7957747E-01            NaN
         13   -1    0    0    0    0  0.00000000000E+00  0.00000000000E+00  0.74505805969E-08  0.10566000000E+00  0.10566000000E+00 0. -1.
     999900   -1    0    0    0    0 -0.00000000000E+00 -0.00000000000E+00 -0.74505805969E-08  0.93827000000E+00  0.93827000000E+00 0.  1.
     999902    2    1    2    0    0 -0.29691258329E-02  0.21603284479E-01  0.84670658524E-02  0.10205375052E+01  0.10202693716E+01 0.  0.
     999903    2    3    3    0    0 -0.87109883034E-01  0.25090866610E-01 -0.92219626064E-01  0.13080179154E+00  0.19671449572E-01 0.  0.
         14    1    1    2    0    0  0.29691258329E-02 -0.21603284479E-01 -0.84670658524E-02  0.23392494793E-01  0.00000000000E+00 0. -1.
     999901    1    3    3    0    0  0.84140757202E-01 -0.34875821311E-02  0.10068669192E+00  0.88973571367E+00  0.88000000000E+00 0. -1.
        -11    1    4    4    0    0 -0.59155411106E-01  0.17812053376E-01 -0.49185256053E-01  0.78968870086E-01  0.51100000000E-03 0. -1.
         11    1    4    4    0    0 -0.27954471928E-01  0.72788132340E-02 -0.43034370011E-01  0.51832921451E-01  0.51100000000E-03 0.  1.
</event>
<event>
 8    1  0.1022673E+005  0.1043930E+01  0.7957747E-01            NaN
         13   -1    0    0    0    0  0.00000000000E+00  0.00000000000E+00  0.74505805969E-08  0.10566000000E+00  0.10566000000E+00 0.  1.
     999900   -1    0    0    0    0 -0.00000000000E+00 -0.00000000000E+00 -0.74505805969E-08  0.93827000000E+00  0.93827000000E+00 0. -1.
     999902    2    1    2    0    0 -0.21507971205E-01 -0.22346776044E-02 -0.97831566281E-02  0.10201961263E+01  0.10199200161E+01 0.  0.
     999903    2    3    3    0    0 -0.36397130358E-01 -0.10278403654E+00 -0.69117814943E-01  0.13236029553E+00  0.29200449054E-01 0.  0.
         14    1    1    2    0    0  0.21507971205E-01  0.22346776044E-02  0.97831566281E-02  0.23733873746E-01  0.00000000000E+00 0.  1.
     999901    1    3    3    0    0  0.14889159152E-01  0.10054935893E+00  0.59334658315E-01  0.88783583073E+00  0.88000000000E+00 0.  1.
        -11    1    4    4    0    0 -0.19700193076E-01 -0.79615813990E-01 -0.38886367813E-01  0.90769962913E-01  0.51100000000E-03 0.  1.
         11    1    4    4    0    0 -0.16696937281E-01 -0.23168222547E-01 -0.30231447130E-01  0.41590332617E-01  0.51100000000E-03 0. -1.
</event>
<event>
 8    1  0.1022673E+005  0.1043930E+01  0.7957747E-01            NaN
         13   -1    0    0    0    0  0.00000000000E+00  0.00000000000E+00  0.74505805969E-08  0.10566000000E+00  0.10566000000E+00 0. -1.
     999900   -1    0    0    0    0 -0.00000000000E+00 -0.00000000000E+00 -0.74505805969E-08  0.93827000000E+00  0.93827000000E+00 0.  1.
     999902    2    1    2    0    0  0.15219560261E-01 -0.87527032755E-02  0.17076249604E-01  0.10194383049E+01  0.10191440597E+01 0.  0.
     999903    2    3    3    0    0  0.43415206122E-01  0.72286295677E-01  0.98881848326E-01  0.13148871747E+00  0.20036821839E-01 0.  0.
         14    1    1    2    0    0 -0.15219560261E-01  0.87527032755E-02 -0.17076249604E-01  0.24491695117E-01  0.00000000000E+00 0.  1.
     999901    1    3    3    0    0 -0.28195645861E-01 -0.81038998953E-01 -0.81805598722E-01  0.88794958741E+00  0.88000000000E+00 0.  1.
        -11    1    4    4    0    0  0.12504130900E-01  0.37557508437E-01  0.53138620868E-01  0.66263820282E-01  0.51100000000E-03 0. -1.
         11    1    4    4    0    0  0.30911075222E-01  0.34728787240E-01  0.45743227457E-01  0.65224897193E-01  0.51100000000E-03 0.  1.
</event>
<event>
 8    1  0.1022673E+005  0.1043930E+01  0.7957747E-01            NaN
         13   -1    0    0    0    0  0.00000000000E+00  0.00000000000E+00  0.74505805969E-08  0.10566000000E+00  0.10566000000E+00 0.  1.
     999900   -1    0    0    0    0 -0.00000000000E+00 -0.00000000000E+00 -0.74505805969E-08  0.93827000000E+00  0.93827000000E+00 0.  1.
     999902    2    1    2    0    0 -0.83856750547E-02 -0.20711925365E-01  0.30695453926E-02  0.10213750558E+01  0.10211259859E+01 0.  0.
     999903    2    3    3    0    0 -0.43523416972E-01 -0.12354536276E+00  0.22797191261E-01  0.13447113950E+00  0.20125380648E-01 0.  0.
         14    1    1    2    0    0  0.83856750547E-02  0.20711925365E-01 -0.30695453926E-02  0.22554944189E-01  0.00000000000E+00 0.  1.
     999901    1    3    3    0    0  0.35137741917E-01  0.10283343739E+00 -0.19727645868E-01  0.88690391631E+00  0.88000000000E+00 0.  1.
        -11    1    4    4    0    0 -0.30019699125E-01 -0.80778959592E-01  0.24484138045E-01  0.89588820649E-01  0.51100000000E-03 0. -1.
         11    1    4    4    0    0 -0.13503717846E-01 -0.42766403164E-01 -0.16869467840E-02  0.44882318854E-01  0.51100000000E-03 0.  1.
</event>
<event>
 8    1  0.1022673E+005  0.1043930E+01  0.7957747E-01            NaN
         13   -1    0    0    0    0  0.00000000000E+00  0.00000000000E+00  0.74505805969E-08  0.10566000000E+00  0.10566000000E+00 0.  1.
     999900   -1    0    0    0    0 -0.00000000000E+00 -0.00000000000E+00 -0.74505805969E-08  0.93827000000E+00  0.93827000000E+00 0.  1.
     999902    2    1    2    0    0  0.20657937285E-01 -0.96002489151E-02  0.30266619891E-02  0.10209500993E+01  0.10206914468E+01 0.  0.
     999903    2    3    3    0    0 -0.62121624210E-01 -0.10861964253E+00 -0.32623748172E-01  0.13082187943E+00  0.19817473512E-01 0.  0.
         14    1    1    2    0    0 -0.20657937285E-01  0.96002489151E-02 -0.30266619891E-02  0.22979900672E-01  0.00000000000E+00 0. -1.
     999901    1    3    3    0    0  0.82779561495E-01  0.99019393610E-01  0.35650410161E-01  0.89012821990E+00  0.88000000000E+00 0.  1.
        -11    1    4    4    0    0 -0.18562857618E-02 -0.12147586642E-01 -0.72477460754E-02  0.14275874833E-01  0.51100000000E-03 0. -1.
         11    1    4    4    0    0 -0.60265338448E-01 -0.96472055883E-01 -0.25376002096E-01  0.11654600460E+00  0.51100000000E-03 0.  1.
</event>
<event>
 8    1  0.1022673E+005  0.1043930E+01  0.7957747E-01            NaN
         13   -1    0    0    0    0  0.00000000000E+00  0.00000000000E+00  0.74505805969E-08  0.10566000000E+00  0.10566000000E+00 0. -1.
     999900   -1    0    0    0    0 -0.00000000000E+00 -0.00000000000E+00 -0.74505805969E-08  0.93827000000E+00  0.93827000000E+00 0.  1.
     999902    2    1    2    0    0  0.69145528149E-02 -0.97618298966E-02 -0.20010405114E-01  0.10206164701E+01  0.10203501646E+01 0.  0.
     999903    2    3    3    0    0 -0.10958890114E+00 -0.18634756745E-01  0.61719385411E-01  0.12913930142E+00  0.22598566879E-01 0.  0.
         14    1    1    2    0    0 -0.69145528149E-02  0.97618298966E-02  0.20010405114E-01  0.23313529900E-01  0.00000000000E+00 0. -1.
     999901    1    3    3    0    0  0.11650345395E+00  0.88729268488E-02 -0.81729790525E-01  0.89147716868E+00  0.88000000000E+00 0.  1.
        -11    1    4    4    0    0 -0.93545741737E-01 -0.14992656613E-01  0.42504569848E-01  0.10383874580E+00  0.51100000000E-03 0. -1.
         11    1    4    4    0    0 -0.16043159400E-01 -0.36421001321E-02  0.19214815563E-01  0.25300555627E-01  0.51100000000E-03 0.  1.
</event>
<event>
 8    1  0.1022673E+005  0.1043930E+01  0.7957747E-01            NaN
         13   -1    0    0    0    0  0.00000000000E+00  0.00000000000E+00  0.74505805969E-08  0.10566000000E+00  0.10566000000E+00 0.  1.
     999900   -1    0    0    0    0 -0.00000000000E+00 -0.00000000000E+00 -0.74505805969E-08  0.93827000000E+00  0.93827000000E+00 0. -1.
     999902    2    1    2    0    0 -0.91256330232E-02  0.19792493624E-01 -0.89350042756E-02  0.10203746549E+01  0.10201027311E+01 0.  0.
     999903    2    3    3    0    0  0.97102928292E-01 -0.69402697967E-01  0.41756166995E-01  0.12806871840E+00  0.20305319086E-01 0.  0.
         14    1    1    2    0    0  0.91256330232E-02 -0.19792493624E-01  0.89350042756E-02  0.23555345112E-01  0.00000000000E+00 0.  1.
     999901    1    3    3    0    0 -0.10622856131E+00  0.89195191592E-01 -0.50691171271E-01  0.89230593649E+00  0.88000000000E+00 0. -1.
        -11    1    4    4    0    0  0.41068457947E-01 -0.26417188519E-01  0.27413331773E-01  0.56002124668E-01  0.51100000000E-03 0.  1.
         11    1    4    4    0    0  0.56034470344E-01 -0.42985509448E-01  0.14342835222E-01  0.72066593734E-01  0.51100000000E-03 0. -1.
</event>
<event>
 8    1  0.1022673E+005  0.1043930E+01  0.7957747E-01            NaN
         13   -1    0    0    0    0  0.00000000000E+00  0.00000000000E+00  0.74505805969E-08  0.10566000000E+00  0.10566000000E+00 0.  1.
     999900   -1    0    0    0    0 -0.00000000000E+00 -0.00000000000E+00 -0.74505805969E-08  0.93827000000E+00  0.93827000000E+00 0.  1.
     999902    2    1    2    0    0  0.22891899782E-01  0.92146536417E-03 -0.19972550305E-03  0.10210186913E+01  0.10207615980E+01 0.  0.
     999903    2    3    3    0    0 -0.41484008020E-01  0.64119002009E-01  0.10371095080E+00  0.13032479623E+00  0.19910345495E-01 0.  0.
         14    1    1    2    0    0 -0.22891899782E-01 -0.92146536417E-03  0.19972550305E-03  0.22911308656E-01  0.00000000000E+00 0.  1.
     999901    1    3    3    0    0  0.64375907802E-01 -0.63197536645E-01 -0.10391067630E+00  0.89069389511E+00  0.88000000000E+00 0.  1.
        -11    1    4    4    0    0 -0.13722411279E-01  0.38015262045E-01  0.59849496920E-01  0.72219721145E-01  0.51100000000E-03 0.  1.
         11    1    4    4    0    0 -0.27761596740E-01  0.26103739964E-01  0.43861453875E-01  0.58105075086E-01  0.51100000000E-03 0. -1.
</event>
<event>
 8    1  0.1022673E+005  0.1043930E+01  0.7957747E-01            NaN
         13   -1    0    0    0    0  0.00000000000E+00  0.00000000000E+00  0.74505805969E-08  0.10566000000E+00  0.10566000000E+00 0.  1.
     999900   -1    0    0    0    0 -0.00000000000E+00 -0.00000000000E+00 -0.74505805969E-08  0.93827000000E+00  0.93827000000E+00 0.  1.
     999902    2    1    2    0    0 -0.24682186229E-02 -0.88671853387E-02  0.21790455630E-01  0.10202753380E+01  0.10200010893E+01 0.  0.
     999903    2    3    3    0    0  0.11311784151E+00 -0.14716277768E-01  0.62830772483E-01  0.13174922312E+00  0.19948356365E-01 0.  0.
         14    1    1    2    0    0  0.24682186229E-02  0.88671853387E-02 -0.21790455630E-01  0.23654662026E-01  0.00000000000E+00 0. -1.
     999901    1    3    3    0    0 -0.11558606013E+00  0.58490924289E-02 -0.41040316853E-01  0.88852611486E+00  0.88000000000E+00 0.  1.
        -11    1    4    4    0    0  0.54920424793E-01 -0.16087007325E-01  0.25986786987E-01  0.62853950417E-01  0.51100000000E-03 0. -1.
         11    1    4    4    0    0  0.58197416716E-01  0.13707295576E-02  0.36843985496E-01  0.68895272698E-01  0.51100000000E-03 0.  1.
</event>
<event>
 8    1  0.1022673E+005  0.1043930E+01  0.7957747E-01            NaN
         13   -1    0    0    0    0  0.00000000000E+00  0.00000000000E+00  0.74505805969E-08  0.10566000000E+00  0.10566000000E+00 0.  1.
     999900   -1    0    0    0    0 -0.00000000000E+00 -0.00000000000E+00 -0.74505805969E-08  0.93827000000E+00  0.93827000000E+00 0.  1.
     999902    2    1    2    0    0 -0.28483503263E-02  0.15584841323E-01  0.18025629787E-01  0.10199315895E+01  0.10196492159E+01 0.  0.
     999903    2    3    3    0    0  0.94488308931E-01  0.86145071311E-01  0.25047600407E-01  0.13172976592E+00  0.19399358424E-01 0.  0.
         14    1    1    2    0    0  0.28483503263E-02 -0.15584841323E-01 -0.18025629787E-01  0.23998410528E-01  0.00000000000E+00 0. -1.
     999901    1    3    3    0    0 -0.97336659257E-01 -0.70560229988E-01 -0.70219706199E-02  0.88820182355E+00  0.88000000000E+00 0.  1.
        -11    1    4    4    0    0  0.73982428957E-01  0.55664259236E-01  0.18087001159E-01  0.94336155755E-01  0.51100000000E-03 0.  1.
         11    1    4    4    0    0  0.20505879973E-01  0.30480812075E-01  0.69605992473E-02  0.37393610164E-01  0.51100000000E-03 0. -1.
</event>
<event>
 8    1  0.1022673E+005  0.1043930E+01  0.7957747E-01            NaN
         13   -1    0    0    0    0  0.00000000000E+00  0.00000000000E+00  0.74505805969E-08  0.10566000000E+00  0.10566000000E+00 0.  1.
     999900   -1    0    0    0    0 -0.00000000000E+00 -0.00000000000E+00 -0.74505805969E-08  0.93827000000E+00  0.93827000000E+00 0. -1.
     999902    2    1    2    0    0 -0.18145153358E-01  0.15994178123E-01  0.28681866820E-02  0.10195725203E+01  0.10192815299E+01 0.  0.
     999903    2    3    3    0    0 -0.12212172515E+00 -0.29017103152E-01  0.34477413920E-01  0.13174579946E+00  0.20311464144E-01 0.  0.
         14    1    1    2    0    0  0.18145153358E-01 -0.15994178123E-01 -0.28681866820E-02  0.24357479736E-01  0.00000000000E+00 0. -1.
     999901    1    3    3    0    0  0.10397657179E+00  0.45011281275E-01 -0.31609227238E-01  0.88782672080E+00  0.88000000000E+00 0. -1.
        -11    1    4    4    0    0 -0.60373235296E-01 -0.14559670770E-01  0.27569122745E-01  0.67950196489E-01  0.51100000000E-03 0.  1.
         11    1    4    4    0    0 -0.61748489857E-01 -0.14457432382E-01  0.69082911752E-02  0.63795602973E-01  0.51100000000E-03 0. -1.
</event>
<event>
 8    1  0.1022673E+005  0.1043930E+01  0.7957747E-01            NaN
         13   -1    0    0    0    0  0.00000000000E+00  0.00000000000E+00  0.74505805969E-08  0.10566000000E+00  0.10566000000E+00 0. -1.
     999900   -1    0    0    0    0 -0.00000000000E+00 -0.00000000000E+00 -0.74505805969E-08  0.93827000000E+00  0.93827000000E+00 0.  1.
     999902    2    1    2    0    0 -0.90257184252E-02 -0.16261652229E-01 -0.43136367706E-02  0.10248377925E+01  0.10246599380E+01 0.  0.
     999903    2    3    3    0    0  0.35815123377E-01  0.11034480847E+00 -0.61377317652E-01  0.13281976537E+00  0.20376828331E-01 0.  0.
         14    1    1    2    0    0  0.90257184252E-02  0.16261652229E-01  0.43136367706E-02  0.19092207533E-01  0.00000000000E+00 0.  1.
     999901    1    3    3    0    0 -0.44840841802E-01 -0.12660646070E+00  0.57063680881E-01  0.89201802709E+00  0.88000000000E+00 0. -1.
        -11    1    4    4    0    0  0.22965907887E-01  0.90634765826E-01 -0.42770069701E-01  0.10281845012E+00  0.51100000000E-03 0. -1.
         11    1    4    4    0    0  0.12849215490E-01  0.19710042644E-01 -0.18607247951E-01  0.30001315255E-01  0.51100000000E-03 0.  1.
</event>
<event>
 8    1  0.1022673E+005  0.1043930E+01  0.7957747E-01            NaN
         13   -1    0    0    0    0  0.00000000000E+00  0.00000000000E+00  0.74505805969E-08  0.10566000000E+00  0.10566000000E+00 0.  1.
     999900   -1    0    0    0    0 -0.00000000000E+00 -0.00000000000E+00 -0.74505805969E-08  0.93827000000E+00  0.93827000000E+00 0. -1.
     999902    2    1    2    0    0  0.93569544281E-02 -0.15201826056E-01 -0.15144747462E-01  0.10205203548E+01  0.10202518234E+01 0.  0.
     999903    2    3    3    0    0  0.55004237226E-01  0.78401050228E-01 -0.87823736548E-01  0.13140427223E+00  0.19541833815E-01 0.  0.
         14    1    1    2    0    0 -0.93569544281E-02  0.15201826056E-01  0.15144747462E-01  0.23409645176E-01  0.00000000000E+00 0.  1.
     999901    1    3    3    0    0 -0.45647282798E-01 -0.93602876284E-01  0.72678989086E-01  0.88911608260E+00  0.88000000000E+00 0.  1.
        -11    1    4    4    0    0  0.10819073464E-01  0.46964777708E-02 -0.10239218392E-01  0.15627282820E-01  0.51100000000E-03 0. -1.
         11    1    4    4    0    0  0.44185163762E-01  0.73704572457E-01 -0.77584518156E-01  0.11577698941E+00  0.51100000000E-03 0.  1.
</event>
<event>
 8    1  0.1022673E+005  0.1043930E+01  0.7957747E-01            NaN
         13   -1    0    0    0    0  0.00000000000E+00  0.00000000000E+00  0.74505805969E-08  0.10566000000E+00  0.10566000000E+00 0. -1.
     999900   -1    0    0    0    0 -0.00000000000E+00 -0.00000000000E+00 -0.74505805969E-08  0.93827000000E+00  0.93827000000E+00 0. -1.
     999902    2    1    2    0    0 -0.84431596399E-02 -0.14992320852E-01 -0.18278135244E-01  0.10188272739E+01  0.10185179759E+01 0.  0.
     999903    2    3    3    0    0 -0.10224255760E+00 -0.79031773813E-01 -0.86925907502E-02  0.13147657590E+00  0.22604579604E-01 0.  0.
         14    1    1    2    0    0  0.84431596399E-02  0.14992320852E-01  0.18278135244E-01  0.25102726091E-01  0.00000000000E+00 0.  1.
     999901    1    3    3    0    0  0.93799397963E-01  0.64039452961E-01 -0.95855444934E-02  0.88735069801E+00  0.88000000000E+00 0. -1.
        -11    1    4    4    0    0 -0.94898211560E-02 -0.16066170274E-01 -0.49289827315E-02  0.19306333795E-01  0.51100000000E-03 0. -1.
         11    1    4    4    0    0 -0.92752736447E-01 -0.62965603539E-01 -0.37636080187E-02  0.11217024210E+00  0.51100000000E-03 0.  1.
</event>
<event>
 8    1  0.1022673E+005  0.1043930E+01  0.7957747E-01            NaN
         13   -1    0    0    0    0  0.00000000000E+00  0.00000000000E+00  0.74505805969E-08  0.10566000000E+00  0.10566000000E+00 0. -1.
     999900   -1    0    0    0    0 -0.00000000000E+00 -0.00000000000E+00 -0.74505805969E-08  0.93827000000E+00  0.93827000000E+00 0. -1.
     999902    2    1    2    0    0  0.12687264838E-01  0.20108370123E-02 -0.20947708574E-01  0.10193573191E+01  0.10190611008E+01 0.  0.
     999903    2    3    3    0    0  0.26107023428E-01 -0.57083195596E-01  0.10990735321E+00  0.12762011460E+00  0.16346237109E-01 0.  0.
         14    1    1    2    0    0 -0.12687264838E-01 -0.20108370123E-02  0.20947708574E-01  0.24572680950E-01  0.00000000000E+00 0. -1.
     999901    1    3    3    0    0 -0.13419758590E-01  0.59094032609E-01 -0.13085506179E+00  0.89173720445E+00  0.88000000000E+00 0.  1.
        -11    1    4    4    0    0  0.24900174643E-01 -0.38602831500E-01  0.84424593495E-01  0.96114361075E-01  0.51100000000E-03 0. -1.
         11    1    4    4    0    0  0.12068487849E-02 -0.18480364096E-01  0.25482759718E-01  0.31505753522E-01  0.51100000000E-03 0.  1.
</event>
<event>
 8    1  0.1022673E+005  0.1043930E+01  0.7957747E-01            NaN
         13   -1    0    0    0    0  0.00000000000E+00  0.00000000000E+00  0.74505805969E-08  0.10566000000E+00  0.10566000000E+00 0. -1.
     999900   -1    0    0    0    0 -0.00000000000E+00 -0.00000000000E+00 -0.74505805969E-08  0.93827000000E+00  0.93827000000E+00 0.  1.
     999902    2    1    2    0    0  0.35008992024E-02 -0.24420851936E-01 -0.94488747207E-02  0.10175119089E+01  0.10171688990E+01 0.  0.
     999903    2    3    3    0    0 -0.10608480950E+00 -0.29851139117E-01 -0.64091282488E-01  0.12901637806E+00  0.19810502343E-01 0.  0.
         14    1    1    2    0    0 -0.35008992024E-02  0.24420851936E-01  0.94488747207E-02  0.26418091112E-01  0.00000000000E+00 0.  1.
     999901    1    3    3    0    0  0.10958570871E+00  0.54302871811E-02  0.54642407767E-01  0.88849553083E+00  0.88000000000E+00 0. -1.
        -11    1    4    4    0    0 -0.73180234657E-01 -0.11958987063E-01 -0.47399770604E-01  0.88007746763E-01  0.51100000000E-03 0.  1.
         11    1    4    4    0    0 -0.32904574847E-01 -0.17892152054E-01 -0.16691511884E-01  0.41008631299E-01  0.51100000000E-03 0. -1.
</event>
<event>
 8    1  0.1022673E+005  0.1043930E+01  0.7957747E-01            NaN
         13   -1    0    0    0    0  0.00000000000E+00  0.00000000000E+00  0.74505805969E-08  0.10566000000E+00  0.10566000000E+00 0. -1.
     999900   -1    0    0    0    0 -0.00000000000E+00 -0.00000000000E+00 -0.74505805969E-08  0.93827000000E+00  0.93827000000E+00 0. -1.
     999902    2    1    2    0    0 -0.22834978206E-01  0.20851837628E-02 -0.63026326510E-02  0.10201496005E+01  0.10198723940E+01 0.  0.
     999903    2    3    3    0    0 -0.10013252425E+00  0.51875149594E-02 -0.85046536719E-01  0.13325324947E+00  0.21681382839E-01 0.  0.
         14    1    1    2    0    0  0.22834978206E-01 -0.20851837628E-02  0.63026326510E-02  0.23780399478E-01  0.00000000000E+00 0. -1.
     999901    1    3    3    0    0  0.77297546046E-01 -0.31023311966E-02  0.78743904068E-01  0.88689635105E+00  0.88000000000E+00 0. -1.
        -11    1    4    4    0    0 -0.36912597591E-01 -0.64455267620E-02 -0.39645899489E-01  0.54554038745E-01  0.51100000000E-03 0. -1.
         11    1    4    4    0    0 -0.63219926660E-01  0.11633041721E-01 -0.45400637230E-01  0.78699210724E-01  0.51100000000E-03 0.  1.
</event>
<event>
 8    1  0.1022673E+005  0.1043930E+01  0.7957747E-01            NaN
         13   -1    0    0    0    0  0.00000000000E+00  0.00000000000E+00  0.74505805969E-08  0.10566000000E+00  0.10566000000E+00 0.  1.
     999900   -1    0    0    0    0 -0.00000000000E+00 -0.00000000000E+00 -0.74505805969E-08  0.93827000000E+00  0.93827000000E+00 0. -1.
     999902    2    1    2    0    0 -0.15476934744E-01 -0.16487334934E-01 -0.87558911427E-02  0.10196806010E+01  0.10193922183E+01 0.  0.
     999903    2    3    3    0    0 -0.11588226441E+00 -0.42384190244E-01 -0.45015538249E-01  0.13285105743E+00  0.19947079701E-01 0.  0.
         14    1    1    2    0    0  0.15476934744E-01  0.16487334934E-01  0.87558911427E-02  0.24249399003E-01  0.00000000000E+00 0.  1.
     999901    1    3    3    0    0  0.10040532966E+00  0.25896855309E-01  0.36259647106E-01  0.88682954357E+00  0.88000000000E+00 0.  1.
        -11    1    4    4    0    0 -0.59365228403E-01 -0.13680396518E-01 -0.28975584797E-01  0.67462798842E-01  0.51100000000E-03 0. -1.
         11    1    4    4    0    0 -0.56517036006E-01 -0.28703793726E-01 -0.16039953452E-01  0.65388258585E-01  0.51100000000E-03 0.  1.
</event>
<event>
 8    1  0.1022673E+005  0.1043930E+01  0.7957747E-01            NaN
         13   -1    0    0    0    0  0.00000000000E+00  0.00000000000E+00  0.74505805969E-08  0.10566000000E+00  0.10566000000E+00 0. -1.
     999900   -1    0    0    0    0 -0.00000000000E+00 -0.00000000000E+00 -0.74505805969E-08  0.93827000000E+00  0.93827000000E+00 0.  1.
     999902    2    1    2    0    0  0.11515891707E-02 -0.20912071638E-01  0.34734469157E-02  0.10227001688E+01  0.10224797942E+01 0.  0.
     999903    2    3    3    0    0  0.60530287833E-01 -0.30758356427E-01  0.11347399002E+00  0.13381159389E+00  0.20474472275E-01 0.  0.
         14    1    1    2    0    0 -0.11515891707E-02  0.20912071638E-01 -0.34734469157E-02  0.21229831165E-01  0.00000000000E+00 0.  1.
     999901    1    3    3    0    0 -0.59378698663E-01  0.98462847887E-02 -0.11000054310E+00  0.88888857494E+00  0.88000000000E+00 0.  1.
        -11    1    4    4    0    0  0.15728231473E-01 -0.16976579020E-01  0.47959753003E-01  0.53253925016E-01  0.51100000000E-03 0. -1.
         11    1    4    4    0    0  0.44802056361E-01 -0.13781777407E-01  0.65514237014E-01  0.80557668878E-01  0.51100000000E-03 0.  1.
</event>
<event>
 8    1  0.1022673E+005  0.1043930E+01  0.7957747E-01            NaN
         13   -1    0    0    0    0  0.00000000000E+00  0.00000000000E+00  0.74505805969E-08  0.10566000000E+00  0.10566000000E+00 0. -1.
     999900   -1    0    0    0    0 -0.00000000000E+00 -0.00000000000E+00 -0.74505805969E-08  0.93827000000E+00  0.93827000000E+00 0.  1.
     999902    2    1    2    0    0  0.14519810318E-01  0.78487515095E-02 -0.17751260870E-01  0.10196908776E+01  0.10194027422E+01 0.  0.
     999903    2    3    3    0    0  0.78303226980E-01 -0.65087168498E-01  0.77181937894E-01  0.12929754604E+00  0.19825968234E-01 0.  0.
         14    1    1    2    0    0 -0.14519810318E-01 -0.78487515095E-02  0.17751260870E-01  0.24239122394E-01  0.00000000000E+00 0.  1.
     999901    1    3    3    0    0 -0.63783416662E-01  0.72935920008E-01 -0.94933198764E-01  0.89039333157E+00  0.88000000000E+00 0.  1.
        -11    1    4    4    0    0  0.50240494091E-01 -0.40238870622E-01  0.60238020887E-01  0.88159822123E-01  0.51100000000E-03 0. -1.
         11    1    4    4    0    0  0.28062732890E-01 -0.24848297876E-01  0.16943917008E-01  0.41137723918E-01  0.51100000000E-03 0.  1.
</event>
<event>
 8    1  0.1022673E+005  0.1043930E+01  0.7957747E-01            NaN
         13   -1    0    0    0    0  0.00000000000E+00  0.00000000000E+00  0.74505805969E-08  0.10566000000E+00  0.10566000000E+00 0.  1.
     999900   -1    0    0    0    0 -0.00000000000E+00 -0.00000000000E+00 -0.74505805969E-08  0.93827000000E+00  0.93827000000E+00 0. -1.
     999902    2    1    2    0    0 -0.11561334505E-01  0.18938677945E-01 -0.85335406863E-02  0.10201569208E+01  0.10198798869E+01 0.  0.
     999903    2    3    3    0    0 -0.26096236920E-01  0.74096096146E-02 -0.12825270687E+00  0.13185693681E+00  0.14197854438E-01 0.  0.
         14    1    1    2    0    0  0.11561334505E-01 -0.18938677945E-01  0.85335406863E-02  0.23773079196E-01  0.00000000000E+00 0.  1.
     999901    1    3    3    0    0  0.14534902415E-01  0.11529068330E-01  0.11971916618E+00  0.88829998399E+00  0.88000000000E+00 0.  1.
        -11    1    4    4    0    0 -0.17534287121E-01  0.10901386442E-01 -0.10049053083E+00  0.10259093215E+00  0.51100000000E-03 0.  1.
         11    1    4    4    0    0 -0.85619497984E-02 -0.34917768270E-02 -0.27762176041E-01  0.29266004669E-01  0.51100000000E-03 0. -1.
</event>
<event>
 8    1  0.1022673E+005  0.1043930E+01  0.7957747E-01            NaN
         13   -1    0    0    0    0  0.00000000000E+00  0.00000000000E+00  0.74505805969E-08  0.10566000000E+00  0.10566000000E+00 0.  1.
     999900   -1    0    0    0    0 -0.00000000000E+00 -0.00000000000E+00 -0.74505805969E-08  0.93827000000E+00  0.93827000000E+00 0. -1.
     999902    2    1    2    0    0  0.69969301581E-02  0.21512393246E-01  0.63300544164E-02  0.10204393703E+01  0.10201689560E+01 0.  0.
     999903    2    3    3    0    0 -0.10836543046E+00 -0.10862797518E-01 -0.66929313201E-01  0.12930326276E+00  0.19461086953E-01 0.  0.
         14    1    1    2    0    0 -0.69969301581E-02 -0.21512393246E-01 -0.63300544164E-02  0.23490629701E-01  0.00000000000E+00 0. -1.
     999901    1    3    3    0    0  0.11536236062E+00  0.32375190764E-01  0.73259367617E-01  0.89113610754E+00  0.88000000000E+00 0. -1.
        -11    1    4    4    0    0 -0.36992815313E-01 -0.95205395220E-02 -0.15065200997E-01  0.41064954154E-01  0.51100000000E-03 0. -1.
         11    1    4    4    0    0 -0.71372615145E-01 -0.13422579956E-02 -0.51864112204E-01  0.88238308602E-01  0.51100000000E-03 0.  1.
</event>
<event>
 8    1  0.1022673E+005  0.1043930E+01  0.7957747E-01            NaN
         13   -1    0    0    0    0  0.00000000000E+00  0.00000000000E+00  0.74505805969E-08  0.10566000000E+00  0.10566000000E+00 0. -1.
     999900   -1    0    0    0    0 -0.00000000000E+00 -0.00000000000E+00 -0.74505805969E-08  0.93827000000E+00  0.93827000000E+00 0.  1.
     999902    2    1    2    0    0 -0.11547680652E-01 -0.15647057236E-01 -0.15044637874E-01  0.10193430023E+01  0.10190464346E+01 0.  0.
     999903    2    3    3    0    0 -0.78266801115E-01  0.84137365109E-01 -0.57984336977E-01  0.13015675084E+00  0.19334117248E-01 0.  0.
         14    1    1    2    0    0  0.11547680652E-01  0.15647057236E-01  0.15044637874E-01  0.24586997729E-01  0.00000000000E+00 0. -1.
     999901    1    3    3    0    0  0.66719120463E-01 -0.99784422345E-01  0.42939699104E-01  0.88918625143E+00  0.88000000000E+00 0.  1.
        -11    1    4    4    0    0 -0.45469901236E-01  0.37439550877E-01 -0.35809083276E-01  0.68933181084E-01  0.51100000000E-03 0. -1.
         11    1    4    4    0    0 -0.32796899879E-01  0.46697814232E-01 -0.22175253701E-01  0.61223569754E-01  0.51100000000E-03 0.  1.
</event>
<event>
 8    1  0.1022673E+005  0.1043930E+01  0.7957747E-01            NaN
         13   -1    0    0    0    0  0.00000000000E+00  0.00000000000E+00  0.74505805969E-08  0.10566000000E+00  0.10566000000E+00 0. -1.
     999900   -1    0    0    0    0 -0.00000000000E+00 -0.00000000000E+00 -0.74505805969E-08  0.93827000000E+00  0.93827000000E+00 0.  1.
     999902    2    1    2    0    0  0.19662787713E-01  0.13031173571E-01  0.74270370968E-02  0.10191995009E+01  0.10188994185E+01 0.  0.
     999903    2    3    3    0    0 -0.12528544863E+00 -0.42093299668E-02  0.16057204605E-02  0.12715627667E+00  0.21259780385E-01 0.  0.
         14    1    1    2    0    0 -0.19662787713E-01 -0.13031173571E-01 -0.74270370968E-02  0.24730499091E-01  0.00000000000E+00 0.  1.
     999901    1    3    3    0    0  0.14494823634E+00  0.17240503537E-01  0.58213166363E-02  0.89204322424E+00  0.88000000000E+00 0.  1.
        -11    1    4    4    0    0 -0.10439228373E+00  0.18075291995E-02 -0.46918808270E-02  0.10451454890E+00  0.51100000000E-03 0.  1.
         11    1    4    4    0    0 -0.20893164896E-01 -0.60168591663E-02  0.62976012875E-02  0.22641727773E-01  0.51100000000E-03 0. -1.
</event>
<event>
 8    1  0.1022673E+005  0.1043930E+01  0.7957747E-01            NaN
         13   -1    0    0    0    0  0.00000000000E+00  0.00000000000E+00  0.74505805969E-08  0.10566000000E+00  0.10566000000E+00 0. -1.
     999900   -1    0    0    0    0 -0.00000000000E+00 -0.00000000000E+00 -0.74505805969E-08  0.93827000000E+00  0.93827000000E+00 0.  1.
     999902    2    1    2    0    0  0.13722718384E-02  0.51116124835E-02 -0.20316341158E-01  0.10229355857E+01  0.10227201216E+01 0.  0.
     999903    2    3    3    0    0  0.11047986938E+00  0.67334391156E-01 -0.30977998382E-01  0.13395312643E+00  0.15623121472E-01 0.  0.
         14    1    1    2    0    0 -0.13722718384E-02 -0.51116124835E-02  0.20316341158E-01  0.20994414262E-01  0.00000000000E+00 0. -1.
     999901    1    3    3    0    0 -0.10910759754E+00 -0.62222778672E-01  0.10661657225E-01  0.88898245931E+00  0.88000000000E+00 0. -1.
        -11    1    4    4    0    0  0.70611217236E-01  0.51047209466E-01 -0.23419754848E-01  0.90224761745E-01  0.51100000000E-03 0. -1.
         11    1    4    4    0    0  0.39868652147E-01  0.16287181690E-01 -0.75582435339E-02  0.43728364681E-01  0.51100000000E-03 0.  1.
</event>
<event>
 8    1  0.1022673E+005  0.1043930E+01  0.7957747E-01            NaN
         13   -1    0    0    0    0  0.00000000000E+00  0.00000000000E+00  0.74505805969E-08  0.10566000000E+00  0.10566000000E+00 0.  1.
     999900   -1    0    0    0    0 -0.00000000000E+00 -0.00000000000E+00 -0.74505805969E-08  0.93827000000E+00  0.93827000000E+00 0.  1.
     999902    2    1    2    0    0  0.22746774516E-01 -0.22483649069E-02  0.64823911666E-02  0.10201709535E+01  0.10198942504E+01 0.  0.
     999903    2    3    3    0    0 -0.57138926252E-01 -0.38005618295E-01  0.10848274412E+00  0.12996627009E+00  0.20333265214E-01 0.  0.
         14    1    1    2    0    0 -0.22746774516E-01  0.22483649069E-02 -0.64823911666E-02  0.23759046506E-01  0.00000000000E+00 0. -1.
     999901    1    3    3    0    0  0.79885700768E-01  0.35757253388E-01 -0.10200035295E+00  0.89020468341E+00  0.88000000000E+00 0.  1.
        -11    1    4    4    0    0 -0.23437119104E-01 -0.16307504499E-01  0.27698086766E-01  0.39782890623E-01  0.51100000000E-03 0. -1.
         11    1    4    4    0    0 -0.33701807149E-01 -0.21698113796E-01  0.80784657350E-01  0.90183379464E-01  0.51100000000E-03 0.  1.
</event>
<event>
 8    1  0.1022673E+005  0.1043930E+01  0.7957747E-01            NaN
         13   -1    0    0    0    0  0.00000000000E+00  0.00000000000E+00  0.74505805969E-08  0.10566000000E+00  0.10566000000E+00 0. -1.
     999900   -1    0    0    0    0 -0.00000000000E+00 -0.00000000000E+00 -0.74505805969E-08  0.93827000000E+00  0.93827000000E+00 0. -1.
     999902    2    1    2    0    0  0.19032907393E-04  0.22397869699E-01  0.94939583158E-02  0.10196030566E+01  0.10193128043E+01 0.  0.
     999903    2    3    3    0    0  0.32356427907E-01  0.56664920615E-01 -0.11097186700E+00  0.13014706954E+00  0.19122049844E-01 0.  0.
         14    1    1    2    0    0 -0.19032907393E-04 -0.22397869699E-01 -0.94939583158E-02  0.24326943372E-01  0.00000000000E+00 0. -1.
     999901    1    3    3    0    0 -0.32337395000E-01 -0.34267050916E-01  0.12046582531E+00  0.88945598709E+00  0.88000000000E+00 0.  1.
        -11    1    4    4    0    0  0.22258980136E-01  0.20074219172E-01 -0.46348355222E-01  0.55198438609E-01  0.51100000000E-03 0. -1.
         11    1    4    4    0    0  0.10097447771E-01  0.36590701442E-01 -0.64623511776E-01  0.74948630934E-01  0.51100000000E-03 0.  1.
</event>
<event>
 8    1  0.1022673E+005  0.1043930E+01  0.7957747E-01            NaN
         13   -1    0    0    0    0  0.00000000000E+00  0.00000000000E+00  0.74505805969E-08  0.10566000000E+00  0.10566000000E+00 0.  1.
     999900   -1    0    0    0    0 -0.00000000000E+00 -0.00000000000E+00 -0.74505805969E-08  0.93827000000E+00  0.93827000000E+00 0. -1.
     999902    2    1    2    0    0 -0.13531446797E-01 -0.13157597946E-01  0.12062626952E-01  0.10215306829E+01  0.10212850761E+01 0.  0.
     999903    2    3    3    0    0 -0.88309621845E-01 -0.98918697034E-01  0.35990763428E-02  0.13416470811E+00  0.20092725519E-01 0.  0.
         14    1    1    2    0    0  0.13531446797E-01  0.13157597946E-01 -0.12062626952E-01  0.22399317068E-01  0.00000000000E+00 0.  1.
     999901    1    3    3    0    0  0.74778175047E-01  0.85761099089E-01  0.84635506094E-02  0.88736597482E+00  0.88000000000E+00 0. -1.
        -11    1    4    4    0    0 -0.55899701587E-01 -0.70598103067E-01  0.10168623855E-01  0.90623014882E-01  0.51100000000E-03 0.  1.
         11    1    4    4    0    0 -0.32409920258E-01 -0.28320593967E-01 -0.65695475124E-02  0.43541693229E-01  0.51100000000E-03 0. -1.
</event>
<event>
 8    1  0.1022673E+005  0.1043930E+01  0.7957747E-01            NaN
         13   -1    0    0    0    0  0.00000000000E+00  0.00000000000E+00  0.74505805969E-08  0.10566000000E+00  0.10566000000E+00 0.  1.
     999900   -1    0    0    0    0 -0.00000000000E+00 -0.00000000000E+00 -0.74505805969E-08  0.93827000000E+00  0.93827000000E+00 0. -1.
     999902    2    1    2    0    0 -0.15568260762E-01  0.90124717309E-02 -0.15408085497E-01  0.10202444667E+01  0.10199694933E+01 0.  0.
     999903    2    3    3    0    0 -0.12149483430E+00  0.32490001013E-01  0.35324405580E-01  0.13213106232E+00  0.19854698961E-01 0.  0.
         14    1    1    2    0    0  0.15568260762E-01 -0.90124717309E-02  0.15408085497E-01  0.23685533317E-01  0.00000000000E+00 0.  1.
     999901    1    3    3    0    0  0.10592657354E+00 -0.23477529283E-01 -0.50732491076E-01  0.88811340437E+00  0.88000000000E+00 0. -1.
        -11    1    4    4    0    0 -0.10084433687E+00  0.19011958283E-01  0.29690544922E-01  0.10683082147E+00  0.51100000000E-03 0. -1.
         11    1    4    4    0    0 -0.20650497433E-01  0.13478042731E-01  0.56338606579E-02  0.25300240849E-01  0.51100000000E-03 0.  1.
</event>
<event>
 8    1  0.1022673E+005  0.1043930E+01  0.7957747E-01            NaN
         13   -1    0    0    0    0  0.00000000000E+00  0.00000000000E+00  0.74505805969E-08  0.10566000000E+00  0.10566000000E+00 0. -1.
     999900   -1    0    0    0    0 -0.00000000000E+00 -0.00000000000E+00 -0.74505805969E-08  0.93827000000E+00  0.93827000000E+00 0. -1.
     999902    2    1    2    0    0  0.10866407241E-01 -0.57285370527E-02 -0.20627773633E-01  0.10199216684E+01  0.10196390585E+01 0.  0.
     999903    2    3    3    0    0  0.60093288077E-01  0.22269636328E-01 -0.11488278205E+00  0.13307828302E+00  0.20115561761E-01 0.  0.
         14    1    1    2    0    0 -0.10866407241E-01  0.57285370527E-02  0.20627773633E-01  0.24008331640E-01  0.00000000000E+00 0. -1.
     999901    1    3    3    0    0 -0.49226880836E-01 -0.27998173381E-01  0.94255008420E-01  0.88684338534E+00  0.88000000000E+00 0.  1.
        -11    1    4    4    0    0  0.27178706526E-01  0.89370225357E-02 -0.71489390015E-01  0.77003548399E-01  0.51100000000E-03 0. -1.
         11    1    4    4    0    0  0.32914581551E-01  0.13332613792E-01 -0.43393392038E-01  0.56074734621E-01  0.51100000000E-03 0.  1.
</event>
<event>
 8    1  0.1112951E+005  0.1043930E+01  0.7957747E-01            NaN
         13   -1    0    0    0    0  0.00000000000E+00  0.00000000000E+00  0.74505805969E-08  0.10566000000E+00  0.10566000000E+00 0. -1.
     999900   -1    0    0    0    0 -0.00000000000E+00 -0.00000000000E+00 -0.74505805969E-08  0.93827000000E+00  0.93827000000E+00 0.  1.
     999902    2    1    2    0    0 -0.94806092655E-02 -0.75659181727E-02 -0.20434247416E-01  0.10201669291E+01  0.10198901312E+01 0.  0.
     999903    2    3    3    0    0  0.39687154549E-01 -0.93201357950E-01  0.79060922304E-01  0.12907199235E+00  0.12140280672E-01 0.  0.
         14    1    1    2    0    0  0.94806092655E-02  0.75659181727E-02  0.20434247416E-01  0.23763070873E-01  0.00000000000E+00 0. -1.
     999901    1    3    3    0    0 -0.49167763814E-01  0.85635439778E-01 -0.99495169720E-01  0.89109493677E+00  0.88000000000E+00 0.  1.
        -11    1    4    4    0    0  0.19845533122E-01 -0.32048131440E-01  0.27669040705E-01  0.46762857571E-01  0.51100000000E-03 0.  1.
         11    1    4    4    0    0  0.19841621427E-01 -0.61153226510E-01  0.51391881599E-01  0.82309134783E-01  0.51100000000E-03 0. -1.
</event>
<event>
 8    1  0.1022673E+005  0.1043930E+01  0.7957747E-01            NaN
         13   -1    0    0    0    0  0.00000000000E+00  0.00000000000E+00  0.74505805969E-08  0.10566000000E+00  0.10566000000E+00 0. -1.
     999900   -1    0    0    0    0 -0.00000000000E+00 -0.00000000000E+00 -0.74505805969E-08  0.93827000000E+00  0.93827000000E+00 0. -1.
     999902    2    1    2    0    0 -0.10949060322E-01  0.21788540251E-01 -0.56337349347E-03  0.10195386122E+01  0.10192468013E+01 0.  0.
     999903    2    3    3    0    0  0.49506765937E-01  0.30562935248E-01 -0.11464073530E+00  0.13007498654E+00  0.19798763800E-01 0.  0.
         14    1    1    2    0    0  0.10949060322E-01 -0.21788540251E-01  0.56337349347E-03  0.24391387781E-01  0.00000000000E+00 0. -1.
     999901    1    3    3    0    0 -0.60455826259E-01 -0.87743949974E-02  0.11407736181E+00  0.88946362568E+00  0.88000000000E+00 0.  1.
        -11    1    4    4    0    0  0.20484495952E-01  0.24256010582E-01 -0.59530164971E-01  0.67469032053E-01  0.51100000000E-03 0.  1.
         11    1    4    4    0    0  0.29022269985E-01  0.63069246659E-02 -0.55110570328E-01  0.62605954483E-01  0.51100000000E-03 0. -1.
</event>
<event>
 8    1  0.1022673E+005  0.1043930E+01  0.7957747E-01            NaN
         13   -1    0    0    0    0  0.00000000000E+00  0.00000000000E+00  0.74505805969E-08  0.10566000000E+00  0.10566000000E+00 0.  1.
     999900   -1    0    0    0    0 -0.00000000000E+00 -0.00000000000E+00 -0.74505805969E-08  0.93827000000E+00  0.93827000000E+00 0. -1.
     999902    2    1    2    0    0  0.56013714848E-02 -0.21370638333E-01 -0.84171268997E-02  0.10202883509E+01  0.10200144075E+01 0.  0.
     999903    2    3    3    0    0  0.30702589375E-01  0.12001838621E+00 -0.27103017858E-01  0.12845311395E+00  0.20458907224E-01 0.  0.
         14    1    1    2    0    0 -0.56013714848E-02  0.21370638333E-01  0.84171268997E-02  0.23641649065E-01  0.00000000000E+00 0. -1.
     999901    1    3    3    0    0 -0.25101217890E-01 -0.14138902454E+00  0.18685890959E-01  0.89183523698E+00  0.88000000000E+00 0. -1.
        -11    1    4    4    0    0  0.88532085133E-02  0.60003403032E-01 -0.21436080962E-01  0.64331596936E-01  0.51100000000E-03 0. -1.
         11    1    4    4    0    0  0.21849380862E-01  0.60014983178E-01 -0.56669368960E-02  0.64121517017E-01  0.51100000000E-03 0.  1.
</event>
<event>
 8    1  0.1022673E+005  0.1043930E+01  0.7957747E-01            NaN
         13   -1    0    0    0    0  0.00000000000E+00  0.00000000000E+00  0.74505805969E-08  0.10566000000E+00  0.10566000000E+00 0. -1.
     999900   -1    0    0    0    0 -0.00000000000E+00 -0.00000000000E+00 -0.74505805969E-08  0.93827000000E+00  0.93827000000E+00 0. -1.
     999902    2    1    2    0    0  0.19550838058E-01 -0.92986089102E-02  0.43293104884E-02  0.10218519039E+01  0.10216133668E+01 0.  0.
     999903    2    3    3    0    0 -0.33993327669E-01 -0.82830633018E-01 -0.94390684957E-01  0.13167238623E+00  0.20286837986E-01 0.  0.
         14    1    1    2    0    0 -0.19550838058E-01  0.92986089102E-02 -0.43293104884E-02  0.22078096063E-01  0.00000000000E+00 0.  1.
     999901    1    3    3    0    0  0.53544165728E-01  0.73532024108E-01  0.98719995445E-01  0.89017951771E+00  0.88000000000E+00 0.  1.
        -11    1    4    4    0    0 -0.18847441188E-01 -0.24844127684E-01 -0.40132982136E-01  0.50826903268E-01  0.51100000000E-03 0. -1.
         11    1    4    4    0    0 -0.15145886481E-01 -0.57986505335E-01 -0.54257702820E-01  0.80845482957E-01  0.51100000000E-03 0.  1.
</event>
<event>
 8    1  0.1022673E+005  0.1043930E+01  0.7957747E-01            NaN
         13   -1    0    0    0    0  0.00000000000E+00  0.00000000000E+00  0.74505805969E-08  0.10566000000E+00  0.10566000000E+00 0. -1.
     999900   -1    0    0    0    0 -0.00000000000E+00 -0.00000000000E+00 -0.74505805969E-08  0.93827000000E+00  0.93827000000E+00 0. -1.
     999902    2    1    2    0    0  0.32190992925E-02 -0.12472062361E-01  0.20840995567E-01  0.10194297544E+01  0.10191353012E+01 0.  0.
     999903    2    3    3    0    0  0.11888580160E+00  0.85928014235E-02  0.50792501234E-01  0.13110571034E+00  0.20028955113E-01 0.  0.
         14    1    1    2    0    0 -0.32190992925E-02  0.12472062361E-01 -0.20840995567E-01  0.24500245632E-01  0.00000000000E+00 0.  1.
     999901    1    3    3    0    0 -0.11566670231E+00 -0.21064863785E-01 -0.29951505666E-01  0.88832404403E+00  0.88000000000E+00 0.  1.
        -11    1    4    4    0    0  0.58778167667E-01  0.14265833177E-01  0.24933987528E-01  0.65424397938E-01  0.51100000000E-03 0.  1.
         11    1    4    4    0    0  0.60107633934E-01 -0.56730317537E-02  0.25858513706E-01  0.65681312400E-01  0.51100000000E-03 0. -1.
</event>
<event>
 8    1  0.1022673E+005  0.1043930E+01  0.7957747E-01            NaN
         13   -1    0    0    0    0  0.00000000000E+00  0.00000000000E+00  0.74505805969E-08  0.10566000000E+00  0.10566000000E+00 0.  1.
     999900   -1    0    0    0    0 -0.00000000000E+00 -0.00000000000E+00 -0.74505805969E-08  0.93827000000E+00  0.93827000000E+00 0.  1.
     999902    2    1    2    0    0  0.11280765487E-01 -0.34036523607E-02 -0.21004096631E-01  0.10198465494E+01  0.10195621470E+01 0.  0.
     999903    2    3    3    0    0  0.10659515730E-01 -0.60229874191E-01  0.11093045346E+00  0.12819845121E+00  0.19698080263E-01 0.  0.
         14    1    1    2    0    0 -0.11280765487E-01  0.34036523607E-02  0.21004096631E-01  0.24083450638E-01  0.00000000000E+00 0.  1.
     999901    1    3    3    0    0  0.62124975687E-03  0.56826221830E-01 -0.13193455009E+00  0.89164809816E+00  0.88000000000E+00 0. -1.
        -11    1    4    4    0    0  0.79408399092E-02 -0.29131862590E-01  0.73463991991E-01  0.79428846124E-01  0.51100000000E-03 0. -1.
         11    1    4    4    0    0  0.27186758204E-02 -0.31098011601E-01  0.37466461469E-01  0.48769605081E-01  0.51100000000E-03 0.  1.
</event>
<event>
 8    1  0.1022673E+005  0.1043930E+01  0.7957747E-01            NaN
         13   -1    0    0    0    0  0.00000000000E+00  0.00000000000E+00  0.74505805969E-08  0.10566000000E+00  0.10566000000E+00 0. -1.
     999900   -1    0    0    0    0 -0.00000000000E+00 -0.00000000000E+00 -0.74505805969E-08  0.93827000000E+00  0.93827000000E+00 0.  1.
     999902    2    1    2    0    0  0.18418263457E-01  0.11616370150E-01  0.94099260005E-02  0.10202082970E+01  0.10199324733E+01 0.  0.
     999903    2    3    3    0    0 -0.22805741368E-01 -0.12420989445E+00  0.15992946742E-01  0.12880966068E+00  0.19696563713E-01 0.  0.
         14    1    1    2    0    0 -0.18418263457E-01 -0.11616370150E-01 -0.94099260005E-02  0.23721702965E-01  0.00000000000E+00 0.  1.
     999901    1    3    3    0    0  0.41224004825E-01  0.13582626460E+00 -0.65830207420E-02  0.89139863635E+00  0.88000000000E+00 0.  1.
        -11    1    4    4    0    0 -0.43794334885E-02 -0.20990382905E-01 -0.46441742281E-02  0.21945502670E-01  0.51100000000E-03 0.  1.
         11    1    4    4    0    0 -0.18426307880E-01 -0.10321951154E+00  0.20637120971E-01  0.10686415801E+00  0.51100000000E-03 0. -1.
</event>
<event>
 8    1  0.1022673E+005  0.1043930E+01  0.7957747E-01            NaN
         13   -1    0    0    0    0  0.00000000000E+00  0.00000000000E+00  0.74505805969E-08  0.10566000000E+00  0.10566000000E+00 0. -1.
     999900   -1    0    0    0    0 -0.00000000000E+00 -0.00000000000E+00 -0.74505805969E-08  0.93827000000E+00  0.93827000000E+00 0. -1.
     999902    2    1    2    0    0  0.69954685362E-02  0.13066629046E-01 -0.18020527875E-01  0.10205973448E+01  0.10203305971E+01 0.  0.
     999903    2    3    3    0    0  0.11843698522E+00  0.15726571133E-01 -0.54434999593E-01  0.13281792359E+00  0.20069557546E-01 0.  0.
         14    1    1    2    0    0 -0.69954685362E-02 -0.13066629046E-01  0.18020527875E-01  0.23332655219E-01  0.00000000000E+00 0. -1.
     999901    1    3    3    0    0 -0.11144151668E+00 -0.26599420865E-02  0.36414471718E-01  0.88777942119E+00  0.88000000000E+00 0.  1.
        -11    1    4    4    0    0  0.48657958028E-01  0.71715432105E-02 -0.11747748480E-01  0.50569740229E-01  0.51100000000E-03 0.  1.
         11    1    4    4    0    0  0.69779027190E-01  0.85550279221E-02 -0.42687251112E-01  0.82248183365E-01  0.51100000000E-03 0. -1.
</event>
<event>
 8    1  0.1022673E+005  0.1043930E+01  0.7957747E-01            NaN
         13   -1    0    0    0    0  0.00000000000E+00  0.00000000000E+00  0.74505805969E-08  0.10566000000E+00  0.10566000000E+00 0. -1.
     999900   -1    0    0    0    0 -0.00000000000E+00 -0.00000000000E+00 -0.74505805969E-08  0.93827000000E+00  0.93827000000E+00 0.  1.
     999902    2    1    2    0    0  0.12628588985E-01 -0.74031517692E-02 -0.18615505178E-01  0.10202482571E+01  0.10199733727E+01 0.  0.
     999903    2    3    3    0    0  0.17613864831E-01  0.12287167682E+00  0.30218263661E-01  0.12930430769E+00  0.19969059263E-01 0.  0.
         14    1    1    2    0    0 -0.12628588985E-01  0.74031517692E-02  0.18615505178E-01  0.23681742944E-01  0.00000000000E+00 0. -1.
     999901    1    3    3    0    0 -0.49852758465E-02 -0.13027482859E+00 -0.48833768838E-01  0.89094394937E+00  0.88000000000E+00 0. -1.
        -11    1    4    4    0    0  0.18551430551E-01  0.94860497897E-01  0.30219961957E-01  0.10127278439E+00  0.51100000000E-03 0. -1.
         11    1    4    4    0    0 -0.93756571996E-03  0.28011178926E-01 -0.16982961085E-05  0.28031523294E-01  0.51100000000E-03 0.  1.
</event>
<event>
 8    1  0.1022673E+005  0.1043930E+01  0.7957747E-01            NaN
         13   -1    0    0    0    0  0.00000000000E+00  0.00000000000E+00  0.74505805969E-08  0.10566000000E+00  0.10566000000E+00 0. -1.
     999900   -1    0    0    0    0 -0.00000000000E+00 -0.00000000000E+00 -0.74505805969E-08  0.93827000000E+00  0.93827000000E+00 0.  1.
     999902    2    1    2    0    0 -0.50710159456E-02 -0.11736286846E-01  0.19260603172E-01  0.10208123343E+01  0.10205505355E+01 0.  0.
     999903    2    3    3    0    0 -0.37942834302E-01 -0.10592384610E+00 -0.65645490573E-01  0.13111525244E+00  0.14911711574E-01 0.  0.
         14    1    1    2    0    0  0.50710159456E-02  0.11736286846E-01 -0.19260603172E-01  0.23117665673E-01  0.00000000000E+00 0.  1.
     999901    1    3    3    0    0  0.32871818357E-01  0.94187559257E-01  0.84906093745E-01  0.88969708189E+00  0.88000000000E+00 0.  1.
        -11    1    4    4    0    0 -0.21831229285E-01 -0.70616915844E-01 -0.50152554593E-01  0.89324639539E-01  0.51100000000E-03 0. -1.
         11    1    4    4    0    0 -0.16111605017E-01 -0.35306930258E-01 -0.15492935980E-01  0.41790612903E-01  0.51100000000E-03 0.  1.
</event>
<event>
 8    1  0.1022673E+005  0.1043930E+01  0.7957747E-01            NaN
         13   -1    0    0    0    0  0.00000000000E+00  0.00000000000E+00  0.74505805969E-08  0.10566000000E+00  0.10566000000E+00 0.  1.
     999900   -1    0    0    0    0 -0.00000000000E+00 -0.00000000000E+00 -0.74505805969E-08  0.93827000000E+00  0.93827000000E+00 0. -1.
     999902    2    1    2    0    0  0.91214226230E-02 -0.82297295838E-03  0.22191539466E-01  0.10199228748E+01  0.10196402937E+01 0.  0.
     999903    2    3    3    0    0  0.29598141969E-01  0.11860539555E+00  0.43177236084E-01  0.13137190234E+00  0.21237070112E-01 0.  0.
         14    1    1    2    0    0 -0.91214226230E-02  0.82297295838E-03 -0.22191539466E-01  0.24007125173E-01  0.00000000000E+00 0. -1.
     999901    1    3    3    0    0 -0.20476719346E-01 -0.11942836851E+00 -0.20985696617E-01  0.88855097248E+00  0.88000000000E+00 0.  1.
        -11    1    4    4    0    0  0.52469585668E-02  0.45828068309E-01  0.25139726646E-01  0.52535791571E-01  0.51100000000E-03 0.  1.
         11    1    4    4    0    0  0.24351183402E-01  0.72777327245E-01  0.18037509438E-01  0.78836110772E-01  0.51100000000E-03 0. -1.
</event>
<event>
 8    1  0.1022673E+005  0.1043930E+01  0.7957747E-01            NaN
         13   -1    0    0    0    0  0.00000000000E+00  0.00000000000E+00  0.74505805969E-08  0.10566000000E+00  0.10566000000E+00 0.  1.
     999900   -1    0    0    0    0 -0.00000000000E+00 -0.00000000000E+00 -0.74505805969E-08  0.93827000000E+00  0.93827000000E+00 0.  1.
     999902    2    1    2    0    0  0.35047317199E-02  0.27254200064E-01  0.40502047842E-03  0.10164483951E+01  0.10160768186E+01 0.  0.
     999903    2    3    3    0    0 -0.11533880507E+00  0.36907164300E-01 -0.37279108967E-01  0.12760810599E+00  0.15130036923E-01 0.  0.
         14    1    1    2    0    0 -0.35047317199E-02 -0.27254200064E-01 -0.40502047842E-03  0.27481604886E-01  0.00000000000E+00 0.  1.
     999901    1    3    3    0    0  0.11884353679E+00 -0.96529642363E-02  0.37684129445E-01  0.88884028912E+00  0.88000000000E+00 0.  1.
        -11    1    4    4    0    0 -0.46858615579E-01  0.17032866430E-01 -0.22885900666E-01  0.54862318244E-01  0.51100000000E-03 0.  1.
         11    1    4    4    0    0 -0.68480189492E-01  0.19874297870E-01 -0.14393208301E-01  0.72745787747E-01  0.51100000000E-03 0. -1.
</event>
<event>
 8    1  0.1022673E+005  0.1043930E+01  0.7957747E-01            NaN
         13   -1    0    0    0    0  0.00000000000E+00  0.00000000000E+00  0.74505805969E-08  0.10566000000E+00  0.10566000000E+00 0.  1.
     999900   -1    0    0    0    0 -0.00000000000E+00 -0.00000000000E+00 -0.74505805969E-08  0.93827000000E+00  0.93827000000E+00 0. -1.
     999902    2    1    2    0    0 -0.71972755439E-02 -0.22313378677E-01 -0.58533347278E-04  0.10204845085E+01  0.10202151445E+01 0.  0.
     999903    2    3    3    0    0  0.12139804027E+00  0.21051175492E-01  0.34175134807E-01  0.12942380139E+00  0.20048549970E-01 0.  0.
         14    1    1    2    0    0  0.71972755439E-02  0.22313378677E-01  0.58533347278E-04  0.23445491451E-01  0.00000000000E+00 0.  1.
     999901    1    3    3    0    0 -0.12859531582E+00 -0.43364554169E-01 -0.34233668154E-01  0.89106070716E+00  0.88000000000E+00 0.  1.
        -11    1    4    4    0    0  0.75798447329E-01  0.71288433238E-02  0.12931448452E-01  0.77225051017E-01  0.51100000000E-03 0. -1.
         11    1    4    4    0    0  0.45599592942E-01  0.13922332168E-01  0.21243686354E-01  0.52198750372E-01  0.51100000000E-03 0.  1.
</event>
<event>
 8    1  0.1022673E+005  0.1043930E+01  0.7957747E-01            NaN
         13   -1    0    0    0    0  0.00000000000E+00  0.00000000000E+00  0.74505805969E-08  0.10566000000E+00  0.10566000000E+00 0.  1.
     999900   -1    0    0    0    0 -0.00000000000E+00 -0.00000000000E+00 -0.74505805969E-08  0.93827000000E+00  0.93827000000E+00 0. -1.
     999902    2    1    2    0    0 -0.13426766798E-01  0.16712305686E-01 -0.98236841059E-02  0.10203485667E+01  0.10200760332E+01 0.  0.
     999903    2    3    3    0    0 -0.11798360439E+00  0.25916863009E-01 -0.52144112662E-01  0.13310120837E+00  0.20127307086E-01 0.  0.
         14    1    1    2    0    0  0.13426766798E-01 -0.16712305686E-01  0.98236841059E-02  0.23581433320E-01  0.00000000000E+00 0.  1.
     999901    1    3    3    0    0  0.10455683759E+00 -0.92045573225E-02  0.42320428556E-01  0.88724735831E+00  0.88000000000E+00 0.  1.
        -11    1    4    4    0    0 -0.10006809589E+00  0.28631898105E-01 -0.41309373494E-01  0.11198274360E+00  0.51100000000E-03 0. -1.
         11    1    4    4    0    0 -0.17915508494E-01 -0.27150350968E-02 -0.10834739168E-01  0.21118464764E-01  0.51100000000E-03 0.  1.
</event>
<event>
 8    1  0.1022673E+005  0.1043930E+01  0.7957747E-01            NaN
         13   -1    0    0    0    0  0.00000000000E+00  0.00000000000E+00  0.74505805969E-08  0.10566000000E+00  0.10566000000E+00 0.  1.
     999900   -1    0    0    0    0 -0.00000000000E+00 -0.00000000000E+00 -0.74505805969E-08  0.93827000000E+00  0.93827000000E+00 0. -1.
     999902    2    1    2    0    0  0.10841446555E-01  0.18416728380E-01  0.10185696842E-01  0.10202559368E+01  0.10199812328E+01 0.  0.
     999903    2    3    3    0    0 -0.58121290841E-01 -0.24036999863E-01  0.11280009360E+00  0.13059988383E+00  0.19406357918E-01 0.  0.
         14    1    1    2    0    0 -0.10841446555E-01 -0.18416728380E-01 -0.10185696842E-01  0.23674063187E-01  0.00000000000E+00 0. -1.
     999901    1    3    3    0    0  0.68962737396E-01  0.42453728243E-01 -0.10261439676E+00  0.88965605299E+00  0.88000000000E+00 0. -1.
        -11    1    4    4    0    0 -0.39177349184E-02  0.26973780795E-02  0.44566583298E-02  0.65381511044E-02  0.51100000000E-03 0.  1.
         11    1    4    4    0    0 -0.54203555923E-01 -0.26734377943E-01  0.10834343527E+00  0.12406173272E+00  0.51100000000E-03 0. -1.
</event>
<event>
 8    1  0.1022673E+005  0.1043930E+01  0.7957747E-01            NaN
         13   -1    0    0    0    0  0.00000000000E+00  0.00000000000E+00  0.74505805969E-08  0.10566000000E+00  0.10566000000E+00 0.  1.
     999900   -1    0    0    0    0 -0.00000000000E+00 -0.00000000000E+00 -0.74505805969E-08  0.93827000000E+00  0.93827000000E+00 0.  1.
     999902    2    1    2    0    0  0.20278782037E-01  0.12196564221E-01  0.44590262057E-02  0.10198495495E+01  0.10195652189E+01 0.  0.
     999903    2    3    3    0    0 -0.36012235582E-02 -0.40153646438E-01 -0.12081750192E+00  0.12911670086E+00  0.21188901233E-01 0.  0.
         14    1    1    2    0    0 -0.20278782037E-01 -0.12196564221E-01 -0.44590262057E-02  0.24080450461E-01  0.00000000000E+00 0. -1.
     999901    1    3    3    0    0  0.23880005595E-01  0.52350210659E-01  0.12527652813E+00  0.89073284868E+00  0.88000000000E+00 0. -1.
        -11    1    4    4    0    0  0.62931836162E-02 -0.23446861934E-01 -0.48540175909E-01  0.54274941666E-01  0.51100000000E-03 0. -1.
         11    1    4    4    0    0 -0.98944071744E-02 -0.16706784504E-01 -0.72277326015E-01  0.74841759190E-01  0.51100000000E-03 0.  1.
</event>
<event>
 8    1  0.1022673E+005  0.1043930E+01  0.7957747E-01            NaN
         13   -1    0    0    0    0  0.00000000000E+00  0.00000000000E+00  0.74505805969E-08  0.10566000000E+00  0.10566000000E+00 0. -1.
     999900   -1    0    0    0    0 -0.00000000000E+00 -0.00000000000E+00 -0.74505805969E-08  0.93827000000E+00  0.93827000000E+00 0. -1.
     999902    2    1    2    0    0  0.18748118448E-01 -0.12623702690E-01 -0.57074477450E-02  0.10206185270E+01  0.10203522690E+01 0.  0.
     999903    2    3    3    0    0  0.85856345866E-01 -0.70209718029E-02  0.97581276137E-01  0.13202218146E+00  0.22071356410E-01 0.  0.
         14    1    1    2    0    0 -0.18748118448E-01  0.12623702690E-01  0.57074477450E-02  0.23311473027E-01  0.00000000000E+00 0. -1.
     999901    1    3    3    0    0 -0.67108227418E-01 -0.56027308874E-02 -0.10328872388E+00  0.88859634551E+00  0.88000000000E+00 0. -1.
        -11    1    4    4    0    0  0.27851028561E-01 -0.77675825430E-02  0.46323695434E-01  0.54609165990E-01  0.51100000000E-03 0. -1.
         11    1    4    4    0    0  0.58005317306E-01  0.74661074005E-03  0.51257580704E-01  0.77413015468E-01  0.51100000000E-03 0.  1.
</event>
<event>
 8    1  0.1022673E+005  0.1043930E+01  0.7957747E-01            NaN
         13   -1    0    0    0    0  0.00000000000E+00  0.00000000000E+00  0.74505805969E-08  0.10566000000E+00  0.10566000000E+00 0.  1.
     999900   -1    0    0    0    0 -0.00000000000E+00 -0.00000000000E+00 -0.74505805969E-08  0.93827000000E+00  0.93827000000E+00 0. -1.
     999902    2    1    2    0    0 -0.78938055918E-02 -0.18745312635E-01  0.13325253722E-01  0.10196141348E+01  0.10193241499E+01 0.  0.
     999903    2    3    3    0    0 -0.20706669824E-01  0.12303063287E+00  0.20696398543E-01  0.12814404447E+00  0.20670085158E-01 0.  0.
         14    1    1    2    0    0  0.78938055918E-02  0.18745312635E-01 -0.13325253722E-01  0.24315865176E-01  0.00000000000E+00 0. -1.
     999901    1    3    3    0    0  0.12812864232E-01 -0.14177594551E+00 -0.73711448215E-02  0.89147009035E+00  0.88000000000E+00 0. -1.
        -11    1    4    4    0    0 -0.14804099908E-01  0.11547939677E+00  0.21911052889E-01  0.11846943831E+00  0.51100000000E-03 0. -1.
         11    1    4    4    0    0 -0.59025699153E-02  0.75512361007E-02 -0.12146543462E-02  0.96746061643E-02  0.51100000000E-03 0.  1.
</event>
<event>
 8    1  0.1022673E+005  0.1043930E+01  0.7957747E-01            NaN
         13   -1    0    0    0    0  0.00000000000E+00  0.00000000000E+00  0.74505805969E-08  0.10566000000E+00  0.10566000000E+00 0. -1.
     999900   -1    0    0    0    0 -0.00000000000E+00 -0.00000000000E+00 -0.74505805969E-08  0.93827000000E+00  0.93827000000E+00 0.  1.
     999902    2    1    2    0    0  0.65134328335E-02  0.43907067299E-02 -0.22375090391E-01  0.10202161268E+01  0.10199404873E+01 0.  0.
     999903    2    3    3    0    0  0.55631854178E-01 -0.10858790309E+00 -0.44301255187E-01  0.13136431557E+00  0.20192728858E-01 0.  0.
         14    1    1    2    0    0 -0.65134328335E-02 -0.43907067299E-02  0.22375090391E-01  0.23713873215E-01  0.00000000000E+00 0. -1.
     999901    1    3    3    0    0 -0.49118421345E-01  0.11297860982E+00  0.21926164796E-01  0.88885181121E+00  0.88000000000E+00 0. -1.
        -11    1    4    4    0    0  0.47456005555E-01 -0.83295994736E-01 -0.42048819002E-01  0.10468361621E+00  0.51100000000E-03 0. -1.
         11    1    4    4    0    0  0.81758486236E-02 -0.25291908351E-01 -0.22524361844E-02  0.26680699363E-01  0.51100000000E-03 0.  1.
</event>
<event>
 8    1  0.1022673E+005  0.1043930E+01  0.7957747E-01            NaN
         13   -1    0    0    0    0  0.00000000000E+00  0.00000000000E+00  0.74505805969E-08  0.10566000000E+00  0.10566000000E+00 0. -1.
     999900   -1    0    0    0    0 -0.00000000000E+00 -0.00000000000E+00 -0.74505805969E-08  0.93827000000E+00  0.93827000000E+00 0. -1.
     999902    2    1    2    0    0 -0.17955052295E-01 -0.14503083914E-01 -0.24994631692E-02  0.10207142583E+01  0.10204502077E+01 0.  0.
     999903    2    3    3    0    0  0.38649291648E-01  0.12001703699E+00  0.17883533376E-01  0.12846138988E+00  0.16871603665E-01 0.  0.
         14    1    1    2    0    0  0.17955052295E-01  0.14503083914E-01  0.24994631692E-02  0.23215741687E-01  0.00000000000E+00 0. -1.
     999901    1    3    3    0    0 -0.56604343943E-01 -0.13452012091E+00 -0.20382996545E-01  0.89225286843E+00  0.88000000000E+00 0.  1.
        -11    1    4    4    0    0  0.94061811789E-02  0.56538796381E-01  0.81712888966E-02  0.57897692734E-01  0.51100000000E-03 0.  1.
         11    1    4    4    0    0  0.29243110469E-01  0.63478240611E-01  0.97122444797E-02  0.70563697145E-01  0.51100000000E-03 0. -1.
</event>
<event>
 8    1  0.1022673E+005  0.1043930E+01  0.7957747E-01            NaN
         13   -1    0    0    0    0  0.00000000000E+00  0.00000000000E+00  0.74505805969E-08  0.10566000000E+00  0.10566000000E+00 0. -1.
     999900   -1    0    0    0    0 -0.00000000000E+00 -0.00000000000E+00 -0.74505805969E-08  0.93827000000E+00  0.93827000000E+00 0.  1.
     999902    2    1    2    0    0  0.17923234412E-02 -0.71099214684E-02  0.22186087498E-01  0.10205636591E+01  0.10202961318E+01 0.  0.
     999903    2    3    3    0    0 -0.21665729806E-01  0.11251633357E+00  0.60830930800E-01  0.13132007886E+00  0.20377237358E-01 0.  0.
         14    1    1    2    0    0 -0.17923234412E-02  0.71099214684E-02 -0.22186087498E-01  0.23366340858E-01  0.00000000000E+00 0.  1.
     999901    1    3    3    0    0  0.23458053247E-01 -0.11962625504E+00 -0.38644843302E-01  0.88924358028E+00  0.88000000000E+00 0.  1.
        -11    1    4    4    0    0 -0.12550825054E-01  0.33559782872E-01  0.27327895419E-01  0.45065033285E-01  0.51100000000E-03 0.  1.
         11    1    4    4    0    0 -0.91149047517E-02  0.78956550698E-01  0.33503035380E-01  0.86255045577E-01  0.51100000000E-03 0. -1.
</event>
<event>
 8    1  0.1022673E+005  0.1043930E+01  0.7957747E-01            NaN
         13   -1    0    0    0    0  0.00000000000E+00  0.00000000000E+00  0.74505805969E-08  0.10566000000E+00  0.10566000000E+00 0. -1.
     999900   -1    0    0    0    0 -0.00000000000E+00 -0.00000000000E+00 -0.74505805969E-08  0.93827000000E+00  0.93827000000E+00 0. -1.
     999902    2    1    2    0    0  0.11342006800E-01  0.11940063802E-01 -0.17903154263E-01  0.10196045159E+01  0.10193142988E+01 0.  0.
     999903    2    3    3    0    0  0.93567987072E-01  0.57859892041E-01 -0.71860648705E-01  0.13293594559E+00  0.20131504791E-01 0.  0.
         14    1    1    2    0    0 -0.11342006800E-01 -0.11940063802E-01  0.17903154263E-01  0.24325484053E-01  0.00000000000E+00 0. -1.
     999901    1    3    3    0    0 -0.82225980272E-01 -0.45919828239E-01  0.53957494442E-01  0.88666857036E+00  0.88000000000E+00 0. -1.
        -11    1    4    4    0    0  0.39561331844E-01  0.35203451556E-01 -0.39085331816E-01  0.65820257239E-01  0.51100000000E-03 0.  1.
         11    1    4    4    0    0  0.54006655228E-01  0.22656440485E-01 -0.32775316889E-01  0.67115688349E-01  0.51100000000E-03 0. -1.
</event>
<event>
 7    1  0.1022673E+005  0.1043930E+01  0.7957747E-01            NaN
         13   -1    0    0    0    0  0.00000000000E+00  0.00000000000E+00  0.74505805969E-08  0.10566000000E+00  0.10566000000E+00 0. -1.
     999900   -1    0    0    0    0 -0.00000000000E+00 -0.00000000000E+00 -0.74505805969E-08  0.93827000000E+00  0.93827000000E+00 0. -1.
     999902    2    1    2    0    0 -0.11047116640E-01  0.19928666467E-01 -0.85419631981E-02  0.10195957511E+01  0.10193053223E+01 0.  0.
         14    1    1    2    0    0  0.11047116640E-01 -0.19928666467E-01  0.85419631981E-02  0.24334248878E-01  0.00000000000E+00 0. -1.
     999901    1    3    3    0    0 -0.77529961200E-01 -0.52323848966E-01  0.78424149941E-01  0.88842502630E+00  0.88000000000E+00 0. -1.
        -11    1    3    3    0    0  0.19854307940E-01  0.22076592077E-01 -0.25875704832E-01  0.39387595549E-01  0.51100000000E-03 0.  1.
         11    1    3    3    0    0  0.46628536620E-01  0.50175923356E-01 -0.61090408306E-01  0.91783129278E-01  0.51100000000E-03 0. -1.
</event>
<event>
 8    1  0.1022673E+005  0.1043930E+01  0.7957747E-01            NaN
         13   -1    0    0    0    0  0.00000000000E+00  0.00000000000E+00  0.74505805969E-08  0.10566000000E+00  0.10566000000E+00 0. -1.
     999900   -1    0    0    0    0 -0.00000000000E+00 -0.00000000000E+00 -0.74505805969E-08  0.93827000000E+00  0.93827000000E+00 0.  1.
     999902    2    1    2    0    0 -0.10008305446E-01 -0.11413966671E-01 -0.19525824075E-01  0.10191973774E+01  0.10188972429E+01 0.  0.
     999903    2    3    3    0    0 -0.22242298807E-01  0.27124466269E-01  0.12064423487E+00  0.12718699250E+00  0.19774810414E-01 0.  0.
         14    1    1    2    0    0  0.10008305446E-01  0.11413966671E-01  0.19525824075E-01  0.24732622564E-01  0.00000000000E+00 0. -1.
     999901    1    3    3    0    0  0.12233993361E-01 -0.38538432940E-01 -0.14017005895E+00  0.89201038494E+00  0.88000000000E+00 0.  1.
        -11    1    4    4    0    0 -0.15833377674E-01  0.42487230129E-02  0.53821822704E-01  0.56265417585E-01  0.51100000000E-03 0.  1.
         11    1    4    4    0    0 -0.64089211330E-02  0.22875743256E-01  0.66822412168E-01  0.70921574916E-01  0.51100000000E-03 0. -1.
</event>
<event>
 8    1  0.1022673E+005  0.1043930E+01  0.7957747E-01            NaN
         13   -1    0    0    0    0  0.00000000000E+00  0.00000000000E+00  0.74505805969E-08  0.10566000000E+00  0.10566000000E+00 0.  1.
     999900   -1    0    0    0    0 -0.00000000000E+00 -0.00000000000E+00 -0.74505805969E-08  0.93827000000E+00  0.93827000000E+00 0. -1.
     999902    2    1    2    0    0  0.10644164610E-01  0.46585595300E-02 -0.21419731087E-01  0.10195618795E+01  0.10192706318E+01 0.  0.
     999903    2    3    3    0    0  0.52129210938E-01 -0.70567506696E-01  0.91468582120E-01  0.12820126708E+00  0.19283042578E-01 0.  0.
         14    1    1    2    0    0 -0.10644164610E-01 -0.46585595300E-02  0.21419731087E-01  0.24368120506E-01  0.00000000000E+00 0.  1.
     999901    1    3    3    0    0 -0.41485046328E-01  0.75226066226E-01 -0.11288831321E+00  0.89136061242E+00  0.88000000000E+00 0.  1.
        -11    1    4    4    0    0  0.13701611885E-01 -0.83013195710E-02  0.11004314015E-01  0.19442276688E-01  0.51100000000E-03 0. -1.
         11    1    4    4    0    0  0.38427599054E-01 -0.62266187125E-01  0.80464268105E-01  0.10875899039E+00  0.51100000000E-03 0.  1.
</event>
<event>
 8    1  0.1022673E+005  0.1043930E+01  0.7957747E-01            NaN
         13   -1    0    0    0    0  0.00000000000E+00  0.00000000000E+00  0.74505805969E-08  0.10566000000E+00  0.10566000000E+00 0. -1.
     999900   -1    0    0    0    0 -0.00000000000E+00 -0.00000000000E+00 -0.74505805969E-08  0.93827000000E+00  0.93827000000E+00 0.  1.
     999902    2    1    2    0    0 -0.10700548709E-01 -0.83131960364E-02 -0.19280682946E-01  0.10203640138E+01  0.10200918414E+01 0.  0.
     999903    2    3    3    0    0  0.11536503119E-01 -0.63920730516E-01 -0.11458796476E+00  0.13319426547E+00  0.19782820676E-01 0.  0.
         14    1    1    2    0    0  0.10700548709E-01  0.83131960364E-02  0.19280682946E-01  0.23565986207E-01  0.00000000000E+00 0. -1.
     999901    1    3    3    0    0 -0.22237051828E-01  0.55607534480E-01  0.95307281813E-01  0.88716974832E+00  0.88000000000E+00 0. -1.
        -11    1    4    4    0    0  0.11155762899E-01 -0.18601843921E-01 -0.27600000878E-01  0.35106990936E-01  0.51100000000E-03 0.  1.
         11    1    4    4    0    0  0.38074022038E-03 -0.45318886595E-01 -0.86987963881E-01  0.98087274539E-01  0.51100000000E-03 0. -1.
</event>
<event>
 8    1  0.1022673E+005  0.1043930E+01  0.7957747E-01            NaN
         13   -1    0    0    0    0  0.00000000000E+00  0.00000000000E+00  0.74505805969E-08  0.10566000000E+00  0.10566000000E+00 0.  1.
     999900   -1    0    0    0    0 -0.00000000000E+00 -0.00000000000E+00 -0.74505805969E-08  0.93827000000E+00  0.93827000000E+00 0.  1.
     999902    2    1    2    0    0 -0.69366594550E-02 -0.17589615926E-01  0.11814385519E-01  0.10216344503E+01  0.10213911388E+01 0.  0.
     999903    2    3    3    0    0 -0.11784646888E-01 -0.38301683262E-01 -0.12313836227E+00  0.13109262820E+00  0.20404020755E-01 0.  0.
         14    1    1    2    0    0  0.69366594550E-02  0.17589615926E-01 -0.11814385519E-01  0.22295549736E-01  0.00000000000E+00 0. -1.
     999901    1    3    3    0    0  0.48479874333E-02  0.20712067336E-01  0.13495274779E+00  0.89054182207E+00  0.88000000000E+00 0. -1.
        -11    1    4    4    0    0 -0.16380878207E-02 -0.21486760452E-01 -0.90205779935E-01  0.92745393746E-01  0.51100000000E-03 0.  1.
         11    1    4    4    0    0 -0.10146559068E-01 -0.16814922811E-01 -0.32932582332E-01  0.38347234452E-01  0.51100000000E-03 0. -1.
</event>
<event>
 8    1  0.1022673E+005  0.1043930E+01  0.7957747E-01            NaN
         13   -1    0    0    0    0  0.00000000000E+00  0.00000000000E+00  0.74505805969E-08  0.10566000000E+00  0.10566000000E+00 0.  1.
     999900   -1    0    0    0    0 -0.00000000000E+00 -0.00000000000E+00 -0.74505805969E-08  0.93827000000E+00  0.93827000000E+00 0.  1.
     999902    2    1    2    0    0 -0.16646628360E-01 -0.11433459139E-01 -0.13294948797E-01  0.10197517063E+01  0.10194650325E+01 0.  0.
     999903    2    3    3    0    0  0.12617629422E+00 -0.21092194456E-02  0.14455119327E-01  0.12775652976E+00  0.13706727924E-01 0.  0.
         14    1    1    2    0    0  0.16646628360E-01  0.11433459139E-01  0.13294948797E-01  0.24178293719E-01  0.00000000000E+00 0. -1.
     999901    1    3    3    0    0 -0.14282292258E+00 -0.93242396938E-02 -0.27750068124E-01  0.89199517652E+00  0.88000000000E+00 0.  1.
        -11    1    4    4    0    0  0.27985492660E-01 -0.21306526510E-02 -0.22191166452E-02  0.28158712326E-01  0.51100000000E-03 0. -1.
         11    1    4    4    0    0  0.98190801563E-01  0.21433205410E-04  0.16674235972E-01  0.99597817432E-01  0.51100000000E-03 0.  1.
</event>
<event>
 8    1  0.1022673E+005  0.1043930E+01  0.7957747E-01            NaN
         13   -1    0    0    0    0  0.00000000000E+00  0.00000000000E+00  0.74505805969E-08  0.10566000000E+00  0.10566000000E+00 0.  1.
     999900   -1    0    0    0    0 -0.00000000000E+00 -0.00000000000E+00 -0.74505805969E-08  0.93827000000E+00  0.93827000000E+00 0.  1.
     999902    2    1    2    0    0 -0.41155651074E-02  0.22387439710E-01 -0.11905939821E-02  0.10211362981E+01  0.10208818670E+01 0.  0.
     999903    2    3    3    0    0 -0.79989719763E-01 -0.77336999642E-01 -0.64218224227E-01  0.13002781237E+00  0.20096887433E-01 0.  0.
         14    1    1    2    0    0  0.41155651074E-02 -0.22387439710E-01  0.11905939821E-02  0.22793701914E-01  0.00000000000E+00 0. -1.
     999901    1    3    3    0    0  0.75874154655E-01  0.99724439351E-01  0.63027630245E-01  0.89110848572E+00  0.88000000000E+00 0.  1.
        -11    1    4    4    0    0 -0.20482209854E-01 -0.26780676952E-01 -0.10752867221E-01  0.35392242836E-01  0.51100000000E-03 0.  1.
         11    1    4    4    0    0 -0.59507509909E-01 -0.50556322690E-01 -0.53465357006E-01  0.94635569530E-01  0.51100000000E-03 0. -1.
</event>
<event>
 8    1  0.1022673E+005  0.1043930E+01  0.7957747E-01            NaN
         13   -1    0    0    0    0  0.00000000000E+00  0.00000000000E+00  0.74505805969E-08  0.10566000000E+00  0.10566000000E+00 0. -1.
     999900   -1    0    0    0    0 -0.00000000000E+00 -0.00000000000E+00 -0.74505805969E-08  0.93827000000E+00  0.93827000000E+00 0.  1.
     999902    2    1    2    0    0 -0.22743561043E-02 -0.23213399406E-01  0.11552374449E-01  0.10179013242E+01  0.10175684812E+01 0.  0.
     999903    2    3    3    0    0  0.36097258990E-01 -0.77628949627E-01 -0.94105660640E-01  0.12908354012E+00  0.21849920776E-01 0.  0.
         14    1    1    2    0    0  0.22743561043E-02  0.23213399406E-01 -0.11552374449E-01  0.26028675785E-01  0.00000000000E+00 0.  1.
     999901    1    3    3    0    0 -0.38371615095E-01  0.54415550221E-01  0.10565803509E+00  0.88881778410E+00  0.88000000000E+00 0. -1.
        -11    1    4    4    0    0 -0.27934464421E-02 -0.91464199707E-02 -0.11110700515E-01  0.14668644390E-01  0.51100000000E-03 0.  1.
         11    1    4    4    0    0  0.38890705432E-01 -0.68482529656E-01 -0.82994960125E-01  0.11441489573E+00  0.51100000000E-03 0. -1.
</event>
<event>
 8    1  0.1022673E+005  0.1043930E+01  0.7957747E-01            NaN
         13   -1    0    0    0    0  0.00000000000E+00  0.00000000000E+00  0.74505805969E-08  0.10566000000E+00  0.10566000000E+00 0. -1.
     999900   -1    0    0    0    0 -0.00000000000E+00 -0.00000000000E+00 -0.74505805969E-08  0.93827000000E+00  0.93827000000E+00 0.  1.
     999902    2    1    2    0    0  0.17328037652E-02 -0.19321066744E-01 -0.14389471364E-01  0.10197770889E+01  0.10194910239E+01 0.  0.
     999903    2    3    3    0    0  0.12773484281E+00 -0.99439927952E-02  0.13678337988E-01  0.13030969472E+00  0.19453702688E-01 0.  0.
         14    1    1    2    0    0 -0.17328037652E-02  0.19321066744E-01  0.14389471364E-01  0.24152911112E-01  0.00000000000E+00 0. -1.
     999901    1    3    3    0    0 -0.12600203905E+00 -0.93770739490E-02 -0.28067809352E-01  0.88946739416E+00  0.88000000000E+00 0.  1.
        -11    1    4    4    0    0  0.37838927251E-01  0.43313570094E-02  0.91517252207E-02  0.39173463781E-01  0.51100000000E-03 0. -1.
         11    1    4    4    0    0  0.89895915560E-01 -0.14275349805E-01  0.45266127668E-02  0.91136230943E-01  0.51100000000E-03 0.  1.
</event>
<event>
 8    1  0.1022673E+005  0.1043930E+01  0.7957747E-01            NaN
         13   -1    0    0    0    0  0.00000000000E+00  0.00000000000E+00  0.74505805969E-08  0.10566000000E+00  0.10566000000E+00 0. -1.
     999900   -1    0    0    0    0 -0.00000000000E+00 -0.00000000000E+00 -0.74505805969E-08  0.93827000000E+00  0.93827000000E+00 0. -1.
     999902    2    1    2    0    0 -0.12975403291E-01 -0.16660037081E-01  0.95418569268E-02  0.10207574956E+01  0.10204944389E+01 0.  0.
     999903    2    3    3    0    0 -0.59789124334E-01  0.11102687898E+00  0.24958623967E-01  0.13017726356E+00  0.20529973050E-01 0.  0.
         14    1    1    2    0    0  0.12975403291E-01  0.16660037081E-01 -0.95418569268E-02  0.23172504390E-01  0.00000000000E+00 0.  1.
     999901    1    3    3    0    0  0.46813721043E-01 -0.12768691606E+00 -0.15416767041E-01  0.89058023205E+00  0.88000000000E+00 0.  1.
        -11    1    4    4    0    0 -0.15856203160E-01  0.15300915769E-01  0.82435130468E-02  0.23531974638E-01  0.51100000000E-03 0.  1.
         11    1    4    4    0    0 -0.43932921175E-01  0.95725963209E-01  0.16715110921E-01  0.10664528892E+00  0.51100000000E-03 0. -1.
</event>
<event>
 8    1  0.1022673E+005  0.1043930E+01  0.7957747E-01            NaN
         13   -1    0    0    0    0  0.00000000000E+00  0.00000000000E+00  0.74505805969E-08  0.10566000000E+00  0.10566000000E+00 0.  1.
     999900   -1    0    0    0    0 -0.00000000000E+00 -0.00000000000E+00 -0.74505805969E-08  0.93827000000E+00  0.93827000000E+00 0.  1.
     999902    2    1    2    0    0 -0.16845015962E-01  0.16460717474E-01 -0.49132228141E-02  0.10198707078E+01  0.10195868826E+01 0.  0.
     999903    2    3    3    0    0 -0.12469473758E+00  0.31588558587E-01  0.25605126295E-01  0.13263241757E+00  0.19726152238E-01 0.  0.
         14    1    1    2    0    0  0.16845015962E-01 -0.16460717474E-01  0.49132228141E-02  0.24059292196E-01  0.00000000000E+00 0.  1.
     999901    1    3    3    0    0  0.10784972162E+00 -0.15127841112E-01 -0.30518349109E-01  0.88723829024E+00  0.88000000000E+00 0.  1.
        -11    1    4    4    0    0 -0.29073097386E-01  0.15976909646E-01  0.84417470421E-02  0.34234936068E-01  0.51100000000E-03 0.  1.
         11    1    4    4    0    0 -0.95621640199E-01  0.15611648941E-01  0.17163379253E-01  0.98397481499E-01  0.51100000000E-03 0. -1.
</event>
<event>
 8    1  0.1022673E+005  0.1043930E+01  0.7957747E-01            NaN
         13   -1    0    0    0    0  0.00000000000E+00  0.00000000000E+00  0.74505805969E-08  0.10566000000E+00  0.10566000000E+00 0. -1.
     999900   -1    0    0    0    0 -0.00000000000E+00 -0.00000000000E+00 -0.74505805969E-08  0.93827000000E+00  0.93827000000E+00 0.  1.
     999902    2    1    2    0    0  0.16188054469E-01 -0.16876045358E-01  0.12530634043E-02  0.10205115418E+01  0.10202428058E+01 0.  0.
     999903    2    3    3    0    0  0.18744935911E-01  0.10883735819E+00 -0.63981818175E-01  0.12918332663E+00  0.19942809772E-01 0.  0.
         14    1    1    2    0    0 -0.16188054469E-01  0.16876045358E-01 -0.12530634043E-02  0.23418458154E-01  0.00000000000E+00 0. -1.
     999901    1    3    3    0    0 -0.25568814412E-02 -0.12571340354E+00  0.65234881579E-01  0.89132821522E+00  0.88000000000E+00 0.  1.
        -11    1    4    4    0    0  0.14270947810E-01  0.42239172837E-01 -0.33672635770E-01  0.55874101282E-01  0.51100000000E-03 0.  1.
         11    1    4    4    0    0  0.44739881010E-02  0.66598185350E-01 -0.30309182405E-01  0.73309225343E-01  0.51100000000E-03 0. -1.
</event>
<event>
 8    1  0.1022673E+005  0.1043930E+01  0.7957747E-01            NaN
         13   -1    0    0    0    0  0.00000000000E+00  0.00000000000E+00  0.74505805969E-08  0.10566000000E+00  0.10566000000E+00 0. -1.
     999900   -1    0    0    0    0 -0.00000000000E+00 -0.00000000000E+00 -0.74505805969E-08  0.93827000000E+00  0.93827000000E+00 0. -1.
     999902    2    1    2    0    0  0.95566121015E-02  0.23454980569E-01  0.20640813896E-02  0.10185188729E+01  0.10182018312E+01 0.  0.
     999903    2    3    3    0    0  0.30258208116E-01  0.12551510230E+00 -0.19342069460E-01  0.13211995153E+00  0.20296942552E-01 0.  0.
         14    1    1    2    0    0 -0.95566121015E-02 -0.23454980569E-01 -0.20640813896E-02  0.25411127097E-01  0.00000000000E+00 0.  1.
     999901    1    3    3    0    0 -0.20701596014E-01 -0.10206012173E+00  0.21406150849E-01  0.88639892138E+00  0.88000000000E+00 0.  1.
        -11    1    4    4    0    0  0.19932852077E-01  0.46784950339E-01 -0.23181483849E-02  0.50909577715E-01  0.51100000000E-03 0.  1.
         11    1    4    4    0    0  0.10325356039E-01  0.78730151958E-01 -0.17023921075E-01  0.81210373811E-01  0.51100000000E-03 0. -1.
</event>
<event>
 8    1  0.1022673E+005  0.1043930E+01  0.7957747E-01            NaN
         13   -1    0    0    0    0  0.00000000000E+00  0.00000000000E+00  0.74505805969E-08  0.10566000000E+00  0.10566000000E+00 0. -1.
     999900   -1    0    0    0    0 -0.00000000000E+00 -0.00000000000E+00 -0.74505805969E-08  0.93827000000E+00  0.93827000000E+00 0.  1.
     999902    2    1    2    0    0 -0.11202146513E-01 -0.17726568648E-01 -0.72827439533E-02  0.10217318541E+01  0.10214906872E+01 0.  0.
     999903    2    3    3    0    0  0.51871299917E-01  0.11658652925E+00 -0.23440721310E-02  0.12929549311E+00  0.20706986898E-01 0.  0.
         14    1    1    2    0    0  0.11202146513E-01  0.17726568648E-01  0.72827439533E-02  0.22198145914E-01  0.00000000000E+00 0. -1.
     999901    1    3    3    0    0 -0.63073446430E-01 -0.13431309790E+00 -0.49386718223E-02  0.89243636098E+00  0.88000000000E+00 0.  1.
        -11    1    4    4    0    0  0.31926845105E-01  0.91827299774E-01 -0.52745768156E-02  0.97363538883E-01  0.51100000000E-03 0. -1.
         11    1    4    4    0    0  0.19944454813E-01  0.24759229478E-01  0.29305046847E-02  0.31931954228E-01  0.51100000000E-03 0.  1.
</event>
<event>
 8    1  0.1022673E+005  0.1043930E+01  0.7957747E-01            NaN
         13   -1    0    0    0    0  0.00000000000E+00  0.00000000000E+00  0.74505805969E-08  0.10566000000E+00  0.10566000000E+00 0. -1.
     999900   -1    0    0    0    0 -0.00000000000E+00 -0.00000000000E+00 -0.74505805969E-08  0.93827000000E+00  0.93827000000E+00 0.  1.
     999902    2    1    2    0    0 -0.22576555814E-01  0.72886051825E-02 -0.41212698212E-02  0.10198507661E+01  0.10195664646E+01 0.  0.
     999903    2    3    3    0    0  0.86219902346E-01 -0.81753641846E-02  0.92431811668E-01  0.12777548838E+00  0.16799627464E-01 0.  0.
         14    1    1    2    0    0  0.22576555814E-01 -0.72886051825E-02  0.41212698212E-02  0.24079233852E-01  0.00000000000E+00 0. -1.
     999901    1    3    3    0    0 -0.10879645816E+00  0.15463969367E-01 -0.96553081489E-01  0.89207527777E+00  0.88000000000E+00 0.  1.
        -11    1    4    4    0    0  0.30096004477E-01 -0.10705597279E-01  0.30754597786E-01  0.44345075314E-01  0.51100000000E-03 0.  1.
         11    1    4    4    0    0  0.56123897870E-01  0.25302330948E-02  0.61677213881E-01  0.83430413068E-01  0.51100000000E-03 0. -1.
</event>
<event>
 8    1  0.1022673E+005  0.1043930E+01  0.7957747E-01            NaN
         13   -1    0    0    0    0  0.00000000000E+00  0.00000000000E+00  0.74505805969E-08  0.10566000000E+00  0.10566000000E+00 0. -1.
     999900   -1    0    0    0    0 -0.00000000000E+00 -0.00000000000E+00 -0.74505805969E-08  0.93827000000E+00  0.93827000000E+00 0. -1.
     999902    2    1    2    0    0 -0.98649531172E-02 -0.15787351971E-01 -0.14293963094E-01  0.10204592701E+01  0.10201893191E+01 0.  0.
     999903    2    3    3    0    0 -0.11897716323E+00  0.41989465041E-01  0.28235991651E-01  0.13082314669E+00  0.19968573849E-01 0.  0.
         14    1    1    2    0    0  0.98649531172E-02  0.15787351971E-01  0.14293963094E-01  0.23470729925E-01  0.00000000000E+00 0. -1.
     999901    1    3    3    0    0  0.10911221011E+00 -0.57776817013E-01 -0.42529954745E-01  0.88963612338E+00  0.88000000000E+00 0. -1.
        -11    1    4    4    0    0 -0.71097230728E-01  0.21501862735E-01  0.25983937788E-01  0.78692899694E-01  0.51100000000E-03 0. -1.
         11    1    4    4    0    0 -0.47879932499E-01  0.20487602306E-01  0.22520538632E-02  0.52130246997E-01  0.51100000000E-03 0.  1.
</event>
<event>
 8    1  0.1022673E+005  0.1043930E+01  0.7957747E-01            NaN
         13   -1    0    0    0    0  0.00000000000E+00  0.00000000000E+00  0.74505805969E-08  0.10566000000E+00  0.10566000000E+00 0. -1.
     999900   -1    0    0    0    0 -0.00000000000E+00 -0.00000000000E+00 -0.74505805969E-08  0.93827000000E+00  0.93827000000E+00 0.  1.
     999902    2    1    2    0    0  0.56169766678E-02  0.20725655135E-01  0.87543944308E-02  0.10207407217E+01  0.10204772796E+01 0.  0.
     999903    2    3    3    0    0  0.90696359976E-01 -0.83965954438E-01  0.35178371691E-01  0.13006846929E+00  0.20104170006E-01 0.  0.
         14    1    1    2    0    0 -0.56169766678E-02 -0.20725655135E-01 -0.87543944308E-02  0.23189278331E-01  0.00000000000E+00 0. -1.
     999901    1    3    3    0    0 -0.85079383308E-01  0.10469160957E+00 -0.26423977260E-01  0.89067225238E+00  0.88000000000E+00 0.  1.
        -11    1    4    4    0    0  0.52040921090E-01 -0.61195310399E-01  0.23724809739E-01  0.83763065852E-01  0.51100000000E-03 0. -1.
         11    1    4    4    0    0  0.38655438886E-01 -0.22770644040E-01  0.11453561952E-01  0.46305403441E-01  0.51100000000E-03 0.  1.
</event>
<event>
 8    1  0.1105497E+005  0.1043930E+01  0.7957747E-01            NaN
         13   -1    0    0    0    0  0.00000000000E+00  0.00000000000E+00  0.74505805969E-08  0.10566000000E+00  0.10566000000E+00 0.  1.
     999900   -1    0    0    0    0 -0.00000000000E+00 -0.00000000000E+00 -0.74505805969E-08  0.93827000000E+00  0.93827000000E+00 0. -1.
     999902    2    1    2    0    0 -0.82762260688E-02  0.69700667075E-02 -0.20898146244E-01  0.10203968263E+01  0.10201254202E+01 0.  0.
     999903    2    3    3    0    0  0.47134141038E-01 -0.46842525561E-01 -0.11276591515E+00  0.13224943379E+00  0.18918553470E-01 0.  0.
         14    1    1    2    0    0  0.82762260688E-02 -0.69700667075E-02  0.20898146244E-01  0.23533173698E-01  0.00000000000E+00 0.  1.
     999901    1    3    3    0    0 -0.55410367107E-01  0.53812592269E-01  0.91867768903E-01  0.88814739252E+00  0.88000000000E+00 0.  1.
        -11    1    4    4    0    0  0.31267683505E-01 -0.27307560098E-01 -0.52457090717E-01  0.66898268721E-01  0.51100000000E-03 0.  1.
         11    1    4    4    0    0  0.15866457533E-01 -0.19534965463E-01 -0.60308824430E-01  0.65351165065E-01  0.51100000000E-03 0. -1.
</event>
<event>
 8    1  0.1022673E+005  0.1043930E+01  0.7957747E-01            NaN
         13   -1    0    0    0    0  0.00000000000E+00  0.00000000000E+00  0.74505805969E-08  0.10566000000E+00  0.10566000000E+00 0.  1.
     999900   -1    0    0    0    0 -0.00000000000E+00 -0.00000000000E+00 -0.74505805969E-08  0.93827000000E+00  0.93827000000E+00 0.  1.
     999902    2    1    2    0    0 -0.72872967967E-02  0.17443883564E-01  0.10678723356E-01  0.10222175865E+01  0.10219869692E+01 0.  0.
     999903    2    3    3    0    0  0.76534353739E-01 -0.94768899353E-01 -0.39865825442E-01  0.12970846655E+00  0.19908557682E-01 0.  0.
         14    1    1    2    0    0  0.72872967967E-02 -0.17443883564E-01 -0.10678723356E-01  0.21712413521E-01  0.00000000000E+00 0. -1.
     999901    1    3    3    0    0 -0.83821650536E-01  0.11221278292E+00  0.50544548798E-01  0.89250911993E+00  0.88000000000E+00 0.  1.
        -11    1    4    4    0    0  0.32454292884E-01 -0.37993579019E-01 -0.26617874987E-01  0.56617714217E-01  0.51100000000E-03 0.  1.
         11    1    4    4    0    0  0.44080060855E-01 -0.56775320333E-01 -0.13247950456E-01  0.73090752330E-01  0.51100000000E-03 0. -1.
</event>
<event>
 8    1  0.1022673E+005  0.1043930E+01  0.7957747E-01            NaN
         13   -1    0    0    0    0  0.00000000000E+00  0.00000000000E+00  0.74505805969E-08  0.10566000000E+00  0.10566000000E+00 0.  1.
     999900   -1    0    0    0    0 -0.00000000000E+00 -0.00000000000E+00 -0.74505805969E-08  0.93827000000E+00  0.93827000000E+00 0.  1.
     999902    2    1    2    0    0  0.15575739630E-01  0.12408532163E-02  0.17681869621E-01  0.10203335618E+01  0.10200606773E+01 0.  0.
     999903    2    3    3    0    0  0.29280638996E-02  0.11665994099E+00 -0.53069726680E-01  0.12989135824E+00  0.20910611341E-01 0.  0.
         14    1    1    2    0    0 -0.15575739630E-01 -0.12408532163E-02 -0.17681869621E-01  0.23596438184E-01  0.00000000000E+00 0. -1.
     999901    1    3    3    0    0  0.12647675730E-01 -0.11541908777E+00  0.70751596300E-01  0.89044220357E+00  0.88000000000E+00 0. -1.
        -11    1    4    4    0    0  0.16714344566E-02  0.31619237437E-01 -0.46048028516E-02  0.32000549988E-01  0.51100000000E-03 0. -1.
         11    1    4    4    0    0  0.12566294430E-02  0.85040703552E-01 -0.48464923828E-01  0.97890808255E-01  0.51100000000E-03 0.  1.
</event>
<event>
 8    1  0.1022673E+005  0.1043930E+01  0.7957747E-01            NaN
         13   -1    0    0    0    0  0.00000000000E+00  0.00000000000E+00  0.74505805969E-08  0.10566000000E+00  0.10566000000E+00 0. -1.
     999900   -1    0    0    0    0 -0.00000000000E+00 -0.00000000000E+00 -0.74505805969E-08  0.93827000000E+00  0.93827000000E+00 0. -1.
     999902    2    1    2    0    0 -0.12820929783E-01  0.19172535162E-01 -0.41116985337E-02  0.10205020592E+01  0.10202331030E+01 0.  0.
     999903    2    3    3    0    0  0.57243067483E-01  0.47052625838E-01 -0.10648934978E+00  0.13136346110E+00  0.20631503116E-01 0.  0.
         14    1    1    2    0    0  0.12820929783E-01 -0.19172535162E-01  0.41116985337E-02  0.23427940795E-01  0.00000000000E+00 0.  1.
     999901    1    3    3    0    0 -0.70063997266E-01 -0.27880090676E-01  0.10237765125E+00  0.88913859811E+00  0.88000000000E+00 0.  1.
        -11    1    4    4    0    0  0.30967276160E-01  0.23934292441E-01 -0.73462627387E-01  0.83239661766E-01  0.51100000000E-03 0.  1.
         11    1    4    4    0    0  0.26275791323E-01  0.23118333397E-01 -0.33026722398E-01  0.48123799331E-01  0.51100000000E-03 0. -1.
</event>
<event>
 8    1  0.1022673E+005  0.1043930E+01  0.7957747E-01            NaN
         13   -1    0    0    0    0  0.00000000000E+00  0.00000000000E+00  0.74505805969E-08  0.10566000000E+00  0.10566000000E+00 0.  1.
     999900   -1    0    0    0    0 -0.00000000000E+00 -0.00000000000E+00 -0.74505805969E-08  0.93827000000E+00  0.93827000000E+00 0.  1.
     999902    2    1    2    0    0 -0.14251508042E-01  0.19659283536E-01  0.21289414051E-03  0.10196475324E+01  0.10193583531E+01 0.  0.
     999903    2    3    3    0    0 -0.39244969671E-02  0.11759447654E+00 -0.57489131517E-01  0.13227643020E+00  0.18659880899E-01 0.  0.
         14    1    1    2    0    0  0.14251508042E-01 -0.19659283536E-01 -0.21289414051E-03  0.24282467637E-01  0.00000000000E+00 0.  1.
     999901    1    3    3    0    0 -0.10327011075E-01 -0.97935193003E-01  0.57702025658E-01  0.88737110216E+00  0.88000000000E+00 0.  1.
        -11    1    4    4    0    0 -0.19738420867E-02  0.46415962079E-01 -0.32953525905E-01  0.56960807393E-01  0.51100000000E-03 0.  1.
         11    1    4    4    0    0 -0.19506548804E-02  0.71178514460E-01 -0.24535605613E-01  0.75315622808E-01  0.51100000000E-03 0. -1.
</event>
<event>
 8    1  0.1022673E+005  0.1043930E+01  0.7957747E-01            NaN
         13   -1    0    0    0    0  0.00000000000E+00  0.00000000000E+00  0.74505805969E-08  0.10566000000E+00  0.10566000000E+00 0. -1.
     999900   -1    0    0    0    0 -0.00000000000E+00 -0.00000000000E+00 -0.74505805969E-08  0.93827000000E+00  0.93827000000E+00 0.  1.
     999902    2    1    2    0    0 -0.18629242569E-01  0.17141476754E-01  0.66597006286E-03  0.10186056556E+01  0.10182908028E+01 0.  0.
     999903    2    3    3    0    0 -0.98225677424E-01  0.70582021141E-01  0.48961608499E-01  0.13208213479E+00  0.20453503622E-01 0.  0.
         14    1    1    2    0    0  0.18629242569E-01 -0.17141476754E-01 -0.66597006286E-03  0.25324344416E-01  0.00000000000E+00 0. -1.
     999901    1    3    3    0    0  0.79596434855E-01 -0.53440544388E-01 -0.48295638436E-01  0.88652352079E+00  0.88000000000E+00 0.  1.
        -11    1    4    4    0    0 -0.32706715062E-01  0.35614467407E-01  0.17517725749E-01  0.51432006914E-01  0.51100000000E-03 0. -1.
         11    1    4    4    0    0 -0.65518962362E-01  0.34967553735E-01  0.31443882751E-01  0.80650127877E-01  0.51100000000E-03 0.  1.
</event>
<event>
 8    1  0.1022673E+005  0.1043930E+01  0.7957747E-01            NaN
         13   -1    0    0    0    0  0.00000000000E+00  0.00000000000E+00  0.74505805969E-08  0.10566000000E+00  0.10566000000E+00 0. -1.
     999900   -1    0    0    0    0 -0.00000000000E+00 -0.00000000000E+00 -0.74505805969E-08  0.93827000000E+00  0.93827000000E+00 0. -1.
     999902    2    1    2    0    0  0.87977425850E-02  0.16246917515E-01 -0.13595333195E-01  0.10209910443E+01  0.10207333231E+01 0.  0.
     999903    2    3    3    0    0 -0.17487887249E-01  0.11004378665E+00  0.67597084016E-01  0.13190106259E+00  0.20323960302E-01 0.  0.
         14    1    1    2    0    0 -0.87977425850E-02 -0.16246917515E-01  0.13595333195E-01  0.22938955687E-01  0.00000000000E+00 0. -1.
     999901    1    3    3    0    0  0.26285629834E-01 -0.93796869138E-01 -0.81192417212E-01  0.88908998173E+00  0.88000000000E+00 0. -1.
        -11    1    4    4    0    0  0.19968817077E-02  0.40469194508E-01  0.30241631344E-01  0.50562442860E-01  0.51100000000E-03 0.  1.
         11    1    4    4    0    0 -0.19484768957E-01  0.69574592145E-01  0.37355452673E-01  0.81338619725E-01  0.51100000000E-03 0. -1.
</event>
<event>
 8    1  0.1022673E+005  0.1043930E+01  0.7957747E-01            NaN
         13   -1    0    0    0    0  0.00000000000E+00  0.00000000000E+00  0.74505805969E-08  0.10566000000E+00  0.10566000000E+00 0.  1.
     999900   -1    0    0    0    0 -0.00000000000E+00 -0.00000000000E+00 -0.74505805969E-08  0.93827000000E+00  0.93827000000E+00 0.  1.
     999902    2    1    2    0    0  0.16131934450E-01  0.16911302857E-02  0.13280594977E-01  0.10229663783E+01  0.10227515523E+01 0.  0.
     999903    2    3    3    0    0  0.86673302354E-01 -0.10002864461E+00 -0.49662378348E-02  0.13411546614E+00  0.21078511730E-01 0.  0.
         14    1    1    2    0    0 -0.16131934450E-01 -0.16911302857E-02 -0.13280594977E-01  0.20963621674E-01  0.00000000000E+00 0. -1.
     999901    1    3    3    0    0 -0.70541367904E-01  0.10171977489E+00  0.18246832811E-01  0.88885091219E+00  0.88000000000E+00 0.  1.
        -11    1    4    4    0    0  0.41275416842E-01 -0.35510710840E-01  0.46069574610E-02  0.54645729915E-01  0.51100000000E-03 0. -1.
         11    1    4    4    0    0  0.45397885512E-01 -0.64517933765E-01 -0.95731952958E-02  0.79469736224E-01  0.51100000000E-03 0.  1.
</event>
<event>
 8    1  0.1022673E+005  0.1043930E+01  0.7957747E-01            NaN
         13   -1    0    0    0    0  0.00000000000E+00  0.00000000000E+00  0.74505805969E-08  0.10566000000E+00  0.10566000000E+00 0.  1.
     999900   -1    0    0    0    0 -0.00000000000E+00 -0.00000000000E+00 -0.74505805969E-08  0.93827000000E+00  0.93827000000E+00 0.  1.
     999902    2    1    2    0    0 -0.13147900029E-01  0.97728480652E-02 -0.16117610823E-01  0.10209484158E+01  0.10206897249E+01 0.  0.
     999903    2    3    3    0    0 -0.14568744199E-01 -0.12656378513E+00  0.16427829136E-01  0.12985419966E+00  0.19015772008E-01 0.  0.
         14    1    1    2    0    0  0.13147900029E-01 -0.97728480652E-02  0.16117610823E-01  0.22981584217E-01  0.00000000000E+00 0.  1.
     999901    1    3    3    0    0  0.14208441694E-02  0.13633663319E+00 -0.32545439959E-01  0.89109421612E+00  0.88000000000E+00 0.  1.
        -11    1    4    4    0    0 -0.67855091844E-02 -0.24638322686E-01 -0.32100664826E-02  0.25761516405E-01  0.51100000000E-03 0. -1.
         11    1    4    4    0    0 -0.77832350145E-02 -0.10192546244E+00  0.19637895618E-01  0.10409268325E+00  0.51100000000E-03 0.  1.
</event>
<event>
 8    1  0.1022673E+005  0.1043930E+01  0.7957747E-01            NaN
         13   -1    0    0    0    0  0.00000000000E+00  0.00000000000E+00  0.74505805969E-08  0.10566000000E+00  0.10566000000E+00 0.  1.
     999900   -1    0    0    0    0 -0.00000000000E+00 -0.00000000000E+00 -0.74505805969E-08  0.93827000000E+00  0.93827000000E+00 0.  1.
     999902    2    1    2    0    0  0.19714628998E-01  0.55729852151E-02  0.13598986673E-01  0.10193402217E+01  0.10190435861E+01 0.  0.
     999903    2    3    3    0    0 -0.43571432534E-01 -0.11371559897E+00  0.36703133316E-01  0.12874003442E+00  0.19929106492E-01 0.  0.
         14    1    1    2    0    0 -0.19714628998E-01 -0.55729852151E-02 -0.13598986673E-01  0.24589778350E-01  0.00000000000E+00 0. -1.
     999901    1    3    3    0    0  0.63286061532E-01  0.11928858418E+00 -0.23104146643E-01  0.89060018723E+00  0.88000000000E+00 0. -1.
        -11    1    4    4    0    0 -0.67577323712E-02 -0.41425746199E-01  0.16764601576E-01  0.45200358206E-01  0.51100000000E-03 0. -1.
         11    1    4    4    0    0 -0.36813700163E-01 -0.72289852770E-01  0.19938531741E-01  0.83539676215E-01  0.51100000000E-03 0.  1.
</event>
<event>
 8    1  0.1022673E+005  0.1043930E+01  0.7957747E-01            NaN
         13   -1    0    0    0    0  0.00000000000E+00  0.00000000000E+00  0.74505805969E-08  0.10566000000E+00  0.10566000000E+00 0. -1.
     999900   -1    0    0    0    0 -0.00000000000E+00 -0.00000000000E+00 -0.74505805969E-08  0.93827000000E+00  0.93827000000E+00 0.  1.
     999902    2    1    2    0    0  0.69688277156E-02  0.12293746593E-01  0.18096889035E-01  0.10209692039E+01  0.10207109861E+01 0.  0.
     999903    2    3    3    0    0  0.89044232478E-01  0.80367459630E-01 -0.51495904068E-01  0.13180467507E+00  0.18243912106E-01 0.  0.
         14    1    1    2    0    0 -0.69688277156E-02 -0.12293746593E-01 -0.18096889035E-01  0.22960796105E-01  0.00000000000E+00 0.  1.
     999901    1    3    3    0    0 -0.82075404762E-01 -0.68073713037E-01  0.69592793103E-01  0.88916452883E+00  0.88000000000E+00 0. -1.
        -11    1    4    4    0    0  0.46138515433E-01  0.35351000160E-01 -0.33380216899E-01  0.67029514543E-01  0.51100000000E-03 0. -1.
         11    1    4    4    0    0  0.42905717045E-01  0.45016459471E-01 -0.18115687169E-01  0.64775160525E-01  0.51100000000E-03 0.  1.
</event>
<event>
 8    1  0.1022673E+005  0.1043930E+01  0.7957747E-01            NaN
         13   -1    0    0    0    0  0.00000000000E+00  0.00000000000E+00  0.74505805969E-08  0.10566000000E+00  0.10566000000E+00 0.  1.
     999900   -1    0    0    0    0 -0.00000000000E+00 -0.00000000000E+00 -0.74505805969E-08  0.93827000000E+00  0.93827000000E+00 0.  1.
     999902    2    1    2    0    0  0.19688167533E-01 -0.31136971982E-02  0.12815963445E-01  0.10202325746E+01  0.10199573218E+01 0.  0.
     999903    2    3    3    0    0 -0.87082392392E-01 -0.21889990142E-01 -0.89215784213E-01  0.12772880477E+00  0.17107795977E-01 0.  0.
         14    1    1    2    0    0 -0.19688167533E-01  0.31136971982E-02 -0.12815963445E-01  0.23697425389E-01  0.00000000000E+00 0.  1.
     999901    1    3    3    0    0  0.10677055992E+00  0.18776292944E-01  0.10203174766E+00  0.89250376984E+00  0.88000000000E+00 0. -1.
        -11    1    4    4    0    0 -0.72704583860E-01 -0.11384324096E-01 -0.71908671698E-01  0.10289158146E+00  0.51100000000E-03 0. -1.
         11    1    4    4    0    0 -0.14377808532E-01 -0.10505666046E-01 -0.17307112515E-01  0.24837223312E-01  0.51100000000E-03 0.  1.
</event>
<event>
 8    1  0.1022673E+005  0.1043930E+01  0.7957747E-01            NaN
         13   -1    0    0    0    0  0.00000000000E+00  0.00000000000E+00  0.74505805969E-08  0.10566000000E+00  0.10566000000E+00 0.  1.
     999900   -1    0    0    0    0 -0.00000000000E+00 -0.00000000000E+00 -0.74505805969E-08  0.93827000000E+00  0.93827000000E+00 0.  1.
     999902    2    1    2    0    0 -0.23842194013E-03 -0.23489600892E-01 -0.36082153347E-02  0.10201636916E+01  0.10198868174E+01 0.  0.
     999903    2    3    3    0    0 -0.79646226638E-01  0.86022596127E-01 -0.49061759931E-01  0.12866801276E+00  0.20124431888E-01 0.  0.
         14    1    1    2    0    0  0.23842194013E-03  0.23489600892E-01  0.36082153347E-02  0.23766308358E-01  0.00000000000E+00 0.  1.
     999901    1    3    3    0    0  0.79407804698E-01 -0.10951219702E+00  0.45453544596E-01  0.89149567888E+00  0.88000000000E+00 0.  1.
        -11    1    4    4    0    0 -0.65871003913E-01  0.58388181054E-01 -0.34845067185E-01  0.94671055088E-01  0.51100000000E-03 0.  1.
         11    1    4    4    0    0 -0.13775222724E-01  0.27634415072E-01 -0.14216692746E-01  0.33996957675E-01  0.51100000000E-03 0. -1.
</event>
<event>
 8    1  0.1022673E+005  0.1043930E+01  0.7957747E-01            NaN
         13   -1    0    0    0    0  0.00000000000E+00  0.00000000000E+00  0.74505805969E-08  0.10566000000E+00  0.10566000000E+00 0. -1.
     999900   -1    0    0    0    0 -0.00000000000E+00 -0.00000000000E+00 -0.74505805969E-08  0.93827000000E+00  0.93827000000E+00 0. -1.
     999902    2    1    2    0    0  0.14185142254E-01  0.17934901654E-01 -0.10012610900E-01  0.10189674013E+01  0.10186615893E+01 0.  0.
     999903    2    3    3    0    0 -0.90485251046E-01 -0.80242997847E-01  0.30666287910E-01  0.12641512606E+00  0.20343144340E-01 0.  0.
         14    1    1    2    0    0 -0.14185142254E-01 -0.17934901654E-01  0.10012610900E-01  0.24962598726E-01  0.00000000000E+00 0. -1.
     999901    1    3    3    0    0  0.10467039330E+00  0.98177899502E-01 -0.40678898810E-01  0.89255227522E+00  0.88000000000E+00 0. -1.
        -11    1    4    4    0    0 -0.24281071446E-01 -0.34306934124E-01  0.11710949518E-01  0.43634202401E-01  0.51100000000E-03 0.  1.
         11    1    4    4    0    0 -0.66204179601E-01 -0.45936063723E-01  0.18955338392E-01  0.82780923657E-01  0.51100000000E-03 0. -1.
</event>
<event>
 8    1  0.1022673E+005  0.1043930E+01  0.7957747E-01            NaN
         13   -1    0    0    0    0  0.00000000000E+00  0.00000000000E+00  0.74505805969E-08  0.10566000000E+00  0.10566000000E+00 0.  1.
     999900   -1    0    0    0    0 -0.00000000000E+00 -0.00000000000E+00 -0.74505805969E-08  0.93827000000E+00  0.93827000000E+00 0.  1.
     999902    2    1    2    0    0 -0.89680592246E-02 -0.10967227822E-01 -0.13199443037E-01  0.10245668528E+01  0.10243838658E+01 0.  0.
     999903    2    3    3    0    0  0.77084876209E-01 -0.47224757252E-01  0.95395977377E-01  0.13298809495E+00  0.20326954081E-01 0.  0.
         14    1    1    2    0    0  0.89680592246E-02  0.10967227822E-01  0.13199443037E-01  0.19363147183E-01  0.00000000000E+00 0.  1.
     999901    1    3    3    0    0 -0.86052935434E-01  0.36257529430E-01 -0.10859542041E+00  0.89157875786E+00  0.88000000000E+00 0.  1.
        -11    1    4    4    0    0  0.36744054569E-01 -0.11759687666E-01  0.45701116021E-01  0.59810274425E-01  0.51100000000E-03 0. -1.
         11    1    4    4    0    0  0.40340821640E-01 -0.35465069585E-01  0.49694861356E-01  0.73177820530E-01  0.51100000000E-03 0.  1.
</event>
<event>
 8    1  0.1022673E+005  0.1043930E+01  0.7957747E-01            NaN
         13   -1    0    0    0    0  0.00000000000E+00  0.00000000000E+00  0.74505805969E-08  0.10566000000E+00  0.10566000000E+00 0.  1.
     999900   -1    0    0    0    0 -0.00000000000E+00 -0.00000000000E+00 -0.74505805969E-08  0.93827000000E+00  0.93827000000E+00 0.  1.
     999902    2    1    2    0    0 -0.16026644590E-01 -0.14037532435E-01 -0.10074060893E-01  0.10203632362E+01  0.10200910456E+01 0.  0.
     999903    2    3    3    0    0  0.10872531195E+00  0.54428695079E-01 -0.35408534277E-01  0.12857149452E+00  0.22207849889E-01 0.  0.
         14    1    1    2    0    0  0.16026644590E-01  0.14037532435E-01  0.10074060893E-01  0.23566763812E-01  0.00000000000E+00 0.  1.
     999901    1    3    3    0    0 -0.12475195654E+00 -0.68466227514E-01  0.25334473384E-01  0.89179174167E+00  0.88000000000E+00 0. -1.
        -11    1    4    4    0    0  0.69950727294E-01  0.32458556868E-01 -0.33166067930E-01  0.83945883436E-01  0.51100000000E-03 0.  1.
         11    1    4    4    0    0  0.38774584654E-01  0.21970138211E-01 -0.22424663469E-02  0.44625611081E-01  0.51100000000E-03 0. -1.
</event>
<event>
 8    1  0.1022673E+005  0.1043930E+01  0.7957747E-01            NaN
         13   -1    0    0    0    0  0.00000000000E+00  0.00000000000E+00  0.74505805969E-08  0.10566000000E+00  0.10566000000E+00 0.  1.
     999900   -1    0    0    0    0 -0.00000000000E+00 -0.00000000000E+00 -0.74505805969E-08  0.93827000000E+00  0.93827000000E+00 0. -1.
     999902    2    1    2    0    0  0.11992298385E-01 -0.33573902132E-03  0.19553070257E-01  0.10209898497E+01  0.10207321013E+01 0.  0.
     999903    2    3    3    0    0  0.62982136113E-01 -0.11310194749E+00  0.19088186406E-01  0.13232996115E+00  0.19699232504E-01 0.  0.
         14    1    1    2    0    0 -0.11992298385E-01  0.33573902132E-03 -0.19553070257E-01  0.22940150342E-01  0.00000000000E+00 0. -1.
     999901    1    3    3    0    0 -0.50989837727E-01  0.11276620847E+00  0.46488385056E-03  0.88865988851E+00  0.88000000000E+00 0.  1.
        -11    1    4    4    0    0  0.58626574488E-01 -0.10035210158E+00  0.22592774646E-01  0.11839896163E+00  0.51100000000E-03 0. -1.
         11    1    4    4    0    0  0.43555616254E-02 -0.12749845911E-01 -0.35045882400E-02  0.13930999518E-01  0.51100000000E-03 0.  1.
</event>
<event>
 8    1  0.1022673E+005  0.1043930E+01  0.7957747E-01            NaN
         13   -1    0    0    0    0  0.00000000000E+00  0.00000000000E+00  0.74505805969E-08  0.10566000000E+00  0.10566000000E+00 0. -1.
     999900   -1    0    0    0    0 -0.00000000000E+00 -0.00000000000E+00 -0.74505805969E-08  0.93827000000E+00  0.93827000000E+00 0.  1.
     999902    2    1    2    0    0  0.14772675078E-01 -0.20420651620E-01 -0.53794038697E-03  0.10187203923E+01  0.10184084217E+01 0.  0.
     999903    2    3    3    0    0  0.89555610538E-01  0.81081694898E-01 -0.39373244169E-01  0.12888704013E+00  0.21614072494E-01 0.  0.
         14    1    1    2    0    0 -0.14772675078E-01  0.20420651620E-01  0.53794038697E-03  0.25209607720E-01  0.00000000000E+00 0. -1.
     999901    1    3    3    0    0 -0.74782935461E-01 -0.10150234652E+00  0.38835303782E-01  0.88983335215E+00  0.88000000000E+00 0. -1.
        -11    1    4    4    0    0  0.21170064410E-01  0.32567260159E-01 -0.13819887770E-01  0.41231644163E-01  0.51100000000E-03 0. -1.
         11    1    4    4    0    0  0.68385546128E-01  0.48514434739E-01 -0.25553356399E-01  0.87655395964E-01  0.51100000000E-03 0.  1.
</event>
<event>
 8    1  0.1022673E+005  0.1043930E+01  0.7957747E-01            NaN
         13   -1    0    0    0    0  0.00000000000E+00  0.00000000000E+00  0.74505805969E-08  0.10566000000E+00  0.10566000000E+00 0.  1.
     999900   -1    0    0    0    0 -0.00000000000E+00 -0.00000000000E+00 -0.74505805969E-08  0.93827000000E+00  0.93827000000E+00 0.  1.
     999902    2    1    2    0    0 -0.35129281697E-02  0.22004467109E-01 -0.96371252133E-02  0.10196522032E+01  0.10193631365E+01 0.  0.
     999903    2    3    3    0    0 -0.39557237909E-01  0.12183882811E+00 -0.34055799614E-01  0.13293783903E+00  0.10158565402E-01 0.  0.
         14    1    1    2    0    0  0.35129281697E-02 -0.22004467109E-01  0.96371252133E-02  0.24277796841E-01  0.00000000000E+00 0.  1.
     999901    1    3    3    0    0  0.36044309739E-01 -0.99834361003E-01  0.24418674401E-01  0.88671436413E+00  0.88000000000E+00 0. -1.
        -11    1    4    4    0    0 -0.30527250299E-01  0.96643520119E-01 -0.31044297356E-01  0.10599949298E+00  0.51100000000E-03 0.  1.
         11    1    4    4    0    0 -0.90299876101E-02  0.25195307992E-01 -0.30115022577E-02  0.26938346049E-01  0.51100000000E-03 0. -1.
</event>
<event>
 8    1  0.1022673E+005  0.1043930E+01  0.7957747E-01            NaN
         13   -1    0    0    0    0  0.00000000000E+00  0.00000000000E+00  0.74505805969E-08  0.10566000000E+00  0.10566000000E+00 0.  1.
     999900   -1    0    0    0    0 -0.00000000000E+00 -0.00000000000E+00 -0.74505805969E-08  0.93827000000E+00  0.93827000000E+00 0. -1.
     999902    2    1    2    0    0 -0.97039670009E-02  0.14484402715E-01  0.16006313407E-01  0.10202621533E+01  0.10199875953E+01 0.  0.
     999903    2    3    3    0    0 -0.11640121291E+00  0.34701695576E-01 -0.46362315589E-01  0.13139608518E+00  0.19026740368E-01 0.  0.
         14    1    1    2    0    0  0.97039670009E-02 -0.14484402715E-01 -0.16006313407E-01  0.23667846679E-01  0.00000000000E+00 0. -1.
     999901    1    3    3    0    0  0.10669724591E+00 -0.20217292862E-01  0.62368628996E-01  0.88886606814E+00  0.88000000000E+00 0.  1.
        -11    1    4    4    0    0 -0.35651672150E-01  0.40786299191E-02 -0.20075870144E-01  0.41121510577E-01  0.51100000000E-03 0.  1.
         11    1    4    4    0    0 -0.80749540764E-01  0.30623065657E-01 -0.26286445445E-01  0.90274574599E-01  0.51100000000E-03 0. -1.
</event>
<event>
 8    1  0.1022673E+005  0.1043930E+01  0.7957747E-01            NaN
         13   -1    0    0    0    0  0.00000000000E+00  0.00000000000E+00  0.74505805969E-08  0.10566000000E+00  0.10566000000E+00 0. -1.
     999900   -1    0    0    0    0 -0.00000000000E+00 -0.00000000000E+00 -0.74505805969E-08  0.93827000000E+00  0.93827000000E+00 0. -1.
     999902    2    1    2    0    0 -0.12812471310E-01 -0.10321113566E-01  0.17573882640E-01  0.10198566505E+01  0.10195724895E+01 0.  0.
     999903    2    3    3    0    0 -0.52556828713E-01 -0.23736959967E-01  0.11835219965E+00  0.13311211677E+00  0.19645074622E-01 0.  0.
         14    1    1    2    0    0  0.12812471310E-01  0.10321113566E-01 -0.17573882640E-01  0.24073349525E-01  0.00000000000E+00 0. -1.
     999901    1    3    3    0    0  0.39744357403E-01  0.13415846401E-01 -0.10077831701E+00  0.88674453371E+00  0.88000000000E+00 0.  1.
        -11    1    4    4    0    0 -0.63990072785E-02 -0.38546910589E-02  0.34894386177E-01  0.35688727142E-01  0.51100000000E-03 0.  1.
         11    1    4    4    0    0 -0.46157821435E-01 -0.19882268908E-01  0.83457813468E-01  0.97423389627E-01  0.51100000000E-03 0. -1.
</event>
<event>
 8    1  0.1022673E+005  0.1043930E+01  0.7957747E-01            NaN
         13   -1    0    0    0    0  0.00000000000E+00  0.00000000000E+00  0.74505805969E-08  0.10566000000E+00  0.10566000000E+00 0.  1.
     999900   -1    0    0    0    0 -0.00000000000E+00 -0.00000000000E+00 -0.74505805969E-08  0.93827000000E+00  0.93827000000E+00 0.  1.
     999902    2    1    2    0    0  0.35972858071E-02 -0.14478880588E-01 -0.18418862298E-01  0.10202269847E+01  0.10199516005E+01 0.  0.
     999903    2    3    3    0    0 -0.54337674413E-01 -0.66592692051E-01 -0.99441430977E-01  0.13307594588E+00  0.20819214236E-01 0.  0.
         14    1    1    2    0    0 -0.35972858071E-02  0.14478880588E-01  0.18418862298E-01  0.23703015349E-01  0.00000000000E+00 0.  1.
     999901    1    3    3    0    0  0.57934960220E-01  0.52113811463E-01  0.81022568679E-01  0.88715103877E+00  0.88000000000E+00 0. -1.
        -11    1    4    4    0    0 -0.17375004709E-01 -0.31356172735E-01 -0.29240143307E-01  0.46263889361E-01  0.51100000000E-03 0. -1.
         11    1    4    4    0    0 -0.36962669704E-01 -0.35236519316E-01 -0.70201287670E-01  0.86812056517E-01  0.51100000000E-03 0.  1.
</event>
<event>
 8    1  0.1022673E+005  0.1043930E+01  0.7957747E-01            NaN
         13   -1    0    0    0    0  0.00000000000E+00  0.00000000000E+00  0.74505805969E-08  0.10566000000E+00  0.10566000000E+00 0. -1.
     999900   -1    0    0    0    0 -0.00000000000E+00 -0.00000000000E+00 -0.74505805969E-08  0.93827000000E+00  0.93827000000E+00 0. -1.
     999902    2    1    2    0    0 -0.39867973770E-02  0.22133744074E-01 -0.66613583449E-02  0.10204742784E+01  0.10202046765E+01 0.  0.
     999903    2    3    3    0    0 -0.11184481076E+00 -0.14838829134E-01  0.61525747732E-01  0.13050247906E+00  0.22716224633E-01 0.  0.
         14    1    1    2    0    0  0.39867973770E-02 -0.22133744074E-01  0.66613583449E-02  0.23455721585E-01  0.00000000000E+00 0. -1.
     999901    1    3    3    0    0  0.10785801338E+00  0.36972573209E-01 -0.68187106077E-01  0.88997179936E+00  0.88000000000E+00 0.  1.
        -11    1    4    4    0    0 -0.76581875101E-01 -0.20615347483E-01  0.44049740007E-01  0.90721644944E-01  0.51100000000E-03 0. -1.
         11    1    4    4    0    0 -0.35262935659E-01  0.57765183484E-02  0.17476007725E-01  0.39780834111E-01  0.51100000000E-03 0.  1.
</event>
<event>
 8    1  0.1022673E+005  0.1043930E+01  0.7957747E-01            NaN
         13   -1    0    0    0    0  0.00000000000E+00  0.00000000000E+00  0.74505805969E-08  0.10566000000E+00  0.10566000000E+00 0. -1.
     999900   -1    0    0    0    0 -0.00000000000E+00 -0.00000000000E+00 -0.74505805969E-08  0.93827000000E+00  0.93827000000E+00 0.  1.
     999902    2    1    2    0    0 -0.82723305610E-02 -0.22045115180E-01  0.56591691662E-02  0.10197133786E+01  0.10194257843E+01 0.  0.
     999903    2    3    3    0    0 -0.69219632355E-01 -0.13468951995E-01  0.10924822315E+00  0.13150235848E+00  0.19619527319E-01 0.  0.
         14    1    1    2    0    0  0.82723305610E-02  0.22045115180E-01 -0.56591691662E-02  0.24216621396E-01  0.00000000000E+00 0.  1.
     999901    1    3    3    0    0  0.60947301794E-01 -0.85761631845E-02 -0.10358905398E+00  0.88821102013E+00  0.88000000000E+00 0.  1.
        -11    1    4    4    0    0 -0.34751456555E-01 -0.16693658888E-01  0.56130709004E-01  0.68097427221E-01  0.51100000000E-03 0. -1.
         11    1    4    4    0    0 -0.34468175799E-01  0.32247068925E-02  0.53117514145E-01  0.63404931255E-01  0.51100000000E-03 0.  1.
</event>
<event>
 8    1  0.1022673E+005  0.1043930E+01  0.7957747E-01            NaN
         13   -1    0    0    0    0  0.00000000000E+00  0.00000000000E+00  0.74505805969E-08  0.10566000000E+00  0.10566000000E+00 0. -1.
     999900   -1    0    0    0    0 -0.00000000000E+00 -0.00000000000E+00 -0.74505805969E-08  0.93827000000E+00  0.93827000000E+00 0. -1.
     999902    2    1    2    0    0  0.24905030110E-01  0.10023258895E-01 -0.10243341347E-01  0.10151958342E+01  0.10147891059E+01 0.  0.
     999903    2    3    3    0    0 -0.48272181524E-01 -0.11185530680E+00  0.59427085050E-02  0.12364029620E+00  0.20243366631E-01 0.  0.
         14    1    1    2    0    0 -0.24905030110E-01 -0.10023258895E-01  0.10243341347E-01  0.28734165824E-01  0.00000000000E+00 0.  1.
     999901    1    3    3    0    0  0.73177211635E-01  0.12187856569E+00 -0.16186049852E-01  0.89155553797E+00  0.88000000000E+00 0.  1.
        -11    1    4    4    0    0 -0.10005237722E-01 -0.47987307139E-01  0.34256921234E-02  0.49141458219E-01  0.51100000000E-03 0. -1.
         11    1    4    4    0    0 -0.38266943803E-01 -0.63867999660E-01  0.25170163817E-02  0.74498837985E-01  0.51100000000E-03 0.  1.
</event>
<event>
 8    1  0.1022673E+005  0.1043930E+01  0.7957747E-01            NaN
         13   -1    0    0    0    0  0.00000000000E+00  0.00000000000E+00  0.74505805969E-08  0.10566000000E+00  0.10566000000E+00 0. -1.
     999900   -1    0    0    0    0 -0.00000000000E+00 -0.00000000000E+00 -0.74505805969E-08  0.93827000000E+00  0.93827000000E+00 0. -1.
     999902    2    1    2    0    0  0.17495524564E-01  0.55020891608E-02  0.11269736276E-01  0.10224038921E+01  0.10221772573E+01 0.  0.
     999903    2    3    3    0    0 -0.91409333494E-01 -0.11091487401E-01  0.92195173070E-01  0.13185095084E+00  0.20150333944E-01 0.  0.
         14    1    1    2    0    0 -0.17495524564E-01 -0.55020891608E-02 -0.11269736276E-01  0.21526107884E-01  0.00000000000E+00 0. -1.
     999901    1    3    3    0    0  0.10890485806E+00  0.16593576562E-01 -0.80925436793E-01  0.89055294127E+00  0.88000000000E+00 0. -1.
        -11    1    4    4    0    0 -0.25796008652E-01  0.57903412922E-02  0.23729837096E-01  0.35529261241E-01  0.51100000000E-03 0. -1.
         11    1    4    4    0    0 -0.65613324841E-01 -0.16881828693E-01  0.68465335973E-01  0.96321689601E-01  0.51100000000E-03 0.  1.
</event>
<event>
 8    1  0.1022673E+005  0.1043930E+01  0.7957747E-01            NaN
         13   -1    0    0    0    0  0.00000000000E+00  0.00000000000E+00  0.74505805969E-08  0.10566000000E+00  0.10566000000E+00 0. -1.
     999900   -1    0    0    0    0 -0.00000000000E+00 -0.00000000000E+00 -0.74505805969E-08  0.93827000000E+00  0.93827000000E+00 0.  1.
     999902    2    1    2    0    0 -0.40594750513E-02  0.11244137819E-01  0.10307489991E-01  0.10281453770E+01  0.10280242030E+01 0.  0.
     999903    2    3    3    0    0  0.27926415994E-01 -0.12825927853E+00  0.31124963719E-01  0.13633953065E+00  0.19732638201E-01 0.  0.
         14    1    1    2    0    0  0.40594750513E-02 -0.11244137819E-01 -0.10307489991E-01  0.15784622989E-01  0.00000000000E+00 0. -1.
     999901    1    3    3    0    0 -0.31985891045E-01  0.13950341635E+00 -0.20817473728E-01  0.89180584637E+00  0.88000000000E+00 0. -1.
        -11    1    4    4    0    0  0.15609175412E-01 -0.80416272055E-01  0.28957496112E-01  0.86886252482E-01  0.51100000000E-03 0.  1.
         11    1    4    4    0    0  0.12317240582E-01 -0.47843006477E-01  0.21674676062E-02  0.49453278164E-01  0.51100000000E-03 0. -1.
</event>
<event>
 8    1  0.1022673E+005  0.1043930E+01  0.7957747E-01            NaN
         13   -1    0    0    0    0  0.00000000000E+00  0.00000000000E+00  0.74505805969E-08  0.10566000000E+00  0.10566000000E+00 0. -1.
     999900   -1    0    0    0    0 -0.00000000000E+00 -0.00000000000E+00 -0.74505805969E-08  0.93827000000E+00  0.93827000000E+00 0.  1.
     999902    2    1    2    0    0 -0.11193734213E-01 -0.17196252201E-01  0.12797588407E-01  0.10197475881E+01  0.10194608155E+01 0.  0.
     999903    2    3    3    0    0 -0.97666223739E-02  0.72206060058E-01 -0.10281168728E+00  0.12769360169E+00  0.20647296406E-01 0.  0.
         14    1    1    2    0    0  0.11193734213E-01  0.17196252201E-01 -0.12797588407E-01  0.24182411882E-01  0.00000000000E+00 0. -1.
     999901    1    3    3    0    0 -0.14271118395E-02 -0.89402312259E-01  0.11560927568E+00  0.89205398643E+00  0.88000000000E+00 0. -1.
        -11    1    4    4    0    0  0.46793778195E-02  0.31658322355E-01 -0.52417251701E-01  0.61416409436E-01  0.51100000000E-03 0.  1.
         11    1    4    4    0    0 -0.14446000193E-01  0.40547737704E-01 -0.50394435577E-01  0.66277192250E-01  0.51100000000E-03 0. -1.
</event>
<event>
 8    1  0.1022673E+005  0.1043930E+01  0.7957747E-01            NaN
         13   -1    0    0    0    0  0.00000000000E+00  0.00000000000E+00  0.74505805969E-08  0.10566000000E+00  0.10566000000E+00 0.  1.
     999900   -1    0    0    0    0 -0.00000000000E+00 -0.00000000000E+00 -0.74505805969E-08  0.93827000000E+00  0.93827000000E+00 0. -1.
     999902    2    1    2    0    0  0.63978319106E-02  0.15722275061E-01  0.16523428966E-01  0.10202414819E+01  0.10199664384E+01 0.  0.
     999903    2    3    3    0    0  0.23840445151E-01  0.27362731345E-01 -0.12232277304E+00  0.12910848799E+00  0.19724476539E-01 0.  0.
         14    1    1    2    0    0 -0.63978319106E-02 -0.15722275061E-01 -0.16523428966E-01  0.23688518126E-01  0.00000000000E+00 0. -1.
     999901    1    3    3    0    0 -0.17442613240E-01 -0.11640456284E-01  0.13884620201E+00  0.89113299389E+00  0.88000000000E+00 0.  1.
        -11    1    4    4    0    0  0.47494397146E-02  0.19725447916E-01 -0.51348520270E-01  0.55213966783E-01  0.51100000000E-03 0.  1.
         11    1    4    4    0    0  0.19091005436E-01  0.76372834285E-02 -0.70974252771E-01  0.73894521205E-01  0.51100000000E-03 0. -1.
</event>
<event>
 8    1  0.1022673E+005  0.1043930E+01  0.7957747E-01            NaN
         13   -1    0    0    0    0  0.00000000000E+00  0.00000000000E+00  0.74505805969E-08  0.10566000000E+00  0.10566000000E+00 0.  1.
     999900   -1    0    0    0    0 -0.00000000000E+00 -0.00000000000E+00 -0.74505805969E-08  0.93827000000E+00  0.93827000000E+00 0. -1.
     999902    2    1    2    0    0 -0.19295362192E-01 -0.13289516265E-01 -0.32200626012E-02  0.10202806650E+01  0.10200065413E+01 0.  0.
     999903    2    3    3    0    0 -0.13737340077E-01 -0.80054432324E-01  0.10145507002E+00  0.13154823671E+00  0.20356343038E-01 0.  0.
         14    1    1    2    0    0  0.19295362192E-01  0.13289516265E-01  0.32200626012E-02  0.23649335040E-01  0.00000000000E+00 0.  1.
     999901    1    3    3    0    0 -0.55580221147E-02  0.66764916060E-01 -0.10467513263E+00  0.88873242825E+00  0.88000000000E+00 0. -1.
        -11    1    4    4    0    0  0.36874447574E-02 -0.30988189253E-01  0.31530405636E-01  0.44365445141E-01  0.51100000000E-03 0. -1.
         11    1    4    4    0    0 -0.17424784834E-01 -0.49066243072E-01  0.69924664388E-01  0.87182791573E-01  0.51100000000E-03 0.  1.
</event>
<event>
 8    1  0.1022673E+005  0.1043930E+01  0.7957747E-01            NaN
         13   -1    0    0    0    0  0.00000000000E+00  0.00000000000E+00  0.74505805969E-08  0.10566000000E+00  0.10566000000E+00 0.  1.
     999900   -1    0    0    0    0 -0.00000000000E+00 -0.00000000000E+00 -0.74505805969E-08  0.93827000000E+00  0.93827000000E+00 0.  1.
     999902    2    1    2    0    0 -0.12087358341E-01  0.10679027073E-01 -0.17607625682E-01  0.10200516765E+01  0.10197721551E+01 0.  0.
     999903    2    3    3    0    0 -0.76927446814E-02 -0.11694699326E+00 -0.52921517356E-01  0.13013326191E+00  0.19954981904E-01 0.  0.
         14    1    1    2    0    0  0.12087358341E-01 -0.10679027073E-01  0.17607625682E-01  0.23878323497E-01  0.00000000000E+00 0.  1.
     999901    1    3    3    0    0 -0.43946136599E-02  0.12762602033E+00  0.35313891675E-01  0.88991841460E+00  0.88000000000E+00 0.  1.
        -11    1    4    4    0    0 -0.66796000767E-02 -0.67846104443E-01 -0.20156921385E-01  0.71093414224E-01  0.51100000000E-03 0.  1.
         11    1    4    4    0    0 -0.10131446047E-02 -0.49100888812E-01 -0.32764595971E-01  0.59039847682E-01  0.51100000000E-03 0. -1.
</event>
<event>
 8    1  0.1022673E+005  0.1043930E+01  0.7957747E-01            NaN
         13   -1    0    0    0    0  0.00000000000E+00  0.00000000000E+00  0.74505805969E-08  0.10566000000E+00  0.10566000000E+00 0.  1.
     999900   -1    0    0    0    0 -0.00000000000E+00 -0.00000000000E+00 -0.74505805969E-08  0.93827000000E+00  0.93827000000E+00 0.  1.
     999902    2    1    2    0    0 -0.37056560966E-02 -0.22868876954E-01 -0.49046512696E-02  0.10202493534E+01  0.10199744948E+01 0.  0.
     999903    2    3    3    0    0  0.12263921667E-01 -0.13137279865E+00 -0.13524788211E-01  0.13339962812E+00  0.14259203506E-01 0.  0.
         14    1    1    2    0    0  0.37056560966E-02  0.22868876954E-01  0.49046512696E-02  0.23680646619E-01  0.00000000000E+00 0. -1.
     999901    1    3    3    0    0 -0.15969577764E-01  0.10850392170E+00  0.86201369419E-02  0.88684972526E+00  0.88000000000E+00 0.  1.
        -11    1    4    4    0    0  0.79763046665E-02 -0.26191570786E-01 -0.11924867312E-02  0.27409906275E-01  0.51100000000E-03 0.  1.
         11    1    4    4    0    0  0.42876170005E-02 -0.10518122787E+00 -0.12332301480E-01  0.10598972184E+00  0.51100000000E-03 0. -1.
</event>
<event>
 8    1  0.1022673E+005  0.1043930E+01  0.7957747E-01            NaN
         13   -1    0    0    0    0  0.00000000000E+00  0.00000000000E+00  0.74505805969E-08  0.10566000000E+00  0.10566000000E+00 0. -1.
     999900   -1    0    0    0    0 -0.00000000000E+00 -0.00000000000E+00 -0.74505805969E-08  0.93827000000E+00  0.93827000000E+00 0.  1.
     999902    2    1    2    0    0 -0.78389809729E-02  0.12619448894E-01 -0.14397037771E-01  0.10232424480E+01  0.10230332998E+01 0.  0.
     999903    2    3    3    0    0  0.33089465956E-03  0.10312574169E+00 -0.85989097160E-01  0.13567072754E+00  0.19426615531E-01 0.  0.
         14    1    1    2    0    0  0.78389809729E-02 -0.12619448894E-01  0.14397037771E-01  0.20687552046E-01  0.00000000000E+00 0. -1.
     999901    1    3    3    0    0 -0.81698756325E-02 -0.90506292798E-01  0.71592059389E-01  0.88757172041E+00  0.88000000000E+00 0. -1.
        -11    1    4    4    0    0 -0.94975958443E-02  0.50359163147E-01 -0.43109562166E-01  0.66969732797E-01  0.51100000000E-03 0.  1.
         11    1    4    4    0    0  0.98284905039E-02  0.52766578545E-01 -0.42879534994E-01  0.68700994747E-01  0.51100000000E-03 0. -1.
</event>
<event>
 8    1  0.1022673E+005  0.1043930E+01  0.7957747E-01            NaN
         13   -1    0    0    0    0  0.00000000000E+00  0.00000000000E+00  0.74505805969E-08  0.10566000000E+00  0.10566000000E+00 0. -1.
     999900   -1    0    0    0    0 -0.00000000000E+00 -0.00000000000E+00 -0.74505805969E-08  0.93827000000E+00  0.93827000000E+00 0.  1.
     999902    2    1    2    0    0  0.14346729404E-01  0.13302476841E-01 -0.17540856254E-02  0.10242866461E+01  0.10240982727E+01 0.  0.
     999903    2    3    3    0    0  0.19379432407E-01  0.31895307875E-01  0.12778837704E+00  0.13459441221E+00  0.19822043979E-01 0.  0.
         14    1    1    2    0    0 -0.14346729404E-01 -0.13302476841E-01  0.17540856254E-02  0.19643353865E-01  0.00000000000E+00 0.  1.
     999901    1    3    3    0    0 -0.50327030031E-02 -0.18592831034E-01 -0.12954246267E+00  0.88969223392E+00  0.88000000000E+00 0.  1.
        -11    1    4    4    0    0  0.88073448061E-02  0.17965972578E-01  0.36337052162E-01  0.41484792081E-01  0.51100000000E-03 0. -1.
         11    1    4    4    0    0  0.10572087601E-01  0.13929335297E-01  0.91451324879E-01  0.93109620133E-01  0.51100000000E-03 0.  1.
</event>
<event>
 8    1  0.1022673E+005  0.1043930E+01  0.7957747E-01            NaN
         13   -1    0    0    0    0  0.00000000000E+00  0.00000000000E+00  0.74505805969E-08  0.10566000000E+00  0.10566000000E+00 0.  1.
     999900   -1    0    0    0    0 -0.00000000000E+00 -0.00000000000E+00 -0.74505805969E-08  0.93827000000E+00  0.93827000000E+00 0. -1.
     999902    2    1    2    0    0  0.78457166881E-02 -0.52535347111E-02 -0.21670921650E-01  0.10202913930E+01  0.10200175208E+01 0.  0.
     999903    2    3    3    0    0  0.10618122825E+00 -0.37195668391E-01  0.62444930190E-01  0.13025451212E+00  0.20221217578E-01 0.  0.
         14    1    1    2    0    0 -0.78457166881E-02  0.52535347111E-02  0.21670921650E-01  0.23638607034E-01  0.00000000000E+00 0.  1.
     999901    1    3    3    0    0 -0.98335511565E-01  0.31942133680E-01 -0.84115851840E-01  0.89003688085E+00  0.88000000000E+00 0. -1.
        -11    1    4    4    0    0  0.78486349031E-01 -0.27756105286E-01  0.35602689149E-01  0.90544579962E-01  0.51100000000E-03 0. -1.
         11    1    4    4    0    0  0.27694879222E-01 -0.94395631052E-02  0.26842241041E-01  0.39709932156E-01  0.51100000000E-03 0.  1.
</event>
<event>
 8    1  0.1022673E+005  0.1043930E+01  0.7957747E-01            NaN
         13   -1    0    0    0    0  0.00000000000E+00  0.00000000000E+00  0.74505805969E-08  0.10566000000E+00  0.10566000000E+00 0. -1.
     999900   -1    0    0    0    0 -0.00000000000E+00 -0.00000000000E+00 -0.74505805969E-08  0.93827000000E+00  0.93827000000E+00 0. -1.
     999902    2    1    2    0    0 -0.11129940312E-01  0.17263819677E-01  0.95184768147E-02  0.10212911740E+01  0.10210402273E+01 0.  0.
     999903    2    3    3    0    0 -0.10030416768E+00 -0.50422523217E-01  0.67087390516E-01  0.13233242150E+00  0.20193932578E-01 0.  0.
         14    1    1    2    0    0  0.11129940312E-01 -0.17263819677E-01 -0.95184768147E-02  0.22638825987E-01  0.00000000000E+00 0.  1.
     999901    1    3    3    0    0  0.89174227367E-01  0.67686342894E-01 -0.57568913701E-01  0.88895875251E+00  0.88000000000E+00 0. -1.
        -11    1    4    4    0    0 -0.23047240563E-01 -0.11873024980E-01  0.61441123281E-02  0.26648738376E-01  0.51100000000E-03 0.  1.
         11    1    4    4    0    0 -0.77256927116E-01 -0.38549498237E-01  0.60943278188E-01  0.10568368313E+00  0.51100000000E-03 0. -1.
</event>
<event>
 8    1  0.1022673E+005  0.1043930E+01  0.7957747E-01            NaN
         13   -1    0    0    0    0  0.00000000000E+00  0.00000000000E+00  0.74505805969E-08  0.10566000000E+00  0.10566000000E+00 0. -1.
     999900   -1    0    0    0    0 -0.00000000000E+00 -0.00000000000E+00 -0.74505805969E-08  0.93827000000E+00  0.93827000000E+00 0. -1.
     999902    2    1    2    0    0  0.13435330350E-01 -0.27403077649E-01  0.19340997200E-02  0.10133493279E+01  0.10128877938E+01 0.  0.
     999903    2    3    3    0    0  0.55971746293E-02  0.91189461980E-01 -0.77663064344E-01  0.12179936535E+00  0.21370247927E-01 0.  0.
         14    1    1    2    0    0 -0.13435330350E-01  0.27403077649E-01 -0.19340997200E-02  0.30580672130E-01  0.00000000000E+00 0.  1.
     999901    1    3    3    0    0  0.78381557204E-02 -0.11859253963E+00  0.79597164064E-01  0.89154996252E+00  0.88000000000E+00 0.  1.
        -11    1    4    4    0    0  0.13519898520E-01  0.52683857446E-01 -0.48080511704E-01  0.72597336163E-01  0.51100000000E-03 0.  1.
         11    1    4    4    0    0 -0.79227238907E-02  0.38505604534E-01 -0.29582552640E-01  0.49202029187E-01  0.51100000000E-03 0. -1.
</event>
<event>
 8    1  0.1022673E+005  0.1043930E+01  0.7957747E-01            NaN
         13   -1    0    0    0    0  0.00000000000E+00  0.00000000000E+00  0.74505805969E-08  0.10566000000E+00  0.10566000000E+00 0.  1.
     999900   -1    0    0    0    0 -0.00000000000E+00 -0.00000000000E+00 -0.74505805969E-08  0.93827000000E+00  0.93827000000E+00 0. -1.
     999902    2    1    2    0    0 -0.13578224548E-01  0.16353596234E-01  0.90149346253E-02  0.10208415324E+01  0.10205804020E+01 0.  0.
     999903    2    3    3    0    0  0.55321558229E-01  0.10085216321E+00  0.62551622993E-01  0.13249848776E+00  0.20285711502E-01 0.  0.
         14    1    1    2    0    0  0.13578224548E-01 -0.16353596234E-01 -0.90149346253E-02  0.23088467640E-01  0.00000000000E+00 0. -1.
     999901    1    3    3    0    0 -0.68899782777E-01 -0.84498566973E-01 -0.53536688368E-01  0.88834304460E+00  0.88000000000E+00 0.  1.
        -11    1    4    4    0    0  0.32122427240E-01  0.77159708717E-01  0.46684797192E-01  0.95735063539E-01  0.51100000000E-03 0. -1.
         11    1    4    4    0    0  0.23199130988E-01  0.23692454491E-01  0.15866825801E-01  0.36763424221E-01  0.51100000000E-03 0.  1.
</event>
<event>
 8    1  0.1022673E+005  0.1043930E+01  0.7957747E-01            NaN
         13   -1    0    0    0    0  0.00000000000E+00  0.00000000000E+00  0.74505805969E-08  0.10566000000E+00  0.10566000000E+00 0.  1.
     999900   -1    0    0    0    0 -0.00000000000E+00 -0.00000000000E+00 -0.74505805969E-08  0.93827000000E+00  0.93827000000E+00 0. -1.
     999902    2    1    2    0    0  0.11663390143E-01  0.28700722876E-01 -0.18543764410E-01  0.10078240813E+01  0.10071771153E+01 0.  0.
     999903    2    3    3    0    0 -0.67729301900E-01  0.91694715723E-01  0.33264543317E-01  0.12049350967E+00  0.20420009872E-01 0.  0.
         14    1    1    2    0    0 -0.11663390143E-01 -0.28700722876E-01  0.18543764410E-01  0.36105918652E-01  0.00000000000E+00 0.  1.
     999901    1    3    3    0    0  0.79392692043E-01 -0.62993992848E-01 -0.51808307726E-01  0.88733057168E+00  0.88000000000E+00 0. -1.
        -11    1    4    4    0    0 -0.23302170246E-01  0.29387569200E-01  0.12171184270E-02  0.37528160892E-01  0.51100000000E-03 0. -1.
         11    1    4    4    0    0 -0.44427131654E-01  0.62307146523E-01  0.32047424890E-01  0.82965348779E-01  0.51100000000E-03 0.  1.
</event>
<event>
 8    1  0.1022673E+005  0.1043930E+01  0.7957747E-01            NaN
         13   -1    0    0    0    0  0.00000000000E+00  0.00000000000E+00  0.74505805969E-08  0.10566000000E+00  0.10566000000E+00 0.  1.
     999900   -1    0    0    0    0 -0.00000000000E+00 -0.00000000000E+00 -0.74505805969E-08  0.93827000000E+00  0.93827000000E+00 0. -1.
     999902    2    1    2    0    0 -0.15859712387E-01  0.78377377616E-02 -0.13039760218E-01  0.10219528310E+01  0.10217164934E+01 0.  0.
     999903    2    3    3    0    0  0.79802624858E-01 -0.98821136052E-01  0.18063533476E-01  0.12982346090E+00  0.19843484940E-01 0.  0.
         14    1    1    2    0    0  0.15859712387E-01 -0.78377377616E-02  0.13039760218E-01  0.21977168988E-01  0.00000000000E+00 0.  1.
     999901    1    3    3    0    0 -0.95662337245E-01  0.10665887381E+00 -0.31103293693E-01  0.89212937011E+00  0.88000000000E+00 0. -1.
        -11    1    4    4    0    0  0.10958022855E-01 -0.14826861729E-01 -0.43050218086E-02  0.18939599452E-01  0.51100000000E-03 0. -1.
         11    1    4    4    0    0  0.68844602003E-01 -0.83994274323E-01  0.22368555284E-01  0.11088386145E+00  0.51100000000E-03 0.  1.
</event>
<event>
 8    1  0.1022673E+005  0.1043930E+01  0.7957747E-01            NaN
         13   -1    0    0    0    0  0.00000000000E+00  0.00000000000E+00  0.74505805969E-08  0.10566000000E+00  0.10566000000E+00 0. -1.
     999900   -1    0    0    0    0 -0.00000000000E+00 -0.00000000000E+00 -0.74505805969E-08  0.93827000000E+00  0.93827000000E+00 0.  1.
     999902    2    1    2    0    0  0.22177923822E-01 -0.20444945010E-02 -0.60531015211E-02  0.10208501321E+01  0.10205891984E+01 0.  0.
     999903    2    3    3    0    0 -0.66547122796E-01  0.32367973601E-01 -0.10553196692E+00  0.13014681648E+00  0.18027549181E-01 0.  0.
         14    1    1    2    0    0 -0.22177923822E-01  0.20444945010E-02  0.60531015211E-02  0.23079867869E-01  0.00000000000E+00 0. -1.
     999901    1    3    3    0    0  0.88725046618E-01 -0.34412468102E-01  0.99478865399E-01  0.89070331566E+00  0.88000000000E+00 0. -1.
        -11    1    4    4    0    0 -0.57686053239E-01  0.20249922299E-01 -0.85336936731E-01  0.10497806429E+00  0.51100000000E-03 0. -1.
         11    1    4    4    0    0 -0.88610695569E-02  0.12118051302E-01 -0.20195030189E-01  0.25168752182E-01  0.51100000000E-03 0.  1.
</event>
<event>
 8    1  0.1022673E+005  0.1043930E+01  0.7957747E-01            NaN
         13   -1    0    0    0    0  0.00000000000E+00  0.00000000000E+00  0.74505805969E-08  0.10566000000E+00  0.10566000000E+00 0.  1.
     999900   -1    0    0    0    0 -0.00000000000E+00 -0.00000000000E+00 -0.74505805969E-08  0.93827000000E+00  0.93827000000E+00 0.  1.
     999902    2    1    2    0    0 -0.16737216909E-01 -0.17258084149E-01  0.47960279038E-02  0.10194151518E+01  0.10191203432E+01 0.  0.
     999903    2    3    3    0    0 -0.10392229253E+00  0.10593864083E-01 -0.76496052237E-01  0.13094153333E+00  0.19543958192E-01 0.  0.
         14    1    1    2    0    0  0.16737216909E-01  0.17258084149E-01 -0.47960279038E-02  0.24514848195E-01  0.00000000000E+00 0.  1.
     999901    1    3    3    0    0  0.87185075622E-01 -0.27851948232E-01  0.81292080141E-01  0.88847361847E+00  0.88000000000E+00 0. -1.
        -11    1    4    4    0    0 -0.31887864824E-01  0.68496164758E-02 -0.13985443232E-01  0.35490941271E-01  0.51100000000E-03 0. -1.
         11    1    4    4    0    0 -0.72034427708E-01  0.37442476072E-02 -0.62510609005E-01  0.95450592060E-01  0.51100000000E-03 0.  1.
</event>
<event>
 8    1  0.1485384E+005  0.1043930E+01  0.7957747E-01            NaN
         13   -1    0    0    0    0  0.00000000000E+00  0.00000000000E+00  0.74505805969E-08  0.10566000000E+00  0.10566000000E+00 0. -1.
     999900   -1    0    0    0    0 -0.00000000000E+00 -0.00000000000E+00 -0.74505805969E-08  0.93827000000E+00  0.93827000000E+00 0.  1.
     999902    2    1    2    0    0 -0.22484179585E-01 -0.78400259806E-02 -0.19938450127E-03  0.10201173123E+01  0.10198393437E+01 0.  0.
     999903    2    3    3    0    0 -0.16326559233E-01  0.89684737754E-01 -0.90852927652E-01  0.13007963859E+00  0.18882510152E-01 0.  0.
         14    1    1    2    0    0  0.22484179585E-01  0.78400259806E-02  0.19938450127E-03  0.23812687651E-01  0.00000000000E+00 0.  1.
     999901    1    3    3    0    0 -0.61576203514E-02 -0.97524763735E-01  0.90653543151E-01  0.89003767376E+00  0.88000000000E+00 0. -1.
        -11    1    4    4    0    0 -0.14052942481E-01  0.30110838672E-01 -0.37075744355E-01  0.49789755356E-01  0.51100000000E-03 0. -1.
         11    1    4    4    0    0 -0.22736167523E-02  0.59573899082E-01 -0.53777183297E-01  0.80289883231E-01  0.51100000000E-03 0.  1.
</event>
<event>
 8    1  0.1022673E+005  0.1043930E+01  0.7957747E-01            NaN
         13   -1    0    0    0    0  0.00000000000E+00  0.00000000000E+00  0.74505805969E-08  0.10566000000E+00  0.10566000000E+00 0. -1.
     999900   -1    0    0    0    0 -0.00000000000E+00 -0.00000000000E+00 -0.74505805969E-08  0.93827000000E+00  0.93827000000E+00 0. -1.
     999902    2    1    2    0    0  0.20953049273E-01 -0.68752202060E-02 -0.78591556098E-02  0.10205192065E+01  0.10202506484E+01 0.  0.
     999903    2    3    3    0    0  0.50531349322E-01  0.76438693282E-01  0.88337252216E-01  0.13087330338E+00  0.30464082342E-01 0.  0.
         14    1    1    2    0    0 -0.20953049273E-01  0.68752202060E-02  0.78591556098E-02  0.23410793528E-01  0.00000000000E+00 0.  1.
     999901    1    3    3    0    0 -0.29578300049E-01 -0.83313913488E-01 -0.96196407826E-01  0.88964590309E+00  0.88000000000E+00 0.  1.
        -11    1    4    4    0    0  0.37360378337E-02  0.25590056386E-01  0.35290955730E-01  0.43755247021E-01  0.51100000000E-03 0. -1.
         11    1    4    4    0    0  0.46795311488E-01  0.50848636896E-01  0.53046296486E-01  0.87118056357E-01  0.51100000000E-03 0.  1.
</event>
<event>
 8    1  0.1159822E+005  0.1043930E+01  0.7957747E-01            NaN
         13   -1    0    0    0    0  0.00000000000E+00  0.00000000000E+00  0.74505805969E-08  0.10566000000E+00  0.10566000000E+00 0.  1.
     999900   -1    0    0    0    0 -0.00000000000E+00 -0.00000000000E+00 -0.74505805969E-08  0.93827000000E+00  0.93827000000E+00 0.  1.
     999902    2    1    2    0    0 -0.12768473578E-01  0.58898149045E-02  0.19152985533E-01  0.10201695141E+01  0.10198927771E+01 0.  0.
     999903    2    3    3    0    0  0.71586882153E-01 -0.10245725656E+00 -0.22880694060E-01  0.12852959562E+00  0.19343207384E-01 0.  0.
         14    1    1    2    0    0  0.12768473578E-01 -0.58898149045E-02 -0.19152985533E-01  0.23760485937E-01  0.00000000000E+00 0. -1.
     999901    1    3    3    0    0 -0.84355355732E-01  0.10834707146E+00  0.42033679593E-01  0.89163991844E+00  0.88000000000E+00 0. -1.
        -11    1    4    4    0    0  0.29581493773E-01 -0.41500610073E-01  0.25889828411E-03  0.50967573609E-01  0.51100000000E-03 0. -1.
         11    1    4    4    0    0  0.42005388381E-01 -0.60956646487E-01 -0.23139592344E-01  0.77562022014E-01  0.51100000000E-03 0.  1.
</event>
<event>
 8    1  0.1022673E+005  0.1043930E+01  0.7957747E-01            NaN
         13   -1    0    0    0    0  0.00000000000E+00  0.00000000000E+00  0.74505805969E-08  0.10566000000E+00  0.10566000000E+00 0. -1.
     999900   -1    0    0    0    0 -0.00000000000E+00 -0.00000000000E+00 -0.74505805969E-08  0.93827000000E+00  0.93827000000E+00 0.  1.
     999902    2    1    2    0    0 -0.24650289051E-01 -0.65537213480E-02 -0.33844338645E-02  0.10181998153E+01  0.10178746590E+01 0.  0.
     999903    2    3    3    0    0 -0.11529982241E+00 -0.23751474113E-01 -0.55729909337E-01  0.13182904104E+00  0.20368890406E-01 0.  0.
         14    1    1    2    0    0  0.24650289051E-01  0.65537213480E-02  0.33844338645E-02  0.25730184733E-01  0.00000000000E+00 0. -1.
     999901    1    3    3    0    0  0.90649533361E-01  0.17197752765E-01  0.52345475473E-01  0.88637077423E+00  0.88000000000E+00 0. -1.
        -11    1    4    4    0    0 -0.31700757769E-01 -0.15861680767E-01 -0.14870185808E-01  0.38443653662E-01  0.51100000000E-03 0.  1.
         11    1    4    4    0    0 -0.83599064643E-01 -0.78897933466E-02 -0.40859723529E-01  0.93385387380E-01  0.51100000000E-03 0. -1.
</event>
<event>
 8    1  0.1022673E+005  0.1043930E+01  0.7957747E-01            NaN
         13   -1    0    0    0    0  0.00000000000E+00  0.00000000000E+00  0.74505805969E-08  0.10566000000E+00  0.10566000000E+00 0. -1.
     999900   -1    0    0    0    0 -0.00000000000E+00 -0.00000000000E+00 -0.74505805969E-08  0.93827000000E+00  0.93827000000E+00 0.  1.
     999902    2    1    2    0    0  0.13464114033E-01 -0.20586407731E-01  0.55592625627E-02  0.10187111985E+01  0.10183989974E+01 0.  0.
     999903    2    3    3    0    0 -0.82838473698E-01 -0.98075991305E-01 -0.10617523058E-02  0.13004778537E+00  0.20740934537E-01 0.  0.
         14    1    1    2    0    0 -0.13464114033E-01  0.20586407731E-01 -0.55592625627E-02  0.25218801522E-01  0.00000000000E+00 0. -1.
     999901    1    3    3    0    0  0.96302587731E-01  0.77489583573E-01  0.66210148685E-02  0.88866341311E+00  0.88000000000E+00 0.  1.
        -11    1    4    4    0    0 -0.25638555264E-01 -0.21427316764E-01  0.67371016797E-02  0.34089809031E-01  0.51100000000E-03 0. -1.
         11    1    4    4    0    0 -0.57199918435E-01 -0.76648674541E-01 -0.77988539854E-02  0.95957976335E-01  0.51100000000E-03 0.  1.
</event>
<event>
 8    1  0.1022673E+005  0.1043930E+01  0.7957747E-01            NaN
         13   -1    0    0    0    0  0.00000000000E+00  0.00000000000E+00  0.74505805969E-08  0.10566000000E+00  0.10566000000E+00 0.  1.
     999900   -1    0    0    0    0 -0.00000000000E+00 -0.00000000000E+00 -0.74505805969E-08  0.93827000000E+00  0.93827000000E+00 0. -1.
     999902    2    1    2    0    0  0.60789410402E-02  0.22416518098E-01 -0.41013786095E-03  0.10207002342E+01  0.10204358608E+01 0.  0.
     999903    2    3    3    0    0  0.62713119015E-01  0.67340682078E-01 -0.93285334104E-01  0.13286499455E+00  0.21982958353E-01 0.  0.
         14    1    1    2    0    0 -0.60789410402E-02 -0.22416518098E-01  0.41013786095E-03  0.23229765838E-01  0.00000000000E+00 0.  1.
     999901    1    3    3    0    0 -0.56634177975E-01 -0.44924163980E-01  0.92875196243E-01  0.88783523961E+00  0.88000000000E+00 0.  1.
        -11    1    4    4    0    0  0.39760818255E-01  0.39594802327E-01 -0.41522960466E-01  0.69807509671E-01  0.51100000000E-03 0.  1.
         11    1    4    4    0    0  0.22952300760E-01  0.27745879751E-01 -0.51762373638E-01  0.63057484877E-01  0.51100000000E-03 0. -1.
</event>
<event>
 8    1  0.1022673E+005  0.1043930E+01  0.7957747E-01            NaN
         13   -1    0    0    0    0  0.00000000000E+00  0.00000000000E+00  0.74505805969E-08  0.10566000000E+00  0.10566000000E+00 0.  1.
     999900   -1    0    0    0    0 -0.00000000000E+00 -0.00000000000E+00 -0.74505805969E-08  0.93827000000E+00  0.93827000000E+00 0. -1.
     999902    2    1    2    0    0  0.10516319096E-01  0.11396283482E-01  0.85580561382E-02  0.10262181800E+01  0.10260653217E+01 0.  0.
     999903    2    3    3    0    0  0.69783736363E-01  0.55274433654E-02 -0.11431739468E+00  0.13568718866E+00  0.21029121491E-01 0.  0.
         14    1    1    2    0    0 -0.10516319096E-01 -0.11396283482E-01 -0.85580561382E-02  0.17711820048E-01  0.00000000000E+00 0. -1.
     999901    1    3    3    0    0 -0.59267417267E-01  0.58688401168E-02  0.12287545081E+00  0.89053099129E+00  0.88000000000E+00 0.  1.
        -11    1    4    4    0    0  0.60306043113E-01 -0.22199574789E-03 -0.84038610573E-01  0.10343895449E+00  0.51100000000E-03 0. -1.
         11    1    4    4    0    0  0.94776932503E-02  0.57494391133E-02 -0.30278784103E-01  0.32248234172E-01  0.51100000000E-03 0.  1.
</event>
<event>
 8    1  0.1022673E+005  0.1043930E+01  0.7957747E-01            NaN
         13   -1    0    0    0    0  0.00000000000E+00  0.00000000000E+00  0.74505805969E-08  0.10566000000E+00  0.10566000000E+00 0.  1.
     999900   -1    0    0    0    0 -0.00000000000E+00 -0.00000000000E+00 -0.74505805969E-08  0.93827000000E+00  0.93827000000E+00 0.  1.
     999902    2    1    2    0    0 -0.84773028161E-02  0.27469732609E-01  0.20767136053E-02  0.10151070298E+01  0.10146977473E+01 0.  0.
     999903    2    3    3    0    0  0.82052691559E-01  0.70785873472E-01 -0.63127107169E-01  0.12700596223E+00  0.20054892379E-01 0.  0.
         14    1    1    2    0    0  0.84773028161E-02 -0.27469732609E-01 -0.20767136053E-02  0.28822970215E-01  0.00000000000E+00 0. -1.
     999901    1    3    3    0    0 -0.90529994375E-01 -0.43316140863E-01  0.65203820774E-01  0.88810106755E+00  0.88000000000E+00 0. -1.
        -11    1    4    4    0    0  0.47190248764E-01  0.52582690113E-01 -0.44358307830E-01  0.83425292762E-01  0.51100000000E-03 0. -1.
         11    1    4    4    0    0  0.34862442795E-01  0.18203183359E-01 -0.18768799339E-01  0.43580669472E-01  0.51100000000E-03 0.  1.
</event>
<event>
 8    1  0.1022673E+005  0.1043930E+01  0.7957747E-01            NaN
         13   -1    0    0    0    0  0.00000000000E+00  0.00000000000E+00  0.74505805969E-08  0.10566000000E+00  0.10566000000E+00 0. -1.
     999900   -1    0    0    0    0 -0.00000000000E+00 -0.00000000000E+00 -0.74505805969E-08  0.93827000000E+00  0.93827000000E+00 0. -1.
     999902    2    1    2    0    0  0.13834150140E-02  0.16412308482E-01  0.16592240775E-01  0.10205509461E+01  0.10202831242E+01 0.  0.
     999903    2    3    3    0    0  0.21157084576E-01 -0.12469863253E+00  0.16364181332E-01  0.12908959098E+00  0.19974105408E-01 0.  0.
         14    1    1    2    0    0 -0.13834150140E-02 -0.16412308482E-01 -0.16592240775E-01  0.23379053889E-01  0.00000000000E+00 0.  1.
     999901    1    3    3    0    0 -0.19773669562E-01  0.14111094101E+00  0.22805944360E-03  0.89146135513E+00  0.88000000000E+00 0.  1.
        -11    1    4    4    0    0  0.16727217107E-01 -0.42879521616E-01  0.37246571531E-02  0.46179945410E-01  0.51100000000E-03 0.  1.
         11    1    4    4    0    0  0.44298674686E-02 -0.81819110911E-01  0.12639524178E-01  0.82909645570E-01  0.51100000000E-03 0. -1.
</event>
<event>
 8    1  0.1022673E+005  0.1043930E+01  0.7957747E-01            NaN
         13   -1    0    0    0    0  0.00000000000E+00  0.00000000000E+00  0.74505805969E-08  0.10566000000E+00  0.10566000000E+00 0. -1.
     999900   -1    0    0    0    0 -0.00000000000E+00 -0.00000000000E+00 -0.74505805969E-08  0.93827000000E+00  0.93827000000E+00 0.  1.
     999902    2    1    2    0    0 -0.13067168023E-02 -0.24590031222E-01  0.12588402027E-01  0.10162741686E+01  0.10158978004E+01 0.  0.
     999903    2    3    3    0    0 -0.11640055899E+00  0.41703396586E-01  0.14667033839E-01  0.12630465689E+00  0.21200968119E-01 0.  0.
         14    1    1    2    0    0  0.13067168023E-02  0.24590031222E-01 -0.12588402027E-01  0.27655831391E-01  0.00000000000E+00 0.  1.
     999901    1    3    3    0    0  0.11509384219E+00 -0.66293427808E-01 -0.20786318122E-02  0.88996951172E+00  0.88000000000E+00 0. -1.
        -11    1    4    4    0    0 -0.20957257573E-01  0.46626286795E-02 -0.50059144467E-02  0.22051463708E-01  0.51100000000E-03 0.  1.
         11    1    4    4    0    0 -0.95443301421E-01  0.37040767906E-01  0.19672948286E-01  0.10425319318E+00  0.51100000000E-03 0. -1.
</event>
<event>
 8    1  0.1022673E+005  0.1043930E+01  0.7957747E-01            NaN
         13   -1    0    0    0    0  0.00000000000E+00  0.00000000000E+00  0.74505805969E-08  0.10566000000E+00  0.10566000000E+00 0.  1.
     999900   -1    0    0    0    0 -0.00000000000E+00 -0.00000000000E+00 -0.74505805969E-08  0.93827000000E+00  0.93827000000E+00 0.  1.
     999902    2    1    2    0    0  0.16319924551E-01 -0.15869530104E-01 -0.42473339764E-02  0.10207735372E+01  0.10205108488E+01 0.  0.
     999903    2    3    3    0    0 -0.38682951653E-01 -0.12474213143E+00  0.10438781565E-01  0.13223865230E+00  0.17919902342E-01 0.  0.
         14    1    1    2    0    0 -0.16319924551E-01  0.15869530104E-01  0.42473339764E-02  0.23156462791E-01  0.00000000000E+00 0.  1.
     999901    1    3    3    0    0  0.55002876205E-01  0.10887260132E+00 -0.14686115541E-01  0.88853488491E+00  0.88000000000E+00 0.  1.
        -11    1    4    4    0    0 -0.34553764043E-01 -0.10665367815E+00  0.15037680042E-01  0.11311658859E+00  0.51100000000E-03 0.  1.
         11    1    4    4    0    0 -0.41291876101E-02 -0.18088453277E-01 -0.45988984771E-02  0.19122063709E-01  0.51100000000E-03 0. -1.
</event>
<event>
 8    1  0.1022673E+005  0.1043930E+01  0.7957747E-01            NaN
         13   -1    0    0    0    0  0.00000000000E+00  0.00000000000E+00  0.74505805969E-08  0.10566000000E+00  0.10566000000E+00 0. -1.
     999900   -1    0    0    0    0 -0.00000000000E+00 -0.00000000000E+00 -0.74505805969E-08  0.93827000000E+00  0.93827000000E+00 0. -1.
     999902    2    1    2    0    0 -0.21040583769E-01  0.88125494724E-02 -0.77100626902E-03  0.10211054158E+01  0.10208502870E+01 0.  0.
     999903    2    3    3    0    0  0.27016259733E-01  0.52049467958E-01 -0.11589166106E+00  0.13125618335E+00  0.18928369126E-01 0.  0.
         14    1    1    2    0    0  0.21040583769E-01 -0.88125494724E-02  0.77100626902E-03  0.22824584207E-01  0.00000000000E+00 0. -1.
     999901    1    3    3    0    0 -0.48056843502E-01 -0.43236918486E-01  0.11512065479E+00  0.88984923245E+00  0.88000000000E+00 0.  1.
        -11    1    4    4    0    0  0.13884052694E-01  0.91264577460E-02 -0.34888248490E-01  0.38645959089E-01  0.51100000000E-03 0. -1.
         11    1    4    4    0    0  0.13132207040E-01  0.42923010212E-01 -0.81003412574E-01  0.92610224257E-01  0.51100000000E-03 0.  1.
</event>
<event>
 8    1  0.1022673E+005  0.1043930E+01  0.7957747E-01            NaN
         13   -1    0    0    0    0  0.00000000000E+00  0.00000000000E+00  0.74505805969E-08  0.10566000000E+00  0.10566000000E+00 0. -1.
     999900   -1    0    0    0    0 -0.00000000000E+00 -0.00000000000E+00 -0.74505805969E-08  0.93827000000E+00  0.93827000000E+00 0.  1.
     999902    2    1    2    0    0 -0.20981082601E-01 -0.27034906577E-02 -0.90494339652E-02  0.10209211551E+01  0.10206618431E+01 0.  0.
     999903    2    3    3    0    0 -0.67908792054E-01 -0.45729251964E-01 -0.10354253742E+00  0.13357546561E+00  0.20459213919E-01 0.  0.
         14    1    1    2    0    0  0.20981082601E-01  0.27034906577E-02  0.90494339652E-02  0.23008844907E-01  0.00000000000E+00 0. -1.
     999901    1    3    3    0    0  0.46927709453E-01  0.43025761307E-01  0.94493103450E-01  0.88734568949E+00  0.88000000000E+00 0. -1.
        -11    1    4    4    0    0 -0.16856741131E-01 -0.20569235375E-01 -0.24428018157E-01  0.36114157301E-01  0.51100000000E-03 0. -1.
         11    1    4    4    0    0 -0.51052050923E-01 -0.25160016590E-01 -0.79114519258E-01  0.97461308306E-01  0.51100000000E-03 0.  1.
</event>
<event>
 8    1  0.1022673E+005  0.1043930E+01  0.7957747E-01            NaN
         13   -1    0    0    0    0  0.00000000000E+00  0.00000000000E+00  0.74505805969E-08  0.10566000000E+00  0.10566000000E+00 0. -1.
     999900   -1    0    0    0    0 -0.00000000000E+00 -0.00000000000E+00 -0.74505805969E-08  0.93827000000E+00  0.93827000000E+00 0.  1.
     999902    2    1    2    0    0  0.66441585894E-02 -0.81894210474E-02 -0.19118956626E-01  0.10220954869E+01  0.10218622404E+01 0.  0.
     999903    2    3    3    0    0  0.22711148672E-01 -0.11677807889E+00  0.55806247863E-01  0.13211603148E+00  0.13689137637E-01 0.  0.
         14    1    1    2    0    0 -0.66441585894E-02  0.81894210474E-02  0.19118956626E-01  0.21834513114E-01  0.00000000000E+00 0. -1.
     999901    1    3    3    0    0 -0.16066990083E-01  0.10858865784E+00 -0.74925204489E-01  0.88997945541E+00  0.88000000000E+00 0.  1.
        -11    1    4    4    0    0  0.37755106744E-02 -0.41567999824E-01  0.14129780477E-01  0.44068865513E-01  0.51100000000E-03 0.  1.
         11    1    4    4    0    0  0.18935637998E-01 -0.75210079067E-01  0.41676467386E-01  0.88047165965E-01  0.51100000000E-03 0. -1.
</event>
<event>
 8    1  0.1022673E+005  0.1043930E+01  0.7957747E-01            NaN
         13   -1    0    0    0    0  0.00000000000E+00  0.00000000000E+00  0.74505805969E-08  0.10566000000E+00  0.10566000000E+00 0. -1.
     999900   -1    0    0    0    0 -0.00000000000E+00 -0.00000000000E+00 -0.74505805969E-08  0.93827000000E+00  0.93827000000E+00 0.  1.
     999902    2    1    2    0    0  0.10391989147E-01  0.13891486158E-01  0.17026545078E-01  0.10196221810E+01  0.10193323903E+01 0.  0.
     999903    2    3    3    0    0 -0.22778061078E-01  0.95473474519E-02  0.12801587373E+00  0.13201993066E+00  0.20765506398E-01 0.  0.
         14    1    1    2    0    0 -0.10391989147E-01 -0.13891486158E-01 -0.17026545078E-01  0.24307818977E-01  0.00000000000E+00 0. -1.
     999901    1    3    3    0    0  0.33170050225E-01  0.43441387061E-02 -0.11098932865E+00  0.88760225036E+00  0.88000000000E+00 0.  1.
        -11    1    4    4    0    0 -0.18678176487E-01  0.14693197832E-01  0.11495108395E+00  0.11738303609E+00  0.51100000000E-03 0.  1.
         11    1    4    4    0    0 -0.40998845904E-02 -0.51458503801E-02  0.13064789780E-01  0.14636894574E-01  0.51100000000E-03 0. -1.
</event>
<event>
 8    1  0.1022673E+005  0.1043930E+01  0.7957747E-01            NaN
         13   -1    0    0    0    0  0.00000000000E+00  0.00000000000E+00  0.74505805969E-08  0.10566000000E+00  0.10566000000E+00 0.  1.
     999900   -1    0    0    0    0 -0.00000000000E+00 -0.00000000000E+00 -0.74505805969E-08  0.93827000000E+00  0.93827000000E+00 0. -1.
     999902    2    1    2    0    0  0.13020554085E-01  0.82404534834E-02  0.18822761583E-01  0.10196043704E+01  0.10193141497E+01 0.  0.
     999903    2    3    3    0    0 -0.14940187142E-01 -0.12617486924E+00  0.77418052290E-02  0.12889001122E+00  0.20233453161E-01 0.  0.
         14    1    1    2    0    0 -0.13020554085E-01 -0.82404534834E-02 -0.18822761583E-01  0.24325629609E-01  0.00000000000E+00 0. -1.
     999901    1    3    3    0    0  0.27960741227E-01  0.13441532272E+00  0.11080956354E-01  0.89071435917E+00  0.88000000000E+00 0. -1.
        -11    1    4    4    0    0 -0.13847680482E-01 -0.64411993689E-01 -0.40094905141E-02  0.66007577754E-01  0.51100000000E-03 0.  1.
         11    1    4    4    0    0 -0.10925066598E-02 -0.61762875547E-01  0.11751295743E-01  0.62882433471E-01  0.51100000000E-03 0. -1.
</event>
<event>
 8    1  0.1022673E+005  0.1043930E+01  0.7957747E-01            NaN
         13   -1    0    0    0    0  0.00000000000E+00  0.00000000000E+00  0.74505805969E-08  0.10566000000E+00  0.10566000000E+00 0.  1.
     999900   -1    0    0    0    0 -0.00000000000E+00 -0.00000000000E+00 -0.74505805969E-08  0.93827000000E+00  0.93827000000E+00 0. -1.
     999902    2    1    2    0    0 -0.11562807963E-01  0.42243511675E-02  0.20369453504E-01  0.10201296154E+01  0.10198519373E+01 0.  0.
     999903    2    3    3    0    0  0.90857300312E-01  0.88160895847E-01  0.22767264637E-01  0.13021896168E+00  0.20278980893E-01 0.  0.
         14    1    1    2    0    0  0.11562807963E-01 -0.42243511675E-02 -0.20369453504E-01  0.23800384594E-01  0.00000000000E+00 0. -1.
     999901    1    3    3    0    0 -0.10242010828E+00 -0.83936544680E-01 -0.23978111336E-02  0.88991065372E+00  0.88000000000E+00 0. -1.
        -11    1    4    4    0    0  0.73491502964E-01  0.60213249388E-01  0.20751478119E-01  0.97249788560E-01  0.51100000000E-03 0. -1.
         11    1    4    4    0    0  0.17365797349E-01  0.27947646459E-01  0.20157865185E-02  0.32969173123E-01  0.51100000000E-03 0.  1.
</event>
<event>
 8    1  0.1022673E+005  0.1043930E+01  0.7957747E-01            NaN
         13   -1    0    0    0    0  0.00000000000E+00  0.00000000000E+00  0.74505805969E-08  0.10566000000E+00  0.10566000000E+00 0.  1.
     999900   -1    0    0    0    0 -0.00000000000E+00 -0.00000000000E+00 -0.74505805969E-08  0.93827000000E+00  0.93827000000E+00 0.  1.
     999902    2    1    2    0    0 -0.71809637731E-02 -0.12898001839E-01 -0.17922030121E-01  0.10207109592E+01  0.10204468327E+01 0.  0.
     999903    2    3    3    0    0 -0.72110001806E-01  0.10251072762E+00 -0.31061151807E-01  0.13070669441E+00  0.20276665805E-01 0.  0.
         14    1    1    2    0    0  0.71809637731E-02  0.12898001839E-01  0.17922030121E-01  0.23219040803E-01  0.00000000000E+00 0.  1.
     999901    1    3    3    0    0  0.64929038033E-01 -0.11540872945E+00  0.13139121686E-01  0.89000426478E+00  0.88000000000E+00 0. -1.
        -11    1    4    4    0    0 -0.44817370479E-01  0.59520963942E-01 -0.28317329486E-01  0.79708682811E-01  0.51100000000E-03 0.  1.
         11    1    4    4    0    0 -0.27292631327E-01  0.42989763674E-01 -0.27438223207E-02  0.50998011602E-01  0.51100000000E-03 0. -1.
</event>
<event>
 8    1  0.1022673E+005  0.1043930E+01  0.7957747E-01            NaN
         13   -1    0    0    0    0  0.00000000000E+00  0.00000000000E+00  0.74505805969E-08  0.10566000000E+00  0.10566000000E+00 0. -1.
     999900   -1    0    0    0    0 -0.00000000000E+00 -0.00000000000E+00 -0.74505805969E-08  0.93827000000E+00  0.93827000000E+00 0. -1.
     999902    2    1    2    0    0 -0.16232277374E-01 -0.35765516656E-02 -0.16664528512E-01  0.10203931128E+01  0.10201216200E+01 0.  0.
     999903    2    3    3    0    0 -0.11347615254E+00  0.30813288068E-01 -0.59531843706E-01  0.13333243893E+00  0.20179270075E-01 0.  0.
         14    1    1    2    0    0  0.16232277374E-01  0.35765516656E-02  0.16664528512E-01  0.23536887243E-01  0.00000000000E+00 0. -1.
     999901    1    3    3    0    0  0.97243875162E-01 -0.34389839734E-01  0.42867315194E-01  0.88706067382E+00  0.88000000000E+00 0.  1.
        -11    1    4    4    0    0 -0.53530774725E-01  0.46270173500E-02 -0.30225126192E-01  0.61650405566E-01  0.51100000000E-03 0. -1.
         11    1    4    4    0    0 -0.59945377812E-01  0.26186270718E-01 -0.29306717514E-01  0.71682033367E-01  0.51100000000E-03 0.  1.
</event>
<event>
 8    1  0.1022673E+005  0.1043930E+01  0.7957747E-01            NaN
         13   -1    0    0    0    0  0.00000000000E+00  0.00000000000E+00  0.74505805969E-08  0.10566000000E+00  0.10566000000E+00 0. -1.
     999900   -1    0    0    0    0 -0.00000000000E+00 -0.00000000000E+00 -0.74505805969E-08  0.93827000000E+00  0.93827000000E+00 0. -1.
     999902    2    1    2    0    0 -0.55222854816E-02  0.96651651848E-02  0.20476426680E-01  0.10206234536E+01  0.10203573095E+01 0.  0.
     999903    2    3    3    0    0  0.35859891803E-01  0.11735628287E+00  0.46658070912E-01  0.13270716256E+00  0.19385211993E-01 0.  0.
         14    1    1    2    0    0  0.55222854816E-02 -0.96651651848E-02 -0.20476426680E-01  0.23306546389E-01  0.00000000000E+00 0.  1.
     999901    1    3    3    0    0 -0.41382177285E-01 -0.10769111768E+00 -0.26181644232E-01  0.88791629105E+00  0.88000000000E+00 0. -1.
        -11    1    4    4    0    0  0.26063865475E-01  0.52830221364E-01  0.24110322138E-01  0.63654741594E-01  0.51100000000E-03 0.  1.
         11    1    4    4    0    0  0.97960263286E-02  0.64526061504E-01  0.22547748774E-01  0.69052420963E-01  0.51100000000E-03 0. -1.
</event>
<event>
 8    1  0.1022673E+005  0.1043930E+01  0.7957747E-01            NaN
         13   -1    0    0    0    0  0.00000000000E+00  0.00000000000E+00  0.74505805969E-08  0.10566000000E+00  0.10566000000E+00 0.  1.
     999900   -1    0    0    0    0 -0.00000000000E+00 -0.00000000000E+00 -0.74505805969E-08  0.93827000000E+00  0.93827000000E+00 0. -1.
     999902    2    1    2    0    0  0.15605219951E-02 -0.35088910953E-02 -0.25129065053E-01  0.10185091925E+01  0.10181919061E+01 0.  0.
     999903    2    3    3    0    0  0.60715737885E-02  0.12357319412E+00 -0.31757525034E-01  0.12934433572E+00  0.20352357982E-01 0.  0.
         14    1    1    2    0    0 -0.15605219951E-02  0.35088910953E-02  0.25129065053E-01  0.25420807541E-01  0.00000000000E+00 0.  1.
     999901    1    3    3    0    0 -0.45110517934E-02 -0.12708208521E+00  0.66284599818E-02  0.88916485673E+00  0.88000000000E+00 0. -1.
        -11    1    4    4    0    0  0.90803778726E-02  0.22678511685E-01 -0.68398604252E-02  0.25373469731E-01  0.51100000000E-03 0.  1.
         11    1    4    4    0    0 -0.30088040840E-02  0.10089468243E+00 -0.24917664609E-01  0.10397086599E+00  0.51100000000E-03 0. -1.
</event>
<event>
 8    1  0.1022673E+005  0.1043930E+01  0.7957747E-01            NaN
         13   -1    0    0    0    0  0.00000000000E+00  0.00000000000E+00  0.74505805969E-08  0.10566000000E+00  0.10566000000E+00 0. -1.
     999900   -1    0    0    0    0 -0.00000000000E+00 -0.00000000000E+00 -0.74505805969E-08  0.93827000000E+00  0.93827000000E+00 0. -1.
     999902    2    1    2    0    0 -0.23455470012E-01 -0.78486121923E-02  0.87065738858E-03  0.10191809024E+01  0.10188803630E+01 0.  0.
     999903    2    3    3    0    0  0.15706374305E-01  0.17277157697E-01 -0.12530187750E+00  0.12896493821E+00  0.19652084166E-01 0.  0.
         14    1    1    2    0    0  0.23455470012E-01  0.78486121923E-02 -0.87065738858E-03  0.24749097582E-01  0.00000000000E+00 0.  1.
     999901    1    3    3    0    0 -0.39161844317E-01 -0.25125769890E-01  0.12617253489E+00  0.89021596420E+00  0.88000000000E+00 0.  1.
        -11    1    4    4    0    0  0.15360977284E-01  0.53742751617E-02 -0.95324262097E-01  0.96704800925E-01  0.51100000000E-03 0.  1.
         11    1    4    4    0    0  0.34539702057E-03  0.11902882536E-01 -0.29977615402E-01  0.32260137290E-01  0.51100000000E-03 0. -1.
</event>
<event>
 8    1  0.1022673E+005  0.1043930E+01  0.7957747E-01            NaN
         13   -1    0    0    0    0  0.00000000000E+00  0.00000000000E+00  0.74505805969E-08  0.10566000000E+00  0.10566000000E+00 0.  1.
     999900   -1    0    0    0    0 -0.00000000000E+00 -0.00000000000E+00 -0.74505805969E-08  0.93827000000E+00  0.93827000000E+00 0.  1.
     999902    2    1    2    0    0  0.19768175224E-01  0.14305122798E-01  0.10240013283E-02  0.10195073493E+01  0.10192147808E+01 0.  0.
     999903    2    3    3    0    0 -0.23282684411E-01 -0.29089616782E-01  0.12206515448E+00  0.12912123039E+00  0.19598494866E-01 0.  0.
         14    1    1    2    0    0 -0.19768175224E-01 -0.14305122798E-01 -0.10240013283E-02  0.24422650730E-01  0.00000000000E+00 0.  1.
     999901    1    3    3    0    0  0.43050859635E-01  0.43394739580E-01 -0.12104115315E+00  0.89038611888E+00  0.88000000000E+00 0.  1.
        -11    1    4    4    0    0  0.36022583496E-03 -0.50969384310E-03  0.27917197105E-01  0.27928848270E-01  0.51100000000E-03 0. -1.
         11    1    4    4    0    0 -0.23642910246E-01 -0.28579922939E-01  0.94147957375E-01  0.10119238212E+00  0.51100000000E-03 0.  1.
</event>
<event>
 8    1  0.1022673E+005  0.1043930E+01  0.7957747E-01            NaN
         13   -1    0    0    0    0  0.00000000000E+00  0.00000000000E+00  0.74505805969E-08  0.10566000000E+00  0.10566000000E+00 0.  1.
     999900   -1    0    0    0    0 -0.00000000000E+00 -0.00000000000E+00 -0.74505805969E-08  0.93827000000E+00  0.93827000000E+00 0.  1.
     999902    2    1    2    0    0 -0.12271283083E-01 -0.92893667208E-02 -0.18613951311E-01  0.10197772381E+01  0.10194911768E+01 0.  0.
     999903    2    3    3    0    0 -0.14930639217E-01  0.23459068835E-01  0.12318870094E+00  0.12782010665E+00  0.19729970253E-01 0.  0.
         14    1    1    2    0    0  0.12271283083E-01  0.92893667208E-02  0.18613951311E-01  0.24152761871E-01  0.00000000000E+00 0.  1.
     999901    1    3    3    0    0  0.26593561334E-02 -0.32748435556E-01 -0.14180265226E+00  0.89195713148E+00  0.88000000000E+00 0.  1.
        -11    1    4    4    0    0 -0.38594090399E-02  0.22151372828E-01  0.91503847387E-01  0.94227350403E-01  0.51100000000E-03 0.  1.
         11    1    4    4    0    0 -0.11071230177E-01  0.13076960073E-02  0.31684853557E-01  0.33592756249E-01  0.51100000000E-03 0. -1.
</event>
<event>
 8    1  0.1022673E+005  0.1043930E+01  0.7957747E-01            NaN
         13   -1    0    0    0    0  0.00000000000E+00  0.00000000000E+00  0.74505805969E-08  0.10566000000E+00  0.10566000000E+00 0.  1.
     999900   -1    0    0    0    0 -0.00000000000E+00 -0.00000000000E+00 -0.74505805969E-08  0.93827000000E+00  0.93827000000E+00 0.  1.
     999902    2    1    2    0    0 -0.14473504595E-01  0.14569995103E-01 -0.12688632691E-01  0.10197894016E+01  0.10195036317E+01 0.  0.
     999903    2    3    3    0    0  0.95872915459E-01  0.82580424907E-01 -0.20450840876E-01  0.13026031107E+00  0.23202785435E-01 0.  0.
         14    1    1    2    0    0  0.14473504595E-01 -0.14569995103E-01  0.12688632691E-01  0.24140598421E-01  0.00000000000E+00 0. -1.
     999901    1    3    3    0    0 -0.11034642005E+00 -0.68010429804E-01  0.77622081849E-02  0.88952909051E+00  0.88000000000E+00 0.  1.
        -11    1    4    4    0    0  0.11205166254E-01  0.21473862226E-01 -0.36477950348E-02  0.24500000802E-01  0.51100000000E-03 0.  1.
         11    1    4    4    0    0  0.84667749205E-01  0.61106562681E-01 -0.16803045841E-01  0.10576031027E+00  0.51100000000E-03 0. -1.
</event>
<event>
 8    1  0.1022673E+005  0.1043930E+01  0.7957747E-01            NaN
         13   -1    0    0    0    0  0.00000000000E+00  0.00000000000E+00  0.74505805969E-08  0.10566000000E+00  0.10566000000E+00 0. -1.
     999900   -1    0    0    0    0 -0.00000000000E+00 -0.00000000000E+00 -0.74505805969E-08  0.93827000000E+00  0.93827000000E+00 0.  1.
     999902    2    1    2    0    0  0.17840761999E-01 -0.13525824297E-01 -0.19916969319E-02  0.10214531771E+01  0.10212058487E+01 0.  0.
     999903    2    3    3    0    0  0.85648432585E-01 -0.33726794904E-01 -0.95069677067E-01  0.13372040773E+00  0.19228968957E-01 0.  0.
         14    1    1    2    0    0 -0.17840761999E-01  0.13525824297E-01  0.19916969319E-02  0.22476822913E-01  0.00000000000E+00 0. -1.
     999901    1    3    3    0    0 -0.67807670586E-01  0.20200970607E-01  0.93077980135E-01  0.88773276936E+00  0.88000000000E+00 0.  1.
        -11    1    4    4    0    0  0.34826174088E-01 -0.19931081560E-01 -0.52022580974E-01  0.65701753903E-01  0.51100000000E-03 0.  1.
         11    1    4    4    0    0  0.50822258497E-01 -0.13795713343E-01 -0.43047096093E-01  0.68018653827E-01  0.51100000000E-03 0. -1.
</event>
<event>
 8    1  0.1022673E+005  0.1043930E+01  0.7957747E-01            NaN
         13   -1    0    0    0    0  0.00000000000E+00  0.00000000000E+00  0.74505805969E-08  0.10566000000E+00  0.10566000000E+00 0. -1.
     999900   -1    0    0    0    0 -0.00000000000E+00 -0.00000000000E+00 -0.74505805969E-08  0.93827000000E+00  0.93827000000E+00 0.  1.
     999902    2    1    2    0    0 -0.26398800599E-01 -0.99122798348E-02  0.43003595259E-02  0.10154055709E+01  0.10150048425E+01 0.  0.
     999903    2    3    3    0    0 -0.79682894160E-01 -0.83169565482E-01  0.54877654933E-01  0.12931083140E+00  0.21052169999E-01 0.  0.
         14    1    1    2    0    0  0.26398800599E-01  0.99122798348E-02 -0.43003595259E-02  0.28524429120E-01  0.00000000000E+00 0. -1.
     999901    1    3    3    0    0  0.53284093561E-01  0.73257285647E-01 -0.50577295407E-01  0.88609473948E+00  0.88000000000E+00 0. -1.
        -11    1    4    4    0    0 -0.26236277422E-01 -0.15970391662E-01  0.92745252948E-02  0.32088527595E-01  0.51100000000E-03 0.  1.
         11    1    4    4    0    0 -0.53446616738E-01 -0.67199173821E-01  0.45603129638E-01  0.97222303803E-01  0.51100000000E-03 0. -1.
</event>
<event>
 6    1  0.1022673E+005  0.1043930E+01  0.7957747E-01            NaN
         13   -1    0    0    0    0  0.00000000000E+00  0.00000000000E+00  0.74505805969E-08  0.10566000000E+00  0.10566000000E+00 0. -1.
     999900   -1    0    0    0    0 -0.00000000000E+00 -0.00000000000E+00 -0.74505805969E-08  0.93827000000E+00  0.93827000000E+00 0. -1.
         14    1    1    2    0    0 -0.24756066462E-01  0.24732343200E-01  0.19429754289E-01  0.40025828893E-01  0.00000000000E+00 0. -1.
     999901    1    1    2    0    0 -0.42673645363E-01  0.37605689165E-01 -0.84703556339E-01  0.88589498267E+00  0.88000000000E+00 0. -1.
        -11    1    1    2    0    0  0.53328419610E-01 -0.64153062270E-01  0.60306561128E-01  0.10294016793E+00  0.51100000000E-03 0.  1.
         11    1    1    2    0    0  0.14101292216E-01  0.18150299057E-02  0.49672409220E-02  0.15069020509E-01  0.51100000000E-03 0. -1.
</event>
<event>
 8    1  0.1022673E+005  0.1043930E+01  0.7957747E-01            NaN
         13   -1    0    0    0    0  0.00000000000E+00  0.00000000000E+00  0.74505805969E-08  0.10566000000E+00  0.10566000000E+00 0. -1.
     999900   -1    0    0    0    0 -0.00000000000E+00 -0.00000000000E+00 -0.74505805969E-08  0.93827000000E+00  0.93827000000E+00 0. -1.
     999902    2    1    2    0    0  0.19580828865E-02  0.22934457056E-01 -0.63670053500E-03  0.10209033025E+01  0.10206435834E+01 0.  0.
     999903    2    3    3    0    0 -0.31401049774E-01  0.12799796534E+00  0.12884910791E-01  0.13392302852E+00  0.19996289205E-01 0.  0.
         14    1    1    2    0    0 -0.19580828865E-02 -0.22934457056E-01  0.63670053500E-03  0.23026697476E-01  0.00000000000E+00 0.  1.
     999901    1    3    3    0    0  0.33359132660E-01 -0.10506350829E+00 -0.13521611326E-01  0.88698027401E+00  0.88000000000E+00 0. -1.
        -11    1    4    4    0    0 -0.32904265052E-01  0.10037138494E+00  0.99845873950E-02  0.10609928690E+00  0.51100000000E-03 0. -1.
         11    1    4    4    0    0  0.15032152782E-02  0.27626580403E-01  0.29003233959E-02  0.27823741620E-01  0.51100000000E-03 0.  1.
</event>
<event>
 8    1  0.1022673E+005  0.1043930E+01  0.7957747E-01            NaN
         13   -1    0    0    0    0  0.00000000000E+00  0.00000000000E+00  0.74505805969E-08  0.10566000000E+00  0.10566000000E+00 0. -1.
     999900   -1    0    0    0    0 -0.00000000000E+00 -0.00000000000E+00 -0.74505805969E-08  0.93827000000E+00  0.93827000000E+00 0.  1.
     999902    2    1    2    0    0 -0.13022543889E-02 -0.12327232032E-01 -0.20028810512E-01  0.10203755998E+01  0.10201036982E+01 0.  0.
     999903    2    3    3    0    0 -0.47244881681E-02 -0.83359089735E-01  0.97174939471E-01  0.12976123015E+00  0.20590030601E-01 0.  0.
         14    1    1    2    0    0  0.13022543889E-02  0.12327232032E-01  0.20028810512E-01  0.23554400153E-01  0.00000000000E+00 0. -1.
     999901    1    3    3    0    0  0.34222337791E-02  0.71031857703E-01 -0.11720374998E+00  0.89061436969E+00  0.88000000000E+00 0.  1.
        -11    1    4    4    0    0 -0.19599091797E-02 -0.30265768661E-01  0.51012473539E-01  0.59349739462E-01  0.51100000000E-03 0. -1.
         11    1    4    4    0    0 -0.27645789883E-02 -0.53093321074E-01  0.46162465932E-01  0.70411490693E-01  0.51100000000E-03 0.  1.
</event>
<event>
 8    1  0.1022673E+005  0.1043930E+01  0.7957747E-01            NaN
         13   -1    0    0    0    0  0.00000000000E+00  0.00000000000E+00  0.74505805969E-08  0.10566000000E+00  0.10566000000E+00 0. -1.
     999900   -1    0    0    0    0 -0.00000000000E+00 -0.00000000000E+00 -0.74505805969E-08  0.93827000000E+00  0.93827000000E+00 0.  1.
     999902    2    1    2    0    0  0.23785713884E-01 -0.26434246677E-03  0.94905730087E-03  0.10201238921E+01  0.10198460788E+01 0.  0.
     999903    2    3    3    0    0  0.43167430549E-01  0.76701415033E-02  0.12241754954E+00  0.13153332186E+00  0.19816664544E-01 0.  0.
         14    1    1    2    0    0 -0.23785713884E-01  0.26434246677E-03 -0.94905730087E-03  0.23806107865E-01  0.00000000000E+00 0. -1.
     999901    1    3    3    0    0 -0.19381716665E-01 -0.79344839701E-02 -0.12146849224E+00  0.88859057028E+00  0.88000000000E+00 0.  1.
        -11    1    4    4    0    0  0.29935665667E-01  0.14235086199E-01  0.89781654847E-01  0.95706783595E-01  0.51100000000E-03 0.  1.
         11    1    4    4    0    0  0.13231764882E-01 -0.65649446957E-02  0.32635894691E-01  0.35826538265E-01  0.51100000000E-03 0. -1.
</event>
<event>
 8    1  0.1022673E+005  0.1043930E+01  0.7957747E-01            NaN
         13   -1    0    0    0    0  0.00000000000E+00  0.00000000000E+00  0.74505805969E-08  0.10566000000E+00  0.10566000000E+00 0.  1.
     999900   -1    0    0    0    0 -0.00000000000E+00 -0.00000000000E+00 -0.74505805969E-08  0.93827000000E+00  0.93827000000E+00 0. -1.
     999902    2    1    2    0    0  0.24647249908E-02  0.20318619130E-01  0.13403448936E-01  0.10194642362E+01  0.10191706213E+01 0.  0.
     999903    2    3    3    0    0 -0.91238287920E-01 -0.10958559620E-01 -0.87298715916E-01  0.12822945094E+00  0.19421922554E-01 0.  0.
         14    1    1    2    0    0 -0.24647249908E-02 -0.20318619130E-01 -0.13403448936E-01  0.24465763753E-01  0.00000000000E+00 0. -1.
     999901    1    3    3    0    0  0.93703012911E-01  0.31277178750E-01  0.10070216485E+00  0.89123478531E+00  0.88000000000E+00 0.  1.
        -11    1    4    4    0    0 -0.45313364461E-01  0.30735153441E-02 -0.35973483052E-01  0.57940487564E-01  0.51100000000E-03 0. -1.
         11    1    4    4    0    0 -0.45924923460E-01 -0.14032074965E-01 -0.51325232864E-01  0.70288963374E-01  0.51100000000E-03 0.  1.
</event>
<event>
 8    1  0.1022673E+005  0.1043930E+01  0.7957747E-01            NaN
         13   -1    0    0    0    0  0.00000000000E+00  0.00000000000E+00  0.74505805969E-08  0.10566000000E+00  0.10566000000E+00 0. -1.
     999900   -1    0    0    0    0 -0.00000000000E+00 -0.00000000000E+00 -0.74505805969E-08  0.93827000000E+00  0.93827000000E+00 0. -1.
     999902    2    1    2    0    0  0.14507875400E-01 -0.36831362022E-02 -0.18779924352E-01  0.10199148069E+01  0.10196320335E+01 0.  0.
     999903    2    3    3    0    0 -0.39290028406E-01 -0.62702694382E-01 -0.10767898255E+00  0.13183791538E+00  0.17639116569E-01 0.  0.
         14    1    1    2    0    0 -0.14507875400E-01  0.36831362022E-02  0.18779924352E-01  0.24015193099E-01  0.00000000000E+00 0. -1.
     999901    1    3    3    0    0  0.53797903806E-01  0.59019558179E-01  0.88899058203E-01  0.88807689152E+00  0.88000000000E+00 0.  1.
        -11    1    4    4    0    0 -0.25776791169E-01 -0.29115287809E-01 -0.45217341366E-01  0.59640691045E-01  0.51100000000E-03 0.  1.
         11    1    4    4    0    0 -0.13513237237E-01 -0.33587406573E-01 -0.62461641189E-01  0.72197224337E-01  0.51100000000E-03 0. -1.
</event>
<event>
 8    1  0.1022673E+005  0.1043930E+01  0.7957747E-01            NaN
         13   -1    0    0    0    0  0.00000000000E+00  0.00000000000E+00  0.74505805969E-08  0.10566000000E+00  0.10566000000E+00 0. -1.
     999900   -1    0    0    0    0 -0.00000000000E+00 -0.00000000000E+00 -0.74505805969E-08  0.93827000000E+00  0.93827000000E+00 0. -1.
     999902    2    1    2    0    0 -0.92425829606E-03 -0.14980894779E-01  0.18571795518E-01  0.10200512846E+01  0.10197717539E+01 0.  0.
     999903    2    3    3    0    0 -0.64530075240E-01 -0.36613012887E-01 -0.10368580433E+00  0.12906274974E+00  0.20045049957E-01 0.  0.
         14    1    1    2    0    0  0.92425829606E-03  0.14980894779E-01 -0.18571795518E-01  0.23878715429E-01  0.00000000000E+00 0.  1.
     999901    1    3    3    0    0  0.63605816943E-01  0.21632118108E-01  0.12225759985E+00  0.89098853483E+00  0.88000000000E+00 0.  1.
        -11    1    4    4    0    0 -0.81051145015E-02 -0.92797977764E-02 -0.29225795153E-01  0.31720904009E-01  0.51100000000E-03 0.  1.
         11    1    4    4    0    0 -0.56424960738E-01 -0.27333215111E-01 -0.74460009175E-01  0.97341845729E-01  0.51100000000E-03 0. -1.
</event>
<event>
 8    1  0.1022673E+005  0.1043930E+01  0.7957747E-01            NaN
         13   -1    0    0    0    0  0.00000000000E+00  0.00000000000E+00  0.74505805969E-08  0.10566000000E+00  0.10566000000E+00 0. -1.
     999900   -1    0    0    0    0 -0.00000000000E+00 -0.00000000000E+00 -0.74505805969E-08  0.93827000000E+00  0.93827000000E+00 0. -1.
     999902    2    1    2    0    0 -0.19061965695E-01  0.14216787814E-01  0.23842177748E-02  0.10200310442E+01  0.10197510339E+01 0.  0.
     999903    2    3    3    0    0  0.70658884322E-02 -0.29510411427E-01  0.12491719327E+00  0.13008213402E+00  0.19906412460E-01 0.  0.
         14    1    1    2    0    0  0.19061965695E-01 -0.14216787814E-01 -0.23842177748E-02  0.23898955758E-01  0.00000000000E+00 0. -1.
     999901    1    3    3    0    0 -0.26127854127E-01  0.43727199241E-01 -0.12253297549E+00  0.88994891022E+00  0.88000000000E+00 0. -1.
        -11    1    4    4    0    0 -0.50452849894E-02 -0.13131294331E-01  0.72290209904E-01  0.73647955575E-01  0.51100000000E-03 0.  1.
         11    1    4    4    0    0  0.12111173422E-01 -0.16379117096E-01  0.52626983362E-01  0.56434178450E-01  0.51100000000E-03 0. -1.
</event>
<event>
 8    1  0.1022673E+005  0.1043930E+01  0.7957747E-01            NaN
         13   -1    0    0    0    0  0.00000000000E+00  0.00000000000E+00  0.74505805969E-08  0.10566000000E+00  0.10566000000E+00 0.  1.
     999900   -1    0    0    0    0 -0.00000000000E+00 -0.00000000000E+00 -0.74505805969E-08  0.93827000000E+00  0.93827000000E+00 0. -1.
     999902    2    1    2    0    0  0.86765890768E-02 -0.10138892218E-01  0.20448692071E-01  0.10195121921E+01  0.10192197411E+01 0.  0.
     999903    2    3    3    0    0 -0.43256669866E-01 -0.61014529268E-01 -0.10203965939E+00  0.12805900208E+00  0.19826841785E-01 0.  0.
         14    1    1    2    0    0 -0.86765890768E-02  0.10138892218E-01 -0.20448692071E-01  0.24417807863E-01  0.00000000000E+00 0. -1.
     999901    1    3    3    0    0  0.51933258943E-01  0.50875637050E-01  0.12248835146E+00  0.89145319006E+00  0.88000000000E+00 0.  1.
        -11    1    4    4    0    0 -0.28415800197E-01 -0.24584559956E-01 -0.42914948703E-01  0.57042196945E-01  0.51100000000E-03 0. -1.
         11    1    4    4    0    0 -0.14840869669E-01 -0.36429969312E-01 -0.59124710683E-01  0.71016805130E-01  0.51100000000E-03 0.  1.
</event>
<event>
 8    1  0.1022673E+005  0.1043930E+01  0.7957747E-01            NaN
         13   -1    0    0    0    0  0.00000000000E+00  0.00000000000E+00  0.74505805969E-08  0.10566000000E+00  0.10566000000E+00 0. -1.
     999900   -1    0    0    0    0 -0.00000000000E+00 -0.00000000000E+00 -0.74505805969E-08  0.93827000000E+00  0.93827000000E+00 0.  1.
     999902    2    1    2    0    0 -0.19996258934E-01 -0.29542999764E-02  0.11012680902E-01  0.10209113684E+01  0.10206518333E+01 0.  0.
     999903    2    3    3    0    0 -0.90257396974E-01 -0.90764800071E-01 -0.29285445201E-01  0.13283972129E+00  0.20102428007E-01 0.  0.
         14    1    1    2    0    0  0.19996258934E-01  0.29542999764E-02 -0.11012680902E-01  0.23018631591E-01  0.00000000000E+00 0. -1.
     999901    1    3    3    0    0  0.70261138040E-01  0.87810500095E-01  0.40298126103E-01  0.88807164712E+00  0.88000000000E+00 0. -1.
        -11    1    4    4    0    0 -0.36692738365E-01 -0.42580815025E-01 -0.35195575974E-02  0.56321676676E-01  0.51100000000E-03 0. -1.
         11    1    4    4    0    0 -0.53564658609E-01 -0.48183985047E-01 -0.25765887604E-01  0.76518044616E-01  0.51100000000E-03 0.  1.
</event>
<event>
 8    1  0.1022673E+005  0.1043930E+01  0.7957747E-01            NaN
         13   -1    0    0    0    0  0.00000000000E+00  0.00000000000E+00  0.74505805969E-08  0.10566000000E+00  0.10566000000E+00 0.  1.
     999900   -1    0    0    0    0 -0.00000000000E+00 -0.00000000000E+00 -0.74505805969E-08  0.93827000000E+00  0.93827000000E+00 0.  1.
     999902    2    1    2    0    0  0.79950797924E-02 -0.11084211995E-01 -0.17470148889E-01  0.10217492165E+01  0.10215084308E+01 0.  0.
     999903    2    3    3    0    0 -0.26094552331E-01  0.46163639871E-02 -0.12979145217E+00  0.13381640015E+00  0.18941262261E-01 0.  0.
         14    1    1    2    0    0 -0.79950797924E-02  0.11084211995E-01  0.17470148889E-01  0.22180783544E-01  0.00000000000E+00 0.  1.
     999901    1    3    3    0    0  0.34089632123E-01 -0.15700575982E-01  0.11232130328E+00  0.88793281631E+00  0.88000000000E+00 0. -1.
        -11    1    4    4    0    0 -0.18793489489E-01  0.89069313161E-02 -0.11407386345E+00  0.11595531948E+00  0.51100000000E-03 0.  1.
         11    1    4    4    0    0 -0.73010628420E-02 -0.42905673291E-02 -0.15717588719E-01  0.17861080672E-01  0.51100000000E-03 0. -1.
</event>
<event>
 8    1  0.1022673E+005  0.1043930E+01  0.7957747E-01            NaN
         13   -1    0    0    0    0  0.00000000000E+00  0.00000000000E+00  0.74505805969E-08  0.10566000000E+00  0.10566000000E+00 0. -1.
     999900   -1    0    0    0    0 -0.00000000000E+00 -0.00000000000E+00 -0.74505805969E-08  0.93827000000E+00  0.93827000000E+00 0.  1.
     999902    2    1    2    0    0  0.80957758629E-02  0.53066306997E-02  0.19899611589E-01  0.10218009138E+01  0.10215612615E+01 0.  0.
     999903    2    3    3    0    0  0.76973368632E-01  0.10400675667E+00 -0.14327072255E-01  0.13294923686E+00  0.26980171818E-01 0.  0.
         14    1    1    2    0    0 -0.80957758629E-02 -0.53066306997E-02 -0.19899611589E-01  0.22129086235E-01  0.00000000000E+00 0. -1.
     999901    1    3    3    0    0 -0.68877592769E-01 -0.98700125966E-01  0.34226683845E-01  0.88885167691E+00  0.88000000000E+00 0. -1.
        -11    1    4    4    0    0  0.45294022591E-01  0.38801434088E-01 -0.49221717189E-02  0.59846375539E-01  0.51100000000E-03 0.  1.
         11    1    4    4    0    0  0.31679346041E-01  0.65205322578E-01 -0.94049005365E-02  0.73102861320E-01  0.51100000000E-03 0. -1.
</event>
<event>
 8    1  0.1022673E+005  0.1043930E+01  0.7957747E-01            NaN
         13   -1    0    0    0    0  0.00000000000E+00  0.00000000000E+00  0.74505805969E-08  0.10566000000E+00  0.10566000000E+00 0.  1.
     999900   -1    0    0    0    0 -0.00000000000E+00 -0.00000000000E+00 -0.74505805969E-08  0.93827000000E+00  0.93827000000E+00 0.  1.
     999902    2    1    2    0    0 -0.18962350458E-01  0.86936175398E-02  0.92305359877E-02  0.10211187634E+01  0.10208639363E+01 0.  0.
     999903    2    3    3    0    0 -0.10880532113E+00 -0.25525161509E-01 -0.68260063761E-01  0.13249765332E+00  0.20150931870E-01 0.  0.
         14    1    1    2    0    0  0.18962350458E-01 -0.86936175398E-02 -0.92305359877E-02  0.22811236605E-01  0.00000000000E+00 0. -1.
     999901    1    3    3    0    0  0.89842970671E-01  0.34218779049E-01  0.77490599748E-01  0.88862111007E+00  0.88000000000E+00 0. -1.
        -11    1    4    4    0    0 -0.54321238274E-01 -0.21635784874E-01 -0.41252496739E-01  0.71560699570E-01  0.51100000000E-03 0. -1.
         11    1    4    4    0    0 -0.54484082855E-01 -0.38893766350E-02 -0.27007567021E-01  0.60936953752E-01  0.51100000000E-03 0.  1.
</event>
<event>
 8    1  0.1022673E+005  0.1043930E+01  0.7957747E-01            NaN
         13   -1    0    0    0    0  0.00000000000E+00  0.00000000000E+00  0.74505805969E-08  0.10566000000E+00  0.10566000000E+00 0. -1.
     999900   -1    0    0    0    0 -0.00000000000E+00 -0.00000000000E+00 -0.74505805969E-08  0.93827000000E+00  0.93827000000E+00 0. -1.
     999902    2    1    2    0    0 -0.22715151363E-01  0.43882653266E-02  0.13225656261E-02  0.10207570815E+01  0.10204940153E+01 0.  0.
     999903    2    3    3    0    0 -0.10170470417E+00  0.11892316182E-01 -0.82767631943E-01  0.13319478981E+00  0.20127024099E-01 0.  0.
         14    1    1    2    0    0  0.22715151363E-01 -0.43882653266E-02 -0.13225656261E-02  0.23172918544E-01  0.00000000000E+00 0.  1.
     999901    1    3    3    0    0  0.78989552809E-01 -0.75040508556E-02  0.84090197569E-01  0.88756229165E+00  0.88000000000E+00 0.  1.
        -11    1    4    4    0    0 -0.82953180784E-01  0.64066404716E-02 -0.75475074575E-01  0.11233442592E+00  0.51100000000E-03 0. -1.
         11    1    4    4    0    0 -0.18751523388E-01  0.54856757107E-02 -0.72925573684E-02  0.20860363883E-01  0.51100000000E-03 0.  1.
</event>
<event>
 8    1  0.1022673E+005  0.1043930E+01  0.7957747E-01            NaN
         13   -1    0    0    0    0  0.00000000000E+00  0.00000000000E+00  0.74505805969E-08  0.10566000000E+00  0.10566000000E+00 0. -1.
     999900   -1    0    0    0    0 -0.00000000000E+00 -0.00000000000E+00 -0.74505805969E-08  0.93827000000E+00  0.93827000000E+00 0.  1.
     999902    2    1    2    0    0 -0.64972430076E-02 -0.37614937283E-02  0.22340426539E-01  0.10203618507E+01  0.10200896278E+01 0.  0.
     999903    2    3    3    0    0  0.48161687108E-01  0.64821608844E-01  0.10278243576E+00  0.13235162701E+00  0.20768605941E-01 0.  0.
         14    1    1    2    0    0  0.64972430076E-02  0.37614937283E-02 -0.22340426539E-01  0.23568149264E-01  0.00000000000E+00 0.  1.
     999901    1    3    3    0    0 -0.54658930116E-01 -0.68583102573E-01 -0.80442009220E-01  0.88801022373E+00  0.88000000000E+00 0.  1.
        -11    1    4    4    0    0  0.26342976667E-01  0.42913864045E-01  0.77426958142E-01  0.92362043692E-01  0.51100000000E-03 0.  1.
         11    1    4    4    0    0  0.21818710442E-01  0.21907744800E-01  0.25355477617E-01  0.39989583315E-01  0.51100000000E-03 0. -1.
</event>
<event>
 8    1  0.1022673E+005  0.1043930E+01  0.7957747E-01            NaN
         13   -1    0    0    0    0  0.00000000000E+00  0.00000000000E+00  0.74505805969E-08  0.10566000000E+00  0.10566000000E+00 0.  1.
     999900   -1    0    0    0    0 -0.00000000000E+00 -0.00000000000E+00 -0.74505805969E-08  0.93827000000E+00  0.93827000000E+00 0.  1.
     999902    2    1    2    0    0 -0.13897798729E-01 -0.45079509066E-02  0.20279051393E-01  0.10189357935E+01  0.10186291970E+01 0.  0.
     999903    2    3    3    0    0  0.23011338078E-01  0.95512470165E-01  0.82649547910E-01  0.13030963602E+00  0.22304704246E-01 0.  0.
         14    1    1    2    0    0  0.13897798729E-01  0.45079509066E-02 -0.20279051393E-01  0.24994206454E-01  0.00000000000E+00 0. -1.
     999901    1    3    3    0    0 -0.36909136807E-01 -0.10002042107E+00 -0.62370496517E-01  0.88862615753E+00  0.88000000000E+00 0. -1.
        -11    1    4    4    0    0  0.72633439174E-02  0.26028709496E-01  0.36514009222E-01  0.45428888093E-01  0.51100000000E-03 0.  1.
         11    1    4    4    0    0  0.15747994161E-01  0.69483760669E-01  0.46135538688E-01  0.84880747922E-01  0.51100000000E-03 0. -1.
</event>
<event>
 8    1  0.1022673E+005  0.1043930E+01  0.7957747E-01            NaN
         13   -1    0    0    0    0  0.00000000000E+00  0.00000000000E+00  0.74505805969E-08  0.10566000000E+00  0.10566000000E+00 0.  1.
     999900   -1    0    0    0    0 -0.00000000000E+00 -0.00000000000E+00 -0.74505805969E-08  0.93827000000E+00  0.93827000000E+00 0. -1.
     999902    2    1    2    0    0 -0.10196457438E-01  0.14963541798E-01 -0.19146330019E-01  0.10175774426E+01  0.10172361547E+01 0.  0.
     999903    2    3    3    0    0  0.12204720901E+00  0.27851951670E-01 -0.14435009528E-01  0.12759053543E+00  0.19993068632E-01 0.  0.
         14    1    1    2    0    0  0.10196457438E-01 -0.14963541798E-01  0.19146330019E-01  0.26352557382E-01  0.00000000000E+00 0.  1.
     999901    1    3    3    0    0 -0.13224366644E+00 -0.12888409873E-01 -0.47113204904E-02  0.88998690719E+00  0.88000000000E+00 0. -1.
        -11    1    4    4    0    0  0.16524554891E-01  0.43152210032E-02  0.48628586637E-02  0.17764868759E-01  0.51100000000E-03 0. -1.
         11    1    4    4    0    0  0.10552265412E+00  0.23536730667E-01 -0.19297868192E-01  0.10982566667E+00  0.51100000000E-03 0.  1.
</event>
<event>
 8    1  0.1022673E+005  0.1043930E+01  0.7957747E-01            NaN
         13   -1    0    0    0    0  0.00000000000E+00  0.00000000000E+00  0.74505805969E-08  0.10566000000E+00  0.10566000000E+00 0. -1.
     999900   -1    0    0    0    0 -0.00000000000E+00 -0.00000000000E+00 -0.74505805969E-08  0.93827000000E+00  0.93827000000E+00 0. -1.
     999902    2    1    2    0    0 -0.24175917535E-02  0.17638739947E-01 -0.13371401838E-01  0.10216642352E+01  0.10214215805E+01 0.  0.
     999903    2    3    3    0    0  0.89528447979E-01  0.28618717546E-01 -0.92341020591E-01  0.13328884445E+00  0.20116609552E-01 0.  0.
         14    1    1    2    0    0  0.24175917535E-02 -0.17638739947E-01  0.13371401838E-01  0.22265764840E-01  0.00000000000E+00 0. -1.
     999901    1    3    3    0    0 -0.91946039733E-01 -0.10979977599E-01  0.78969618753E-01  0.88837539071E+00  0.88000000000E+00 0.  1.
        -11    1    4    4    0    0  0.18318399521E-01  0.39259998914E-04 -0.26269942829E-01  0.32030240705E-01  0.51100000000E-03 0.  1.
         11    1    4    4    0    0  0.71210048458E-01  0.28579457547E-01 -0.66071077762E-01  0.10125860375E+00  0.51100000000E-03 0. -1.
</event>
<event>
 8    1  0.1022673E+005  0.1043930E+01  0.7957747E-01            NaN
         13   -1    0    0    0    0  0.00000000000E+00  0.00000000000E+00  0.74505805969E-08  0.10566000000E+00  0.10566000000E+00 0.  1.
     999900   -1    0    0    0    0 -0.00000000000E+00 -0.00000000000E+00 -0.74505805969E-08  0.93827000000E+00  0.93827000000E+00 0. -1.
     999902    2    1    2    0    0  0.11533249826E-01  0.22569420016E-01  0.60999967455E-03  0.10185771565E+01  0.10182615858E+01 0.  0.
     999903    2    3    3    0    0  0.21308624913E-01 -0.11849050540E+00  0.33962144218E-01  0.12666582348E+00  0.19918489695E-01 0.  0.
         14    1    1    2    0    0 -0.11533249826E-01 -0.22569420016E-01 -0.60999967455E-03  0.25352843450E-01  0.00000000000E+00 0.  1.
     999901    1    3    3    0    0 -0.97753750873E-02  0.14105992542E+00 -0.33352144543E-01  0.89191133307E+00  0.88000000000E+00 0. -1.
        -11    1    4    4    0    0  0.12911760391E-01 -0.10162833099E+00  0.23481200680E-01  0.10510308808E+00  0.51100000000E-03 0.  1.
         11    1    4    4    0    0  0.83968645223E-02 -0.16862174406E-01  0.10480943537E-01  0.21562735400E-01  0.51100000000E-03 0. -1.
</event>
<event>
 8    1  0.1022673E+005  0.1043930E+01  0.7957747E-01            NaN
         13   -1    0    0    0    0  0.00000000000E+00  0.00000000000E+00  0.74505805969E-08  0.10566000000E+00  0.10566000000E+00 0. -1.
     999900   -1    0    0    0    0 -0.00000000000E+00 -0.00000000000E+00 -0.74505805969E-08  0.93827000000E+00  0.93827000000E+00 0.  1.
     999902    2    1    2    0    0 -0.13104472352E-01 -0.13461201639E-01  0.15638392195E-01  0.10194863821E+01  0.10191933049E+01 0.  0.
     999903    2    3    3    0    0  0.22208120993E-01 -0.12613353372E+00  0.25577678690E-01  0.13154447912E+00  0.15711886332E-01 0.  0.
         14    1    1    2    0    0  0.13104472352E-01  0.13461201639E-01 -0.15638392195E-01  0.24443617892E-01  0.00000000000E+00 0.  1.
     999901    1    3    3    0    0 -0.35312593345E-01  0.11267233209E+00 -0.99392864950E-02  0.88794190299E+00  0.88000000000E+00 0. -1.
        -11    1    4    4    0    0  0.16861713259E-01 -0.52013404578E-01  0.12436291064E-01  0.56077037068E-01  0.51100000000E-03 0. -1.
         11    1    4    4    0    0  0.53464077336E-02 -0.74120129145E-01  0.13141387626E-01  0.75467442052E-01  0.51100000000E-03 0.  1.
</event>
<event>
 8    1  0.1022673E+005  0.1043930E+01  0.7957747E-01            NaN
         13   -1    0    0    0    0  0.00000000000E+00  0.00000000000E+00  0.74505805969E-08  0.10566000000E+00  0.10566000000E+00 0. -1.
     999900   -1    0    0    0    0 -0.00000000000E+00 -0.00000000000E+00 -0.74505805969E-08  0.93827000000E+00  0.93827000000E+00 0.  1.
     999902    2    1    2    0    0  0.43052674209E-02  0.10977886689E-01 -0.17665179933E-01  0.10226906990E+01  0.10224701257E+01 0.  0.
     999903    2    3    3    0    0  0.78652609610E-01 -0.95855880663E-01 -0.43781114142E-01  0.13273394550E+00  0.18081246509E-01 0.  0.
         14    1    1    2    0    0 -0.43052674209E-02 -0.10977886689E-01  0.17665179933E-01  0.21239300972E-01  0.00000000000E+00 0. -1.
     999901    1    3    3    0    0 -0.74347342190E-01  0.10683376735E+00  0.26115934209E-01  0.88995675353E+00  0.88000000000E+00 0.  1.
        -11    1    4    4    0    0  0.18364593660E-01 -0.15760508121E-01 -0.14827440942E-01  0.28386018432E-01  0.51100000000E-03 0.  1.
         11    1    4    4    0    0  0.60288015950E-01 -0.80095372541E-01 -0.28953673200E-01  0.10434792706E+00  0.51100000000E-03 0. -1.
</event>
<event>
 8    1  0.1022673E+005  0.1043930E+01  0.7957747E-01            NaN
         13   -1    0    0    0    0  0.00000000000E+00  0.00000000000E+00  0.74505805969E-08  0.10566000000E+00  0.10566000000E+00 0. -1.
     999900   -1    0    0    0    0 -0.00000000000E+00 -0.00000000000E+00 -0.74505805969E-08  0.93827000000E+00  0.93827000000E+00 0.  1.
     999902    2    1    2    0    0  0.49990517657E-02  0.18084559105E-01 -0.14595590290E-01  0.10201587347E+01  0.10198817436E+01 0.  0.
     999903    2    3    3    0    0  0.26503176893E-01 -0.95724493018E-01 -0.81996674797E-01  0.13001389599E+00  0.17735882386E-01 0.  0.
         14    1    1    2    0    0 -0.49990517657E-02 -0.18084559105E-01  0.14595590290E-01  0.23771265269E-01  0.00000000000E+00 0.  1.
     999901    1    3    3    0    0 -0.21504125127E-01  0.11380905212E+00  0.67401084507E-01  0.89014483874E+00  0.88000000000E+00 0. -1.
        -11    1    4    4    0    0  0.21715727653E-01 -0.50427398548E-01 -0.50805642558E-01  0.74806214906E-01  0.51100000000E-03 0.  1.
         11    1    4    4    0    0  0.47874492396E-02 -0.45297094470E-01 -0.31191032239E-01  0.55207681085E-01  0.51100000000E-03 0. -1.
</event>
<event>
 8    1  0.1022673E+005  0.1043930E+01  0.7957747E-01            NaN
         13   -1    0    0    0    0  0.00000000000E+00  0.00000000000E+00  0.74505805969E-08  0.10566000000E+00  0.10566000000E+00 0.  1.
     999900   -1    0    0    0    0 -0.00000000000E+00 -0.00000000000E+00 -0.74505805969E-08  0.93827000000E+00  0.93827000000E+00 0. -1.
     999902    2    1    2    0    0  0.20031109817E-01  0.38765366175E-02  0.11394213316E-01  0.10205611961E+01  0.10202936117E+01 0.  0.
     999903    2    3    3    0    0 -0.10164483519E+00  0.64425737831E-01 -0.40501531441E-01  0.12861702206E+00  0.20484533116E-01 0.  0.
         14    1    1    2    0    0 -0.20031109817E-01 -0.38765366175E-02 -0.11394213316E-01  0.23368803858E-01  0.00000000000E+00 0. -1.
     999901    1    3    3    0    0  0.12167594501E+00 -0.60549201213E-01  0.51895744757E-01  0.89194417409E+00  0.88000000000E+00 0.  1.
        -11    1    4    4    0    0 -0.16536956289E-01  0.18777096268E-01 -0.12988789983E-01  0.28196099975E-01  0.51100000000E-03 0. -1.
         11    1    4    4    0    0 -0.85107878905E-01  0.45648641563E-01 -0.27512741458E-01  0.10042092208E+00  0.51100000000E-03 0.  1.
</event>
<event>
 8    1  0.1022673E+005  0.1043930E+01  0.7957747E-01            NaN
         13   -1    0    0    0    0  0.00000000000E+00  0.00000000000E+00  0.74505805969E-08  0.10566000000E+00  0.10566000000E+00 0. -1.
     999900   -1    0    0    0    0 -0.00000000000E+00 -0.00000000000E+00 -0.74505805969E-08  0.93827000000E+00  0.93827000000E+00 0. -1.
     999902    2    1    2    0    0 -0.21912363292E-01  0.29506378538E-02 -0.93392212236E-02  0.10199283546E+01  0.10196459040E+01 0.  0.
     999903    2    3    3    0    0 -0.10335676242E+00 -0.43107962022E-01  0.66254721460E-01  0.13174536166E+00  0.20645471076E-01 0.  0.
         14    1    1    2    0    0  0.21912363292E-01 -0.29506378538E-02  0.93392212236E-02  0.24001645399E-01  0.00000000000E+00 0.  1.
     999901    1    3    3    0    0  0.81444399131E-01  0.46058599875E-01 -0.75593942683E-01  0.88818299294E+00  0.88000000000E+00 0. -1.
        -11    1    4    4    0    0 -0.10866313651E-01  0.17416863062E-02  0.77544622143E-02  0.13472306736E-01  0.51100000000E-03 0. -1.
         11    1    4    4    0    0 -0.92490448772E-01 -0.44849648328E-01  0.58500259245E-01  0.11827305493E+00  0.51100000000E-03 0.  1.
</event>
<event>
 8    1  0.1022673E+005  0.1043930E+01  0.7957747E-01            NaN
         13   -1    0    0    0    0  0.00000000000E+00  0.00000000000E+00  0.74505805969E-08  0.10566000000E+00  0.10566000000E+00 0.  1.
     999900   -1    0    0    0    0 -0.00000000000E+00 -0.00000000000E+00 -0.74505805969E-08  0.93827000000E+00  0.93827000000E+00 0.  1.
     999902    2    1    2    0    0  0.19322150069E-01  0.98515138179E-02 -0.76159139051E-02  0.10209430482E+01  0.10206842351E+01 0.  0.
     999903    2    3    3    0    0  0.87105034154E-02 -0.12349512620E+00 -0.36396104546E-01  0.13036894528E+00  0.18559806069E-01 0.  0.
         14    1    1    2    0    0 -0.19322150069E-01 -0.98515138179E-02  0.76159139051E-02  0.22986951786E-01  0.00000000000E+00 0.  1.
     999901    1    3    3    0    0  0.10611646654E-01  0.13334664002E+00  0.28780190641E-01  0.89057410294E+00  0.88000000000E+00 0. -1.
        -11    1    4    4    0    0  0.61214136181E-02 -0.62148467457E-01 -0.88700088872E-02  0.63078061881E-01  0.51100000000E-03 0. -1.
         11    1    4    4    0    0  0.25890897974E-02 -0.61346658743E-01 -0.27526095659E-01  0.67290883396E-01  0.51100000000E-03 0.  1.
</event>
<event>
 8    1  0.1022673E+005  0.1043930E+01  0.7957747E-01            NaN
         13   -1    0    0    0    0  0.00000000000E+00  0.00000000000E+00  0.74505805969E-08  0.10566000000E+00  0.10566000000E+00 0. -1.
     999900   -1    0    0    0    0 -0.00000000000E+00 -0.00000000000E+00 -0.74505805969E-08  0.93827000000E+00  0.93827000000E+00 0. -1.
     999902    2    1    2    0    0  0.35619262491E-02  0.14378192458E-04 -0.22115534497E-01  0.10215294556E+01  0.10212838216E+01 0.  0.
     999903    2    3    3    0    0  0.13407996186E-01 -0.12887836523E+00  0.96246485076E-02  0.13151949852E+00  0.20379824486E-01 0.  0.
         14    1    1    2    0    0 -0.35619262491E-02 -0.14378192458E-04  0.22115534497E-01  0.22400544445E-01  0.00000000000E+00 0. -1.
     999901    1    3    3    0    0 -0.98460699365E-02  0.12889274342E+00 -0.31740183005E-01  0.89000995703E+00  0.88000000000E+00 0.  1.
        -11    1    4    4    0    0  0.16939730929E-02 -0.25472982153E-01  0.10076034129E-01  0.27450499984E-01  0.51100000000E-03 0.  1.
         11    1    4    4    0    0  0.11714023093E-01 -0.10340538308E+00 -0.45138562174E-03  0.10406899854E+00  0.51100000000E-03 0. -1.
</event>
<event>
 8    1  0.1022673E+005  0.1043930E+01  0.7957747E-01            NaN
         13   -1    0    0    0    0  0.00000000000E+00  0.00000000000E+00  0.74505805969E-08  0.10566000000E+00  0.10566000000E+00 0. -1.
     999900   -1    0    0    0    0 -0.00000000000E+00 -0.00000000000E+00 -0.74505805969E-08  0.93827000000E+00  0.93827000000E+00 0.  1.
     999902    2    1    2    0    0 -0.18320384169E-01 -0.16272652734E-01  0.45051361525E-02  0.10190155071E+01  0.10187108873E+01 0.  0.
     999903    2    3    3    0    0  0.72667016335E-01 -0.46597839252E-01  0.94286012059E-01  0.12926333396E+00  0.19165165020E-01 0.  0.
         14    1    1    2    0    0  0.18320384169E-01  0.16272652734E-01 -0.45051361525E-02  0.24914492868E-01  0.00000000000E+00 0.  1.
     999901    1    3    3    0    0 -0.90987400505E-01  0.30325186518E-01 -0.89780875907E-01  0.88975217317E+00  0.88000000000E+00 0. -1.
        -11    1    4    4    0    0  0.22370931473E-01 -0.47642153523E-02  0.27516336605E-01  0.35784999986E-01  0.51100000000E-03 0. -1.
         11    1    4    4    0    0  0.50296084862E-01 -0.41833623899E-01  0.66769675454E-01  0.93478333973E-01  0.51100000000E-03 0.  1.
</event>
<event>
 8    1  0.1022673E+005  0.1043930E+01  0.7957747E-01            NaN
         13   -1    0    0    0    0  0.00000000000E+00  0.00000000000E+00  0.74505805969E-08  0.10566000000E+00  0.10566000000E+00 0. -1.
     999900   -1    0    0    0    0 -0.00000000000E+00 -0.00000000000E+00 -0.74505805969E-08  0.93827000000E+00  0.93827000000E+00 0.  1.
     999902    2    1    2    0    0 -0.21659889023E-02 -0.16868716566E-01  0.17042845523E-01  0.10198529634E+01  0.10195687144E+01 0.  0.
     999903    2    3    3    0    0  0.81617093579E-01 -0.60652648435E-01  0.82605825634E-01  0.13236485536E+00  0.18884882309E-01 0.  0.
         14    1    1    2    0    0  0.21659889023E-02  0.16868716566E-01 -0.17042845523E-01  0.24077036571E-01  0.00000000000E+00 0.  1.
     999901    1    3    3    0    0 -0.83783082481E-01  0.43783931868E-01 -0.65562980112E-01  0.88748810807E+00  0.88000000000E+00 0.  1.
        -11    1    4    4    0    0  0.35426998140E-01 -0.21324439642E-01  0.44375156308E-01  0.60656570473E-01  0.51100000000E-03 0.  1.
         11    1    4    4    0    0  0.46190095439E-01 -0.39328208793E-01  0.38230669327E-01  0.71708284889E-01  0.51100000000E-03 0. -1.
</event>
<event>
 8    1  0.1022673E+005  0.1043930E+01  0.7957747E-01            NaN
         13   -1    0    0    0    0  0.00000000000E+00  0.00000000000E+00  0.74505805969E-08  0.10566000000E+00  0.10566000000E+00 0.  1.
     999900   -1    0    0    0    0 -0.00000000000E+00 -0.00000000000E+00 -0.74505805969E-08  0.93827000000E+00  0.93827000000E+00 0. -1.
     999902    2    1    2    0    0  0.21788378454E-01 -0.11218631842E-01 -0.65844105720E-03  0.10194141953E+01  0.10191193634E+01 0.  0.
     999903    2    3    3    0    0  0.64720933788E-02  0.78431127313E-01 -0.10066185723E+00  0.12909270776E+00  0.18406193855E-01 0.  0.
         14    1    1    2    0    0 -0.21788378454E-01  0.11218631842E-01  0.65844105720E-03  0.24515804713E-01  0.00000000000E+00 0. -1.
     999901    1    3    3    0    0  0.15316285075E-01 -0.89649759156E-01  0.10000341617E+00  0.89032148753E+00  0.88000000000E+00 0.  1.
        -11    1    4    4    0    0  0.55387946269E-03  0.23191547249E-01 -0.17427851951E-01  0.29019748292E-01  0.51100000000E-03 0.  1.
         11    1    4    4    0    0  0.59182139161E-02  0.55239580064E-01 -0.83234005277E-01  0.10007295947E+00  0.51100000000E-03 0. -1.
</event>
<event>
 8    1  0.1022673E+005  0.1043930E+01  0.7957747E-01            NaN
         13   -1    0    0    0    0  0.00000000000E+00  0.00000000000E+00  0.74505805969E-08  0.10566000000E+00  0.10566000000E+00 0. -1.
     999900   -1    0    0    0    0 -0.00000000000E+00 -0.00000000000E+00 -0.74505805969E-08  0.93827000000E+00  0.93827000000E+00 0.  1.
     999902    2    1    2    0    0  0.19612036921E-01 -0.15246057272E-02  0.12042584400E-01  0.10208653029E+01  0.10206047160E+01 0.  0.
     999903    2    3    3    0    0 -0.11308438437E+00  0.41284137872E-01 -0.39736622372E-01  0.12838448234E+00  0.20276047976E-01 0.  0.
         14    1    1    2    0    0 -0.19612036921E-01  0.15246057272E-02 -0.12042584400E-01  0.23064697133E-01  0.00000000000E+00 0. -1.
     999901    1    3    3    0    0  0.13269642129E+00 -0.42808743599E-01  0.51779206772E-01  0.89248082052E+00  0.88000000000E+00 0. -1.
        -11    1    4    4    0    0 -0.90360821533E-01  0.37443096646E-01 -0.24769784001E-01  0.10090028184E+00  0.51100000000E-03 0.  1.
         11    1    4    4    0    0 -0.22723562833E-01  0.38410412259E-02 -0.14966838372E-01  0.27484200504E-01  0.51100000000E-03 0. -1.
</event>
<event>
 8    1  0.1022673E+005  0.1043930E+01  0.7957747E-01            NaN
         13   -1    0    0    0    0  0.00000000000E+00  0.00000000000E+00  0.74505805969E-08  0.10566000000E+00  0.10566000000E+00 0. -1.
     999900   -1    0    0    0    0 -0.00000000000E+00 -0.00000000000E+00 -0.74505805969E-08  0.93827000000E+00  0.93827000000E+00 0. -1.
     999902    2    1    2    0    0  0.48597996130E-02  0.14101350599E-01 -0.20954503855E-01  0.10182092502E+01  0.10178843353E+01 0.  0.
     999903    2    3    3    0    0 -0.10021511795E+00 -0.37330596429E-01 -0.69619473138E-01  0.12913430240E+00  0.19802871540E-01 0.  0.
         14    1    1    2    0    0 -0.48597996130E-02 -0.14101350599E-01  0.20954503855E-01  0.25720749850E-01  0.00000000000E+00 0.  1.
     999901    1    3    3    0    0  0.10507491757E+00  0.51431947028E-01  0.48664969283E-01  0.88907494775E+00  0.88000000000E+00 0.  1.
        -11    1    4    4    0    0 -0.45250096720E-01 -0.89826748794E-02 -0.22190824255E-01  0.51195248835E-01  0.51100000000E-03 0.  1.
         11    1    4    4    0    0 -0.54965021232E-01 -0.28347921549E-01 -0.47428648883E-01  0.77939053568E-01  0.51100000000E-03 0. -1.
</event>
<event>
 8    1  0.1022673E+005  0.1043930E+01  0.7957747E-01            NaN
         13   -1    0    0    0    0  0.00000000000E+00  0.00000000000E+00  0.74505805969E-08  0.10566000000E+00  0.10566000000E+00 0.  1.
     999900   -1    0    0    0    0 -0.00000000000E+00 -0.00000000000E+00 -0.74505805969E-08  0.93827000000E+00  0.93827000000E+00 0.  1.
     999902    2    1    2    0    0  0.14926935692E-01 -0.14615858362E-01  0.86916797050E-02  0.10213029803E+01  0.10210522981E+01 0.  0.
     999903    2    3    3    0    0 -0.58628709513E-01  0.11293016375E+00 -0.64834387562E-02  0.12894167179E+00  0.19833614932E-01 0.  0.
         14    1    1    2    0    0 -0.14926935692E-01  0.14615858362E-01 -0.86916797050E-02  0.22627019709E-01  0.00000000000E+00 0. -1.
     999901    1    3    3    0    0  0.73555645205E-01 -0.12754602211E+00  0.15175118461E-01  0.89236130851E+00  0.88000000000E+00 0.  1.
        -11    1    4    4    0    0 -0.29170418821E-01  0.74990216135E-01 -0.81438230409E-02  0.80876627186E-01  0.51100000000E-03 0. -1.
         11    1    4    4    0    0 -0.29458290692E-01  0.37939947613E-01  0.16603842847E-02  0.48065044600E-01  0.51100000000E-03 0.  1.
</event>
<event>
 8    1  0.1022673E+005  0.1043930E+01  0.7957747E-01            NaN
         13   -1    0    0    0    0  0.00000000000E+00  0.00000000000E+00  0.74505805969E-08  0.10566000000E+00  0.10566000000E+00 0. -1.
     999900   -1    0    0    0    0 -0.00000000000E+00 -0.00000000000E+00 -0.74505805969E-08  0.93827000000E+00  0.93827000000E+00 0. -1.
     999902    2    1    2    0    0 -0.19720947771E-01 -0.13553929821E-02 -0.11421836301E-01  0.10210999493E+01  0.10208446969E+01 0.  0.
     999903    2    3    3    0    0 -0.10308682437E+00 -0.10365826770E-01  0.80075270400E-01  0.13239146062E+00  0.19521941303E-01 0.  0.
         14    1    1    2    0    0  0.19720947771E-01  0.13553929821E-02  0.11421836301E-01  0.22830050714E-01  0.00000000000E+00 0. -1.
     999901    1    3    3    0    0  0.83365876594E-01  0.90104337879E-02 -0.91497106701E-01  0.88870848867E+00  0.88000000000E+00 0. -1.
        -11    1    4    4    0    0 -0.33854198990E-01  0.44063644190E-02  0.20187492883E-01  0.39665083216E-01  0.51100000000E-03 0.  1.
         11    1    4    4    0    0 -0.69232625376E-01 -0.14772191189E-01  0.59887777518E-01  0.92726377401E-01  0.51100000000E-03 0. -1.
</event>
<event>
 8    1  0.1022673E+005  0.1043930E+01  0.7957747E-01            NaN
         13   -1    0    0    0    0  0.00000000000E+00  0.00000000000E+00  0.74505805969E-08  0.10566000000E+00  0.10566000000E+00 0. -1.
     999900   -1    0    0    0    0 -0.00000000000E+00 -0.00000000000E+00 -0.74505805969E-08  0.93827000000E+00  0.93827000000E+00 0. -1.
     999902    2    1    2    0    0 -0.49301720414E-02 -0.22762540479E-01 -0.50422248228E-02  0.10201001054E+01  0.10198217301E+01 0.  0.
     999903    2    3    3    0    0  0.75021444658E-01 -0.10558220947E+00 -0.18099124846E-01  0.13250681947E+00  0.21322728994E-01 0.  0.
         14    1    1    2    0    0  0.49301720414E-02  0.22762540479E-01  0.50422248228E-02  0.23829894598E-01  0.00000000000E+00 0.  1.
     999901    1    3    3    0    0 -0.79951616699E-01  0.82819668992E-01  0.13056900023E-01  0.88759328593E+00  0.88000000000E+00 0.  1.
        -11    1    4    4    0    0  0.24054908224E-01 -0.51918750559E-01 -0.64613346054E-02  0.57586502195E-01  0.51100000000E-03 0. -1.
         11    1    4    4    0    0  0.50966536434E-01 -0.53663458912E-01 -0.11637790241E-01  0.74920317279E-01  0.51100000000E-03 0.  1.
</event>
<event>
 8    1  0.1022673E+005  0.1043930E+01  0.7957747E-01            NaN
         13   -1    0    0    0    0  0.00000000000E+00  0.00000000000E+00  0.74505805969E-08  0.10566000000E+00  0.10566000000E+00 0.  1.
     999900   -1    0    0    0    0 -0.00000000000E+00 -0.00000000000E+00 -0.74505805969E-08  0.93827000000E+00  0.93827000000E+00 0.  1.
     999902    2    1    2    0    0  0.36418637697E-03  0.24753013488E-02 -0.23448012748E-01  0.10203488836E+01  0.10200763575E+01 0.  0.
     999903    2    3    3    0    0 -0.10819312599E+00  0.35140111280E-01  0.58174037214E-01  0.12933045568E+00  0.20039167349E-01 0.  0.
         14    1    1    2    0    0 -0.36418637697E-03 -0.24753013488E-02  0.23448012748E-01  0.23581116392E-01  0.00000000000E+00 0.  1.
     999901    1    3    3    0    0  0.10855731236E+00 -0.32664809931E-01 -0.81622049962E-01  0.89101842793E+00  0.88000000000E+00 0.  1.
        -11    1    4    4    0    0 -0.97516715486E-02  0.12492684661E-02  0.11769049622E-01  0.15343644277E-01  0.51100000000E-03 0.  1.
         11    1    4    4    0    0 -0.98441454437E-01  0.33890842814E-01  0.46404987592E-01  0.11398681140E+00  0.51100000000E-03 0. -1.
</event>
<event>
 8    1  0.1022673E+005  0.1043930E+01  0.7957747E-01            NaN
         13   -1    0    0    0    0  0.00000000000E+00  0.00000000000E+00  0.74505805969E-08  0.10566000000E+00  0.10566000000E+00 0.  1.
     999900   -1    0    0    0    0 -0.00000000000E+00 -0.00000000000E+00 -0.74505805969E-08  0.93827000000E+00  0.93827000000E+00 0.  1.
     999902    2    1    2    0    0 -0.15294661293E-01  0.63654573043E-02  0.16225357630E-01  0.10207414696E+01  0.10204780448E+01 0.  0.
     999903    2    3    3    0    0  0.29084517243E-01 -0.12383551220E+00 -0.14054645868E-01  0.12954077250E+00  0.20053315064E-01 0.  0.
         14    1    1    2    0    0  0.15294661293E-01 -0.63654573043E-02 -0.16225357630E-01  0.23188530375E-01  0.00000000000E+00 0. -1.
     999901    1    3    3    0    0 -0.44379178536E-01  0.13020096950E+00  0.30280003498E-01  0.89120069713E+00  0.88000000000E+00 0. -1.
        -11    1    4    4    0    0  0.17944239551E-01 -0.62544791418E-01 -0.16730046902E-01  0.67186324925E-01  0.51100000000E-03 0.  1.
         11    1    4    4    0    0  0.11140277692E-01 -0.61290720778E-01  0.26754010343E-02  0.62354447574E-01  0.51100000000E-03 0. -1.
</event>
<event>
 8    1  0.1022673E+005  0.1043930E+01  0.7957747E-01            NaN
         13   -1    0    0    0    0  0.00000000000E+00  0.00000000000E+00  0.74505805969E-08  0.10566000000E+00  0.10566000000E+00 0.  1.
     999900   -1    0    0    0    0 -0.00000000000E+00 -0.00000000000E+00 -0.74505805969E-08  0.93827000000E+00  0.93827000000E+00 0. -1.
     999902    2    1    2    0    0  0.18746135941E-01  0.55426590373E-02  0.12559215151E-01  0.10206948420E+01  0.10204303445E+01 0.  0.
     999903    2    3    3    0    0  0.73762630946E-01 -0.20749801283E-02 -0.10632028200E+00  0.13096613167E+00  0.20072219943E-01 0.  0.
         14    1    1    2    0    0 -0.18746135941E-01 -0.55426590373E-02 -0.12559215151E-01  0.23235157997E-01  0.00000000000E+00 0. -1.
     999901    1    3    3    0    0 -0.55016495005E-01  0.76176391656E-02  0.11887949715E+00  0.88972871033E+00  0.88000000000E+00 0.  1.
        -11    1    4    4    0    0  0.58425493939E-01 -0.30083229303E-02 -0.96089799975E-01  0.11249932946E+00  0.51100000000E-03 0. -1.
         11    1    4    4    0    0  0.15337137007E-01  0.93334280205E-03 -0.10230482023E-01  0.18466802208E-01  0.51100000000E-03 0.  1.
</event>
<event>
 8    1  0.1022673E+005  0.1043930E+01  0.7957747E-01            NaN
         13   -1    0    0    0    0  0.00000000000E+00  0.00000000000E+00  0.74505805969E-08  0.10566000000E+00  0.10566000000E+00 0.  1.
     999900   -1    0    0    0    0 -0.00000000000E+00 -0.00000000000E+00 -0.74505805969E-08  0.93827000000E+00  0.93827000000E+00 0.  1.
     999902    2    1    2    0    0  0.12757274238E-01  0.61479119510E-02 -0.10251120983E-02  0.10297315592E+01  0.10296336670E+01 0.  0.
     999903    2    3    3    0    0  0.42923812740E-01  0.64541127596E-01 -0.11492035558E+00  0.13996085040E+00  0.19347885355E-01 0.  0.
         14    1    1    2    0    0 -0.12757274238E-01 -0.61479119510E-02  0.10251120983E-02  0.14198440836E-01  0.00000000000E+00 0. -1.
     999901    1    3    3    0    0 -0.30166538501E-01 -0.58393215645E-01  0.11389524348E+00  0.88977070876E+00  0.88000000000E+00 0. -1.
        -11    1    4    4    0    0  0.16251967320E-01  0.11003774790E-01 -0.35063098973E-01  0.40185713033E-01  0.51100000000E-03 0.  1.
         11    1    4    4    0    0  0.26671845420E-01  0.53537352806E-01 -0.79857256608E-01  0.99775137372E-01  0.51100000000E-03 0. -1.
</event>
<event>
 8    1  0.1022673E+005  0.1043930E+01  0.7957747E-01            NaN
         13   -1    0    0    0    0  0.00000000000E+00  0.00000000000E+00  0.74505805969E-08  0.10566000000E+00  0.10566000000E+00 0. -1.
     999900   -1    0    0    0    0 -0.00000000000E+00 -0.00000000000E+00 -0.74505805969E-08  0.93827000000E+00  0.93827000000E+00 0.  1.
     999902    2    1    2    0    0  0.41342475830E-02  0.63747020767E-02 -0.22697757515E-01  0.10199943148E+01  0.10197134329E+01 0.  0.
     999903    2    3    3    0    0  0.98666326747E-01 -0.81903233766E-01  0.58105449616E-02  0.13008306571E+00  0.21086911040E-01 0.  0.
         14    1    1    2    0    0 -0.41342475830E-02 -0.63747020767E-02  0.22697757515E-01  0.23935685197E-01  0.00000000000E+00 0. -1.
     999901    1    3    3    0    0 -0.94532079164E-01  0.88277935843E-01 -0.28508302477E-01  0.88991124909E+00  0.88000000000E+00 0. -1.
        -11    1    4    4    0    0  0.28874640063E-01 -0.12316490156E-01  0.12533917258E-02  0.31420898783E-01  0.51100000000E-03 0. -1.
         11    1    4    4    0    0  0.69791686684E-01 -0.69586743611E-01  0.45571532358E-02  0.98662166929E-01  0.51100000000E-03 0.  1.
</event>
<event>
 8    1  0.1022673E+005  0.1043930E+01  0.7957747E-01            NaN
         13   -1    0    0    0    0  0.00000000000E+00  0.00000000000E+00  0.74505805969E-08  0.10566000000E+00  0.10566000000E+00 0. -1.
     999900   -1    0    0    0    0 -0.00000000000E+00 -0.00000000000E+00 -0.74505805969E-08  0.93827000000E+00  0.93827000000E+00 0. -1.
     999902    2    1    2    0    0  0.11956876760E-01 -0.20247707873E-01  0.63118467926E-02  0.10195830087E+01  0.10192922719E+01 0.  0.
     999903    2    3    3    0    0  0.11906907171E+00  0.30957060761E-01  0.40694409378E-01  0.13094522464E+00  0.18837023426E-01 0.  0.
         14    1    1    2    0    0 -0.11956876760E-01  0.20247707873E-01 -0.63118467926E-02  0.24346991311E-01  0.00000000000E+00 0. -1.
     999901    1    3    3    0    0 -0.10711219495E+00 -0.51204768633E-01 -0.34382562586E-01  0.88863778405E+00  0.88000000000E+00 0. -1.
        -11    1    4    4    0    0  0.26856737649E-01  0.15284713557E-01  0.11109730236E-01  0.32841955676E-01  0.51100000000E-03 0. -1.
         11    1    4    4    0    0  0.92212334060E-01  0.15672347204E-01  0.29584679142E-01  0.98103268960E-01  0.51100000000E-03 0.  1.
</event>
<event>
 8    1  0.1022673E+005  0.1043930E+01  0.7957747E-01            NaN
         13   -1    0    0    0    0  0.00000000000E+00  0.00000000000E+00  0.74505805969E-08  0.10566000000E+00  0.10566000000E+00 0. -1.
     999900   -1    0    0    0    0 -0.00000000000E+00 -0.00000000000E+00 -0.74505805969E-08  0.93827000000E+00  0.93827000000E+00 0. -1.
     999902    2    1    2    0    0 -0.16686006954E-01 -0.29217565902E-03  0.16156742384E-01  0.10207018163E+01  0.10204374793E+01 0.  0.
     999903    2    3    3    0    0  0.84499519676E-01 -0.94284306622E-01  0.22112015412E-01  0.12991087741E+00  0.18926054633E-01 0.  0.
         14    1    1    2    0    0  0.16686006954E-01  0.29217565902E-03 -0.16156742384E-01  0.23228183725E-01  0.00000000000E+00 0.  1.
     999901    1    3    3    0    0 -0.10118552663E+00  0.93992130963E-01 -0.59552730280E-02  0.89079093886E+00  0.88000000000E+00 0.  1.
        -11    1    4    4    0    0  0.46599333431E-01 -0.38483566976E-01  0.13264639176E-01  0.61876446059E-01  0.51100000000E-03 0. -1.
         11    1    4    4    0    0  0.37900186246E-01 -0.55800739646E-01  0.88473762360E-02  0.68034431354E-01  0.51100000000E-03 0.  1.
</event>
<event>
 8    1  0.1022673E+005  0.1043930E+01  0.7957747E-01            NaN
         13   -1    0    0    0    0  0.00000000000E+00  0.00000000000E+00  0.74505805969E-08  0.10566000000E+00  0.10566000000E+00 0.  1.
     999900   -1    0    0    0    0 -0.00000000000E+00 -0.00000000000E+00 -0.74505805969E-08  0.93827000000E+00  0.93827000000E+00 0.  1.
     999902    2    1    2    0    0 -0.16660934963E-01  0.11924582751E-01 -0.89161836849E-02  0.10215854087E+01  0.10213410138E+01 0.  0.
     999903    2    3    3    0    0 -0.97965625908E-01 -0.21800149239E-01  0.82822122859E-01  0.13244890222E+00  0.24712290425E-01 0.  0.
         14    1    1    2    0    0  0.16660934963E-01 -0.11924582751E-01  0.89161836849E-02  0.22344591272E-01  0.00000000000E+00 0.  1.
     999901    1    3    3    0    0  0.81304690945E-01  0.33724731990E-01 -0.91738306544E-01  0.88913650651E+00  0.88000000000E+00 0.  1.
        -11    1    4    4    0    0 -0.15734406578E-01  0.43739254719E-02  0.78231382370E-02  0.18115335693E-01  0.51100000000E-03 0.  1.
         11    1    4    4    0    0 -0.82231219330E-01 -0.26174074711E-01  0.74998984622E-01  0.11433356653E+00  0.51100000000E-03 0. -1.
</event>
<event>
 8    1  0.1022673E+005  0.1043930E+01  0.7957747E-01            NaN
         13   -1    0    0    0    0  0.00000000000E+00  0.00000000000E+00  0.74505805969E-08  0.10566000000E+00  0.10566000000E+00 0.  1.
     999900   -1    0    0    0    0 -0.00000000000E+00 -0.00000000000E+00 -0.74505805969E-08  0.93827000000E+00  0.93827000000E+00 0.  1.
     999902    2    1    2    0    0  0.13554770210E-01  0.19226627080E-01  0.47683304507E-03  0.10204008191E+01  0.10201295061E+01 0.  0.
     999903    2    3    3    0    0  0.90965490231E-01  0.42724607823E-01 -0.84250417977E-01  0.13263774161E+00  0.19862654515E-01 0.  0.
         14    1    1    2    0    0 -0.13554770210E-01 -0.19226627080E-01 -0.47683304507E-03  0.23529180905E-01  0.00000000000E+00 0.  1.
     999901    1    3    3    0    0 -0.77410720021E-01 -0.23497980743E-01  0.84727251022E-01  0.88776307748E+00  0.88000000000E+00 0. -1.
        -11    1    4    4    0    0  0.48291506666E-01  0.18079989043E-01 -0.54701316256E-01  0.75176131458E-01  0.51100000000E-03 0.  1.
         11    1    4    4    0    0  0.42673983565E-01  0.24644618780E-01 -0.29549101721E-01  0.57461610155E-01  0.51100000000E-03 0. -1.
</event>
<event>
 7    1  0.1022673E+005  0.1043930E+01  0.7957747E-01            NaN
         13   -1    0    0    0    0  0.00000000000E+00  0.00000000000E+00  0.74505805969E-08  0.10566000000E+00  0.10566000000E+00 0.  1.
     999900   -1    0    0    0    0 -0.00000000000E+00 -0.00000000000E+00 -0.74505805969E-08  0.93827000000E+00  0.93827000000E+00 0.  1.
     999903    2    1    2    0    0  0.21667396881E-02  0.41300965983E-01  0.42525367010E-02  0.46217569048E-01  0.20187002461E-01 0.  0.
         14    1    1    2    0    0  0.26073026907E-01  0.10148425188E+00  0.13044931915E-01  0.10558894999E+00  0.00000000000E+00 0.  1.
     999901    1    1    2    0    0 -0.28239766595E-01 -0.14278521786E+00 -0.17297468616E-01  0.89212348096E+00  0.88000000000E+00 0.  1.
        -11    1    3    3    0    0  0.10388234992E-01  0.19964848030E-01  0.59469601811E-02  0.23283857917E-01  0.51100000000E-03 0.  1.
         11    1    3    3    0    0 -0.82214953035E-02  0.21336117953E-01 -0.16944234801E-02  0.22933711131E-01  0.51100000000E-03 0. -1.
</event>
<event>
 8    1  0.1025219E+005  0.1043930E+01  0.7957747E-01            NaN
         13   -1    0    0    0    0  0.00000000000E+00  0.00000000000E+00  0.74505805969E-08  0.10566000000E+00  0.10566000000E+00 0.  1.
     999900   -1    0    0    0    0 -0.00000000000E+00 -0.00000000000E+00 -0.74505805969E-08  0.93827000000E+00  0.93827000000E+00 0.  1.
     999902    2    1    2    0    0 -0.76939553340E-02 -0.19381986857E-01 -0.14597059999E-01  0.10184754813E+01  0.10181573422E+01 0.  0.
     999903    2    3    3    0    0 -0.16335860895E-01 -0.36483030306E-01  0.12000061495E+00  0.12803533038E+00  0.19875270680E-01 0.  0.
         14    1    1    2    0    0  0.76939553340E-02  0.19381986857E-01  0.14597059999E-01  0.25454518731E-01  0.00000000000E+00 0.  1.
     999901    1    3    3    0    0  0.86419055607E-02  0.17101043449E-01 -0.13459767495E+00  0.89044015089E+00  0.88000000000E+00 0.  1.
        -11    1    4    4    0    0  0.97036409348E-03 -0.19243919432E-01  0.66153725758E-01  0.68904619542E-01  0.51100000000E-03 0.  1.
         11    1    4    4    0    0 -0.17306224988E-01 -0.17239110874E-01  0.53846889194E-01  0.59130710835E-01  0.51100000000E-03 0. -1.
</event>
<event>
 8    1  0.1022673E+005  0.1043930E+01  0.7957747E-01            NaN
         13   -1    0    0    0    0  0.00000000000E+00  0.00000000000E+00  0.74505805969E-08  0.10566000000E+00  0.10566000000E+00 0. -1.
     999900   -1    0    0    0    0 -0.00000000000E+00 -0.00000000000E+00 -0.74505805969E-08  0.93827000000E+00  0.93827000000E+00 0. -1.
     999902    2    1    2    0    0 -0.16717295428E-01  0.22353201948E-02  0.16697283302E-01  0.10201968187E+01  0.10199207249E+01 0.  0.
     999903    2    3    3    0    0 -0.11791029387E+00 -0.56947900530E-01  0.36371447727E-02  0.13232675856E+00  0.18741436270E-01 0.  0.
         14    1    1    2    0    0  0.16717295428E-01 -0.22353201948E-02 -0.16697283302E-01  0.23733181255E-01  0.00000000000E+00 0.  1.
     999901    1    3    3    0    0  0.10119299845E+00  0.59183220725E-01  0.13060138529E-01  0.88787006018E+00  0.88000000000E+00 0. -1.
        -11    1    4    4    0    0 -0.69338212071E-02 -0.79401505110E-02  0.31317888600E-02  0.11008773280E-01  0.51100000000E-03 0.  1.
         11    1    4    4    0    0 -0.11097647267E+00 -0.49007750019E-01  0.50535591271E-03  0.12131798528E+00  0.51100000000E-03 0. -1.
</event>
<event>
 8    1  0.1295674E+005  0.1043930E+01  0.7957747E-01            NaN
         13   -1    0    0    0    0  0.00000000000E+00  0.00000000000E+00  0.74505805969E-08  0.10566000000E+00  0.10566000000E+00 0.  1.
     999900   -1    0    0    0    0 -0.00000000000E+00 -0.00000000000E+00 -0.74505805969E-08  0.93827000000E+00  0.93827000000E+00 0. -1.
     999902    2    1    2    0    0 -0.23735864692E-01  0.76484544755E-02 -0.44770204869E-02  0.10185935867E+01  0.10182784300E+01 0.  0.
     999903    2    3    3    0    0 -0.20591564144E-01 -0.12541103800E+00  0.26004064054E-02  0.12855718002E+00  0.19189722638E-01 0.  0.
         14    1    1    2    0    0  0.23735864692E-01 -0.76484544755E-02  0.44770204869E-02  0.25336413341E-01  0.00000000000E+00 0. -1.
     999901    1    3    3    0    0 -0.31443005483E-02  0.13305949248E+00 -0.70774268923E-02  0.89003640664E+00  0.88000000000E+00 0.  1.
        -11    1    4    4    0    0  0.20046038809E-02 -0.43034058488E-01 -0.34231731778E-03  0.43085112612E-01  0.51100000000E-03 0.  1.
         11    1    4    4    0    0 -0.22596168025E-01 -0.82376979517E-01  0.29427237232E-02  0.85472067411E-01  0.51100000000E-03 0. -1.
</event>
<event>
 8    1  0.1022673E+005  0.1043930E+01  0.7957747E-01            NaN
         13   -1    0    0    0    0  0.00000000000E+00  0.00000000000E+00  0.74505805969E-08  0.10566000000E+00  0.10566000000E+00 0. -1.
     999900   -1    0    0    0    0 -0.00000000000E+00 -0.00000000000E+00 -0.74505805969E-08  0.93827000000E+00  0.93827000000E+00 0.  1.
     999902    2    1    2    0    0 -0.21616153588E-01 -0.97242179068E-02  0.44613504475E-02  0.10198110830E+01  0.10195258324E+01 0.  0.
     999903    2    3    3    0    0  0.49215684093E-01 -0.11513524860E+00 -0.28503681911E-01  0.13008341231E+00  0.20758738985E-01 0.  0.
         14    1    1    2    0    0  0.21616153588E-01  0.97242179068E-02 -0.44613504475E-02  0.24118917008E-01  0.00000000000E+00 0.  1.
     999901    1    3    3    0    0 -0.70831837681E-01  0.10541103069E+00  0.32965032358E-01  0.88972767068E+00  0.88000000000E+00 0. -1.
        -11    1    4    4    0    0  0.19206865171E-01 -0.46696241606E-01 -0.21971522280E-01  0.55067699808E-01  0.51100000000E-03 0.  1.
         11    1    4    4    0    0  0.30008818922E-01 -0.68439006995E-01 -0.65321596303E-02  0.75015712500E-01  0.51100000000E-03 0. -1.
</event>
<event>
 8    1  0.1022673E+005  0.1043930E+01  0.7957747E-01            NaN
         13   -1    0    0    0    0  0.00000000000E+00  0.00000000000E+00  0.74505805969E-08  0.10566000000E+00  0.10566000000E+00 0. -1.
     999900   -1    0    0    0    0 -0.00000000000E+00 -0.00000000000E+00 -0.74505805969E-08  0.93827000000E+00  0.93827000000E+00 0. -1.
     999902    2    1    2    0    0 -0.10661563124E-01  0.11416339995E-01 -0.16898598588E-01  0.10209177341E+01  0.10206583441E+01 0.  0.
     999903    2    3    3    0    0 -0.37766836493E-01  0.10661054729E+00  0.64375575091E-01  0.13164717671E+00  0.19865088399E-01 0.  0.
         14    1    1    2    0    0  0.10661563124E-01 -0.11416339995E-01  0.16898598588E-01  0.23012265889E-01  0.00000000000E+00 0. -1.
     999901    1    3    3    0    0  0.27105273369E-01 -0.95194207291E-01 -0.81274173679E-01  0.88927055740E+00  0.88000000000E+00 0. -1.
        -11    1    4    4    0    0 -0.29424727000E-01  0.82668190411E-01  0.39873222095E-01  0.96384538314E-01  0.51100000000E-03 0. -1.
         11    1    4    4    0    0 -0.83421094927E-02  0.23942356875E-01  0.24502352997E-01  0.35262638399E-01  0.51100000000E-03 0.  1.
</event>
<event>
 8    1  0.1022673E+005  0.1043930E+01  0.7957747E-01            NaN
         13   -1    0    0    0    0  0.00000000000E+00  0.00000000000E+00  0.74505805969E-08  0.10566000000E+00  0.10566000000E+00 0. -1.
     999900   -1    0    0    0    0 -0.00000000000E+00 -0.00000000000E+00 -0.74505805969E-08  0.93827000000E+00  0.93827000000E+00 0. -1.
     999902    2    1    2    0    0  0.13240818775E-01 -0.15888336263E-01 -0.10075710667E-01  0.10209239474E+01  0.10206646991E+01 0.  0.
     999903    2    3    3    0    0 -0.10372148052E+00  0.31249121999E-01 -0.69355073248E-01  0.12996033296E+00  0.18571720697E-01 0.  0.
         14    1    1    2    0    0 -0.13240818775E-01  0.15888336263E-01  0.10075710667E-01  0.23006052605E-01  0.00000000000E+00 0. -1.
     999901    1    3    3    0    0  0.11696229929E+00 -0.47137458262E-01  0.59279362582E-01  0.89096361444E+00  0.88000000000E+00 0. -1.
        -11    1    4    4    0    0 -0.68304253695E-01  0.11682157126E-01 -0.46960172670E-01  0.83710589570E-01  0.51100000000E-03 0.  1.
         11    1    4    4    0    0 -0.35417226825E-01  0.19566964874E-01 -0.22394900579E-01  0.46249743386E-01  0.51100000000E-03 0. -1.
</event>
<event>
 8    1  0.1022673E+005  0.1043930E+01  0.7957747E-01            NaN
         13   -1    0    0    0    0  0.00000000000E+00  0.00000000000E+00  0.74505805969E-08  0.10566000000E+00  0.10566000000E+00 0. -1.
     999900   -1    0    0    0    0 -0.00000000000E+00 -0.00000000000E+00 -0.74505805969E-08  0.93827000000E+00  0.93827000000E+00 0. -1.
     999902    2    1    2    0    0  0.21728486992E-01 -0.11497916112E-01 -0.92696457436E-03  0.10193294210E+01  0.10190325216E+01 0.  0.
     999903    2    3    3    0    0 -0.43022219732E-01 -0.72482360403E-01  0.96360844508E-01  0.12951108325E+00  0.19573052155E-01 0.  0.
         14    1    1    2    0    0 -0.21728486992E-01  0.11497916112E-01  0.92696457436E-03  0.24600578961E-01  0.00000000000E+00 0.  1.
     999901    1    3    3    0    0  0.64750706723E-01  0.60984444291E-01 -0.97287809082E-01  0.88981833779E+00  0.88000000000E+00 0.  1.
        -11    1    4    4    0    0 -0.13522310065E-01 -0.11238907002E-01  0.28259828882E-01  0.33287309137E-01  0.51100000000E-03 0.  1.
         11    1    4    4    0    0 -0.29499909667E-01 -0.61243453401E-01  0.68101015625E-01  0.96223774116E-01  0.51100000000E-03 0. -1.
</event>
<event>
 8    1  0.1022673E+005  0.1043930E+01  0.7957747E-01            NaN
         13   -1    0    0    0    0  0.00000000000E+00  0.00000000000E+00  0.74505805969E-08  0.10566000000E+00  0.10566000000E+00 0.  1.
     999900   -1    0    0    0    0 -0.00000000000E+00 -0.00000000000E+00 -0.74505805969E-08  0.93827000000E+00  0.93827000000E+00 0. -1.
     999902    2    1    2    0    0 -0.16726407934E-01  0.40807290446E-02 -0.18798484740E-01  0.10184386662E+01  0.10181195945E+01 0.  0.
     999903    2    3    3    0    0  0.44991044387E-01  0.11776303648E-01  0.11550693730E+00  0.12607875438E+00  0.19776863694E-01 0.  0.
         14    1    1    2    0    0  0.16726407934E-01 -0.40807290446E-02  0.18798484740E-01  0.25491333830E-01  0.00000000000E+00 0.  1.
     999901    1    3    3    0    0 -0.61717452320E-01 -0.76955746031E-02 -0.13430542204E+00  0.89235991180E+00  0.88000000000E+00 0. -1.
        -11    1    4    4    0    0  0.29077329699E-01  0.12597597638E-01  0.54716933525E-01  0.63232859370E-01  0.51100000000E-03 0.  1.
         11    1    4    4    0    0  0.15913714688E-01 -0.82129399070E-03  0.60790003776E-01  0.62845895006E-01  0.51100000000E-03 0. -1.
</event>
<event>
 7    1  0.1022673E+005  0.1043930E+01  0.7957747E-01            NaN
         13   -1    0    0    0    0  0.00000000000E+00  0.00000000000E+00  0.74505805969E-08  0.10566000000E+00  0.10566000000E+00 0.  1.
     999900   -1    0    0    0    0 -0.00000000000E+00 -0.00000000000E+00 -0.74505805969E-08  0.93827000000E+00  0.93827000000E+00 0. -1.
     999903    2    1    2    0    0 -0.77176658559E-01  0.48550695643E-01  0.69563945362E-01  0.11570505134E+00  0.15333288557E-01 0.  0.
         14    1    1    2    0    0  0.51549612813E-02  0.38058430097E-01 -0.43464931186E-02  0.38651128440E-01  0.00000000000E+00 0. -1.
     999901    1    1    2    0    0  0.72021697278E-01 -0.86609125740E-01 -0.65217452243E-01  0.88957382022E+00  0.88000000000E+00 0. -1.
        -11    1    3    3    0    0 -0.58077275962E-01  0.30439131955E-01  0.43704389627E-01  0.78802573125E-01  0.51100000000E-03 0.  1.
         11    1    3    3    0    0 -0.19099382597E-01  0.18111563687E-01  0.25859555734E-01  0.36902478217E-01  0.51100000000E-03 0. -1.
</event>
<event>
 8    1  0.1022673E+005  0.1043930E+01  0.7957747E-01            NaN
         13   -1    0    0    0    0  0.00000000000E+00  0.00000000000E+00  0.74505805969E-08  0.10566000000E+00  0.10566000000E+00 0.  1.
     999900   -1    0    0    0    0 -0.00000000000E+00 -0.00000000000E+00 -0.74505805969E-08  0.93827000000E+00  0.93827000000E+00 0.  1.
     999902    2    1    2    0    0  0.13598320579E-01 -0.42577237267E-02  0.19392920920E-01  0.10198649233E+01  0.10195809600E+01 0.  0.
     999903    2    3    3    0    0  0.85795001184E-01  0.28181628713E-01 -0.90721429237E-01  0.12947745576E+00  0.19469139729E-01 0.  0.
         14    1    1    2    0    0 -0.13598320579E-01  0.42577237267E-02 -0.19392920920E-01  0.24065076681E-01  0.00000000000E+00 0. -1.
     999901    1    3    3    0    0 -0.72196680606E-01 -0.32439352439E-01  0.11011435016E+00  0.89038746756E+00  0.88000000000E+00 0. -1.
        -11    1    4    4    0    0  0.42378903967E-01  0.70584114236E-02 -0.32705346882E-01  0.53997162045E-01  0.51100000000E-03 0. -1.
         11    1    4    4    0    0  0.43416097217E-01  0.21123217289E-01 -0.58016082355E-01  0.75480293713E-01  0.51100000000E-03 0.  1.
</event>
<event>
 8    1  0.1022673E+005  0.1043930E+01  0.7957747E-01            NaN
         13   -1    0    0    0    0  0.00000000000E+00  0.00000000000E+00  0.74505805969E-08  0.10566000000E+00  0.10566000000E+00 0.  1.
     999900   -1    0    0    0    0 -0.00000000000E+00 -0.00000000000E+00 -0.74505805969E-08  0.93827000000E+00  0.93827000000E+00 0. -1.
     999902    2    1    2    0    0  0.67892377465E-02 -0.11900661822E-01  0.19150054211E-01  0.10203833638E+01  0.10201116434E+01 0.  0.
     999903    2    3    3    0    0  0.11843702633E+00 -0.49251440303E-01  0.26525440189E-01  0.13251248034E+00  0.20072989065E-01 0.  0.
         14    1    1    2    0    0 -0.67892377465E-02  0.11900661822E-01 -0.19150054211E-01  0.23546636220E-01  0.00000000000E+00 0. -1.
     999901    1    3    3    0    0 -0.11164778858E+00  0.37350778481E-01 -0.73753859781E-02  0.88787088344E+00  0.88000000000E+00 0. -1.
        -11    1    4    4    0    0  0.78992274694E-01 -0.38103369016E-01  0.26145338653E-01  0.91517681603E-01  0.51100000000E-03 0.  1.
         11    1    4    4    0    0  0.39444751636E-01 -0.11148071287E-01  0.38010153606E-03  0.40994798734E-01  0.51100000000E-03 0. -1.
</event>
<event>
 8    1  0.1022673E+005  0.1043930E+01  0.7957747E-01            NaN
         13   -1    0    0    0    0  0.00000000000E+00  0.00000000000E+00  0.74505805969E-08  0.10566000000E+00  0.10566000000E+00 0. -1.
     999900   -1    0    0    0    0 -0.00000000000E+00 -0.00000000000E+00 -0.74505805969E-08  0.93827000000E+00  0.93827000000E+00 0. -1.
     999902    2    1    2    0    0 -0.15427011683E-01  0.14677448712E-01  0.97135817208E-02  0.10205254308E+01  0.10202570171E+01 0.  0.
     999903    2    3    3    0    0 -0.36965920522E-01  0.12501822078E+00 -0.18711800895E-01  0.13291796521E+00  0.17917007993E-01 0.  0.
         14    1    1    2    0    0  0.15427011683E-01 -0.14677448712E-01 -0.97135817208E-02  0.23404569212E-01  0.00000000000E+00 0.  1.
     999901    1    3    3    0    0  0.21538908838E-01 -0.11034077207E+00  0.28425382616E-01  0.88760746558E+00  0.88000000000E+00 0.  1.
        -11    1    4    4    0    0 -0.25239638325E-02  0.34129430664E-01 -0.78561304284E-02  0.35116496653E-01  0.51100000000E-03 0.  1.
         11    1    4    4    0    0 -0.34441956689E-01  0.90888790116E-01 -0.10855670467E-01  0.97801468556E-01  0.51100000000E-03 0. -1.
</event>
<event>
 8    1  0.1097850E+005  0.1043930E+01  0.7957747E-01            NaN
         13   -1    0    0    0    0  0.00000000000E+00  0.00000000000E+00  0.74505805969E-08  0.10566000000E+00  0.10566000000E+00 0. -1.
     999900   -1    0    0    0    0 -0.00000000000E+00 -0.00000000000E+00 -0.74505805969E-08  0.93827000000E+00  0.93827000000E+00 0.  1.
     999902    2    1    2    0    0 -0.21999675504E-01  0.89931134092E-02 -0.26181708527E-02  0.10200194034E+01  0.10197391170E+01 0.  0.
     999903    2    3    3    0    0  0.59807243783E-01 -0.74931933498E-01  0.82641127760E-01  0.12816463185E+00  0.20122519541E-01 0.  0.
         14    1    1    2    0    0  0.21999675504E-01 -0.89931134092E-02  0.26181708527E-02  0.23910596599E-01  0.00000000000E+00 0.  1.
     999901    1    3    3    0    0 -0.81806919287E-01  0.83925046907E-01 -0.85259298613E-01  0.89185477155E+00  0.88000000000E+00 0.  1.
        -11    1    4    4    0    0  0.31085636757E-01 -0.47677040649E-01  0.59314948340E-01  0.82206698238E-01  0.51100000000E-03 0.  1.
         11    1    4    4    0    0  0.28721607026E-01 -0.27254892849E-01  0.23326179420E-01  0.45957933610E-01  0.51100000000E-03 0. -1.
</event>
<event>
 8    1  0.1022673E+005  0.1043930E+01  0.7957747E-01            NaN
         13   -1    0    0    0    0  0.00000000000E+00  0.00000000000E+00  0.74505805969E-08  0.10566000000E+00  0.10566000000E+00 0. -1.
     999900   -1    0    0    0    0 -0.00000000000E+00 -0.00000000000E+00 -0.74505805969E-08  0.93827000000E+00  0.93827000000E+00 0.  1.
     999902    2    1    2    0    0 -0.14218615417E-01 -0.40688522658E-02 -0.17443563253E-01  0.10210607525E+01  0.10208046129E+01 0.  0.
     999903    2    3    3    0    0  0.67314549098E-01  0.56557895648E-01 -0.97104702223E-01  0.13164006656E+00  0.13028424703E-01 0.  0.
         14    1    1    2    0    0  0.14218615417E-01  0.40688522658E-02  0.17443563253E-01  0.22869247519E-01  0.00000000000E+00 0. -1.
     999901    1    3    3    0    0 -0.81533164515E-01 -0.60626747914E-01  0.79661138970E-01  0.88942068592E+00  0.88000000000E+00 0. -1.
        -11    1    4    4    0    0  0.27058349507E-01  0.26917171884E-01 -0.33877375968E-01  0.51035538047E-01  0.51100000000E-03 0. -1.
         11    1    4    4    0    0  0.40256199591E-01  0.29640723764E-01 -0.63227326255E-01  0.80604528515E-01  0.51100000000E-03 0.  1.
</event>
<event>
 8    1  0.1022673E+005  0.1043930E+01  0.7957747E-01            NaN
         13   -1    0    0    0    0  0.00000000000E+00  0.00000000000E+00  0.74505805969E-08  0.10566000000E+00  0.10566000000E+00 0. -1.
     999900   -1    0    0    0    0 -0.00000000000E+00 -0.00000000000E+00 -0.74505805969E-08  0.93827000000E+00  0.93827000000E+00 0. -1.
     999902    2    1    2    0    0  0.16088831444E-01 -0.87950718569E-02  0.13637498545E-01  0.10210786291E+01  0.10208228943E+01 0.  0.
     999903    2    3    3    0    0  0.56101188330E-02  0.11948051618E+00  0.50092497743E-01  0.13096998579E+00  0.18352429488E-01 0.  0.
         14    1    1    2    0    0 -0.16088831444E-01  0.87950718569E-02 -0.13637498545E-01  0.22851370916E-01  0.00000000000E+00 0.  1.
     999901    1    3    3    0    0  0.10478712611E-01 -0.12827558803E+00 -0.36454999198E-01  0.89010864330E+00  0.88000000000E+00 0. -1.
        -11    1    4    4    0    0 -0.46583648795E-02  0.82341153390E-01  0.34427282763E-01  0.89371498949E-01  0.51100000000E-03 0. -1.
         11    1    4    4    0    0  0.10268483713E-01  0.37139362786E-01  0.15665214980E-01  0.41598486839E-01  0.51100000000E-03 0.  1.
</event>
<event>
 8    1  0.1022673E+005  0.1043930E+01  0.7957747E-01            NaN
         13   -1    0    0    0    0  0.00000000000E+00  0.00000000000E+00  0.74505805969E-08  0.10566000000E+00  0.10566000000E+00 0. -1.
     999900   -1    0    0    0    0 -0.00000000000E+00 -0.00000000000E+00 -0.74505805969E-08  0.93827000000E+00  0.93827000000E+00 0.  1.
     999902    2    1    2    0    0 -0.21841868654E-01 -0.70395907146E-02 -0.29631686098E-02  0.10207912137E+01  0.10205289308E+01 0.  0.
     999903    2    3    3    0    0 -0.74957190731E-01 -0.66895332683E-01 -0.85427368205E-01  0.13332048657E+00  0.19569131883E-01 0.  0.
         14    1    1    2    0    0  0.21841868654E-01  0.70395907146E-02  0.29631686098E-02  0.23138786311E-01  0.00000000000E+00 0.  1.
     999901    1    3    3    0    0  0.53115322077E-01  0.59855741968E-01  0.82464199595E-01  0.88747072712E+00  0.88000000000E+00 0. -1.
        -11    1    4    4    0    0 -0.49978157390E-01 -0.36300112648E-01 -0.42471994093E-01  0.74964296819E-01  0.51100000000E-03 0.  1.
         11    1    4    4    0    0 -0.24979033341E-01 -0.30595220035E-01 -0.42955374112E-01  0.58356189747E-01  0.51100000000E-03 0. -1.
</event>
<event>
 8    1  0.1022673E+005  0.1043930E+01  0.7957747E-01            NaN
         13   -1    0    0    0    0  0.00000000000E+00  0.00000000000E+00  0.74505805969E-08  0.10566000000E+00  0.10566000000E+00 0.  1.
     999900   -1    0    0    0    0 -0.00000000000E+00 -0.00000000000E+00 -0.74505805969E-08  0.93827000000E+00  0.93827000000E+00 0. -1.
     999902    2    1    2    0    0 -0.72100206440E-02 -0.20278588923E-01  0.67301842634E-02  0.10213800344E+01  0.10211310757E+01 0.  0.
     999903    2    3    3    0    0  0.39916608560E-01 -0.12590947122E+00  0.61468950376E-02  0.13381080182E+00  0.20518669114E-01 0.  0.
         14    1    1    2    0    0  0.72100206440E-02  0.20278588923E-01 -0.67301842634E-02  0.22549965557E-01  0.00000000000E+00 0. -1.
     999901    1    3    3    0    0 -0.47126629204E-01  0.10563088230E+00  0.58328922580E-03  0.88756923262E+00  0.88000000000E+00 0.  1.
        -11    1    4    4    0    0  0.12835619734E-01 -0.73990379394E-01  0.43681010544E-02  0.75224137114E-01  0.51100000000E-03 0. -1.
         11    1    4    4    0    0  0.27080988826E-01 -0.51919091829E-01  0.17787939831E-02  0.58586664704E-01  0.51100000000E-03 0.  1.
</event>
<event>
 8    1  0.1022673E+005  0.1043930E+01  0.7957747E-01            NaN
         13   -1    0    0    0    0  0.00000000000E+00  0.00000000000E+00  0.74505805969E-08  0.10566000000E+00  0.10566000000E+00 0. -1.
     999900   -1    0    0    0    0 -0.00000000000E+00 -0.00000000000E+00 -0.74505805969E-08  0.93827000000E+00  0.93827000000E+00 0.  1.
     999902    2    1    2    0    0 -0.19346450959E-01  0.41862007669E-02  0.14619151089E-01  0.10193225007E+01  0.10190254322E+01 0.  0.
     999903    2    3    3    0    0  0.69171254003E-01  0.79447605321E-01 -0.69352012930E-01  0.12772235521E+00  0.20167150319E-01 0.  0.
         14    1    1    2    0    0  0.19346450959E-01 -0.41862007669E-02 -0.14619151089E-01  0.24607499266E-01  0.00000000000E+00 0. -1.
     999901    1    3    3    0    0 -0.88517704962E-01 -0.75261404554E-01  0.83971164019E-01  0.89160014552E+00  0.88000000000E+00 0. -1.
        -11    1    4    4    0    0  0.46342228228E-03  0.29401665866E-02 -0.65935743657E-02  0.72522881689E-02  0.51100000000E-03 0.  1.
         11    1    4    4    0    0  0.68707831721E-01  0.76507438734E-01 -0.62758438564E-01  0.12047006704E+00  0.51100000000E-03 0. -1.
</event>
<event>
 8    1  0.1022673E+005  0.1043930E+01  0.7957747E-01            NaN
         13   -1    0    0    0    0  0.00000000000E+00  0.00000000000E+00  0.74505805969E-08  0.10566000000E+00  0.10566000000E+00 0. -1.
     999900   -1    0    0    0    0 -0.00000000000E+00 -0.00000000000E+00 -0.74505805969E-08  0.93827000000E+00  0.93827000000E+00 0.  1.
     999902    2    1    2    0    0 -0.91608664916E-02  0.18502594394E-01  0.13976834883E-01  0.10189977039E+01  0.10186926432E+01 0.  0.
     999903    2    3    3    0    0  0.47371685962E-01 -0.78509046215E-01  0.88185694859E-01  0.12876506984E+00  0.19899232734E-01 0.  0.
         14    1    1    2    0    0  0.91608664916E-02 -0.18502594394E-01 -0.13976834883E-01  0.24932296074E-01  0.00000000000E+00 0.  1.
     999901    1    3    3    0    0 -0.56532552453E-01  0.97011640609E-01 -0.74208859976E-01  0.89023263409E+00  0.88000000000E+00 0.  1.
        -11    1    4    4    0    0  0.26056380250E-01 -0.53542339652E-01  0.67254959814E-01  0.89828769488E-01  0.51100000000E-03 0.  1.
         11    1    4    4    0    0  0.21315305712E-01 -0.24966706563E-01  0.20930735045E-01  0.38936300347E-01  0.51100000000E-03 0. -1.
</event>
<event>
 8    1  0.1022673E+005  0.1043930E+01  0.7957747E-01            NaN
         13   -1    0    0    0    0  0.00000000000E+00  0.00000000000E+00  0.74505805969E-08  0.10566000000E+00  0.10566000000E+00 0. -1.
     999900   -1    0    0    0    0 -0.00000000000E+00 -0.00000000000E+00 -0.74505805969E-08  0.93827000000E+00  0.93827000000E+00 0.  1.
     999902    2    1    2    0    0  0.13036037772E-01 -0.17946913561E-01 -0.36351019125E-03  0.10217452727E+01  0.10215044004E+01 0.  0.
     999903    2    3    3    0    0  0.12837976480E+00  0.27178316927E-01 -0.89509318588E-02  0.13303035460E+00  0.19923130834E-01 0.  0.
         14    1    1    2    0    0 -0.13036037772E-01  0.17946913561E-01  0.36351019125E-03  0.22184727333E-01  0.00000000000E+00 0.  1.
     999901    1    3    3    0    0 -0.11534372703E+00 -0.45125230489E-01  0.85874216675E-02  0.88871491807E+00  0.88000000000E+00 0.  1.
        -11    1    4    4    0    0  0.77492769064E-01  0.26260198183E-01 -0.48022132985E-02  0.81963709283E-01  0.51100000000E-03 0.  1.
         11    1    4    4    0    0  0.50886995734E-01  0.91811874401E-03 -0.41487185603E-02  0.51066645313E-01  0.51100000000E-03 0. -1.
</event>
<event>
 8    1  0.1022673E+005  0.1043930E+01  0.7957747E-01            NaN
         13   -1    0    0    0    0  0.00000000000E+00  0.00000000000E+00  0.74505805969E-08  0.10566000000E+00  0.10566000000E+00 0.  1.
     999900   -1    0    0    0    0 -0.00000000000E+00 -0.00000000000E+00 -0.74505805969E-08  0.93827000000E+00  0.93827000000E+00 0. -1.
     999902    2    1    2    0    0 -0.78644706522E-03  0.11106075857E-01 -0.20239517295E-01  0.10208301844E+01  0.10205687943E+01 0.  0.
     999903    2    3    3    0    0  0.29061189568E-01 -0.37372649563E-01 -0.12282936437E+00  0.13304319140E+00  0.19291717191E-01 0.  0.
         14    1    1    2    0    0  0.78644706522E-03 -0.11106075857E-01  0.20239517295E-01  0.23099815589E-01  0.00000000000E+00 0.  1.
     999901    1    3    3    0    0 -0.29847636633E-01  0.48478725421E-01  0.10258984708E+00  0.88778699301E+00  0.88000000000E+00 0.  1.
        -11    1    4    4    0    0  0.19456786274E-01 -0.22401540193E-01 -0.50655174655E-01  0.58707779514E-01  0.51100000000E-03 0. -1.
         11    1    4    4    0    0  0.96044032937E-02 -0.14971109371E-01 -0.72174189717E-01  0.74335411889E-01  0.51100000000E-03 0.  1.
</event>
<event>
 8    1  0.1022673E+005  0.1043930E+01  0.7957747E-01            NaN
         13   -1    0    0    0    0  0.00000000000E+00  0.00000000000E+00  0.74505805969E-08  0.10566000000E+00  0.10566000000E+00 0.  1.
     999900   -1    0    0    0    0 -0.00000000000E+00 -0.00000000000E+00 -0.74505805969E-08  0.93827000000E+00  0.93827000000E+00 0. -1.
     999902    2    1    2    0    0  0.11193492246E-01  0.62025017853E-02  0.22552264134E-01  0.10179999033E+01  0.10176696091E+01 0.  0.
     999903    2    3    3    0    0  0.62179856327E-01  0.12327777027E-01 -0.10840346957E+00  0.12682846497E+00  0.17771851136E-01 0.  0.
         14    1    1    2    0    0 -0.11193492246E-01 -0.62025017853E-02 -0.22552264134E-01  0.25930096695E-01  0.00000000000E+00 0. -1.
     999901    1    3    3    0    0 -0.50986364081E-01 -0.61252752414E-02  0.13095573370E+00  0.89117143834E+00  0.88000000000E+00 0.  1.
        -11    1    4    4    0    0  0.15586710255E-01  0.95040338976E-02 -0.21747389161E-01  0.28398631186E-01  0.51100000000E-03 0.  1.
         11    1    4    4    0    0  0.46593146072E-01  0.28237431291E-02 -0.86656080405E-01  0.98429833782E-01  0.51100000000E-03 0. -1.
</event>
<event>
 8    1  0.1022673E+005  0.1043930E+01  0.7957747E-01            NaN
         13   -1    0    0    0    0  0.00000000000E+00  0.00000000000E+00  0.74505805969E-08  0.10566000000E+00  0.10566000000E+00 0. -1.
     999900   -1    0    0    0    0 -0.00000000000E+00 -0.00000000000E+00 -0.74505805969E-08  0.93827000000E+00  0.93827000000E+00 0. -1.
     999902    2    1    2    0    0  0.12404303083E-01  0.28982560575E-02  0.22128693528E-01  0.10183967726E+01  0.10180766380E+01 0.  0.
     999903    2    3    3    0    0  0.26821224086E-01  0.44240735370E-01 -0.11392682139E+00  0.12686542076E+00  0.20949788177E-01 0.  0.
         14    1    1    2    0    0 -0.12404303083E-01 -0.28982560575E-02 -0.22128693528E-01  0.25533227379E-01  0.00000000000E+00 0.  1.
     999901    1    3    3    0    0 -0.14416921003E-01 -0.41342479313E-01  0.13605551492E+00  0.89153135186E+00  0.88000000000E+00 0.  1.
        -11    1    4    4    0    0  0.21291560295E-01  0.44689913234E-01 -0.94855146086E-01  0.10699662959E+00  0.51100000000E-03 0. -1.
         11    1    4    4    0    0  0.55296637909E-02 -0.44917786421E-03 -0.19071675308E-01  0.19868791167E-01  0.51100000000E-03 0.  1.
</event>
<event>
 8    1  0.1022673E+005  0.1043930E+01  0.7957747E-01            NaN
         13   -1    0    0    0    0  0.00000000000E+00  0.00000000000E+00  0.74505805969E-08  0.10566000000E+00  0.10566000000E+00 0.  1.
     999900   -1    0    0    0    0 -0.00000000000E+00 -0.00000000000E+00 -0.74505805969E-08  0.93827000000E+00  0.93827000000E+00 0. -1.
     999902    2    1    2    0    0  0.13625883952E-01  0.31187484055E-03 -0.15380012332E-01  0.10233798964E+01  0.10231735462E+01 0.  0.
     999903    2    3    3    0    0  0.71579170361E-03 -0.10448633531E+00  0.78477825849E-01  0.13211190687E+00  0.19413401675E-01 0.  0.
         14    1    1    2    0    0 -0.13625883952E-01 -0.31187484055E-03  0.15380012332E-01  0.20550103618E-01  0.00000000000E+00 0.  1.
     999901    1    3    3    0    0  0.12910092248E-01  0.10479821015E+00 -0.93857838181E-01  0.89126798951E+00  0.88000000000E+00 0.  1.
        -11    1    4    4    0    0  0.56576157408E-02 -0.85859112619E-01  0.56807627687E-01  0.10310753377E+00  0.51100000000E-03 0. -1.
         11    1    4    4    0    0 -0.49418240372E-02 -0.18627222687E-01  0.21670198161E-01  0.29004373105E-01  0.51100000000E-03 0.  1.
</event>
<event>
 8    1  0.1022673E+005  0.1043930E+01  0.7957747E-01            NaN
         13   -1    0    0    0    0  0.00000000000E+00  0.00000000000E+00  0.74505805969E-08  0.10566000000E+00  0.10566000000E+00 0.  1.
     999900   -1    0    0    0    0 -0.00000000000E+00 -0.00000000000E+00 -0.74505805969E-08  0.93827000000E+00  0.93827000000E+00 0.  1.
     999902    2    1    2    0    0  0.24376188263E-01 -0.45610343418E-02 -0.25537201617E-01  0.10083329460E+01  0.10077044109E+01 0.  0.
     999903    2    3    3    0    0 -0.10841432070E+00 -0.28924071379E-01 -0.31946533751E-01  0.11801392654E+00  0.17788732406E-01 0.  0.
         14    1    1    2    0    0 -0.24376188263E-01  0.45610343418E-02  0.25537201617E-01  0.35597054020E-01  0.00000000000E+00 0.  1.
     999901    1    3    3    0    0  0.13279050896E+00  0.24363037037E-01  0.64093321345E-02  0.89031901944E+00  0.88000000000E+00 0. -1.
        -11    1    4    4    0    0 -0.46294662957E-01 -0.10653705714E-01 -0.22533469264E-01  0.52580563156E-01  0.51100000000E-03 0. -1.
         11    1    4    4    0    0 -0.62119657740E-01 -0.18270365665E-01 -0.94130644872E-02  0.65433363381E-01  0.51100000000E-03 0.  1.
</event>
<event>
 8    1  0.1022673E+005  0.1043930E+01  0.7957747E-01            NaN
         13   -1    0    0    0    0  0.00000000000E+00  0.00000000000E+00  0.74505805969E-08  0.10566000000E+00  0.10566000000E+00 0.  1.
     999900   -1    0    0    0    0 -0.00000000000E+00 -0.00000000000E+00 -0.74505805969E-08  0.93827000000E+00  0.93827000000E+00 0.  1.
     999902    2    1    2    0    0 -0.15446353159E-01 -0.81542569202E-02 -0.13137930679E-01  0.10220739493E+01  0.10218402374E+01 0.  0.
     999903    2    3    3    0    0  0.15646827111E-02  0.12689927450E+00 -0.26857136305E-01  0.13150275710E+00  0.21582290284E-01 0.  0.
         14    1    1    2    0    0  0.15446353159E-01  0.81542569202E-02  0.13137930679E-01  0.21856050750E-01  0.00000000000E+00 0.  1.
     999901    1    3    3    0    0 -0.17011035870E-01 -0.13505353142E+00  0.13719205626E-01  0.89057119215E+00  0.88000000000E+00 0. -1.
        -11    1    4    4    0    0 -0.78296414056E-02  0.77459497506E-01 -0.10367076918E-01  0.78543073809E-01  0.51100000000E-03 0.  1.
         11    1    4    4    0    0  0.93943241167E-02  0.49439776990E-01 -0.16490059387E-01  0.52959683289E-01  0.51100000000E-03 0. -1.
</event>
<event>
 8    1  0.1022673E+005  0.1043930E+01  0.7957747E-01            NaN
         13   -1    0    0    0    0  0.00000000000E+00  0.00000000000E+00  0.74505805969E-08  0.10566000000E+00  0.10566000000E+00 0. -1.
     999900   -1    0    0    0    0 -0.00000000000E+00 -0.00000000000E+00 -0.74505805969E-08  0.93827000000E+00  0.93827000000E+00 0. -1.
     999902    2    1    2    0    0 -0.19723197115E-01  0.98469113368E-02 -0.80303430668E-02  0.10204682742E+01  0.10201985327E+01 0.  0.
     999903    2    3    3    0    0 -0.10979053154E+00  0.92219451606E-02  0.70386696068E-01  0.13240197751E+00  0.20904343492E-01 0.  0.
         14    1    1    2    0    0  0.19723197115E-01 -0.98469113368E-02  0.80303430668E-02  0.23461725790E-01  0.00000000000E+00 0.  1.
     999901    1    3    3    0    0  0.90067334421E-01  0.62496617626E-03 -0.78417039135E-01  0.88806629670E+00  0.88000000000E+00 0. -1.
        -11    1    4    4    0    0 -0.96868025728E-01  0.22221233096E-02  0.65286402422E-01  0.11683718459E+00  0.51100000000E-03 0. -1.
         11    1    4    4    0    0 -0.12922505808E-01  0.69998218509E-02  0.51002936459E-02  0.15564792918E-01  0.51100000000E-03 0.  1.
</event>
<event>
 8    1  0.1022673E+005  0.1043930E+01  0.7957747E-01            NaN
         13   -1    0    0    0    0  0.00000000000E+00  0.00000000000E+00  0.74505805969E-08  0.10566000000E+00  0.10566000000E+00 0. -1.
     999900   -1    0    0    0    0 -0.00000000000E+00 -0.00000000000E+00 -0.74505805969E-08  0.93827000000E+00  0.93827000000E+00 0.  1.
     999902    2    1    2    0    0  0.17284252550E-01  0.19416954829E-01 -0.76551538098E-02  0.10168308321E+01  0.10164696632E+01 0.  0.
     999903    2    3    3    0    0 -0.68116910951E-01 -0.60085026809E-01  0.82879894164E-01  0.12452454011E+00  0.19676387594E-01 0.  0.
         14    1    1    2    0    0 -0.17284252550E-01 -0.19416954829E-01  0.76551538098E-02  0.27099167901E-01  0.00000000000E+00 0. -1.
     999901    1    3    3    0    0  0.85401163502E-01  0.79501981638E-01 -0.90535047974E-01  0.89230629199E+00  0.88000000000E+00 0. -1.
        -11    1    4    4    0    0 -0.31314513678E-01 -0.40447608242E-01  0.43335075572E-01  0.67043252272E-01  0.51100000000E-03 0.  1.
         11    1    4    4    0    0 -0.36802397273E-01 -0.19637418568E-01  0.39544818592E-01  0.57481287838E-01  0.51100000000E-03 0. -1.
</event>
<event>
 8    1  0.1022673E+005  0.1043930E+01  0.7957747E-01            NaN
         13   -1    0    0    0    0  0.00000000000E+00  0.00000000000E+00  0.74505805969E-08  0.10566000000E+00  0.10566000000E+00 0.  1.
     999900   -1    0    0    0    0 -0.00000000000E+00 -0.00000000000E+00 -0.74505805969E-08  0.93827000000E+00  0.93827000000E+00 0.  1.
     999902    2    1    2    0    0  0.80765682188E-02  0.22408849102E-01 -0.32367564570E-02  0.10198911967E+01  0.10196078604E+01 0.  0.
     999903    2    3    3    0    0 -0.51125596271E-01 -0.10502350370E+00  0.46931820804E-01  0.12733263448E+00  0.19163535083E-01 0.  0.
         14    1    1    2    0    0 -0.80765682188E-02 -0.22408849102E-01  0.32367564570E-02  0.24038803311E-01  0.00000000000E+00 0.  1.
     999901    1    3    3    0    0  0.59202164490E-01  0.12743235280E+00 -0.50168577261E-01  0.89255856221E+00  0.88000000000E+00 0.  1.
        -11    1    4    4    0    0 -0.30883286147E-01 -0.71254445583E-01  0.39984366763E-01  0.87349780109E-01  0.51100000000E-03 0.  1.
         11    1    4    4    0    0 -0.20242310124E-01 -0.33769058118E-01  0.69474540409E-02  0.39982854375E-01  0.51100000000E-03 0. -1.
</event>
<event>
 8    1  0.1022673E+005  0.1043930E+01  0.7957747E-01            NaN
         13   -1    0    0    0    0  0.00000000000E+00  0.00000000000E+00  0.74505805969E-08  0.10566000000E+00  0.10566000000E+00 0.  1.
     999900   -1    0    0    0    0 -0.00000000000E+00 -0.00000000000E+00 -0.74505805969E-08  0.93827000000E+00  0.93827000000E+00 0.  1.
     999902    2    1    2    0    0 -0.81617198295E-04 -0.20366746572E-01  0.13457837985E-01  0.10195184365E+01  0.10192261368E+01 0.  0.
     999903    2    3    3    0    0  0.63014235256E-01  0.12849869469E-01 -0.10909994989E+00  0.12816842586E+00  0.19708712066E-01 0.  0.
         14    1    1    2    0    0  0.81617198295E-04  0.20366746572E-01 -0.13457837985E-01  0.24411563459E-01  0.00000000000E+00 0. -1.
     999901    1    3    3    0    0 -0.63095852454E-01 -0.33216616041E-01  0.12255778787E+00  0.89135001068E+00  0.88000000000E+00 0. -1.
        -11    1    4    4    0    0  0.41859255521E-02  0.37734007718E-02 -0.27477679634E-02  0.62906180852E-02  0.51100000000E-03 0.  1.
         11    1    4    4    0    0  0.58828309704E-01  0.90764686976E-02 -0.10635218192E+00  0.12187780777E+00  0.51100000000E-03 0. -1.
</event>
<event>
 8    1  0.1022673E+005  0.1043930E+01  0.7957747E-01            NaN
         13   -1    0    0    0    0  0.00000000000E+00  0.00000000000E+00  0.74505805969E-08  0.10566000000E+00  0.10566000000E+00 0.  1.
     999900   -1    0    0    0    0 -0.00000000000E+00 -0.00000000000E+00 -0.74505805969E-08  0.93827000000E+00  0.93827000000E+00 0.  1.
     999902    2    1    2    0    0 -0.14907275744E-01 -0.26660484605E-02 -0.17941466844E-01  0.10204516926E+01  0.10201815652E+01 0.  0.
     999903    2    3    3    0    0 -0.10842538403E+00  0.72739088163E-01 -0.80247126697E-02  0.13223442573E+00  0.19352221696E-01 0.  0.
         14    1    1    2    0    0  0.14907275744E-01  0.26660484605E-02  0.17941466844E-01  0.23478307371E-01  0.00000000000E+00 0.  1.
     999901    1    3    3    0    0  0.93518108291E-01 -0.75405136623E-01 -0.99167541741E-02  0.88821726690E+00  0.88000000000E+00 0.  1.
        -11    1    4    4    0    0 -0.58020094639E-01  0.49653756313E-01 -0.12398680740E-02  0.76378172875E-01  0.51100000000E-03 0.  1.
         11    1    4    4    0    0 -0.50405289395E-01  0.23085331850E-01 -0.67848445957E-02  0.55856252854E-01  0.51100000000E-03 0. -1.
</event>
<event>
 8    1  0.1022673E+005  0.1043930E+01  0.7957747E-01            NaN
         13   -1    0    0    0    0  0.00000000000E+00  0.00000000000E+00  0.74505805969E-08  0.10566000000E+00  0.10566000000E+00 0. -1.
     999900   -1    0    0    0    0 -0.00000000000E+00 -0.00000000000E+00 -0.74505805969E-08  0.93827000000E+00  0.93827000000E+00 0.  1.
     999902    2    1    2    0    0 -0.20024883267E-01  0.10935944374E-01 -0.12172207009E-02  0.10210810951E+01  0.10208254162E+01 0.  0.
     999903    2    3    3    0    0 -0.11008249840E+00  0.11639415688E-01  0.71742334287E-01  0.13348097929E+00  0.20410214360E-01 0.  0.
         14    1    1    2    0    0  0.20024883267E-01 -0.10935944374E-01  0.12172207009E-02  0.22848904907E-01  0.00000000000E+00 0.  1.
     999901    1    3    3    0    0  0.90057615135E-01 -0.70347131406E-03 -0.72959554988E-01  0.88760011581E+00  0.88000000000E+00 0.  1.
        -11    1    4    4    0    0 -0.22044410669E-01  0.48201654655E-02  0.24584556920E-01  0.33374415304E-01  0.51100000000E-03 0.  1.
         11    1    4    4    0    0 -0.88038087733E-01  0.68192502223E-02  0.47157777366E-01  0.10010656398E+00  0.51100000000E-03 0. -1.
</event>
<event>
 8    1  0.1022673E+005  0.1043930E+01  0.7957747E-01            NaN
         13   -1    0    0    0    0  0.00000000000E+00  0.00000000000E+00  0.74505805969E-08  0.10566000000E+00  0.10566000000E+00 0.  1.
     999900   -1    0    0    0    0 -0.00000000000E+00 -0.00000000000E+00 -0.74505805969E-08  0.93827000000E+00  0.93827000000E+00 0. -1.
     999902    2    1    2    0    0 -0.16076859528E-02  0.20308616525E-01  0.12074868894E-01  0.10202482134E+01  0.10199733280E+01 0.  0.
     999903    2    3    3    0    0 -0.62320964920E-01 -0.70649988134E-01  0.88375019849E-01  0.13020254991E+00  0.16347366079E-01 0.  0.
         14    1    1    2    0    0  0.16076859528E-02 -0.20308616525E-01 -0.12074868894E-01  0.23681786632E-01  0.00000000000E+00 0. -1.
     999901    1    3    3    0    0  0.60713278968E-01  0.90958604659E-01 -0.76300150954E-01  0.89004566346E+00  0.88000000000E+00 0. -1.
        -11    1    4    4    0    0 -0.62089236182E-01 -0.67534265953E-01  0.87800894484E-01  0.12698507204E+00  0.51100000000E-03 0. -1.
         11    1    4    4    0    0 -0.23172873852E-03 -0.31157221808E-02  0.57412536527E-03  0.32174778711E-02  0.51100000000E-03 0.  1.
</event>
<event>
 8    1  0.1022673E+005  0.1043930E+01  0.7957747E-01            NaN
         13   -1    0    0    0    0  0.00000000000E+00  0.00000000000E+00  0.74505805969E-08  0.10566000000E+00  0.10566000000E+00 0.  1.
     999900   -1    0    0    0    0 -0.00000000000E+00 -0.00000000000E+00 -0.74505805969E-08  0.93827000000E+00  0.93827000000E+00 0. -1.
     999902    2    1    2    0    0 -0.30965071288E-02  0.20598465178E-01  0.18887714495E-01  0.10158118407E+01  0.10154226040E+01 0.  0.
     999903    2    3    3    0    0  0.11717247005E+00 -0.39990728393E-01  0.66140241786E-02  0.12548250796E+00  0.19325330334E-01 0.  0.
         14    1    1    2    0    0  0.30965071288E-02 -0.20598465178E-01 -0.18887714495E-01  0.28118159309E-01  0.00000000000E+00 0. -1.
     999901    1    3    3    0    0 -0.12026897718E+00  0.60589193571E-01  0.12273690317E-01  0.89032933273E+00  0.88000000000E+00 0.  1.
        -11    1    4    4    0    0  0.60152632387E-01 -0.10387936933E-01  0.41799688095E-02  0.61188084437E-01  0.51100000000E-03 0. -1.
         11    1    4    4    0    0  0.57019837664E-01 -0.29602791460E-01  0.24340553691E-02  0.64294423522E-01  0.51100000000E-03 0.  1.
</event>
<event>
 8    1  0.1022673E+005  0.1043930E+01  0.7957747E-01            NaN
         13   -1    0    0    0    0  0.00000000000E+00  0.00000000000E+00  0.74505805969E-08  0.10566000000E+00  0.10566000000E+00 0. -1.
     999900   -1    0    0    0    0 -0.00000000000E+00 -0.00000000000E+00 -0.74505805969E-08  0.93827000000E+00  0.93827000000E+00 0.  1.
     999902    2    1    2    0    0  0.12722384339E-01 -0.18184925645E-01 -0.44667324808E-02  0.10212914867E+01  0.10210405470E+01 0.  0.
     999903    2    3    3    0    0  0.83441437819E-01  0.57131933632E-01  0.81129159821E-01  0.13112269903E+00  0.19613521917E-01 0.  0.
         14    1    1    2    0    0 -0.12722384339E-01  0.18184925645E-01  0.44667324808E-02  0.22638513269E-01  0.00000000000E+00 0. -1.
     999901    1    3    3    0    0 -0.70719053480E-01 -0.75316859277E-01 -0.85595892302E-01  0.89016878770E+00  0.88000000000E+00 0.  1.
        -11    1    4    4    0    0  0.48799826005E-01  0.24349883380E-01  0.35233541788E-01  0.64930758710E-01  0.51100000000E-03 0. -1.
         11    1    4    4    0    0  0.34641611814E-01  0.32782050251E-01  0.45895618033E-01  0.66191940321E-01  0.51100000000E-03 0.  1.
</event>
<event>
 8    1  0.1022673E+005  0.1043930E+01  0.7957747E-01            NaN
         13   -1    0    0    0    0  0.00000000000E+00  0.00000000000E+00  0.74505805969E-08  0.10566000000E+00  0.10566000000E+00 0. -1.
     999900   -1    0    0    0    0 -0.00000000000E+00 -0.00000000000E+00 -0.74505805969E-08  0.93827000000E+00  0.93827000000E+00 0.  1.
     999902    2    1    2    0    0  0.60204830054E-02  0.22105945553E-01 -0.54380490265E-02  0.10203823585E+01  0.10201106146E+01 0.  0.
     999903    2    3    3    0    0  0.10902876166E+00 -0.21653994418E-02 -0.70748175076E-01  0.13163874177E+00  0.20772439296E-01 0.  0.
         14    1    1    2    0    0 -0.60204830054E-02 -0.22105945553E-01  0.54380490265E-02  0.23547641530E-01  0.00000000000E+00 0.  1.
     999901    1    3    3    0    0 -0.10300827866E+00  0.24271344995E-01  0.65310126049E-01  0.88874361670E+00  0.88000000000E+00 0. -1.
        -11    1    4    4    0    0  0.39694375719E-01  0.87099320316E-02 -0.22313463024E-01  0.46364405883E-01  0.51100000000E-03 0. -1.
         11    1    4    4    0    0  0.69334385941E-01 -0.10875331473E-01 -0.48434712052E-01  0.85274335887E-01  0.51100000000E-03 0.  1.
</event>
<event>
 8    1  0.1022673E+005  0.1043930E+01  0.7957747E-01            NaN
         13   -1    0    0    0    0  0.00000000000E+00  0.00000000000E+00  0.74505805969E-08  0.10566000000E+00  0.10566000000E+00 0. -1.
     999900   -1    0    0    0    0 -0.00000000000E+00 -0.00000000000E+00 -0.74505805969E-08  0.93827000000E+00  0.93827000000E+00 0. -1.
     999902    2    1    2    0    0  0.15599607427E-01  0.11886509963E-01 -0.91788116279E-03  0.10242963713E+01  0.10241081861E+01 0.  0.
     999903    2    3    3    0    0 -0.55584668608E-01 -0.11568331420E+00 -0.20828783100E-01  0.13203088096E+00  0.22935360322E-01 0.  0.
         14    1    1    2    0    0 -0.15599607427E-01 -0.11886509963E-01  0.91788116279E-03  0.19633628722E-01  0.00000000000E+00 0.  1.
     999901    1    3    3    0    0  0.71184276035E-01  0.12756982417E+00  0.19910901937E-01  0.89226549032E+00  0.88000000000E+00 0. -1.
        -11    1    4    4    0    0 -0.23621784960E-01 -0.37242298866E-01  0.24898945091E-02  0.44175086250E-01  0.51100000000E-03 0. -1.
         11    1    4    4    0    0 -0.31962883648E-01 -0.78441015336E-01 -0.23318677609E-01  0.87855794712E-01  0.51100000000E-03 0.  1.
</event>
<event>
 8    1  0.1022673E+005  0.1043930E+01  0.7957747E-01            NaN
         13   -1    0    0    0    0  0.00000000000E+00  0.00000000000E+00  0.74505805969E-08  0.10566000000E+00  0.10566000000E+00 0.  1.
     999900   -1    0    0    0    0 -0.00000000000E+00 -0.00000000000E+00 -0.74505805969E-08  0.93827000000E+00  0.93827000000E+00 0. -1.
     999902    2    1    2    0    0  0.18530733993E-01 -0.16036873941E-01 -0.25849995814E-02  0.10192875234E+01  0.10189895995E+01 0.  0.
     999903    2    3    3    0    0  0.10854136837E+00 -0.59479286823E-01  0.42576010674E-01  0.13247938501E+00  0.20470870981E-01 0.  0.
         14    1    1    2    0    0 -0.18530733993E-01  0.16036873941E-01  0.25849995814E-02  0.24642476559E-01  0.00000000000E+00 0. -1.
     999901    1    3    3    0    0 -0.90010634379E-01  0.43442412882E-01 -0.45161010255E-01  0.88680813843E+00  0.88000000000E+00 0. -1.
        -11    1    4    4    0    0  0.77089801308E-01 -0.38095372608E-01  0.38532755177E-01  0.94229131495E-01  0.51100000000E-03 0. -1.
         11    1    4    4    0    0  0.31451567065E-01 -0.21383914215E-01  0.40432554971E-02  0.38250253516E-01  0.51100000000E-03 0.  1.
</event>
<event>
 8    1  0.1022673E+005  0.1043930E+01  0.7957747E-01            NaN
         13   -1    0    0    0    0  0.00000000000E+00  0.00000000000E+00  0.74505805969E-08  0.10566000000E+00  0.10566000000E+00 0.  1.
     999900   -1    0    0    0    0 -0.00000000000E+00 -0.00000000000E+00 -0.74505805969E-08  0.93827000000E+00  0.93827000000E+00 0. -1.
     999902    2    1    2    0    0  0.76710476603E-02  0.11519395099E-02  0.37140606718E-01  0.10059879837E+01  0.10052722152E+01 0.  0.
     999903    2    3    3    0    0  0.69249966350E-01 -0.34968273595E-01 -0.82556958073E-01  0.11501989217E+00  0.19889350717E-01 0.  0.
         14    1    1    2    0    0 -0.76710476603E-02 -0.11519395099E-02 -0.37140606718E-01  0.37942016343E-01  0.00000000000E+00 0. -1.
     999901    1    3    3    0    0 -0.61578918689E-01  0.36120213105E-01  0.11969756479E+00  0.89096809148E+00  0.88000000000E+00 0. -1.
        -11    1    4    4    0    0  0.95728480598E-02 -0.57414954524E-02 -0.34259461928E-02  0.11687703723E-01  0.51100000000E-03 0.  1.
         11    1    4    4    0    0  0.59677118290E-01 -0.29226778143E-01 -0.79131011880E-01  0.10333218845E+00  0.51100000000E-03 0. -1.
</event>
<event>
 8    1  0.1022673E+005  0.1043930E+01  0.7957747E-01            NaN
         13   -1    0    0    0    0  0.00000000000E+00  0.00000000000E+00  0.74505805969E-08  0.10566000000E+00  0.10566000000E+00 0. -1.
     999900   -1    0    0    0    0 -0.00000000000E+00 -0.00000000000E+00 -0.74505805969E-08  0.93827000000E+00  0.93827000000E+00 0.  1.
     999902    2    1    2    0    0  0.10873467239E-02  0.13457276914E-01  0.23359608893E-01  0.10169494153E+01  0.10165914426E+01 0.  0.
     999903    2    3    3    0    0  0.41121339473E-02 -0.93655639247E-01 -0.79381943934E-01  0.12451557860E+00  0.20355536931E-01 0.  0.
         14    1    1    2    0    0 -0.10873467239E-02 -0.13457276914E-01 -0.23359608893E-01  0.26980584732E-01  0.00000000000E+00 0.  1.
     999901    1    3    3    0    0 -0.30247872234E-02  0.10711291616E+00  0.10274155283E+00  0.89243383666E+00  0.88000000000E+00 0.  1.
        -11    1    4    4    0    0  0.67453280643E-02 -0.82555892108E-01 -0.60978739036E-01  0.10285738917E+00  0.51100000000E-03 0.  1.
         11    1    4    4    0    0 -0.26331941170E-02 -0.11099747140E-01 -0.18403204898E-01  0.21658189429E-01  0.51100000000E-03 0. -1.
</event>
<event>
 8    1  0.1022673E+005  0.1043930E+01  0.7957747E-01            NaN
         13   -1    0    0    0    0  0.00000000000E+00  0.00000000000E+00  0.74505805969E-08  0.10566000000E+00  0.10566000000E+00 0. -1.
     999900   -1    0    0    0    0 -0.00000000000E+00 -0.00000000000E+00 -0.74505805969E-08  0.93827000000E+00  0.93827000000E+00 0. -1.
     999902    2    1    2    0    0 -0.12305958495E-01  0.17012263157E-01 -0.11031790665E-01  0.10202117767E+01  0.10199360348E+01 0.  0.
     999903    2    3    3    0    0 -0.26608376167E-01 -0.47206030741E-01  0.11497606134E+00  0.12880472758E+00  0.20850614986E-01 0.  0.
         14    1    1    2    0    0  0.12305958495E-01 -0.17012263157E-01  0.11031790665E-01  0.23718223321E-01  0.00000000000E+00 0. -1.
     999901    1    3    3    0    0  0.14302417672E-01  0.64218293898E-01 -0.12600785200E+00  0.89140704910E+00  0.88000000000E+00 0. -1.
        -11    1    4    4    0    0 -0.19840196632E-01 -0.15715976373E-01  0.59363965221E-01  0.64536554010E-01  0.51100000000E-03 0.  1.
         11    1    4    4    0    0 -0.67681795348E-02 -0.31490054368E-01  0.55612096116E-01  0.64268173567E-01  0.51100000000E-03 0. -1.
</event>
<event>
 8    1  0.1022673E+005  0.1043930E+01  0.7957747E-01            NaN
         13   -1    0    0    0    0  0.00000000000E+00  0.00000000000E+00  0.74505805969E-08  0.10566000000E+00  0.10566000000E+00 0. -1.
     999900   -1    0    0    0    0 -0.00000000000E+00 -0.00000000000E+00 -0.74505805969E-08  0.93827000000E+00  0.93827000000E+00 0. -1.
     999902    2    1    2    0    0  0.17831436995E-01 -0.11230996984E-01  0.45888728041E-02  0.10223625896E+01  0.10221350749E+01 0.  0.
     999903    2    3    3    0    0 -0.34645166567E-01 -0.59223644602E-01  0.11223243081E+00  0.13295592010E+00  0.19324350381E-01 0.  0.
         14    1    1    2    0    0 -0.17831436995E-01  0.11230996984E-01 -0.45888728041E-02  0.21567410418E-01  0.00000000000E+00 0.  1.
     999901    1    3    3    0    0  0.52476603561E-01  0.47992647618E-01 -0.10764355800E+00  0.88940666949E+00  0.88000000000E+00 0. -1.
        -11    1    4    4    0    0 -0.23555453298E-01 -0.22237844614E-01  0.56978062707E-01  0.65544960630E-01  0.51100000000E-03 0.  1.
         11    1    4    4    0    0 -0.11089713269E-01 -0.36985799988E-01  0.55254368098E-01  0.67410959466E-01  0.51100000000E-03 0. -1.
</event>
<event>
 8    1  0.1022673E+005  0.1043930E+01  0.7957747E-01            NaN
         13   -1    0    0    0    0  0.00000000000E+00  0.00000000000E+00  0.74505805969E-08  0.10566000000E+00  0.10566000000E+00 0.  1.
     999900   -1    0    0    0    0 -0.00000000000E+00 -0.00000000000E+00 -0.74505805969E-08  0.93827000000E+00  0.93827000000E+00 0. -1.
     999902    2    1    2    0    0  0.18216779615E-01 -0.23325851811E-02  0.11098392330E-01  0.10224715209E+01  0.10222463229E+01 0.  0.
     999903    2    3    3    0    0 -0.50592458108E-01  0.12118222774E-01 -0.11782594037E+00  0.13030280333E+00  0.19733732289E-01 0.  0.
         14    1    1    2    0    0 -0.18216779615E-01  0.23325851811E-02 -0.11098392330E-01  0.21458479105E-01  0.00000000000E+00 0. -1.
     999901    1    3    3    0    0  0.68809237723E-01 -0.14450807955E-01  0.12892433270E+00  0.89216871757E+00  0.88000000000E+00 0.  1.
        -11    1    4    4    0    0 -0.17994045429E-01  0.77735883464E-02 -0.66602570550E-01  0.69428941166E-01  0.51100000000E-03 0.  1.
         11    1    4    4    0    0 -0.32598412680E-01  0.43446344275E-02 -0.51223369820E-01  0.60873862160E-01  0.51100000000E-03 0. -1.
</event>
<event>
 8    1  0.1022673E+005  0.1043930E+01  0.7957747E-01            NaN
         13   -1    0    0    0    0  0.00000000000E+00  0.00000000000E+00  0.74505805969E-08  0.10566000000E+00  0.10566000000E+00 0.  1.
     999900   -1    0    0    0    0 -0.00000000000E+00 -0.00000000000E+00 -0.74505805969E-08  0.93827000000E+00  0.93827000000E+00 0.  1.
     999902    2    1    2    0    0 -0.11169239317E-01  0.11597053293E-01  0.17612453944E-01  0.10200670143E+01  0.10197878562E+01 0.  0.
     999903    2    3    3    0    0  0.12315207610E+00 -0.31488075505E-01  0.26416212877E-02  0.12870700291E+00  0.20014536919E-01 0.  0.
         14    1    1    2    0    0  0.11169239317E-01 -0.11597053293E-01 -0.17612453944E-01  0.23862985687E-01  0.00000000000E+00 0. -1.
     999901    1    3    3    0    0 -0.13432131542E+00  0.43085128798E-01  0.14970832656E-01  0.89136001140E+00  0.88000000000E+00 0.  1.
        -11    1    4    4    0    0  0.11024918010E+00 -0.23908257602E-01 -0.25997711967E-02  0.11284283949E+00  0.51100000000E-03 0.  1.
         11    1    4    4    0    0  0.12902896002E-01 -0.75798179028E-02  0.52413924845E-02  0.15864163415E-01  0.51100000000E-03 0. -1.
</event>
<event>
 8    1  0.1022673E+005  0.1043930E+01  0.7957747E-01            NaN
         13   -1    0    0    0    0  0.00000000000E+00  0.00000000000E+00  0.74505805969E-08  0.10566000000E+00  0.10566000000E+00 0.  1.
     999900   -1    0    0    0    0 -0.00000000000E+00 -0.00000000000E+00 -0.74505805969E-08  0.93827000000E+00  0.93827000000E+00 0. -1.
     999902    2    1    2    0    0 -0.67661362222E-02  0.17529670365E-01  0.88012483528E-02  0.10231807370E+01  0.10229703264E+01 0.  0.
     999903    2    3    3    0    0 -0.12719456496E+00  0.13240258050E-01  0.36376660376E-01  0.13454030980E+00  0.20593002475E-01 0.  0.
         14    1    1    2    0    0  0.67661362222E-02 -0.17529670365E-01 -0.88012483528E-02  0.20749263000E-01  0.00000000000E+00 0. -1.
     999901    1    3    3    0    0  0.12042842874E+00  0.42894123153E-02 -0.27575412024E-01  0.88864042720E+00  0.88000000000E+00 0.  1.
        -11    1    4    4    0    0 -0.39576121123E-01 -0.52889493164E-02  0.12772429408E-01  0.41924198525E-01  0.51100000000E-03 0. -1.
         11    1    4    4    0    0 -0.87618443842E-01  0.18529207366E-01  0.23604230969E-01  0.92616111274E-01  0.51100000000E-03 0.  1.
</event>
<event>
 8    1  0.1022673E+005  0.1043930E+01  0.7957747E-01            NaN
         13   -1    0    0    0    0  0.00000000000E+00  0.00000000000E+00  0.74505805969E-08  0.10566000000E+00  0.10566000000E+00 0. -1.
     999900   -1    0    0    0    0 -0.00000000000E+00 -0.00000000000E+00 -0.74505805969E-08  0.93827000000E+00  0.93827000000E+00 0. -1.
     999902    2    1    2    0    0 -0.11165599629E-01  0.11776969507E-01 -0.16769836719E-01  0.10205934396E+01  0.10203266016E+01 0.  0.
     999903    2    3    3    0    0 -0.11364743395E+00 -0.61679469559E-01 -0.13845852586E-01  0.13160135616E+00  0.20177043909E-01 0.  0.
         14    1    1    2    0    0  0.11165599629E-01 -0.11776969507E-01  0.16769836719E-01  0.23336560360E-01  0.00000000000E+00 0. -1.
     999901    1    3    3    0    0  0.10248183432E+00  0.73456439067E-01 -0.29239841331E-02  0.88899208348E+00  0.88000000000E+00 0. -1.
        -11    1    4    4    0    0 -0.10844238718E-01 -0.91662916288E-02  0.40689105757E-02  0.14779565957E-01  0.51100000000E-03 0.  1.
         11    1    4    4    0    0 -0.10280319523E+00 -0.52513177930E-01 -0.17914763162E-01  0.11682179020E+00  0.51100000000E-03 0. -1.
</event>
<event>
 8    1  0.1022673E+005  0.1043930E+01  0.7957747E-01            NaN
         13   -1    0    0    0    0  0.00000000000E+00  0.00000000000E+00  0.74505805969E-08  0.10566000000E+00  0.10566000000E+00 0.  1.
     999900   -1    0    0    0    0 -0.00000000000E+00 -0.00000000000E+00 -0.74505805969E-08  0.93827000000E+00  0.93827000000E+00 0.  1.
     999902    2    1    2    0    0  0.24138346725E-01  0.16885389771E-02  0.18710532784E-02  0.10196604350E+01  0.10193715666E+01 0.  0.
     999903    2    3    3    0    0 -0.10019579320E+00 -0.68172783088E-01  0.35903782294E-01  0.12752938556E+00  0.16968714405E-01 0.  0.
         14    1    1    2    0    0 -0.24138346725E-01 -0.16885389771E-02 -0.18710532784E-02  0.24269565032E-01  0.00000000000E+00 0.  1.
     999901    1    3    3    0    0  0.12433413993E+00  0.69861322065E-01 -0.34032729015E-01  0.89213104941E+00  0.88000000000E+00 0. -1.
        -11    1    4    4    0    0 -0.24040637341E-01 -0.84258337202E-02  0.95382773713E-02  0.27206373773E-01  0.51100000000E-03 0. -1.
         11    1    4    4    0    0 -0.76155155863E-01 -0.59746949367E-01  0.26365504923E-01  0.10032301179E+00  0.51100000000E-03 0.  1.
</event>
<event>
 8    1  0.1022673E+005  0.1043930E+01  0.7957747E-01            NaN
         13   -1    0    0    0    0  0.00000000000E+00  0.00000000000E+00  0.74505805969E-08  0.10566000000E+00  0.10566000000E+00 0.  1.
     999900   -1    0    0    0    0 -0.00000000000E+00 -0.00000000000E+00 -0.74505805969E-08  0.93827000000E+00  0.93827000000E+00 0. -1.
     999902    2    1    2    0    0 -0.11060715172E-01  0.16043628920E-02  0.21340188674E-01  0.10198402293E+01  0.10195556759E+01 0.  0.
     999903    2    3    3    0    0 -0.13793430402E-01  0.88022349559E-01  0.95571823172E-01  0.13249256816E+00  0.21957105644E-01 0.  0.
         14    1    1    2    0    0  0.11060715172E-01 -0.16043628920E-02 -0.21340188674E-01  0.24089770714E-01  0.00000000000E+00 0. -1.
     999901    1    3    3    0    0  0.27327152300E-02 -0.86417986667E-01 -0.74231634498E-01  0.88734766113E+00  0.88000000000E+00 0. -1.
        -11    1    4    4    0    0 -0.70331074446E-02  0.29457016879E-01  0.47903431371E-01  0.56676099918E-01  0.51100000000E-03 0. -1.
         11    1    4    4    0    0 -0.67603229574E-02  0.58565332680E-01  0.47668391800E-01  0.75816468239E-01  0.51100000000E-03 0.  1.
</event>
<event>
 8    1  0.1022673E+005  0.1043930E+01  0.7957747E-01            NaN
         13   -1    0    0    0    0  0.00000000000E+00  0.00000000000E+00  0.74505805969E-08  0.10566000000E+00  0.10566000000E+00 0. -1.
     999900   -1    0    0    0    0 -0.00000000000E+00 -0.00000000000E+00 -0.74505805969E-08  0.93827000000E+00  0.93827000000E+00 0.  1.
     999902    2    1    2    0    0  0.41092921727E-02 -0.12556986145E-01  0.20008016041E-01  0.10199532427E+01  0.10196713845E+01 0.  0.
     999903    2    3    3    0    0 -0.28553600547E-01  0.12339838598E+00 -0.79097509766E-02  0.12847686644E+00  0.20031756860E-01 0.  0.
         14    1    1    2    0    0 -0.41092921727E-02  0.12556986145E-01 -0.20008016041E-01  0.23976757269E-01  0.00000000000E+00 0.  1.
     999901    1    3    3    0    0  0.32662892720E-01 -0.13595537213E+00  0.27917767018E-01  0.89147637629E+00  0.88000000000E+00 0. -1.
        -11    1    4    4    0    0 -0.25032160711E-02  0.12215362503E-02 -0.18960028833E-02  0.34079597185E-02  0.51100000000E-03 0. -1.
         11    1    4    4    0    0 -0.26050384476E-01  0.12217684973E+00 -0.60137480933E-02  0.12506890672E+00  0.51100000000E-03 0.  1.
</event>
<event>
 8    1  0.1022673E+005  0.1043930E+01  0.7957747E-01            NaN
         13   -1    0    0    0    0  0.00000000000E+00  0.00000000000E+00  0.74505805969E-08  0.10566000000E+00  0.10566000000E+00 0.  1.
     999900   -1    0    0    0    0 -0.00000000000E+00 -0.00000000000E+00 -0.74505805969E-08  0.93827000000E+00  0.93827000000E+00 0.  1.
     999902    2    1    2    0    0 -0.10888074045E-01 -0.18352996187E-01  0.97117140769E-02  0.10204843178E+01  0.10202149493E+01 0.  0.
     999903    2    3    3    0    0 -0.12172137691E+00 -0.46854331881E-01 -0.13504487647E-01  0.13277077208E+00  0.20839499014E-01 0.  0.
         14    1    1    2    0    0  0.10888074045E-01  0.18352996187E-01 -0.97117140769E-02  0.23445682241E-01  0.00000000000E+00 0. -1.
     999901    1    3    3    0    0  0.11083330287E+00  0.28501335694E-01  0.23216201724E-01  0.88771354568E+00  0.88000000000E+00 0. -1.
        -11    1    4    4    0    0 -0.36498186269E-01 -0.10717716783E-01 -0.12991597930E-01  0.40199873031E-01  0.51100000000E-03 0.  1.
         11    1    4    4    0    0 -0.85223190641E-01 -0.36136615097E-01 -0.51288971706E-03  0.92570899048E-01  0.51100000000E-03 0. -1.
</event>
<event>
 8    1  0.1022673E+005  0.1043930E+01  0.7957747E-01            NaN
         13   -1    0    0    0    0  0.00000000000E+00  0.00000000000E+00  0.74505805969E-08  0.10566000000E+00  0.10566000000E+00 0.  1.
     999900   -1    0    0    0    0 -0.00000000000E+00 -0.00000000000E+00 -0.74505805969E-08  0.93827000000E+00  0.93827000000E+00 0.  1.
     999902    2    1    2    0    0 -0.25296115824E-01  0.97012608499E-02  0.33456875436E-03  0.10168353534E+01  0.10164743066E+01 0.  0.
     999903    2    3    3    0    0  0.56585071791E-01 -0.30203038238E-02  0.11072054092E+00  0.12607644666E+00  0.20621339349E-01 0.  0.
         14    1    1    2    0    0  0.25296115824E-01 -0.97012608499E-02 -0.33456875436E-03  0.27094646595E-01  0.00000000000E+00 0. -1.
     999901    1    3    3    0    0 -0.81881187615E-01  0.12721564674E-01 -0.11038597216E+00  0.89075890674E+00  0.88000000000E+00 0. -1.
        -11    1    4    4    0    0  0.73507349521E-02 -0.74103678983E-02  0.25477899452E-01  0.27537816511E-01  0.51100000000E-03 0. -1.
         11    1    4    4    0    0  0.49234336838E-01  0.43900640745E-02  0.85242641467E-01  0.98538630149E-01  0.51100000000E-03 0.  1.
</event>
<event>
 8    1  0.1022673E+005  0.1043930E+01  0.7957747E-01            NaN
         13   -1    0    0    0    0  0.00000000000E+00  0.00000000000E+00  0.74505805969E-08  0.10566000000E+00  0.10566000000E+00 0. -1.
     999900   -1    0    0    0    0 -0.00000000000E+00 -0.00000000000E+00 -0.74505805969E-08  0.93827000000E+00  0.93827000000E+00 0.  1.
     999902    2    1    2    0    0 -0.11754985177E-01 -0.12616434196E-02 -0.21126279949E-01  0.10197206810E+01  0.10194332623E+01 0.  0.
     999903    2    3    3    0    0  0.10909249050E+00 -0.61560837309E-01 -0.25854625822E-01  0.12940474698E+00  0.19652447436E-01 0.  0.
         14    1    1    2    0    0  0.11754985177E-01  0.12616434196E-02  0.21126279949E-01  0.24209318972E-01  0.00000000000E+00 0.  1.
     999901    1    3    3    0    0 -0.12084747568E+00  0.60299193889E-01  0.47283458737E-02  0.89031593405E+00  0.88000000000E+00 0.  1.
        -11    1    4    4    0    0  0.65501628081E-01 -0.31047110449E-01 -0.64904738061E-02  0.72778937336E-01  0.51100000000E-03 0. -1.
         11    1    4    4    0    0  0.43590862424E-01 -0.30513726860E-01 -0.19364152016E-01  0.56625809646E-01  0.51100000000E-03 0.  1.
</event>
<event>
 8    1  0.1022673E+005  0.1043930E+01  0.7957747E-01            NaN
         13   -1    0    0    0    0  0.00000000000E+00  0.00000000000E+00  0.74505805969E-08  0.10566000000E+00  0.10566000000E+00 0. -1.
     999900   -1    0    0    0    0 -0.00000000000E+00 -0.00000000000E+00 -0.74505805969E-08  0.93827000000E+00  0.93827000000E+00 0.  1.
     999902    2    1    2    0    0 -0.15691648248E-01  0.15962685516E-01 -0.71389006194E-02  0.10204353398E+01  0.10201648317E+01 0.  0.
     999903    2    3    3    0    0  0.11254726369E+00 -0.57465096455E-01 -0.66249216715E-02  0.12811414102E+00  0.20005490973E-01 0.  0.
         14    1    1    2    0    0  0.15691648248E-01 -0.15962685516E-01  0.71389006194E-02  0.23494660152E-01  0.00000000000E+00 0. -1.
     999901    1    3    3    0    0 -0.12823891193E+00  0.73427781971E-01 -0.51397894792E-03  0.89232119883E+00  0.88000000000E+00 0.  1.
        -11    1    4    4    0    0  0.10466296224E+00 -0.51703265581E-01 -0.81775504879E-03  0.11674113749E+00  0.51100000000E-03 0. -1.
         11    1    4    4    0    0  0.78843014435E-02 -0.57618308742E-02 -0.58071666227E-02  0.11373003537E-01  0.51100000000E-03 0.  1.
</event>
<event>
 8    1  0.1022673E+005  0.1043930E+01  0.7957747E-01            NaN
         13   -1    0    0    0    0  0.00000000000E+00  0.00000000000E+00  0.74505805969E-08  0.10566000000E+00  0.10566000000E+00 0. -1.
     999900   -1    0    0    0    0 -0.00000000000E+00 -0.00000000000E+00 -0.74505805969E-08  0.93827000000E+00  0.93827000000E+00 0.  1.
     999902    2    1    2    0    0 -0.35075395045E-02  0.15069223805E-01 -0.17612308577E-01  0.10204869253E+01  0.10202176174E+01 0.  0.
     999903    2    3    3    0    0 -0.12236424016E+00  0.38266544649E-02 -0.44422592890E-01  0.13202077397E+00  0.21644108845E-01 0.  0.
         14    1    1    2    0    0  0.35075395045E-02 -0.15069223805E-01  0.17612308577E-01  0.23443074731E-01  0.00000000000E+00 0. -1.
     999901    1    3    3    0    0  0.11885670065E+00  0.11242569340E-01  0.26810284313E-01  0.88846615130E+00  0.88000000000E+00 0. -1.
        -11    1    4    4    0    0 -0.81296644306E-01 -0.55306869458E-02 -0.35900827622E-01  0.89044165550E-01  0.51100000000E-03 0.  1.
         11    1    4    4    0    0 -0.41067595850E-01  0.93573414107E-02 -0.85217652680E-02  0.42976608422E-01  0.51100000000E-03 0. -1.
</event>
<event>
 8    1  0.1022673E+005  0.1043930E+01  0.7957747E-01            NaN
         13   -1    0    0    0    0  0.00000000000E+00  0.00000000000E+00  0.74505805969E-08  0.10566000000E+00  0.10566000000E+00 0.  1.
     999900   -1    0    0    0    0 -0.00000000000E+00 -0.00000000000E+00 -0.74505805969E-08  0.93827000000E+00  0.93827000000E+00 0.  1.
     999902    2    1    2    0    0 -0.47734391309E-02  0.19159118671E-01  0.62643310181E-02  0.10232152856E+01  0.10230055822E+01 0.  0.
     999903    2    3    3    0    0  0.21893263053E-02  0.70136005336E-01 -0.11235196616E+00  0.13376773289E+00  0.18627658692E-01 0.  0.
         14    1    1    2    0    0  0.47734391309E-02 -0.19159118671E-01 -0.62643310181E-02  0.20714714396E-01  0.00000000000E+00 0.  1.
     999901    1    3    3    0    0 -0.69627654362E-02 -0.50976886665E-01  0.11861629718E+00  0.88944755272E+00  0.88000000000E+00 0. -1.
        -11    1    4    4    0    0  0.14430208416E-02  0.20345510791E-01 -0.49772863601E-01  0.53792389708E-01  0.51100000000E-03 0. -1.
         11    1    4    4    0    0  0.74630546368E-03  0.49790494546E-01 -0.62579102557E-01  0.79975343180E-01  0.51100000000E-03 0.  1.
</event>
<event>
 8    1  0.1022673E+005  0.1043930E+01  0.7957747E-01            NaN
         13   -1    0    0    0    0  0.00000000000E+00  0.00000000000E+00  0.74505805969E-08  0.10566000000E+00  0.10566000000E+00 0. -1.
     999900   -1    0    0    0    0 -0.00000000000E+00 -0.00000000000E+00 -0.74505805969E-08  0.93827000000E+00  0.93827000000E+00 0.  1.
     999902    2    1    2    0    0  0.18915445326E-01  0.54675224672E-02 -0.14225155723E-01  0.10196392007E+01  0.10193498206E+01 0.  0.
     999903    2    3    3    0    0 -0.83152225176E-01  0.12313989221E-01  0.93209703395E-01  0.12722285595E+00  0.20776895538E-01 0.  0.
         14    1    1    2    0    0 -0.18915445326E-01 -0.54675224672E-02  0.14225155723E-01  0.24290799270E-01  0.00000000000E+00 0. -1.
     999901    1    3    3    0    0  0.10206767050E+00 -0.68464667541E-02 -0.10743485912E+00  0.89241634478E+00  0.88000000000E+00 0.  1.
        -11    1    4    4    0    0 -0.68825601874E-01  0.16794758876E-01  0.70135660055E-01  0.99691019311E-01  0.51100000000E-03 0. -1.
         11    1    4    4    0    0 -0.14326623302E-01 -0.44807696542E-02  0.23074043340E-01  0.27531836644E-01  0.51100000000E-03 0.  1.
</event>
<event>
 8    1  0.1022673E+005  0.1043930E+01  0.7957747E-01            NaN
         13   -1    0    0    0    0  0.00000000000E+00  0.00000000000E+00  0.74505805969E-08  0.10566000000E+00  0.10566000000E+00 0. -1.
     999900   -1    0    0    0    0 -0.00000000000E+00 -0.00000000000E+00 -0.74505805969E-08  0.93827000000E+00  0.93827000000E+00 0.  1.
     999902    2    1    2    0    0  0.15681910811E-01  0.18674204088E-01 -0.56171535589E-02  0.10189059987E+01  0.10185986617E+01 0.  0.
     999903    2    3    3    0    0  0.32940195338E-01 -0.32107928652E-01 -0.11980016117E+00  0.12990969244E+00  0.20210740271E-01 0.  0.
         14    1    1    2    0    0 -0.15681910811E-01 -0.18674204088E-01  0.56171535589E-02  0.25024001261E-01  0.00000000000E+00 0. -1.
     999901    1    3    3    0    0 -0.17258284527E-01  0.50782132741E-01  0.11418300761E+00  0.88899630630E+00  0.88000000000E+00 0. -1.
        -11    1    4    4    0    0  0.46837786171E-02 -0.74118047519E-02 -0.48961751866E-01  0.49743209573E-01  0.51100000000E-03 0.  1.
         11    1    4    4    0    0  0.28256416720E-01 -0.24696123900E-01 -0.70838409301E-01  0.80166482865E-01  0.51100000000E-03 0. -1.
</event>
<event>
 8    1  0.1022673E+005  0.1043930E+01  0.7957747E-01            NaN
         13   -1    0    0    0    0  0.00000000000E+00  0.00000000000E+00  0.74505805969E-08  0.10566000000E+00  0.10566000000E+00 0.  1.
     999900   -1    0    0    0    0 -0.00000000000E+00 -0.00000000000E+00 -0.74505805969E-08  0.93827000000E+00  0.93827000000E+00 0. -1.
     999902    2    1    2    0    0 -0.15871101702E-01 -0.18894677580E-01 -0.16093353862E-01  0.10144699126E+01  0.10140420637E+01 0.  0.
     999903    2    3    3    0    0  0.28704400409E-02  0.99922168217E-01 -0.71299538242E-01  0.12457305847E+00  0.21027211302E-01 0.  0.
         14    1    1    2    0    0  0.15871101702E-01  0.18894677580E-01  0.16093353862E-01  0.29460087383E-01  0.00000000000E+00 0.  1.
     999901    1    3    3    0    0 -0.18741541743E-01 -0.11881684580E+00  0.55206184380E-01  0.88989685415E+00  0.88000000000E+00 0.  1.
        -11    1    4    4    0    0 -0.32639250529E-02  0.21718436520E-01 -0.25805576849E-01  0.33890007511E-01  0.51100000000E-03 0.  1.
         11    1    4    4    0    0  0.61343650938E-02  0.78203731697E-01 -0.45493961394E-01  0.90683050956E-01  0.51100000000E-03 0. -1.
</event>
<event>
 8    1  0.1022673E+005  0.1043930E+01  0.7957747E-01            NaN
         13   -1    0    0    0    0  0.00000000000E+00  0.00000000000E+00  0.74505805969E-08  0.10566000000E+00  0.10566000000E+00 0.  1.
     999900   -1    0    0    0    0 -0.00000000000E+00 -0.00000000000E+00 -0.74505805969E-08  0.93827000000E+00  0.93827000000E+00 0.  1.
     999902    2    1    2    0    0  0.10329353288E-01 -0.18730849088E-01 -0.86343141804E-02  0.10208628886E+01  0.10206022466E+01 0.  0.
     999903    2    3    3    0    0  0.83058236717E-01 -0.87550840453E-01  0.52419853485E-01  0.13308290849E+00  0.19984972919E-01 0.  0.
         14    1    1    2    0    0 -0.10329353288E-01  0.18730849088E-01  0.86343141804E-02  0.23067111398E-01  0.00000000000E+00 0. -1.
     999901    1    3    3    0    0 -0.72728883428E-01  0.68819991365E-01 -0.61054167666E-01  0.88777998011E+00  0.88000000000E+00 0. -1.
        -11    1    4    4    0    0  0.14067431157E-01 -0.24261161375E-01  0.18018818891E-01  0.33338199199E-01  0.51100000000E-03 0. -1.
         11    1    4    4    0    0  0.68990805560E-01 -0.63289679077E-01  0.34401034594E-01  0.99744709292E-01  0.51100000000E-03 0.  1.
</event>
<event>
 8    1  0.1022673E+005  0.1043930E+01  0.7957747E-01            NaN
         13   -1    0    0    0    0  0.00000000000E+00  0.00000000000E+00  0.74505805969E-08  0.10566000000E+00  0.10566000000E+00 0. -1.
     999900   -1    0    0    0    0 -0.00000000000E+00 -0.00000000000E+00 -0.74505805969E-08  0.93827000000E+00  0.93827000000E+00 0. -1.
     999902    2    1    2    0    0  0.88462391435E-02  0.23680235927E-01  0.66280008788E-02  0.10177968809E+01  0.10174613264E+01 0.  0.
     999903    2    3    3    0    0  0.12569022925E+00  0.61616288672E-02 -0.22768601770E-01  0.12941431694E+00  0.19840786403E-01 0.  0.
         14    1    1    2    0    0 -0.88462391435E-02 -0.23680235927E-01 -0.66280008788E-02  0.26133119144E-01  0.00000000000E+00 0. -1.
     999901    1    3    3    0    0 -0.11684399010E+00  0.17518607060E-01  0.29396602648E-01  0.88838256391E+00  0.88000000000E+00 0. -1.
        -11    1    4    4    0    0  0.43958615103E-01 -0.64134069340E-02 -0.39276054491E-02  0.44600211164E-01  0.51100000000E-03 0.  1.
         11    1    4    4    0    0  0.81731614143E-01  0.12575035801E-01 -0.18840996320E-01  0.84814105780E-01  0.51100000000E-03 0. -1.
</event>
<event>
 8    1  0.1022673E+005  0.1043930E+01  0.7957747E-01            NaN
         13   -1    0    0    0    0  0.00000000000E+00  0.00000000000E+00  0.74505805969E-08  0.10566000000E+00  0.10566000000E+00 0. -1.
     999900   -1    0    0    0    0 -0.00000000000E+00 -0.00000000000E+00 -0.74505805969E-08  0.93827000000E+00  0.93827000000E+00 0. -1.
     999902    2    1    2    0    0  0.19237816325E-01 -0.37178602740E-02 -0.13022969523E-01  0.10204031261E+01  0.10201318669E+01 0.  0.
     999903    2    3    3    0    0 -0.17717186739E-01  0.11813879587E+00  0.44063492072E-01  0.12940728938E+00  0.23108037873E-01 0.  0.
         14    1    1    2    0    0 -0.19237816325E-01  0.37178602740E-02  0.13022969523E-01  0.23526873935E-01  0.00000000000E+00 0. -1.
     999901    1    3    3    0    0  0.36955003064E-01 -0.12185665615E+00 -0.57086461595E-01  0.89099583669E+00  0.88000000000E+00 0.  1.
        -11    1    4    4    0    0 -0.11782211340E-01  0.69175521320E-01  0.37742668802E-01  0.79679629914E-01  0.51100000000E-03 0.  1.
         11    1    4    4    0    0 -0.59349753986E-02  0.48963274552E-01  0.63208232694E-02  0.49727659462E-01  0.51100000000E-03 0. -1.
</event>
<event>
 8    1  0.1022673E+005  0.1043930E+01  0.7957747E-01            NaN
         13   -1    0    0    0    0  0.00000000000E+00  0.00000000000E+00  0.74505805969E-08  0.10566000000E+00  0.10566000000E+00 0.  1.
     999900   -1    0    0    0    0 -0.00000000000E+00 -0.00000000000E+00 -0.74505805969E-08  0.93827000000E+00  0.93827000000E+00 0.  1.
     999902    2    1    2    0    0  0.95208159594E-02 -0.12885746933E-01  0.17207158915E-01  0.10204188382E+01  0.10201479455E+01 0.  0.
     999903    2    3    3    0    0  0.10283233365E+00 -0.50979519114E-01 -0.60763012362E-01  0.13124083443E+00  0.18937073084E-01 0.  0.
         14    1    1    2    0    0 -0.95208159594E-02  0.12885746933E-01 -0.17207158915E-01  0.23511161785E-01  0.00000000000E+00 0. -1.
     999901    1    3    3    0    0 -0.93311517689E-01  0.38093772181E-01  0.77970171277E-01  0.88917800379E+00  0.88000000000E+00 0. -1.
        -11    1    4    4    0    0  0.38239496628E-01 -0.21418580350E-01 -0.33432076720E-01  0.55126940432E-01  0.51100000000E-03 0. -1.
         11    1    4    4    0    0  0.64592837020E-01 -0.29560938764E-01 -0.27330935642E-01  0.76113893994E-01  0.51100000000E-03 0.  1.
</event>
<event>
 8    1  0.1022673E+005  0.1043930E+01  0.7957747E-01            NaN
         13   -1    0    0    0    0  0.00000000000E+00  0.00000000000E+00  0.74505805969E-08  0.10566000000E+00  0.10566000000E+00 0.  1.
     999900   -1    0    0    0    0 -0.00000000000E+00 -0.00000000000E+00 -0.74505805969E-08  0.93827000000E+00  0.93827000000E+00 0.  1.
     999902    2    1    2    0    0  0.53243625862E-03  0.22878701624E-01 -0.14598285852E-02  0.10209985898E+01  0.10207410400E+01 0.  0.
     999903    2    3    3    0    0 -0.62683999229E-01  0.30084552922E-01  0.10933401508E+00  0.13177223061E+00  0.23992286721E-01 0.  0.
         14    1    1    2    0    0 -0.53243625862E-03 -0.22878701624E-01  0.14598285852E-02  0.22931410246E-01  0.00000000000E+00 0. -1.
     999901    1    3    3    0    0  0.63216435487E-01 -0.72058512982E-02 -0.11079384366E+00  0.88922635915E+00  0.88000000000E+00 0.  1.
        -11    1    4    4    0    0 -0.25668307501E-01  0.21892115513E-01  0.36798081000E-01  0.49924809643E-01  0.51100000000E-03 0. -1.
         11    1    4    4    0    0 -0.37015691728E-01  0.81924374086E-02  0.72535934079E-01  0.81847420964E-01  0.51100000000E-03 0.  1.
</event>
<event>
 8    1  0.1022673E+005  0.1043930E+01  0.7957747E-01            NaN
         13   -1    0    0    0    0  0.00000000000E+00  0.00000000000E+00  0.74505805969E-08  0.10566000000E+00  0.10566000000E+00 0.  1.
     999900   -1    0    0    0    0 -0.00000000000E+00 -0.00000000000E+00 -0.74505805969E-08  0.93827000000E+00  0.93827000000E+00 0. -1.
     999902    2    1    2    0    0 -0.24423636219E-03  0.17891143784E-01  0.14771271492E-01  0.10207277773E+01  0.10204640377E+01 0.  0.
     999903    2    3    3    0    0 -0.47575988914E-01 -0.60522005283E-01  0.10449387959E+00  0.13143645092E+00  0.20740827255E-01 0.  0.
         14    1    1    2    0    0  0.24423636219E-03 -0.17891143784E-01 -0.14771271492E-01  0.23202222712E-01  0.00000000000E+00 0.  1.
     999901    1    3    3    0    0  0.47331752552E-01  0.78413149067E-01 -0.89722608094E-01  0.88929132637E+00  0.88000000000E+00 0. -1.
        -11    1    4    4    0    0 -0.25109654777E-01 -0.25283933469E-01  0.32715099993E-01  0.48376760363E-01  0.51100000000E-03 0. -1.
         11    1    4    4    0    0 -0.22466334137E-01 -0.35238071814E-01  0.71778779594E-01  0.83059690558E-01  0.51100000000E-03 0.  1.
</event>
<event>
 8    1  0.1022673E+005  0.1043930E+01  0.7957747E-01            NaN
         13   -1    0    0    0    0  0.00000000000E+00  0.00000000000E+00  0.74505805969E-08  0.10566000000E+00  0.10566000000E+00 0. -1.
     999900   -1    0    0    0    0 -0.00000000000E+00 -0.00000000000E+00 -0.74505805969E-08  0.93827000000E+00  0.93827000000E+00 0. -1.
     999902    2    1    2    0    0  0.53354984868E-02  0.22974333952E-01  0.24857219392E-03  0.10203429410E+01  0.10200702759E+01 0.  0.
     999903    2    3    3    0    0 -0.10923630388E+00 -0.36186632753E-01 -0.53518934854E-01  0.12932236732E+00  0.24858717307E-01 0.  0.
         14    1    1    2    0    0 -0.53354984868E-02 -0.22974333952E-01 -0.24857219392E-03  0.23587059010E-01  0.00000000000E+00 0. -1.
     999901    1    3    3    0    0  0.11457180237E+00  0.59160966705E-01  0.53767507048E-01  0.89102057366E+00  0.88000000000E+00 0.  1.
        -11    1    4    4    0    0 -0.95099456764E-02  0.34799277508E-02 -0.71521735992E-02  0.12408209867E-01  0.51100000000E-03 0. -1.
         11    1    4    4    0    0 -0.99726358208E-01 -0.39666560504E-01 -0.46366761255E-01  0.11691415746E+00  0.51100000000E-03 0.  1.
</event>
<event>
 8    1  0.1022673E+005  0.1043930E+01  0.7957747E-01            NaN
         13   -1    0    0    0    0  0.00000000000E+00  0.00000000000E+00  0.74505805969E-08  0.10566000000E+00  0.10566000000E+00 0.  1.
     999900   -1    0    0    0    0 -0.00000000000E+00 -0.00000000000E+00 -0.74505805969E-08  0.93827000000E+00  0.93827000000E+00 0.  1.
     999902    2    1    2    0    0 -0.19580645042E-01 -0.95769916602E-02 -0.94520597291E-02  0.10201715939E+01  0.10198949059E+01 0.  0.
     999903    2    3    3    0    0  0.61917270967E-02 -0.68227449715E-01 -0.11110080710E+00  0.13200687983E+00  0.19725734613E-01 0.  0.
         14    1    1    2    0    0  0.19580645042E-01  0.95769916602E-02  0.94520597291E-02  0.23758406147E-01  0.00000000000E+00 0.  1.
     999901    1    3    3    0    0 -0.25772372138E-01  0.58650458055E-01  0.10164874737E+00  0.88816471402E+00  0.88000000000E+00 0. -1.
        -11    1    4    4    0    0  0.34549101683E-02 -0.58926930246E-01 -0.10524478728E+00  0.12066915879E+00  0.51100000000E-03 0.  1.
         11    1    4    4    0    0  0.27368169284E-02 -0.93005194690E-02 -0.58560198157E-02  0.11337721040E-01  0.51100000000E-03 0. -1.
</event>
<event>
 8    1  0.1402768E+005  0.1043930E+01  0.7957747E-01            NaN
         13   -1    0    0    0    0  0.00000000000E+00  0.00000000000E+00  0.74505805969E-08  0.10566000000E+00  0.10566000000E+00 0. -1.
     999900   -1    0    0    0    0 -0.00000000000E+00 -0.00000000000E+00 -0.74505805969E-08  0.93827000000E+00  0.93827000000E+00 0.  1.
     999902    2    1    2    0    0 -0.16904595617E-01  0.15976965946E-01 -0.26508031842E-02  0.10205194137E+01  0.10202508604E+01 0.  0.
     999903    2    3    3    0    0 -0.21068418882E-01 -0.89905147493E-02 -0.12813881343E+00  0.13125682411E+00  0.16854991493E-01 0.  0.
         14    1    1    2    0    0  0.16904595617E-01 -0.15976965946E-01  0.26508031842E-02  0.23410586309E-01  0.00000000000E+00 0. -1.
     999901    1    3    3    0    0  0.41638232658E-02  0.24967480696E-01  0.12548801024E+00  0.88926258958E+00  0.88000000000E+00 0. -1.
        -11    1    4    4    0    0 -0.18227566917E-01 -0.81246253057E-03 -0.64610084546E-01  0.67138874262E-01  0.51100000000E-03 0.  1.
         11    1    4    4    0    0 -0.28408519648E-02 -0.81780522187E-02 -0.63528728883E-01  0.64117949846E-01  0.51100000000E-03 0. -1.
</event>
<event>
 8    1  0.1022673E+005  0.1043930E+01  0.7957747E-01            NaN
         13   -1    0    0    0    0  0.00000000000E+00  0.00000000000E+00  0.74505805969E-08  0.10566000000E+00  0.10566000000E+00 0.  1.
     999900   -1    0    0    0    0 -0.00000000000E+00 -0.00000000000E+00 -0.74505805969E-08  0.93827000000E+00  0.93827000000E+00 0.  1.
     999902    2    1    2    0    0  0.12750895226E-02 -0.14099108516E-01 -0.22431431488E-01  0.10174049207E+01  0.10170590901E+01 0.  0.
     999903    2    3    3    0    0 -0.36532106035E-01 -0.83674847189E-01  0.86441772381E-01  0.12716700755E+00  0.19057622481E-01 0.  0.
         14    1    1    2    0    0 -0.12750895226E-02  0.14099108516E-01  0.22431431488E-01  0.26525079319E-01  0.00000000000E+00 0.  1.
     999901    1    3    3    0    0  0.37807195558E-01  0.69575738673E-01 -0.10887320387E+00  0.89023791313E+00  0.88000000000E+00 0.  1.
        -11    1    4    4    0    0 -0.19286582867E-01 -0.63889670983E-01  0.66357846830E-01  0.94114224716E-01  0.51100000000E-03 0.  1.
         11    1    4    4    0    0 -0.17245523168E-01 -0.19785176206E-01  0.20083925551E-01  0.33052782839E-01  0.51100000000E-03 0. -1.
</event>
<event>
 8    1  0.1028069E+005  0.1043930E+01  0.7957747E-01            NaN
         13   -1    0    0    0    0  0.00000000000E+00  0.00000000000E+00  0.74505805969E-08  0.10566000000E+00  0.10566000000E+00 0. -1.
     999900   -1    0    0    0    0 -0.00000000000E+00 -0.00000000000E+00 -0.74505805969E-08  0.93827000000E+00  0.93827000000E+00 0. -1.
     999902    2    1    2    0    0  0.17597657873E-01  0.14273344726E-01  0.72763513524E-02  0.10201318652E+01  0.10198542401E+01 0.  0.
     999903    2    3    3    0    0  0.31294600712E-01  0.12683069473E+00  0.13694089408E-01  0.13283374693E+00  0.19796441071E-01 0.  0.
         14    1    1    2    0    0 -0.17597657873E-01 -0.14273344726E-01 -0.72763513524E-02  0.23798134828E-01  0.00000000000E+00 0.  1.
     999901    1    3    3    0    0 -0.13696942839E-01 -0.11255735000E+00 -0.64177380557E-02  0.88729811825E+00  0.88000000000E+00 0.  1.
        -11    1    4    4    0    0  0.95966247772E-02  0.68075710999E-01  0.14172930121E-01  0.70196372445E-01  0.51100000000E-03 0. -1.
         11    1    4    4    0    0  0.21697975934E-01  0.58754983727E-01 -0.47884071313E-03  0.62637374481E-01  0.51100000000E-03 0.  1.
</event>
<event>
 8    1  0.1022673E+005  0.1043930E+01  0.7957747E-01            NaN
         13   -1    0    0    0    0  0.00000000000E+00  0.00000000000E+00  0.74505805969E-08  0.10566000000E+00  0.10566000000E+00 0.  1.
     999900   -1    0    0    0    0 -0.00000000000E+00 -0.00000000000E+00 -0.74505805969E-08  0.93827000000E+00  0.93827000000E+00 0.  1.
     999902    2    1    2    0    0  0.77869998021E-02  0.83527949956E-02  0.21242149464E-01  0.10198128803E+01  0.10195276727E+01 0.  0.
     999903    2    3    3    0    0  0.46127043621E-01 -0.51195548698E-01 -0.10584500978E+00  0.12786719233E+00  0.19954057705E-01 0.  0.
         14    1    1    2    0    0 -0.77869998021E-02 -0.83527949956E-02 -0.21242149464E-01  0.24117119728E-01  0.00000000000E+00 0. -1.
     999901    1    3    3    0    0 -0.38340043818E-01  0.59548343694E-01  0.12708715924E+00  0.89194568794E+00  0.88000000000E+00 0. -1.
        -11    1    4    4    0    0  0.23559296500E-01 -0.39756025732E-01 -0.73082031323E-01  0.86468644356E-01  0.51100000000E-03 0.  1.
         11    1    4    4    0    0  0.22567747121E-01 -0.11439522967E-01 -0.32762978457E-01  0.41398547972E-01  0.51100000000E-03 0. -1.
</event>
<event>
 8    1  0.1161184E+005  0.1043930E+01  0.7957747E-01            NaN
         13   -1    0    0    0    0  0.00000000000E+00  0.00000000000E+00  0.74505805969E-08  0.10566000000E+00  0.10566000000E+00 0. -1.
     999900   -1    0    0    0    0 -0.00000000000E+00 -0.00000000000E+00 -0.74505805969E-08  0.93827000000E+00  0.93827000000E+00 0. -1.
     999902    2    1    2    0    0  0.30858381740E-02 -0.17936884399E-01 -0.15110132520E-01  0.10202747612E+01  0.10200004990E+01 0.  0.
     999903    2    3    3    0    0 -0.49930106254E-01  0.62720259686E-01  0.97233910281E-01  0.12789734707E+00  0.21827771127E-01 0.  0.
         14    1    1    2    0    0 -0.30858381740E-02  0.17936884399E-01  0.15110132520E-01  0.23655238827E-01  0.00000000000E+00 0. -1.
     999901    1    3    3    0    0  0.53015944428E-01 -0.80657144085E-01 -0.11234404280E+00  0.89237741411E+00  0.88000000000E+00 0. -1.
        -11    1    4    4    0    0 -0.15708972548E-01  0.37107604343E-01  0.49156638709E-01  0.63564002146E-01  0.51100000000E-03 0.  1.
         11    1    4    4    0    0 -0.34221133706E-01  0.25612655343E-01  0.48077271572E-01  0.64333344921E-01  0.51100000000E-03 0. -1.
</event>
<event>
 8    1  0.1022673E+005  0.1043930E+01  0.7957747E-01            NaN
         13   -1    0    0    0    0  0.00000000000E+00  0.00000000000E+00  0.74505805969E-08  0.10566000000E+00  0.10566000000E+00 0. -1.
     999900   -1    0    0    0    0 -0.00000000000E+00 -0.00000000000E+00 -0.74505805969E-08  0.93827000000E+00  0.93827000000E+00 0. -1.
     999902    2    1    2    0    0 -0.12583564184E-01  0.17801335840E-01  0.87508815583E-02  0.10204393301E+01  0.10201689148E+01 0.  0.
     999903    2    3    3    0    0 -0.11150694700E+00  0.59155189097E-01  0.38170824100E-01  0.13344355226E+00  0.20421415274E-01 0.  0.
         14    1    1    2    0    0  0.12583564184E-01 -0.17801335840E-01 -0.87508815583E-02  0.23490669921E-01  0.00000000000E+00 0.  1.
     999901    1    3    3    0    0  0.98923382814E-01 -0.41353853257E-01 -0.29419942542E-01  0.88699577782E+00  0.88000000000E+00 0. -1.
        -11    1    4    4    0    0 -0.94818913008E-02  0.11512939948E-01  0.76939335645E-02  0.16790228812E-01  0.51100000000E-03 0.  1.
         11    1    4    4    0    0 -0.10202505570E+00  0.47642249149E-01  0.30476890536E-01  0.11665332345E+00  0.51100000000E-03 0. -1.
</event>
<event>
 8    1  0.1022673E+005  0.1043930E+01  0.7957747E-01            NaN
         13   -1    0    0    0    0  0.00000000000E+00  0.00000000000E+00  0.74505805969E-08  0.10566000000E+00  0.10566000000E+00 0. -1.
     999900   -1    0    0    0    0 -0.00000000000E+00 -0.00000000000E+00 -0.74505805969E-08  0.93827000000E+00  0.93827000000E+00 0.  1.
     999902    2    1    2    0    0 -0.20666948405E-02  0.16395685888E-01 -0.16114224788E-01  0.10208484493E+01  0.10205874771E+01 0.  0.
     999903    2    3    3    0    0  0.68345159854E-01  0.10670797069E+00  0.31307088289E-01  0.13216238603E+00  0.20714985424E-01 0.  0.
         14    1    1    2    0    0  0.20666948405E-02 -0.16395685888E-01  0.16114224788E-01  0.23081550724E-01  0.00000000000E+00 0. -1.
     999901    1    3    3    0    0 -0.70411854694E-01 -0.90312284800E-01 -0.47421313077E-01  0.88868606324E+00  0.88000000000E+00 0. -1.
        -11    1    4    4    0    0  0.11515375963E-01  0.28344443927E-01  0.59372023584E-03  0.30604329920E-01  0.51100000000E-03 0.  1.
         11    1    4    4    0    0  0.56829783891E-01  0.78363526761E-01  0.30713368053E-01  0.10155805611E+00  0.51100000000E-03 0. -1.
</event>
<event>
 8    1  0.1022673E+005  0.1043930E+01  0.7957747E-01            NaN
         13   -1    0    0    0    0  0.00000000000E+00  0.00000000000E+00  0.74505805969E-08  0.10566000000E+00  0.10566000000E+00 0. -1.
     999900   -1    0    0    0    0 -0.00000000000E+00 -0.00000000000E+00 -0.74505805969E-08  0.93827000000E+00  0.93827000000E+00 0. -1.
     999902    2    1    2    0    0  0.19192621598E-01  0.93224810913E-02 -0.73153353372E-02  0.10213738587E+01  0.10211247621E+01 0.  0.
     999903    2    3    3    0    0 -0.11048085041E-01  0.93618500622E-01  0.89619776083E-01  0.13153301057E+00  0.19563863680E-01 0.  0.
         14    1    1    2    0    0 -0.19192621598E-01 -0.93224810913E-02  0.73153353372E-02  0.22556141261E-01  0.00000000000E+00 0. -1.
     999901    1    3    3    0    0  0.30240706639E-01 -0.84296019531E-01 -0.96935111420E-01  0.88984084817E+00  0.88000000000E+00 0. -1.
        -11    1    4    4    0    0 -0.97311516815E-03  0.51499689853E-01  0.59919857495E-01  0.79017817303E-01  0.51100000000E-03 0.  1.
         11    1    4    4    0    0 -0.10074969873E-01  0.42118810769E-01  0.29699918588E-01  0.52515193265E-01  0.51100000000E-03 0. -1.
</event>
<event>
 8    1  0.1022673E+005  0.1043930E+01  0.7957747E-01            NaN
         13   -1    0    0    0    0  0.00000000000E+00  0.00000000000E+00  0.74505805969E-08  0.10566000000E+00  0.10566000000E+00 0. -1.
     999900   -1    0    0    0    0 -0.00000000000E+00 -0.00000000000E+00 -0.74505805969E-08  0.93827000000E+00  0.93827000000E+00 0. -1.
     999902    2    1    2    0    0 -0.36844987188E-03  0.12778585611E-01  0.14298121272E-01  0.10247502117E+01  0.10245707063E+01 0.  0.
     999903    2    3    3    0    0 -0.68645382822E-01  0.11202402401E+00 -0.28380992682E-01  0.13551857523E+00  0.17269422340E-01 0.  0.
         14    1    1    2    0    0  0.36844987188E-03 -0.12778585611E-01 -0.14298121272E-01  0.19179788254E-01  0.00000000000E+00 0.  1.
     999901    1    3    3    0    0  0.68276932950E-01 -0.99245438400E-01  0.42679113955E-01  0.88923163652E+00  0.88000000000E+00 0.  1.
        -11    1    4    4    0    0 -0.60462789586E-01  0.10698354407E+00 -0.26471747741E-01  0.12570696948E+00  0.51100000000E-03 0.  1.
         11    1    4    4    0    0 -0.81825932355E-02  0.50404799367E-02 -0.19092449412E-02  0.98116057450E-02  0.51100000000E-03 0. -1.
</event>
<event>
 8    1  0.1022673E+005  0.1043930E+01  0.7957747E-01            NaN
         13   -1    0    0    0    0  0.00000000000E+00  0.00000000000E+00  0.74505805969E-08  0.10566000000E+00  0.10566000000E+00 0. -1.
     999900   -1    0    0    0    0 -0.00000000000E+00 -0.00000000000E+00 -0.74505805969E-08  0.93827000000E+00  0.93827000000E+00 0. -1.
     999902    2    1    2    0    0  0.11243635757E-01  0.27830358410E-02  0.20975898636E-01  0.10199685110E+01  0.10196870159E+01 0.  0.
     999903    2    3    3    0    0 -0.80748759341E-01 -0.95876142386E-01 -0.20581993172E-01  0.12872034542E+00  0.20801732334E-01 0.  0.
         14    1    1    2    0    0 -0.11243635757E-01 -0.27830358410E-02 -0.20975898636E-01  0.23961489042E-01  0.00000000000E+00 0.  1.
     999901    1    3    3    0    0  0.91992395097E-01  0.98659178227E-01  0.41557891808E-01  0.89124816554E+00  0.88000000000E+00 0.  1.
        -11    1    4    4    0    0 -0.62259701931E-01 -0.83669728518E-01 -0.12105928632E-01  0.10499385022E+00  0.51100000000E-03 0. -1.
         11    1    4    4    0    0 -0.18489057409E-01 -0.12206413869E-01 -0.84760645398E-02  0.23726495200E-01  0.51100000000E-03 0.  1.
</event>
<event>
 8    1  0.1022673E+005  0.1043930E+01  0.7957747E-01            NaN
         13   -1    0    0    0    0  0.00000000000E+00  0.00000000000E+00  0.74505805969E-08  0.10566000000E+00  0.10566000000E+00 0. -1.
     999900   -1    0    0    0    0 -0.00000000000E+00 -0.00000000000E+00 -0.74505805969E-08  0.93827000000E+00  0.93827000000E+00 0.  1.
     999902    2    1    2    0    0 -0.20193766264E-01 -0.11657737487E-01 -0.30856822718E-02  0.10204095307E+01  0.10201384210E+01 0.  0.
     999903    2    3    3    0    0  0.61960949914E-02  0.95221727465E-02  0.12794627868E+00  0.13006443575E+00  0.20431442745E-01 0.  0.
         14    1    1    2    0    0  0.20193766264E-01  0.11657737487E-01  0.30856822718E-02  0.23520469263E-01  0.00000000000E+00 0.  1.
     999901    1    3    3    0    0 -0.26389861256E-01 -0.21179910233E-01 -0.13103196095E+00  0.89034509499E+00  0.88000000000E+00 0. -1.
        -11    1    4    4    0    0  0.60093766329E-02  0.12735946065E-01  0.47353963667E-01  0.49406233672E-01  0.51100000000E-03 0.  1.
         11    1    4    4    0    0  0.18671835850E-03 -0.32137733190E-02  0.80592315012E-01  0.80658202080E-01  0.51100000000E-03 0. -1.
</event>
<event>
 8    1  0.1022673E+005  0.1043930E+01  0.7957747E-01            NaN
         13   -1    0    0    0    0  0.00000000000E+00  0.00000000000E+00  0.74505805969E-08  0.10566000000E+00  0.10566000000E+00 0.  1.
     999900   -1    0    0    0    0 -0.00000000000E+00 -0.00000000000E+00 -0.74505805969E-08  0.93827000000E+00  0.93827000000E+00 0.  1.
     999902    2    1    2    0    0  0.22630597808E-01 -0.19419972742E-02  0.74834558333E-02  0.10200152050E+01  0.10197348189E+01 0.  0.
     999903    2    3    3    0    0 -0.64784506519E-01  0.24198703700E-01  0.10779193219E+00  0.12962959909E+00  0.20052998997E-01 0.  0.
         14    1    1    2    0    0 -0.22630597808E-01  0.19419972742E-02 -0.74834558333E-02  0.23914795039E-01  0.00000000000E+00 0. -1.
     999901    1    3    3    0    0  0.87415104326E-01 -0.26140700974E-01 -0.10030847636E+00  0.89038560587E+00  0.88000000000E+00 0.  1.
        -11    1    4    4    0    0 -0.30868066849E-01  0.10113196943E-02  0.44474867941E-01  0.54149194988E-01  0.51100000000E-03 0. -1.
         11    1    4    4    0    0 -0.33916439669E-01  0.23187384006E-01  0.63317064252E-01  0.75480404102E-01  0.51100000000E-03 0.  1.
</event>
<event>
 8    1  0.1022673E+005  0.1043930E+01  0.7957747E-01            NaN
         13   -1    0    0    0    0  0.00000000000E+00  0.00000000000E+00  0.74505805969E-08  0.10566000000E+00  0.10566000000E+00 0. -1.
     999900   -1    0    0    0    0 -0.00000000000E+00 -0.00000000000E+00 -0.74505805969E-08  0.93827000000E+00  0.93827000000E+00 0. -1.
     999902    2    1    2    0    0 -0.12839377182E-01  0.96484673491E-02 -0.19224836511E-01  0.10188793140E+01  0.10185713130E+01 0.  0.
     999903    2    3    3    0    0 -0.11156582659E+00  0.38816187053E-02  0.62836489662E-01  0.12954572667E+00  0.19278750969E-01 0.  0.
         14    1    1    2    0    0  0.12839377182E-01 -0.96484673491E-02  0.19224836511E-01  0.25050685968E-01  0.00000000000E+00 0.  1.
     999901    1    3    3    0    0  0.98726449409E-01  0.57668486438E-02 -0.82061326172E-01  0.88933358736E+00  0.88000000000E+00 0. -1.
        -11    1    4    4    0    0 -0.55429014091E-01  0.88977531345E-02  0.23759399629E-01  0.60961592873E-01  0.51100000000E-03 0. -1.
         11    1    4    4    0    0 -0.56136812500E-01 -0.50161344293E-02  0.39077090033E-01  0.68584133797E-01  0.51100000000E-03 0.  1.
</event>
<event>
 8    1  0.1022673E+005  0.1043930E+01  0.7957747E-01            NaN
         13   -1    0    0    0    0  0.00000000000E+00  0.00000000000E+00  0.74505805969E-08  0.10566000000E+00  0.10566000000E+00 0. -1.
     999900   -1    0    0    0    0 -0.00000000000E+00 -0.00000000000E+00 -0.74505805969E-08  0.93827000000E+00  0.93827000000E+00 0.  1.
     999902    2    1    2    0    0 -0.21789497539E-02  0.16041848943E-02  0.23571555393E-01  0.10202036548E+01  0.10199277219E+01 0.  0.
     999903    2    3    3    0    0  0.49040005361E-01  0.35206976141E-02  0.12223001907E+00  0.13320841988E+00  0.19672013825E-01 0.  0.
         14    1    1    2    0    0  0.21789497539E-02 -0.16041848943E-02 -0.23571555393E-01  0.23726345164E-01  0.00000000000E+00 0.  1.
     999901    1    3    3    0    0 -0.51218955115E-01 -0.19165127198E-02 -0.98658463673E-01  0.88699523496E+00  0.88000000000E+00 0.  1.
        -11    1    4    4    0    0  0.23233496418E-01 -0.42030229395E-02  0.77223306955E-01  0.80753705894E-01  0.51100000000E-03 0.  1.
         11    1    4    4    0    0  0.25806508943E-01  0.77237205535E-02  0.45006712111E-01  0.52454713983E-01  0.51100000000E-03 0. -1.
</event>
<event>
 8    1  0.1022673E+005  0.1043930E+01  0.7957747E-01            NaN
         13   -1    0    0    0    0  0.00000000000E+00  0.00000000000E+00  0.74505805969E-08  0.10566000000E+00  0.10566000000E+00 0. -1.
     999900   -1    0    0    0    0 -0.00000000000E+00 -0.00000000000E+00 -0.74505805969E-08  0.93827000000E+00  0.93827000000E+00 0. -1.
     999902    2    1    2    0    0 -0.11732776768E-01 -0.13451541490E-01 -0.16170887943E-01  0.10198447424E+01  0.10195602968E+01 0.  0.
     999903    2    3    3    0    0 -0.11574855553E+00  0.27430967922E-01  0.49468248035E-01  0.13035097735E+00  0.19851539597E-01 0.  0.
         14    1    1    2    0    0  0.11732776768E-01  0.13451541490E-01  0.16170887943E-01  0.24085257649E-01  0.00000000000E+00 0. -1.
     999901    1    3    3    0    0  0.10401577876E+00 -0.40882509412E-01 -0.65639135978E-01  0.88949376500E+00  0.88000000000E+00 0. -1.
        -11    1    4    4    0    0 -0.90860795062E-01  0.15830091803E-01  0.44641493911E-01  0.10246657985E+00  0.51100000000E-03 0. -1.
         11    1    4    4    0    0 -0.24887760465E-01  0.11600876119E-01  0.48267541236E-02  0.27884397502E-01  0.51100000000E-03 0.  1.
</event>
<event>
 8    1  0.1022673E+005  0.1043930E+01  0.7957747E-01            NaN
         13   -1    0    0    0    0  0.00000000000E+00  0.00000000000E+00  0.74505805969E-08  0.10566000000E+00  0.10566000000E+00 0.  1.
     999900   -1    0    0    0    0 -0.00000000000E+00 -0.00000000000E+00 -0.74505805969E-08  0.93827000000E+00  0.93827000000E+00 0.  1.
     999902    2    1    2    0    0 -0.18153393580E-01 -0.17898176141E-01  0.36896763748E-02  0.10181714263E+01  0.10178455429E+01 0.  0.
     999903    2    3    3    0    0  0.99965324530E-01 -0.77581305771E-01  0.39515349453E-02  0.12827582787E+00  0.20667565714E-01 0.  0.
         14    1    1    2    0    0  0.18153393580E-01  0.17898176141E-01 -0.36896763748E-02  0.25758573707E-01  0.00000000000E+00 0. -1.
     999901    1    3    3    0    0 -0.11811871811E+00  0.59683129630E-01 -0.26185857054E-03  0.88989559843E+00  0.88000000000E+00 0.  1.
        -11    1    4    4    0    0  0.11384775464E-01 -0.18339796737E-01  0.20948638623E-02  0.21693566611E-01  0.51100000000E-03 0.  1.
         11    1    4    4    0    0  0.88580549066E-01 -0.59241509034E-01  0.18566710830E-02  0.10658226125E+00  0.51100000000E-03 0. -1.
</event>
<event>
 8    1  0.1022673E+005  0.1043930E+01  0.7957747E-01            NaN
         13   -1    0    0    0    0  0.00000000000E+00  0.00000000000E+00  0.74505805969E-08  0.10566000000E+00  0.10566000000E+00 0. -1.
     999900   -1    0    0    0    0 -0.00000000000E+00 -0.00000000000E+00 -0.74505805969E-08  0.93827000000E+00  0.93827000000E+00 0.  1.
     999902    2    1    2    0    0 -0.32090864950E-01 -0.51491829587E-02  0.60359965614E-02  0.10108729137E+01  0.10103322606E+01 0.  0.
     999903    2    3    3    0    0 -0.21255900285E-02 -0.68369735845E-01 -0.98934074723E-01  0.12187714778E+00  0.19676104715E-01 0.  0.
         14    1    1    2    0    0  0.32090864950E-01  0.51491829587E-02 -0.60359965614E-02  0.33057086273E-01  0.00000000000E+00 0.  1.
     999901    1    3    3    0    0 -0.29965274922E-01  0.63220552886E-01  0.10497007128E+00  0.88899576595E+00  0.88000000000E+00 0. -1.
        -11    1    4    4    0    0 -0.92703925090E-02 -0.43488474964E-01 -0.53346883232E-01  0.69450260644E-01  0.51100000000E-03 0. -1.
         11    1    4    4    0    0  0.71448024805E-02 -0.24881260881E-01 -0.45587191491E-01  0.52426887134E-01  0.51100000000E-03 0.  1.
</event>
<event>
 8    1  0.1022673E+005  0.1043930E+01  0.7957747E-01            NaN
         13   -1    0    0    0    0  0.00000000000E+00  0.00000000000E+00  0.74505805969E-08  0.10566000000E+00  0.10566000000E+00 0. -1.
     999900   -1    0    0    0    0 -0.00000000000E+00 -0.00000000000E+00 -0.74505805969E-08  0.93827000000E+00  0.93827000000E+00 0.  1.
     999902    2    1    2    0    0 -0.96878409561E-02  0.83717365851E-02 -0.17630320782E-01  0.10221408181E+01  0.10219085495E+01 0.  0.
     999903    2    3    3    0    0  0.18226861767E-01 -0.74522821431E-01  0.10279385382E+00  0.12964279560E+00  0.18836365476E-01 0.  0.
         14    1    1    2    0    0  0.96878409561E-02 -0.83717365851E-02  0.17630320782E-01  0.21789181873E-01  0.00000000000E+00 0. -1.
     999901    1    3    3    0    0 -0.27914702723E-01  0.82894558016E-01 -0.12042417461E+00  0.89249802252E+00  0.88000000000E+00 0.  1.
        -11    1    4    4    0    0  0.14706289413E-01 -0.58510386696E-01  0.66357530925E-01  0.89684576885E-01  0.51100000000E-03 0. -1.
         11    1    4    4    0    0  0.35205723531E-02 -0.16012434735E-01  0.36436322899E-01  0.39958218719E-01  0.51100000000E-03 0.  1.
</event>
<event>
 8    1  0.1022673E+005  0.1043930E+01  0.7957747E-01            NaN
         13   -1    0    0    0    0  0.00000000000E+00  0.00000000000E+00  0.74505805969E-08  0.10566000000E+00  0.10566000000E+00 0.  1.
     999900   -1    0    0    0    0 -0.00000000000E+00 -0.00000000000E+00 -0.74505805969E-08  0.93827000000E+00  0.93827000000E+00 0.  1.
     999902    2    1    2    0    0  0.77688497074E-02 -0.10327598985E-01  0.20188343021E-01  0.10199595282E+01  0.10196778195E+01 0.  0.
     999903    2    3    3    0    0 -0.77924380622E-01 -0.36020694332E-01  0.98136053740E-01  0.13199595318E+00  0.20555950406E-01 0.  0.
         14    1    1    2    0    0 -0.77688497074E-02  0.10327598985E-01 -0.20188343021E-01  0.23970471846E-01  0.00000000000E+00 0. -1.
     999901    1    3    3    0    0  0.85693230329E-01  0.25693095346E-01 -0.77947710718E-01  0.88796357497E+00  0.88000000000E+00 0.  1.
        -11    1    4    4    0    0 -0.66138737756E-01 -0.22450801548E-01  0.83113597679E-01  0.10856565922E+00  0.51100000000E-03 0. -1.
         11    1    4    4    0    0 -0.11785642866E-01 -0.13569892783E-01  0.15022456060E-01  0.23430293959E-01  0.51100000000E-03 0.  1.
</event>
<event>
 8    1  0.1022673E+005  0.1043930E+01  0.7957747E-01            NaN
         13   -1    0    0    0    0  0.00000000000E+00  0.00000000000E+00  0.74505805969E-08  0.10566000000E+00  0.10566000000E+00 0. -1.
     999900   -1    0    0    0    0 -0.00000000000E+00 -0.00000000000E+00 -0.74505805969E-08  0.93827000000E+00  0.93827000000E+00 0.  1.
     999902    2    1    2    0    0  0.13089882408E-01 -0.91800737781E-02  0.18520529946E-01  0.10194631080E+01  0.10191694656E+01 0.  0.
     999903    2    3    3    0    0  0.39677395898E-01 -0.10970828158E-02  0.12485879917E+00  0.13262599885E+00  0.20601856846E-01 0.  0.
         14    1    1    2    0    0 -0.13089882408E-01  0.91800737781E-02 -0.18520529946E-01  0.24466892028E-01  0.00000000000E+00 0.  1.
     999901    1    3    3    0    0 -0.26587513490E-01 -0.80829909624E-02 -0.10633826922E+00  0.88683710912E+00  0.88000000000E+00 0.  1.
        -11    1    4    4    0    0  0.20821881911E-01  0.28104483408E-02  0.93421895520E-01  0.95756780803E-01  0.51100000000E-03 0.  1.
         11    1    4    4    0    0  0.18855513988E-01 -0.39075311566E-02  0.31436903646E-01  0.36869218046E-01  0.51100000000E-03 0. -1.
</event>
<event>
 8    1  0.1022673E+005  0.1043930E+01  0.7957747E-01            NaN
         13   -1    0    0    0    0  0.00000000000E+00  0.00000000000E+00  0.74505805969E-08  0.10566000000E+00  0.10566000000E+00 0.  1.
     999900   -1    0    0    0    0 -0.00000000000E+00 -0.00000000000E+00 -0.74505805969E-08  0.93827000000E+00  0.93827000000E+00 0.  1.
     999902    2    1    2    0    0 -0.11603717216E-01 -0.19496140442E-01 -0.79911471872E-02  0.10198758075E+01  0.10195921040E+01 0.  0.
     999903    2    3    3    0    0  0.62036242351E-01 -0.55694118847E-01  0.97495058938E-01  0.12978565643E+00  0.19715472541E-01 0.  0.
         14    1    1    2    0    0  0.11603717216E-01  0.19496140442E-01  0.79911471872E-02  0.24054192540E-01  0.00000000000E+00 0. -1.
     999901    1    3    3    0    0 -0.73639959568E-01  0.36197978405E-01 -0.10548620612E+00  0.89009015103E+00  0.88000000000E+00 0.  1.
        -11    1    4    4    0    0  0.24335770763E-01 -0.14254906924E-01  0.44371559441E-01  0.52578783918E-01  0.51100000000E-03 0.  1.
         11    1    4    4    0    0  0.37700471589E-01 -0.41439211923E-01  0.53123499496E-01  0.77206872508E-01  0.51100000000E-03 0. -1.
</event>
<event>
 8    1  0.1022673E+005  0.1043930E+01  0.7957747E-01            NaN
         13   -1    0    0    0    0  0.00000000000E+00  0.00000000000E+00  0.74505805969E-08  0.10566000000E+00  0.10566000000E+00 0.  1.
     999900   -1    0    0    0    0 -0.00000000000E+00 -0.00000000000E+00 -0.74505805969E-08  0.93827000000E+00  0.93827000000E+00 0.  1.
     999902    2    1    2    0    0 -0.72084736143E-02 -0.74282757329E-02 -0.20992183526E-01  0.10205245916E+01  0.10202561585E+01 0.  0.
     999903    2    3    3    0    0 -0.38507989276E-01  0.15476718305E-01  0.11990675754E+00  0.12847256958E+00  0.20128998570E-01 0.  0.
         14    1    1    2    0    0  0.72084736143E-02  0.74282757329E-02  0.20992183526E-01  0.23405408379E-01  0.00000000000E+00 0.  1.
     999901    1    3    3    0    0  0.31299515662E-01 -0.22904994038E-01 -0.14089894107E+00  0.89205202204E+00  0.88000000000E+00 0.  1.
        -11    1    4    4    0    0 -0.17334628160E-01  0.17520560742E-01  0.58425297469E-01  0.63413215401E-01  0.51100000000E-03 0. -1.
         11    1    4    4    0    0 -0.21173361117E-01 -0.20438424373E-02  0.61481460071E-01  0.65059354180E-01  0.51100000000E-03 0.  1.
</event>
<event>
 8    1  0.1022673E+005  0.1043930E+01  0.7957747E-01            NaN
         13   -1    0    0    0    0  0.00000000000E+00  0.00000000000E+00  0.74505805969E-08  0.10566000000E+00  0.10566000000E+00 0.  1.
     999900   -1    0    0    0    0 -0.00000000000E+00 -0.00000000000E+00 -0.74505805969E-08  0.93827000000E+00  0.93827000000E+00 0. -1.
     999902    2    1    2    0    0 -0.44763645762E-02 -0.23122828563E-01 -0.40834674232E-02  0.10200264909E+01  0.10197463726E+01 0.  0.
     999903    2    3    3    0    0  0.11918118685E+00 -0.14019139544E-01  0.49054564044E-01  0.12974691821E+00  0.52173710379E-02 0.  0.
         14    1    1    2    0    0  0.44763645762E-02  0.23122828563E-01  0.40834674232E-02  0.23903509089E-01  0.00000000000E+00 0. -1.
     999901    1    3    3    0    0 -0.12365755142E+00 -0.91036890193E-02 -0.53138031467E-01  0.89027957270E+00  0.88000000000E+00 0. -1.
        -11    1    4    4    0    0  0.37712148421E-01 -0.49559870647E-02  0.18066367396E-01  0.42112025577E-01  0.51100000000E-03 0.  1.
         11    1    4    4    0    0  0.81469038424E-01 -0.90631524790E-02  0.30988196648E-01  0.87634892635E-01  0.51100000000E-03 0. -1.
</event>
<event>
 8    1  0.1022673E+005  0.1043930E+01  0.7957747E-01            NaN
         13   -1    0    0    0    0  0.00000000000E+00  0.00000000000E+00  0.74505805969E-08  0.10566000000E+00  0.10566000000E+00 0.  1.
     999900   -1    0    0    0    0 -0.00000000000E+00 -0.00000000000E+00 -0.74505805969E-08  0.93827000000E+00  0.93827000000E+00 0. -1.
     999902    2    1    2    0    0  0.45952488182E-02 -0.23202558697E-01  0.37390142973E-02  0.10199830739E+01  0.10197019250E+01 0.  0.
     999903    2    3    3    0    0 -0.10255237359E+00 -0.75661009211E-01 -0.25401798979E-01  0.13145525272E+00  0.19840726605E-01 0.  0.
         14    1    1    2    0    0 -0.45952488182E-02  0.23202558697E-01 -0.37390142973E-02  0.23946926102E-01  0.00000000000E+00 0. -1.
     999901    1    3    3    0    0  0.10714762240E+00  0.52458450513E-01  0.29140813276E-01  0.88852782118E+00  0.88000000000E+00 0. -1.
        -11    1    4    4    0    0 -0.67182431300E-01 -0.59618618265E-01 -0.13501667970E-01  0.90831794423E-01  0.51100000000E-03 0. -1.
         11    1    4    4    0    0 -0.35369942287E-01 -0.16042390946E-01 -0.11900131009E-01  0.40623458292E-01  0.51100000000E-03 0.  1.
</event>
<event>
 8    1  0.1022673E+005  0.1043930E+01  0.7957747E-01            NaN
         13   -1    0    0    0    0  0.00000000000E+00  0.00000000000E+00  0.74505805969E-08  0.10566000000E+00  0.10566000000E+00 0.  1.
     999900   -1    0    0    0    0 -0.00000000000E+00 -0.00000000000E+00 -0.74505805969E-08  0.93827000000E+00  0.93827000000E+00 0.  1.
     999902    2    1    2    0    0 -0.73745333914E-02 -0.30534438773E-02  0.23156338161E-01  0.10194366691E+01  0.10191423841E+01 0.  0.
     999903    2    3    3    0    0 -0.26474128255E-01  0.49950380791E-01 -0.11222964205E+00  0.12730239467E+00  0.20358956908E-01 0.  0.
         14    1    1    2    0    0  0.73745333914E-02  0.30534438773E-02 -0.23156338161E-01  0.24493330914E-01  0.00000000000E+00 0. -1.
     999901    1    3    3    0    0  0.19099594864E-01 -0.53003824669E-01  0.13538598021E+00  0.89213427442E+00  0.88000000000E+00 0. -1.
        -11    1    4    4    0    0  0.13113296900E-02  0.16638422226E-01 -0.30324726820E-01  0.34618013482E-01  0.51100000000E-03 0. -1.
         11    1    4    4    0    0 -0.27785457945E-01  0.33311958565E-01 -0.81904915226E-01  0.92684381186E-01  0.51100000000E-03 0.  1.
</event>
<event>
 8    1  0.1022673E+005  0.1043930E+01  0.7957747E-01            NaN
         13   -1    0    0    0    0  0.00000000000E+00  0.00000000000E+00  0.74505805969E-08  0.10566000000E+00  0.10566000000E+00 0.  1.
     999900   -1    0    0    0    0 -0.00000000000E+00 -0.00000000000E+00 -0.74505805969E-08  0.93827000000E+00  0.93827000000E+00 0. -1.
     999902    2    1    2    0    0  0.13576554867E-01 -0.16529474930E-01  0.10044303594E-01  0.10202987830E+01  0.10200250841E+01 0.  0.
     999903    2    3    3    0    0 -0.19168981254E-01  0.46488117260E-01  0.11900708581E+00  0.13073913069E+00  0.20035940970E-01 0.  0.
         14    1    1    2    0    0 -0.13576554867E-01  0.16529474930E-01 -0.10044303594E-01  0.23631217028E-01  0.00000000000E+00 0. -1.
     999901    1    3    3    0    0  0.32745536121E-01 -0.63017592190E-01 -0.10896278222E+00  0.88955965228E+00  0.88000000000E+00 0. -1.
        -11    1    4    4    0    0 -0.16998389187E-01  0.15543469905E-01  0.47551858994E-01  0.52839238321E-01  0.51100000000E-03 0. -1.
         11    1    4    4    0    0 -0.21705920675E-02  0.30944647355E-01  0.71455226821E-01  0.77899892368E-01  0.51100000000E-03 0.  1.
</event>
<event>
 8    1  0.1022673E+005  0.1043930E+01  0.7957747E-01            NaN
         13   -1    0    0    0    0  0.00000000000E+00  0.00000000000E+00  0.74505805969E-08  0.10566000000E+00  0.10566000000E+00 0.  1.
     999900   -1    0    0    0    0 -0.00000000000E+00 -0.00000000000E+00 -0.74505805969E-08  0.93827000000E+00  0.93827000000E+00 0.  1.
     999902    2    1    2    0    0 -0.21223004610E-01  0.46356081310E-03  0.92115804986E-02  0.10207894722E+01  0.10205271493E+01 0.  0.
     999903    2    3    3    0    0  0.94853958584E-01 -0.80008149506E-01 -0.28087242709E-01  0.12874644643E+00  0.19702203402E-01 0.  0.
         14    1    1    2    0    0  0.21223004610E-01 -0.46356081310E-03 -0.92115804986E-02  0.23140527837E-01  0.00000000000E+00 0. -1.
     999901    1    3    3    0    0 -0.11607696319E+00  0.80471710319E-01  0.37298823208E-01  0.89204302573E+00  0.88000000000E+00 0. -1.
        -11    1    4    4    0    0  0.55442859688E-01 -0.33936277958E-01 -0.15254514528E-01  0.66772322010E-01  0.51100000000E-03 0.  1.
         11    1    4    4    0    0  0.39411098895E-01 -0.46071871548E-01 -0.12832728181E-01  0.61974124420E-01  0.51100000000E-03 0. -1.
</event>
<event>
 8    1  0.1022673E+005  0.1043930E+01  0.7957747E-01            NaN
         13   -1    0    0    0    0  0.00000000000E+00  0.00000000000E+00  0.74505805969E-08  0.10566000000E+00  0.10566000000E+00 0.  1.
     999900   -1    0    0    0    0 -0.00000000000E+00 -0.00000000000E+00 -0.74505805969E-08  0.93827000000E+00  0.93827000000E+00 0. -1.
     999902    2    1    2    0    0 -0.15339669317E-01  0.18459671760E-01  0.20290289354E-02  0.10198430348E+01  0.10195585484E+01 0.  0.
     999903    2    3    3    0    0  0.36089144662E-01  0.91010701932E-01  0.85271918305E-01  0.13145238109E+00  0.20568281770E-01 0.  0.
         14    1    1    2    0    0  0.15339669317E-01 -0.18459671760E-01 -0.20290289354E-02  0.24086965244E-01  0.00000000000E+00 0. -1.
     999901    1    3    3    0    0 -0.51428813978E-01 -0.72551030172E-01 -0.83242889369E-01  0.88839065366E+00  0.88000000000E+00 0.  1.
        -11    1    4    4    0    0  0.31952037212E-01  0.67824769308E-01  0.54464964116E-01  0.92670520938E-01  0.51100000000E-03 0.  1.
         11    1    4    4    0    0  0.41371074501E-02  0.23185932624E-01  0.30806954189E-01  0.38781860155E-01  0.51100000000E-03 0. -1.
</event>
<event>
 8    1  0.1022673E+005  0.1043930E+01  0.7957747E-01            NaN
         13   -1    0    0    0    0  0.00000000000E+00  0.00000000000E+00  0.74505805969E-08  0.10566000000E+00  0.10566000000E+00 0.  1.
     999900   -1    0    0    0    0 -0.00000000000E+00 -0.00000000000E+00 -0.74505805969E-08  0.93827000000E+00  0.93827000000E+00 0. -1.
     999902    2    1    2    0    0 -0.68514570403E-02 -0.18009890665E-01 -0.15527949309E-01  0.10191829631E+01  0.10188824743E+01 0.  0.
     999903    2    3    3    0    0  0.39284037517E-01 -0.12045972640E+00  0.26716826455E-01  0.13103372239E+00  0.20056577464E-01 0.  0.
         14    1    1    2    0    0  0.68514570403E-02  0.18009890665E-01  0.15527949309E-01  0.24747036895E-01  0.00000000000E+00 0.  1.
     999901    1    3    3    0    0 -0.46135494557E-01  0.10244983574E+00 -0.42244775764E-01  0.88814924071E+00  0.88000000000E+00 0. -1.
        -11    1    4    4    0    0  0.29596908323E-01 -0.71996916869E-01  0.24305029522E-01  0.81550773154E-01  0.51100000000E-03 0. -1.
         11    1    4    4    0    0  0.96871291938E-02 -0.48462809532E-01  0.24117969327E-02  0.49482949238E-01  0.51100000000E-03 0.  1.
</event>
<event>
 8    1  0.1022673E+005  0.1043930E+01  0.7957747E-01            NaN
         13   -1    0    0    0    0  0.00000000000E+00  0.00000000000E+00  0.74505805969E-08  0.10566000000E+00  0.10566000000E+00 0. -1.
     999900   -1    0    0    0    0 -0.00000000000E+00 -0.00000000000E+00 -0.74505805969E-08  0.93827000000E+00  0.93827000000E+00 0. -1.
     999902    2    1    2    0    0 -0.62118798003E-02  0.15938335591E-01 -0.16244014453E-01  0.10203400446E+01  0.10200673118E+01 0.  0.
     999903    2    3    3    0    0 -0.51249782463E-02  0.12243610262E+00  0.44462092376E-01  0.13184233092E+00  0.19714409404E-01 0.  0.
         14    1    1    2    0    0  0.62118798003E-02 -0.15938335591E-01  0.16244014453E-01  0.23589955439E-01  0.00000000000E+00 0. -1.
     999901    1    3    3    0    0 -0.10869015540E-02 -0.10649776703E+00 -0.60706106829E-01  0.88849771364E+00  0.88000000000E+00 0. -1.
        -11    1    4    4    0    0 -0.10141949690E-01  0.56420552105E-01  0.14277102997E-01  0.59078207778E-01  0.51100000000E-03 0. -1.
         11    1    4    4    0    0  0.50169714434E-02  0.66015550513E-01  0.30184989380E-01  0.72764123143E-01  0.51100000000E-03 0.  1.
</event>
<event>
 8    1  0.1165119E+005  0.1043930E+01  0.7957747E-01            NaN
         13   -1    0    0    0    0  0.00000000000E+00  0.00000000000E+00  0.74505805969E-08  0.10566000000E+00  0.10566000000E+00 0.  1.
     999900   -1    0    0    0    0 -0.00000000000E+00 -0.00000000000E+00 -0.74505805969E-08  0.93827000000E+00  0.93827000000E+00 0.  1.
     999902    2    1    2    0    0  0.23407626784E-01 -0.39492459416E-02  0.79337321429E-03  0.10201783058E+01  0.10199017760E+01 0.  0.
     999903    2    3    3    0    0  0.47585677167E-03  0.70984948266E-01 -0.10737313501E+00  0.13009909978E+00  0.18912861218E-01 0.  0.
         14    1    1    2    0    0 -0.23407626784E-01  0.39492459416E-02 -0.79337321429E-03  0.23751694176E-01  0.00000000000E+00 0. -1.
     999901    1    3    3    0    0  0.22931770012E-01 -0.74934194208E-01  0.10816650823E+00  0.89007920605E+00  0.88000000000E+00 0. -1.
        -11    1    4    4    0    0 -0.85427965795E-02  0.48155480844E-01 -0.71834474797E-01  0.86904445220E-01  0.51100000000E-03 0. -1.
         11    1    4    4    0    0  0.90186533512E-02  0.22829467423E-01 -0.35538660218E-01  0.43194654556E-01  0.51100000000E-03 0.  1.
</event>
<event>
 8    1  0.1022673E+005  0.1043930E+01  0.7957747E-01            NaN
         13   -1    0    0    0    0  0.00000000000E+00  0.00000000000E+00  0.74505805969E-08  0.10566000000E+00  0.10566000000E+00 0.  1.
     999900   -1    0    0    0    0 -0.00000000000E+00 -0.00000000000E+00 -0.74505805969E-08  0.93827000000E+00  0.93827000000E+00 0.  1.
     999902    2    1    2    0    0 -0.50652409206E-02  0.13427645331E-01  0.18204926935E-01  0.10207485917E+01  0.10204853305E+01 0.  0.
     999903    2    3    3    0    0 -0.12293815597E+00 -0.20563370835E-01  0.37938453855E-01  0.13201982244E+00  0.21290016930E-01 0.  0.
         14    1    1    2    0    0  0.50652409206E-02 -0.13427645331E-01 -0.18204926935E-01  0.23181408271E-01  0.00000000000E+00 0. -1.
     999901    1    3    3    0    0  0.11787291505E+00  0.33991016166E-01 -0.19733526920E-01  0.88872876929E+00  0.88000000000E+00 0.  1.
        -11    1    4    4    0    0 -0.55670400048E-01 -0.55846144156E-02  0.66949700130E-02  0.56351265329E-01  0.51100000000E-03 0. -1.
         11    1    4    4    0    0 -0.67267755926E-01 -0.14978756419E-01  0.31243483842E-01  0.75668557108E-01  0.51100000000E-03 0.  1.
</event>
<event>
 8    1  0.1022673E+005  0.1043930E+01  0.7957747E-01            NaN
         13   -1    0    0    0    0  0.00000000000E+00  0.00000000000E+00  0.74505805969E-08  0.10566000000E+00  0.10566000000E+00 0.  1.
     999900   -1    0    0    0    0 -0.00000000000E+00 -0.00000000000E+00 -0.74505805969E-08  0.93827000000E+00  0.93827000000E+00 0.  1.
     999902    2    1    2    0    0  0.16038387633E-01 -0.11226220244E-01 -0.21443556784E-01  0.10148940907E+01  0.10144786500E+01 0.  0.
     999903    2    3    3    0    0  0.71437395237E-01  0.90441520350E-01  0.44394803660E-01  0.12487158023E+00  0.18413118004E-01 0.  0.
         14    1    1    2    0    0 -0.16038387633E-01  0.11226220244E-01  0.21443556784E-01  0.29035909257E-01  0.00000000000E+00 0.  1.
     999901    1    3    3    0    0 -0.55399007604E-01 -0.10166774059E+00 -0.65838360444E-01  0.89002251052E+00  0.88000000000E+00 0.  1.
        -11    1    4    4    0    0  0.57913130164E-02  0.71880969671E-02 -0.14566284400E-02  0.93590027180E-02  0.51100000000E-03 0. -1.
         11    1    4    4    0    0  0.65646082221E-01  0.83253423383E-01  0.45851432100E-01  0.11551257751E+00  0.51100000000E-03 0.  1.
</event>
<event>
 8    1  0.1022673E+005  0.1043930E+01  0.7957747E-01            NaN
         13   -1    0    0    0    0  0.00000000000E+00  0.00000000000E+00  0.74505805969E-08  0.10566000000E+00  0.10566000000E+00 0.  1.
     999900   -1    0    0    0    0 -0.00000000000E+00 -0.00000000000E+00 -0.74505805969E-08  0.93827000000E+00  0.93827000000E+00 0. -1.
     999902    2    1    2    0    0  0.89539099804E-02  0.21065317474E-01  0.36644772770E-02  0.10207492214E+01  0.10204859746E+01 0.  0.
     999903    2    3    3    0    0 -0.11559622460E+00 -0.53069547591E-01 -0.49560481885E-02  0.12885066901E+00  0.19976698131E-01 0.  0.
         14    1    1    2    0    0 -0.89539099804E-02 -0.21065317474E-01 -0.36644772770E-02  0.23180778630E-01  0.00000000000E+00 0.  1.
     999901    1    3    3    0    0  0.12455013458E+00  0.74134865064E-01  0.86205254655E-02  0.89189855236E+00  0.88000000000E+00 0.  1.
        -11    1    4    4    0    0 -0.38729970189E-01 -0.22211316594E-01 -0.10387081272E-01  0.45842183129E-01  0.51100000000E-03 0.  1.
         11    1    4    4    0    0 -0.76866254408E-01 -0.30858230997E-01  0.54310330834E-02  0.83008485881E-01  0.51100000000E-03 0. -1.
</event>
<event>
 8    1  0.1022673E+005  0.1043930E+01  0.7957747E-01            NaN
         13   -1    0    0    0    0  0.00000000000E+00  0.00000000000E+00  0.74505805969E-08  0.10566000000E+00  0.10566000000E+00 0. -1.
     999900   -1    0    0    0    0 -0.00000000000E+00 -0.00000000000E+00 -0.74505805969E-08  0.93827000000E+00  0.93827000000E+00 0.  1.
     999902    2    1    2    0    0 -0.17604373044E-02 -0.12846513121E-01 -0.20436369709E-01  0.10197271645E+01  0.10194399015E+01 0.  0.
     999903    2    3    3    0    0 -0.99809847532E-01 -0.59901852168E-01 -0.59282535696E-01  0.13218171982E+00  0.20182924917E-01 0.  0.
         14    1    1    2    0    0  0.17604373044E-02  0.12846513121E-01  0.20436369709E-01  0.24202835490E-01  0.00000000000E+00 0. -1.
     999901    1    3    3    0    0  0.98049410228E-01  0.47055339047E-01  0.38846165987E-01  0.88754544469E+00  0.88000000000E+00 0. -1.
        -11    1    4    4    0    0 -0.62026493930E-01 -0.25622294133E-01 -0.32781262922E-01  0.74690429277E-01  0.51100000000E-03 0.  1.
         11    1    4    4    0    0 -0.37783353602E-01 -0.34279558035E-01 -0.26501272774E-01  0.57491290542E-01  0.51100000000E-03 0. -1.
</event>
<event>
 8    1  0.1022673E+005  0.1043930E+01  0.7957747E-01            NaN
         13   -1    0    0    0    0  0.00000000000E+00  0.00000000000E+00  0.74505805969E-08  0.10566000000E+00  0.10566000000E+00 0. -1.
     999900   -1    0    0    0    0 -0.00000000000E+00 -0.00000000000E+00 -0.74505805969E-08  0.93827000000E+00  0.93827000000E+00 0.  1.
     999902    2    1    2    0    0  0.17017183447E-01 -0.45224735907E-02 -0.16830999709E-01  0.10195718422E+01  0.10192808355E+01 0.  0.
     999903    2    3    3    0    0  0.97080206521E-01 -0.60402022929E-01  0.60760396650E-01  0.13077881991E+00  0.18393016705E-01 0.  0.
         14    1    1    2    0    0 -0.17017183447E-01  0.45224735907E-02  0.16830999709E-01  0.24358157793E-01  0.00000000000E+00 0. -1.
     999901    1    3    3    0    0 -0.80063023073E-01  0.55879549338E-01 -0.77591396359E-01  0.88879302230E+00  0.88000000000E+00 0.  1.
        -11    1    4    4    0    0  0.77033984081E-01 -0.40005127133E-01  0.40901086435E-01  0.95957307658E-01  0.51100000000E-03 0. -1.
         11    1    4    4    0    0  0.20046222440E-01 -0.20396895795E-01  0.19859310215E-01  0.34821512250E-01  0.51100000000E-03 0.  1.
</event>
<event>
 8    1  0.1022673E+005  0.1043930E+01  0.7957747E-01            NaN
         13   -1    0    0    0    0  0.00000000000E+00  0.00000000000E+00  0.74505805969E-08  0.10566000000E+00  0.10566000000E+00 0. -1.
     999900   -1    0    0    0    0 -0.00000000000E+00 -0.00000000000E+00 -0.74505805969E-08  0.93827000000E+00  0.93827000000E+00 0. -1.
     999902    2    1    2    0    0 -0.12246327911E-02  0.11923756022E-01 -0.20564665781E-01  0.10201270346E+01  0.10198492955E+01 0.  0.
     999903    2    3    3    0    0 -0.28307923766E-01  0.42320030211E-01  0.11631585344E+00  0.12861499616E+00  0.20496730777E-01 0.  0.
         14    1    1    2    0    0  0.12246327911E-02 -0.11923756022E-01  0.20564665781E-01  0.23802965400E-01  0.00000000000E+00 0. -1.
     999901    1    3    3    0    0  0.27083290975E-01 -0.30396274189E-01 -0.13688051922E+00  0.89151203844E+00  0.88000000000E+00 0. -1.
        -11    1    4    4    0    0 -0.12535570759E-01  0.48240904694E-02  0.20419541917E-01  0.24446496604E-01  0.51100000000E-03 0.  1.
         11    1    4    4    0    0 -0.15772353007E-01  0.37495939741E-01  0.95896311520E-01  0.10416849956E+00  0.51100000000E-03 0. -1.
</event>
<event>
 8    1  0.1022673E+005  0.1043930E+01  0.7957747E-01            NaN
         13   -1    0    0    0    0  0.00000000000E+00  0.00000000000E+00  0.74505805969E-08  0.10566000000E+00  0.10566000000E+00 0. -1.
     999900   -1    0    0    0    0 -0.00000000000E+00 -0.00000000000E+00 -0.74505805969E-08  0.93827000000E+00  0.93827000000E+00 0. -1.
     999902    2    1    2    0    0  0.17791013094E-01  0.60334703507E-02 -0.13419987275E-01  0.10208427964E+01  0.10205816949E+01 0.  0.
     999903    2    3    3    0    0 -0.92520978688E-01 -0.29240885192E-01  0.81354753975E-01  0.12820890322E+00  0.20093929565E-01 0.  0.
         14    1    1    2    0    0 -0.17791013094E-01 -0.60334703507E-02  0.13419987275E-01  0.23087203595E-01  0.00000000000E+00 0. -1.
     999901    1    3    3    0    0  0.11031199178E+00  0.35274355543E-01 -0.94774741250E-01  0.89263389319E+00  0.88000000000E+00 0.  1.
        -11    1    4    4    0    0 -0.67942917628E-01 -0.30483311264E-01  0.61755071036E-01  0.96744107009E-01  0.51100000000E-03 0.  1.
         11    1    4    4    0    0 -0.24578061060E-01  0.12424260716E-02  0.19599682939E-01  0.31464796207E-01  0.51100000000E-03 0. -1.
</event>
<event>
 8    1  0.1022673E+005  0.1043930E+01  0.7957747E-01            NaN
         13   -1    0    0    0    0  0.00000000000E+00  0.00000000000E+00  0.74505805969E-08  0.10566000000E+00  0.10566000000E+00 0.  1.
     999900   -1    0    0    0    0 -0.00000000000E+00 -0.00000000000E+00 -0.74505805969E-08  0.93827000000E+00  0.93827000000E+00 0. -1.
     999902    2    1    2    0    0  0.16365218691E-01  0.27920641026E-02  0.17441149673E-01  0.10198507619E+01  0.10195664603E+01 0.  0.
     999903    2    3    3    0    0 -0.33741142308E-01  0.56550297799E-01  0.11231694855E+00  0.13170549659E+00  0.19870582189E-01 0.  0.
         14    1    1    2    0    0 -0.16365218691E-01 -0.27920641026E-02 -0.17441149673E-01  0.24079238083E-01  0.00000000000E+00 0. -1.
     999901    1    3    3    0    0  0.50106360999E-01 -0.53758233696E-01 -0.94875798876E-01  0.88814526532E+00  0.88000000000E+00 0. -1.
        -11    1    4    4    0    0 -0.27796380425E-01  0.35116319042E-01  0.60164751591E-01  0.75005687003E-01  0.51100000000E-03 0. -1.
         11    1    4    4    0    0 -0.59447618829E-02  0.21433978756E-01  0.52152196958E-01  0.56699809591E-01  0.51100000000E-03 0.  1.
</event>
<event>
 8    1  0.1022673E+005  0.1043930E+01  0.7957747E-01            NaN
         13   -1    0    0    0    0  0.00000000000E+00  0.00000000000E+00  0.74505805969E-08  0.10566000000E+00  0.10566000000E+00 0.  1.
     999900   -1    0    0    0    0 -0.00000000000E+00 -0.00000000000E+00 -0.74505805969E-08  0.93827000000E+00  0.93827000000E+00 0. -1.
     999902    2    1    2    0    0 -0.12506457701E-01  0.14007575432E-01  0.14362009369E-01  0.10202891251E+01  0.10200151998E+01 0.  0.
     999903    2    3    3    0    0 -0.28739846826E-01  0.15914174195E-02 -0.12428335087E+00  0.12919978062E+00  0.20438214318E-01 0.  0.
         14    1    1    2    0    0  0.12506457701E-01 -0.14007575432E-01 -0.14362009369E-01  0.23640874917E-01  0.00000000000E+00 0. -1.
     999901    1    3    3    0    0  0.16233389125E-01  0.12416158013E-01  0.13864536024E+00  0.89108934446E+00  0.88000000000E+00 0.  1.
        -11    1    4    4    0    0 -0.28305094662E-02 -0.69160549791E-02 -0.37136789636E-01  0.37884638916E-01  0.51100000000E-03 0.  1.
         11    1    4    4    0    0 -0.25909337360E-01  0.85074723987E-02 -0.87146561231E-01  0.91315141704E-01  0.51100000000E-03 0. -1.
</event>
<event>
 8    1  0.1302410E+005  0.1043930E+01  0.7957747E-01            NaN
         13   -1    0    0    0    0  0.00000000000E+00  0.00000000000E+00  0.74505805969E-08  0.10566000000E+00  0.10566000000E+00 0.  1.
     999900   -1    0    0    0    0 -0.00000000000E+00 -0.00000000000E+00 -0.74505805969E-08  0.93827000000E+00  0.93827000000E+00 0.  1.
     999902    2    1    2    0    0  0.14207776447E-01  0.13139667237E-02 -0.20938332742E-01  0.10185922574E+01  0.10182770673E+01 0.  0.
     999903    2    3    3    0    0  0.33692507233E-01 -0.80924112090E-01 -0.94065375589E-01  0.13152387183E+00  0.27682792789E-01 0.  0.
         14    1    1    2    0    0 -0.14207776447E-01 -0.13139667237E-02  0.20938332742E-01  0.25337742562E-01  0.00000000000E+00 0.  1.
     999901    1    3    3    0    0 -0.19484730786E-01  0.82238078813E-01  0.73127042847E-01  0.88706838560E+00  0.88000000000E+00 0.  1.
        -11    1    4    4    0    0  0.35143879238E-01 -0.52195117327E-01 -0.60158176549E-01  0.87055670966E-01  0.51100000000E-03 0.  1.
         11    1    4    4    0    0 -0.14513720049E-02 -0.28728994763E-01 -0.33907199040E-01  0.44468200869E-01  0.51100000000E-03 0. -1.
</event>
<event>
 8    1  0.1022673E+005  0.1043930E+01  0.7957747E-01            NaN
         13   -1    0    0    0    0  0.00000000000E+00  0.00000000000E+00  0.74505805969E-08  0.10566000000E+00  0.10566000000E+00 0.  1.
     999900   -1    0    0    0    0 -0.00000000000E+00 -0.00000000000E+00 -0.74505805969E-08  0.93827000000E+00  0.93827000000E+00 0.  1.
     999902    2    1    2    0    0  0.15548825295E-01  0.92929446995E-03  0.16079046785E-01  0.10215432784E+01  0.10212979509E+01 0.  0.
     999903    2    3    3    0    0 -0.56285363447E-01  0.10943639652E+00  0.41983476456E-01  0.13159666132E+00  0.20265782809E-01 0.  0.
         14    1    1    2    0    0 -0.15548825295E-01 -0.92929446995E-03 -0.16079046785E-01  0.22386721550E-01  0.00000000000E+00 0. -1.
     999901    1    3    3    0    0  0.71834188742E-01 -0.10850710205E+00 -0.25904429671E-01  0.88994661713E+00  0.88000000000E+00 0.  1.
        -11    1    4    4    0    0 -0.22221467647E-01  0.27213642809E-01  0.62441795027E-02  0.35687909409E-01  0.51100000000E-03 0.  1.
         11    1    4    4    0    0 -0.34063895801E-01  0.82222753712E-01  0.35739296953E-01  0.95908751909E-01  0.51100000000E-03 0. -1.
</event>
<event>
 8    1  0.1022673E+005  0.1043930E+01  0.7957747E-01            NaN
         13   -1    0    0    0    0  0.00000000000E+00  0.00000000000E+00  0.74505805969E-08  0.10566000000E+00  0.10566000000E+00 0.  1.
     999900   -1    0    0    0    0 -0.00000000000E+00 -0.00000000000E+00 -0.74505805969E-08  0.93827000000E+00  0.93827000000E+00 0. -1.
     999902    2    1    2    0    0  0.17306457476E-01 -0.66989948582E-02  0.14176068449E-01  0.10205772503E+01  0.10203100376E+01 0.  0.
     999903    2    3    3    0    0 -0.83776029886E-01 -0.78971032531E-01 -0.55103213010E-01  0.12915112574E+00  0.19718063654E-01 0.  0.
         14    1    1    2    0    0 -0.17306457476E-01  0.66989948582E-02 -0.14176068449E-01  0.23352749713E-01  0.00000000000E+00 0.  1.
     999901    1    3    3    0    0  0.10108248736E+00  0.72272037673E-01  0.69279281459E-01  0.89142612454E+00  0.88000000000E+00 0.  1.
        -11    1    4    4    0    0 -0.29318710848E-01 -0.33923869712E-01 -0.12193499260E-01  0.46468895912E-01  0.51100000000E-03 0.  1.
         11    1    4    4    0    0 -0.54457319038E-01 -0.45047162818E-01 -0.42909713750E-01  0.82682229831E-01  0.51100000000E-03 0. -1.
</event>
<event>
 8    1  0.1022673E+005  0.1043930E+01  0.7957747E-01            NaN
         13   -1    0    0    0    0  0.00000000000E+00  0.00000000000E+00  0.74505805969E-08  0.10566000000E+00  0.10566000000E+00 0. -1.
     999900   -1    0    0    0    0 -0.00000000000E+00 -0.00000000000E+00 -0.74505805969E-08  0.93827000000E+00  0.93827000000E+00 0.  1.
     999902    2    1    2    0    0 -0.21751230570E-01  0.13403009007E-02 -0.85416548587E-02  0.10205233278E+01  0.10202548653E+01 0.  0.
     999903    2    3    3    0    0  0.70032734006E-01  0.53600922829E-01 -0.93522699506E-01  0.13014293337E+00  0.20323509115E-01 0.  0.
         14    1    1    2    0    0  0.21751230570E-01 -0.13403009007E-02  0.85416548587E-02  0.23406672244E-01  0.00000000000E+00 0. -1.
     999901    1    3    3    0    0 -0.91783964576E-01 -0.52260621929E-01  0.84981044647E-01  0.89038039439E+00  0.88000000000E+00 0. -1.
        -11    1    4    4    0    0  0.32575663256E-01  0.20715292084E-01 -0.54741370463E-01  0.66986386108E-01  0.51100000000E-03 0.  1.
         11    1    4    4    0    0  0.37457070750E-01  0.32885630745E-01 -0.38781329043E-01  0.63156547262E-01  0.51100000000E-03 0. -1.
</event>
<event>
 8    1  0.1022673E+005  0.1043930E+01  0.7957747E-01            NaN
         13   -1    0    0    0    0  0.00000000000E+00  0.00000000000E+00  0.74505805969E-08  0.10566000000E+00  0.10566000000E+00 0. -1.
     999900   -1    0    0    0    0 -0.00000000000E+00 -0.00000000000E+00 -0.74505805969E-08  0.93827000000E+00  0.93827000000E+00 0. -1.
     999902    2    1    2    0    0 -0.97714162764E-02 -0.15539504454E-01  0.14934173240E-01  0.10202659702E+01  0.10199915018E+01 0.  0.
     999903    2    3    3    0    0 -0.99138611513E-01  0.74359353451E-01  0.37166402653E-01  0.13090520414E+00  0.19926194954E-01 0.  0.
         14    1    1    2    0    0  0.97714162764E-02  0.15539504454E-01 -0.14934173240E-01  0.23664029773E-01  0.00000000000E+00 0.  1.
     999901    1    3    3    0    0  0.89367195237E-01 -0.89898857905E-01 -0.22232229413E-01  0.88936076609E+00  0.88000000000E+00 0. -1.
        -11    1    4    4    0    0 -0.54377917530E-01  0.35675014913E-01  0.28891558736E-01  0.71166339593E-01  0.51100000000E-03 0.  1.
         11    1    4    4    0    0 -0.44760693984E-01  0.38684338538E-01  0.82748439168E-02  0.59738864543E-01  0.51100000000E-03 0. -1.
</event>
<event>
 8    1  0.1022673E+005  0.1043930E+01  0.7957747E-01            NaN
         13   -1    0    0    0    0  0.00000000000E+00  0.00000000000E+00  0.74505805969E-08  0.10566000000E+00  0.10566000000E+00 0. -1.
     999900   -1    0    0    0    0 -0.00000000000E+00 -0.00000000000E+00 -0.74505805969E-08  0.93827000000E+00  0.93827000000E+00 0.  1.
     999902    2    1    2    0    0  0.20821937269E-01 -0.12006565273E-01  0.20121991141E-02  0.10198103063E+01  0.10195250370E+01 0.  0.
     999903    2    3    3    0    0  0.13842920396E-01 -0.10843874324E+00  0.71143927662E-01  0.13181984036E+00  0.19089902810E-01 0.  0.
         14    1    1    2    0    0 -0.20821937269E-01  0.12006565273E-01 -0.20121991141E-02  0.24119693750E-01  0.00000000000E+00 0. -1.
     999901    1    3    3    0    0  0.69790168728E-02  0.96432177963E-01 -0.69131728548E-01  0.88799046589E+00  0.88000000000E+00 0. -1.
        -11    1    4    4    0    0  0.11021307370E-01 -0.86509518170E-01  0.65290171690E-01  0.10894234067E+00  0.51100000000E-03 0. -1.
         11    1    4    4    0    0  0.28216130260E-02 -0.21929225066E-01  0.58537559721E-02  0.22877499689E-01  0.51100000000E-03 0.  1.
</event>
<event>
 8    1  0.1022673E+005  0.1043930E+01  0.7957747E-01            NaN
         13   -1    0    0    0    0  0.00000000000E+00  0.00000000000E+00  0.74505805969E-08  0.10566000000E+00  0.10566000000E+00 0. -1.
     999900   -1    0    0    0    0 -0.00000000000E+00 -0.00000000000E+00 -0.74505805969E-08  0.93827000000E+00  0.93827000000E+00 0.  1.
     999902    2    1    2    0    0  0.86502342097E-02 -0.13724887004E-01  0.16412474226E-01  0.10208525568E+01  0.10205916785E+01 0.  0.
     999903    2    3    3    0    0 -0.32250236804E-01 -0.89372149855E-01 -0.87261755914E-01  0.13060332039E+00  0.20375335775E-01 0.  0.
         14    1    1    2    0    0 -0.86502342097E-02  0.13724887004E-01 -0.16412474226E-01  0.23077443216E-01  0.00000000000E+00 0.  1.
     999901    1    3    3    0    0  0.40900471014E-01  0.75647262851E-01  0.10367423014E+00  0.89024923639E+00  0.88000000000E+00 0. -1.
        -11    1    4    4    0    0 -0.30033334123E-01 -0.69484756614E-01 -0.77489194982E-01  0.10832806202E+00  0.51100000000E-03 0. -1.
         11    1    4    4    0    0 -0.22169026818E-02 -0.19887393241E-01 -0.97725609316E-02  0.22275258373E-01  0.51100000000E-03 0.  1.
</event>
<event>
 8    1  0.1452097E+005  0.1043930E+01  0.7957747E-01            NaN
         13   -1    0    0    0    0  0.00000000000E+00  0.00000000000E+00  0.74505805969E-08  0.10566000000E+00  0.10566000000E+00 0. -1.
     999900   -1    0    0    0    0 -0.00000000000E+00 -0.00000000000E+00 -0.74505805969E-08  0.93827000000E+00  0.93827000000E+00 0. -1.
     999902    2    1    2    0    0  0.20245507243E-02  0.20376014202E-01  0.12118675641E-01  0.10201362391E+01  0.10198587173E+01 0.  0.
     999903    2    3    3    0    0 -0.63789406891E-01 -0.11874459357E-01 -0.10673020270E+00  0.12912747033E+00  0.32748682553E-01 0.  0.
         14    1    1    2    0    0 -0.20245507243E-02 -0.20376014202E-01 -0.12118675641E-01  0.23793760940E-01  0.00000000000E+00 0.  1.
     999901    1    3    3    0    0  0.65813957615E-01  0.32250473559E-01  0.11884887835E+00  0.89100876873E+00  0.88000000000E+00 0.  1.
        -11    1    4    4    0    0 -0.23373784562E-01  0.10305339121E-01 -0.48859641724E-01  0.55136734847E-01  0.51100000000E-03 0.  1.
         11    1    4    4    0    0 -0.40415622329E-01 -0.22179798478E-01 -0.57870560981E-01  0.73990735488E-01  0.51100000000E-03 0. -1.
</event>
<event>
 8    1  0.1022673E+005  0.1043930E+01  0.7957747E-01            NaN
         13   -1    0    0    0    0  0.00000000000E+00  0.00000000000E+00  0.74505805969E-08  0.10566000000E+00  0.10566000000E+00 0. -1.
     999900   -1    0    0    0    0 -0.00000000000E+00 -0.00000000000E+00 -0.74505805969E-08  0.93827000000E+00  0.93827000000E+00 0.  1.
     999902    2    1    2    0    0  0.35166377699E-02  0.46666176640E-02  0.26023096967E-01  0.10172589363E+01  0.10169092378E+01 0.  0.
     999903    2    3    3    0    0  0.10016958679E+00 -0.18974856891E-01 -0.71574591713E-01  0.12628978944E+00  0.20789358476E-01 0.  0.
         14    1    1    2    0    0 -0.35166377699E-02 -0.46666176640E-02 -0.26023096967E-01  0.26671063672E-01  0.00000000000E+00 0.  1.
     999901    1    3    3    0    0 -0.96652949020E-01  0.23641474555E-01  0.97597688680E-01  0.89096914689E+00  0.88000000000E+00 0. -1.
        -11    1    4    4    0    0  0.64275812964E-01 -0.20826638330E-01 -0.40508460380E-01  0.78780235336E-01  0.51100000000E-03 0.  1.
         11    1    4    4    0    0  0.35893773827E-01  0.18517814397E-02 -0.31066131333E-01  0.47509554103E-01  0.51100000000E-03 0. -1.
</event>
<event>
 8    1  0.1022673E+005  0.1043930E+01  0.7957747E-01            NaN
         13   -1    0    0    0    0  0.00000000000E+00  0.00000000000E+00  0.74505805969E-08  0.10566000000E+00  0.10566000000E+00 0. -1.
     999900   -1    0    0    0    0 -0.00000000000E+00 -0.00000000000E+00 -0.74505805969E-08  0.93827000000E+00  0.93827000000E+00 0.  1.
     999902    2    1    2    0    0 -0.26725230602E-03  0.20330267633E-01 -0.12455985249E-01  0.10200858650E+01  0.10198071529E+01 0.  0.
     999903    2    3    3    0    0 -0.30624888664E-01 -0.12254101356E+00 -0.48165021637E-02  0.12801403449E+00  0.20253654534E-01 0.  0.
         14    1    1    2    0    0  0.26725230602E-03 -0.20330267633E-01  0.12455985249E-01  0.23844135009E-01  0.00000000000E+00 0.  1.
     999901    1    3    3    0    0  0.30357636358E-01  0.14287128120E+00 -0.76394830848E-02  0.89207183050E+00  0.88000000000E+00 0. -1.
        -11    1    4    4    0    0 -0.61678100399E-02 -0.60493978767E-01 -0.74655002301E-02  0.61266288956E-01  0.51100000000E-03 0.  1.
         11    1    4    4    0    0 -0.24457078624E-01 -0.62047034796E-01  0.26489980663E-02  0.66747745532E-01  0.51100000000E-03 0. -1.
</event>
<event>
 8    1  0.1022673E+005  0.1043930E+01  0.7957747E-01            NaN
         13   -1    0    0    0    0  0.00000000000E+00  0.00000000000E+00  0.74505805969E-08  0.10566000000E+00  0.10566000000E+00 0.  1.
     999900   -1    0    0    0    0 -0.00000000000E+00 -0.00000000000E+00 -0.74505805969E-08  0.93827000000E+00  0.93827000000E+00 0. -1.
     999902    2    1    2    0    0  0.18073202539E-01 -0.16018860277E-01 -0.85557662848E-03  0.10197643933E+01  0.10194780240E+01 0.  0.
     999903    2    3    3    0    0  0.11863495126E+00  0.98649054514E-02 -0.50619574831E-01  0.13226279324E+00  0.27559700634E-01 0.  0.
         14    1    1    2    0    0 -0.18073202539E-01  0.16018860277E-01  0.85557662848E-03  0.24165606675E-01  0.00000000000E+00 0.  1.
     999901    1    3    3    0    0 -0.10056174872E+00 -0.25883765729E-01  0.49763998202E-01  0.88750160008E+00  0.88000000000E+00 0.  1.
        -11    1    4    4    0    0  0.26093340082E-01  0.13596722806E-01 -0.94624215766E-02  0.30911677580E-01  0.51100000000E-03 0.  1.
         11    1    4    4    0    0  0.92541611181E-01 -0.37318173543E-02 -0.41157153254E-01  0.10135111566E+00  0.51100000000E-03 0. -1.
</event>
<event>
 8    1  0.1022673E+005  0.1043930E+01  0.7957747E-01            NaN
         13   -1    0    0    0    0  0.00000000000E+00  0.00000000000E+00  0.74505805969E-08  0.10566000000E+00  0.10566000000E+00 0. -1.
     999900   -1    0    0    0    0 -0.00000000000E+00 -0.00000000000E+00 -0.74505805969E-08  0.93827000000E+00  0.93827000000E+00 0.  1.
     999902    2    1    2    0    0  0.11946636629E-01  0.19891459334E-02 -0.19936172302E-01  0.10206034101E+01  0.10203368027E+01 0.  0.
     999903    2    3    3    0    0 -0.11762093170E+00 -0.39294199100E-01  0.28535866466E-01  0.12884020846E+00  0.20168936118E-01 0.  0.
         14    1    1    2    0    0 -0.11946636629E-01 -0.19891459334E-02  0.19936172302E-01  0.23326589857E-01  0.00000000000E+00 0. -1.
     999901    1    3    3    0    0  0.12956756833E+00  0.41283345033E-01 -0.48472038768E-01  0.89176320169E+00  0.88000000000E+00 0.  1.
        -11    1    4    4    0    0 -0.23811902174E-01 -0.35944619220E-02  0.12683735353E-01  0.27222511000E-01  0.51100000000E-03 0.  1.
         11    1    4    4    0    0 -0.93809029524E-01 -0.35699737178E-01  0.15852131113E-01  0.10161769746E+00  0.51100000000E-03 0. -1.
</event>
<event>
 8    1  0.1022673E+005  0.1043930E+01  0.7957747E-01            NaN
         13   -1    0    0    0    0  0.00000000000E+00  0.00000000000E+00  0.74505805969E-08  0.10566000000E+00  0.10566000000E+00 0. -1.
     999900   -1    0    0    0    0 -0.00000000000E+00 -0.00000000000E+00 -0.74505805969E-08  0.93827000000E+00  0.93827000000E+00 0.  1.
     999902    2    1    2    0    0  0.28791900631E-02 -0.17327044202E-01  0.14743295437E-01  0.10209979055E+01  0.10207403402E+01 0.  0.
     999903    2    3    3    0    0  0.26825615249E-01 -0.81090486896E-01 -0.97527281593E-01  0.13125418380E+00  0.20513639637E-01 0.  0.
         14    1    1    2    0    0 -0.28791900631E-02  0.17327044202E-01 -0.14743295437E-01  0.22932094465E-01  0.00000000000E+00 0.  1.
     999901    1    3    3    0    0 -0.23946425186E-01  0.63763442694E-01  0.11227057703E+00  0.88974372174E+00  0.88000000000E+00 0. -1.
        -11    1    4    4    0    0  0.86943493606E-02 -0.49741205397E-01 -0.46259536530E-01  0.68483465641E-01  0.51100000000E-03 0.  1.
         11    1    4    4    0    0  0.18131265888E-01 -0.31349281498E-01 -0.51267745063E-01  0.62770718158E-01  0.51100000000E-03 0. -1.
</event>
<event>
 8    1  0.1022673E+005  0.1043930E+01  0.7957747E-01            NaN
         13   -1    0    0    0    0  0.00000000000E+00  0.00000000000E+00  0.74505805969E-08  0.10566000000E+00  0.10566000000E+00 0.  1.
     999900   -1    0    0    0    0 -0.00000000000E+00 -0.00000000000E+00 -0.74505805969E-08  0.93827000000E+00  0.93827000000E+00 0.  1.
     999902    2    1    2    0    0  0.16104034014E-01 -0.83477526216E-02 -0.17418216886E-01  0.10187820545E+01  0.10184716272E+01 0.  0.
     999903    2    3    3    0    0 -0.84876402670E-01 -0.79156251302E-01 -0.54066006837E-01  0.12942613438E+00  0.18928161938E-01 0.  0.
         14    1    1    2    0    0 -0.16104034014E-01  0.83477526216E-02  0.17418216886E-01  0.25147945539E-01  0.00000000000E+00 0.  1.
     999901    1    3    3    0    0  0.10098043668E+00  0.70808498681E-01  0.36647789951E-01  0.88935592008E+00  0.88000000000E+00 0.  1.
        -11    1    4    4    0    0 -0.47459738101E-01 -0.31919375270E-01 -0.29398915577E-01  0.64310423854E-01  0.51100000000E-03 0.  1.
         11    1    4    4    0    0 -0.37416664569E-01 -0.47236876033E-01 -0.24667091260E-01  0.65115710524E-01  0.51100000000E-03 0. -1.
</event>
<event>
 8    1  0.1022673E+005  0.1043930E+01  0.7957747E-01            NaN
         13   -1    0    0    0    0  0.00000000000E+00  0.00000000000E+00  0.74505805969E-08  0.10566000000E+00  0.10566000000E+00 0. -1.
     999900   -1    0    0    0    0 -0.00000000000E+00 -0.00000000000E+00 -0.74505805969E-08  0.93827000000E+00  0.93827000000E+00 0.  1.
     999902    2    1    2    0    0  0.46986494608E-02 -0.15025214194E-02  0.17362897240E-01  0.10258799286E+01  0.10257211233E+01 0.  0.
     999903    2    3    3    0    0  0.13905644003E-01  0.13147140624E+00 -0.20265138598E-01  0.13504733867E+00  0.18681815880E-01 0.  0.
         14    1    1    2    0    0 -0.46986494608E-02  0.15025214194E-02 -0.17362897240E-01  0.18050071411E-01  0.00000000000E+00 0.  1.
     999901    1    3    3    0    0 -0.92069945426E-02 -0.13297392766E+00  0.37628035838E-01  0.89083258992E+00  0.88000000000E+00 0. -1.
        -11    1    4    4    0    0  0.32576297074E-02  0.43701982075E-01 -0.15564755791E-01  0.46508043739E-01  0.51100000000E-03 0.  1.
         11    1    4    4    0    0  0.10648014296E-01  0.87769424166E-01 -0.47003828070E-02  0.88539294928E-01  0.51100000000E-03 0. -1.
</event>
<event>
 8    1  0.1022673E+005  0.1043930E+01  0.7957747E-01            NaN
         13   -1    0    0    0    0  0.00000000000E+00  0.00000000000E+00  0.74505805969E-08  0.10566000000E+00  0.10566000000E+00 0.  1.
     999900   -1    0    0    0    0 -0.00000000000E+00 -0.00000000000E+00 -0.74505805969E-08  0.93827000000E+00  0.93827000000E+00 0. -1.
     999902    2    1    2    0    0  0.98428673936E-02  0.10745721689E-01  0.18960663943E-01  0.10200164191E+01  0.10197360619E+01 0.  0.
     999903    2    3    3    0    0 -0.11430801982E+00 -0.28451081407E-01  0.50795331149E-01  0.12986852231E+00  0.20245493108E-01 0.  0.
         14    1    1    2    0    0 -0.98428673936E-02 -0.10745721689E-01 -0.18960663943E-01  0.23913580876E-01  0.00000000000E+00 0. -1.
     999901    1    3    3    0    0  0.12415088722E+00  0.39196803096E-01 -0.31834667206E-01  0.89014789682E+00  0.88000000000E+00 0. -1.
        -11    1    4    4    0    0 -0.57129139136E-01 -0.58903930307E-02  0.17956072044E-01  0.60175716969E-01  0.51100000000E-03 0.  1.
         11    1    4    4    0    0 -0.57178880686E-01 -0.22560688376E-01  0.32839259105E-01  0.69692805340E-01  0.51100000000E-03 0. -1.
</event>
<event>
 8    1  0.1022673E+005  0.1043930E+01  0.7957747E-01            NaN
         13   -1    0    0    0    0  0.00000000000E+00  0.00000000000E+00  0.74505805969E-08  0.10566000000E+00  0.10566000000E+00 0.  1.
     999900   -1    0    0    0    0 -0.00000000000E+00 -0.00000000000E+00 -0.74505805969E-08  0.93827000000E+00  0.93827000000E+00 0. -1.
     999902    2    1    2    0    0  0.44170140804E-02 -0.13113894085E-01 -0.19597601890E-01  0.10199393720E+01  0.10196571837E+01 0.  0.
     999903    2    3    3    0    0 -0.11066683786E+00  0.22280442712E-01 -0.62607020633E-01  0.13069988675E+00  0.20475698632E-01 0.  0.
         14    1    1    2    0    0 -0.44170140804E-02  0.13113894085E-01  0.19597601890E-01  0.23990627989E-01  0.00000000000E+00 0.  1.
     999901    1    3    3    0    0  0.11508385194E+00 -0.35394336797E-01  0.43009418742E-01  0.88923948527E+00  0.88000000000E+00 0.  1.
        -11    1    4    4    0    0 -0.30278174937E-01  0.48590621543E-02 -0.27757723810E-01  0.41365815774E-01  0.51100000000E-03 0. -1.
         11    1    4    4    0    0 -0.80388662919E-01  0.17421380558E-01 -0.34849296823E-01  0.89334070972E-01  0.51100000000E-03 0.  1.
</event>
<event>
 8    1  0.1022673E+005  0.1043930E+01  0.7957747E-01            NaN
         13   -1    0    0    0    0  0.00000000000E+00  0.00000000000E+00  0.74505805969E-08  0.10566000000E+00  0.10566000000E+00 0. -1.
     999900   -1    0    0    0    0 -0.00000000000E+00 -0.00000000000E+00 -0.74505805969E-08  0.93827000000E+00  0.93827000000E+00 0.  1.
     999902    2    1    2    0    0 -0.12608069431E-01  0.12536698137E-01 -0.14642007371E-01  0.10208969673E+01  0.10206371036E+01 0.  0.
     999903    2    3    3    0    0  0.10204944640E+00  0.74529929598E-01  0.25215603787E-01  0.13040376922E+00  0.20012906734E-01 0.  0.
         14    1    1    2    0    0  0.12608069431E-01 -0.12536698137E-01  0.14642007371E-01  0.23033032688E-01  0.00000000000E+00 0.  1.
     999901    1    3    3    0    0 -0.11465751583E+00 -0.61993231461E-01 -0.39857611158E-01  0.89049319809E+00  0.88000000000E+00 0.  1.
        -11    1    4    4    0    0  0.78146353459E-01  0.66473173446E-01  0.17996920776E-01  0.10416182422E+00  0.51100000000E-03 0.  1.
         11    1    4    4    0    0  0.23903092939E-01  0.80567561521E-02  0.72186830114E-02  0.26241944996E-01  0.51100000000E-03 0. -1.
</event>
<event>
 8    1  0.1100742E+005  0.1043930E+01  0.7957747E-01            NaN
         13   -1    0    0    0    0  0.00000000000E+00  0.00000000000E+00  0.74505805969E-08  0.10566000000E+00  0.10566000000E+00 0. -1.
     999900   -1    0    0    0    0 -0.00000000000E+00 -0.00000000000E+00 -0.74505805969E-08  0.93827000000E+00  0.93827000000E+00 0. -1.
     999902    2    1    2    0    0  0.48041485250E-02 -0.18297401338E-01 -0.15223930107E-01  0.10196474386E+01  0.10193582571E+01 0.  0.
     999903    2    3    3    0    0 -0.18125294093E-01  0.81518831182E-01 -0.98477568356E-01  0.12980463909E+00  0.13325416942E-01 0.  0.
         14    1    1    2    0    0 -0.48041485250E-02  0.18297401338E-01  0.15223930107E-01  0.24282561369E-01  0.00000000000E+00 0. -1.
     999901    1    3    3    0    0  0.22929442618E-01 -0.99816232519E-01  0.83253638249E-01  0.88984279954E+00  0.88000000000E+00 0.  1.
        -11    1    4    4    0    0  0.44347947083E-03  0.25087745368E-01 -0.31495622696E-01  0.40271913435E-01  0.51100000000E-03 0.  1.
         11    1    4    4    0    0 -0.18568773564E-01  0.56431085814E-01 -0.66981945660E-01  0.89532725655E-01  0.51100000000E-03 0. -1.
</event>
<event>
 8    1  0.1022673E+005  0.1043930E+01  0.7957747E-01            NaN
         13   -1    0    0    0    0  0.00000000000E+00  0.00000000000E+00  0.74505805969E-08  0.10566000000E+00  0.10566000000E+00 0.  1.
     999900   -1    0    0    0    0 -0.00000000000E+00 -0.00000000000E+00 -0.74505805969E-08  0.93827000000E+00  0.93827000000E+00 0.  1.
     999902    2    1    2    0    0  0.51245903433E-02  0.15169241282E-01 -0.18138181011E-01  0.10197357669E+01  0.10194487105E+01 0.  0.
     999903    2    3    3    0    0  0.12902452872E+00 -0.27756899861E-02  0.23321011855E-02  0.13063945725E+00  0.20154295541E-01 0.  0.
         14    1    1    2    0    0 -0.51245903433E-02 -0.15169241282E-01  0.18138181011E-01  0.24194233149E-01  0.00000000000E+00 0.  1.
     999901    1    3    3    0    0 -0.12389993838E+00  0.17944931268E-01 -0.20470282197E-01  0.88909630960E+00  0.88000000000E+00 0. -1.
        -11    1    4    4    0    0  0.28223463426E-01 -0.88865828125E-02  0.18371298015E-02  0.29650824756E-01  0.51100000000E-03 0. -1.
         11    1    4    4    0    0  0.10080106530E+00  0.61108928264E-02  0.49497138391E-03  0.10098863250E+00  0.51100000000E-03 0.  1.
</event>
<event>
 8    1  0.1022673E+005  0.1043930E+01  0.7957747E-01            NaN
         13   -1    0    0    0    0  0.00000000000E+00  0.00000000000E+00  0.74505805969E-08  0.10566000000E+00  0.10566000000E+00 0. -1.
     999900   -1    0    0    0    0 -0.00000000000E+00 -0.00000000000E+00 -0.74505805969E-08  0.93827000000E+00  0.93827000000E+00 0. -1.
     999902    2    1    2    0    0 -0.10567516353E-01  0.50324358479E-02  0.20942184460E-01  0.10199388995E+01  0.10196567000E+01 0.  0.
     999903    2    3    3    0    0 -0.11975170220E+00  0.20463367070E-01  0.49177417962E-01  0.13260777277E+00  0.20178785649E-01 0.  0.
         14    1    1    2    0    0  0.10567516353E-01 -0.50324358479E-02 -0.20942184460E-01  0.23991100483E-01  0.00000000000E+00 0.  1.
     999901    1    3    3    0    0  0.10918418585E+00 -0.15430931222E-01 -0.28235233502E-01  0.88733112674E+00  0.88000000000E+00 0.  1.
        -11    1    4    4    0    0 -0.10472608822E+00  0.17601467063E-01  0.49795196794E-01  0.11729103947E+00  0.51100000000E-03 0.  1.
         11    1    4    4    0    0 -0.15025613987E-01  0.28619000066E-02 -0.61777883199E-03  0.15316733301E-01  0.51100000000E-03 0. -1.
</event>
<event>
 8    1  0.1022673E+005  0.1043930E+01  0.7957747E-01            NaN
         13   -1    0    0    0    0  0.00000000000E+00  0.00000000000E+00  0.74505805969E-08  0.10566000000E+00  0.10566000000E+00 0. -1.
     999900   -1    0    0    0    0 -0.00000000000E+00 -0.00000000000E+00 -0.74505805969E-08  0.93827000000E+00  0.93827000000E+00 0.  1.
     999902    2    1    2    0    0 -0.39797430738E-02  0.23008641662E-01 -0.15492879347E-01  0.10159074152E+01  0.10155208570E+01 0.  0.
     999903    2    3    3    0    0 -0.37036284529E-01 -0.43986218160E-01 -0.11202095243E+00  0.12748256470E+00  0.19915741463E-01 0.  0.
         14    1    1    2    0    0  0.39797430738E-02 -0.23008641662E-01  0.15492879347E-01  0.28022584758E-01  0.00000000000E+00 0. -1.
     999901    1    3    3    0    0  0.33056541455E-01  0.66994859822E-01  0.96528073084E-01  0.88842485055E+00  0.88000000000E+00 0. -1.
        -11    1    4    4    0    0 -0.36970687337E-01 -0.32287799159E-01 -0.92535943204E-01  0.10474968068E+00  0.51100000000E-03 0.  1.
         11    1    4    4    0    0 -0.65597191573E-04 -0.11698419001E-01 -0.19485009227E-01  0.22732884016E-01  0.51100000000E-03 0. -1.
</event>
<event>
 8    1  0.1022673E+005  0.1043930E+01  0.7957747E-01            NaN
         13   -1    0    0    0    0  0.00000000000E+00  0.00000000000E+00  0.74505805969E-08  0.10566000000E+00  0.10566000000E+00 0. -1.
     999900   -1    0    0    0    0 -0.00000000000E+00 -0.00000000000E+00 -0.74505805969E-08  0.93827000000E+00  0.93827000000E+00 0.  1.
     999902    2    1    2    0    0  0.91619071905E-02  0.14377003913E-01 -0.15644624582E-01  0.10207914377E+01  0.10205291600E+01 0.  0.
     999903    2    3    3    0    0  0.45174552908E-01 -0.11935249407E+00 -0.13167717760E-01  0.12995664703E+00  0.20726390031E-01 0.  0.
         14    1    1    2    0    0 -0.91619071905E-02 -0.14377003913E-01  0.15644624582E-01  0.23138562254E-01  0.00000000000E+00 0. -1.
     999901    1    3    3    0    0 -0.36012645718E-01  0.13372949799E+00 -0.24769068218E-02  0.89083479072E+00  0.88000000000E+00 0.  1.
        -11    1    4    4    0    0  0.17735984165E-01 -0.67522353802E-01 -0.14454204662E-01  0.71295291223E-01  0.51100000000E-03 0.  1.
         11    1    4    4    0    0  0.27438568743E-01 -0.51830140273E-01  0.12864869026E-02  0.58661355806E-01  0.51100000000E-03 0. -1.
</event>
<event>
 8    1  0.1022673E+005  0.1043930E+01  0.7957747E-01            NaN
         13   -1    0    0    0    0  0.00000000000E+00  0.00000000000E+00  0.74505805969E-08  0.10566000000E+00  0.10566000000E+00 0.  1.
     999900   -1    0    0    0    0 -0.00000000000E+00 -0.00000000000E+00 -0.74505805969E-08  0.93827000000E+00  0.93827000000E+00 0. -1.
     999902    2    1    2    0    0 -0.21625093175E-01 -0.42428690525E-02  0.49528663017E-02  0.10213428913E+01  0.10210931026E+01 0.  0.
     999903    2    3    3    0    0 -0.24935778714E-01  0.12649558328E+00 -0.16086688174E-01  0.13142931891E+00  0.19797946463E-01 0.  0.
         14    1    1    2    0    0  0.21625093175E-01  0.42428690525E-02 -0.49528663017E-02  0.22587108651E-01  0.00000000000E+00 0. -1.
     999901    1    3    3    0    0  0.33106855392E-02 -0.13073845233E+00  0.21039554475E-01  0.88991357244E+00  0.88000000000E+00 0. -1.
        -11    1    4    4    0    0 -0.72193827505E-02  0.10955099751E-01 -0.48557710506E-02  0.13999047515E-01  0.51100000000E-03 0. -1.
         11    1    4    4    0    0 -0.17716395964E-01  0.11554048353E+00 -0.11230917123E-01  0.11743027140E+00  0.51100000000E-03 0.  1.
</event>
<event>
 8    1  0.1315743E+005  0.1043930E+01  0.7957747E-01            NaN
         13   -1    0    0    0    0  0.00000000000E+00  0.00000000000E+00  0.74505805969E-08  0.10566000000E+00  0.10566000000E+00 0. -1.
     999900   -1    0    0    0    0 -0.00000000000E+00 -0.00000000000E+00 -0.74505805969E-08  0.93827000000E+00  0.93827000000E+00 0. -1.
     999902    2    1    2    0    0  0.17110306604E-01  0.15353564989E-01  0.90693046309E-02  0.10192167073E+01  0.10189170475E+01 0.  0.
     999903    2    3    3    0    0 -0.75585565449E-01  0.84691380426E-01 -0.58447267678E-01  0.12907135687E+00  0.18908316743E-01 0.  0.
         14    1    1    2    0    0 -0.17110306604E-01 -0.15353564989E-01 -0.90693046309E-02  0.24713292708E-01  0.00000000000E+00 0.  1.
     999901    1    3    3    0    0  0.92695872053E-01 -0.69337815437E-01  0.67516572309E-01  0.89014535042E+00  0.88000000000E+00 0.  1.
        -11    1    4    4    0    0 -0.31959962618E-01  0.31651648380E-01 -0.13397231294E-01  0.46936265116E-01  0.51100000000E-03 0.  1.
         11    1    4    4    0    0 -0.43625602831E-01  0.53039732047E-01 -0.45050036384E-01  0.82135091752E-01  0.51100000000E-03 0. -1.
</event>
<event>
 8    1  0.1022673E+005  0.1043930E+01  0.7957747E-01            NaN
         13   -1    0    0    0    0  0.00000000000E+00  0.00000000000E+00  0.74505805969E-08  0.10566000000E+00  0.10566000000E+00 0. -1.
     999900   -1    0    0    0    0 -0.00000000000E+00 -0.00000000000E+00 -0.74505805969E-08  0.93827000000E+00  0.93827000000E+00 0. -1.
     999902    2    1    2    0    0 -0.68843466259E-03  0.16576600562E-01 -0.16236507563E-01  0.10207161721E+01  0.10204521655E+01 0.  0.
     999903    2    3    3    0    0 -0.61928778959E-01  0.33508422443E-01  0.10730042656E+00  0.12981862441E+00  0.19532170043E-01 0.  0.
         14    1    1    2    0    0  0.68843466259E-03 -0.16576600562E-01  0.16236507563E-01  0.23213827912E-01  0.00000000000E+00 0. -1.
     999901    1    3    3    0    0  0.61240344297E-01 -0.16931821881E-01 -0.12353693412E+00  0.89089754768E+00  0.88000000000E+00 0. -1.
        -11    1    4    4    0    0 -0.47712469110E-01  0.30204316645E-01  0.71200819216E-01  0.90876829999E-01  0.51100000000E-03 0. -1.
         11    1    4    4    0    0 -0.14216309849E-01  0.33041057980E-02  0.36099607343E-01  0.38941794414E-01  0.51100000000E-03 0.  1.
</event>
<event>
 7    1  0.1022673E+005  0.1043930E+01  0.7957747E-01            NaN
         13   -1    0    0    0    0  0.00000000000E+00  0.00000000000E+00  0.74505805969E-08  0.10566000000E+00  0.10566000000E+00 0.  1.
     999900   -1    0    0    0    0 -0.00000000000E+00 -0.00000000000E+00 -0.74505805969E-08  0.93827000000E+00  0.93827000000E+00 0. -1.
     999903    2    1    2    0    0 -0.64471651198E-01  0.75763067473E-01  0.16680245140E-01  0.10282028391E+00  0.19928472188E-01 0.  0.
         14    1    1    2    0    0 -0.30247693708E-01  0.33217451131E-01 -0.20386628387E-01  0.49334943512E-01  0.00000000000E+00 0.  1.
     999901    1    1    2    0    0  0.94719344906E-01 -0.10898051860E+00  0.37063832478E-02  0.89177477258E+00  0.88000000000E+00 0.  1.
        -11    1    3    3    0    0 -0.32292227602E-03  0.43480403583E-02  0.40922774931E-02  0.60014656405E-02  0.51100000000E-03 0. -1.
         11    1    3    3    0    0 -0.64148728922E-01  0.71415027115E-01  0.12587967646E-01  0.96818818267E-01  0.51100000000E-03 0.  1.
</event>
<event>
 8    1  0.1022673E+005  0.1043930E+01  0.7957747E-01            NaN
         13   -1    0    0    0    0  0.00000000000E+00  0.00000000000E+00  0.74505805969E-08  0.10566000000E+00  0.10566000000E+00 0. -1.
     999900   -1    0    0    0    0 -0.00000000000E+00 -0.00000000000E+00 -0.74505805969E-08  0.93827000000E+00  0.93827000000E+00 0. -1.
     999902    2    1    2    0    0  0.38008039903E-02 -0.10661491695E-01  0.21768562366E-01  0.10193946414E+01  0.10190993332E+01 0.  0.
     999903    2    3    3    0    0  0.96811591551E-01  0.71304239001E-01 -0.40241282565E-01  0.12854414409E+00  0.21153188887E-01 0.  0.
         14    1    1    2    0    0 -0.38008039903E-02  0.10661491695E-01 -0.21768562366E-01  0.24535358640E-01  0.00000000000E+00 0.  1.
     999901    1    3    3    0    0 -0.93010787561E-01 -0.81965730696E-01  0.62009844931E-01  0.89085049727E+00  0.88000000000E+00 0. -1.
        -11    1    4    4    0    0  0.73115321535E-01  0.51073540958E-01 -0.20055679817E-01  0.91415798651E-01  0.51100000000E-03 0. -1.
         11    1    4    4    0    0  0.23696270016E-01  0.20230698043E-01 -0.20185602747E-01  0.37128345442E-01  0.51100000000E-03 0.  1.
</event>
<event>
 8    1  0.1022673E+005  0.1043930E+01  0.7957747E-01            NaN
         13   -1    0    0    0    0  0.00000000000E+00  0.00000000000E+00  0.74505805969E-08  0.10566000000E+00  0.10566000000E+00 0.  1.
     999900   -1    0    0    0    0 -0.00000000000E+00 -0.00000000000E+00 -0.74505805969E-08  0.93827000000E+00  0.93827000000E+00 0.  1.
     999902    2    1    2    0    0  0.21471519293E-01 -0.50668616340E-02 -0.82137760079E-02  0.10203892833E+01  0.10201177011E+01 0.  0.
     999903    2    3    3    0    0  0.12608266186E+00 -0.14719434366E-01  0.32239498549E-01  0.13321786200E+00  0.24374456282E-01 0.  0.
         14    1    1    2    0    0 -0.21471519293E-01  0.50668616340E-02  0.82137760079E-02  0.23540716724E-01  0.00000000000E+00 0.  1.
     999901    1    3    3    0    0 -0.10461114257E+00  0.96525727321E-02 -0.40453274557E-01  0.88717142128E+00  0.88000000000E+00 0.  1.
        -11    1    4    4    0    0  0.10145192626E+00 -0.75910235022E-02  0.16334508054E-01  0.10303977026E+00  0.51100000000E-03 0.  1.
         11    1    4    4    0    0  0.24630735596E-01 -0.71284108639E-02  0.15904990495E-01  0.30178091740E-01  0.51100000000E-03 0. -1.
</event>
<event>
 8    1  0.1022673E+005  0.1043930E+01  0.7957747E-01            NaN
         13   -1    0    0    0    0  0.00000000000E+00  0.00000000000E+00  0.74505805969E-08  0.10566000000E+00  0.10566000000E+00 0.  1.
     999900   -1    0    0    0    0 -0.00000000000E+00 -0.00000000000E+00 -0.74505805969E-08  0.93827000000E+00  0.93827000000E+00 0.  1.
     999902    2    1    2    0    0  0.18197465386E-01  0.59947269348E-02 -0.15245867323E-01  0.10194448827E+01  0.10191507975E+01 0.  0.
     999903    2    3    3    0    0  0.10739603600E+00  0.66899754955E-01  0.30468769882E-01  0.13166358337E+00  0.19936586625E-01 0.  0.
         14    1    1    2    0    0 -0.18197465386E-01 -0.59947269348E-02  0.15245867323E-01  0.24485117274E-01  0.00000000000E+00 0.  1.
     999901    1    3    3    0    0 -0.89198570609E-01 -0.60905028020E-01 -0.45714637205E-01  0.88778129936E+00  0.88000000000E+00 0.  1.
        -11    1    4    4    0    0  0.37577983862E-01  0.13231940190E-01  0.12775548334E-01  0.41840947271E-01  0.51100000000E-03 0.  1.
         11    1    4    4    0    0  0.69818052134E-01  0.53667814765E-01  0.17693221548E-01  0.89822636096E-01  0.51100000000E-03 0. -1.
</event>
<event>
 8    1  0.1022673E+005  0.1043930E+01  0.7957747E-01            NaN
         13   -1    0    0    0    0  0.00000000000E+00  0.00000000000E+00  0.74505805969E-08  0.10566000000E+00  0.10566000000E+00 0. -1.
     999900   -1    0    0    0    0 -0.00000000000E+00 -0.00000000000E+00 -0.74505805969E-08  0.93827000000E+00  0.93827000000E+00 0.  1.
     999902    2    1    2    0    0 -0.43708180898E-03  0.21927380960E-01  0.85345414731E-02  0.10203962057E+01  0.10201247851E+01 0.  0.
     999903    2    3    3    0    0 -0.85758751583E-01 -0.31370493290E-01  0.91524668318E-01  0.13078516041E+00  0.19731243023E-01 0.  0.
         14    1    1    2    0    0  0.43708180898E-03 -0.21927380960E-01 -0.85345414731E-02  0.23533794306E-01  0.00000000000E+00 0.  1.
     999901    1    3    3    0    0  0.85321669774E-01  0.53297874250E-01 -0.82990126845E-01  0.88961104528E+00  0.88000000000E+00 0.  1.
        -11    1    4    4    0    0 -0.27359694376E-01 -0.19221757446E-01  0.38250805171E-01  0.50807618059E-01  0.51100000000E-03 0. -1.
         11    1    4    4    0    0 -0.58399057207E-01 -0.12148735843E-01  0.53273863148E-01  0.79977542354E-01  0.51100000000E-03 0.  1.
</event>
<event>
 8    1  0.1022673E+005  0.1043930E+01  0.7957747E-01            NaN
         13   -1    0    0    0    0  0.00000000000E+00  0.00000000000E+00  0.74505805969E-08  0.10566000000E+00  0.10566000000E+00 0.  1.
     999900   -1    0    0    0    0 -0.00000000000E+00 -0.00000000000E+00 -0.74505805969E-08  0.93827000000E+00  0.93827000000E+00 0. -1.
     999902    2    1    2    0    0  0.34889622755E-02  0.55746163240E-02 -0.22678534950E-01  0.10203171825E+01  0.10200439146E+01 0.  0.
     999903    2    3    3    0    0 -0.61696518128E-01  0.70256979229E-01 -0.92102417732E-01  0.13281922165E+00  0.20385946367E-01 0.  0.
         14    1    1    2    0    0 -0.34889622755E-02 -0.55746163240E-02  0.22678534950E-01  0.23612817544E-01  0.00000000000E+00 0.  1.
     999901    1    3    3    0    0  0.65185480403E-01 -0.64682362905E-01  0.69423882783E-01  0.88749796080E+00  0.88000000000E+00 0.  1.
        -11    1    4    4    0    0 -0.41043412272E-01  0.31446726057E-01 -0.48310298514E-01  0.70764428452E-01  0.51100000000E-03 0. -1.
         11    1    4    4    0    0 -0.20653105856E-01  0.38810253172E-01 -0.43792119218E-01  0.62054793202E-01  0.51100000000E-03 0.  1.
</event>
<event>
 8    1  0.1022673E+005  0.1043930E+01  0.7957747E-01            NaN
         13   -1    0    0    0    0  0.00000000000E+00  0.00000000000E+00  0.74505805969E-08  0.10566000000E+00  0.10566000000E+00 0.  1.
     999900   -1    0    0    0    0 -0.00000000000E+00 -0.00000000000E+00 -0.74505805969E-08  0.93827000000E+00  0.93827000000E+00 0. -1.
     999902    2    1    2    0    0  0.80952509962E-02  0.16633108384E-01 -0.13378499553E-01  0.10211006848E+01  0.10208454490E+01 0.  0.
     999903    2    3    3    0    0 -0.51695083285E-01 -0.11434027001E+00 -0.24239488977E-01  0.12933453213E+00  0.19844127437E-01 0.  0.
         14    1    1    2    0    0 -0.80952509962E-02 -0.16633108384E-01  0.13378499553E-01  0.22829315222E-01  0.00000000000E+00 0. -1.
     999901    1    3    3    0    0  0.59790334281E-01  0.13097337839E+00  0.10860989424E-01  0.89176615265E+00  0.88000000000E+00 0.  1.
        -11    1    4    4    0    0 -0.15977222341E-01 -0.23150859723E-01 -0.12185566089E-01  0.30659143523E-01  0.51100000000E-03 0.  1.
         11    1    4    4    0    0 -0.35717860944E-01 -0.91189410285E-01 -0.12053922888E-01  0.98675388606E-01  0.51100000000E-03 0. -1.
</event>
<event>
 8    1  0.1022673E+005  0.1043930E+01  0.7957747E-01            NaN
         13   -1    0    0    0    0  0.00000000000E+00  0.00000000000E+00  0.74505805969E-08  0.10566000000E+00  0.10566000000E+00 0. -1.
     999900   -1    0    0    0    0 -0.00000000000E+00 -0.00000000000E+00 -0.74505805969E-08  0.93827000000E+00  0.93827000000E+00 0. -1.
     999902    2    1    2    0    0 -0.21068714036E-01 -0.21926468847E-02  0.87884725824E-02  0.10209967128E+01  0.10207391204E+01 0.  0.
     999903    2    3    3    0    0 -0.76422212972E-01  0.49941462400E-01  0.95508867691E-01  0.13347071198E+00  0.18920434659E-01 0.  0.
         14    1    1    2    0    0  0.21068714036E-01  0.21926468847E-02 -0.87884725824E-02  0.22933287201E-01  0.00000000000E+00 0.  1.
     999901    1    3    3    0    0  0.55353498935E-01 -0.52134109285E-01 -0.86720395109E-01  0.88752600082E+00  0.88000000000E+00 0.  1.
        -11    1    4    4    0    0 -0.45125011559E-01  0.19034154044E-01  0.45266177625E-01  0.66692230778E-01  0.51100000000E-03 0.  1.
         11    1    4    4    0    0 -0.31297201413E-01  0.30907308356E-01  0.50242690066E-01  0.66778481206E-01  0.51100000000E-03 0. -1.
</event>
<event>
 8    1  0.1022673E+005  0.1043930E+01  0.7957747E-01            NaN
         13   -1    0    0    0    0  0.00000000000E+00  0.00000000000E+00  0.74505805969E-08  0.10566000000E+00  0.10566000000E+00 0.  1.
     999900   -1    0    0    0    0 -0.00000000000E+00 -0.00000000000E+00 -0.74505805969E-08  0.93827000000E+00  0.93827000000E+00 0.  1.
     999902    2    1    2    0    0 -0.11893388801E-01  0.17718260635E-01  0.89866269293E-02  0.10207751102E+01  0.10205124579E+01 0.  0.
     999903    2    3    3    0    0  0.99618549184E-01  0.36207658186E-02  0.82166279950E-01  0.13061281418E+00  0.19272892384E-01 0.  0.
         14    1    1    2    0    0  0.11893388801E-01 -0.17718260635E-01 -0.89866269293E-02  0.23154889779E-01  0.00000000000E+00 0. -1.
     999901    1    3    3    0    0 -0.11151193799E+00  0.14097494817E-01 -0.73179653021E-01  0.89016229604E+00  0.88000000000E+00 0.  1.
        -11    1    4    4    0    0  0.89898434593E-02  0.49507957504E-02  0.13146968320E-01  0.16686268636E-01  0.51100000000E-03 0. -1.
         11    1    4    4    0    0  0.90628705725E-01 -0.13300299317E-02  0.69019311630E-01  0.11392654555E+00  0.51100000000E-03 0.  1.
</event>
<event>
 8    1  0.1022673E+005  0.1043930E+01  0.7957747E-01            NaN
         13   -1    0    0    0    0  0.00000000000E+00  0.00000000000E+00  0.74505805969E-08  0.10566000000E+00  0.10566000000E+00 0.  1.
     999900   -1    0    0    0    0 -0.00000000000E+00 -0.00000000000E+00 -0.74505805969E-08  0.93827000000E+00  0.93827000000E+00 0.  1.
     999902    2    1    2    0    0  0.58396749262E-02  0.24871355686E-01 -0.16504218472E-02  0.10183290229E+01  0.10180071654E+01 0.  0.
     999903    2    3    3    0    0  0.98221025928E-01  0.84913735425E-01 -0.34544454462E-02  0.13145662176E+00  0.20278013045E-01 0.  0.
         14    1    1    2    0    0 -0.58396749262E-02 -0.24871355686E-01  0.16504218472E-02  0.25600977114E-01  0.00000000000E+00 0.  1.
     999901    1    3    3    0    0 -0.92381351002E-01 -0.60042379739E-01  0.18040235990E-02  0.88687240113E+00  0.88000000000E+00 0. -1.
        -11    1    4    4    0    0  0.37985959720E-01  0.45380532683E-01  0.18375828716E-02  0.59211178963E-01  0.51100000000E-03 0. -1.
         11    1    4    4    0    0  0.60235066209E-01  0.39533202742E-01 -0.52920283178E-02  0.72245442797E-01  0.51100000000E-03 0.  1.
</event>
<event>
 8    1  0.1022673E+005  0.1043930E+01  0.7957747E-01            NaN
         13   -1    0    0    0    0  0.00000000000E+00  0.00000000000E+00  0.74505805969E-08  0.10566000000E+00  0.10566000000E+00 0. -1.
     999900   -1    0    0    0    0 -0.00000000000E+00 -0.00000000000E+00 -0.74505805969E-08  0.93827000000E+00  0.93827000000E+00 0.  1.
     999902    2    1    2    0    0  0.86467837395E-02 -0.17470954276E-01 -0.14511354076E-01  0.10196281377E+01  0.10193384908E+01 0.  0.
     999903    2    3    3    0    0 -0.10244455162E+00  0.55215485170E-01 -0.51605624612E-01  0.12889776991E+00  0.20195510309E-01 0.  0.
         14    1    1    2    0    0 -0.86467837395E-02  0.17470954276E-01  0.14511354076E-01  0.24301862263E-01  0.00000000000E+00 0.  1.
     999901    1    3    3    0    0  0.11109133536E+00 -0.72686439446E-01  0.37094270536E-01  0.89073036783E+00  0.88000000000E+00 0.  1.
        -11    1    4    4    0    0 -0.34574599052E-01  0.94394918479E-02 -0.10861592620E-01  0.37453200413E-01  0.51100000000E-03 0. -1.
         11    1    4    4    0    0 -0.67869952564E-01  0.45775993322E-01 -0.40744031992E-01  0.91444569493E-01  0.51100000000E-03 0.  1.
</event>
<event>
 8    1  0.1022673E+005  0.1043930E+01  0.7957747E-01            NaN
         13   -1    0    0    0    0  0.00000000000E+00  0.00000000000E+00  0.74505805969E-08  0.10566000000E+00  0.10566000000E+00 0.  1.
     999900   -1    0    0    0    0 -0.00000000000E+00 -0.00000000000E+00 -0.74505805969E-08  0.93827000000E+00  0.93827000000E+00 0.  1.
     999902    2    1    2    0    0  0.11752396559E-01  0.15375004758E-01  0.12426800706E-01  0.10209314137E+01  0.10206723355E+01 0.  0.
     999903    2    3    3    0    0  0.11680420481E+00  0.38337250836E-01  0.49311510922E-01  0.13361882559E+00  0.17589723729E-01 0.  0.
         14    1    1    2    0    0 -0.11752396559E-01 -0.15375004758E-01 -0.12426800706E-01  0.22998586304E-01  0.00000000000E+00 0. -1.
     999901    1    3    3    0    0 -0.10505180825E+00 -0.22962246078E-01 -0.36884710217E-01  0.88731258810E+00  0.88000000000E+00 0.  1.
        -11    1    4    4    0    0  0.74350782279E-01  0.28641540471E-01  0.39701422310E-01  0.89021574466E-01  0.51100000000E-03 0. -1.
         11    1    4    4    0    0  0.42453422527E-01  0.96957103658E-02  0.96100886127E-02  0.44597251125E-01  0.51100000000E-03 0.  1.
</event>
<event>
 8    1  0.1022673E+005  0.1043930E+01  0.7957747E-01            NaN
         13   -1    0    0    0    0  0.00000000000E+00  0.00000000000E+00  0.74505805969E-08  0.10566000000E+00  0.10566000000E+00 0.  1.
     999900   -1    0    0    0    0 -0.00000000000E+00 -0.00000000000E+00 -0.74505805969E-08  0.93827000000E+00  0.93827000000E+00 0. -1.
     999902    2    1    2    0    0 -0.71605685695E-02  0.22194802147E-01 -0.16266726093E-02  0.10205520393E+01  0.10202842426E+01 0.  0.
     999903    2    3    3    0    0  0.73280039132E-01 -0.10200006740E+00  0.14377647513E-01  0.12805487106E+00  0.20429277258E-01 0.  0.
         14    1    1    2    0    0  0.71605685695E-02 -0.22194802147E-01  0.16266726093E-02  0.23377960740E-01  0.00000000000E+00 0. -1.
     999901    1    3    3    0    0 -0.80440607701E-01  0.12419486954E+00 -0.16004320122E-01  0.89249716820E+00  0.88000000000E+00 0. -1.
        -11    1    4    4    0    0  0.44424990289E-01 -0.46237339277E-01  0.11901127262E-01  0.65217859952E-01  0.51100000000E-03 0.  1.
         11    1    4    4    0    0  0.28855048843E-01 -0.55762728119E-01  0.24765202507E-02  0.62837011105E-01  0.51100000000E-03 0. -1.
</event>
<event>
 8    1  0.1022673E+005  0.1043930E+01  0.7957747E-01            NaN
         13   -1    0    0    0    0  0.00000000000E+00  0.00000000000E+00  0.74505805969E-08  0.10566000000E+00  0.10566000000E+00 0. -1.
     999900   -1    0    0    0    0 -0.00000000000E+00 -0.00000000000E+00 -0.74505805969E-08  0.93827000000E+00  0.93827000000E+00 0.  1.
     999902    2    1    2    0    0  0.18581689312E-01 -0.18036576475E-01  0.49366947005E-02  0.10175677500E+01  0.10172262077E+01 0.  0.
     999903    2    3    3    0    0  0.50616081609E-01  0.52388417010E-01  0.10408335930E+00  0.12862683912E+00  0.20124216859E-01 0.  0.
         14    1    1    2    0    0 -0.18581689312E-01  0.18036576475E-01 -0.49366947005E-02  0.26362249965E-01  0.00000000000E+00 0. -1.
     999901    1    3    3    0    0 -0.32034392296E-01 -0.70424993485E-01 -0.99146664602E-01  0.88894091092E+00  0.88000000000E+00 0.  1.
        -11    1    4    4    0    0  0.18343487590E-01  0.25621049561E-01  0.60080081720E-01  0.67843931623E-01  0.51100000000E-03 0.  1.
         11    1    4    4    0    0  0.32272594019E-01  0.26767367449E-01  0.44003277582E-01  0.60782907497E-01  0.51100000000E-03 0. -1.
</event>
<event>
 8    1  0.1022673E+005  0.1043930E+01  0.7957747E-01            NaN
         13   -1    0    0    0    0  0.00000000000E+00  0.00000000000E+00  0.74505805969E-08  0.10566000000E+00  0.10566000000E+00 0. -1.
     999900   -1    0    0    0    0 -0.00000000000E+00 -0.00000000000E+00 -0.74505805969E-08  0.93827000000E+00  0.93827000000E+00 0.  1.
     999902    2    1    2    0    0 -0.13289811101E-01 -0.19341637580E-01 -0.71470197058E-03  0.10204517372E+01  0.10201816109E+01 0.  0.
     999903    2    3    3    0    0  0.16080375824E-01  0.28376752915E-01 -0.12424811801E+00  0.13005847718E+00  0.20341928742E-01 0.  0.
         14    1    1    2    0    0  0.13289811101E-01  0.19341637580E-01  0.71470197058E-03  0.23478262761E-01  0.00000000000E+00 0.  1.
     999901    1    3    3    0    0 -0.29370186925E-01 -0.47718390495E-01  0.12353341604E+00  0.89039326005E+00  0.88000000000E+00 0. -1.
        -11    1    4    4    0    0  0.89109227831E-02  0.18032965672E-01 -0.38997207370E-01  0.43882065806E-01  0.51100000000E-03 0.  1.
         11    1    4    4    0    0  0.71694530408E-02  0.10343787243E-01 -0.85250910643E-01  0.86176411378E-01  0.51100000000E-03 0. -1.
</event>
<event>
 8    1  0.1022673E+005  0.1043930E+01  0.7957747E-01            NaN
         13   -1    0    0    0    0  0.00000000000E+00  0.00000000000E+00  0.74505805969E-08  0.10566000000E+00  0.10566000000E+00 0.  1.
     999900   -1    0    0    0    0 -0.00000000000E+00 -0.00000000000E+00 -0.74505805969E-08  0.93827000000E+00  0.93827000000E+00 0.  1.
     999902    2    1    2    0    0 -0.12492809855E-01 -0.12756402530E-02 -0.22441651800E-01  0.10182137543E+01  0.10178889548E+01 0.  0.
     999903    2    3    3    0    0 -0.11174889302E+00 -0.44293209972E-01  0.42970974637E-01  0.12917995685E+00  0.19780117526E-01 0.  0.
         14    1    1    2    0    0  0.12492809855E-01  0.12756402530E-02  0.22441651800E-01  0.25716245676E-01  0.00000000000E+00 0. -1.
     999901    1    3    3    0    0  0.99256083169E-01  0.43017569719E-01 -0.65412626437E-01  0.88903379747E+00  0.88000000000E+00 0.  1.
        -11    1    4    4    0    0 -0.22643874306E-01 -0.94248641212E-03  0.64082159870E-02  0.23557582163E-01  0.51100000000E-03 0. -1.
         11    1    4    4    0    0 -0.89105018718E-01 -0.43350723560E-01  0.36562758650E-01  0.10562237469E+00  0.51100000000E-03 0.  1.
</event>
<event>
 8    1  0.1022673E+005  0.1043930E+01  0.7957747E-01            NaN
         13   -1    0    0    0    0  0.00000000000E+00  0.00000000000E+00  0.74505805969E-08  0.10566000000E+00  0.10566000000E+00 0.  1.
     999900   -1    0    0    0    0 -0.00000000000E+00 -0.00000000000E+00 -0.74505805969E-08  0.93827000000E+00  0.93827000000E+00 0.  1.
     999902    2    1    2    0    0  0.22248726142E-01 -0.20890210105E-02 -0.77920545278E-02  0.10202638652E+01  0.10199893473E+01 0.  0.
     999903    2    3    3    0    0  0.37078219023E-01 -0.89249412136E-01 -0.88160156717E-01  0.13218961181E+00  0.19016528226E-01 0.  0.
         14    1    1    2    0    0 -0.22248726142E-01  0.20890210105E-02  0.77920545278E-02  0.23666134824E-01  0.00000000000E+00 0. -1.
     999901    1    3    3    0    0 -0.14829492881E-01  0.87160391126E-01  0.80368102189E-01  0.88807425337E+00  0.88000000000E+00 0. -1.
        -11    1    4    4    0    0  0.35151829473E-01 -0.62902642157E-01 -0.63445005164E-01  0.96010016701E-01  0.51100000000E-03 0. -1.
         11    1    4    4    0    0  0.19263895501E-02 -0.26346769979E-01 -0.24715151553E-01  0.36179595110E-01  0.51100000000E-03 0.  1.
</event>
<event>
 8    1  0.1022673E+005  0.1043930E+01  0.7957747E-01            NaN
         13   -1    0    0    0    0  0.00000000000E+00  0.00000000000E+00  0.74505805969E-08  0.10566000000E+00  0.10566000000E+00 0. -1.
     999900   -1    0    0    0    0 -0.00000000000E+00 -0.00000000000E+00 -0.74505805969E-08  0.93827000000E+00  0.93827000000E+00 0. -1.
     999902    2    1    2    0    0 -0.18787979451E-01  0.11920273580E-01  0.84968746055E-02  0.10201124020E+01  0.10198343173E+01 0.  0.
     999903    2    3    3    0    0  0.91866115786E-01  0.66156659817E-01 -0.54530099238E-01  0.12929350136E+00  0.30449809595E-01 0.  0.
         14    1    1    2    0    0  0.18787979451E-01 -0.11920273580E-01 -0.84968746055E-02  0.23817597951E-01  0.00000000000E+00 0. -1.
     999901    1    3    3    0    0 -0.11065409524E+00 -0.54236386236E-01  0.63026973844E-01  0.89081890068E+00  0.88000000000E+00 0. -1.
        -11    1    4    4    0    0  0.26142324432E-01  0.30980159339E-01 -0.77194589007E-02  0.41267936296E-01  0.51100000000E-03 0. -1.
         11    1    4    4    0    0  0.65723791354E-01  0.35176500478E-01 -0.46810640337E-01  0.88025565069E-01  0.51100000000E-03 0.  1.
</event>
<event>
 8    1  0.1022673E+005  0.1043930E+01  0.7957747E-01            NaN
         13   -1    0    0    0    0  0.00000000000E+00  0.00000000000E+00  0.74505805969E-08  0.10566000000E+00  0.10566000000E+00 0.  1.
     999900   -1    0    0    0    0 -0.00000000000E+00 -0.00000000000E+00 -0.74505805969E-08  0.93827000000E+00  0.93827000000E+00 0.  1.
     999902    2    1    2    0    0 -0.32544370738E-02  0.22082576934E-01  0.58039040559E-02  0.10208666770E+01  0.10206061216E+01 0.  0.
     999903    2    3    3    0    0  0.10010658360E+00 -0.71417008873E-01  0.34350704665E-01  0.12944052025E+00  0.21287558231E-01 0.  0.
         14    1    1    2    0    0  0.32544370738E-02 -0.22082576934E-01 -0.58039040559E-02  0.23063322982E-01  0.00000000000E+00 0.  1.
     999901    1    3    3    0    0 -0.10336102068E+00  0.93499585807E-01 -0.28546800609E-01  0.89142615677E+00  0.88000000000E+00 0. -1.
        -11    1    4    4    0    0  0.40352167677E-01 -0.41812147411E-01  0.16241748563E-01  0.60337456234E-01  0.51100000000E-03 0. -1.
         11    1    4    4    0    0  0.59754415924E-01 -0.29604861462E-01  0.18108956102E-01  0.69103064018E-01  0.51100000000E-03 0.  1.
</event>
<event>
 8    1  0.1022673E+005  0.1043930E+01  0.7957747E-01            NaN
         13   -1    0    0    0    0  0.00000000000E+00  0.00000000000E+00  0.74505805969E-08  0.10566000000E+00  0.10566000000E+00 0. -1.
     999900   -1    0    0    0    0 -0.00000000000E+00 -0.00000000000E+00 -0.74505805969E-08  0.93827000000E+00  0.93827000000E+00 0.  1.
     999902    2    1    2    0    0 -0.20444558596E-01  0.32907722080E-02 -0.95131195305E-02  0.10211416565E+01  0.10208873464E+01 0.  0.
     999903    2    3    3    0    0 -0.11625328166E+00  0.46567094208E-01 -0.44027283330E-01  0.13421247160E+00  0.19780447330E-01 0.  0.
         14    1    1    2    0    0  0.20444558596E-01 -0.32907722080E-02  0.95131195305E-02  0.22788343536E-01  0.00000000000E+00 0.  1.
     999901    1    3    3    0    0  0.95808723061E-01 -0.43276322000E-01  0.34514163800E-01  0.88692918486E+00  0.88000000000E+00 0. -1.
        -11    1    4    4    0    0 -0.60429125544E-01  0.34371186763E-01 -0.27070597554E-01  0.74606541714E-01  0.51100000000E-03 0. -1.
         11    1    4    4    0    0 -0.55824156113E-01  0.12195907445E-01 -0.16956685776E-01  0.59605929886E-01  0.51100000000E-03 0.  1.
</event>
<event>
 8    1  0.1022673E+005  0.1043930E+01  0.7957747E-01            NaN
         13   -1    0    0    0    0  0.00000000000E+00  0.00000000000E+00  0.74505805969E-08  0.10566000000E+00  0.10566000000E+00 0.  1.
     999900   -1    0    0    0    0 -0.00000000000E+00 -0.00000000000E+00 -0.74505805969E-08  0.93827000000E+00  0.93827000000E+00 0.  1.
     999902    2    1    2    0    0  0.95644052825E-02  0.21881525304E-01 -0.43802512441E-02  0.10196510874E+01  0.10193619938E+01 0.  0.
     999903    2    3    3    0    0  0.25669552668E-01  0.42904399397E-01 -0.12015498134E+00  0.13167297663E+00  0.20020984290E-01 0.  0.
         14    1    1    2    0    0 -0.95644052825E-02 -0.21881525304E-01  0.43802512441E-02  0.24278912641E-01  0.00000000000E+00 0.  1.
     999901    1    3    3    0    0 -0.16105147386E-01 -0.21022874093E-01  0.11577473010E+00  0.88797811073E+00  0.88000000000E+00 0. -1.
        -11    1    4    4    0    0  0.17373515882E-01  0.33603843332E-01 -0.10724077738E+00  0.11371852441E+00  0.51100000000E-03 0.  1.
         11    1    4    4    0    0  0.82960367863E-02  0.93005560653E-02 -0.12914203963E-01  0.17954452219E-01  0.51100000000E-03 0. -1.
</event>
<event>
 8    1  0.1022673E+005  0.1043930E+01  0.7957747E-01            NaN
         13   -1    0    0    0    0  0.00000000000E+00  0.00000000000E+00  0.74505805969E-08  0.10566000000E+00  0.10566000000E+00 0. -1.
     999900   -1    0    0    0    0 -0.00000000000E+00 -0.00000000000E+00 -0.74505805969E-08  0.93827000000E+00  0.93827000000E+00 0. -1.
     999902    2    1    2    0    0  0.59484091747E-02  0.93793264901E-02  0.21455961574E-01  0.10197698339E+01  0.10194835951E+01 0.  0.
     999903    2    3    3    0    0 -0.10140668576E+00  0.61912117342E-01  0.51936132303E-01  0.13116764436E+00  0.19777838544E-01 0.  0.
         14    1    1    2    0    0 -0.59484091747E-02 -0.93793264901E-02 -0.21455961574E-01  0.24160166063E-01  0.00000000000E+00 0.  1.
     999901    1    3    3    0    0  0.10735509493E+00 -0.52532790852E-01 -0.30480170730E-01  0.88860218958E+00  0.88000000000E+00 0. -1.
        -11    1    4    4    0    0 -0.53644247950E-01  0.33187090061E-01  0.16803216413E-01  0.65281678040E-01  0.51100000000E-03 0.  1.
         11    1    4    4    0    0 -0.47762437805E-01  0.28725027280E-01  0.35132915890E-01  0.65885966316E-01  0.51100000000E-03 0. -1.
</event>
<event>
 8    1  0.1022673E+005  0.1043930E+01  0.7957747E-01            NaN
         13   -1    0    0    0    0  0.00000000000E+00  0.00000000000E+00  0.74505805969E-08  0.10566000000E+00  0.10566000000E+00 0. -1.
     999900   -1    0    0    0    0 -0.00000000000E+00 -0.00000000000E+00 -0.74505805969E-08  0.93827000000E+00  0.93827000000E+00 0. -1.
     999902    2    1    2    0    0  0.54128396018E-02  0.55249901570E-02  0.22638210151E-01  0.10200069377E+01  0.10197263555E+01 0.  0.
     999903    2    3    3    0    0  0.13625991970E-02 -0.12730618941E+00 -0.69219795570E-02  0.12953833553E+00  0.22881084631E-01 0.  0.
         14    1    1    2    0    0 -0.54128396018E-02 -0.55249901570E-02 -0.22638210151E-01  0.23923062254E-01  0.00000000000E+00 0.  1.
     999901    1    3    3    0    0  0.40502404048E-02  0.13283117956E+00  0.29560189708E-01  0.89046860221E+00  0.88000000000E+00 0.  1.
        -11    1    4    4    0    0 -0.13607666671E-02 -0.27155483993E-01 -0.10833896053E-01  0.29272964003E-01  0.51100000000E-03 0. -1.
         11    1    4    4    0    0  0.27233658641E-02 -0.10015070541E+00  0.39119164959E-02  0.10026537153E+00  0.51100000000E-03 0.  1.
</event>
<event>
 8    1  0.1022673E+005  0.1043930E+01  0.7957747E-01            NaN
         13   -1    0    0    0    0  0.00000000000E+00  0.00000000000E+00  0.74505805969E-08  0.10566000000E+00  0.10566000000E+00 0.  1.
     999900   -1    0    0    0    0 -0.00000000000E+00 -0.00000000000E+00 -0.74505805969E-08  0.93827000000E+00  0.93827000000E+00 0.  1.
     999902    2    1    2    0    0 -0.17852044661E-01 -0.63161874486E-02  0.13935948782E-01  0.10204182925E+01  0.10201473870E+01 0.  0.
     999903    2    3    3    0    0  0.73248996608E-01 -0.92782848896E-01 -0.45818439566E-01  0.12949378939E+00  0.26367395266E-01 0.  0.
         14    1    1    2    0    0  0.17852044661E-01  0.63161874486E-02 -0.13935948782E-01  0.23511707529E-01  0.00000000000E+00 0.  1.
     999901    1    3    3    0    0 -0.91101041269E-01  0.86466661448E-01  0.59754388349E-01  0.89092450308E+00  0.88000000000E+00 0. -1.
        -11    1    4    4    0    0  0.10958781042E-02 -0.14709953075E-01 -0.67910764991E-02  0.16246953847E-01  0.51100000000E-03 0. -1.
         11    1    4    4    0    0  0.72153118504E-01 -0.78072895821E-01 -0.39027363067E-01  0.11324683554E+00  0.51100000000E-03 0.  1.
</event>
<event>
 8    1  0.1022673E+005  0.1043930E+01  0.7957747E-01            NaN
         13   -1    0    0    0    0  0.00000000000E+00  0.00000000000E+00  0.74505805969E-08  0.10566000000E+00  0.10566000000E+00 0.  1.
     999900   -1    0    0    0    0 -0.00000000000E+00 -0.00000000000E+00 -0.74505805969E-08  0.93827000000E+00  0.93827000000E+00 0.  1.
     999902    2    1    2    0    0 -0.56893642611E-02  0.11565299315E-01  0.20277521779E-01  0.10199028715E+01  0.10196198137E+01 0.  0.
     999903    2    3    3    0    0 -0.70598337861E-03 -0.10236553888E+00 -0.73374268054E-01  0.12761607473E+00  0.20563981938E-01 0.  0.
         14    1    1    2    0    0  0.56893642611E-02 -0.11565299315E-01 -0.20277521779E-01  0.24027128490E-01  0.00000000000E+00 0. -1.
     999901    1    3    3    0    0 -0.49833808825E-02  0.11393083820E+00  0.93651789833E-01  0.89228679678E+00  0.88000000000E+00 0.  1.
        -11    1    4    4    0    0  0.27820361202E-02 -0.21777901566E-01 -0.66915254715E-02  0.22957664422E-01  0.51100000000E-03 0. -1.
         11    1    4    4    0    0 -0.34880194988E-02 -0.80587637315E-01 -0.66682742582E-01  0.10465841030E+00  0.51100000000E-03 0.  1.
</event>
<event>
 8    1  0.1022673E+005  0.1043930E+01  0.7957747E-01            NaN
         13   -1    0    0    0    0  0.00000000000E+00  0.00000000000E+00  0.74505805969E-08  0.10566000000E+00  0.10566000000E+00 0. -1.
     999900   -1    0    0    0    0 -0.00000000000E+00 -0.00000000000E+00 -0.74505805969E-08  0.93827000000E+00  0.93827000000E+00 0. -1.
     999902    2    1    2    0    0  0.16518426998E-01 -0.16363317702E-01 -0.75978624892E-02  0.10194689266E+01  0.10191754256E+01 0.  0.
     999903    2    3    3    0    0  0.78456584170E-01  0.96273482625E-01 -0.31615817642E-01  0.12980593072E+00  0.20639783614E-01 0.  0.
         14    1    1    2    0    0 -0.16518426998E-01  0.16363317702E-01  0.75978624892E-02  0.24461073385E-01  0.00000000000E+00 0.  1.
     999901    1    3    3    0    0 -0.61938157172E-01 -0.11263680033E+00  0.24017955153E-01  0.88966299590E+00  0.88000000000E+00 0.  1.
        -11    1    4    4    0    0  0.55803159096E-01  0.80771505604E-01 -0.21169996060E-01  0.10043136232E+00  0.51100000000E-03 0. -1.
         11    1    4    4    0    0  0.22653425074E-01  0.15501977021E-01 -0.10445821582E-01  0.29374568400E-01  0.51100000000E-03 0.  1.
</event>
<event>
 8    1  0.1022673E+005  0.1043930E+01  0.7957747E-01            NaN
         13   -1    0    0    0    0  0.00000000000E+00  0.00000000000E+00  0.74505805969E-08  0.10566000000E+00  0.10566000000E+00 0. -1.
     999900   -1    0    0    0    0 -0.00000000000E+00 -0.00000000000E+00 -0.74505805969E-08  0.93827000000E+00  0.93827000000E+00 0.  1.
     999902    2    1    2    0    0 -0.22804183601E-01 -0.16246358599E-02  0.69765584433E-02  0.10200272261E+01  0.10197471252E+01 0.  0.
     999903    2    3    3    0    0 -0.12749282635E+00 -0.30475164143E-01 -0.11924423578E-01  0.13315107241E+00  0.20096263446E-01 0.  0.
         14    1    1    2    0    0  0.22804183601E-01  0.16246358599E-02 -0.69765584433E-02  0.23902773879E-01  0.00000000000E+00 0. -1.
     999901    1    3    3    0    0  0.10468864275E+00  0.28850528283E-01  0.18900982021E-01  0.88687615371E+00  0.88000000000E+00 0. -1.
        -11    1    4    4    0    0 -0.11629856464E+00 -0.26376841690E-01 -0.50055412099E-02  0.11935832807E+00  0.51100000000E-03 0. -1.
         11    1    4    4    0    0 -0.11194261710E-01 -0.40983224525E-02 -0.69188823679E-02  0.13792744338E-01  0.51100000000E-03 0.  1.
</event>
<event>
 8    1  0.1022673E+005  0.1043930E+01  0.7957747E-01            NaN
         13   -1    0    0    0    0  0.00000000000E+00  0.00000000000E+00  0.74505805969E-08  0.10566000000E+00  0.10566000000E+00 0.  1.
     999900   -1    0    0    0    0 -0.00000000000E+00 -0.00000000000E+00 -0.74505805969E-08  0.93827000000E+00  0.93827000000E+00 0. -1.
     999902    2    1    2    0    0  0.78030580023E-02 -0.16333254957E-01  0.16049237776E-01  0.10197382459E+01  0.10194512491E+01 0.  0.
     999903    2    3    3    0    0 -0.11015073913E+00 -0.60901677308E-01 -0.28859251624E-01  0.12961678515E+00  0.11200667762E-01 0.  0.
         14    1    1    2    0    0 -0.78030580023E-02  0.16333254957E-01 -0.16049237776E-01  0.24191754067E-01  0.00000000000E+00 0. -1.
     999901    1    3    3    0    0  0.11795379713E+00  0.44568422351E-01  0.44908489399E-01  0.89012146078E+00  0.88000000000E+00 0.  1.
        -11    1    4    4    0    0 -0.48794487064E-01 -0.23918537736E-01 -0.75042267707E-02  0.54859574877E-01  0.51100000000E-03 0. -1.
         11    1    4    4    0    0 -0.61356252065E-01 -0.36983139572E-01 -0.21355024853E-01  0.74757210272E-01  0.51100000000E-03 0.  1.
</event>
<event>
 8    1  0.1022673E+005  0.1043930E+01  0.7957747E-01            NaN
         13   -1    0    0    0    0  0.00000000000E+00  0.00000000000E+00  0.74505805969E-08  0.10566000000E+00  0.10566000000E+00 0. -1.
     999900   -1    0    0    0    0 -0.00000000000E+00 -0.00000000000E+00 -0.74505805969E-08  0.93827000000E+00  0.93827000000E+00 0.  1.
     999902    2    1    2    0    0 -0.15704342301E-01 -0.19821008757E-02  0.16522320573E-01  0.10210489561E+01  0.10207925493E+01 0.  0.
     999903    2    3    3    0    0 -0.17506232026E-01  0.89864518597E-01  0.94421163150E-01  0.13284443128E+00  0.18713284266E-01 0.  0.
         14    1    1    2    0    0  0.15704342301E-01  0.19821008757E-02 -0.16522320573E-01  0.22881043860E-01  0.00000000000E+00 0. -1.
     999901    1    3    3    0    0  0.18018897251E-02 -0.91846619472E-01 -0.77898842576E-01  0.88820452486E+00  0.88000000000E+00 0.  1.
        -11    1    4    4    0    0 -0.18776055702E-01  0.51034048651E-01  0.50634905972E-01  0.74304570608E-01  0.51100000000E-03 0. -1.
         11    1    4    4    0    0  0.12698236753E-02  0.38830469946E-01  0.43786257177E-01  0.58539860667E-01  0.51100000000E-03 0.  1.
</event>
<event>
 8    1  0.1022673E+005  0.1043930E+01  0.7957747E-01            NaN
         13   -1    0    0    0    0  0.00000000000E+00  0.00000000000E+00  0.74505805969E-08  0.10566000000E+00  0.10566000000E+00 0. -1.
     999900   -1    0    0    0    0 -0.00000000000E+00 -0.00000000000E+00 -0.74505805969E-08  0.93827000000E+00  0.93827000000E+00 0. -1.
     999902    2    1    2    0    0 -0.13199118248E-01 -0.14094734927E-01 -0.13263887000E-01  0.10205033277E+01  0.10202344010E+01 0.  0.
     999903    2    3    3    0    0  0.68263724357E-01 -0.68560069002E-01  0.84096529365E-01  0.12972741988E+00  0.19913766392E-01 0.  0.
         14    1    1    2    0    0  0.13199118248E-01  0.14094734927E-01  0.13263887000E-01  0.23426672268E-01  0.00000000000E+00 0. -1.
     999901    1    3    3    0    0 -0.81462842606E-01  0.54465334076E-01 -0.97360416365E-01  0.89077590786E+00  0.88000000000E+00 0. -1.
        -11    1    4    4    0    0  0.56669765933E-01 -0.64219611867E-01  0.78307185999E-01  0.11605127065E+00  0.51100000000E-03 0.  1.
         11    1    4    4    0    0  0.11593958424E-01 -0.43404571356E-02  0.57893433663E-02  0.13676149228E-01  0.51100000000E-03 0. -1.
</event>
<event>
 8    1  0.1022673E+005  0.1043930E+01  0.7957747E-01            NaN
         13   -1    0    0    0    0  0.00000000000E+00  0.00000000000E+00  0.74505805969E-08  0.10566000000E+00  0.10566000000E+00 0.  1.
     999900   -1    0    0    0    0 -0.00000000000E+00 -0.00000000000E+00 -0.74505805969E-08  0.93827000000E+00  0.93827000000E+00 0. -1.
     999902    2    1    2    0    0  0.34270052159E-02 -0.22292601774E-01 -0.66459870516E-02  0.10204167356E+01  0.10201457938E+01 0.  0.
     999903    2    3    3    0    0 -0.62119944268E-01  0.39657794953E-01  0.10389431828E+00  0.12892730025E+00  0.19914597750E-01 0.  0.
         14    1    1    2    0    0 -0.34270052159E-02  0.22292601774E-01  0.66459870516E-02  0.23513264395E-01  0.00000000000E+00 0.  1.
     999901    1    3    3    0    0  0.65546949484E-01 -0.61950396727E-01 -0.11054030533E+00  0.89148943535E+00  0.88000000000E+00 0. -1.
        -11    1    4    4    0    0 -0.14534622401E-01  0.18816915436E-01  0.25379505970E-01  0.34780914295E-01  0.51100000000E-03 0.  1.
         11    1    4    4    0    0 -0.47585321867E-01  0.20840879517E-01  0.78514812309E-01  0.94146385959E-01  0.51100000000E-03 0. -1.
</event>
<event>
 8    1  0.1022673E+005  0.1043930E+01  0.7957747E-01            NaN
         13   -1    0    0    0    0  0.00000000000E+00  0.00000000000E+00  0.74505805969E-08  0.10566000000E+00  0.10566000000E+00 0.  1.
     999900   -1    0    0    0    0 -0.00000000000E+00 -0.00000000000E+00 -0.74505805969E-08  0.93827000000E+00  0.93827000000E+00 0.  1.
     999902    2    1    2    0    0  0.87098743784E-02 -0.21164857979E-01 -0.72570289013E-02  0.10199200522E+01  0.10196374038E+01 0.  0.
     999903    2    3    3    0    0  0.25732758571E-01  0.10733880558E+00  0.61211135656E-01  0.12779289776E+00  0.20010685700E-01 0.  0.
         14    1    1    2    0    0 -0.87098743784E-02  0.21164857979E-01  0.72570289013E-02  0.24009947802E-01  0.00000000000E+00 0. -1.
     999901    1    3    3    0    0 -0.17022884193E-01 -0.12850366356E+00 -0.68468164557E-01  0.89212715444E+00  0.88000000000E+00 0. -1.
        -11    1    4    4    0    0  0.12147772934E-01  0.64011162164E-01  0.46544596727E-01  0.80072828565E-01  0.51100000000E-03 0.  1.
         11    1    4    4    0    0  0.13584985637E-01  0.43327643414E-01  0.14666538929E-01  0.47720069192E-01  0.51100000000E-03 0. -1.
</event>
<event>
 8    1  0.1022673E+005  0.1043930E+01  0.7957747E-01            NaN
         13   -1    0    0    0    0  0.00000000000E+00  0.00000000000E+00  0.74505805969E-08  0.10566000000E+00  0.10566000000E+00 0. -1.
     999900   -1    0    0    0    0 -0.00000000000E+00 -0.00000000000E+00 -0.74505805969E-08  0.93827000000E+00  0.93827000000E+00 0.  1.
     999902    2    1    2    0    0  0.14296972923E-01  0.18732820060E-01  0.10880841892E-02  0.10203396225E+01  0.10200668799E+01 0.  0.
     999903    2    3    3    0    0 -0.11286603178E+00 -0.56931323336E-01  0.36787828440E-02  0.12798195652E+00  0.19645127783E-01 0.  0.
         14    1    1    2    0    0 -0.14296972923E-01 -0.18732820060E-01 -0.10880841892E-02  0.23590377473E-01  0.00000000000E+00 0. -1.
     999901    1    3    3    0    0  0.12716300470E+00  0.75664143396E-01 -0.25906986548E-02  0.89235766601E+00  0.88000000000E+00 0. -1.
        -11    1    4    4    0    0 -0.42686886946E-01 -0.30833064973E-01 -0.34101256942E-02  0.52770619582E-01  0.51100000000E-03 0. -1.
         11    1    4    4    0    0 -0.70179144832E-01 -0.26098258363E-01  0.70889085382E-02  0.75211336939E-01  0.51100000000E-03 0.  1.
</event>
<event>
 8    1  0.1022673E+005  0.1043930E+01  0.7957747E-01            NaN
         13   -1    0    0    0    0  0.00000000000E+00  0.00000000000E+00  0.74505805969E-08  0.10566000000E+00  0.10566000000E+00 0.  1.
     999900   -1    0    0    0    0 -0.00000000000E+00 -0.00000000000E+00 -0.74505805969E-08  0.93827000000E+00  0.93827000000E+00 0. -1.
     999902    2    1    2    0    0 -0.53837638493E-02  0.19957157187E-02 -0.22656349275E-01  0.10205574101E+01  0.10202897380E+01 0.  0.
     999903    2    3    3    0    0 -0.66201823918E-01  0.15208276369E-01 -0.11245611370E+00  0.13380073219E+00  0.25343347586E-01 0.  0.
         14    1    1    2    0    0  0.53837638493E-02 -0.19957157187E-02  0.22656349275E-01  0.23372589863E-01  0.00000000000E+00 0.  1.
     999901    1    3    3    0    0  0.60818060069E-01 -0.13212560651E-01  0.89799764423E-01  0.88675667794E+00  0.88000000000E+00 0.  1.
        -11    1    4    4    0    0 -0.31904649019E-01  0.13270048003E-01 -0.77157741512E-01  0.84543355737E-01  0.51100000000E-03 0.  1.
         11    1    4    4    0    0 -0.34297174899E-01  0.19382283660E-02 -0.35298372186E-01  0.49257376455E-01  0.51100000000E-03 0. -1.
</event>
<event>
 8    1  0.1022673E+005  0.1043930E+01  0.7957747E-01            NaN
         13   -1    0    0    0    0  0.00000000000E+00  0.00000000000E+00  0.74505805969E-08  0.10566000000E+00  0.10566000000E+00 0. -1.
     999900   -1    0    0    0    0 -0.00000000000E+00 -0.00000000000E+00 -0.74505805969E-08  0.93827000000E+00  0.93827000000E+00 0. -1.
     999902    2    1    2    0    0  0.10180172381E-02 -0.21455747048E-01  0.93494160797E-02  0.10205035828E+01  0.10202346620E+01 0.  0.
     999903    2    3    3    0    0 -0.12125421445E+00 -0.41753988395E-01 -0.19639822306E-01  0.13134505186E+00  0.20489508554E-01 0.  0.
         14    1    1    2    0    0 -0.10180172381E-02  0.21455747048E-01 -0.93494160797E-02  0.23426417172E-01  0.00000000000E+00 0.  1.
     999901    1    3    3    0    0  0.12227223169E+00  0.20298241346E-01  0.28989238386E-01  0.88915853096E+00  0.88000000000E+00 0. -1.
        -11    1    4    4    0    0 -0.84100814314E-01 -0.36646585070E-01 -0.19735999952E-01  0.93838637995E-01  0.51100000000E-03 0. -1.
         11    1    4    4    0    0 -0.37153400134E-01 -0.51074033246E-02  0.96177645579E-04  0.37506413869E-01  0.51100000000E-03 0.  1.
</event>
<event>
 8    1  0.1022673E+005  0.1043930E+01  0.7957747E-01            NaN
         13   -1    0    0    0    0  0.00000000000E+00  0.00000000000E+00  0.74505805969E-08  0.10566000000E+00  0.10566000000E+00 0. -1.
     999900   -1    0    0    0    0 -0.00000000000E+00 -0.00000000000E+00 -0.74505805969E-08  0.93827000000E+00  0.93827000000E+00 0. -1.
     999902    2    1    2    0    0 -0.15322078302E-01 -0.10458354906E-01 -0.10510545779E-01  0.10226083011E+01  0.10223859949E+01 0.  0.
     999903    2    3    3    0    0 -0.38601985853E-01  0.11884056257E+00 -0.38028242563E-01  0.13243001122E+00  0.21871625819E-01 0.  0.
         14    1    1    2    0    0  0.15322078302E-01  0.10458354906E-01  0.10510545779E-01  0.21321698887E-01  0.00000000000E+00 0. -1.
     999901    1    3    3    0    0  0.23279907551E-01 -0.12929891748E+00  0.27517696784E-01  0.89017828989E+00  0.88000000000E+00 0.  1.
        -11    1    4    4    0    0 -0.15464184835E-01  0.81018821106E-01 -0.23386379827E-01  0.85734323748E-01  0.51100000000E-03 0. -1.
         11    1    4    4    0    0 -0.23137801017E-01  0.37821741465E-01 -0.14641862737E-01  0.46695687475E-01  0.51100000000E-03 0.  1.
</event>
<event>
 8    1  0.1022673E+005  0.1043930E+01  0.7957747E-01            NaN
         13   -1    0    0    0    0  0.00000000000E+00  0.00000000000E+00  0.74505805969E-08  0.10566000000E+00  0.10566000000E+00 0.  1.
     999900   -1    0    0    0    0 -0.00000000000E+00 -0.00000000000E+00 -0.74505805969E-08  0.93827000000E+00  0.93827000000E+00 0.  1.
     999902    2    1    2    0    0  0.80025992635E-02 -0.16878713978E-01  0.85321446153E-02  0.10233939324E+01  0.10231878668E+01 0.  0.
     999903    2    3    3    0    0  0.11260175383E+00  0.55238727327E-02  0.71091930791E-01  0.13471143237E+00  0.19581604894E-01 0.  0.
         14    1    1    2    0    0 -0.80025992635E-02  0.16878713978E-01 -0.85321446153E-02  0.20536067595E-01  0.00000000000E+00 0.  1.
     999901    1    3    3    0    0 -0.10459915457E+00 -0.22402586710E-01 -0.62559786176E-01  0.88868250004E+00  0.88000000000E+00 0.  1.
        -11    1    4    4    0    0  0.88472637553E-01 -0.30686049368E-02  0.58969691116E-01  0.10636968329E+00  0.51100000000E-03 0. -1.
         11    1    4    4    0    0  0.24129116281E-01  0.85924776695E-02  0.12122239675E-01  0.28341749077E-01  0.51100000000E-03 0.  1.
</event>
<event>
 8    1  0.1022673E+005  0.1043930E+01  0.7957747E-01            NaN
         13   -1    0    0    0    0  0.00000000000E+00  0.00000000000E+00  0.74505805969E-08  0.10566000000E+00  0.10566000000E+00 0. -1.
     999900   -1    0    0    0    0 -0.00000000000E+00 -0.00000000000E+00 -0.74505805969E-08  0.93827000000E+00  0.93827000000E+00 0. -1.
     999902    2    1    2    0    0 -0.21461588409E-01 -0.11640334080E-01 -0.54417168169E-02  0.10189158153E+01  0.10186087223E+01 0.  0.
     999903    2    3    3    0    0 -0.79318550902E-01  0.53525002897E-01  0.85540203288E-01  0.12994356655E+00  0.20293980808E-01 0.  0.
         14    1    1    2    0    0  0.21461588409E-01  0.11640334080E-01  0.54417168169E-02  0.25014184705E-01  0.00000000000E+00 0. -1.
     999901    1    3    3    0    0  0.57856962493E-01 -0.65165336977E-01 -0.90981920105E-01  0.88897224874E+00  0.88000000000E+00 0. -1.
        -11    1    4    4    0    0 -0.30164522010E-01  0.17417741774E-01  0.19006014792E-01  0.39683319365E-01  0.51100000000E-03 0.  1.
         11    1    4    4    0    0 -0.49154028892E-01  0.36107261124E-01  0.66534188495E-01  0.90260247185E-01  0.51100000000E-03 0. -1.
</event>
<event>
 8    1  0.1022673E+005  0.1043930E+01  0.7957747E-01            NaN
         13   -1    0    0    0    0  0.00000000000E+00  0.00000000000E+00  0.74505805969E-08  0.10566000000E+00  0.10566000000E+00 0.  1.
     999900   -1    0    0    0    0 -0.00000000000E+00 -0.00000000000E+00 -0.74505805969E-08  0.93827000000E+00  0.93827000000E+00 0. -1.
     999902    2    1    2    0    0 -0.51906761428E-02  0.20662222364E-01  0.12031668921E-01  0.10194630507E+01  0.10191694070E+01 0.  0.
     999903    2    3    3    0    0  0.12269076226E+00  0.36254091991E-01  0.11688025319E-01  0.13008299313E+00  0.20435088317E-01 0.  0.
         14    1    1    2    0    0  0.51906761428E-02 -0.20662222364E-01 -0.12031668921E-01  0.24466949317E-01  0.00000000000E+00 0. -1.
     999901    1    3    3    0    0 -0.12788143840E+00 -0.15591869626E-01  0.34364360260E-03  0.88938005756E+00  0.88000000000E+00 0.  1.
        -11    1    4    4    0    0  0.85816232488E-01  0.25573630538E-01 -0.12865154170E-02  0.89556421212E-01  0.51100000000E-03 0.  1.
         11    1    4    4    0    0  0.36874529774E-01  0.10680461453E-01  0.12974540736E-01  0.40526571915E-01  0.51100000000E-03 0. -1.
</event>
<event>
 8    1  0.1022673E+005  0.1043930E+01  0.7957747E-01            NaN
         13   -1    0    0    0    0  0.00000000000E+00  0.00000000000E+00  0.74505805969E-08  0.10566000000E+00  0.10566000000E+00 0. -1.
     999900   -1    0    0    0    0 -0.00000000000E+00 -0.00000000000E+00 -0.74505805969E-08  0.93827000000E+00  0.93827000000E+00 0.  1.
     999902    2    1    2    0    0 -0.14328672536E-01 -0.88312377205E-02  0.16324451741E-01  0.10204824129E+01  0.10202130002E+01 0.  0.
     999903    2    3    3    0    0 -0.79869089957E-01  0.76890333553E-02 -0.10067819139E+00  0.13016893767E+00  0.19226579175E-01 0.  0.
         14    1    1    2    0    0  0.14328672536E-01  0.88312377205E-02 -0.16324451741E-01  0.23447587103E-01  0.00000000000E+00 0.  1.
     999901    1    3    3    0    0  0.65540417420E-01 -0.16520271076E-01  0.11700264314E+00  0.89031347523E+00  0.88000000000E+00 0. -1.
        -11    1    4    4    0    0 -0.34492875686E-01  0.89806476841E-02 -0.32367933259E-01  0.48149296260E-01  0.51100000000E-03 0.  1.
         11    1    4    4    0    0 -0.45376214271E-01 -0.12916143289E-02 -0.68310258136E-01  0.82019641409E-01  0.51100000000E-03 0. -1.
</event>
<event>
 8    1  0.1022673E+005  0.1043930E+01  0.7957747E-01            NaN
         13   -1    0    0    0    0  0.00000000000E+00  0.00000000000E+00  0.74505805969E-08  0.10566000000E+00  0.10566000000E+00 0. -1.
     999900   -1    0    0    0    0 -0.00000000000E+00 -0.00000000000E+00 -0.74505805969E-08  0.93827000000E+00  0.93827000000E+00 0.  1.
     999902    2    1    2    0    0 -0.22954181038E-01 -0.16054863441E-02 -0.59141732795E-02  0.10201718549E+01  0.10198951731E+01 0.  0.
     999903    2    3    3    0    0 -0.45509221651E-01  0.64553665693E-01  0.10234431990E+00  0.13078686255E+00  0.19813596105E-01 0.  0.
         14    1    1    2    0    0  0.22954181038E-01  0.16054863441E-02  0.59141732795E-02  0.23758145111E-01  0.00000000000E+00 0. -1.
     999901    1    3    3    0    0  0.22555040613E-01 -0.66159152037E-01 -0.10825849318E+00  0.88938499234E+00  0.88000000000E+00 0.  1.
        -11    1    4    4    0    0 -0.22433240578E-01  0.47974815481E-01  0.64442450033E-01  0.83414169603E-01  0.51100000000E-03 0.  1.
         11    1    4    4    0    0 -0.23075981073E-01  0.16578850212E-01  0.37901869864E-01  0.47372692946E-01  0.51100000000E-03 0. -1.
</event>
<event>
 8    1  0.1022673E+005  0.1043930E+01  0.7957747E-01            NaN
         13   -1    0    0    0    0  0.00000000000E+00  0.00000000000E+00  0.74505805969E-08  0.10566000000E+00  0.10566000000E+00 0.  1.
     999900   -1    0    0    0    0 -0.00000000000E+00 -0.00000000000E+00 -0.74505805969E-08  0.93827000000E+00  0.93827000000E+00 0.  1.
     999902    2    1    2    0    0 -0.47607391992E-02 -0.16254462009E-01 -0.17060073185E-01  0.10198900693E+01  0.10196067061E+01 0.  0.
     999903    2    3    3    0    0 -0.74466981249E-02  0.12241823197E+00  0.30257841720E-01  0.12777106627E+00  0.19189360528E-01 0.  0.
         14    1    1    2    0    0  0.47607391992E-02  0.16254462009E-01  0.17060073185E-01  0.24039930740E-01  0.00000000000E+00 0.  1.
     999901    1    3    3    0    0  0.26859589258E-02 -0.13867269398E+00 -0.47317914904E-01  0.89211900299E+00  0.88000000000E+00 0. -1.
        -11    1    4    4    0    0 -0.65524454593E-02  0.65592595162E-01  0.25700058368E-01  0.70753637381E-01  0.51100000000E-03 0.  1.
         11    1    4    4    0    0 -0.89425266568E-03  0.56825636809E-01  0.45577833517E-02  0.57017428885E-01  0.51100000000E-03 0. -1.
</event>
<event>
 8    1  0.1022673E+005  0.1043930E+01  0.7957747E-01            NaN
         13   -1    0    0    0    0  0.00000000000E+00  0.00000000000E+00  0.74505805969E-08  0.10566000000E+00  0.10566000000E+00 0.  1.
     999900   -1    0    0    0    0 -0.00000000000E+00 -0.00000000000E+00 -0.74505805969E-08  0.93827000000E+00  0.93827000000E+00 0.  1.
     999902    2    1    2    0    0 -0.90766661366E-02  0.41626148100E-02 -0.16031544761E-01  0.10250428706E+01  0.10248688515E+01 0.  0.
     999903    2    3    3    0    0 -0.95263737027E-02  0.10863020959E+00  0.75503580550E-01  0.13414873559E+00  0.20095232076E-01 0.  0.
         14    1    1    2    0    0  0.90766661366E-02 -0.41626148100E-02  0.16031544761E-01  0.18887129417E-01  0.00000000000E+00 0.  1.
     999901    1    3    3    0    0  0.44970756610E-03 -0.10446759478E+00 -0.91535125311E-01  0.89089413499E+00  0.88000000000E+00 0.  1.
        -11    1    4    4    0    0 -0.11939918776E-01  0.10662164679E+00  0.75054793714E-01  0.13093594008E+00  0.51100000000E-03 0.  1.
         11    1    4    4    0    0  0.24135450728E-02  0.20085628039E-02  0.44878683606E-03  0.32127955086E-02  0.51100000000E-03 0. -1.
</event>
<event>
 8    1  0.1022673E+005  0.1043930E+01  0.7957747E-01            NaN
         13   -1    0    0    0    0  0.00000000000E+00  0.00000000000E+00  0.74505805969E-08  0.10566000000E+00  0.10566000000E+00 0.  1.
     999900   -1    0    0    0    0 -0.00000000000E+00 -0.00000000000E+00 -0.74505805969E-08  0.93827000000E+00  0.93827000000E+00 0. -1.
     999902    2    1    2    0    0 -0.19582935640E-01 -0.10601182714E-01  0.70946550638E-02  0.10205588517E+01  0.10202912129E+01 0.  0.
     999903    2    3    3    0    0 -0.21734371255E-02 -0.57017383723E-01  0.11768604702E+00  0.13225259237E+00  0.19622350816E-01 0.  0.
         14    1    1    2    0    0  0.19582935640E-01  0.10601182714E-01 -0.70946550638E-02  0.23371148318E-01  0.00000000000E+00 0.  1.
     999901    1    3    3    0    0 -0.17409498514E-01  0.46416201009E-01 -0.11059139195E+00  0.88830625931E+00  0.88000000000E+00 0. -1.
        -11    1    4    4    0    0  0.37111975111E-02 -0.17580138425E-01  0.55869977078E-01  0.58690286366E-01  0.51100000000E-03 0. -1.
         11    1    4    4    0    0 -0.58846346366E-02 -0.39437245298E-01  0.61816069938E-01  0.73562306007E-01  0.51100000000E-03 0.  1.
</event>
<event>
 8    1  0.1022673E+005  0.1043930E+01  0.7957747E-01            NaN
         13   -1    0    0    0    0  0.00000000000E+00  0.00000000000E+00  0.74505805969E-08  0.10566000000E+00  0.10566000000E+00 0. -1.
     999900   -1    0    0    0    0 -0.00000000000E+00 -0.00000000000E+00 -0.74505805969E-08  0.93827000000E+00  0.93827000000E+00 0.  1.
     999902    2    1    2    0    0 -0.24209954053E-02  0.82104373027E-03 -0.25010740397E-01  0.10187889486E+01  0.10184786936E+01 0.  0.
     999903    2    3    3    0    0 -0.40629554191E-01 -0.10874193179E-02  0.11812631904E+00  0.12640351952E+00  0.19289358308E-01 0.  0.
         14    1    1    2    0    0  0.24209954053E-02 -0.82104373027E-03  0.25010740397E-01  0.25141051426E-01  0.00000000000E+00 0. -1.
     999901    1    3    3    0    0  0.38208558786E-01  0.19084630481E-02 -0.14313705944E+00  0.89238542905E+00  0.88000000000E+00 0.  1.
        -11    1    4    4    0    0 -0.20576337808E-01  0.14156164590E-02  0.86048342698E-01  0.88487106686E-01  0.51100000000E-03 0. -1.
         11    1    4    4    0    0 -0.20053216384E-01 -0.25030357769E-02  0.32077976341E-01  0.37916412839E-01  0.51100000000E-03 0.  1.
</event>
<event>
 8    1  0.1022673E+005  0.1043930E+01  0.7957747E-01            NaN
         13   -1    0    0    0    0  0.00000000000E+00  0.00000000000E+00  0.74505805969E-08  0.10566000000E+00  0.10566000000E+00 0.  1.
     999900   -1    0    0    0    0 -0.00000000000E+00 -0.00000000000E+00 -0.74505805969E-08  0.93827000000E+00  0.93827000000E+00 0.  1.
     999902    2    1    2    0    0 -0.15133226056E-01 -0.24578094148E-02  0.16470068444E-01  0.10214284776E+01  0.10211805992E+01 0.  0.
     999903    2    3    3    0    0  0.21575996065E-01  0.84625189467E-01  0.97924460529E-01  0.13262825609E+00  0.19341872828E-01 0.  0.
         14    1    1    2    0    0  0.15133226056E-01  0.24578094148E-02 -0.16470068444E-01  0.22501522449E-01  0.00000000000E+00 0. -1.
     999901    1    3    3    0    0 -0.36709222121E-01 -0.87082998882E-01 -0.81454392086E-01  0.88880022146E+00  0.88000000000E+00 0.  1.
        -11    1    4    4    0    0 -0.34275419159E-02  0.62540041281E-02  0.88538567086E-02  0.11380356358E-01  0.51100000000E-03 0. -1.
         11    1    4    4    0    0  0.25003537981E-01  0.78371185339E-01  0.89070603820E-01  0.12124789973E+00  0.51100000000E-03 0.  1.
</event>
<event>
 8    1  0.1022673E+005  0.1043930E+01  0.7957747E-01            NaN
         13   -1    0    0    0    0  0.00000000000E+00  0.00000000000E+00  0.74505805969E-08  0.10566000000E+00  0.10566000000E+00 0.  1.
     999900   -1    0    0    0    0 -0.00000000000E+00 -0.00000000000E+00 -0.74505805969E-08  0.93827000000E+00  0.93827000000E+00 0.  1.
     999902    2    1    2    0    0  0.11375774449E-01 -0.12926496917E-01  0.19264728091E-02  0.10266033193E+01  0.10264570918E+01 0.  0.
     999903    2    3    3    0    0 -0.11120591999E+00  0.66292626704E-01  0.29175045108E-01  0.13416596796E+00  0.19694027177E-01 0.  0.
         14    1    1    2    0    0 -0.11375774449E-01  0.12926496917E-01 -0.19264728091E-02  0.17326680708E-01  0.00000000000E+00 0. -1.
     999901    1    3    3    0    0  0.12258169444E+00 -0.79219123621E-01 -0.27248572299E-01  0.89243735133E+00  0.88000000000E+00 0. -1.
        -11    1    4    4    0    0 -0.45388164665E-01  0.38433542155E-01  0.13882066480E-01  0.61075326811E-01  0.51100000000E-03 0. -1.
         11    1    4    4    0    0 -0.65817755322E-01  0.27859084549E-01  0.15292978628E-01  0.73090641151E-01  0.51100000000E-03 0.  1.
</event>
<event>
 8    1  0.1022673E+005  0.1043930E+01  0.7957747E-01            NaN
         13   -1    0    0    0    0  0.00000000000E+00  0.00000000000E+00  0.74505805969E-08  0.10566000000E+00  0.10566000000E+00 0.  1.
     999900   -1    0    0    0    0 -0.00000000000E+00 -0.00000000000E+00 -0.74505805969E-08  0.93827000000E+00  0.93827000000E+00 0. -1.
     999902    2    1    2    0    0 -0.13691452374E-01  0.14524729198E-01  0.16424472523E-01  0.10180806881E+01  0.10177524751E+01 0.  0.
     999903    2    3    3    0    0  0.79259091792E-01 -0.32970390372E-01  0.92910803334E-01  0.12861694584E+00  0.23256205820E-01 0.  0.
         14    1    1    2    0    0  0.13691452374E-01 -0.14524729198E-01 -0.16424472523E-01  0.25849311868E-01  0.00000000000E+00 0. -1.
     999901    1    3    3    0    0 -0.92950544166E-01  0.47495119570E-01 -0.76486330811E-01  0.88946374229E+00  0.88000000000E+00 0.  1.
        -11    1    4    4    0    0  0.12414705983E-01 -0.17140754480E-02  0.26594045474E-01  0.29403526233E-01  0.51100000000E-03 0. -1.
         11    1    4    4    0    0  0.66844385809E-01 -0.31256314924E-01  0.66316757860E-01  0.99213419611E-01  0.51100000000E-03 0.  1.
</event>
<event>
 8    1  0.1022673E+005  0.1043930E+01  0.7957747E-01            NaN
         13   -1    0    0    0    0  0.00000000000E+00  0.00000000000E+00  0.74505805969E-08  0.10566000000E+00  0.10566000000E+00 0. -1.
     999900   -1    0    0    0    0 -0.00000000000E+00 -0.00000000000E+00 -0.74505805969E-08  0.93827000000E+00  0.93827000000E+00 0.  1.
     999902    2    1    2    0    0 -0.19690747749E-01 -0.12707161970E-01 -0.26653146118E-02  0.10203439572E+01  0.10200713159E+01 0.  0.
     999903    2    3    3    0    0  0.67522140210E-01  0.82743263035E-01  0.67908217046E-01  0.12810099993E+00  0.19815479908E-01 0.  0.
         14    1    1    2    0    0  0.19690747749E-01  0.12707161970E-01  0.26653146118E-02  0.23586042784E-01  0.00000000000E+00 0. -1.
     999901    1    3    3    0    0 -0.87212887959E-01 -0.95450425005E-01 -0.70573531657E-01  0.89224295729E+00  0.88000000000E+00 0. -1.
        -11    1    4    4    0    0  0.32826906262E-01  0.32760482928E-01  0.39625741851E-01  0.61002586459E-01  0.51100000000E-03 0.  1.
         11    1    4    4    0    0  0.34695233948E-01  0.49982780107E-01  0.28282475194E-01  0.67098413469E-01  0.51100000000E-03 0. -1.
</event>
<event>
 8    1  0.1022673E+005  0.1043930E+01  0.7957747E-01            NaN
         13   -1    0    0    0    0  0.00000000000E+00  0.00000000000E+00  0.74505805969E-08  0.10566000000E+00  0.10566000000E+00 0.  1.
     999900   -1    0    0    0    0 -0.00000000000E+00 -0.00000000000E+00 -0.74505805969E-08  0.93827000000E+00  0.93827000000E+00 0. -1.
     999902    2    1    2    0    0  0.14499507722E-01  0.10166960150E-01  0.15985413788E-01  0.10200734232E+01  0.10197944168E+01 0.  0.
     999903    2    3    3    0    0  0.95777450908E-01  0.74186607024E-01 -0.47809883223E-01  0.13171850586E+00  0.19672495715E-01 0.  0.
         14    1    1    2    0    0 -0.14499507722E-01 -0.10166960150E-01 -0.15985413788E-01  0.23856576805E-01  0.00000000000E+00 0.  1.
     999901    1    3    3    0    0 -0.81277943186E-01 -0.64019646874E-01  0.63795297011E-01  0.88835491734E+00  0.88000000000E+00 0. -1.
        -11    1    4    4    0    0  0.37366205222E-01  0.38760971790E-01 -0.27436617455E-01  0.60429093367E-01  0.51100000000E-03 0.  1.
         11    1    4    4    0    0  0.58411245686E-01  0.35425635235E-01 -0.20373265767E-01  0.71289412492E-01  0.51100000000E-03 0. -1.
</event>
<event>
 8    1  0.1022673E+005  0.1043930E+01  0.7957747E-01            NaN
         13   -1    0    0    0    0  0.00000000000E+00  0.00000000000E+00  0.74505805969E-08  0.10566000000E+00  0.10566000000E+00 0. -1.
     999900   -1    0    0    0    0 -0.00000000000E+00 -0.00000000000E+00 -0.74505805969E-08  0.93827000000E+00  0.93827000000E+00 0. -1.
     999902    2    1    2    0    0  0.11412421390E-01 -0.18575527317E-01  0.11738024190E-01  0.10191696529E+01  0.10188688368E+01 0.  0.
     999903    2    3    3    0    0  0.64510502317E-01  0.96457287970E-01  0.52664555357E-01  0.12915452058E+00  0.21017171151E-01 0.  0.
         14    1    1    2    0    0 -0.11412421390E-01  0.18575527317E-01 -0.11738024190E-01  0.24760347109E-01  0.00000000000E+00 0.  1.
     999901    1    3    3    0    0 -0.53098080928E-01 -0.11503281529E+00 -0.40926531167E-01  0.89001513231E+00  0.88000000000E+00 0. -1.
        -11    1    4    4    0    0  0.14851021563E-01  0.10194353767E-01  0.11890768809E-01  0.21590025338E-01  0.51100000000E-03 0.  1.
         11    1    4    4    0    0  0.49659480754E-01  0.86262934203E-01  0.40773786548E-01  0.10756449524E+00  0.51100000000E-03 0. -1.
</event>
<event>
 8    1  0.1022673E+005  0.1043930E+01  0.7957747E-01            NaN
         13   -1    0    0    0    0  0.00000000000E+00  0.00000000000E+00  0.74505805969E-08  0.10566000000E+00  0.10566000000E+00 0.  1.
     999900   -1    0    0    0    0 -0.00000000000E+00 -0.00000000000E+00 -0.74505805969E-08  0.93827000000E+00  0.93827000000E+00 0.  1.
     999902    2    1    2    0    0  0.11607694902E-01  0.14979853377E-01 -0.10235837089E-02  0.10249515303E+01  0.10247758082E+01 0.  0.
     999903    2    3    3    0    0 -0.11028383118E+00  0.43967722105E-01 -0.58939470452E-01  0.13419225273E+00  0.20928820044E-01 0.  0.
         14    1    1    2    0    0 -0.11607694902E-01 -0.14979853377E-01  0.10235837089E-02  0.18978469689E-01  0.00000000000E+00 0.  1.
     999901    1    3    3    0    0  0.12189152608E+00 -0.28987868728E-01  0.57915886743E-01  0.89075927758E+00  0.88000000000E+00 0. -1.
        -11    1    4    4    0    0 -0.60778170609E-01  0.14295579738E-01 -0.36061135514E-01  0.72104204026E-01  0.51100000000E-03 0. -1.
         11    1    4    4    0    0 -0.49505660570E-01  0.29672142367E-01 -0.22878334937E-01  0.62088048702E-01  0.51100000000E-03 0.  1.
</event>
<event>
 8    1  0.1022673E+005  0.1043930E+01  0.7957747E-01            NaN
         13   -1    0    0    0    0  0.00000000000E+00  0.00000000000E+00  0.74505805969E-08  0.10566000000E+00  0.10566000000E+00 0. -1.
     999900   -1    0    0    0    0 -0.00000000000E+00 -0.00000000000E+00 -0.74505805969E-08  0.93827000000E+00  0.93827000000E+00 0.  1.
     999902    2    1    2    0    0 -0.98139678108E-02  0.16295072770E-01 -0.14560378049E-01  0.10199748759E+01  0.10196935322E+01 0.  0.
     999903    2    3    3    0    0 -0.12714517100E-01  0.96147880871E-01  0.85472588182E-01  0.13071030422E+00  0.19327347399E-01 0.  0.
         14    1    1    2    0    0  0.98139678108E-02 -0.16295072770E-01  0.14560378049E-01  0.23955124080E-01  0.00000000000E+00 0. -1.
     999901    1    3    3    0    0  0.29005492892E-02 -0.79852808101E-01 -0.10003296623E+00  0.88926457170E+00  0.88000000000E+00 0.  1.
        -11    1    4    4    0    0 -0.17904842415E-01  0.73466747206E-01  0.65281898840E-01  0.99899618439E-01  0.51100000000E-03 0. -1.
         11    1    4    4    0    0  0.51903253146E-02  0.22681133665E-01  0.20190689342E-01  0.30810685781E-01  0.51100000000E-03 0.  1.
</event>
<event>
 8    1  0.1022673E+005  0.1043930E+01  0.7957747E-01            NaN
         13   -1    0    0    0    0  0.00000000000E+00  0.00000000000E+00  0.74505805969E-08  0.10566000000E+00  0.10566000000E+00 0.  1.
     999900   -1    0    0    0    0 -0.00000000000E+00 -0.00000000000E+00 -0.74505805969E-08  0.93827000000E+00  0.93827000000E+00 0. -1.
     999902    2    1    2    0    0 -0.83454714150E-02  0.15227920961E-01  0.15554104384E-01  0.10206176292E+01  0.10203513505E+01 0.  0.
     999903    2    3    3    0    0 -0.65768082958E-01  0.73380178594E-01 -0.84191098606E-01  0.13121999769E+00  0.20505008242E-01 0.  0.
         14    1    1    2    0    0  0.83454714150E-02 -0.15227920961E-01 -0.15554104384E-01  0.23312370817E-01  0.00000000000E+00 0. -1.
     999901    1    3    3    0    0  0.57422611543E-01 -0.58152257633E-01  0.99745202990E-01  0.88939763149E+00  0.88000000000E+00 0.  1.
        -11    1    4    4    0    0 -0.38233469273E-01  0.33762369712E-01 -0.54103976689E-01  0.74358571771E-01  0.51100000000E-03 0.  1.
         11    1    4    4    0    0 -0.27534613684E-01  0.39617808883E-01 -0.30087121917E-01  0.56861425920E-01  0.51100000000E-03 0. -1.
</event>
<event>
 8    1  0.1022673E+005  0.1043930E+01  0.7957747E-01            NaN
         13   -1    0    0    0    0  0.00000000000E+00  0.00000000000E+00  0.74505805969E-08  0.10566000000E+00  0.10566000000E+00 0. -1.
     999900   -1    0    0    0    0 -0.00000000000E+00 -0.00000000000E+00 -0.74505805969E-08  0.93827000000E+00  0.93827000000E+00 0.  1.
     999902    2    1    2    0    0 -0.16547467201E-01  0.15939026464E-01  0.74505874937E-02  0.10197766878E+01  0.10194906133E+01 0.  0.
     999903    2    3    3    0    0  0.68638657544E-01  0.10135550971E+00  0.41902160693E-01  0.13087873959E+00  0.19729387976E-01 0.  0.
         14    1    1    2    0    0  0.16547467201E-01 -0.15939026464E-01 -0.74505874937E-02  0.24153312182E-01  0.00000000000E+00 0.  1.
     999901    1    3    3    0    0 -0.85186124745E-01 -0.85416483243E-01 -0.34451573199E-01  0.88889794822E+00  0.88000000000E+00 0. -1.
        -11    1    4    4    0    0  0.53153129268E-01  0.62204594843E-01  0.25700564614E-01  0.85763902156E-01  0.51100000000E-03 0. -1.
         11    1    4    4    0    0  0.15485528276E-01  0.39150914863E-01  0.16201596079E-01  0.45114837439E-01  0.51100000000E-03 0.  1.
</event>
<event>
 8    1  0.1022673E+005  0.1043930E+01  0.7957747E-01            NaN
         13   -1    0    0    0    0  0.00000000000E+00  0.00000000000E+00  0.74505805969E-08  0.10566000000E+00  0.10566000000E+00 0.  1.
     999900   -1    0    0    0    0 -0.00000000000E+00 -0.00000000000E+00 -0.74505805969E-08  0.93827000000E+00  0.93827000000E+00 0.  1.
     999902    2    1    2    0    0  0.77493586482E-02 -0.26095769831E-02 -0.24508700874E-01  0.10180932264E+01  0.10177653358E+01 0.  0.
     999903    2    3    3    0    0  0.11553819108E+00 -0.48619813353E-01 -0.30201279648E-01  0.13030508743E+00  0.18823885609E-01 0.  0.
         14    1    1    2    0    0 -0.77493586482E-02  0.26095769831E-02  0.24508700874E-01  0.25836773599E-01  0.00000000000E+00 0.  1.
     999901    1    3    3    0    0 -0.10778883243E+00  0.46010236370E-01  0.56925787739E-02  0.88778813897E+00  0.88000000000E+00 0. -1.
        -11    1    4    4    0    0  0.71921428739E-01 -0.29115577306E-01 -0.27939161234E-01  0.82469792077E-01  0.51100000000E-03 0.  1.
         11    1    4    4    0    0  0.43616762338E-01 -0.19504236047E-01 -0.22621184140E-02  0.47835295352E-01  0.51100000000E-03 0. -1.
</event>
<event>
 8    1  0.1022673E+005  0.1043930E+01  0.7957747E-01            NaN
         13   -1    0    0    0    0  0.00000000000E+00  0.00000000000E+00  0.74505805969E-08  0.10566000000E+00  0.10566000000E+00 0. -1.
     999900   -1    0    0    0    0 -0.00000000000E+00 -0.00000000000E+00 -0.74505805969E-08  0.93827000000E+00  0.93827000000E+00 0.  1.
     999902    2    1    2    0    0  0.12839845094E-01  0.86651138692E-02  0.17957613243E-01  0.10202145684E+01  0.10199388923E+01 0.  0.
     999903    2    3    3    0    0 -0.10627919347E+00  0.22878968588E-01  0.69472374278E-01  0.13058253799E+00  0.20166166487E-01 0.  0.
         14    1    1    2    0    0 -0.12839845094E-01 -0.86651138692E-02 -0.17957613243E-01  0.23715431554E-01  0.00000000000E+00 0.  1.
     999901    1    3    3    0    0  0.11911903856E+00 -0.14213854719E-01 -0.51514761035E-01  0.88963203046E+00  0.88000000000E+00 0.  1.
        -11    1    4    4    0    0 -0.51582625544E-01  0.78923909153E-02  0.22045275640E-01  0.56650793388E-01  0.51100000000E-03 0.  1.
         11    1    4    4    0    0 -0.54696567927E-01  0.14986577672E-01  0.47427098637E-01  0.73931744599E-01  0.51100000000E-03 0. -1.
</event>
<event>
 8    1  0.1022673E+005  0.1043930E+01  0.7957747E-01            NaN
         13   -1    0    0    0    0  0.00000000000E+00  0.00000000000E+00  0.74505805969E-08  0.10566000000E+00  0.10566000000E+00 0. -1.
     999900   -1    0    0    0    0 -0.00000000000E+00 -0.00000000000E+00 -0.74505805969E-08  0.93827000000E+00  0.93827000000E+00 0.  1.
     999902    2    1    2    0    0 -0.13839942950E-01 -0.24464257660E-02  0.19414415082E-01  0.10199623440E+01  0.10196807023E+01 0.  0.
     999903    2    3    3    0    0  0.87056805375E-01 -0.91619534451E-01 -0.16608755317E-01  0.12899115148E+00  0.19744365096E-01 0.  0.
         14    1    1    2    0    0  0.13839942950E-01  0.24464257660E-02 -0.19414415082E-01  0.23967655973E-01  0.00000000000E+00 0.  1.
     999901    1    3    3    0    0 -0.10089674832E+00  0.89173108685E-01  0.36023170399E-01  0.89097119254E+00  0.88000000000E+00 0.  1.
        -11    1    4    4    0    0  0.32876622586E-01 -0.24149726348E-01  0.42093827417E-03  0.40798528226E-01  0.51100000000E-03 0.  1.
         11    1    4    4    0    0  0.54180182789E-01 -0.67469808103E-01 -0.17029693592E-01  0.88192623259E-01  0.51100000000E-03 0. -1.
</event>
<event>
 8    1  0.1022673E+005  0.1043930E+01  0.7957747E-01            NaN
         13   -1    0    0    0    0  0.00000000000E+00  0.00000000000E+00  0.74505805969E-08  0.10566000000E+00  0.10566000000E+00 0.  1.
     999900   -1    0    0    0    0 -0.00000000000E+00 -0.00000000000E+00 -0.74505805969E-08  0.93827000000E+00  0.93827000000E+00 0.  1.
     999902    2    1    2    0    0  0.21118451449E-01  0.13528217663E-01 -0.34054610543E-02  0.10186199461E+01  0.10183054530E+01 0.  0.
     999903    2    3    3    0    0 -0.12163511861E+00  0.29894208038E-01 -0.23368403619E-02  0.12696554590E+00  0.20640331087E-01 0.  0.
         14    1    1    2    0    0 -0.21118451449E-01 -0.13528217663E-01  0.34054610543E-02  0.25310053926E-01  0.00000000000E+00 0. -1.
     999901    1    3    3    0    0  0.14275357006E+00 -0.16365990375E-01 -0.10686206924E-02  0.89165440018E+00  0.88000000000E+00 0. -1.
        -11    1    4    4    0    0 -0.52630535625E-01  0.51161353289E-02  0.57865628654E-02  0.53196743807E-01  0.51100000000E-03 0.  1.
         11    1    4    4    0    0 -0.69004582989E-01  0.24778072709E-01 -0.81234032273E-02  0.73768802089E-01  0.51100000000E-03 0. -1.
</event>
<event>
 8    1  0.1022673E+005  0.1043930E+01  0.7957747E-01            NaN
         13   -1    0    0    0    0  0.00000000000E+00  0.00000000000E+00  0.74505805969E-08  0.10566000000E+00  0.10566000000E+00 0.  1.
     999900   -1    0    0    0    0 -0.00000000000E+00 -0.00000000000E+00 -0.74505805969E-08  0.93827000000E+00  0.93827000000E+00 0.  1.
     999902    2    1    2    0    0 -0.17640427006E-01  0.14454218303E-01 -0.27624823008E-02  0.10209573989E+01  0.10206989125E+01 0.  0.
     999903    2    3    3    0    0 -0.77253853334E-01 -0.95277927747E-01 -0.43732929036E-01  0.13119704805E+00  0.15939101777E-01 0.  0.
         14    1    1    2    0    0  0.17640427006E-01 -0.14454218303E-01  0.27624823008E-02  0.22972601075E-01  0.00000000000E+00 0.  1.
     999901    1    3    3    0    0  0.59613426328E-01  0.10973214605E+00  0.40970446735E-01  0.88976035087E+00  0.88000000000E+00 0. -1.
        -11    1    4    4    0    0 -0.37139186659E-01 -0.46366770926E-01 -0.29614598132E-01  0.66381339059E-01  0.51100000000E-03 0. -1.
         11    1    4    4    0    0 -0.40114666675E-01 -0.48911156822E-01 -0.14118330903E-01  0.64815708995E-01  0.51100000000E-03 0.  1.
</event>
<event>
 8    1  0.1022673E+005  0.1043930E+01  0.7957747E-01            NaN
         13   -1    0    0    0    0  0.00000000000E+00  0.00000000000E+00  0.74505805969E-08  0.10566000000E+00  0.10566000000E+00 0.  1.
     999900   -1    0    0    0    0 -0.00000000000E+00 -0.00000000000E+00 -0.74505805969E-08  0.93827000000E+00  0.93827000000E+00 0. -1.
     999902    2    1    2    0    0 -0.11800166162E-01 -0.18517683211E-01  0.41050322032E-02  0.10215916965E+01  0.10213474407E+01 0.  0.
     999903    2    3    3    0    0 -0.41918890097E-01 -0.26226540785E-01 -0.12122112044E+00  0.13216873271E+00  0.18138056015E-01 0.  0.
         14    1    1    2    0    0  0.11800166162E-01  0.18517683211E-01 -0.41050322032E-02  0.22338303479E-01  0.00000000000E+00 0. -1.
     999901    1    3    3    0    0  0.30118723936E-01  0.77088575748E-02  0.12532615265E+00  0.88942296381E+00  0.88000000000E+00 0.  1.
        -11    1    4    4    0    0 -0.40795612277E-01 -0.26498762002E-01 -0.10307724311E+00  0.11398089988E+00  0.51100000000E-03 0.  1.
         11    1    4    4    0    0 -0.11232778207E-02  0.27222121619E-03 -0.18143877335E-01  0.18187832834E-01  0.51100000000E-03 0. -1.
</event>
<event>
 8    1  0.1022673E+005  0.1043930E+01  0.7957747E-01            NaN
         13   -1    0    0    0    0  0.00000000000E+00  0.00000000000E+00  0.74505805969E-08  0.10566000000E+00  0.10566000000E+00 0. -1.
     999900   -1    0    0    0    0 -0.00000000000E+00 -0.00000000000E+00 -0.74505805969E-08  0.93827000000E+00  0.93827000000E+00 0.  1.
     999902    2    1    2    0    0  0.23152872848E-01  0.66300109977E-02  0.53177678518E-03  0.10198406797E+01  0.10195561370E+01 0.  0.
     999903    2    3    3    0    0 -0.80813833814E-01  0.97324969906E-01 -0.14865581586E-01  0.12895812271E+00  0.20154066447E-01 0.  0.
         14    1    1    2    0    0 -0.23152872848E-01 -0.66300109977E-02 -0.53177678518E-03  0.24089320321E-01  0.00000000000E+00 0. -1.
     999901    1    3    3    0    0  0.10396670666E+00 -0.90694958909E-01  0.15397358372E-01  0.89088255697E+00  0.88000000000E+00 0. -1.
        -11    1    4    4    0    0 -0.14093986412E-01  0.15952101537E-01 -0.10239209300E-01  0.23626521634E-01  0.51100000000E-03 0.  1.
         11    1    4    4    0    0 -0.66719847401E-01  0.81372868370E-01 -0.46263722864E-02  0.10533160108E+00  0.51100000000E-03 0. -1.
</event>
<event>
 8    1  0.1022673E+005  0.1043930E+01  0.7957747E-01            NaN
         13   -1    0    0    0    0  0.00000000000E+00  0.00000000000E+00  0.74505805969E-08  0.10566000000E+00  0.10566000000E+00 0. -1.
     999900   -1    0    0    0    0 -0.00000000000E+00 -0.00000000000E+00 -0.74505805969E-08  0.93827000000E+00  0.93827000000E+00 0.  1.
     999902    2    1    2    0    0  0.13600323843E-01  0.72289561388E-02  0.17519345761E-01  0.10206028893E+01  0.10203362699E+01 0.  0.
     999903    2    3    3    0    0  0.93333420648E-01  0.67144313318E-01  0.65421224330E-01  0.13367459082E+00  0.19221691347E-01 0.  0.
         14    1    1    2    0    0 -0.13600323843E-01 -0.72289561388E-02 -0.17519345761E-01  0.23327110653E-01  0.00000000000E+00 0.  1.
     999901    1    3    3    0    0 -0.79733096805E-01 -0.59915357179E-01 -0.47901878568E-01  0.88692829852E+00  0.88000000000E+00 0. -1.
        -11    1    4    4    0    0  0.40278287498E-01  0.28336463557E-01  0.39025709106E-01  0.62837589888E-01  0.51100000000E-03 0. -1.
         11    1    4    4    0    0  0.53055133150E-01  0.38807849761E-01  0.26395515224E-01  0.70837000935E-01  0.51100000000E-03 0.  1.
</event>
<event>
 7    1  0.1022673E+005  0.1043930E+01  0.7957747E-01            NaN
         13   -1    0    0    0    0  0.00000000000E+00  0.00000000000E+00  0.74505805969E-08  0.10566000000E+00  0.10566000000E+00 0. -1.
     999900   -1    0    0    0    0 -0.00000000000E+00 -0.00000000000E+00 -0.74505805969E-08  0.93827000000E+00  0.93827000000E+00 0.  1.
     999903    2    1    2    0    0  0.38044124725E-01 -0.13761298628E-02 -0.96288825685E-01  0.10558752238E+00  0.20686656811E-01 0.  0.
         14    1    1    2    0    0 -0.11948451143E-01  0.26686129487E-01  0.48081178293E-01  0.56273570153E-01  0.00000000000E+00 0. -1.
     999901    1    1    2    0    0 -0.26095673583E-01 -0.25309999624E-01  0.48207647392E-01  0.88206890747E+00  0.88000000000E+00 0. -1.
        -11    1    3    3    0    0  0.63231139426E-02 -0.84267535215E-02 -0.18745793561E-01  0.21509482609E-01  0.51100000000E-03 0.  1.
         11    1    3    3    0    0  0.31721010783E-01  0.70506236587E-02 -0.77543032124E-01  0.84078039767E-01  0.51100000000E-03 0. -1.
</event>
<event>
 8    1  0.1022673E+005  0.1043930E+01  0.7957747E-01            NaN
         13   -1    0    0    0    0  0.00000000000E+00  0.00000000000E+00  0.74505805969E-08  0.10566000000E+00  0.10566000000E+00 0.  1.
     999900   -1    0    0    0    0 -0.00000000000E+00 -0.00000000000E+00 -0.74505805969E-08  0.93827000000E+00  0.93827000000E+00 0. -1.
     999902    2    1    2    0    0  0.26842015262E-02 -0.10426945388E-02  0.21471976344E-01  0.10222657918E+01  0.10220362083E+01 0.  0.
     999903    2    3    3    0    0 -0.32791059416E-02 -0.97490166560E-01  0.90178091177E-01  0.13431410046E+00  0.19826859132E-01 0.  0.
         14    1    1    2    0    0 -0.26842015262E-02  0.10426945388E-02 -0.21471976344E-01  0.21664208221E-01  0.00000000000E+00 0. -1.
     999901    1    3    3    0    0  0.59633074678E-02  0.96447472021E-01 -0.68706114833E-01  0.88795169132E+00  0.88000000000E+00 0. -1.
        -11    1    4    4    0    0 -0.28758517062E-02 -0.76695980226E-01  0.58892075058E-01  0.96742346113E-01  0.51100000000E-03 0.  1.
         11    1    4    4    0    0 -0.40325423543E-03 -0.20794186334E-01  0.31286016120E-01  0.37571754350E-01  0.51100000000E-03 0. -1.
</event>
<event>
 8    1  0.1022673E+005  0.1043930E+01  0.7957747E-01            NaN
         13   -1    0    0    0    0  0.00000000000E+00  0.00000000000E+00  0.74505805969E-08  0.10566000000E+00  0.10566000000E+00 0.  1.
     999900   -1    0    0    0    0 -0.00000000000E+00 -0.00000000000E+00 -0.74505805969E-08  0.93827000000E+00  0.93827000000E+00 0.  1.
     999902    2    1    2    0    0  0.14569789645E-01 -0.16150325760E-01 -0.93701801753E-02  0.10202464177E+01  0.10199714902E+01 0.  0.
     999903    2    3    3    0    0 -0.13107113017E-01  0.53416564094E-01 -0.11592403361E+00  0.13066264608E+00  0.24682377936E-01 0.  0.
         14    1    1    2    0    0 -0.14569789645E-01  0.16150325760E-01  0.93701801753E-02  0.23683582266E-01  0.00000000000E+00 0.  1.
     999901    1    3    3    0    0  0.27676902662E-01 -0.69566889854E-01  0.10655385344E+00  0.88958377165E+00  0.88000000000E+00 0. -1.
        -11    1    4    4    0    0 -0.17277836260E-01  0.28127793407E-01 -0.79865069391E-01  0.86419828845E-01  0.51100000000E-03 0.  1.
         11    1    4    4    0    0  0.41707232430E-02  0.25288770687E-01 -0.36058964223E-01  0.44242817237E-01  0.51100000000E-03 0. -1.
</event>
<event>
 8    1  0.1022673E+005  0.1043930E+01  0.7957747E-01            NaN
         13   -1    0    0    0    0  0.00000000000E+00  0.00000000000E+00  0.74505805969E-08  0.10566000000E+00  0.10566000000E+00 0.  1.
     999900   -1    0    0    0    0 -0.00000000000E+00 -0.00000000000E+00 -0.74505805969E-08  0.93827000000E+00  0.93827000000E+00 0.  1.
     999902    2    1    2    0    0  0.14020118716E-01 -0.18065330598E-01  0.53109474603E-02  0.10204539258E+01  0.10201838504E+01 0.  0.
     999903    2    3    3    0    0  0.66864785546E-01  0.10860121444E+00  0.12668709954E-01  0.12978501472E+00  0.20458018197E-01 0.  0.
         14    1    1    2    0    0 -0.14020118716E-01  0.18065330598E-01 -0.53109474603E-02  0.23476074232E-01  0.00000000000E+00 0. -1.
     999901    1    3    3    0    0 -0.52844666830E-01 -0.12666654504E+00 -0.73577624934E-02  0.89066891105E+00  0.88000000000E+00 0.  1.
        -11    1    4    4    0    0  0.50030935057E-01  0.69350702606E-01  0.15786295585E-01  0.86960236108E-01  0.51100000000E-03 0.  1.
         11    1    4    4    0    0  0.16833850489E-01  0.39250511836E-01 -0.31175856312E-02  0.42824778609E-01  0.51100000000E-03 0. -1.
</event>
<event>
 8    1  0.1022673E+005  0.1043930E+01  0.7957747E-01            NaN
         13   -1    0    0    0    0  0.00000000000E+00  0.00000000000E+00  0.74505805969E-08  0.10566000000E+00  0.10566000000E+00 0.  1.
     999900   -1    0    0    0    0 -0.00000000000E+00 -0.00000000000E+00 -0.74505805969E-08  0.93827000000E+00  0.93827000000E+00 0. -1.
     999902    2    1    2    0    0 -0.15087371637E-01  0.10162735198E-01  0.14861627119E-01  0.10204400462E+01  0.10201696476E+01 0.  0.
     999903    2    3    3    0    0 -0.70721163825E-02  0.11684397857E+00  0.59379873666E-01  0.13284385068E+00  0.20469223410E-01 0.  0.
         14    1    1    2    0    0  0.15087371637E-01 -0.10162735198E-01 -0.14861627119E-01  0.23489953816E-01  0.00000000000E+00 0. -1.
     999901    1    3    3    0    0 -0.80152552549E-02 -0.10668124337E+00 -0.44518246547E-01  0.88759619551E+00  0.88000000000E+00 0. -1.
        -11    1    4    4    0    0 -0.11595955564E-03  0.59039066142E-01  0.19135731864E-01  0.62064983142E-01  0.51100000000E-03 0.  1.
         11    1    4    4    0    0 -0.69561568268E-02  0.57804912431E-01  0.40244141802E-01  0.70778867534E-01  0.51100000000E-03 0. -1.
</event>
<event>
 8    1  0.1022673E+005  0.1043930E+01  0.7957747E-01            NaN
         13   -1    0    0    0    0  0.00000000000E+00  0.00000000000E+00  0.74505805969E-08  0.10566000000E+00  0.10566000000E+00 0. -1.
     999900   -1    0    0    0    0 -0.00000000000E+00 -0.00000000000E+00 -0.74505805969E-08  0.93827000000E+00  0.93827000000E+00 0.  1.
     999902    2    1    2    0    0 -0.28720068598E-02  0.19441577365E-01  0.15186581004E-01  0.10190934222E+01  0.10187907281E+01 0.  0.
     999903    2    3    3    0    0 -0.85393872096E-01  0.58305243465E-02  0.97560648507E-01  0.13129805952E+00  0.19874402935E-01 0.  0.
         14    1    1    2    0    0  0.28720068598E-02 -0.19441577365E-01 -0.15186581004E-01  0.24836577792E-01  0.00000000000E+00 0.  1.
     999901    1    3    3    0    0  0.82521865236E-01  0.13611053019E-01 -0.82374067503E-01  0.88779536268E+00  0.88000000000E+00 0.  1.
        -11    1    4    4    0    0 -0.49372093114E-01 -0.63211841340E-02  0.52661605265E-01  0.72464244545E-01  0.51100000000E-03 0. -1.
         11    1    4    4    0    0 -0.36021778981E-01  0.12151708480E-01  0.44899043241E-01  0.58833814979E-01  0.51100000000E-03 0.  1.
</event>
<event>
 7    1  0.1022673E+005  0.1043930E+01  0.7957747E-01            NaN
         13   -1    0    0    0    0  0.00000000000E+00  0.00000000000E+00  0.74505805969E-08  0.10566000000E+00  0.10566000000E+00 0. -1.
     999900   -1    0    0    0    0 -0.00000000000E+00 -0.00000000000E+00 -0.74505805969E-08  0.93827000000E+00  0.93827000000E+00 0.  1.
     999902    2    1    2    0    0  0.18085563870E-02  0.72707096082E-02  0.22948255228E-01  0.10197896497E+01  0.10195038858E+01 0.  0.
         14    1    1    2    0    0 -0.18085563870E-02 -0.72707096082E-02 -0.22948255228E-01  0.24140350296E-01  0.00000000000E+00 0.  1.
     999901    1    3    3    0    0  0.11413522729E+00  0.64769253912E-01 -0.82790682658E-02  0.88976988561E+00  0.88000000000E+00 0.  1.
        -11    1    3    3    0    0 -0.69564029138E-01 -0.34356060093E-01  0.19459533458E-01  0.79990171762E-01  0.51100000000E-03 0.  1.
         11    1    3    3    0    0 -0.42762641763E-01 -0.23142484211E-01  0.11767790036E-01  0.50029592336E-01  0.51100000000E-03 0. -1.
</event>
<event>
 8    1  0.1022673E+005  0.1043930E+01  0.7957747E-01            NaN
         13   -1    0    0    0    0  0.00000000000E+00  0.00000000000E+00  0.74505805969E-08  0.10566000000E+00  0.10566000000E+00 0.  1.
     999900   -1    0    0    0    0 -0.00000000000E+00 -0.00000000000E+00 -0.74505805969E-08  0.93827000000E+00  0.93827000000E+00 0.  1.
     999902    2    1    2    0    0 -0.16359196762E-01  0.11449236960E-01  0.54675191546E-02  0.10232272922E+01  0.10230178343E+01 0.  0.
     999903    2    3    3    0    0 -0.27015084456E-01  0.12816310037E+00  0.27013547136E-01  0.13519581459E+00  0.19813668755E-01 0.  0.
         14    1    1    2    0    0  0.16359196762E-01 -0.11449236960E-01 -0.54675191546E-02  0.20702707827E-01  0.00000000000E+00 0.  1.
     999901    1    3    3    0    0  0.10655887694E-01 -0.11671386341E+00 -0.21546027982E-01  0.88803147758E+00  0.88000000000E+00 0.  1.
        -11    1    4    4    0    0 -0.43853863852E-02  0.56378061315E-01  0.49882685684E-02  0.56770250622E-01  0.51100000000E-03 0. -1.
         11    1    4    4    0    0 -0.22629698071E-01  0.71785039055E-01  0.22025278568E-01  0.78425563969E-01  0.51100000000E-03 0.  1.
</event>
<event>
 8    1  0.1022673E+005  0.1043930E+01  0.7957747E-01            NaN
         13   -1    0    0    0    0  0.00000000000E+00  0.00000000000E+00  0.74505805969E-08  0.10566000000E+00  0.10566000000E+00 0. -1.
     999900   -1    0    0    0    0 -0.00000000000E+00 -0.00000000000E+00 -0.74505805969E-08  0.93827000000E+00  0.93827000000E+00 0.  1.
     999902    2    1    2    0    0  0.70889844245E-02  0.97039553248E-02 -0.25134955441E-01  0.10160698773E+01  0.10156878503E+01 0.  0.
     999903    2    3    3    0    0 -0.35646931999E-01 -0.35076442473E-01  0.11125976494E+00  0.12341363762E+00  0.18738465241E-01 0.  0.
         14    1    1    2    0    0 -0.70889844245E-02 -0.97039553248E-02  0.25134955441E-01  0.27860122651E-01  0.00000000000E+00 0. -1.
     999901    1    3    3    0    0  0.42735916423E-01  0.44780397798E-01 -0.13639472038E+00  0.89265623973E+00  0.88000000000E+00 0.  1.
        -11    1    4    4    0    0 -0.19929730158E-01 -0.30159741223E-01  0.85574212143E-01  0.92897852719E-01  0.51100000000E-03 0.  1.
         11    1    4    4    0    0 -0.15717201841E-01 -0.49167012495E-02  0.25685552793E-01  0.30515784902E-01  0.51100000000E-03 0. -1.
</event>
<event>
 8    1  0.1022673E+005  0.1043930E+01  0.7957747E-01            NaN
         13   -1    0    0    0    0  0.00000000000E+00  0.00000000000E+00  0.74505805969E-08  0.10566000000E+00  0.10566000000E+00 0. -1.
     999900   -1    0    0    0    0 -0.00000000000E+00 -0.00000000000E+00 -0.74505805969E-08  0.93827000000E+00  0.93827000000E+00 0.  1.
     999902    2    1    2    0    0 -0.18180099486E-01  0.12794328574E-01  0.78353382136E-02  0.10203587593E+01  0.10200864642E+01 0.  0.
     999903    2    3    3    0    0  0.78115282355E-01 -0.90733945591E-01  0.41812080375E-01  0.12842528474E+00  0.20252344937E-01 0.  0.
         14    1    1    2    0    0  0.18180099486E-01 -0.12794328574E-01 -0.78353382136E-02  0.23571240653E-01  0.00000000000E+00 0.  1.
     999901    1    3    3    0    0 -0.96295381841E-01  0.10352827417E+00 -0.33976742161E-01  0.89193347461E+00  0.88000000000E+00 0.  1.
        -11    1    4    4    0    0  0.70113932329E-01 -0.88300653092E-01  0.41123733360E-01  0.12001829615E+00  0.51100000000E-03 0.  1.
         11    1    4    4    0    0  0.80013500265E-02 -0.24332924987E-02  0.68834701505E-03  0.84069885954E-02  0.51100000000E-03 0. -1.
</event>
<event>
 8    1  0.1022673E+005  0.1043930E+01  0.7957747E-01            NaN
         13   -1    0    0    0    0  0.00000000000E+00  0.00000000000E+00  0.74505805969E-08  0.10566000000E+00  0.10566000000E+00 0. -1.
     999900   -1    0    0    0    0 -0.00000000000E+00 -0.00000000000E+00 -0.74505805969E-08  0.93827000000E+00  0.93827000000E+00 0.  1.
     999902    2    1    2    0    0  0.51346036594E-02 -0.22864424893E-01 -0.66898229772E-02  0.10195599403E+01  0.10192686456E+01 0.  0.
     999903    2    3    3    0    0  0.61932914770E-01  0.32069157910E-03  0.11193251265E+00  0.12948418153E+00  0.20036893516E-01 0.  0.
         14    1    1    2    0    0 -0.51346036594E-02  0.22864424893E-01  0.66898229772E-02  0.24370059743E-01  0.00000000000E+00 0. -1.
     999901    1    3    3    0    0 -0.56798311111E-01 -0.23185116472E-01 -0.11862233563E+00  0.89007575873E+00  0.88000000000E+00 0.  1.
        -11    1    4    4    0    0  0.30543725376E-01  0.51159874753E-02  0.72602335231E-01  0.78933216644E-01  0.51100000000E-03 0.  1.
         11    1    4    4    0    0  0.31389189394E-01 -0.47952958962E-02  0.39330177420E-01  0.50550964882E-01  0.51100000000E-03 0. -1.
</event>
<event>
 8    1  0.1022673E+005  0.1043930E+01  0.7957747E-01            NaN
         13   -1    0    0    0    0  0.00000000000E+00  0.00000000000E+00  0.74505805969E-08  0.10566000000E+00  0.10566000000E+00 0. -1.
     999900   -1    0    0    0    0 -0.00000000000E+00 -0.00000000000E+00 -0.74505805969E-08  0.93827000000E+00  0.93827000000E+00 0.  1.
     999902    2    1    2    0    0 -0.22657999832E-01  0.12304691195E-02 -0.59437477321E-02  0.10204730789E+01  0.10202034491E+01 0.  0.
     999903    2    3    3    0    0  0.59317306388E-01  0.76370170943E-01 -0.84566981429E-01  0.12999706097E+00  0.19917722417E-01 0.  0.
         14    1    1    2    0    0  0.22657999832E-01 -0.12304691195E-02  0.59437477321E-02  0.23456921105E-01  0.00000000000E+00 0.  1.
     999901    1    3    3    0    0 -0.81975306220E-01 -0.75139701824E-01  0.78623233696E-01  0.89047601792E+00  0.88000000000E+00 0. -1.
        -11    1    4    4    0    0  0.11889611763E-01  0.27255981100E-01 -0.18725497317E-01  0.35144796832E-01  0.51100000000E-03 0.  1.
         11    1    4    4    0    0  0.47427694624E-01  0.49114189843E-01 -0.65841484111E-01  0.94852264139E-01  0.51100000000E-03 0. -1.
</event>
<event>
 8    1  0.1022673E+005  0.1043930E+01  0.7957747E-01            NaN
         13   -1    0    0    0    0  0.00000000000E+00  0.00000000000E+00  0.74505805969E-08  0.10566000000E+00  0.10566000000E+00 0. -1.
     999900   -1    0    0    0    0 -0.00000000000E+00 -0.00000000000E+00 -0.74505805969E-08  0.93827000000E+00  0.93827000000E+00 0.  1.
     999902    2    1    2    0    0  0.14996139210E-01  0.13431231147E-01  0.10928732253E-01  0.10210232466E+01  0.10207662567E+01 0.  0.
     999903    2    3    3    0    0 -0.12711799326E+00  0.13024040733E-01 -0.53638000222E-02  0.12947288963E+00  0.20145693136E-01 0.  0.
         14    1    1    2    0    0 -0.14996139210E-01 -0.13431231147E-01 -0.10928732253E-01  0.22906753371E-01  0.00000000000E+00 0.  1.
     999901    1    3    3    0    0  0.14211413247E+00  0.40719041375E-03  0.16292532275E-01  0.89155035700E+00  0.88000000000E+00 0. -1.
        -11    1    4    4    0    0 -0.32542282886E-01  0.68107617216E-02  0.67237099759E-02  0.33924269300E-01  0.51100000000E-03 0. -1.
         11    1    4    4    0    0 -0.94575710373E-01  0.62132790115E-02 -0.12087509998E-01  0.95548620333E-01  0.51100000000E-03 0.  1.
</event>
<event>
 8    1  0.1022673E+005  0.1043930E+01  0.7957747E-01            NaN
         13   -1    0    0    0    0  0.00000000000E+00  0.00000000000E+00  0.74505805969E-08  0.10566000000E+00  0.10566000000E+00 0. -1.
     999900   -1    0    0    0    0 -0.00000000000E+00 -0.00000000000E+00 -0.74505805969E-08  0.93827000000E+00  0.93827000000E+00 0. -1.
     999902    2    1    2    0    0  0.19553748860E-01 -0.17683759770E-01  0.62634880748E-02  0.10168321083E+01  0.10164709738E+01 0.  0.
     999903    2    3    3    0    0 -0.10192258091E-01 -0.39042647462E-01 -0.11894410622E+00  0.12721535443E+00  0.20194938775E-01 0.  0.
         14    1    1    2    0    0 -0.19553748860E-01  0.17683759770E-01 -0.62634880748E-02  0.27097891744E-01  0.00000000000E+00 0.  1.
     999901    1    3    3    0    0  0.29746006952E-01  0.21358887692E-01  0.12520759430E+00  0.88961675382E+00  0.88000000000E+00 0.  1.
        -11    1    4    4    0    0 -0.27647622595E-02 -0.28741872585E-01 -0.56077023647E-01  0.63076404876E-01  0.51100000000E-03 0. -1.
         11    1    4    4    0    0 -0.74274958320E-02 -0.10300774877E-01 -0.62867082578E-01  0.64138949557E-01  0.51100000000E-03 0.  1.
</event>
<event>
 8    1  0.1022673E+005  0.1043930E+01  0.7957747E-01            NaN
         13   -1    0    0    0    0  0.00000000000E+00  0.00000000000E+00  0.74505805969E-08  0.10566000000E+00  0.10566000000E+00 0. -1.
     999900   -1    0    0    0    0 -0.00000000000E+00 -0.00000000000E+00 -0.74505805969E-08  0.93827000000E+00  0.93827000000E+00 0.  1.
     999902    2    1    2    0    0 -0.12504310408E-02 -0.23140613646E-01  0.94812604725E-03  0.10207362396E+01  0.10204726946E+01 0.  0.
     999903    2    3    3    0    0 -0.53666452003E-01  0.10135687235E+00 -0.54334615927E-01  0.12871424166E+00  0.21489575998E-01 0.  0.
         14    1    1    2    0    0  0.12504310408E-02  0.23140613646E-01 -0.94812604725E-03  0.23193760383E-01  0.00000000000E+00 0.  1.
     999901    1    3    3    0    0  0.52416020962E-01 -0.12449748599E+00  0.55282741975E-01  0.89202199795E+00  0.88000000000E+00 0. -1.
        -11    1    4    4    0    0 -0.33595704007E-01  0.50833328585E-01 -0.18814102377E-01  0.63772487736E-01  0.51100000000E-03 0. -1.
         11    1    4    4    0    0 -0.20070747996E-01  0.50523543762E-01 -0.35520513550E-01  0.64941753928E-01  0.51100000000E-03 0.  1.
</event>
<event>
 8    1  0.1022673E+005  0.1043930E+01  0.7957747E-01            NaN
         13   -1    0    0    0    0  0.00000000000E+00  0.00000000000E+00  0.74505805969E-08  0.10566000000E+00  0.10566000000E+00 0.  1.
     999900   -1    0    0    0    0 -0.00000000000E+00 -0.00000000000E+00 -0.74505805969E-08  0.93827000000E+00  0.93827000000E+00 0.  1.
     999902    2    1    2    0    0 -0.39214964803E-02 -0.23746317113E-01  0.29254270095E-02  0.10196849214E+01  0.10193966427E+01 0.  0.
     999903    2    3    3    0    0  0.11238226885E+00 -0.61536823702E-01  0.18367744228E-01  0.13109437829E+00  0.20779965519E-01 0.  0.
         14    1    1    2    0    0  0.39214964803E-02  0.23746317113E-01 -0.29254270095E-02  0.24245078557E-01  0.00000000000E+00 0. -1.
     999901    1    3    3    0    0 -0.11630376534E+00  0.37790506589E-01 -0.15442317218E-01  0.88859054315E+00  0.88000000000E+00 0.  1.
        -11    1    4    4    0    0  0.85608576451E-01 -0.49354955068E-01  0.22607869465E-01  0.10137118345E+00  0.51100000000E-03 0.  1.
         11    1    4    4    0    0  0.26773692404E-01 -0.12181868634E-01 -0.42401252375E-02  0.29723194838E-01  0.51100000000E-03 0. -1.
</event>
<event>
 8    1  0.1022673E+005  0.1043930E+01  0.7957747E-01            NaN
         13   -1    0    0    0    0  0.00000000000E+00  0.00000000000E+00  0.74505805969E-08  0.10566000000E+00  0.10566000000E+00 0. -1.
     999900   -1    0    0    0    0 -0.00000000000E+00 -0.00000000000E+00 -0.74505805969E-08  0.93827000000E+00  0.93827000000E+00 0. -1.
     999902    2    1    2    0    0 -0.12167349638E-01  0.18955647986E-01  0.47488028750E-02  0.10209101799E+01  0.10206506177E+01 0.  0.
     999903    2    3    3    0    0  0.10702089041E+00 -0.16114797359E-01  0.69073375986E-01  0.12985831644E+00  0.19465184356E-01 0.  0.
         14    1    1    2    0    0  0.12167349638E-01 -0.18955647986E-01 -0.47488028750E-02  0.23019820080E-01  0.00000000000E+00 0.  1.
     999901    1    3    3    0    0 -0.11918824004E+00  0.35070445344E-01 -0.64324573111E-01  0.89105186348E+00  0.88000000000E+00 0. -1.
        -11    1    4    4    0    0  0.20397676627E-01  0.43730227168E-02  0.11183504715E-01  0.23675312842E-01  0.51100000000E-03 0. -1.
         11    1    4    4    0    0  0.86623213778E-01 -0.20487820075E-01  0.57889871271E-01  0.10618300360E+00  0.51100000000E-03 0.  1.
</event>
<event>
 8    1  0.1022673E+005  0.1043930E+01  0.7957747E-01            NaN
         13   -1    0    0    0    0  0.00000000000E+00  0.00000000000E+00  0.74505805969E-08  0.10566000000E+00  0.10566000000E+00 0.  1.
     999900   -1    0    0    0    0 -0.00000000000E+00 -0.00000000000E+00 -0.74505805969E-08  0.93827000000E+00  0.93827000000E+00 0.  1.
     999902    2    1    2    0    0  0.61615309177E-02  0.19980833142E-01 -0.10113810220E-01  0.10207031338E+01  0.10204388272E+01 0.  0.
     999903    2    3    3    0    0 -0.11542985210E+00 -0.56292371003E-01  0.26211138277E-03  0.12901387972E+00  0.12313840497E-01 0.  0.
         14    1    1    2    0    0 -0.61615309177E-02 -0.19980833142E-01  0.10113810220E-01  0.23226866200E-01  0.00000000000E+00 0.  1.
     999901    1    3    3    0    0  0.12159138302E+00  0.76273204145E-01 -0.10375921603E-01  0.89168925408E+00  0.88000000000E+00 0. -1.
        -11    1    4    4    0    0 -0.24721273187E-01 -0.17436820026E-01 -0.18111944464E-02  0.30310486419E-01  0.51100000000E-03 0.  1.
         11    1    4    4    0    0 -0.90708578917E-01 -0.38855550976E-01  0.20733058292E-02  0.98703393299E-01  0.51100000000E-03 0. -1.
</event>
<event>
 8    1  0.1022673E+005  0.1043930E+01  0.7957747E-01            NaN
         13   -1    0    0    0    0  0.00000000000E+00  0.00000000000E+00  0.74505805969E-08  0.10566000000E+00  0.10566000000E+00 0.  1.
     999900   -1    0    0    0    0 -0.00000000000E+00 -0.00000000000E+00 -0.74505805969E-08  0.93827000000E+00  0.93827000000E+00 0. -1.
     999902    2    1    2    0    0 -0.12696037255E-01  0.16360284296E-02  0.17628807153E-01  0.10221437476E+01  0.10219115422E+01 0.  0.
     999903    2    3    3    0    0 -0.10562656807E+00  0.58224280382E-01 -0.51990308901E-01  0.13271407916E+00  0.19052450762E-01 0.  0.
         14    1    1    2    0    0  0.12696037255E-01 -0.16360284296E-02 -0.17628807153E-01  0.21786252377E-01  0.00000000000E+00 0. -1.
     999901    1    3    3    0    0  0.92930530817E-01 -0.56588251953E-01  0.69619116054E-01  0.88942966846E+00  0.88000000000E+00 0.  1.
        -11    1    4    4    0    0 -0.67618246031E-01  0.28917033042E-01 -0.37642824819E-01  0.82617585160E-01  0.51100000000E-03 0.  1.
         11    1    4    4    0    0 -0.38008322040E-01  0.29307247340E-01 -0.14347484081E-01  0.50096494003E-01  0.51100000000E-03 0. -1.
</event>
<event>
 8    1  0.1022673E+005  0.1043930E+01  0.7957747E-01            NaN
         13   -1    0    0    0    0  0.00000000000E+00  0.00000000000E+00  0.74505805969E-08  0.10566000000E+00  0.10566000000E+00 0. -1.
     999900   -1    0    0    0    0 -0.00000000000E+00 -0.00000000000E+00 -0.74505805969E-08  0.93827000000E+00  0.93827000000E+00 0. -1.
     999902    2    1    2    0    0 -0.13921885239E-02 -0.11990399278E-01  0.20452977646E-01  0.10201806388E+01  0.10199041639E+01 0.  0.
     999903    2    3    3    0    0  0.78567757098E-01 -0.79181870582E-01 -0.63750979903E-01  0.13001290561E+00  0.19912486063E-01 0.  0.
         14    1    1    2    0    0  0.13921885239E-02  0.11990399278E-01 -0.20452977646E-01  0.23749361219E-01  0.00000000000E+00 0.  1.
     999901    1    3    3    0    0 -0.79959945621E-01  0.67191471304E-01  0.84203957549E-01  0.89016773318E+00  0.88000000000E+00 0.  1.
        -11    1    4    4    0    0  0.20821432946E-01 -0.25496999979E-01 -0.28895697691E-01  0.43804697738E-01  0.51100000000E-03 0. -1.
         11    1    4    4    0    0  0.57746324152E-01 -0.53684870603E-01 -0.34855282212E-01  0.86208207868E-01  0.51100000000E-03 0.  1.
</event>
<event>
 8    1  0.1022673E+005  0.1043930E+01  0.7957747E-01            NaN
         13   -1    0    0    0    0  0.00000000000E+00  0.00000000000E+00  0.74505805969E-08  0.10566000000E+00  0.10566000000E+00 0.  1.
     999900   -1    0    0    0    0 -0.00000000000E+00 -0.00000000000E+00 -0.74505805969E-08  0.93827000000E+00  0.93827000000E+00 0. -1.
     999902    2    1    2    0    0  0.17347721271E-02 -0.53332438211E-02 -0.23381416652E-01  0.10198853838E+01  0.10196019088E+01 0.  0.
     999903    2    3    3    0    0 -0.22130056287E-01  0.11279762532E+00 -0.59926433172E-01  0.13091970925E+00  0.18323460573E-01 0.  0.
         14    1    1    2    0    0 -0.17347721271E-02  0.53332438211E-02  0.23381416652E-01  0.24044616209E-01  0.00000000000E+00 0.  1.
     999901    1    3    3    0    0  0.23864828414E-01 -0.11813086914E+00  0.36545016520E-01  0.88896567454E+00  0.88000000000E+00 0.  1.
        -11    1    4    4    0    0 -0.21732687214E-01  0.78831767827E-01 -0.48512852946E-01  0.95081624587E-01  0.51100000000E-03 0.  1.
         11    1    4    4    0    0 -0.39736907319E-03  0.33965857497E-01 -0.11413580226E-01  0.35838084662E-01  0.51100000000E-03 0. -1.
</event>
<event>
 8    1  0.1022673E+005  0.1043930E+01  0.7957747E-01            NaN
         13   -1    0    0    0    0  0.00000000000E+00  0.00000000000E+00  0.74505805969E-08  0.10566000000E+00  0.10566000000E+00 0. -1.
     999900   -1    0    0    0    0 -0.00000000000E+00 -0.00000000000E+00 -0.74505805969E-08  0.93827000000E+00  0.93827000000E+00 0. -1.
     999902    2    1    2    0    0 -0.20997963459E-01 -0.93618965958E-02  0.18683976900E-02  0.10208637804E+01  0.10206031587E+01 0.  0.
     999903    2    3    3    0    0 -0.19968476952E-01  0.99578180957E-01  0.79682920402E-01  0.13073789025E+00  0.20699612316E-01 0.  0.
         14    1    1    2    0    0  0.20997963459E-01  0.93618965958E-02 -0.18683976900E-02  0.23066219613E-01  0.00000000000E+00 0. -1.
     999901    1    3    3    0    0 -0.10294865068E-02 -0.10894007755E+00 -0.77814522712E-01  0.89012589013E+00  0.88000000000E+00 0.  1.
        -11    1    4    4    0    0 -0.31725874222E-02  0.61534414313E-01  0.41599024219E-01  0.74345742264E-01  0.51100000000E-03 0.  1.
         11    1    4    4    0    0 -0.16795889530E-01  0.38043766643E-01  0.38083896183E-01  0.56392147991E-01  0.51100000000E-03 0. -1.
</event>
<event>
 8    1  0.1022673E+005  0.1043930E+01  0.7957747E-01            NaN
         13   -1    0    0    0    0  0.00000000000E+00  0.00000000000E+00  0.74505805969E-08  0.10566000000E+00  0.10566000000E+00 0.  1.
     999900   -1    0    0    0    0 -0.00000000000E+00 -0.00000000000E+00 -0.74505805969E-08  0.93827000000E+00  0.93827000000E+00 0. -1.
     999902    2    1    2    0    0 -0.27804248276E-02 -0.10312951895E-01  0.20537140812E-01  0.10207813091E+01  0.10205187990E+01 0.  0.
     999903    2    3    3    0    0  0.12975831132E-01 -0.94696995952E-01 -0.85711306061E-01  0.13024346094E+00  0.21932576111E-01 0.  0.
         14    1    1    2    0    0  0.27804248276E-02  0.10312951895E-01 -0.20537140812E-01  0.23148690929E-01  0.00000000000E+00 0.  1.
     999901    1    3    3    0    0 -0.15756255959E-01  0.84384044057E-01  0.10624844687E+00  0.89053784813E+00  0.88000000000E+00 0.  1.
        -11    1    4    4    0    0  0.13017988793E-01 -0.47458174126E-01 -0.31952328364E-01  0.58676730758E-01  0.51100000000E-03 0. -1.
         11    1    4    4    0    0 -0.42157660762E-04 -0.47238821825E-01 -0.53758977697E-01  0.71566730180E-01  0.51100000000E-03 0.  1.
</event>
<event>
 8    1  0.1022673E+005  0.1043930E+01  0.7957747E-01            NaN
         13   -1    0    0    0    0  0.00000000000E+00  0.00000000000E+00  0.74505805969E-08  0.10566000000E+00  0.10566000000E+00 0.  1.
     999900   -1    0    0    0    0 -0.00000000000E+00 -0.00000000000E+00 -0.74505805969E-08  0.93827000000E+00  0.93827000000E+00 0. -1.
     999902    2    1    2    0    0  0.21149094078E-02 -0.22233978744E-01 -0.92331681292E-02  0.10197623761E+01  0.10194759583E+01 0.  0.
     999903    2    3    3    0    0  0.25641610999E-01 -0.12791240200E+00 -0.19408631001E-01  0.13306909490E+00  0.17652599251E-01 0.  0.
         14    1    1    2    0    0 -0.21149094078E-02  0.22233978744E-01  0.92331681292E-02  0.24167623928E-01  0.00000000000E+00 0. -1.
     999901    1    3    3    0    0 -0.23526701591E-01  0.10567842326E+00  0.10175462872E-01  0.88669328117E+00  0.88000000000E+00 0.  1.
        -11    1    4    4    0    0  0.25520595439E-01 -0.85673419911E-01 -0.13892350980E-01  0.90468194453E-01  0.51100000000E-03 0. -1.
         11    1    4    4    0    0  0.12101555959E-03 -0.42238982089E-01 -0.55162800206E-02  0.42600900448E-01  0.51100000000E-03 0.  1.
</event>
<event>
 8    1  0.1022673E+005  0.1043930E+01  0.7957747E-01            NaN
         13   -1    0    0    0    0  0.00000000000E+00  0.00000000000E+00  0.74505805969E-08  0.10566000000E+00  0.10566000000E+00 0. -1.
     999900   -1    0    0    0    0 -0.00000000000E+00 -0.00000000000E+00 -0.74505805969E-08  0.93827000000E+00  0.93827000000E+00 0.  1.
     999902    2    1    2    0    0  0.28373313710E-01 -0.62101624851E-03 -0.12072238941E-01  0.10130889633E+01  0.10126194142E+01 0.  0.
     999903    2    3    3    0    0 -0.15375800584E-01  0.11990570422E+00 -0.17519631569E-01  0.12378004653E+00  0.20019222797E-01 0.  0.
         14    1    1    2    0    0 -0.28373313710E-01  0.62101624851E-03  0.12072238941E-01  0.30841036707E-01  0.00000000000E+00 0. -1.
     999901    1    3    3    0    0  0.43749114294E-01 -0.12052672047E+00  0.54473926282E-02  0.88930891676E+00  0.88000000000E+00 0.  1.
        -11    1    4    4    0    0 -0.62416179278E-02  0.76264528867E-01 -0.19364660776E-02  0.76545719538E-01  0.51100000000E-03 0. -1.
         11    1    4    4    0    0 -0.91341826558E-02  0.43641175350E-01 -0.15583165492E-01  0.47234326993E-01  0.51100000000E-03 0.  1.
</event>
<event>
 8    1  0.1022673E+005  0.1043930E+01  0.7957747E-01            NaN
         13   -1    0    0    0    0  0.00000000000E+00  0.00000000000E+00  0.74505805969E-08  0.10566000000E+00  0.10566000000E+00 0.  1.
     999900   -1    0    0    0    0 -0.00000000000E+00 -0.00000000000E+00 -0.74505805969E-08  0.93827000000E+00  0.93827000000E+00 0.  1.
     999902    2    1    2    0    0 -0.23365633065E-01  0.23239701002E-02 -0.54123979997E-02  0.10198333675E+01  0.10195486500E+01 0.  0.
     999903    2    3    3    0    0 -0.60816274988E-01 -0.10330045264E+00  0.47628016121E-01  0.13114199543E+00  0.23668380339E-01 0.  0.
         14    1    1    2    0    0  0.23365633065E-01 -0.23239701002E-02  0.54123979997E-02  0.24096632496E-01  0.00000000000E+00 0.  1.
     999901    1    3    3    0    0  0.37450641923E-01  0.10562442274E+00 -0.53040414121E-01  0.88869137207E+00  0.88000000000E+00 0. -1.
        -11    1    4    4    0    0 -0.16161770268E-01 -0.16295471822E-01  0.14803285711E-02  0.23004297724E-01  0.51100000000E-03 0.  1.
         11    1    4    4    0    0 -0.44654504720E-01 -0.87004980818E-01  0.46147687550E-01  0.10813769771E+00  0.51100000000E-03 0. -1.
</event>
<event>
 8    1  0.1173875E+005  0.1043930E+01  0.7957747E-01            NaN
         13   -1    0    0    0    0  0.00000000000E+00  0.00000000000E+00  0.74505805969E-08  0.10566000000E+00  0.10566000000E+00 0. -1.
     999900   -1    0    0    0    0 -0.00000000000E+00 -0.00000000000E+00 -0.74505805969E-08  0.93827000000E+00  0.93827000000E+00 0. -1.
     999902    2    1    2    0    0  0.19518253612E-01 -0.59605302679E-02 -0.12241072425E-01  0.10201322270E+01  0.10198546105E+01 0.  0.
     999903    2    3    3    0    0  0.89303771251E-01 -0.83570167522E-01 -0.49639887712E-01  0.13317566345E+00  0.17677738057E-01 0.  0.
         14    1    1    2    0    0 -0.19518253612E-01  0.59605302679E-02  0.12241072425E-01  0.23797772989E-01  0.00000000000E+00 0.  1.
     999901    1    3    3    0    0 -0.69785517640E-01  0.77609637254E-01  0.37398815288E-01  0.88695656357E+00  0.88000000000E+00 0. -1.
        -11    1    4    4    0    0  0.39001872920E-01 -0.40581735977E-01 -0.13935591136E-01  0.57986939973E-01  0.51100000000E-03 0.  1.
         11    1    4    4    0    0  0.50301898332E-01 -0.42988431545E-01 -0.35704296576E-01  0.75188723473E-01  0.51100000000E-03 0. -1.
</event>
<event>
 8    1  0.1022673E+005  0.1043930E+01  0.7957747E-01            NaN
         13   -1    0    0    0    0  0.00000000000E+00  0.00000000000E+00  0.74505805969E-08  0.10566000000E+00  0.10566000000E+00 0.  1.
     999900   -1    0    0    0    0 -0.00000000000E+00 -0.00000000000E+00 -0.74505805969E-08  0.93827000000E+00  0.93827000000E+00 0. -1.
     999902    2    1    2    0    0 -0.19128126182E-01  0.10883275239E-01 -0.97690761928E-02  0.10198516749E+01  0.10195673950E+01 0.  0.
     999903    2    3    3    0    0  0.98181767980E-01  0.66745343950E-01 -0.47769036856E-01  0.12949995842E+00  0.19843332515E-01 0.  0.
         14    1    1    2    0    0  0.19128126182E-01 -0.10883275239E-01  0.97690761928E-02  0.24078325125E-01  0.00000000000E+00 0.  1.
     999901    1    3    3    0    0 -0.11730989416E+00 -0.55862068712E-01  0.37999960663E-01  0.89035171646E+00  0.88000000000E+00 0.  1.
        -11    1    4    4    0    0  0.31530763834E-01  0.13742115628E-01 -0.20680217274E-01  0.40136857344E-01  0.51100000000E-03 0. -1.
         11    1    4    4    0    0  0.66651004146E-01  0.53003228323E-01 -0.27088819581E-01  0.89363101074E-01  0.51100000000E-03 0.  1.
</event>
<event>
 8    1  0.1022673E+005  0.1043930E+01  0.7957747E-01            NaN
         13   -1    0    0    0    0  0.00000000000E+00  0.00000000000E+00  0.74505805969E-08  0.10566000000E+00  0.10566000000E+00 0.  1.
     999900   -1    0    0    0    0 -0.00000000000E+00 -0.00000000000E+00 -0.74505805969E-08  0.93827000000E+00  0.93827000000E+00 0. -1.
     999902    2    1    2    0    0 -0.11945473234E-01 -0.16338922439E-01  0.11848205445E-01  0.10204771816E+01  0.10202076473E+01 0.  0.
     999903    2    3    3    0    0 -0.10609248492E+00 -0.73394445798E-01 -0.24390748648E-01  0.13287802979E+00  0.20476868663E-01 0.  0.
         14    1    1    2    0    0  0.11945473234E-01  0.16338922439E-01 -0.11848205445E-01  0.23452818371E-01  0.00000000000E+00 0. -1.
     999901    1    3    3    0    0  0.94147011686E-01  0.57055523358E-01  0.36238954094E-01  0.88759915184E+00  0.88000000000E+00 0.  1.
        -11    1    4    4    0    0 -0.52941443252E-01 -0.32998564637E-01 -0.21735516798E-01  0.66063571605E-01  0.51100000000E-03 0. -1.
         11    1    4    4    0    0 -0.53151041668E-01 -0.40395881160E-01 -0.26552318509E-02  0.66814458183E-01  0.51100000000E-03 0.  1.
</event>
<event>
 8    1  0.1022673E+005  0.1043930E+01  0.7957747E-01            NaN
         13   -1    0    0    0    0  0.00000000000E+00  0.00000000000E+00  0.74505805969E-08  0.10566000000E+00  0.10566000000E+00 0.  1.
     999900   -1    0    0    0    0 -0.00000000000E+00 -0.00000000000E+00 -0.74505805969E-08  0.93827000000E+00  0.93827000000E+00 0. -1.
     999902    2    1    2    0    0 -0.10826595889E-01 -0.18938177063E-01 -0.11470622626E-01  0.10192836024E+01  0.10189855825E+01 0.  0.
     999903    2    3    3    0    0 -0.80169370654E-01  0.53460401891E-01 -0.85487089177E-01  0.13050443304E+00  0.20933754222E-01 0.  0.
         14    1    1    2    0    0  0.10826595889E-01  0.18938177063E-01  0.11470622626E-01  0.24646397555E-01  0.00000000000E+00 0.  1.
     999901    1    3    3    0    0  0.69342774765E-01 -0.72398578955E-01  0.74016466550E-01  0.88877916940E+00  0.88000000000E+00 0. -1.
        -11    1    4    4    0    0 -0.15819011594E-01  0.21347066984E-01 -0.20341099705E-01  0.33465801273E-01  0.51100000000E-03 0.  1.
         11    1    4    4    0    0 -0.64350359060E-01  0.32113334907E-01 -0.65145989472E-01  0.97038631767E-01  0.51100000000E-03 0. -1.
</event>
<event>
 8    1  0.1022673E+005  0.1043930E+01  0.7957747E-01            NaN
         13   -1    0    0    0    0  0.00000000000E+00  0.00000000000E+00  0.74505805969E-08  0.10566000000E+00  0.10566000000E+00 0. -1.
     999900   -1    0    0    0    0 -0.00000000000E+00 -0.00000000000E+00 -0.74505805969E-08  0.93827000000E+00  0.93827000000E+00 0.  1.
     999902    2    1    2    0    0 -0.10007835519E-01  0.19376757542E-02  0.22032444514E-01  0.10196536747E+01  0.10193646435E+01 0.  0.
     999903    2    3    3    0    0  0.10484825930E+00  0.72349084667E-01 -0.90965865891E-03  0.12910551254E+00  0.20972800458E-01 0.  0.
         14    1    1    2    0    0  0.10007835519E-01 -0.19376757542E-02 -0.22032444514E-01  0.24276325306E-01  0.00000000000E+00 0.  1.
     999901    1    3    3    0    0 -0.11485609482E+00 -0.70411408913E-01  0.22942103173E-01  0.89054816216E+00  0.88000000000E+00 0.  1.
        -11    1    4    4    0    0  0.18568394871E-01  0.23376025347E-01  0.10295539544E-02  0.29875490816E-01  0.51100000000E-03 0.  1.
         11    1    4    4    0    0  0.86279864425E-01  0.48973059320E-01 -0.19392126133E-02  0.99230021722E-01  0.51100000000E-03 0. -1.
</event>
<event>
 8    1  0.1022673E+005  0.1043930E+01  0.7957747E-01            NaN
         13   -1    0    0    0    0  0.00000000000E+00  0.00000000000E+00  0.74505805969E-08  0.10566000000E+00  0.10566000000E+00 0. -1.
     999900   -1    0    0    0    0 -0.00000000000E+00 -0.00000000000E+00 -0.74505805969E-08  0.93827000000E+00  0.93827000000E+00 0.  1.
     999902    2    1    2    0    0  0.22876440595E-01 -0.15307664781E-02 -0.47488882884E-02  0.10205157582E+01  0.10202471200E+01 0.  0.
     999903    2    3    3    0    0 -0.48215730230E-01 -0.10874002613E+00 -0.48858498091E-01  0.13007003845E+00  0.19542572554E-01 0.  0.
         14    1    1    2    0    0 -0.22876440595E-01  0.15307664781E-02  0.47488882884E-02  0.23414241826E-01  0.00000000000E+00 0.  1.
     999901    1    3    3    0    0  0.71092170825E-01  0.10720925965E+00  0.44109609802E-01  0.89044571973E+00  0.88000000000E+00 0. -1.
        -11    1    4    4    0    0 -0.23355680312E-01 -0.38424939896E-01 -0.26554866638E-01  0.52224380054E-01  0.51100000000E-03 0. -1.
         11    1    4    4    0    0 -0.24860049918E-01 -0.70315086229E-01 -0.22303631453E-01  0.77845658391E-01  0.51100000000E-03 0.  1.
</event>
<event>
 8    1  0.1022673E+005  0.1043930E+01  0.7957747E-01            NaN
         13   -1    0    0    0    0  0.00000000000E+00  0.00000000000E+00  0.74505805969E-08  0.10566000000E+00  0.10566000000E+00 0.  1.
     999900   -1    0    0    0    0 -0.00000000000E+00 -0.00000000000E+00 -0.74505805969E-08  0.93827000000E+00  0.93827000000E+00 0.  1.
     999902    2    1    2    0    0 -0.11276731484E-01 -0.18369412214E-01 -0.89797666000E-02  0.10205797069E+01  0.10203125511E+01 0.  0.
     999903    2    3    3    0    0  0.11243742920E+00  0.58440983759E-01 -0.91282783752E-02  0.12861274985E+00  0.20009744826E-01 0.  0.
         14    1    1    2    0    0  0.11276731484E-01  0.18369412214E-01  0.89797666000E-02  0.23350293065E-01  0.00000000000E+00 0. -1.
     999901    1    3    3    0    0 -0.12371416069E+00 -0.76810395972E-01  0.14851177514E-03  0.89196695709E+00  0.88000000000E+00 0. -1.
        -11    1    4    4    0    0  0.24605291339E-01  0.21811578617E-01 -0.57748775356E-02  0.33388256247E-01  0.51100000000E-03 0.  1.
         11    1    4    4    0    0  0.87832137864E-01  0.36629405142E-01 -0.33534008396E-02  0.95224493598E-01  0.51100000000E-03 0. -1.
</event>
<event>
 8    1  0.1022673E+005  0.1043930E+01  0.7957747E-01            NaN
         13   -1    0    0    0    0  0.00000000000E+00  0.00000000000E+00  0.74505805969E-08  0.10566000000E+00  0.10566000000E+00 0.  1.
     999900   -1    0    0    0    0 -0.00000000000E+00 -0.00000000000E+00 -0.74505805969E-08  0.93827000000E+00  0.93827000000E+00 0.  1.
     999902    2    1    2    0    0 -0.15637266069E-01 -0.54166897926E-02  0.16810985290E-01  0.10203403021E+01  0.10200675754E+01 0.  0.
     999903    2    3    3    0    0 -0.73348301431E-01  0.10277503569E+00 -0.27553904743E-01  0.13073125513E+00  0.19717051433E-01 0.  0.
         14    1    1    2    0    0  0.15637266069E-01  0.54166897926E-02 -0.16810985290E-01  0.23589697854E-01  0.00000000000E+00 0. -1.
     999901    1    3    3    0    0  0.57711035362E-01 -0.10819172548E+00  0.44364890033E-01  0.88960904702E+00  0.88000000000E+00 0.  1.
        -11    1    4    4    0    0 -0.15444777633E-01  0.24139886202E-01 -0.14765410132E-01  0.32242110963E-01  0.51100000000E-03 0.  1.
         11    1    4    4    0    0 -0.57903523798E-01  0.78635149488E-01 -0.12788494611E-01  0.98489144167E-01  0.51100000000E-03 0. -1.
</event>
<event>
 8    1  0.1022673E+005  0.1043930E+01  0.7957747E-01            NaN
         13   -1    0    0    0    0  0.00000000000E+00  0.00000000000E+00  0.74505805969E-08  0.10566000000E+00  0.10566000000E+00 0. -1.
     999900   -1    0    0    0    0 -0.00000000000E+00 -0.00000000000E+00 -0.74505805969E-08  0.93827000000E+00  0.93827000000E+00 0. -1.
     999902    2    1    2    0    0 -0.93736400568E-02  0.16073313767E-01  0.15010231998E-01  0.10200234401E+01  0.10197432494E+01 0.  0.
     999903    2    3    3    0    0  0.12565054016E+00  0.88183978296E-02  0.24033509289E-01  0.12964959578E+00  0.19120296413E-01 0.  0.
         14    1    1    2    0    0  0.93736400568E-02 -0.16073313767E-01 -0.15010231998E-01  0.23906559937E-01  0.00000000000E+00 0.  1.
     999901    1    3    3    0    0 -0.13502418022E+00  0.72549159372E-02 -0.90232772911E-02  0.89037384428E+00  0.88000000000E+00 0.  1.
        -11    1    4    4    0    0  0.77238576862E-01  0.13463359074E-01  0.10076814205E-01  0.79049750783E-01  0.51100000000E-03 0.  1.
         11    1    4    4    0    0  0.48411963297E-01 -0.46449612445E-02  0.13956695084E-01  0.50599844999E-01  0.51100000000E-03 0. -1.
</event>
<event>
 8    1  0.1022673E+005  0.1043930E+01  0.7957747E-01            NaN
         13   -1    0    0    0    0  0.00000000000E+00  0.00000000000E+00  0.74505805969E-08  0.10566000000E+00  0.10566000000E+00 0.  1.
     999900   -1    0    0    0    0 -0.00000000000E+00 -0.00000000000E+00 -0.74505805969E-08  0.93827000000E+00  0.93827000000E+00 0.  1.
     999902    2    1    2    0    0 -0.17793641716E-01  0.70733487153E-02 -0.14749243357E-01  0.10197600574E+01  0.10194735840E+01 0.  0.
     999903    2    3    3    0    0  0.18937849898E-01 -0.92550205774E-01  0.83795879816E-01  0.12791635111E+00  0.20412267356E-01 0.  0.
         14    1    1    2    0    0  0.17793641716E-01 -0.70733487153E-02  0.14749243357E-01  0.24169942639E-01  0.00000000000E+00 0.  1.
     999901    1    3    3    0    0 -0.36731491614E-01  0.99623554490E-01 -0.98545123173E-01  0.89184370625E+00  0.88000000000E+00 0.  1.
        -11    1    4    4    0    0  0.11253295489E-01 -0.81393858558E-01  0.65152125380E-01  0.10486494854E+00  0.51100000000E-03 0.  1.
         11    1    4    4    0    0  0.76845544091E-02 -0.11156347216E-01  0.18643754436E-01  0.23051402563E-01  0.51100000000E-03 0. -1.
</event>
<event>
 8    1  0.1605926E+005  0.1043930E+01  0.7957747E-01            NaN
         13   -1    0    0    0    0  0.00000000000E+00  0.00000000000E+00  0.74505805969E-08  0.10566000000E+00  0.10566000000E+00 0. -1.
     999900   -1    0    0    0    0 -0.00000000000E+00 -0.00000000000E+00 -0.74505805969E-08  0.93827000000E+00  0.93827000000E+00 0. -1.
     999902    2    1    2    0    0 -0.10029678863E-01 -0.16295320907E-01 -0.97390003941E-02  0.10224595536E+01  0.10222341017E+01 0.  0.
     999903    2    3    3    0    0 -0.83308415182E-01  0.79348546120E-01 -0.64984024462E-01  0.13253285142E+00  0.10273726664E-01 0.  0.
         14    1    1    2    0    0  0.10029678863E-01  0.16295320907E-01  0.97390003941E-02  0.21470446437E-01  0.00000000000E+00 0.  1.
     999901    1    3    3    0    0  0.73278736319E-01 -0.95643867027E-01  0.55245024068E-01  0.88992670214E+00  0.88000000000E+00 0. -1.
        -11    1    4    4    0    0 -0.38388804277E-01  0.34160783608E-01 -0.23557833431E-01  0.56532221498E-01  0.51100000000E-03 0. -1.
         11    1    4    4    0    0 -0.44919610905E-01  0.45187762512E-01 -0.41426191030E-01  0.76000629925E-01  0.51100000000E-03 0.  1.
</event>
<event>
 8    1  0.1022673E+005  0.1043930E+01  0.7957747E-01            NaN
         13   -1    0    0    0    0  0.00000000000E+00  0.00000000000E+00  0.74505805969E-08  0.10566000000E+00  0.10566000000E+00 0.  1.
     999900   -1    0    0    0    0 -0.00000000000E+00 -0.00000000000E+00 -0.74505805969E-08  0.93827000000E+00  0.93827000000E+00 0. -1.
     999902    2    1    2    0    0  0.18941433615E-01 -0.57175835349E-02 -0.12693387656E-01  0.10204227509E+01  0.10201519494E+01 0.  0.
     999903    2    3    3    0    0 -0.10971468757E+00 -0.58597935260E-01  0.26129848038E-01  0.12865149508E+00  0.19935083252E-01 0.  0.
         14    1    1    2    0    0 -0.18941433615E-01  0.57175835349E-02  0.12693387656E-01  0.23507249074E-01  0.00000000000E+00 0.  1.
     999901    1    3    3    0    0  0.12865612118E+00  0.52880351725E-01 -0.38823235693E-01  0.89177125584E+00  0.88000000000E+00 0. -1.
        -11    1    4    4    0    0 -0.53466397488E-01 -0.37285528228E-01  0.20014257304E-01  0.68188693285E-01  0.51100000000E-03 0.  1.
         11    1    4    4    0    0 -0.56248290079E-01 -0.21312407033E-01  0.61155907338E-02  0.60462801799E-01  0.51100000000E-03 0. -1.
</event>
<event>
 8    1  0.1022673E+005  0.1043930E+01  0.7957747E-01            NaN
         13   -1    0    0    0    0  0.00000000000E+00  0.00000000000E+00  0.74505805969E-08  0.10566000000E+00  0.10566000000E+00 0.  1.
     999900   -1    0    0    0    0 -0.00000000000E+00 -0.00000000000E+00 -0.74505805969E-08  0.93827000000E+00  0.93827000000E+00 0. -1.
     999902    2    1    2    0    0  0.15325478507E-01  0.16680318635E-01 -0.63705331465E-02  0.10203994451E+01  0.10201281001E+01 0.  0.
     999903    2    3    3    0    0  0.83664455828E-01 -0.96806069205E-01  0.13137417165E-01  0.13027027685E+00  0.20654227100E-01 0.  0.
         14    1    1    2    0    0 -0.15325478507E-01 -0.16680318635E-01  0.63705331465E-02  0.23530554898E-01  0.00000000000E+00 0. -1.
     999901    1    3    3    0    0 -0.68338977321E-01  0.11348638784E+00 -0.19507950312E-01  0.89012916825E+00  0.88000000000E+00 0.  1.
        -11    1    4    4    0    0  0.26575592468E-01 -0.26303382597E-01 -0.50835750294E-02  0.37739023664E-01  0.51100000000E-03 0. -1.
         11    1    4    4    0    0  0.57088863361E-01 -0.70502686608E-01  0.18220992195E-01  0.92531253187E-01  0.51100000000E-03 0.  1.
</event>
<event>
 8    1  0.1022673E+005  0.1043930E+01  0.7957747E-01            NaN
         13   -1    0    0    0    0  0.00000000000E+00  0.00000000000E+00  0.74505805969E-08  0.10566000000E+00  0.10566000000E+00 0. -1.
     999900   -1    0    0    0    0 -0.00000000000E+00 -0.00000000000E+00 -0.74505805969E-08  0.93827000000E+00  0.93827000000E+00 0.  1.
     999902    2    1    2    0    0 -0.17751310889E-01 -0.13917313373E-01  0.30964393266E-02  0.10211618515E+01  0.10209079970E+01 0.  0.
     999903    2    3    3    0    0  0.10547573540E+00 -0.62504344727E-01  0.37156238532E-01  0.13059704505E+00  0.25358987509E-01 0.  0.
         14    1    1    2    0    0  0.17751310889E-01  0.13917313373E-01 -0.30964393266E-02  0.22768148504E-01  0.00000000000E+00 0.  1.
     999901    1    3    3    0    0 -0.12322704629E+00  0.48587031354E-01 -0.34059799206E-01  0.89056480644E+00  0.88000000000E+00 0. -1.
        -11    1    4    4    0    0  0.72141546126E-01 -0.55727089777E-01  0.26024998939E-01  0.94802283218E-01  0.51100000000E-03 0.  1.
         11    1    4    4    0    0  0.33334189271E-01 -0.67772549502E-02  0.11131239593E-01  0.35794761836E-01  0.51100000000E-03 0. -1.
</event>
<event>
 8    1  0.1022673E+005  0.1043930E+01  0.7957747E-01            NaN
         13   -1    0    0    0    0  0.00000000000E+00  0.00000000000E+00  0.74505805969E-08  0.10566000000E+00  0.10566000000E+00 0. -1.
     999900   -1    0    0    0    0 -0.00000000000E+00 -0.00000000000E+00 -0.74505805969E-08  0.93827000000E+00  0.93827000000E+00 0.  1.
     999902    2    1    2    0    0 -0.49269310153E-02  0.20613426398E-01  0.10654478118E-01  0.10202085772E+01  0.10199327601E+01 0.  0.
     999903    2    3    3    0    0  0.44687982193E-02  0.72893034633E-02  0.13014471346E+00  0.13198353343E+00  0.20221339049E-01 0.  0.
         14    1    1    2    0    0  0.49269310153E-02 -0.20613426398E-01 -0.10654478118E-01  0.23721422830E-01  0.00000000000E+00 0. -1.
     999901    1    3    3    0    0 -0.93957292346E-02  0.13324122935E-01 -0.11949023534E+00  0.88822504374E+00  0.88000000000E+00 0.  1.
        -11    1    4    4    0    0  0.76961352378E-02 -0.49925493806E-02  0.49944267653E-01  0.50782349683E-01  0.51100000000E-03 0. -1.
         11    1    4    4    0    0 -0.32273370184E-02  0.12281852844E-01  0.80200445809E-01  0.81201183750E-01  0.51100000000E-03 0.  1.
</event>
<event>
 8    1  0.1022673E+005  0.1043930E+01  0.7957747E-01            NaN
         13   -1    0    0    0    0  0.00000000000E+00  0.00000000000E+00  0.74505805969E-08  0.10566000000E+00  0.10566000000E+00 0. -1.
     999900   -1    0    0    0    0 -0.00000000000E+00 -0.00000000000E+00 -0.74505805969E-08  0.93827000000E+00  0.93827000000E+00 0.  1.
     999902    2    1    2    0    0 -0.87174173777E-02  0.10679853681E-01 -0.17006776033E-01  0.10220374654E+01  0.10218029642E+01 0.  0.
     999903    2    3    3    0    0  0.10084937580E+00  0.25402003465E-01  0.76118641678E-01  0.13024490696E+00  0.18810364134E-01 0.  0.
         14    1    1    2    0    0  0.87174173777E-02 -0.10679853681E-01  0.17006776033E-01  0.21892534605E-01  0.00000000000E+00 0. -1.
     999901    1    3    3    0    0 -0.10956679318E+00 -0.14722149784E-01 -0.93125417710E-01  0.89179255844E+00  0.88000000000E+00 0.  1.
        -11    1    4    4    0    0  0.71436536130E-01  0.10223862950E-01  0.46692492127E-01  0.85954383308E-01  0.51100000000E-03 0. -1.
         11    1    4    4    0    0  0.29412839668E-01  0.15178140514E-01  0.29426149551E-01  0.44290523650E-01  0.51100000000E-03 0.  1.
</event>
<event>
 8    1  0.1022673E+005  0.1043930E+01  0.7957747E-01            NaN
         13   -1    0    0    0    0  0.00000000000E+00  0.00000000000E+00  0.74505805969E-08  0.10566000000E+00  0.10566000000E+00 0. -1.
     999900   -1    0    0    0    0 -0.00000000000E+00 -0.00000000000E+00 -0.74505805969E-08  0.93827000000E+00  0.93827000000E+00 0. -1.
     999902    2    1    2    0    0 -0.32463467359E-02 -0.12975661958E-01 -0.18861683665E-01  0.10208070746E+01  0.10205451552E+01 0.  0.
     999903    2    3    3    0    0  0.55570140796E-01 -0.10942684748E+00 -0.47621444489E-01  0.13311944130E+00  0.19766339522E-01 0.  0.
         14    1    1    2    0    0  0.32463467359E-02  0.12975661958E-01  0.18861683665E-01  0.23122925444E-01  0.00000000000E+00 0. -1.
     999901    1    3    3    0    0 -0.58816487532E-01  0.96451185526E-01  0.28759760824E-01  0.88768763326E+00  0.88000000000E+00 0. -1.
        -11    1    4    4    0    0  0.26529081832E-01 -0.47787421679E-01 -0.10977434501E-01  0.55751188712E-01  0.51100000000E-03 0.  1.
         11    1    4    4    0    0  0.29041058964E-01 -0.61639425805E-01 -0.36644009988E-01  0.77368252587E-01  0.51100000000E-03 0. -1.
</event>
<event>
 8    1  0.1022673E+005  0.1043930E+01  0.7957747E-01            NaN
         13   -1    0    0    0    0  0.00000000000E+00  0.00000000000E+00  0.74505805969E-08  0.10566000000E+00  0.10566000000E+00 0.  1.
     999900   -1    0    0    0    0 -0.00000000000E+00 -0.00000000000E+00 -0.74505805969E-08  0.93827000000E+00  0.93827000000E+00 0. -1.
     999902    2    1    2    0    0 -0.15385137914E-01  0.13572723269E-01 -0.11512859576E-01  0.10204041159E+01  0.10201328799E+01 0.  0.
     999903    2    3    3    0    0 -0.14879623374E-01 -0.46088995645E-02  0.12692816668E+00  0.12939528056E+00  0.19741681476E-01 0.  0.
         14    1    1    2    0    0  0.15385137914E-01 -0.13572723269E-01  0.11512859576E-01  0.23525884068E-01  0.00000000000E+00 0.  1.
     999901    1    3    3    0    0 -0.50551454019E-03  0.18181622833E-01 -0.13844102626E+00  0.89100883537E+00  0.88000000000E+00 0. -1.
        -11    1    4    4    0    0 -0.50299889356E-02 -0.11864837120E-01  0.66478258113E-01  0.67717760384E-01  0.51100000000E-03 0. -1.
         11    1    4    4    0    0 -0.98496344387E-02  0.72559375558E-02  0.60449908570E-01  0.61677520179E-01  0.51100000000E-03 0.  1.
</event>
<event>
 8    1  0.1022673E+005  0.1043930E+01  0.7957747E-01            NaN
         13   -1    0    0    0    0  0.00000000000E+00  0.00000000000E+00  0.74505805969E-08  0.10566000000E+00  0.10566000000E+00 0.  1.
     999900   -1    0    0    0    0 -0.00000000000E+00 -0.00000000000E+00 -0.74505805969E-08  0.93827000000E+00  0.93827000000E+00 0.  1.
     999902    2    1    2    0    0  0.94575152974E-02  0.20011729565E-01  0.88421917608E-02  0.10200951878E+01  0.10198166963E+01 0.  0.
     999903    2    3    3    0    0  0.91363136139E-01 -0.88725515338E-01 -0.28792497503E-02  0.12955057281E+00  0.23571616828E-01 0.  0.
         14    1    1    2    0    0 -0.94575152974E-02 -0.20011729565E-01 -0.88421917608E-02  0.23834812165E-01  0.00000000000E+00 0. -1.
     999901    1    3    3    0    0 -0.81905620842E-01  0.10873724490E+00  0.11721441511E-01  0.89054461502E+00  0.88000000000E+00 0.  1.
        -11    1    4    4    0    0  0.19282475394E-01 -0.25057299903E-01  0.83957862092E-02  0.32717464493E-01  0.51100000000E-03 0. -1.
         11    1    4    4    0    0  0.72080660745E-01 -0.63668215435E-01 -0.11275035959E-01  0.96833108320E-01  0.51100000000E-03 0.  1.
</event>
<event>
 8    1  0.1022673E+005  0.1043930E+01  0.7957747E-01            NaN
         13   -1    0    0    0    0  0.00000000000E+00  0.00000000000E+00  0.74505805969E-08  0.10566000000E+00  0.10566000000E+00 0.  1.
     999900   -1    0    0    0    0 -0.00000000000E+00 -0.00000000000E+00 -0.74505805969E-08  0.93827000000E+00  0.93827000000E+00 0.  1.
     999902    2    1    2    0    0 -0.19901865283E-01  0.84073550299E-03  0.97507054487E-02  0.10217519177E+01  0.10215111913E+01 0.  0.
     999903    2    3    3    0    0  0.34595919959E-01 -0.16896127310E-01  0.12517261417E+00  0.13236627473E+00  0.19242935131E-01 0.  0.
         14    1    1    2    0    0  0.19901865283E-01 -0.84073550299E-03 -0.97507054487E-02  0.22178082304E-01  0.00000000000E+00 0.  1.
     999901    1    3    3    0    0 -0.54497785243E-01  0.17736862813E-01 -0.11542190872E+00  0.88938564296E+00  0.88000000000E+00 0.  1.
        -11    1    4    4    0    0  0.17373569856E-01 -0.17288802533E-01  0.88720930749E-01  0.92045685921E-01  0.51100000000E-03 0.  1.
         11    1    4    4    0    0  0.17222350104E-01  0.39267522279E-03  0.36451683420E-01  0.40320588811E-01  0.51100000000E-03 0. -1.
</event>
<event>
 8    1  0.1022673E+005  0.1043930E+01  0.7957747E-01            NaN
         13   -1    0    0    0    0  0.00000000000E+00  0.00000000000E+00  0.74505805969E-08  0.10566000000E+00  0.10566000000E+00 0.  1.
     999900   -1    0    0    0    0 -0.00000000000E+00 -0.00000000000E+00 -0.74505805969E-08  0.93827000000E+00  0.93827000000E+00 0. -1.
     999902    2    1    2    0    0  0.17907032498E-02 -0.18292376030E-01  0.15524457909E-01  0.10198711881E+01  0.10195873743E+01 0.  0.
     999903    2    3    3    0    0  0.63858176403E-01 -0.11387943719E+00 -0.56606241753E-02  0.13226876287E+00  0.20410537891E-01 0.  0.
         14    1    1    2    0    0 -0.17907032498E-02  0.18292376030E-01 -0.15524457909E-01  0.24058811948E-01  0.00000000000E+00 0. -1.
     999901    1    3    3    0    0 -0.62067473153E-01  0.95587061161E-01  0.21185082085E-01  0.88760242518E+00  0.88000000000E+00 0.  1.
        -11    1    4    4    0    0  0.30916692846E-02 -0.16686467473E-01 -0.47814463743E-02  0.17638593088E-01  0.51100000000E-03 0.  1.
         11    1    4    4    0    0  0.60766507118E-01 -0.97192969718E-01 -0.87917780101E-03  0.11463016978E+00  0.51100000000E-03 0. -1.
</event>
<event>
 8    1  0.1022673E+005  0.1043930E+01  0.7957747E-01            NaN
         13   -1    0    0    0    0  0.00000000000E+00  0.00000000000E+00  0.74505805969E-08  0.10566000000E+00  0.10566000000E+00 0. -1.
     999900   -1    0    0    0    0 -0.00000000000E+00 -0.00000000000E+00 -0.74505805969E-08  0.93827000000E+00  0.93827000000E+00 0. -1.
     999902    2    1    2    0    0  0.45782574271E-02  0.98896392389E-02 -0.20378396555E-01  0.10208205982E+01  0.10205589886E+01 0.  0.
     999903    2    3    3    0    0  0.79909623200E-01  0.19999785809E-01  0.98311509352E-01  0.12960551558E+00  0.18625184150E-01 0.  0.
         14    1    1    2    0    0 -0.45782574271E-02 -0.98896392389E-02  0.20378396555E-01  0.23109401799E-01  0.00000000000E+00 0. -1.
     999901    1    3    3    0    0 -0.75331365773E-01 -0.10110146570E-01 -0.11868990591E+00  0.89121508262E+00  0.88000000000E+00 0. -1.
        -11    1    4    4    0    0  0.52614832738E-01  0.43861678769E-02  0.57189415017E-01  0.77836041804E-01  0.51100000000E-03 0.  1.
         11    1    4    4    0    0  0.27294790462E-01  0.15613617932E-01  0.41122094334E-01  0.51769473773E-01  0.51100000000E-03 0. -1.
</event>
<event>
 8    1  0.1022673E+005  0.1043930E+01  0.7957747E-01            NaN
         13   -1    0    0    0    0  0.00000000000E+00  0.00000000000E+00  0.74505805969E-08  0.10566000000E+00  0.10566000000E+00 0. -1.
     999900   -1    0    0    0    0 -0.00000000000E+00 -0.00000000000E+00 -0.74505805969E-08  0.93827000000E+00  0.93827000000E+00 0.  1.
     999902    2    1    2    0    0 -0.47045552538E-02  0.83289272375E-02 -0.23019720235E-01  0.10190018755E+01  0.10186969181E+01 0.  0.
     999903    2    3    3    0    0  0.67738750661E-01  0.10378070470E+00 -0.36541516186E-01  0.13077785349E+00  0.20213647625E-01 0.  0.
         14    1    1    2    0    0  0.47045552538E-02 -0.83289272375E-02  0.23019720235E-01  0.24928124453E-01  0.00000000000E+00 0. -1.
     999901    1    3    3    0    0 -0.72443305915E-01 -0.95451777458E-01  0.13521795951E-01  0.88822402206E+00  0.88000000000E+00 0. -1.
        -11    1    4    4    0    0  0.72764764185E-02  0.25534692960E-01 -0.53528672304E-02  0.27090255854E-01  0.51100000000E-03 0. -1.
         11    1    4    4    0    0  0.60462274242E-01  0.78246011735E-01 -0.31188648955E-01  0.10368759764E+00  0.51100000000E-03 0.  1.
</event>
<event>
 8    1  0.1022673E+005  0.1043930E+01  0.7957747E-01            NaN
         13   -1    0    0    0    0  0.00000000000E+00  0.00000000000E+00  0.74505805969E-08  0.10566000000E+00  0.10566000000E+00 0. -1.
     999900   -1    0    0    0    0 -0.00000000000E+00 -0.00000000000E+00 -0.74505805969E-08  0.93827000000E+00  0.93827000000E+00 0. -1.
     999902    2    1    2    0    0  0.54760544496E-03  0.12632591958E-02  0.25143550203E-01  0.10187487806E+01  0.10184375210E+01 0.  0.
     999903    2    3    3    0    0  0.95696283981E-01 -0.18185356467E-01  0.85831940023E-01  0.13132858678E+00  0.19788628531E-01 0.  0.
         14    1    1    2    0    0 -0.54760544496E-03 -0.12632591958E-02 -0.25143550203E-01  0.25181219437E-01  0.00000000000E+00 0.  1.
     999901    1    3    3    0    0 -0.95148678536E-01  0.19448615663E-01 -0.60688389820E-01  0.88742019378E+00  0.88000000000E+00 0. -1.
        -11    1    4    4    0    0  0.67428062103E-01 -0.34697220095E-02  0.57625127223E-01  0.88766541772E-01  0.51100000000E-03 0.  1.
         11    1    4    4    0    0  0.28268221879E-01 -0.14715634458E-01  0.28206812801E-01  0.42562045006E-01  0.51100000000E-03 0. -1.
</event>
<event>
 8    1  0.1022673E+005  0.1043930E+01  0.7957747E-01            NaN
         13   -1    0    0    0    0  0.00000000000E+00  0.00000000000E+00  0.74505805969E-08  0.10566000000E+00  0.10566000000E+00 0. -1.
     999900   -1    0    0    0    0 -0.00000000000E+00 -0.00000000000E+00 -0.74505805969E-08  0.93827000000E+00  0.93827000000E+00 0. -1.
     999902    2    1    2    0    0  0.15542343382E-01  0.15227222606E-01  0.94606371995E-02  0.10202037192E+01  0.10199277877E+01 0.  0.
     999903    2    3    3    0    0  0.67705066507E-01 -0.97266632566E-01  0.51058793780E-01  0.13053736386E+00  0.19703530114E-01 0.  0.
         14    1    1    2    0    0 -0.15542343382E-01 -0.15227222606E-01 -0.94606371995E-02  0.23726280836E-01  0.00000000000E+00 0.  1.
     999901    1    3    3    0    0 -0.52162723124E-01  0.11249385517E+00 -0.41598156581E-01  0.88966635531E+00  0.88000000000E+00 0. -1.
        -11    1    4    4    0    0  0.40654416654E-01 -0.72076803295E-01  0.30198533843E-01  0.88091201229E-01  0.51100000000E-03 0. -1.
         11    1    4    4    0    0  0.27050649853E-01 -0.25189829270E-01  0.20860259938E-01  0.42446162627E-01  0.51100000000E-03 0.  1.
</event>
<event>
 8    1  0.1022673E+005  0.1043930E+01  0.7957747E-01            NaN
         13   -1    0    0    0    0  0.00000000000E+00  0.00000000000E+00  0.74505805969E-08  0.10566000000E+00  0.10566000000E+00 0. -1.
     999900   -1    0    0    0    0 -0.00000000000E+00 -0.00000000000E+00 -0.74505805969E-08  0.93827000000E+00  0.93827000000E+00 0.  1.
     999902    2    1    2    0    0 -0.21773932277E-01  0.81570879282E-03 -0.90008303293E-02  0.10203549188E+01  0.10200825338E+01 0.  0.
     999903    2    3    3    0    0 -0.56426640237E-01 -0.89882138869E-01  0.74360611513E-01  0.13109902776E+00  0.19866804438E-01 0.  0.
         14    1    1    2    0    0  0.21773932277E-01 -0.81570879282E-03  0.90008303293E-02  0.23575081215E-01  0.00000000000E+00 0. -1.
     999901    1    3    3    0    0  0.34652707960E-01  0.90697847662E-01 -0.83361441842E-01  0.88925589103E+00  0.88000000000E+00 0.  1.
        -11    1    4    4    0    0 -0.20103915529E-01 -0.36588557893E-01  0.18073739349E-01  0.45495177364E-01  0.51100000000E-03 0.  1.
         11    1    4    4    0    0 -0.36322724708E-01 -0.53293580976E-01  0.56286872164E-01  0.85603850395E-01  0.51100000000E-03 0. -1.
</event>
<event>
 8    1  0.1022673E+005  0.1043930E+01  0.7957747E-01            NaN
         13   -1    0    0    0    0  0.00000000000E+00  0.00000000000E+00  0.74505805969E-08  0.10566000000E+00  0.10566000000E+00 0. -1.
     999900   -1    0    0    0    0 -0.00000000000E+00 -0.00000000000E+00 -0.74505805969E-08  0.93827000000E+00  0.93827000000E+00 0. -1.
     999902    2    1    2    0    0  0.47876269392E-02  0.22827380952E-01  0.72633271489E-02  0.10195011929E+01  0.10192084751E+01 0.  0.
     999903    2    3    3    0    0 -0.48471055905E-01 -0.11375694088E+00 -0.19778772236E-01  0.12696377670E+00  0.20940771317E-01 0.  0.
         14    1    1    2    0    0 -0.47876269392E-02 -0.22827380952E-01 -0.72633271489E-02  0.24428807054E-01  0.00000000000E+00 0. -1.
     999901    1    3    3    0    0  0.53258682844E-01  0.13658432183E+00  0.27042099385E-01  0.89253741625E+00  0.88000000000E+00 0.  1.
        -11    1    4    4    0    0 -0.25384336358E-01 -0.77142623747E-01 -0.20142991676E-01  0.83674071047E-01  0.51100000000E-03 0.  1.
         11    1    4    4    0    0 -0.23086719547E-01 -0.36614317130E-01  0.36421943947E-03  0.43289705649E-01  0.51100000000E-03 0. -1.
</event>
<event>
 8    1  0.1022673E+005  0.1043930E+01  0.7957747E-01            NaN
         13   -1    0    0    0    0  0.00000000000E+00  0.00000000000E+00  0.74505805969E-08  0.10566000000E+00  0.10566000000E+00 0.  1.
     999900   -1    0    0    0    0 -0.00000000000E+00 -0.00000000000E+00 -0.74505805969E-08  0.93827000000E+00  0.93827000000E+00 0. -1.
     999902    2    1    2    0    0 -0.44987773191E-02  0.22748768927E-01 -0.53454814919E-02  0.10201325283E+01  0.10198549190E+01 0.  0.
     999903    2    3    3    0    0  0.27046771576E-01 -0.11149955321E+00 -0.53485820770E-01  0.12809260439E+00  0.19578152529E-01 0.  0.
         14    1    1    2    0    0  0.44987773191E-02 -0.22748768927E-01  0.53454814919E-02  0.23797471661E-01  0.00000000000E+00 0.  1.
     999901    1    3    3    0    0 -0.31545548895E-01  0.13424832214E+00  0.48140339278E-01  0.89203992395E+00  0.88000000000E+00 0.  1.
        -11    1    4    4    0    0  0.18036586543E-01 -0.94864740406E-01 -0.50368992945E-01  0.10891250616E+00  0.51100000000E-03 0. -1.
         11    1    4    4    0    0  0.90101850330E-02 -0.16634812808E-01 -0.31168278242E-02  0.19180098232E-01  0.51100000000E-03 0.  1.
</event>
<event>
 8    1  0.1022673E+005  0.1043930E+01  0.7957747E-01            NaN
         13   -1    0    0    0    0  0.00000000000E+00  0.00000000000E+00  0.74505805969E-08  0.10566000000E+00  0.10566000000E+00 0. -1.
     999900   -1    0    0    0    0 -0.00000000000E+00 -0.00000000000E+00 -0.74505805969E-08  0.93827000000E+00  0.93827000000E+00 0. -1.
     999902    2    1    2    0    0  0.83647342268E-02 -0.21562217809E-01  0.50939349959E-02  0.10202478086E+01  0.10199729137E+01 0.  0.
     999903    2    3    3    0    0  0.84482806013E-01 -0.24960409805E-01  0.96587169254E-01  0.13222949771E+00  0.19879442448E-01 0.  0.
         14    1    1    2    0    0 -0.83647342268E-02  0.21562217809E-01 -0.50939349959E-02  0.23682191395E-01  0.00000000000E+00 0.  1.
     999901    1    3    3    0    0 -0.76118071786E-01  0.33981919958E-02 -0.91493234258E-01  0.88801831089E+00  0.88000000000E+00 0. -1.
        -11    1    4    4    0    0  0.50800622095E-02 -0.66486648931E-02  0.13201166764E-01  0.15637893140E-01  0.51100000000E-03 0. -1.
         11    1    4    4    0    0  0.79402743803E-01 -0.18311744911E-01  0.83386002490E-01  0.11659160458E+00  0.51100000000E-03 0.  1.
</event>
<event>
 8    1  0.1022673E+005  0.1043930E+01  0.7957747E-01            NaN
         13   -1    0    0    0    0  0.00000000000E+00  0.00000000000E+00  0.74505805969E-08  0.10566000000E+00  0.10566000000E+00 0.  1.
     999900   -1    0    0    0    0 -0.00000000000E+00 -0.00000000000E+00 -0.74505805969E-08  0.93827000000E+00  0.93827000000E+00 0.  1.
     999902    2    1    2    0    0 -0.96837342826E-03  0.19883924230E-01  0.11178618552E-01  0.10210986684E+01  0.10208433871E+01 0.  0.
     999903    2    3    3    0    0  0.45734714710E-01 -0.11683093413E+00 -0.20363413018E-01  0.12876071073E+00  0.20579619502E-01 0.  0.
         14    1    1    2    0    0  0.96837342826E-03 -0.19883924230E-01 -0.11178618552E-01  0.22831331599E-01  0.00000000000E+00 0. -1.
     999901    1    3    3    0    0 -0.46703088139E-01  0.13671485836E+00  0.31542031570E-01  0.89233795767E+00  0.88000000000E+00 0. -1.
        -11    1    4    4    0    0  0.35616027557E-01 -0.82936820474E-01 -0.56251167405E-02  0.90437385348E-01  0.51100000000E-03 0. -1.
         11    1    4    4    0    0  0.10118687154E-01 -0.33894113659E-01 -0.14738296277E-01  0.38323325386E-01  0.51100000000E-03 0.  1.
</event>
<event>
 8    1  0.1022673E+005  0.1043930E+01  0.7957747E-01            NaN
         13   -1    0    0    0    0  0.00000000000E+00  0.00000000000E+00  0.74505805969E-08  0.10566000000E+00  0.10566000000E+00 0.  1.
     999900   -1    0    0    0    0 -0.00000000000E+00 -0.00000000000E+00 -0.74505805969E-08  0.93827000000E+00  0.93827000000E+00 0.  1.
     999902    2    1    2    0    0  0.14953858209E-01  0.61198362198E-02 -0.23944212504E-01  0.10150440937E+01  0.10146329960E+01 0.  0.
     999903    2    3    3    0    0 -0.12007484857E-01  0.12148242273E+00  0.23258117351E-01  0.12585148220E+00  0.19887101987E-01 0.  0.
         14    1    1    2    0    0 -0.14953858209E-01 -0.61198362198E-02  0.23944212504E-01  0.28885906306E-01  0.00000000000E+00 0.  1.
     999901    1    3    3    0    0  0.26961343067E-01 -0.11536258651E+00 -0.47202329855E-01  0.88919261149E+00  0.88000000000E+00 0.  1.
        -11    1    4    4    0    0 -0.56042746573E-02  0.27802321553E-01  0.13594375212E-01  0.31455446850E-01  0.51100000000E-03 0.  1.
         11    1    4    4    0    0 -0.64032102000E-02  0.93680101176E-01  0.96637421385E-02  0.94396035353E-01  0.51100000000E-03 0. -1.
</event>
<event>
 8    1  0.1022673E+005  0.1043930E+01  0.7957747E-01            NaN
         13   -1    0    0    0    0  0.00000000000E+00  0.00000000000E+00  0.74505805969E-08  0.10566000000E+00  0.10566000000E+00 0.  1.
     999900   -1    0    0    0    0 -0.00000000000E+00 -0.00000000000E+00 -0.74505805969E-08  0.93827000000E+00  0.93827000000E+00 0. -1.
     999902    2    1    2    0    0  0.33122261109E-02 -0.59139896415E-02 -0.22244245942E-01  0.10206759123E+01  0.10204109787E+01 0.  0.
     999903    2    3    3    0    0  0.15343019833E-01 -0.64075004739E-01  0.10904437781E+00  0.12895614336E+00  0.19949839299E-01 0.  0.
         14    1    1    2    0    0 -0.33122261109E-02  0.59139896415E-02  0.22244245942E-01  0.23254087658E-01  0.00000000000E+00 0.  1.
     999901    1    3    3    0    0 -0.12030793722E-01  0.58161015098E-01 -0.13128862375E+00  0.89171976899E+00  0.88000000000E+00 0. -1.
        -11    1    4    4    0    0  0.25484704288E-02 -0.18368110101E-01  0.15975805977E-01  0.24482027446E-01  0.51100000000E-03 0. -1.
         11    1    4    4    0    0  0.12794549404E-01 -0.45706894638E-01  0.93068571829E-01  0.10447411591E+00  0.51100000000E-03 0.  1.
</event>
<event>
 8    1  0.1022673E+005  0.1043930E+01  0.7957747E-01            NaN
         13   -1    0    0    0    0  0.00000000000E+00  0.00000000000E+00  0.74505805969E-08  0.10566000000E+00  0.10566000000E+00 0. -1.
     999900   -1    0    0    0    0 -0.00000000000E+00 -0.00000000000E+00 -0.74505805969E-08  0.93827000000E+00  0.93827000000E+00 0. -1.
     999902    2    1    2    0    0  0.13646876682E-01  0.84373229238E-02 -0.16841757926E-01  0.10206690785E+01  0.10204039873E+01 0.  0.
     999903    2    3    3    0    0 -0.32799948877E-01  0.10380729711E+00 -0.71555360960E-01  0.13261146887E+00  0.24775802994E-01 0.  0.
         14    1    1    2    0    0 -0.13646876682E-01 -0.84373229238E-02  0.16841757926E-01  0.23260921550E-01  0.00000000000E+00 0. -1.
     999901    1    3    3    0    0  0.46446825559E-01 -0.95369974184E-01  0.54713603034E-01  0.88805760958E+00  0.88000000000E+00 0.  1.
        -11    1    4    4    0    0 -0.96269142821E-02  0.50882400514E-01 -0.46626714666E-01  0.69685061542E-01  0.51100000000E-03 0.  1.
         11    1    4    4    0    0 -0.23173034595E-01  0.52924896594E-01 -0.24928646294E-01  0.62926407325E-01  0.51100000000E-03 0. -1.
</event>
<event>
 8    1  0.1022673E+005  0.1043930E+01  0.7957747E-01            NaN
         13   -1    0    0    0    0  0.00000000000E+00  0.00000000000E+00  0.74505805969E-08  0.10566000000E+00  0.10566000000E+00 0.  1.
     999900   -1    0    0    0    0 -0.00000000000E+00 -0.00000000000E+00 -0.74505805969E-08  0.93827000000E+00  0.93827000000E+00 0.  1.
     999902    2    1    2    0    0  0.44288437518E-02  0.79735102450E-02 -0.22049695646E-01  0.10200683026E+01  0.10197891750E+01 0.  0.
     999903    2    3    3    0    0  0.41486822758E-01 -0.10790951600E+00 -0.58066976216E-01  0.13096796293E+00  0.20376787819E-01 0.  0.
         14    1    1    2    0    0 -0.44288437518E-02 -0.79735102450E-02  0.22049695646E-01  0.23861697355E-01  0.00000000000E+00 0.  1.
     999901    1    3    3    0    0 -0.37057979006E-01  0.11588302624E+00  0.36017280571E-01  0.88910033971E+00  0.88000000000E+00 0.  1.
        -11    1    4    4    0    0  0.36886212400E-01 -0.69583169709E-01 -0.40349986130E-01  0.88491766135E-01  0.51100000000E-03 0.  1.
         11    1    4    4    0    0  0.46006103583E-02 -0.38326346289E-01 -0.17716990086E-01  0.42476196796E-01  0.51100000000E-03 0. -1.
</event>
<event>
 8    1  0.1022673E+005  0.1043930E+01  0.7957747E-01            NaN
         13   -1    0    0    0    0  0.00000000000E+00  0.00000000000E+00  0.74505805969E-08  0.10566000000E+00  0.10566000000E+00 0.  1.
     999900   -1    0    0    0    0 -0.00000000000E+00 -0.00000000000E+00 -0.74505805969E-08  0.93827000000E+00  0.93827000000E+00 0.  1.
     999902    2    1    2    0    0 -0.70577299049E-02  0.22454008768E-01 -0.52545668824E-04  0.10203928629E+01  0.10201213643E+01 0.  0.
     999903    2    3    3    0    0 -0.65200449026E-01 -0.74568383368E-02 -0.11156092381E+00  0.13094958032E+00  0.19880892174E-01 0.  0.
         14    1    1    2    0    0  0.70577299049E-02 -0.22454008768E-01  0.52545668824E-04  0.23537137086E-01  0.00000000000E+00 0. -1.
     999901    1    3    3    0    0  0.58142719121E-01  0.29910847105E-01  0.11150837814E+00  0.88944328260E+00  0.88000000000E+00 0. -1.
        -11    1    4    4    0    0 -0.40965869806E-01  0.48948438778E-02 -0.63653830092E-01  0.75856662145E-01  0.51100000000E-03 0. -1.
         11    1    4    4    0    0 -0.24234579220E-01 -0.12351682215E-01 -0.47907093715E-01  0.55092918172E-01  0.51100000000E-03 0.  1.
</event>
<event>
 8    1  0.1022673E+005  0.1043930E+01  0.7957747E-01            NaN
         13   -1    0    0    0    0  0.00000000000E+00  0.00000000000E+00  0.74505805969E-08  0.10566000000E+00  0.10566000000E+00 0.  1.
     999900   -1    0    0    0    0 -0.00000000000E+00 -0.00000000000E+00 -0.74505805969E-08  0.93827000000E+00  0.93827000000E+00 0. -1.
     999902    2    1    2    0    0  0.18311251024E-01  0.13545935468E-01 -0.54122626481E-02  0.10205187448E+01  0.10202501760E+01 0.  0.
     999903    2    3    3    0    0  0.97698447683E-01 -0.46747934974E-01 -0.73299313321E-01  0.13229223686E+00  0.19952205298E-01 0.  0.
         14    1    1    2    0    0 -0.18311251024E-01 -0.13545935468E-01  0.54122626481E-02  0.23411255173E-01  0.00000000000E+00 0.  1.
     999901    1    3    3    0    0 -0.79387196659E-01  0.60293870442E-01  0.67887050673E-01  0.88822650797E+00  0.88000000000E+00 0.  1.
        -11    1    4    4    0    0  0.38443933956E-01 -0.19744039149E-01 -0.41117112000E-01  0.59654347370E-01  0.51100000000E-03 0.  1.
         11    1    4    4    0    0  0.59254513727E-01 -0.27003895825E-01 -0.32182201321E-01  0.72637889490E-01  0.51100000000E-03 0. -1.
</event>
<event>
 8    1  0.1022673E+005  0.1043930E+01  0.7957747E-01            NaN
         13   -1    0    0    0    0  0.00000000000E+00  0.00000000000E+00  0.74505805969E-08  0.10566000000E+00  0.10566000000E+00 0.  1.
     999900   -1    0    0    0    0 -0.00000000000E+00 -0.00000000000E+00 -0.74505805969E-08  0.93827000000E+00  0.93827000000E+00 0.  1.
     999902    2    1    2    0    0  0.51760091391E-02  0.12868566349E-02 -0.31251033361E-01  0.10122270955E+01  0.10117305069E+01 0.  0.
     999903    2    3    3    0    0 -0.45637501865E-01  0.15059887323E-01  0.10777377402E+00  0.11975882916E+00  0.20430590102E-01 0.  0.
         14    1    1    2    0    0 -0.51760091391E-02 -0.12868566349E-02  0.31251033361E-01  0.31702904547E-01  0.00000000000E+00 0.  1.
     999901    1    3    3    0    0  0.50813511004E-01 -0.13773030688E-01 -0.13902480738E+00  0.89246826629E+00  0.88000000000E+00 0.  1.
        -11    1    4    4    0    0 -0.34230649576E-01  0.17774222580E-02  0.78260406004E-01  0.85439153022E-01  0.51100000000E-03 0. -1.
         11    1    4    4    0    0 -0.11406852289E-01  0.13282465065E-01  0.29513368018E-01  0.34319676137E-01  0.51100000000E-03 0.  1.
</event>
<event>
 8    1  0.1022673E+005  0.1043930E+01  0.7957747E-01            NaN
         13   -1    0    0    0    0  0.00000000000E+00  0.00000000000E+00  0.74505805969E-08  0.10566000000E+00  0.10566000000E+00 0. -1.
     999900   -1    0    0    0    0 -0.00000000000E+00 -0.00000000000E+00 -0.74505805969E-08  0.93827000000E+00  0.93827000000E+00 0. -1.
     999902    2    1    2    0    0 -0.13435290023E-01  0.17466171321E-01  0.10920327897E-01  0.10193367546E+01  0.10190400343E+01 0.  0.
     999903    2    3    3    0    0 -0.22608866437E-01  0.51106253432E-01 -0.11512598419E+00  0.12967193994E+00  0.20923904770E-01 0.  0.
         14    1    1    2    0    0  0.13435290023E-01 -0.17466171321E-01 -0.10920327897E-01  0.24593245414E-01  0.00000000000E+00 0. -1.
     999901    1    3    3    0    0  0.91735764134E-02 -0.33640082111E-01  0.12604631209E+00  0.88966481465E+00  0.88000000000E+00 0.  1.
        -11    1    4    4    0    0 -0.13797127690E-01  0.34258571635E-01 -0.52284035356E-01  0.64014779052E-01  0.51100000000E-03 0. -1.
         11    1    4    4    0    0 -0.88117387468E-02  0.16847681796E-01 -0.62841948834E-01  0.65657160888E-01  0.51100000000E-03 0.  1.
</event>
<event>
 8    1  0.1022673E+005  0.1043930E+01  0.7957747E-01            NaN
         13   -1    0    0    0    0  0.00000000000E+00  0.00000000000E+00  0.74505805969E-08  0.10566000000E+00  0.10566000000E+00 0.  1.
     999900   -1    0    0    0    0 -0.00000000000E+00 -0.00000000000E+00 -0.74505805969E-08  0.93827000000E+00  0.93827000000E+00 0.  1.
     999902    2    1    2    0    0 -0.14474462003E-01  0.31272991344E-02 -0.18203250574E-01  0.10204641017E+01  0.10201942631E+01 0.  0.
     999903    2    3    3    0    0 -0.77420627764E-01  0.10384264601E+00 -0.21468558890E-01  0.13247960687E+00  0.17683282504E-01 0.  0.
         14    1    1    2    0    0  0.14474462003E-01 -0.31272991344E-02  0.18203250574E-01  0.23465898270E-01  0.00000000000E+00 0.  1.
     999901    1    3    3    0    0  0.62946165761E-01 -0.10071534688E+00  0.32653083160E-02  0.88798449486E+00  0.88000000000E+00 0.  1.
        -11    1    4    4    0    0 -0.24093073969E-01  0.40824395390E-01 -0.96522841000E-03  0.47416244675E-01  0.51100000000E-03 0. -1.
         11    1    4    4    0    0 -0.53327553795E-01  0.63018250622E-01 -0.20503330480E-01  0.85063362190E-01  0.51100000000E-03 0.  1.
</event>
<event>
 8    1  0.1022673E+005  0.1043930E+01  0.7957747E-01            NaN
         13   -1    0    0    0    0  0.00000000000E+00  0.00000000000E+00  0.74505805969E-08  0.10566000000E+00  0.10566000000E+00 0.  1.
     999900   -1    0    0    0    0 -0.00000000000E+00 -0.00000000000E+00 -0.74505805969E-08  0.93827000000E+00  0.93827000000E+00 0. -1.
     999902    2    1    2    0    0  0.22073173087E-01  0.19275520138E-02  0.76061245551E-02  0.10205036568E+01  0.10202347376E+01 0.  0.
     999903    2    3    3    0    0 -0.33384541194E-01 -0.10279629554E+00 -0.68755675375E-01  0.12928327615E+00  0.17470450148E-01 0.  0.
         14    1    1    2    0    0 -0.22073173087E-01 -0.19275520138E-02 -0.76061245551E-02  0.23426343241E-01  0.00000000000E+00 0. -1.
     999901    1    3    3    0    0  0.55457714281E-01  0.10472384756E+00  0.76361799930E-01  0.89122038061E+00  0.88000000000E+00 0.  1.
        -11    1    4    4    0    0 -0.18452518026E-01 -0.74321493976E-01 -0.55126647331E-01  0.94357767330E-01  0.51100000000E-03 0. -1.
         11    1    4    4    0    0 -0.14932023168E-01 -0.28474801566E-01 -0.13629028044E-01  0.34925508823E-01  0.51100000000E-03 0.  1.
</event>
<event>
 8    1  0.1022673E+005  0.1043930E+01  0.7957747E-01            NaN
         13   -1    0    0    0    0  0.00000000000E+00  0.00000000000E+00  0.74505805969E-08  0.10566000000E+00  0.10566000000E+00 0.  1.
     999900   -1    0    0    0    0 -0.00000000000E+00 -0.00000000000E+00 -0.74505805969E-08  0.93827000000E+00  0.93827000000E+00 0.  1.
     999902    2    1    2    0    0  0.21227668288E-01  0.39958882513E-02  0.10233419184E-01  0.10200280358E+01  0.10197479541E+01 0.  0.
     999903    2    3    3    0    0 -0.39384193779E-01  0.64724904487E-01  0.10482921027E+00  0.13080917921E+00  0.19530746521E-01 0.  0.
         14    1    1    2    0    0 -0.21227668288E-01 -0.39958882513E-02 -0.10233419184E-01  0.23901964188E-01  0.00000000000E+00 0.  1.
     999901    1    3    3    0    0  0.60611862067E-01 -0.60729016235E-01 -0.94595791090E-01  0.88921885660E+00  0.88000000000E+00 0.  1.
        -11    1    4    4    0    0  0.28311619924E-03  0.13084777459E-01  0.16322483600E-01  0.20927879677E-01  0.51100000000E-03 0. -1.
         11    1    4    4    0    0 -0.39667309978E-01  0.51640127028E-01  0.88506726675E-01  0.10988129954E+00  0.51100000000E-03 0.  1.
</event>
<event>
 8    1  0.1022673E+005  0.1043930E+01  0.7957747E-01            NaN
         13   -1    0    0    0    0  0.00000000000E+00  0.00000000000E+00  0.74505805969E-08  0.10566000000E+00  0.10566000000E+00 0. -1.
     999900   -1    0    0    0    0 -0.00000000000E+00 -0.00000000000E+00 -0.74505805969E-08  0.93827000000E+00  0.93827000000E+00 0.  1.
     999902    2    1    2    0    0  0.35011470402E-02  0.14086471848E-01 -0.20362482439E-01  0.10189236526E+01  0.10186167544E+01 0.  0.
     999903    2    3    3    0    0 -0.50933629454E-01  0.22545232226E-01  0.11263471179E+00  0.12722698377E+00  0.19940034939E-01 0.  0.
         14    1    1    2    0    0 -0.35011470402E-02 -0.14086471848E-01  0.20362482439E-01  0.25006347410E-01  0.00000000000E+00 0. -1.
     999901    1    3    3    0    0  0.54434776494E-01 -0.84587603780E-02 -0.13299719423E+00  0.89169666882E+00  0.88000000000E+00 0.  1.
        -11    1    4    4    0    0 -0.38382150879E-01  0.67427182889E-02  0.74627098526E-01  0.84190965735E-01  0.51100000000E-03 0.  1.
         11    1    4    4    0    0 -0.12551478575E-01  0.15802513937E-01  0.38007613261E-01  0.43036018031E-01  0.51100000000E-03 0. -1.
</event>
<event>
 8    1  0.1022673E+005  0.1043930E+01  0.7957747E-01            NaN
         13   -1    0    0    0    0  0.00000000000E+00  0.00000000000E+00  0.74505805969E-08  0.10566000000E+00  0.10566000000E+00 0. -1.
     999900   -1    0    0    0    0 -0.00000000000E+00 -0.00000000000E+00 -0.74505805969E-08  0.93827000000E+00  0.93827000000E+00 0.  1.
     999902    2    1    2    0    0  0.22737477473E-01 -0.17679604570E-02 -0.35006357414E-02  0.10208567901E+01  0.10205960086E+01 0.  0.
     999903    2    3    3    0    0 -0.83096056368E-01  0.70226017199E-01  0.66376111552E-01  0.12885531612E+00  0.19006741784E-01 0.  0.
         14    1    1    2    0    0 -0.22737477473E-01  0.17679604570E-02  0.35006357414E-02  0.23073209933E-01  0.00000000000E+00 0.  1.
     999901    1    3    3    0    0  0.10583353384E+00 -0.71993977656E-01 -0.69876747293E-01  0.89200147394E+00  0.88000000000E+00 0.  1.
        -11    1    4    4    0    0 -0.24915130668E-01  0.27801403942E-01  0.31487748423E-01  0.48840774145E-01  0.51100000000E-03 0.  1.
         11    1    4    4    0    0 -0.58180925700E-01  0.42424613257E-01  0.34888363128E-01  0.80014541979E-01  0.51100000000E-03 0. -1.
</event>
<event>
 8    1  0.1022673E+005  0.1043930E+01  0.7957747E-01            NaN
         13   -1    0    0    0    0  0.00000000000E+00  0.00000000000E+00  0.74505805969E-08  0.10566000000E+00  0.10566000000E+00 0. -1.
     999900   -1    0    0    0    0 -0.00000000000E+00 -0.00000000000E+00 -0.74505805969E-08  0.93827000000E+00  0.93827000000E+00 0.  1.
     999902    2    1    2    0    0  0.10809345555E-01  0.19215804855E-01 -0.67915994404E-02  0.10208602161E+01  0.10205995129E+01 0.  0.
     999903    2    3    3    0    0  0.11031369999E+00 -0.22291196084E-01  0.64660566294E-01  0.13140568679E+00  0.20505020328E-01 0.  0.
         14    1    1    2    0    0 -0.10809345555E-01 -0.19215804855E-01  0.67915994404E-02  0.23069783929E-01  0.00000000000E+00 0.  1.
     999901    1    3    3    0    0 -0.99504354432E-01  0.41507000939E-01 -0.71452165734E-01  0.88945452929E+00  0.88000000000E+00 0.  1.
        -11    1    4    4    0    0  0.43752881150E-01 -0.15092613353E-01  0.17371601545E-01  0.49438196245E-01  0.51100000000E-03 0. -1.
         11    1    4    4    0    0  0.66560818837E-01 -0.71985827311E-02  0.47288964749E-01  0.81967490541E-01  0.51100000000E-03 0.  1.
</event>
<event>
 8    1  0.1022673E+005  0.1043930E+01  0.7957747E-01            NaN
         13   -1    0    0    0    0  0.00000000000E+00  0.00000000000E+00  0.74505805969E-08  0.10566000000E+00  0.10566000000E+00 0. -1.
     999900   -1    0    0    0    0 -0.00000000000E+00 -0.00000000000E+00 -0.74505805969E-08  0.93827000000E+00  0.93827000000E+00 0. -1.
     999902    2    1    2    0    0 -0.31350912676E-02 -0.16762824911E-01 -0.15608202708E-01  0.10208121046E+01  0.10205503005E+01 0.  0.
     999903    2    3    3    0    0  0.60291002519E-01  0.55548770527E-01  0.94551927829E-01  0.12874311031E+00  0.30233268155E-01 0.  0.
         14    1    1    2    0    0  0.31350912676E-02  0.16762824911E-01  0.15608202708E-01  0.23117895407E-01  0.00000000000E+00 0. -1.
     999901    1    3    3    0    0 -0.63426093786E-01 -0.72311595438E-01 -0.11016013054E+00  0.89206899429E+00  0.88000000000E+00 0. -1.
        -11    1    4    4    0    0  0.43434660026E-01  0.31986891497E-01  0.40645547787E-01  0.67542968510E-01  0.51100000000E-03 0.  1.
         11    1    4    4    0    0  0.16856342493E-01  0.23561879030E-01  0.53906380042E-01  0.61200141796E-01  0.51100000000E-03 0. -1.
</event>
<event>
 8    1  0.1022673E+005  0.1043930E+01  0.7957747E-01            NaN
         13   -1    0    0    0    0  0.00000000000E+00  0.00000000000E+00  0.74505805969E-08  0.10566000000E+00  0.10566000000E+00 0.  1.
     999900   -1    0    0    0    0 -0.00000000000E+00 -0.00000000000E+00 -0.74505805969E-08  0.93827000000E+00  0.93827000000E+00 0. -1.
     999902    2    1    2    0    0  0.71390815114E-02  0.22389453182E-01  0.40106258197E-02  0.10200901338E+01  0.10198115228E+01 0.  0.
     999903    2    3    3    0    0 -0.11491701084E+00 -0.17548041834E-01 -0.51848005484E-01  0.12901613026E+00  0.21049775321E-01 0.  0.
         14    1    1    2    0    0 -0.71390815114E-02 -0.22389453182E-01 -0.40106258197E-02  0.23839866151E-01  0.00000000000E+00 0. -1.
     999901    1    3    3    0    0  0.12205609235E+00  0.39937495016E-01  0.55858631304E-01  0.89107400359E+00  0.88000000000E+00 0.  1.
        -11    1    4    4    0    0 -0.25003441351E-01 -0.49136839790E-02 -0.23305767199E-02  0.25593145146E-01  0.51100000000E-03 0. -1.
         11    1    4    4    0    0 -0.89913569489E-01 -0.12634357855E-01 -0.49517428765E-01  0.10342298511E+00  0.51100000000E-03 0.  1.
</event>
<event>
 8    1  0.1022673E+005  0.1043930E+01  0.7957747E-01            NaN
         13   -1    0    0    0    0  0.00000000000E+00  0.00000000000E+00  0.74505805969E-08  0.10566000000E+00  0.10566000000E+00 0. -1.
     999900   -1    0    0    0    0 -0.00000000000E+00 -0.00000000000E+00 -0.74505805969E-08  0.93827000000E+00  0.93827000000E+00 0. -1.
     999902    2    1    2    0    0  0.12669257173E-01  0.23262326836E-02  0.20035217384E-01  0.10201112811E+01  0.10198331699E+01 0.  0.
     999903    2    3    3    0    0 -0.24011472230E-01 -0.97667875748E-01  0.82728977704E-01  0.13147479453E+00  0.18054724937E-01 0.  0.
         14    1    1    2    0    0 -0.12669257173E-01 -0.23262326836E-02 -0.20035217384E-01  0.23818718929E-01  0.00000000000E+00 0.  1.
     999901    1    3    3    0    0  0.36680729403E-01  0.99994108432E-01 -0.62693760321E-01  0.88863648654E+00  0.88000000000E+00 0. -1.
        -11    1    4    4    0    0  0.95187140691E-04 -0.27502788065E-01  0.28238109133E-01  0.39421622751E-01  0.51100000000E-03 0.  1.
         11    1    4    4    0    0 -0.24106659371E-01 -0.70165087683E-01  0.54490868571E-01  0.92053171777E-01  0.51100000000E-03 0. -1.
</event>
<event>
 8    1  0.1022673E+005  0.1043930E+01  0.7957747E-01            NaN
         13   -1    0    0    0    0  0.00000000000E+00  0.00000000000E+00  0.74505805969E-08  0.10566000000E+00  0.10566000000E+00 0.  1.
     999900   -1    0    0    0    0 -0.00000000000E+00 -0.00000000000E+00 -0.74505805969E-08  0.93827000000E+00  0.93827000000E+00 0. -1.
     999902    2    1    2    0    0  0.59740261087E-02  0.11686520482E-01 -0.41061967213E-02  0.10301777420E+01  0.10300859457E+01 0.  0.
     999903    2    3    3    0    0 -0.29579852543E-01 -0.99559390434E-01 -0.89290146291E-01  0.13838402355E+00  0.19757728839E-01 0.  0.
         14    1    1    2    0    0 -0.59740261087E-02 -0.11686520482E-01  0.41061967213E-02  0.13752258012E-01  0.00000000000E+00 0. -1.
     999901    1    3    3    0    0  0.35553878652E-01  0.11124591092E+00  0.85183949570E-01  0.89179371844E+00  0.88000000000E+00 0.  1.
        -11    1    4    4    0    0 -0.13264598447E-01 -0.45619759536E-01 -0.28113248446E-01  0.55206230548E-01  0.51100000000E-03 0.  1.
         11    1    4    4    0    0 -0.16315254096E-01 -0.53939630898E-01 -0.61176897845E-01  0.83177793001E-01  0.51100000000E-03 0. -1.
</event>
<event>
 8    1  0.1022673E+005  0.1043930E+01  0.7957747E-01            NaN
         13   -1    0    0    0    0  0.00000000000E+00  0.00000000000E+00  0.74505805969E-08  0.10566000000E+00  0.10566000000E+00 0. -1.
     999900   -1    0    0    0    0 -0.00000000000E+00 -0.00000000000E+00 -0.74505805969E-08  0.93827000000E+00  0.93827000000E+00 0.  1.
     999902    2    1    2    0    0 -0.92662985874E-02  0.12007568731E-01  0.17964421161E-01  0.10204190148E+01  0.10201481262E+01 0.  0.
     999903    2    3    3    0    0 -0.11438089569E+00 -0.48412384667E-01  0.36545205845E-01  0.13191189901E+00  0.25267543244E-01 0.  0.
         14    1    1    2    0    0  0.92662985874E-02 -0.12007568731E-01 -0.17964421161E-01  0.23510985176E-01  0.00000000000E+00 0.  1.
     999901    1    3    3    0    0  0.10511459710E+00  0.60419953397E-01 -0.18580784684E-01  0.88850711581E+00  0.88000000000E+00 0. -1.
        -11    1    4    4    0    0 -0.20872423063E-01 -0.42964778226E-02  0.15607716746E-01  0.26419305616E-01  0.51100000000E-03 0.  1.
         11    1    4    4    0    0 -0.93508472629E-01 -0.44115906844E-01  0.20937489099E-01  0.10549259339E+00  0.51100000000E-03 0. -1.
</event>
<event>
 8    1  0.1134598E+005  0.1043930E+01  0.7957747E-01            NaN
         13   -1    0    0    0    0  0.00000000000E+00  0.00000000000E+00  0.74505805969E-08  0.10566000000E+00  0.10566000000E+00 0.  1.
     999900   -1    0    0    0    0 -0.00000000000E+00 -0.00000000000E+00 -0.74505805969E-08  0.93827000000E+00  0.93827000000E+00 0. -1.
     999902    2    1    2    0    0 -0.23462757647E-01 -0.84823354085E-02  0.28657950308E-02  0.10188169796E+01  0.10185074247E+01 0.  0.
     999903    2    3    3    0    0  0.43065454172E-01  0.47926722992E-01 -0.10824944605E+00  0.12755126077E+00  0.19994435076E-01 0.  0.
         14    1    1    2    0    0  0.23462757647E-01  0.84823354085E-02 -0.28657950308E-02  0.25113020359E-01  0.00000000000E+00 0. -1.
     999901    1    3    3    0    0 -0.66528211820E-01 -0.56409058400E-01  0.11111524108E+00  0.89126571887E+00  0.88000000000E+00 0. -1.
        -11    1    4    4    0    0  0.20780332606E-01  0.10203840726E-01 -0.44982625784E-01  0.50592868393E-01  0.51100000000E-03 0.  1.
         11    1    4    4    0    0  0.22285121566E-01  0.37722882266E-01 -0.63266820264E-01  0.76958392375E-01  0.51100000000E-03 0. -1.
</event>
<event>
 8    1  0.1022673E+005  0.1043930E+01  0.7957747E-01            NaN
         13   -1    0    0    0    0  0.00000000000E+00  0.00000000000E+00  0.74505805969E-08  0.10566000000E+00  0.10566000000E+00 0.  1.
     999900   -1    0    0    0    0 -0.00000000000E+00 -0.00000000000E+00 -0.74505805969E-08  0.93827000000E+00  0.93827000000E+00 0.  1.
     999902    2    1    2    0    0 -0.11299746223E-01 -0.18984527233E-01  0.10197382884E-01  0.10195972411E+01  0.10193068482E+01 0.  0.
     999903    2    3    3    0    0 -0.89124841579E-01  0.35420401630E-01 -0.84473344929E-01  0.12944040745E+00  0.20523908971E-01 0.  0.
         14    1    1    2    0    0  0.11299746223E-01  0.18984527233E-01 -0.10197382884E-01  0.24332758920E-01  0.00000000000E+00 0. -1.
     999901    1    3    3    0    0  0.77825095356E-01 -0.54404928864E-01  0.94670727813E-01  0.89015683363E+00  0.88000000000E+00 0. -1.
        -11    1    4    4    0    0 -0.52093522764E-01  0.14455697380E-01 -0.36087148382E-01  0.65001889973E-01  0.51100000000E-03 0.  1.
         11    1    4    4    0    0 -0.37031318815E-01  0.20964704251E-01 -0.48386196547E-01  0.64438517478E-01  0.51100000000E-03 0. -1.
</event>
<event>
 8    1  0.1022673E+005  0.1043930E+01  0.7957747E-01            NaN
         13   -1    0    0    0    0  0.00000000000E+00  0.00000000000E+00  0.74505805969E-08  0.10566000000E+00  0.10566000000E+00 0. -1.
     999900   -1    0    0    0    0 -0.00000000000E+00 -0.00000000000E+00 -0.74505805969E-08  0.93827000000E+00  0.93827000000E+00 0.  1.
     999902    2    1    2    0    0  0.20208681053E-01 -0.96936341606E-02 -0.69146781317E-02  0.10204742948E+01  0.10202046933E+01 0.  0.
     999903    2    3    3    0    0 -0.92087936509E-01 -0.11712290618E-01 -0.88400487931E-01  0.12960138439E+00  0.19092060318E-01 0.  0.
         14    1    1    2    0    0 -0.20208681053E-01  0.96936341606E-02  0.69146781317E-02  0.23455705208E-01  0.00000000000E+00 0.  1.
     999901    1    3    3    0    0  0.11229661756E+00  0.20186564576E-02  0.81485809800E-01  0.89087291040E+00  0.88000000000E+00 0.  1.
        -11    1    4    4    0    0 -0.11661329064E-01 -0.80968454930E-02 -0.11684627194E-01  0.18393942920E-01  0.51100000000E-03 0.  1.
         11    1    4    4    0    0 -0.80426607444E-01 -0.36154451252E-02 -0.76715860738E-01  0.11120744147E+00  0.51100000000E-03 0. -1.
</event>
<event>
 8    1  0.1022673E+005  0.1043930E+01  0.7957747E-01            NaN
         13   -1    0    0    0    0  0.00000000000E+00  0.00000000000E+00  0.74505805969E-08  0.10566000000E+00  0.10566000000E+00 0.  1.
     999900   -1    0    0    0    0 -0.00000000000E+00 -0.00000000000E+00 -0.74505805969E-08  0.93827000000E+00  0.93827000000E+00 0.  1.
     999902    2    1    2    0    0  0.19975477794E-01 -0.14977753123E-01 -0.30117234505E-02  0.10187819726E+01  0.10184715433E+01 0.  0.
     999903    2    3    3    0    0  0.91209884903E-01 -0.91090157126E-01 -0.22600039452E-01  0.13241233140E+00  0.20139610071E-01 0.  0.
         14    1    1    2    0    0 -0.19975477794E-01  0.14977753123E-01  0.30117234505E-02  0.25148027356E-01  0.00000000000E+00 0.  1.
     999901    1    3    3    0    0 -0.71234407108E-01  0.76112404003E-01  0.19588316001E-01  0.88636964125E+00  0.88000000000E+00 0. -1.
        -11    1    4    4    0    0  0.58736864925E-01 -0.55614068271E-01 -0.44755162919E-02  0.81013796713E-01  0.51100000000E-03 0.  1.
         11    1    4    4    0    0  0.32473019978E-01 -0.35476088856E-01 -0.18124523160E-01  0.51398534685E-01  0.51100000000E-03 0. -1.
</event>
<event>
 8    1  0.1022673E+005  0.1043930E+01  0.7957747E-01            NaN
         13   -1    0    0    0    0  0.00000000000E+00  0.00000000000E+00  0.74505805969E-08  0.10566000000E+00  0.10566000000E+00 0. -1.
     999900   -1    0    0    0    0 -0.00000000000E+00 -0.00000000000E+00 -0.74505805969E-08  0.93827000000E+00  0.93827000000E+00 0. -1.
     999902    2    1    2    0    0  0.14585883954E-01  0.13597340103E-01 -0.36430924197E-02  0.10236591394E+01  0.10234584143E+01 0.  0.
     999903    2    3    3    0    0  0.75166351984E-01  0.82753990953E-01  0.74256812708E-01  0.13544687268E+00  0.18264106783E-01 0.  0.
         14    1    1    2    0    0 -0.14585883954E-01 -0.13597340103E-01  0.36430924197E-02  0.20270860637E-01  0.00000000000E+00 0. -1.
     999901    1    3    3    0    0 -0.60580468030E-01 -0.69156650849E-01 -0.77899905128E-01  0.88821226668E+00  0.88000000000E+00 0. -1.
        -11    1    4    4    0    0  0.67435987611E-01  0.68651549279E-01  0.56978559341E-01  0.11183677834E+00  0.51100000000E-03 0. -1.
         11    1    4    4    0    0  0.77303643723E-02  0.14102441673E-01  0.17278253367E-01  0.23610094343E-01  0.51100000000E-03 0.  1.
</event>
<event>
 8    1  0.1022673E+005  0.1043930E+01  0.7957747E-01            NaN
         13   -1    0    0    0    0  0.00000000000E+00  0.00000000000E+00  0.74505805969E-08  0.10566000000E+00  0.10566000000E+00 0. -1.
     999900   -1    0    0    0    0 -0.00000000000E+00 -0.00000000000E+00 -0.74505805969E-08  0.93827000000E+00  0.93827000000E+00 0. -1.
     999902    2    1    2    0    0 -0.11792448353E-01  0.45415311949E-02  0.19124701462E-01  0.10210074881E+01  0.10207501405E+01 0.  0.
     999903    2    3    3    0    0 -0.10075445549E+00  0.79089877008E-01 -0.25777516108E-01  0.13225110773E+00  0.20474525961E-01 0.  0.
         14    1    1    2    0    0  0.11792448353E-01 -0.45415311949E-02 -0.19124701462E-01  0.22922511856E-01  0.00000000000E+00 0.  1.
     999901    1    3    3    0    0  0.88962007139E-01 -0.74548345813E-01  0.44902217571E-01  0.88875638041E+00  0.88000000000E+00 0. -1.
        -11    1    4    4    0    0 -0.64994083802E-01  0.61410788071E-01 -0.12995907794E-01  0.90358566618E-01  0.51100000000E-03 0.  1.
         11    1    4    4    0    0 -0.35760371690E-01  0.17679088937E-01 -0.12781608314E-01  0.41892541116E-01  0.51100000000E-03 0. -1.
</event>
<event>
 8    1  0.1022673E+005  0.1043930E+01  0.7957747E-01            NaN
         13   -1    0    0    0    0  0.00000000000E+00  0.00000000000E+00  0.74505805969E-08  0.10566000000E+00  0.10566000000E+00 0.  1.
     999900   -1    0    0    0    0 -0.00000000000E+00 -0.00000000000E+00 -0.74505805969E-08  0.93827000000E+00  0.93827000000E+00 0. -1.
     999902    2    1    2    0    0  0.17311933105E-01 -0.15476148904E-01  0.17771504374E-02  0.10206411083E+01  0.10203753719E+01 0.  0.
     999903    2    3    3    0    0  0.12751508729E+00 -0.25870256291E-01 -0.22962845825E-01  0.13336164834E+00  0.18129239157E-01 0.  0.
         14    1    1    2    0    0 -0.17311933105E-01  0.15476148904E-01 -0.17771504374E-02  0.23288891695E-01  0.00000000000E+00 0.  1.
     999901    1    3    3    0    0 -0.11020315418E+00  0.10394107387E-01  0.24739996263E-01  0.88727945996E+00  0.88000000000E+00 0. -1.
        -11    1    4    4    0    0  0.35297544969E-01 -0.34364221877E-02  0.97290083224E-03  0.35481450581E-01  0.51100000000E-03 0.  1.
         11    1    4    4    0    0  0.92217542321E-01 -0.22433834103E-01 -0.23935746658E-01  0.97880197759E-01  0.51100000000E-03 0. -1.
</event>
<event>
 8    1  0.1022673E+005  0.1043930E+01  0.7957747E-01            NaN
         13   -1    0    0    0    0  0.00000000000E+00  0.00000000000E+00  0.74505805969E-08  0.10566000000E+00  0.10566000000E+00 0. -1.
     999900   -1    0    0    0    0 -0.00000000000E+00 -0.00000000000E+00 -0.74505805969E-08  0.93827000000E+00  0.93827000000E+00 0.  1.
     999902    2    1    2    0    0 -0.18225159232E-01 -0.13918773101E-01  0.61664700366E-02  0.10201831260E+01  0.10199067097E+01 0.  0.
     999903    2    3    3    0    0  0.11367769175E+00 -0.59108107968E-02  0.57068756235E-01  0.12886189751E+00  0.19773477350E-01 0.  0.
         14    1    1    2    0    0  0.18225159232E-01  0.13918773101E-01 -0.61664700366E-02  0.23746874034E-01  0.00000000000E+00 0.  1.
     999901    1    3    3    0    0 -0.13190285098E+00 -0.80079623047E-02 -0.50902286199E-01  0.89132122846E+00  0.88000000000E+00 0. -1.
        -11    1    4    4    0    0  0.60543386829E-01  0.36640389893E-02  0.38123076735E-01  0.71641866051E-01  0.51100000000E-03 0. -1.
         11    1    4    4    0    0  0.53134304917E-01 -0.95748497860E-02  0.18945679500E-01  0.57220031459E-01  0.51100000000E-03 0.  1.
</event>
<event>
 8    1  0.1022673E+005  0.1043930E+01  0.7957747E-01            NaN
         13   -1    0    0    0    0  0.00000000000E+00  0.00000000000E+00  0.74505805969E-08  0.10566000000E+00  0.10566000000E+00 0. -1.
     999900   -1    0    0    0    0 -0.00000000000E+00 -0.00000000000E+00 -0.74505805969E-08  0.93827000000E+00  0.93827000000E+00 0.  1.
     999902    2    1    2    0    0  0.63345049565E-03  0.19241939505E-01  0.92981953458E-02  0.10225498706E+01  0.10223263315E+01 0.  0.
     999903    2    3    3    0    0 -0.11361329286E+00 -0.59006988529E-01  0.22446259633E-01  0.13162446146E+00  0.20769190463E-01 0.  0.
         14    1    1    2    0    0 -0.63345049565E-03 -0.19241939505E-01 -0.92981953458E-02  0.21380129376E-01  0.00000000000E+00 0. -1.
     999901    1    3    3    0    0  0.11424674336E+00  0.78248928034E-01 -0.13148064287E-01  0.89092540917E+00  0.88000000000E+00 0.  1.
        -11    1    4    4    0    0 -0.71721769469E-01 -0.28051558974E-01  0.72057542774E-02  0.77350411714E-01  0.51100000000E-03 0. -1.
         11    1    4    4    0    0 -0.41891523390E-01 -0.30955429555E-01  0.15240505355E-01  0.54274049742E-01  0.51100000000E-03 0.  1.
</event>
<event>
 8    1  0.1022673E+005  0.1043930E+01  0.7957747E-01            NaN
         13   -1    0    0    0    0  0.00000000000E+00  0.00000000000E+00  0.74505805969E-08  0.10566000000E+00  0.10566000000E+00 0.  1.
     999900   -1    0    0    0    0 -0.00000000000E+00 -0.00000000000E+00 -0.74505805969E-08  0.93827000000E+00  0.93827000000E+00 0.  1.
     999902    2    1    2    0    0  0.36653505828E-02  0.12417434327E-01 -0.19517464856E-01  0.10205086656E+01  0.10202398628E+01 0.  0.
     999903    2    3    3    0    0  0.10384369551E+00 -0.48845292175E-01  0.56832271414E-01  0.12943173028E+00  0.18796011914E-01 0.  0.
         14    1    1    2    0    0 -0.36653505828E-02 -0.12417434327E-01  0.19517464856E-01  0.23421334389E-01  0.00000000000E+00 0.  1.
     999901    1    3    3    0    0 -0.10017834493E+00  0.61262726502E-01 -0.76349736270E-01  0.89107693533E+00  0.88000000000E+00 0.  1.
        -11    1    4    4    0    0  0.58633762277E-01 -0.25804236316E-01  0.21408417484E-01  0.67545230408E-01  0.51100000000E-03 0. -1.
         11    1    4    4    0    0  0.45209933234E-01 -0.23041055859E-01  0.35423853929E-01  0.61886499872E-01  0.51100000000E-03 0.  1.
</event>
<event>
 8    1  0.1022673E+005  0.1043930E+01  0.7957747E-01            NaN
         13   -1    0    0    0    0  0.00000000000E+00  0.00000000000E+00  0.74505805969E-08  0.10566000000E+00  0.10566000000E+00 0.  1.
     999900   -1    0    0    0    0 -0.00000000000E+00 -0.00000000000E+00 -0.74505805969E-08  0.93827000000E+00  0.93827000000E+00 0. -1.
     999902    2    1    2    0    0  0.14838737404E-01  0.98369219226E-02  0.15301252605E-01  0.10204548750E+01  0.10201848217E+01 0.  0.
     999903    2    3    3    0    0 -0.10259512731E+00 -0.74013559184E-01  0.16134557027E-01  0.12870249340E+00  0.17327457546E-01 0.  0.
         14    1    1    2    0    0 -0.14838737404E-01 -0.98369219226E-02 -0.15301252605E-01  0.23475124961E-01  0.00000000000E+00 0. -1.
     999901    1    3    3    0    0  0.11743386472E+00  0.83850481106E-01 -0.83330442173E-03  0.89175238164E+00  0.88000000000E+00 0.  1.
        -11    1    4    4    0    0 -0.58581492360E-01 -0.50198617678E-01  0.42571847799E-02  0.77266274708E-01  0.51100000000E-03 0. -1.
         11    1    4    4    0    0 -0.44013634954E-01 -0.23814941506E-01  0.11877372247E-01  0.51436218692E-01  0.51100000000E-03 0.  1.
</event>
<event>
 8    1  0.1022673E+005  0.1043930E+01  0.7957747E-01            NaN
         13   -1    0    0    0    0  0.00000000000E+00  0.00000000000E+00  0.74505805969E-08  0.10566000000E+00  0.10566000000E+00 0.  1.
     999900   -1    0    0    0    0 -0.00000000000E+00 -0.00000000000E+00 -0.74505805969E-08  0.93827000000E+00  0.93827000000E+00 0.  1.
     999902    2    1    2    0    0 -0.82860439351E-02  0.20569636884E-01  0.70905131774E-02  0.10206481645E+01  0.10203825909E+01 0.  0.
     999903    2    3    3    0    0  0.24617707746E-01  0.79389344915E-01  0.10215787647E+00  0.13296566584E+00  0.18301282639E-01 0.  0.
         14    1    1    2    0    0  0.82860439351E-02 -0.20569636884E-01 -0.70905131774E-02  0.23281835468E-01  0.00000000000E+00 0. -1.
     999901    1    3    3    0    0 -0.32903751681E-01 -0.58819708031E-01 -0.95067363290E-01  0.88768249870E+00  0.88000000000E+00 0. -1.
        -11    1    4    4    0    0  0.16624043074E-01  0.52790724495E-01  0.53743942567E-01  0.77148505394E-01  0.51100000000E-03 0. -1.
         11    1    4    4    0    0  0.79936646713E-02  0.26598620420E-01  0.48413933901E-01  0.55817160443E-01  0.51100000000E-03 0.  1.
</event>
<event>
 8    1  0.1022673E+005  0.1043930E+01  0.7957747E-01            NaN
         13   -1    0    0    0    0  0.00000000000E+00  0.00000000000E+00  0.74505805969E-08  0.10566000000E+00  0.10566000000E+00 0. -1.
     999900   -1    0    0    0    0 -0.00000000000E+00 -0.00000000000E+00 -0.74505805969E-08  0.93827000000E+00  0.93827000000E+00 0.  1.
     999902    2    1    2    0    0 -0.13572891072E-01  0.94068276047E-02  0.16130993995E-01  0.10208449238E+01  0.10205838709E+01 0.  0.
     999903    2    3    3    0    0  0.11552092249E+00  0.56154283884E-01 -0.42308695355E-02  0.12996606395E+00  0.19362086424E-01 0.  0.
         14    1    1    2    0    0  0.13572891072E-01 -0.94068276047E-02 -0.16130993995E-01  0.23085076238E-01  0.00000000000E+00 0.  1.
     999901    1    3    3    0    0 -0.12909381356E+00 -0.46747456279E-01  0.20361863530E-01  0.89087885981E+00  0.88000000000E+00 0.  1.
        -11    1    4    4    0    0  0.44033969064E-01  0.27392077060E-01  0.61005999118E-02  0.52218720374E-01  0.51100000000E-03 0.  1.
         11    1    4    4    0    0  0.71486953427E-01  0.28762206824E-01 -0.10331469447E-01  0.77747343580E-01  0.51100000000E-03 0. -1.
</event>
<event>
 8    1  0.1022673E+005  0.1043930E+01  0.7957747E-01            NaN
         13   -1    0    0    0    0  0.00000000000E+00  0.00000000000E+00  0.74505805969E-08  0.10566000000E+00  0.10566000000E+00 0.  1.
     999900   -1    0    0    0    0 -0.00000000000E+00 -0.00000000000E+00 -0.74505805969E-08  0.93827000000E+00  0.93827000000E+00 0. -1.
     999902    2    1    2    0    0  0.19656875118E-02 -0.20067915141E-01 -0.14795715728E-01  0.10189200350E+01  0.10186130469E+01 0.  0.
     999903    2    3    3    0    0  0.22230769489E-01 -0.52362082641E-01  0.11351847956E+00  0.12879750438E+00  0.21595303219E-01 0.  0.
         14    1    1    2    0    0 -0.19656875118E-02  0.20067915141E-01  0.14795715728E-01  0.25009965002E-01  0.00000000000E+00 0.  1.
     999901    1    3    3    0    0 -0.20265081977E-01  0.32294167500E-01 -0.12831419529E+00  0.89012253062E+00  0.88000000000E+00 0. -1.
        -11    1    4    4    0    0 -0.12726371878E-02 -0.17629676467E-01  0.22802380229E-01  0.28855411327E-01  0.51100000000E-03 0.  1.
         11    1    4    4    0    0  0.23503406677E-01 -0.34732406174E-01  0.90716099335E-01  0.99942093052E-01  0.51100000000E-03 0. -1.
</event>
<event>
 8    1  0.1022673E+005  0.1043930E+01  0.7957747E-01            NaN
         13   -1    0    0    0    0  0.00000000000E+00  0.00000000000E+00  0.74505805969E-08  0.10566000000E+00  0.10566000000E+00 0. -1.
     999900   -1    0    0    0    0 -0.00000000000E+00 -0.00000000000E+00 -0.74505805969E-08  0.93827000000E+00  0.93827000000E+00 0.  1.
     999902    2    1    2    0    0  0.10272559270E-01 -0.14384969181E-01 -0.16133026772E-01  0.10199982770E+01  0.10197174892E+01 0.  0.
     999903    2    3    3    0    0  0.60522549342E-01  0.44331566741E-01  0.10270464309E+00  0.12865373932E+00  0.19371993691E-01 0.  0.
         14    1    1    2    0    0 -0.10272559270E-01  0.14384969181E-01  0.16133026772E-01  0.23931722987E-01  0.00000000000E+00 0. -1.
     999901    1    3    3    0    0 -0.50249990072E-01 -0.58716535923E-01 -0.11883766987E+00  0.89134453769E+00  0.88000000000E+00 0.  1.
        -11    1    4    4    0    0  0.52500924949E-01  0.36180051929E-01  0.73599259339E-01  0.97377899825E-01  0.51100000000E-03 0. -1.
         11    1    4    4    0    0  0.80216243933E-02  0.81515148128E-02  0.29105383756E-01  0.31275839497E-01  0.51100000000E-03 0.  1.
</event>
<event>
 8    1  0.1022673E+005  0.1043930E+01  0.7957747E-01            NaN
         13   -1    0    0    0    0  0.00000000000E+00  0.00000000000E+00  0.74505805969E-08  0.10566000000E+00  0.10566000000E+00 0.  1.
     999900   -1    0    0    0    0 -0.00000000000E+00 -0.00000000000E+00 -0.74505805969E-08  0.93827000000E+00  0.93827000000E+00 0.  1.
     999902    2    1    2    0    0  0.59670249965E-02 -0.27204222079E-02 -0.22658804849E-01  0.10203412840E+01  0.10200685802E+01 0.  0.
     999903    2    3    3    0    0 -0.26495506334E-01 -0.10328468020E+00  0.70042085346E-01  0.12918448470E+00  0.20322410001E-01 0.  0.
         14    1    1    2    0    0 -0.59670249965E-02  0.27204222079E-02  0.22658804849E-01  0.23588715978E-01  0.00000000000E+00 0.  1.
     999901    1    3    3    0    0  0.32462531330E-01  0.10056425799E+00 -0.92700890196E-01  0.89115679932E+00  0.88000000000E+00 0. -1.
        -11    1    4    4    0    0 -0.58543012833E-02 -0.58948385681E-01  0.43852906622E-01  0.73705654858E-01  0.51100000000E-03 0.  1.
         11    1    4    4    0    0 -0.20641205050E-01 -0.44336294522E-01  0.26189178725E-01  0.55478829846E-01  0.51100000000E-03 0. -1.
</event>
<event>
 8    1  0.1022673E+005  0.1043930E+01  0.7957747E-01            NaN
         13   -1    0    0    0    0  0.00000000000E+00  0.00000000000E+00  0.74505805969E-08  0.10566000000E+00  0.10566000000E+00 0. -1.
     999900   -1    0    0    0    0 -0.00000000000E+00 -0.00000000000E+00 -0.74505805969E-08  0.93827000000E+00  0.93827000000E+00 0. -1.
     999902    2    1    2    0    0  0.32139626522E-02 -0.23779495741E-01  0.63266966588E-03  0.10199259536E+01  0.10196434458E+01 0.  0.
     999903    2    3    3    0    0 -0.90967924816E-01  0.15223436852E-01 -0.88604245193E-01  0.12955822974E+00  0.20681060246E-01 0.  0.
         14    1    1    2    0    0 -0.32139626522E-02  0.23779495741E-01 -0.63266966588E-03  0.24004046420E-01  0.00000000000E+00 0.  1.
     999901    1    3    3    0    0  0.94181887468E-01 -0.39002932593E-01  0.89236914859E-01  0.89036772384E+00  0.88000000000E+00 0.  1.
        -11    1    4    4    0    0 -0.39718960397E-01  0.17062399483E-01 -0.39747708434E-01  0.58727018807E-01  0.51100000000E-03 0. -1.
         11    1    4    4    0    0 -0.51248964419E-01 -0.18389626315E-02 -0.48856536758E-01  0.70831210936E-01  0.51100000000E-03 0.  1.
</event>
<event>
 8    1  0.1022673E+005  0.1043930E+01  0.7957747E-01            NaN
         13   -1    0    0    0    0  0.00000000000E+00  0.00000000000E+00  0.74505805969E-08  0.10566000000E+00  0.10566000000E+00 0. -1.
     999900   -1    0    0    0    0 -0.00000000000E+00 -0.00000000000E+00 -0.74505805969E-08  0.93827000000E+00  0.93827000000E+00 0. -1.
     999902    2    1    2    0    0 -0.18470951890E-01 -0.14649320336E-01  0.12640297899E-02  0.10203211792E+01  0.10200480049E+01 0.  0.
     999903    2    3    3    0    0 -0.10545782798E+00  0.67437031251E-01  0.35247380756E-01  0.13158063554E+00  0.20049417273E-01 0.  0.
         14    1    1    2    0    0  0.18470951890E-01  0.14649320336E-01 -0.12640297899E-02  0.23608820838E-01  0.00000000000E+00 0.  1.
     999901    1    3    3    0    0  0.86986876093E-01 -0.82086351588E-01 -0.33983350966E-01  0.88874054362E+00  0.88000000000E+00 0.  1.
        -11    1    4    4    0    0 -0.26568815278E-01  0.95522498540E-02  0.22922937489E-02  0.28331310492E-01  0.51100000000E-03 0. -1.
         11    1    4    4    0    0 -0.78889012705E-01  0.57884781397E-01  0.32955087007E-01  0.10324932505E+00  0.51100000000E-03 0.  1.
</event>
<event>
 8    1  0.1467524E+005  0.1043930E+01  0.7957747E-01            NaN
         13   -1    0    0    0    0  0.00000000000E+00  0.00000000000E+00  0.74505805969E-08  0.10566000000E+00  0.10566000000E+00 0. -1.
     999900   -1    0    0    0    0 -0.00000000000E+00 -0.00000000000E+00 -0.74505805969E-08  0.93827000000E+00  0.93827000000E+00 0. -1.
     999902    2    1    2    0    0  0.16966326756E-01  0.10640660589E-02  0.14905430948E-01  0.10213211444E+01  0.10210708691E+01 0.  0.
     999903    2    3    3    0    0  0.53338224427E-01 -0.42732069053E-01 -0.11007382886E+00  0.13066923047E+00  0.16947096523E-01 0.  0.
         14    1    1    2    0    0 -0.16966326756E-01 -0.10640660589E-02 -0.14905430948E-01  0.22608855608E-01  0.00000000000E+00 0.  1.
     999901    1    3    3    0    0 -0.36371897670E-01  0.43796135112E-01  0.12497925981E+00  0.89065191392E+00  0.88000000000E+00 0.  1.
        -11    1    4    4    0    0  0.27010774917E-01 -0.24198709917E-01 -0.42903853693E-01  0.56179723264E-01  0.51100000000E-03 0. -1.
         11    1    4    4    0    0  0.26327449509E-01 -0.18533359136E-01 -0.67169975169E-01  0.74489507205E-01  0.51100000000E-03 0.  1.
</event>
<event>
 8    1  0.1022673E+005  0.1043930E+01  0.7957747E-01            NaN
         13   -1    0    0    0    0  0.00000000000E+00  0.00000000000E+00  0.74505805969E-08  0.10566000000E+00  0.10566000000E+00 0.  1.
     999900   -1    0    0    0    0 -0.00000000000E+00 -0.00000000000E+00 -0.74505805969E-08  0.93827000000E+00  0.93827000000E+00 0.  1.
     999902    2    1    2    0    0 -0.97555904542E-02 -0.14198220911E-01 -0.15964591396E-01  0.10204432122E+01  0.10201728874E+01 0.  0.
     999903    2    3    3    0    0 -0.10034631337E+00  0.16700255754E-01 -0.83012544097E-01  0.13271756602E+00  0.19354294230E-01 0.  0.
         14    1    1    2    0    0  0.97555904542E-02  0.14198220911E-01  0.15964591396E-01  0.23486787788E-01  0.00000000000E+00 0.  1.
     999901    1    3    3    0    0  0.90590722914E-01 -0.30898476665E-01  0.67047952701E-01  0.88772564619E+00  0.88000000000E+00 0. -1.
        -11    1    4    4    0    0 -0.42221139995E-01  0.15440796075E-02 -0.44486110549E-01  0.61353761067E-01  0.51100000000E-03 0. -1.
         11    1    4    4    0    0 -0.58125173373E-01  0.15156176146E-01 -0.38526433548E-01  0.71363804957E-01  0.51100000000E-03 0.  1.
</event>
<event>
 8    1  0.1022673E+005  0.1043930E+01  0.7957747E-01            NaN
         13   -1    0    0    0    0  0.00000000000E+00  0.00000000000E+00  0.74505805969E-08  0.10566000000E+00  0.10566000000E+00 0.  1.
     999900   -1    0    0    0    0 -0.00000000000E+00 -0.00000000000E+00 -0.74505805969E-08  0.93827000000E+00  0.93827000000E+00 0. -1.
     999902    2    1    2    0    0 -0.20853923731E-01 -0.11118022007E-01  0.17034802689E-02  0.10202361528E+01  0.10199609841E+01 0.  0.
     999903    2    3    3    0    0  0.28051854209E-01  0.39462510711E-01 -0.11817372269E+00  0.12932610733E+00  0.20396495423E-01 0.  0.
         14    1    1    2    0    0  0.20853923731E-01  0.11118022007E-01 -0.17034802689E-02  0.23693847162E-01  0.00000000000E+00 0. -1.
     999901    1    3    3    0    0 -0.48905777940E-01 -0.50580532719E-01  0.11987720296E+00  0.89091004551E+00  0.88000000000E+00 0.  1.
        -11    1    4    4    0    0  0.27963099845E-01  0.36190083324E-01 -0.11729702305E+00  0.12589880786E+00  0.51100000000E-03 0. -1.
         11    1    4    4    0    0  0.88754364808E-04  0.32724273874E-02 -0.87669963783E-03  0.34272994614E-02  0.51100000000E-03 0.  1.
</event>
<event>
 8    1  0.1022673E+005  0.1043930E+01  0.7957747E-01            NaN
         13   -1    0    0    0    0  0.00000000000E+00  0.00000000000E+00  0.74505805969E-08  0.10566000000E+00  0.10566000000E+00 0.  1.
     999900   -1    0    0    0    0 -0.00000000000E+00 -0.00000000000E+00 -0.74505805969E-08  0.93827000000E+00  0.93827000000E+00 0.  1.
     999902    2    1    2    0    0 -0.44241471960E-02 -0.21681281036E-01 -0.64161937742E-02  0.10208904998E+01  0.10206304885E+01 0.  0.
     999903    2    3    3    0    0 -0.11668222116E+00 -0.60445678515E-01 -0.25239844665E-02  0.13290418069E+00  0.19716235973E-01 0.  0.
         14    1    1    2    0    0  0.44241471960E-02  0.21681281036E-01  0.64161937742E-02  0.23039500175E-01  0.00000000000E+00 0. -1.
     999901    1    3    3    0    0  0.11225807396E+00  0.38764397479E-01 -0.38922093077E-02  0.88798631914E+00  0.88000000000E+00 0.  1.
        -11    1    4    4    0    0 -0.23619275984E-01 -0.84626798345E-02  0.65048910648E-02  0.25924156240E-01  0.51100000000E-03 0.  1.
         11    1    4    4    0    0 -0.93062945174E-01 -0.51982998681E-01 -0.90288755313E-02  0.10698002445E+00  0.51100000000E-03 0. -1.
</event>
<event>
 8    1  0.1022673E+005  0.1043930E+01  0.7957747E-01            NaN
         13   -1    0    0    0    0  0.00000000000E+00  0.00000000000E+00  0.74505805969E-08  0.10566000000E+00  0.10566000000E+00 0.  1.
     999900   -1    0    0    0    0 -0.00000000000E+00 -0.00000000000E+00 -0.74505805969E-08  0.93827000000E+00  0.93827000000E+00 0.  1.
     999902    2    1    2    0    0  0.11199601128E-01  0.19986807361E-01  0.14724096250E-02  0.10209719617E+01  0.10207138066E+01 0.  0.
     999903    2    3    3    0    0 -0.10510903057E+00 -0.20342223670E-02 -0.73623939218E-01  0.12987595945E+00  0.19880494180E-01 0.  0.
         14    1    1    2    0    0 -0.11199601128E-01 -0.19986807361E-01 -0.14724096250E-02  0.22958038332E-01  0.00000000000E+00 0. -1.
     999901    1    3    3    0    0  0.11630863170E+00  0.22021029728E-01  0.75096348843E-01  0.89109600222E+00  0.88000000000E+00 0. -1.
        -11    1    4    4    0    0 -0.91421603207E-01  0.16413807273E-02 -0.70225065317E-01  0.11529277767E+00  0.51100000000E-03 0.  1.
         11    1    4    4    0    0 -0.13687427366E-01 -0.36756030943E-02 -0.33988739007E-02  0.14583181779E-01  0.51100000000E-03 0. -1.
</event>
<event>
 8    1  0.1022673E+005  0.1043930E+01  0.7957747E-01            NaN
         13   -1    0    0    0    0  0.00000000000E+00  0.00000000000E+00  0.74505805969E-08  0.10566000000E+00  0.10566000000E+00 0.  1.
     999900   -1    0    0    0    0 -0.00000000000E+00 -0.00000000000E+00 -0.74505805969E-08  0.93827000000E+00  0.93827000000E+00 0. -1.
     999902    2    1    2    0    0  0.12149111013E-01 -0.18279444391E-02 -0.22677911191E-01  0.10181379482E+01  0.10178112063E+01 0.  0.
     999903    2    3    3    0    0  0.45644351130E-01  0.47803152596E-01  0.10623603178E+00  0.12673232697E+00  0.20160358689E-01 0.  0.
         14    1    1    2    0    0 -0.12149111013E-01  0.18279444391E-02  0.22677911191E-01  0.25792051785E-01  0.00000000000E+00 0.  1.
     999901    1    3    3    0    0 -0.33495240117E-01 -0.49631097035E-01 -0.12891394297E+00  0.89140562125E+00  0.88000000000E+00 0. -1.
        -11    1    4    4    0    0  0.37891897176E-01  0.37416284296E-01  0.68096854458E-01  0.86447769839E-01  0.51100000000E-03 0. -1.
         11    1    4    4    0    0  0.77524539543E-02  0.10386868300E-01  0.38139177318E-01  0.40284557127E-01  0.51100000000E-03 0.  1.
</event>
<event>
 8    1  0.1022673E+005  0.1043930E+01  0.7957747E-01            NaN
         13   -1    0    0    0    0  0.00000000000E+00  0.00000000000E+00  0.74505805969E-08  0.10566000000E+00  0.10566000000E+00 0.  1.
     999900   -1    0    0    0    0 -0.00000000000E+00 -0.00000000000E+00 -0.74505805969E-08  0.93827000000E+00  0.93827000000E+00 0. -1.
     999902    2    1    2    0    0  0.96807703294E-02 -0.10929436591E-01 -0.19011587067E-01  0.10199589687E+01  0.10196772467E+01 0.  0.
     999903    2    3    3    0    0 -0.11489919052E+00  0.45834064583E-01  0.26902072905E-01  0.12819087897E+00  0.20164187704E-01 0.  0.
         14    1    1    2    0    0 -0.96807703294E-02  0.10929436591E-01  0.19011587067E-01  0.23971031291E-01  0.00000000000E+00 0.  1.
     999901    1    3    3    0    0  0.12457996085E+00 -0.56763501174E-01 -0.45913659972E-01  0.89176808974E+00  0.88000000000E+00 0.  1.
        -11    1    4    4    0    0 -0.10686496208E+00  0.46438601775E-01  0.28514426746E-01  0.11995831571E+00  0.51100000000E-03 0.  1.
         11    1    4    4    0    0 -0.80342284406E-02 -0.60453719123E-03 -0.16123538408E-02  0.82325632557E-02  0.51100000000E-03 0. -1.
</event>
<event>
 8    1  0.1022673E+005  0.1043930E+01  0.7957747E-01            NaN
         13   -1    0    0    0    0  0.00000000000E+00  0.00000000000E+00  0.74505805969E-08  0.10566000000E+00  0.10566000000E+00 0. -1.
     999900   -1    0    0    0    0 -0.00000000000E+00 -0.00000000000E+00 -0.74505805969E-08  0.93827000000E+00  0.93827000000E+00 0. -1.
     999902    2    1    2    0    0 -0.11486103569E-01 -0.69096729871E-02 -0.19537830525E-01  0.10202360983E+01  0.10199609283E+01 0.  0.
     999903    2    3    3    0    0  0.85624866295E-01  0.62522622989E-01  0.68461726062E-01  0.12782626748E+00  0.20294102806E-01 0.  0.
         14    1    1    2    0    0  0.11486103569E-01  0.69096729871E-02  0.19537830525E-01  0.23693901697E-01  0.00000000000E+00 0. -1.
     999901    1    3    3    0    0 -0.97110969865E-01 -0.69432295976E-01 -0.87999556586E-01  0.89240983082E+00  0.88000000000E+00 0. -1.
        -11    1    4    4    0    0  0.64803774910E-01  0.35990693938E-01  0.49420504016E-01  0.89092685620E-01  0.51100000000E-03 0. -1.
         11    1    4    4    0    0  0.20821091386E-01  0.26531929051E-01  0.19041222045E-01  0.38733581859E-01  0.51100000000E-03 0.  1.
</event>
<event>
 8    1  0.1022673E+005  0.1043930E+01  0.7957747E-01            NaN
         13   -1    0    0    0    0  0.00000000000E+00  0.00000000000E+00  0.74505805969E-08  0.10566000000E+00  0.10566000000E+00 0. -1.
     999900   -1    0    0    0    0 -0.00000000000E+00 -0.00000000000E+00 -0.74505805969E-08  0.93827000000E+00  0.93827000000E+00 0. -1.
     999902    2    1    2    0    0 -0.20755390595E-01 -0.74405502976E-02  0.81437980595E-02  0.10204253308E+01  0.10201545894E+01 0.  0.
     999903    2    3    3    0    0  0.85280916155E-01  0.79747034362E-01  0.50533774096E-01  0.12877389479E+00  0.19915559366E-01 0.  0.
         14    1    1    2    0    0  0.20755390595E-01  0.74405502976E-02 -0.81437980595E-02  0.23504669203E-01  0.00000000000E+00 0.  1.
     999901    1    3    3    0    0 -0.10603630675E+00 -0.87187584660E-01 -0.42389976036E-01  0.89165143601E+00  0.88000000000E+00 0. -1.
        -11    1    4    4    0    0  0.39892869508E-01  0.26827175615E-01  0.27285380583E-01  0.55280118520E-01  0.51100000000E-03 0. -1.
         11    1    4    4    0    0  0.45388046647E-01  0.52919858748E-01  0.23248393513E-01  0.73493776269E-01  0.51100000000E-03 0.  1.
</event>
<event>
 8    1  0.1022673E+005  0.1043930E+01  0.7957747E-01            NaN
         13   -1    0    0    0    0  0.00000000000E+00  0.00000000000E+00  0.74505805969E-08  0.10566000000E+00  0.10566000000E+00 0.  1.
     999900   -1    0    0    0    0 -0.00000000000E+00 -0.00000000000E+00 -0.74505805969E-08  0.93827000000E+00  0.93827000000E+00 0.  1.
     999902    2    1    2    0    0  0.20016928863E-01  0.11736867510E-01 -0.60540212300E-02  0.10199491186E+01  0.10196671623E+01 0.  0.
     999903    2    3    3    0    0  0.40427710510E-01  0.84617947794E-01 -0.91655495601E-01  0.13256201913E+00  0.19425812130E-01 0.  0.
         14    1    1    2    0    0 -0.20016928863E-01 -0.11736867510E-01  0.60540212300E-02  0.23980881408E-01  0.00000000000E+00 0.  1.
     999901    1    3    3    0    0 -0.20410781647E-01 -0.72881080285E-01  0.85601474371E-01  0.88738709946E+00  0.88000000000E+00 0. -1.
        -11    1    4    4    0    0  0.30339704603E-01  0.43277604735E-01 -0.56432578601E-01  0.77319763292E-01  0.51100000000E-03 0. -1.
         11    1    4    4    0    0  0.10088005907E-01  0.41340343060E-01 -0.35222917000E-01  0.55242255841E-01  0.51100000000E-03 0.  1.
</event>
<event>
 8    1  0.1022673E+005  0.1043930E+01  0.7957747E-01            NaN
         13   -1    0    0    0    0  0.00000000000E+00  0.00000000000E+00  0.74505805969E-08  0.10566000000E+00  0.10566000000E+00 0.  1.
     999900   -1    0    0    0    0 -0.00000000000E+00 -0.00000000000E+00 -0.74505805969E-08  0.93827000000E+00  0.93827000000E+00 0. -1.
     999902    2    1    2    0    0  0.33758830853E-02  0.19388605477E-01  0.40826143461E-02  0.10238306879E+01  0.10236333792E+01 0.  0.
     999903    2    3    3    0    0 -0.10175496133E+00 -0.34844206832E-01 -0.74064393393E-01  0.13248302998E+00  0.22316539993E-01 0.  0.
         14    1    1    2    0    0 -0.33758830853E-02 -0.19388605477E-01 -0.40826143461E-02  0.20099312149E-01  0.00000000000E+00 0. -1.
     999901    1    3    3    0    0  0.10513084442E+00  0.54232812310E-01  0.78147007739E-01  0.89134765787E+00  0.88000000000E+00 0.  1.
        -11    1    4    4    0    0 -0.59572432253E-01 -0.31319168429E-01 -0.41465229919E-01  0.79053092343E-01  0.51100000000E-03 0. -1.
         11    1    4    4    0    0 -0.42182529082E-01 -0.35250384031E-02 -0.32599163473E-01  0.53429937634E-01  0.51100000000E-03 0.  1.
</event>
<event>
 8    1  0.1022673E+005  0.1043930E+01  0.7957747E-01            NaN
         13   -1    0    0    0    0  0.00000000000E+00  0.00000000000E+00  0.74505805969E-08  0.10566000000E+00  0.10566000000E+00 0.  1.
     999900   -1    0    0    0    0 -0.00000000000E+00 -0.00000000000E+00 -0.74505805969E-08  0.93827000000E+00  0.93827000000E+00 0.  1.
     999902    2    1    2    0    0  0.93151413001E-02  0.46028339087E-02 -0.21603199770E-01  0.10199580126E+01  0.10196762679E+01 0.  0.
     999903    2    3    3    0    0 -0.10932674168E+00  0.28735838744E-01 -0.62578986741E-01  0.13072389643E+00  0.19862594056E-01 0.  0.
         14    1    1    2    0    0 -0.93151413001E-02 -0.46028339087E-02  0.21603199770E-01  0.23971987355E-01  0.00000000000E+00 0.  1.
     999901    1    3    3    0    0  0.11864188298E+00 -0.24133004835E-01  0.40975786971E-01  0.88923411621E+00  0.88000000000E+00 0. -1.
        -11    1    4    4    0    0 -0.36761380086E-01  0.16367624835E-01 -0.30143997493E-01  0.50281407244E-01  0.51100000000E-03 0.  1.
         11    1    4    4    0    0 -0.72565361593E-01  0.12368213909E-01 -0.32434989248E-01  0.80442489189E-01  0.51100000000E-03 0. -1.
</event>
<event>
 8    1  0.1022673E+005  0.1043930E+01  0.7957747E-01            NaN
         13   -1    0    0    0    0  0.00000000000E+00  0.00000000000E+00  0.74505805969E-08  0.10566000000E+00  0.10566000000E+00 0. -1.
     999900   -1    0    0    0    0 -0.00000000000E+00 -0.00000000000E+00 -0.74505805969E-08  0.93827000000E+00  0.93827000000E+00 0. -1.
     999902    2    1    2    0    0 -0.16269728827E-02  0.25282288165E-01  0.36031908646E-02  0.10183404685E+01  0.10180189025E+01 0.  0.
     999903    2    3    3    0    0  0.88143516981E-01 -0.48529030620E-02 -0.90918281012E-01  0.12822745367E+00  0.19578452427E-01 0.  0.
         14    1    1    2    0    0  0.16269728827E-02 -0.25282288165E-01 -0.36031908646E-02  0.25589531454E-01  0.00000000000E+00 0. -1.
     999901    1    3    3    0    0 -0.89770489863E-01  0.30135191227E-01  0.94521471876E-01  0.89011301487E+00  0.88000000000E+00 0.  1.
        -11    1    4    4    0    0  0.18177734850E-01 -0.45631398924E-02 -0.30406732656E-01  0.35722301183E-01  0.51100000000E-03 0. -1.
         11    1    4    4    0    0  0.69965782131E-01 -0.28976316959E-03 -0.60511548355E-01  0.92505152490E-01  0.51100000000E-03 0.  1.
</event>
<event>
 7    1  0.1022673E+005  0.1043930E+01  0.7957747E-01            NaN
         13   -1    0    0    0    0  0.00000000000E+00  0.00000000000E+00  0.74505805969E-08  0.10566000000E+00  0.10566000000E+00 0. -1.
     999900   -1    0    0    0    0 -0.00000000000E+00 -0.00000000000E+00 -0.74505805969E-08  0.93827000000E+00  0.93827000000E+00 0.  1.
     999903    2    1    2    0    0 -0.49730932135E-01  0.70311440083E-01 -0.57188742677E-01  0.10565141086E+00  0.21790000246E-01 0.  0.
         14    1    1    2    0    0 -0.30555349122E-01 -0.31566541138E-01 -0.23992419098E-01  0.50057087945E-01  0.00000000000E+00 0.  1.
     999901    1    1    2    0    0  0.80286281257E-01 -0.38744898945E-01  0.81181161775E-01  0.88822150119E+00  0.88000000000E+00 0. -1.
        -11    1    3    3    0    0 -0.16908716059E-01  0.36843032958E-01 -0.35951897552E-01  0.54185918972E-01  0.51100000000E-03 0.  1.
         11    1    3    3    0    0 -0.32822216076E-01  0.33468407125E-01 -0.21236845125E-01  0.51465491890E-01  0.51100000000E-03 0. -1.
</event>
<event>
 8    1  0.1022673E+005  0.1043930E+01  0.7957747E-01            NaN
         13   -1    0    0    0    0  0.00000000000E+00  0.00000000000E+00  0.74505805969E-08  0.10566000000E+00  0.10566000000E+00 0.  1.
     999900   -1    0    0    0    0 -0.00000000000E+00 -0.00000000000E+00 -0.74505805969E-08  0.93827000000E+00  0.93827000000E+00 0.  1.
     999902    2    1    2    0    0 -0.10848609452E-01 -0.55698670322E-02  0.20751500242E-01  0.10198605067E+01  0.10195764378E+01 0.  0.
     999903    2    3    3    0    0 -0.78775227985E-01  0.40706917436E-01 -0.91391880924E-01  0.12894429053E+00  0.20287052267E-01 0.  0.
         14    1    1    2    0    0  0.10848609452E-01  0.55698670322E-02 -0.20751500242E-01  0.24069493308E-01  0.00000000000E+00 0. -1.
     999901    1    3    3    0    0  0.67926618532E-01 -0.46276784468E-01  0.11214338117E+00  0.89091621616E+00  0.88000000000E+00 0. -1.
        -11    1    4    4    0    0 -0.20545564338E-01  0.18235719780E-01 -0.37449466025E-01  0.46447662120E-01  0.51100000000E-03 0. -1.
         11    1    4    4    0    0 -0.58229663646E-01  0.22471197656E-01 -0.53942414899E-01  0.82496628407E-01  0.51100000000E-03 0.  1.
</event>
<event>
 8    1  0.1022673E+005  0.1043930E+01  0.7957747E-01            NaN
         13   -1    0    0    0    0  0.00000000000E+00  0.00000000000E+00  0.74505805969E-08  0.10566000000E+00  0.10566000000E+00 0. -1.
     999900   -1    0    0    0    0 -0.00000000000E+00 -0.00000000000E+00 -0.74505805969E-08  0.93827000000E+00  0.93827000000E+00 0.  1.
     999902    2    1    2    0    0  0.62942370167E-02  0.21800283859E-01  0.67265464818E-02  0.10202632253E+01  0.10199886925E+01 0.  0.
     999903    2    3    3    0    0  0.14975114632E-01  0.82282584823E-01  0.10167783356E+00  0.13304892580E+00  0.19208253303E-01 0.  0.
         14    1    1    2    0    0 -0.62942370167E-02 -0.21800283859E-01 -0.67265464818E-02  0.23666774675E-01  0.00000000000E+00 0.  1.
     999901    1    3    3    0    0 -0.86808776155E-02 -0.60482300964E-01 -0.94951287080E-01  0.88721429953E+00  0.88000000000E+00 0.  1.
        -11    1    4    4    0    0  0.70235980140E-02  0.14449155615E-01  0.30038938252E-01  0.34069164348E-01  0.51100000000E-03 0. -1.
         11    1    4    4    0    0  0.79515166182E-02  0.67833429208E-01  0.71638895310E-01  0.98979761451E-01  0.51100000000E-03 0.  1.
</event>
<event>
 8    1  0.1022673E+005  0.1043930E+01  0.7957747E-01            NaN
         13   -1    0    0    0    0  0.00000000000E+00  0.00000000000E+00  0.74505805969E-08  0.10566000000E+00  0.10566000000E+00 0. -1.
     999900   -1    0    0    0    0 -0.00000000000E+00 -0.00000000000E+00 -0.74505805969E-08  0.93827000000E+00  0.93827000000E+00 0.  1.
     999902    2    1    2    0    0 -0.10718973245E-01 -0.21086181873E-01  0.27754548467E-03  0.10202741237E+01  0.10199998465E+01 0.  0.
     999903    2    3    3    0    0  0.99436413644E-01 -0.64521124810E-01 -0.51530335361E-01  0.13083336676E+00  0.20283453631E-01 0.  0.
         14    1    1    2    0    0  0.10718973245E-01  0.21086181873E-01 -0.27754548467E-03  0.23655876329E-01  0.00000000000E+00 0.  1.
     999901    1    3    3    0    0 -0.11015538689E+00  0.43434942937E-01  0.51807880846E-01  0.88944075691E+00  0.88000000000E+00 0.  1.
        -11    1    4    4    0    0  0.42907858025E-01 -0.16125542728E-01 -0.19486570489E-01  0.49810691211E-01  0.51100000000E-03 0.  1.
         11    1    4    4    0    0  0.56528555619E-01 -0.48395582082E-01 -0.32043764872E-01  0.81022675553E-01  0.51100000000E-03 0. -1.
</event>
<event>
 8    1  0.1022673E+005  0.1043930E+01  0.7957747E-01            NaN
         13   -1    0    0    0    0  0.00000000000E+00  0.00000000000E+00  0.74505805969E-08  0.10566000000E+00  0.10566000000E+00 0.  1.
     999900   -1    0    0    0    0 -0.00000000000E+00 -0.00000000000E+00 -0.74505805969E-08  0.93827000000E+00  0.93827000000E+00 0.  1.
     999902    2    1    2    0    0  0.81291607486E-02  0.17270883086E-01 -0.12381360238E-01  0.10211777531E+01  0.10209242571E+01 0.  0.
     999903    2    3    3    0    0  0.97889264975E-01 -0.27221786101E-02 -0.87867043078E-01  0.13317173560E+00  0.20600374991E-01 0.  0.
         14    1    1    2    0    0 -0.81291607486E-02 -0.17270883086E-01  0.12381360238E-01  0.22752246887E-01  0.00000000000E+00 0. -1.
     999901    1    3    3    0    0 -0.89760104226E-01  0.19993061696E-01  0.75485682840E-01  0.88800601751E+00  0.88000000000E+00 0. -1.
        -11    1    4    4    0    0  0.38752473776E-01 -0.96704466317E-02 -0.28354599554E-01  0.48984856830E-01  0.51100000000E-03 0. -1.
         11    1    4    4    0    0  0.59136791199E-01  0.69482680217E-02 -0.59512443524E-01  0.84186878770E-01  0.51100000000E-03 0.  1.
</event>
<event>
 8    1  0.1022673E+005  0.1043930E+01  0.7957747E-01            NaN
         13   -1    0    0    0    0  0.00000000000E+00  0.00000000000E+00  0.74505805969E-08  0.10566000000E+00  0.10566000000E+00 0.  1.
     999900   -1    0    0    0    0 -0.00000000000E+00 -0.00000000000E+00 -0.74505805969E-08  0.93827000000E+00  0.93827000000E+00 0.  1.
     999902    2    1    2    0    0  0.18086198178E-01 -0.24232124541E-02  0.16659321554E-01  0.10192213878E+01  0.10189218428E+01 0.  0.
     999903    2    3    3    0    0  0.43442272572E-01 -0.78463595447E-01  0.94896016925E-01  0.13212159021E+00  0.20176563473E-01 0.  0.
         14    1    1    2    0    0 -0.18086198178E-01  0.24232124541E-02 -0.16659321554E-01  0.24708612219E-01  0.00000000000E+00 0.  1.
     999901    1    3    3    0    0 -0.25356074394E-01  0.76040382993E-01 -0.78236695371E-01  0.88709979757E+00  0.88000000000E+00 0.  1.
        -11    1    4    4    0    0  0.35915966165E-01 -0.52127677171E-01  0.55825723764E-01  0.84403933010E-01  0.51100000000E-03 0.  1.
         11    1    4    4    0    0  0.75263064076E-02 -0.26335918277E-01  0.39070293161E-01  0.47717657196E-01  0.51100000000E-03 0. -1.
</event>
<event>
 8    1  0.1022673E+005  0.1043930E+01  0.7957747E-01            NaN
         13   -1    0    0    0    0  0.00000000000E+00  0.00000000000E+00  0.74505805969E-08  0.10566000000E+00  0.10566000000E+00 0. -1.
     999900   -1    0    0    0    0 -0.00000000000E+00 -0.00000000000E+00 -0.74505805969E-08  0.93827000000E+00  0.93827000000E+00 0. -1.
     999902    2    1    2    0    0 -0.22421355723E-01  0.68026575315E-02  0.15836883060E-02  0.10204459328E+01  0.10201756714E+01 0.  0.
     999903    2    3    3    0    0 -0.82362888239E-01 -0.95248073189E-02  0.10268286667E+00  0.13248162201E+00  0.11543038980E-01 0.  0.
         14    1    1    2    0    0  0.22421355723E-01 -0.68026575315E-02 -0.15836883060E-02  0.23484067165E-01  0.00000000000E+00 0. -1.
     999901    1    3    3    0    0  0.59941532516E-01  0.16327464850E-01 -0.10109917837E+00  0.88796431082E+00  0.88000000000E+00 0. -1.
        -11    1    4    4    0    0 -0.55950084484E-02  0.17718610902E-03  0.32701694207E-02  0.65031256711E-02  0.51100000000E-03 0.  1.
         11    1    4    4    0    0 -0.76767879790E-01 -0.97019934279E-02  0.99412697254E-01  0.12597849634E+00  0.51100000000E-03 0. -1.
</event>
<event>
 8    1  0.1022673E+005  0.1043930E+01  0.7957747E-01            NaN
         13   -1    0    0    0    0  0.00000000000E+00  0.00000000000E+00  0.74505805969E-08  0.10566000000E+00  0.10566000000E+00 0. -1.
     999900   -1    0    0    0    0 -0.00000000000E+00 -0.00000000000E+00 -0.74505805969E-08  0.93827000000E+00  0.93827000000E+00 0.  1.
     999902    2    1    2    0    0  0.51747182575E-02  0.14428443317E-01  0.18266634818E-01  0.10200840856E+01  0.10198053315E+01 0.  0.
     999903    2    3    3    0    0  0.57321003330E-01 -0.37957318830E-01  0.11093127821E+00  0.13213688039E+00  0.20686981372E-01 0.  0.
         14    1    1    2    0    0 -0.51747182575E-02 -0.14428443317E-01 -0.18266634818E-01  0.23845914392E-01  0.00000000000E+00 0.  1.
     999901    1    3    3    0    0 -0.52146285073E-01  0.52385762147E-01 -0.92664643390E-01  0.88794720522E+00  0.88000000000E+00 0.  1.
        -11    1    4    4    0    0  0.50846572743E-01 -0.24377498872E-01  0.81913116470E-01  0.99446750484E-01  0.51100000000E-03 0.  1.
         11    1    4    4    0    0  0.64744305876E-02 -0.13579819958E-01  0.29018161738E-01  0.32690129905E-01  0.51100000000E-03 0. -1.
</event>
<event>
 8    1  0.1022673E+005  0.1043930E+01  0.7957747E-01            NaN
         13   -1    0    0    0    0  0.00000000000E+00  0.00000000000E+00  0.74505805969E-08  0.10566000000E+00  0.10566000000E+00 0.  1.
     999900   -1    0    0    0    0 -0.00000000000E+00 -0.00000000000E+00 -0.74505805969E-08  0.93827000000E+00  0.93827000000E+00 0.  1.
     999902    2    1    2    0    0 -0.72392357698E-02  0.11375170719E-01 -0.17460286560E-01  0.10218695682E+01  0.10216314168E+01 0.  0.
     999903    2    3    3    0    0 -0.22422836539E-01  0.39543051347E-01 -0.12525123384E+00  0.13471520761E+00  0.19846386988E-01 0.  0.
         14    1    1    2    0    0  0.72392357698E-02 -0.11375170719E-01  0.17460286560E-01  0.22060431777E-01  0.00000000000E+00 0. -1.
     999901    1    3    3    0    0  0.15183600769E-01 -0.28167880628E-01  0.10779094728E+00  0.88715436061E+00  0.88000000000E+00 0. -1.
        -11    1    4    4    0    0 -0.15016251505E-01  0.37341598400E-01 -0.89494292075E-01  0.98129364695E-01  0.51100000000E-03 0.  1.
         11    1    4    4    0    0 -0.74065850340E-02  0.22014529463E-02 -0.35756941763E-01  0.36585842920E-01  0.51100000000E-03 0. -1.
</event>
<event>
 8    1  0.1022673E+005  0.1043930E+01  0.7957747E-01            NaN
         13   -1    0    0    0    0  0.00000000000E+00  0.00000000000E+00  0.74505805969E-08  0.10566000000E+00  0.10566000000E+00 0. -1.
     999900   -1    0    0    0    0 -0.00000000000E+00 -0.00000000000E+00 -0.74505805969E-08  0.93827000000E+00  0.93827000000E+00 0. -1.
     999902    2    1    2    0    0 -0.16108649535E-01 -0.51568813688E-02  0.15628103073E-01  0.10209013305E+01  0.10206415663E+01 0.  0.
     999903    2    3    3    0    0 -0.21732595705E-01 -0.44083676842E-01  0.12256511035E+00  0.13355559868E+00  0.19980374931E-01 0.  0.
         14    1    1    2    0    0  0.16108649535E-01  0.51568813688E-02 -0.15628103073E-01  0.23028669544E-01  0.00000000000E+00 0. -1.
     999901    1    3    3    0    0  0.56239461696E-02  0.38926795473E-01 -0.10693700728E+00  0.88734573178E+00  0.88000000000E+00 0.  1.
        -11    1    4    4    0    0 -0.12877592208E-01 -0.67681244685E-02  0.29481361948E-01  0.32879350864E-01  0.51100000000E-03 0. -1.
         11    1    4    4    0    0 -0.88550034966E-02 -0.37315552373E-01  0.93083748406E-01  0.10067624782E+00  0.51100000000E-03 0.  1.
</event>
<event>
 8    1  0.1022673E+005  0.1043930E+01  0.7957747E-01            NaN
         13   -1    0    0    0    0  0.00000000000E+00  0.00000000000E+00  0.74505805969E-08  0.10566000000E+00  0.10566000000E+00 0. -1.
     999900   -1    0    0    0    0 -0.00000000000E+00 -0.00000000000E+00 -0.74505805969E-08  0.93827000000E+00  0.93827000000E+00 0. -1.
     999902    2    1    2    0    0  0.16719501887E-02 -0.11625834696E-01  0.20203144161E-01  0.10205607363E+01  0.10202931413E+01 0.  0.
     999903    2    3    3    0    0 -0.11105275811E-01  0.11912403147E+00 -0.42838249021E-01  0.12857811193E+00  0.19579409165E-01 0.  0.
         14    1    1    2    0    0 -0.16719501887E-02  0.11625834696E-01 -0.20203144161E-01  0.23369263655E-01  0.00000000000E+00 0.  1.
     999901    1    3    3    0    0  0.12777225999E-01 -0.13074986617E+00  0.63041393182E-01  0.89198262442E+00  0.88000000000E+00 0. -1.
        -11    1    4    4    0    0  0.53841634135E-02  0.40685441917E-01 -0.15952851775E-01  0.44034634101E-01  0.51100000000E-03 0. -1.
         11    1    4    4    0    0 -0.16489439224E-01  0.78438589553E-01 -0.26885397245E-01  0.84543477827E-01  0.51100000000E-03 0.  1.
</event>
<event>
 8    1  0.1022673E+005  0.1043930E+01  0.7957747E-01            NaN
         13   -1    0    0    0    0  0.00000000000E+00  0.00000000000E+00  0.74505805969E-08  0.10566000000E+00  0.10566000000E+00 0. -1.
     999900   -1    0    0    0    0 -0.00000000000E+00 -0.00000000000E+00 -0.74505805969E-08  0.93827000000E+00  0.93827000000E+00 0.  1.
     999902    2    1    2    0    0 -0.21458431885E-01 -0.45557622094E-02 -0.93847546410E-02  0.10200701407E+01  0.10197910565E+01 0.  0.
     999903    2    3    3    0    0  0.39915576146E-01  0.57405015943E-01  0.10576980332E+00  0.12829299410E+00  0.19576822187E-01 0.  0.
         14    1    1    2    0    0  0.21458431885E-01  0.45557622094E-02  0.93847546410E-02  0.23859859344E-01  0.00000000000E+00 0. -1.
     999901    1    3    3    0    0 -0.61374008030E-01 -0.61960778152E-01 -0.11515455796E+00  0.89177714655E+00  0.88000000000E+00 0.  1.
        -11    1    4    4    0    0  0.32454356264E-02 -0.23271532178E-03  0.14594775334E-02  0.36025275151E-02  0.51100000000E-03 0.  1.
         11    1    4    4    0    0  0.36670140519E-01  0.57637731265E-01  0.10431032579E+00  0.12469046659E+00  0.51100000000E-03 0. -1.
</event>
<event>
 8    1  0.1022673E+005  0.1043930E+01  0.7957747E-01            NaN
         13   -1    0    0    0    0  0.00000000000E+00  0.00000000000E+00  0.74505805969E-08  0.10566000000E+00  0.10566000000E+00 0.  1.
     999900   -1    0    0    0    0 -0.00000000000E+00 -0.00000000000E+00 -0.74505805969E-08  0.93827000000E+00  0.93827000000E+00 0. -1.
     999902    2    1    2    0    0  0.19323546539E-02 -0.24547283157E-01  0.17944053773E-02  0.10192414805E+01  0.10189424285E+01 0.  0.
     999903    2    3    3    0    0  0.12636013639E+00  0.19587040159E-01 -0.44775372095E-02  0.12937101316E+00  0.19138299227E-01 0.  0.
         14    1    1    2    0    0 -0.19323546539E-02  0.24547283157E-01 -0.17944053773E-02  0.24688519510E-01  0.00000000000E+00 0. -1.
     999901    1    3    3    0    0 -0.12442778173E+00 -0.44134323316E-01  0.62719425868E-02  0.88987046733E+00  0.88000000000E+00 0. -1.
        -11    1    4    4    0    0  0.44998627468E-01  0.13579973699E-01 -0.81344419540E-02  0.47704532558E-01  0.51100000000E-03 0. -1.
         11    1    4    4    0    0  0.81361508917E-01  0.60070664596E-02  0.36569047445E-02  0.81666480603E-01  0.51100000000E-03 0.  1.
</event>
<event>
 8    1  0.1022673E+005  0.1043930E+01  0.7957747E-01            NaN
         13   -1    0    0    0    0  0.00000000000E+00  0.00000000000E+00  0.74505805969E-08  0.10566000000E+00  0.10566000000E+00 0.  1.
     999900   -1    0    0    0    0 -0.00000000000E+00 -0.00000000000E+00 -0.74505805969E-08  0.93827000000E+00  0.93827000000E+00 0.  1.
     999902    2    1    2    0    0  0.18950275399E-01 -0.13285357305E-01  0.66234475511E-02  0.10198575320E+01  0.10195733921E+01 0.  0.
     999903    2    3    3    0    0  0.90368110382E-01  0.64769634947E-01 -0.65489156268E-01  0.13059192683E+00  0.20097780471E-01 0.  0.
         14    1    1    2    0    0 -0.18950275399E-01  0.13285357305E-01 -0.66234475511E-02  0.24072467964E-01  0.00000000000E+00 0. -1.
     999901    1    3    3    0    0 -0.71417834983E-01 -0.78054992252E-01  0.72112603820E-01  0.88926560520E+00  0.88000000000E+00 0. -1.
        -11    1    4    4    0    0  0.85097837851E-01  0.54839552512E-01 -0.62390465836E-01  0.11891951007E+00  0.51100000000E-03 0. -1.
         11    1    4    4    0    0  0.52702725309E-02  0.99300824353E-02 -0.30986904328E-02  0.11672416764E-01  0.51100000000E-03 0.  1.
</event>
<event>
 7    1  0.1022673E+005  0.1043930E+01  0.7957747E-01            NaN
         13   -1    0    0    0    0  0.00000000000E+00  0.00000000000E+00  0.74505805969E-08  0.10566000000E+00  0.10566000000E+00 0. -1.
     999900   -1    0    0    0    0 -0.00000000000E+00 -0.00000000000E+00 -0.74505805969E-08  0.93827000000E+00  0.93827000000E+00 0.  1.
     999903    2    1    2    0    0  0.72961006362E-01  0.53893440048E-02 -0.43647937850E-01  0.87642356467E-01  0.20583651045E-01 0.  0.
         14    1    1    2    0    0  0.36129298252E-01  0.27380183426E-01 -0.45810362281E-01  0.64448350863E-01  0.00000000000E+00 0.  1.
     999901    1    1    2    0    0 -0.10909030461E+00 -0.32769527430E-01  0.89458300130E-01  0.89183929267E+00  0.88000000000E+00 0.  1.
        -11    1    3    3    0    0  0.27727761633E-01 -0.72352592887E-02 -0.20812231562E-01  0.35420161572E-01  0.51100000000E-03 0.  1.
         11    1    3    3    0    0  0.45233244729E-01  0.12624603294E-01 -0.22835706288E-01  0.52222194895E-01  0.51100000000E-03 0. -1.
</event>
<event>
 8    1  0.1022673E+005  0.1043930E+01  0.7957747E-01            NaN
         13   -1    0    0    0    0  0.00000000000E+00  0.00000000000E+00  0.74505805969E-08  0.10566000000E+00  0.10566000000E+00 0. -1.
     999900   -1    0    0    0    0 -0.00000000000E+00 -0.00000000000E+00 -0.74505805969E-08  0.93827000000E+00  0.93827000000E+00 0.  1.
     999902    2    1    2    0    0 -0.10805797835E-01  0.19676535934E-01  0.75707824994E-02  0.10202393250E+01  0.10199642309E+01 0.  0.
     999903    2    3    3    0    0 -0.10244296844E+00  0.58003464534E-01  0.59512452924E-01  0.13312926329E+00  0.17963992069E-01 0.  0.
         14    1    1    2    0    0  0.10805797835E-01 -0.19676535934E-01 -0.75707824994E-02  0.23690674977E-01  0.00000000000E+00 0. -1.
     999901    1    3    3    0    0  0.91637170608E-01 -0.38326928600E-01 -0.51941670425E-01  0.88711006173E+00  0.88000000000E+00 0. -1.
        -11    1    4    4    0    0 -0.75896769637E-01  0.50282531978E-01  0.40973252177E-01  0.99838475441E-01  0.51100000000E-03 0. -1.
         11    1    4    4    0    0 -0.26546198806E-01  0.77209325558E-02  0.18539200747E-01  0.33290787854E-01  0.51100000000E-03 0.  1.
</event>
<event>
 8    1  0.1022673E+005  0.1043930E+01  0.7957747E-01            NaN
         13   -1    0    0    0    0  0.00000000000E+00  0.00000000000E+00  0.74505805969E-08  0.10566000000E+00  0.10566000000E+00 0.  1.
     999900   -1    0    0    0    0 -0.00000000000E+00 -0.00000000000E+00 -0.74505805969E-08  0.93827000000E+00  0.93827000000E+00 0. -1.
     999902    2    1    2    0    0  0.19344493666E-01 -0.25975712800E-01  0.10251939991E-01  0.10099586979E+01  0.10093872013E+01 0.  0.
     999903    2    3    3    0    0  0.29910796383E-01  0.13671838055E-01 -0.11402304315E+00  0.12028019056E+00  0.19608543437E-01 0.  0.
         14    1    1    2    0    0 -0.19344493666E-01  0.25975712800E-01 -0.10251939991E-01  0.33971302068E-01  0.00000000000E+00 0. -1.
     999901    1    3    3    0    0 -0.10566302717E-01 -0.39647550855E-01  0.12427498314E+00  0.88967850737E+00  0.88000000000E+00 0.  1.
        -11    1    4    4    0    0  0.19748555553E-01  0.10038732459E-02 -0.41690288475E-01  0.46144929104E-01  0.51100000000E-03 0.  1.
         11    1    4    4    0    0  0.10162240830E-01  0.12667964809E-01 -0.72332754677E-01  0.74135261457E-01  0.51100000000E-03 0. -1.
</event>
<event>
 8    1  0.1022673E+005  0.1043930E+01  0.7957747E-01            NaN
         13   -1    0    0    0    0  0.00000000000E+00  0.00000000000E+00  0.74505805969E-08  0.10566000000E+00  0.10566000000E+00 0. -1.
     999900   -1    0    0    0    0 -0.00000000000E+00 -0.00000000000E+00 -0.74505805969E-08  0.93827000000E+00  0.93827000000E+00 0.  1.
     999902    2    1    2    0    0 -0.23973123533E-01 -0.10560066922E-02  0.30140650849E-02  0.10197450793E+01  0.10194582465E+01 0.  0.
     999903    2    3    3    0    0  0.88256505981E-01 -0.73813116289E-01 -0.53344047040E-01  0.12785645196E+00  0.16251091302E-01 0.  0.
         14    1    1    2    0    0  0.23973123533E-01  0.10560066922E-02 -0.30140650849E-02  0.24184920723E-01  0.00000000000E+00 0.  1.
     999901    1    3    3    0    0 -0.11222962951E+00  0.72757109597E-01  0.56358112125E-01  0.89188862732E+00  0.88000000000E+00 0.  1.
        -11    1    4    4    0    0  0.36667201080E-01 -0.20517744881E-01 -0.19263118897E-01  0.46225429805E-01  0.51100000000E-03 0. -1.
         11    1    4    4    0    0  0.51589304901E-01 -0.53295371407E-01 -0.34080928144E-01  0.81631022153E-01  0.51100000000E-03 0.  1.
</event>
<event>
 8    1  0.1022673E+005  0.1043930E+01  0.7957747E-01            NaN
         13   -1    0    0    0    0  0.00000000000E+00  0.00000000000E+00  0.74505805969E-08  0.10566000000E+00  0.10566000000E+00 0.  1.
     999900   -1    0    0    0    0 -0.00000000000E+00 -0.00000000000E+00 -0.74505805969E-08  0.93827000000E+00  0.93827000000E+00 0. -1.
     999902    2    1    2    0    0 -0.17459179133E-01 -0.15767492763E-01  0.58628434447E-02  0.10196852130E+01  0.10193969413E+01 0.  0.
     999903    2    3    3    0    0 -0.50213237907E-01 -0.35567457073E-01 -0.11388941967E+00  0.13075019204E+00  0.18395639213E-01 0.  0.
         14    1    1    2    0    0  0.17459179133E-01  0.15767492763E-01 -0.58628434447E-02  0.24244787013E-01  0.00000000000E+00 0. -1.
     999901    1    3    3    0    0  0.32754058774E-01  0.19799964310E-01  0.11975226311E+00  0.88893502095E+00  0.88000000000E+00 0.  1.
        -11    1    4    4    0    0 -0.30363537803E-01 -0.25659764923E-01 -0.55373199928E-01  0.68167590210E-01  0.51100000000E-03 0. -1.
         11    1    4    4    0    0 -0.19849700104E-01 -0.99076921506E-02 -0.58516219737E-01  0.62582601826E-01  0.51100000000E-03 0.  1.
</event>
<event>
 8    1  0.1022673E+005  0.1043930E+01  0.7957747E-01            NaN
         13   -1    0    0    0    0  0.00000000000E+00  0.00000000000E+00  0.74505805969E-08  0.10566000000E+00  0.10566000000E+00 0.  1.
     999900   -1    0    0    0    0 -0.00000000000E+00 -0.00000000000E+00 -0.74505805969E-08  0.93827000000E+00  0.93827000000E+00 0. -1.
     999902    2    1    2    0    0  0.61209768727E-02  0.21497911751E-01 -0.21013307555E-02  0.10214791168E+01  0.10212323652E+01 0.  0.
     999903    2    3    3    0    0  0.78922188543E-01  0.10173931193E+00 -0.33189960966E-01  0.13428962085E+00  0.18775764218E-01 0.  0.
         14    1    1    2    0    0 -0.61209768727E-02 -0.21497911751E-01  0.21013307555E-02  0.22450883245E-01  0.00000000000E+00 0.  1.
     999901    1    3    3    0    0 -0.72801211670E-01 -0.80241400178E-01  0.31088630210E-01  0.88718949591E+00  0.88000000000E+00 0. -1.
        -11    1    4    4    0    0  0.95047361808E-02  0.23704485725E-01 -0.89810645534E-02  0.27076988290E-01  0.51100000000E-03 0.  1.
         11    1    4    4    0    0  0.69417452362E-01  0.78034826204E-01 -0.24208896412E-01  0.10721263256E+00  0.51100000000E-03 0. -1.
</event>
<event>
 8    1  0.1022673E+005  0.1043930E+01  0.7957747E-01            NaN
         13   -1    0    0    0    0  0.00000000000E+00  0.00000000000E+00  0.74505805969E-08  0.10566000000E+00  0.10566000000E+00 0.  1.
     999900   -1    0    0    0    0 -0.00000000000E+00 -0.00000000000E+00 -0.74505805969E-08  0.93827000000E+00  0.93827000000E+00 0.  1.
     999902    2    1    2    0    0  0.13791529957E-01  0.21008132358E-01  0.50554033769E-03  0.10187942984E+01  0.10184841771E+01 0.  0.
     999903    2    3    3    0    0 -0.66913799262E-01  0.10950848694E+00 -0.10508998706E-01  0.13061245723E+00  0.21899992799E-01 0.  0.
         14    1    1    2    0    0 -0.13791529957E-01 -0.21008132358E-01 -0.50554033769E-03  0.25135701597E-01  0.00000000000E+00 0. -1.
     999901    1    3    3    0    0  0.80705329220E-01 -0.88500354586E-01  0.11014539043E-01  0.88818184118E+00  0.88000000000E+00 0. -1.
        -11    1    4    4    0    0 -0.32928942027E-01  0.73859401884E-01 -0.45327864220E-02  0.80995887201E-01  0.51100000000E-03 0. -1.
         11    1    4    4    0    0 -0.33984857235E-01  0.35649085060E-01 -0.59762122835E-02  0.49616570026E-01  0.51100000000E-03 0.  1.
</event>
<event>
 8    1  0.1022673E+005  0.1043930E+01  0.7957747E-01            NaN
         13   -1    0    0    0    0  0.00000000000E+00  0.00000000000E+00  0.74505805969E-08  0.10566000000E+00  0.10566000000E+00 0.  1.
     999900   -1    0    0    0    0 -0.00000000000E+00 -0.00000000000E+00 -0.74505805969E-08  0.93827000000E+00  0.93827000000E+00 0. -1.
     999902    2    1    2    0    0 -0.12460612202E-01  0.13420073413E-01 -0.21783735170E-01  0.10154713222E+01  0.10150724653E+01 0.  0.
     999903    2    3    3    0    0 -0.98271325981E-01  0.77335002188E-01  0.19434156402E-01  0.12803258550E+00  0.19408772299E-01 0.  0.
         14    1    1    2    0    0  0.12460612202E-01 -0.13420073413E-01  0.21783735170E-01  0.28458677847E-01  0.00000000000E+00 0.  1.
     999901    1    3    3    0    0  0.85810713779E-01 -0.63914928776E-01 -0.41217891572E-01  0.88743873665E+00  0.88000000000E+00 0. -1.
        -11    1    4    4    0    0 -0.47499743012E-01  0.25665042069E-01  0.11000084810E-01  0.55101569465E-01  0.51100000000E-03 0.  1.
         11    1    4    4    0    0 -0.50771582969E-01  0.51669960119E-01  0.84340715919E-02  0.72931016039E-01  0.51100000000E-03 0. -1.
</event>
<event>
 8    1  0.1022673E+005  0.1043930E+01  0.7957747E-01            NaN
         13   -1    0    0    0    0  0.00000000000E+00  0.00000000000E+00  0.74505805969E-08  0.10566000000E+00  0.10566000000E+00 0. -1.
     999900   -1    0    0    0    0 -0.00000000000E+00 -0.00000000000E+00 -0.74505805969E-08  0.93827000000E+00  0.93827000000E+00 0. -1.
     999902    2    1    2    0    0  0.17400373622E-01 -0.11279628159E-01 -0.11770655482E-01  0.10200856853E+01  0.10198069690E+01 0.  0.
     999903    2    3    3    0    0 -0.68003060861E-01  0.10620754088E+00 -0.10172495608E-01  0.12817787860E+00  0.20533652118E-01 0.  0.
         14    1    1    2    0    0 -0.17400373622E-01  0.11279628159E-01  0.11770655482E-01  0.23844314712E-01  0.00000000000E+00 0.  1.
     999901    1    3    3    0    0  0.85403434484E-01 -0.11748716904E+00 -0.15981598742E-02  0.89190780669E+00  0.88000000000E+00 0.  1.
        -11    1    4    4    0    0 -0.61909287754E-01  0.81916412125E-01 -0.95094242232E-02  0.10312006961E+00  0.51100000000E-03 0.  1.
         11    1    4    4    0    0 -0.60937731075E-02  0.24291128758E-01 -0.66307138447E-03  0.25057808996E-01  0.51100000000E-03 0. -1.
</event>
<event>
 8    1  0.1022673E+005  0.1043930E+01  0.7957747E-01            NaN
         13   -1    0    0    0    0  0.00000000000E+00  0.00000000000E+00  0.74505805969E-08  0.10566000000E+00  0.10566000000E+00 0. -1.
     999900   -1    0    0    0    0 -0.00000000000E+00 -0.00000000000E+00 -0.74505805969E-08  0.93827000000E+00  0.93827000000E+00 0. -1.
     999902    2    1    2    0    0 -0.12712948936E-01  0.92355894861E-02  0.16716326759E-01  0.10209876644E+01  0.10207298663E+01 0.  0.
     999903    2    3    3    0    0 -0.10311745798E-01  0.57145300544E-02 -0.12702045539E+00  0.12931596123E+00  0.21199853428E-01 0.  0.
         14    1    1    2    0    0  0.12712948936E-01 -0.92355894861E-02 -0.16716326759E-01  0.22942335629E-01  0.00000000000E+00 0.  1.
     999901    1    3    3    0    0 -0.24012031388E-02  0.35210594317E-02  0.14373678215E+00  0.89167170314E+00  0.88000000000E+00 0.  1.
        -11    1    4    4    0    0 -0.41427209606E-02  0.84849178837E-02 -0.20455292447E-01  0.22535218626E-01  0.51100000000E-03 0.  1.
         11    1    4    4    0    0 -0.61690248371E-02 -0.27703878293E-02 -0.10656516295E+00  0.10678074260E+00  0.51100000000E-03 0. -1.
</event>
<event>
 8    1  0.1022673E+005  0.1043930E+01  0.7957747E-01            NaN
         13   -1    0    0    0    0  0.00000000000E+00  0.00000000000E+00  0.74505805969E-08  0.10566000000E+00  0.10566000000E+00 0.  1.
     999900   -1    0    0    0    0 -0.00000000000E+00 -0.00000000000E+00 -0.74505805969E-08  0.93827000000E+00  0.93827000000E+00 0.  1.
     999902    2    1    2    0    0 -0.18781787230E-01  0.87197274526E-02  0.10308923554E-01  0.10207985694E+01  0.10205364551E+01 0.  0.
     999903    2    3    3    0    0  0.11323391686E+00  0.48581626917E-01  0.35089301440E-01  0.12971429485E+00  0.20308737314E-01 0.  0.
         14    1    1    2    0    0  0.18781787230E-01 -0.87197274526E-02 -0.10308923554E-01  0.23131430636E-01  0.00000000000E+00 0. -1.
     999901    1    3    3    0    0 -0.13201570409E+00 -0.39861899465E-01 -0.24780377886E-01  0.89108427451E+00  0.88000000000E+00 0.  1.
        -11    1    4    4    0    0  0.92717459909E-01  0.33262022602E-01  0.33537399767E-01  0.10405723340E+00  0.51100000000E-03 0. -1.
         11    1    4    4    0    0  0.20516456953E-01  0.15319604315E-01  0.15519016724E-02  0.25657061447E-01  0.51100000000E-03 0.  1.
</event>
<event>
 8    1  0.1022673E+005  0.1043930E+01  0.7957747E-01            NaN
         13   -1    0    0    0    0  0.00000000000E+00  0.00000000000E+00  0.74505805969E-08  0.10566000000E+00  0.10566000000E+00 0. -1.
     999900   -1    0    0    0    0 -0.00000000000E+00 -0.00000000000E+00 -0.74505805969E-08  0.93827000000E+00  0.93827000000E+00 0. -1.
     999902    2    1    2    0    0  0.16073107848E-01 -0.11695015484E-01 -0.12045468933E-01  0.10206875495E+01  0.10204228840E+01 0.  0.
     999903    2    3    3    0    0  0.62761104663E-01  0.40133247800E-01 -0.10778185964E+00  0.13275095581E+00  0.21360083424E-01 0.  0.
         14    1    1    2    0    0 -0.16073107848E-01  0.11695015484E-01  0.12045468933E-01  0.23242450492E-01  0.00000000000E+00 0. -1.
     999901    1    3    3    0    0 -0.46687996816E-01 -0.51828263283E-01  0.95736390706E-01  0.88793659370E+00  0.88000000000E+00 0.  1.
        -11    1    4    4    0    0  0.23336851741E-01  0.26212474420E-01 -0.57369962722E-01  0.67255306171E-01  0.51100000000E-03 0. -1.
         11    1    4    4    0    0  0.39424252922E-01  0.13920773380E-01 -0.50411896918E-01  0.65495649640E-01  0.51100000000E-03 0.  1.
</event>
<event>
 8    1  0.1022673E+005  0.1043930E+01  0.7957747E-01            NaN
         13   -1    0    0    0    0  0.00000000000E+00  0.00000000000E+00  0.74505805969E-08  0.10566000000E+00  0.10566000000E+00 0. -1.
     999900   -1    0    0    0    0 -0.00000000000E+00 -0.00000000000E+00 -0.74505805969E-08  0.93827000000E+00  0.93827000000E+00 0.  1.
     999902    2    1    2    0    0  0.94979972153E-02  0.52509128813E-02  0.20316686868E-01  0.10208962899E+01  0.10206364107E+01 0.  0.
     999903    2    3    3    0    0 -0.11146935429E+00 -0.52723577319E-01 -0.32873113582E-01  0.12914335518E+00  0.19803334075E-01 0.  0.
         14    1    1    2    0    0 -0.94979972153E-02 -0.52509128813E-02 -0.20316686868E-01  0.23033710133E-01  0.00000000000E+00 0.  1.
     999901    1    3    3    0    0  0.12096735151E+00  0.57974490201E-01  0.53189800450E-01  0.89175293468E+00  0.88000000000E+00 0. -1.
        -11    1    4    4    0    0 -0.37332220544E-01 -0.27735143282E-01 -0.15247923264E-01  0.48945818499E-01  0.51100000000E-03 0. -1.
         11    1    4    4    0    0 -0.74137133746E-01 -0.24988434037E-01 -0.17625190318E-01  0.80197536686E-01  0.51100000000E-03 0.  1.
</event>
<event>
 8    1  0.1022673E+005  0.1043930E+01  0.7957747E-01            NaN
         13   -1    0    0    0    0  0.00000000000E+00  0.00000000000E+00  0.74505805969E-08  0.10566000000E+00  0.10566000000E+00 0.  1.
     999900   -1    0    0    0    0 -0.00000000000E+00 -0.00000000000E+00 -0.74505805969E-08  0.93827000000E+00  0.93827000000E+00 0.  1.
     999902    2    1    2    0    0  0.11211064474E-01 -0.16013886086E-01  0.12986803260E-01  0.10204610935E+01  0.10201911849E+01 0.  0.
     999903    2    3    3    0    0  0.11257752676E+00 -0.44162540165E-01 -0.48986039585E-01  0.13203093885E+00  0.20211562416E-01 0.  0.
         14    1    1    2    0    0 -0.11211064474E-01  0.16013886086E-01 -0.12986803260E-01  0.23468906518E-01  0.00000000000E+00 0. -1.
     999901    1    3    3    0    0 -0.10136646229E+00  0.28148654079E-01  0.61972842845E-01  0.88843015463E+00  0.88000000000E+00 0. -1.
        -11    1    4    4    0    0  0.43681210313E-01 -0.17303130244E-01 -0.29780774601E-01  0.55629148002E-01  0.51100000000E-03 0. -1.
         11    1    4    4    0    0  0.68896316447E-01 -0.26859409921E-01 -0.19205264984E-01  0.76401790852E-01  0.51100000000E-03 0.  1.
</event>
<event>
 8    1  0.1022673E+005  0.1043930E+01  0.7957747E-01            NaN
         13   -1    0    0    0    0  0.00000000000E+00  0.00000000000E+00  0.74505805969E-08  0.10566000000E+00  0.10566000000E+00 0.  1.
     999900   -1    0    0    0    0 -0.00000000000E+00 -0.00000000000E+00 -0.74505805969E-08  0.93827000000E+00  0.93827000000E+00 0. -1.
     999902    2    1    2    0    0  0.44428762707E-02 -0.16227704671E-01  0.16174243700E-01  0.10205915402E+01  0.10203246582E+01 0.  0.
     999903    2    3    3    0    0  0.10694093208E+00  0.30562027821E-01 -0.64109963745E-01  0.12978253455E+00  0.19053039756E-01 0.  0.
         14    1    1    2    0    0 -0.44428762707E-02  0.16227704671E-01 -0.16174243700E-01  0.23338459840E-01  0.00000000000E+00 0. -1.
     999901    1    3    3    0    0 -0.10249805581E+00 -0.46789732492E-01  0.80284207444E-01  0.89080900561E+00  0.88000000000E+00 0.  1.
        -11    1    4    4    0    0  0.42091096842E-01  0.98409583039E-02 -0.14697901545E-01  0.45659548011E-01  0.51100000000E-03 0.  1.
         11    1    4    4    0    0  0.64849835238E-01  0.20721069517E-01 -0.49412062200E-01  0.84122986539E-01  0.51100000000E-03 0. -1.
</event>
<event>
 8    1  0.1022673E+005  0.1043930E+01  0.7957747E-01            NaN
         13   -1    0    0    0    0  0.00000000000E+00  0.00000000000E+00  0.74505805969E-08  0.10566000000E+00  0.10566000000E+00 0.  1.
     999900   -1    0    0    0    0 -0.00000000000E+00 -0.00000000000E+00 -0.74505805969E-08  0.93827000000E+00  0.93827000000E+00 0.  1.
     999902    2    1    2    0    0 -0.17036157486E-02  0.22781558470E-01  0.94412239123E-02  0.10192108086E+01  0.10189110040E+01 0.  0.
     999903    2    3    3    0    0 -0.83067316520E-01 -0.78227504298E-01 -0.53412084627E-01  0.12748583928E+00  0.19495305357E-01 0.  0.
         14    1    1    2    0    0  0.17036157486E-02 -0.22781558470E-01 -0.94412239123E-02  0.24719191369E-01  0.00000000000E+00 0. -1.
     999901    1    3    3    0    0  0.81363700772E-01  0.10100906277E+00  0.62853308540E-01  0.89172496935E+00  0.88000000000E+00 0.  1.
        -11    1    4    4    0    0 -0.66738538593E-01 -0.67973010435E-01 -0.50980833757E-01  0.10804475560E+00  0.51100000000E-03 0. -1.
         11    1    4    4    0    0 -0.16328777927E-01 -0.10254493863E-01 -0.24312508704E-02  0.19441083683E-01  0.51100000000E-03 0.  1.
</event>
<event>
 8    1  0.1022673E+005  0.1043930E+01  0.7957747E-01            NaN
         13   -1    0    0    0    0  0.00000000000E+00  0.00000000000E+00  0.74505805969E-08  0.10566000000E+00  0.10566000000E+00 0. -1.
     999900   -1    0    0    0    0 -0.00000000000E+00 -0.00000000000E+00 -0.74505805969E-08  0.93827000000E+00  0.93827000000E+00 0. -1.
     999902    2    1    2    0    0  0.13933640837E-01 -0.23441009579E-01  0.61954310943E-02  0.10159655468E+01  0.10155806131E+01 0.  0.
     999903    2    3    3    0    0 -0.80494664352E-01  0.21319071783E-01 -0.90651359443E-01  0.12450636626E+00  0.18715567318E-01 0.  0.
         14    1    1    2    0    0 -0.13933640837E-01  0.23441009579E-01 -0.61954310943E-02  0.27964453213E-01  0.00000000000E+00 0.  1.
     999901    1    3    3    0    0  0.94428305190E-01 -0.44760081362E-01  0.96846790538E-01  0.89145918052E+00  0.88000000000E+00 0. -1.
        -11    1    4    4    0    0 -0.57050714977E-01  0.19989905869E-01 -0.54489205553E-01  0.81386209266E-01  0.51100000000E-03 0. -1.
         11    1    4    4    0    0 -0.23443949376E-01  0.13291659146E-02 -0.36162153890E-01  0.43120156996E-01  0.51100000000E-03 0.  1.
</event>
<event>
 8    1  0.1022673E+005  0.1043930E+01  0.7957747E-01            NaN
         13   -1    0    0    0    0  0.00000000000E+00  0.00000000000E+00  0.74505805969E-08  0.10566000000E+00  0.10566000000E+00 0. -1.
     999900   -1    0    0    0    0 -0.00000000000E+00 -0.00000000000E+00 -0.74505805969E-08  0.93827000000E+00  0.93827000000E+00 0.  1.
     999902    2    1    2    0    0 -0.90788610787E-02  0.39317819945E-02 -0.21228459910E-01  0.10205092370E+01  0.10202404475E+01 0.  0.
     999903    2    3    3    0    0 -0.89475279912E-01 -0.29646736570E-01 -0.93808106098E-01  0.13323312098E+00  0.81454926790E-02 0.  0.
         14    1    1    2    0    0  0.90788610787E-02 -0.39317819945E-02  0.21228459910E-01  0.23420762974E-01  0.00000000000E+00 0. -1.
     999901    1    3    3    0    0  0.80396418833E-01  0.33578518565E-01  0.72579646187E-01  0.88727611605E+00  0.88000000000E+00 0. -1.
        -11    1    4    4    0    0 -0.52097817950E-01 -0.13786449167E-01 -0.56667622692E-01  0.78203129083E-01  0.51100000000E-03 0. -1.
         11    1    4    4    0    0 -0.37377461962E-01 -0.15860287404E-01 -0.37140483405E-01  0.55029991894E-01  0.51100000000E-03 0.  1.
</event>
<event>
 8    1  0.1022673E+005  0.1043930E+01  0.7957747E-01            NaN
         13   -1    0    0    0    0  0.00000000000E+00  0.00000000000E+00  0.74505805969E-08  0.10566000000E+00  0.10566000000E+00 0.  1.
     999900   -1    0    0    0    0 -0.00000000000E+00 -0.00000000000E+00 -0.74505805969E-08  0.93827000000E+00  0.93827000000E+00 0. -1.
     999902    2    1    2    0    0 -0.19039222920E-01 -0.82161042444E-02  0.11138642045E-01  0.10203913993E+01  0.10201198665E+01 0.  0.
     999903    2    3    3    0    0  0.19754866445E-01 -0.11606912111E+00 -0.53358366267E-01  0.13061776585E+00  0.18750730156E-01 0.  0.
         14    1    1    2    0    0  0.19039222920E-01  0.82161042444E-02 -0.11138642045E-01  0.23538600744E-01  0.00000000000E+00 0. -1.
     999901    1    3    3    0    0 -0.38794089366E-01  0.10785301687E+00  0.64497008313E-01  0.88977363340E+00  0.88000000000E+00 0.  1.
        -11    1    4    4    0    0  0.43701603709E-02 -0.38730330792E-01 -0.84995207514E-02  0.39895360619E-01  0.51100000000E-03 0. -1.
         11    1    4    4    0    0  0.15384706074E-01 -0.77338790321E-01 -0.44858845516E-01  0.90722405234E-01  0.51100000000E-03 0.  1.
</event>
<event>
 8    1  0.1022673E+005  0.1043930E+01  0.7957747E-01            NaN
         13   -1    0    0    0    0  0.00000000000E+00  0.00000000000E+00  0.74505805969E-08  0.10566000000E+00  0.10566000000E+00 0.  1.
     999900   -1    0    0    0    0 -0.00000000000E+00 -0.00000000000E+00 -0.74505805969E-08  0.93827000000E+00  0.93827000000E+00 0.  1.
     999902    2    1    2    0    0 -0.20766818658E-01 -0.11612790489E-01 -0.25127099353E-02  0.10200044619E+01  0.10197238209E+01 0.  0.
     999903    2    3    3    0    0 -0.10083945376E+00  0.55811839274E-01 -0.60917008076E-01  0.13187791148E+00  0.19933510118E-01 0.  0.
         14    1    1    2    0    0  0.20766818658E-01  0.11612790489E-01  0.25127099353E-02  0.23925538058E-01  0.00000000000E+00 0. -1.
     999901    1    3    3    0    0  0.80072635105E-01 -0.67424629762E-01  0.58404298140E-01  0.88812655046E+00  0.88000000000E+00 0. -1.
        -11    1    4    4    0    0 -0.58498245544E-01  0.25240199790E-01 -0.24754543151E-01  0.68353207275E-01  0.51100000000E-03 0. -1.
         11    1    4    4    0    0 -0.42341208219E-01  0.30571639483E-01 -0.36162464925E-01  0.63524704207E-01  0.51100000000E-03 0.  1.
</event>
<event>
 8    1  0.1022673E+005  0.1043930E+01  0.7957747E-01            NaN
         13   -1    0    0    0    0  0.00000000000E+00  0.00000000000E+00  0.74505805969E-08  0.10566000000E+00  0.10566000000E+00 0. -1.
     999900   -1    0    0    0    0 -0.00000000000E+00 -0.00000000000E+00 -0.74505805969E-08  0.93827000000E+00  0.93827000000E+00 0. -1.
     999902    2    1    2    0    0 -0.20490259237E-01  0.90708853090E-02  0.75790052306E-02  0.10202747045E+01  0.10200004410E+01 0.  0.
     999903    2    3    3    0    0 -0.74076768404E-01  0.23390326950E-01 -0.10423922450E+00  0.13146658300E+00  0.19574767176E-01 0.  0.
         14    1    1    2    0    0  0.20490259237E-01 -0.90708853090E-02 -0.75790052306E-02  0.23655295479E-01  0.00000000000E+00 0.  1.
     999901    1    3    3    0    0  0.53586509167E-01 -0.14319441641E-01  0.11181822973E+00  0.88880812152E+00  0.88000000000E+00 0.  1.
        -11    1    4    4    0    0 -0.41008250440E-01  0.81633166811E-02 -0.41411973502E-01  0.58851754551E-01  0.51100000000E-03 0.  1.
         11    1    4    4    0    0 -0.33068517964E-01  0.15227010269E-01 -0.62827251000E-01  0.72614828453E-01  0.51100000000E-03 0. -1.
</event>
<event>
 8    1  0.1022673E+005  0.1043930E+01  0.7957747E-01            NaN
         13   -1    0    0    0    0  0.00000000000E+00  0.00000000000E+00  0.74505805969E-08  0.10566000000E+00  0.10566000000E+00 0. -1.
     999900   -1    0    0    0    0 -0.00000000000E+00 -0.00000000000E+00 -0.74505805969E-08  0.93827000000E+00  0.93827000000E+00 0. -1.
     999902    2    1    2    0    0 -0.25105384219E-02  0.19812341328E-01 -0.56219629960E-02  0.10231829968E+01  0.10229726325E+01 0.  0.
     999903    2    3    3    0    0  0.71755975822E-01  0.49663087737E-02 -0.11096942375E+00  0.13366964264E+00  0.19487844077E-01 0.  0.
         14    1    1    2    0    0  0.25105384219E-02 -0.19812341328E-01  0.56219629960E-02  0.20747003157E-01  0.00000000000E+00 0.  1.
     999901    1    3    3    0    0 -0.74266514244E-01  0.14846032554E-01  0.10534746075E+00  0.88951335420E+00  0.88000000000E+00 0.  1.
        -11    1    4    4    0    0  0.50382626271E-01  0.60937945054E-02 -0.61304167959E-01  0.79586465505E-01  0.51100000000E-03 0. -1.
         11    1    4    4    0    0  0.21373349551E-01 -0.11274857317E-02 -0.49665255791E-01  0.54083177134E-01  0.51100000000E-03 0.  1.
</event>
<event>
 8    1  0.1022673E+005  0.1043930E+01  0.7957747E-01            NaN
         13   -1    0    0    0    0  0.00000000000E+00  0.00000000000E+00  0.74505805969E-08  0.10566000000E+00  0.10566000000E+00 0.  1.
     999900   -1    0    0    0    0 -0.00000000000E+00 -0.00000000000E+00 -0.74505805969E-08  0.93827000000E+00  0.93827000000E+00 0.  1.
     999902    2    1    2    0    0 -0.94339521802E-02  0.16148817298E-01 -0.12380231448E-01  0.10215011372E+01  0.10212548749E+01 0.  0.
     999903    2    3    3    0    0 -0.79867799751E-02  0.11855422284E+00  0.54976054137E-01  0.13300474974E+00  0.23430845447E-01 0.  0.
         14    1    1    2    0    0  0.94339521802E-02 -0.16148817298E-01  0.12380231448E-01  0.22428862757E-01  0.00000000000E+00 0. -1.
     999901    1    3    3    0    0 -0.14471722050E-02 -0.10240540554E+00 -0.67356285586E-01  0.88849638750E+00  0.88000000000E+00 0.  1.
        -11    1    4    4    0    0 -0.44467224499E-02  0.10196372222E+00  0.37741606539E-01  0.10881665302E+00  0.51100000000E-03 0.  1.
         11    1    4    4    0    0 -0.35400575253E-02  0.16590500622E-01  0.17234447598E-01  0.24188096725E-01  0.51100000000E-03 0. -1.
</event>
<event>
 8    1  0.1022673E+005  0.1043930E+01  0.7957747E-01            NaN
         13   -1    0    0    0    0  0.00000000000E+00  0.00000000000E+00  0.74505805969E-08  0.10566000000E+00  0.10566000000E+00 0.  1.
     999900   -1    0    0    0    0 -0.00000000000E+00 -0.00000000000E+00 -0.74505805969E-08  0.93827000000E+00  0.93827000000E+00 0.  1.
     999902    2    1    2    0    0  0.32349233711E-04 -0.23313877777E-01 -0.70689233271E-03  0.10206053855E+01  0.10203388238E+01 0.  0.
     999903    2    3    3    0    0 -0.84815945171E-01 -0.98801230632E-01 -0.18628819154E-01  0.13312650186E+00  0.20498899086E-01 0.  0.
         14    1    1    2    0    0 -0.32349233711E-04  0.23313877777E-01  0.70689233271E-03  0.23324614471E-01  0.00000000000E+00 0.  1.
     999901    1    3    3    0    0  0.84848294405E-01  0.75487352855E-01  0.17921926821E-01  0.88747888367E+00  0.88000000000E+00 0. -1.
        -11    1    4    4    0    0 -0.77895252563E-01 -0.84970909986E-01 -0.10781275311E-01  0.11577660789E+00  0.51100000000E-03 0.  1.
         11    1    4    4    0    0 -0.69206926083E-02 -0.13830320645E-01 -0.78475438428E-02  0.17349893968E-01  0.51100000000E-03 0. -1.
</event>
<event>
 8    1  0.1022673E+005  0.1043930E+01  0.7957747E-01            NaN
         13   -1    0    0    0    0  0.00000000000E+00  0.00000000000E+00  0.74505805969E-08  0.10566000000E+00  0.10566000000E+00 0.  1.
     999900   -1    0    0    0    0 -0.00000000000E+00 -0.00000000000E+00 -0.74505805969E-08  0.93827000000E+00  0.93827000000E+00 0.  1.
     999902    2    1    2    0    0  0.15736803820E-01 -0.14162720166E-01 -0.12864096117E-01  0.10191567361E+01  0.10188556022E+01 0.  0.
     999903    2    3    3    0    0 -0.48950123492E-01 -0.10721526062E+00  0.50637691634E-01  0.12961997410E+00  0.18599332543E-01 0.  0.
         14    1    1    2    0    0 -0.15736803820E-01  0.14162720166E-01  0.12864096117E-01  0.24773263933E-01  0.00000000000E+00 0. -1.
     999901    1    3    3    0    0  0.64686927313E-01  0.93052540453E-01 -0.63501787751E-01  0.88953676197E+00  0.88000000000E+00 0.  1.
        -11    1    4    4    0    0 -0.12287527299E-01 -0.11685253381E-01  0.61900905993E-02  0.18058427848E-01  0.51100000000E-03 0. -1.
         11    1    4    4    0    0 -0.36662596193E-01 -0.95530007238E-01  0.44447601035E-01  0.11156154625E+00  0.51100000000E-03 0.  1.
</event>
<event>
 8    1  0.1022673E+005  0.1043930E+01  0.7957747E-01            NaN
         13   -1    0    0    0    0  0.00000000000E+00  0.00000000000E+00  0.74505805969E-08  0.10566000000E+00  0.10566000000E+00 0. -1.
     999900   -1    0    0    0    0 -0.00000000000E+00 -0.00000000000E+00 -0.74505805969E-08  0.93827000000E+00  0.93827000000E+00 0. -1.
     999902    2    1    2    0    0 -0.12482318043E-01 -0.56713826153E-02  0.19770368301E-01  0.10198708997E+01  0.10195870790E+01 0.  0.
     999903    2    3    3    0    0 -0.87710002080E-01  0.70248507985E-01  0.66529303473E-01  0.13217194608E+00  0.20380818718E-01 0.  0.
         14    1    1    2    0    0  0.12482318043E-01  0.56713826153E-02 -0.19770368301E-01  0.24059100300E-01  0.00000000000E+00 0.  1.
     999901    1    3    3    0    0  0.75227684037E-01 -0.75919890600E-01 -0.46758935172E-01  0.88769895362E+00  0.88000000000E+00 0. -1.
        -11    1    4    4    0    0 -0.50267502596E-01  0.33404068215E-01  0.25531062374E-01  0.65534341055E-01  0.51100000000E-03 0.  1.
         11    1    4    4    0    0 -0.37442499484E-01  0.36844439770E-01  0.40998241099E-01  0.66637605028E-01  0.51100000000E-03 0. -1.
</event>
<event>
 8    1  0.1022673E+005  0.1043930E+01  0.7957747E-01            NaN
         13   -1    0    0    0    0  0.00000000000E+00  0.00000000000E+00  0.74505805969E-08  0.10566000000E+00  0.10566000000E+00 0.  1.
     999900   -1    0    0    0    0 -0.00000000000E+00 -0.00000000000E+00 -0.74505805969E-08  0.93827000000E+00  0.93827000000E+00 0. -1.
     999902    2    1    2    0    0 -0.88277500516E-02  0.19102906897E-02 -0.20761790147E-01  0.10212886592E+01  0.10210376561E+01 0.  0.
     999903    2    3    3    0    0  0.11070196157E-01  0.11713266600E+00  0.52640980098E-01  0.13052489105E+00  0.20568512580E-01 0.  0.
         14    1    1    2    0    0  0.88277500516E-02 -0.19102906897E-02  0.20761790147E-01  0.22641340764E-01  0.00000000000E+00 0.  1.
     999901    1    3    3    0    0 -0.19897946208E-01 -0.11522237531E+00 -0.73402770245E-01  0.89076376819E+00  0.88000000000E+00 0. -1.
        -11    1    4    4    0    0 -0.24492678196E-02  0.38216517007E-01  0.25376617837E-01  0.45942735430E-01  0.51100000000E-03 0.  1.
         11    1    4    4    0    0  0.13519463976E-01  0.78916148996E-01  0.27264362261E-01  0.84582155618E-01  0.51100000000E-03 0. -1.
</event>
<event>
 8    1  0.1022673E+005  0.1043930E+01  0.7957747E-01            NaN
         13   -1    0    0    0    0  0.00000000000E+00  0.00000000000E+00  0.74505805969E-08  0.10566000000E+00  0.10566000000E+00 0. -1.
     999900   -1    0    0    0    0 -0.00000000000E+00 -0.00000000000E+00 -0.74505805969E-08  0.93827000000E+00  0.93827000000E+00 0. -1.
     999902    2    1    2    0    0 -0.18779703460E-02 -0.11704929121E-01  0.20969963791E-01  0.10198411744E+01  0.10195566436E+01 0.  0.
     999903    2    3    3    0    0  0.98105833939E-01  0.25845454429E-01  0.80951946658E-01  0.13135671718E+00  0.20214532199E-01 0.  0.
         14    1    1    2    0    0  0.18779703460E-02  0.11704929121E-01 -0.20969963791E-01  0.24088825620E-01  0.00000000000E+00 0.  1.
     999901    1    3    3    0    0 -0.99983804285E-01 -0.37550383550E-01 -0.59981982867E-01  0.88848445720E+00  0.88000000000E+00 0. -1.
        -11    1    4    4    0    0  0.26621020487E-01  0.47304284748E-02  0.33255160981E-01  0.42862833996E-01  0.51100000000E-03 0. -1.
         11    1    4    4    0    0  0.71484813452E-01  0.21115025954E-01  0.47696785678E-01  0.88493883180E-01  0.51100000000E-03 0.  1.
</event>
<event>
 8    1  0.1022673E+005  0.1043930E+01  0.7957747E-01            NaN
         13   -1    0    0    0    0  0.00000000000E+00  0.00000000000E+00  0.74505805969E-08  0.10566000000E+00  0.10566000000E+00 0.  1.
     999900   -1    0    0    0    0 -0.00000000000E+00 -0.00000000000E+00 -0.74505805969E-08  0.93827000000E+00  0.93827000000E+00 0. -1.
     999902    2    1    2    0    0 -0.65545394478E-02 -0.11863270451E-01  0.18717226624E-01  0.10208208298E+01  0.10205592256E+01 0.  0.
     999903    2    3    3    0    0  0.11673035509E+00 -0.30058993544E-02 -0.51744811390E-01  0.12939359386E+00  0.20740428970E-01 0.  0.
         14    1    1    2    0    0  0.65545394478E-02  0.11863270451E-01 -0.18717226624E-01  0.23109170164E-01  0.00000000000E+00 0. -1.
     999901    1    3    3    0    0 -0.12328489454E+00 -0.88573710970E-02  0.70462038013E-01  0.89142723598E+00  0.88000000000E+00 0. -1.
        -11    1    4    4    0    0  0.21651179394E-01 -0.64259705589E-02 -0.16327450434E-01  0.27873166764E-01  0.51100000000E-03 0. -1.
         11    1    4    4    0    0  0.95079175701E-01  0.34200712045E-02 -0.35417360955E-01  0.10152042709E+00  0.51100000000E-03 0.  1.
</event>
<event>
 8    1  0.1022673E+005  0.1043930E+01  0.7957747E-01            NaN
         13   -1    0    0    0    0  0.00000000000E+00  0.00000000000E+00  0.74505805969E-08  0.10566000000E+00  0.10566000000E+00 0.  1.
     999900   -1    0    0    0    0 -0.00000000000E+00 -0.00000000000E+00 -0.74505805969E-08  0.93827000000E+00  0.93827000000E+00 0.  1.
     999902    2    1    2    0    0 -0.23250423206E-01  0.53926814109E-03 -0.68664056171E-02  0.10196808657E+01  0.10193924893E+01 0.  0.
     999903    2    3    3    0    0 -0.97125966732E-01  0.40707372719E-01  0.78031851429E-01  0.13160497556E+00  0.11847199976E-01 0.  0.
         14    1    1    2    0    0  0.23250423206E-01 -0.53926814109E-03  0.68664056171E-02  0.24249134324E-01  0.00000000000E+00 0.  1.
     999901    1    3    3    0    0  0.73875543526E-01 -0.40168104578E-01 -0.84898257046E-01  0.88807589012E+00  0.88000000000E+00 0.  1.
        -11    1    4    4    0    0 -0.75503355568E-01  0.28955246619E-01  0.65007071372E-01  0.10375617311E+00  0.51100000000E-03 0. -1.
         11    1    4    4    0    0 -0.21622611164E-01  0.11752126099E-01  0.13024780057E-01  0.27848802451E-01  0.51100000000E-03 0.  1.
</event>
<event>
 8    1  0.1022673E+005  0.1043930E+01  0.7957747E-01            NaN
         13   -1    0    0    0    0  0.00000000000E+00  0.00000000000E+00  0.74505805969E-08  0.10566000000E+00  0.10566000000E+00 0. -1.
     999900   -1    0    0    0    0 -0.00000000000E+00 -0.00000000000E+00 -0.74505805969E-08  0.93827000000E+00  0.93827000000E+00 0. -1.
     999902    2    1    2    0    0  0.63563586051E-02 -0.23617367623E-01 -0.10366156802E-01  0.10173661043E+01  0.10170192474E+01 0.  0.
     999903    2    3    3    0    0  0.89439346680E-02 -0.12620261414E+00 -0.28686690104E-01  0.13121370753E+00  0.19672749483E-01 0.  0.
         14    1    1    2    0    0 -0.63563586051E-02  0.23617367623E-01  0.10366156802E-01  0.26563895705E-01  0.00000000000E+00 0.  1.
     999901    1    3    3    0    0 -0.25875760629E-02  0.10258524651E+00  0.18320533302E-01  0.88615239677E+00  0.88000000000E+00 0.  1.
        -11    1    4    4    0    0 -0.12968430175E-02 -0.76072326897E-01 -0.24238088783E-01  0.79852531521E-01  0.51100000000E-03 0. -1.
         11    1    4    4    0    0  0.10240777686E-01 -0.50130287240E-01 -0.44486013215E-02  0.51361176010E-01  0.51100000000E-03 0.  1.
</event>
<event>
 8    1  0.1022673E+005  0.1043930E+01  0.7957747E-01            NaN
         13   -1    0    0    0    0  0.00000000000E+00  0.00000000000E+00  0.74505805969E-08  0.10566000000E+00  0.10566000000E+00 0.  1.
     999900   -1    0    0    0    0 -0.00000000000E+00 -0.00000000000E+00 -0.74505805969E-08  0.93827000000E+00  0.93827000000E+00 0. -1.
     999902    2    1    2    0    0 -0.46557973708E-02 -0.59030602245E-02  0.22530930484E-01  0.10201778338E+01  0.10199012929E+01 0.  0.
     999903    2    3    3    0    0  0.10931405203E+00 -0.59838122513E-01 -0.29798520833E-01  0.12965187184E+00  0.19786185842E-01 0.  0.
         14    1    1    2    0    0  0.46557973708E-02  0.59030602245E-02 -0.22530930484E-01  0.23752166167E-01  0.00000000000E+00 0. -1.
     999901    1    3    3    0    0 -0.11396984940E+00  0.53935062289E-01  0.52329451317E-01  0.89052596200E+00  0.88000000000E+00 0.  1.
        -11    1    4    4    0    0  0.71232996343E-01 -0.33460419638E-01 -0.10240466902E-01  0.79365406404E-01  0.51100000000E-03 0.  1.
         11    1    4    4    0    0  0.38081055684E-01 -0.26377702875E-01 -0.19558053932E-01  0.50286465431E-01  0.51100000000E-03 0. -1.
</event>
<event>
 8    1  0.1022673E+005  0.1043930E+01  0.7957747E-01            NaN
         13   -1    0    0    0    0  0.00000000000E+00  0.00000000000E+00  0.74505805969E-08  0.10566000000E+00  0.10566000000E+00 0. -1.
     999900   -1    0    0    0    0 -0.00000000000E+00 -0.00000000000E+00 -0.74505805969E-08  0.93827000000E+00  0.93827000000E+00 0. -1.
     999902    2    1    2    0    0  0.15746623788E-02 -0.18134319624E-01  0.16066805312E-01  0.10196508867E+01  0.10193617883E+01 0.  0.
     999903    2    3    3    0    0  0.93975532374E-01 -0.19236951968E-01 -0.84112687377E-01  0.12915941154E+00  0.20143197496E-01 0.  0.
         14    1    1    2    0    0 -0.15746623788E-02  0.18134319624E-01 -0.16066805312E-01  0.24279113302E-01  0.00000000000E+00 0.  1.
     999901    1    3    3    0    0 -0.92400869996E-01  0.11026323446E-02  0.10017949269E+00  0.89049147516E+00  0.88000000000E+00 0.  1.
        -11    1    4    4    0    0  0.10376648900E-01  0.15188961280E-02 -0.31945815454E-02  0.10974896815E-01  0.51100000000E-03 0.  1.
         11    1    4    4    0    0  0.83598883474E-01 -0.20755848096E-01 -0.80918105832E-01  0.11818451472E+00  0.51100000000E-03 0. -1.
</event>
<event>
 8    1  0.1022673E+005  0.1043930E+01  0.7957747E-01            NaN
         13   -1    0    0    0    0  0.00000000000E+00  0.00000000000E+00  0.74505805969E-08  0.10566000000E+00  0.10566000000E+00 0.  1.
     999900   -1    0    0    0    0 -0.00000000000E+00 -0.00000000000E+00 -0.74505805969E-08  0.93827000000E+00  0.93827000000E+00 0. -1.
     999902    2    1    2    0    0  0.11083213875E-02  0.25508726836E-01  0.18512071949E-02  0.10183301858E+01  0.10180083579E+01 0.  0.
     999903    2    3    3    0    0  0.11256862866E+00 -0.35154331120E-01 -0.45522533027E-01  0.12796639609E+00  0.19889051218E-01 0.  0.
         14    1    1    2    0    0 -0.11083213875E-02 -0.25508726836E-01 -0.18512071949E-02  0.25599814241E-01  0.00000000000E+00 0. -1.
     999901    1    3    3    0    0 -0.11146030728E+00  0.60663057956E-01  0.47373740222E-01  0.89036378967E+00  0.88000000000E+00 0.  1.
        -11    1    4    4    0    0  0.61349133593E-01 -0.27226087572E-01 -0.32224448475E-01  0.74455706549E-01  0.51100000000E-03 0.  1.
         11    1    4    4    0    0  0.51219495070E-01 -0.79282435476E-02 -0.13298084552E-01  0.53510689537E-01  0.51100000000E-03 0. -1.
</event>
<event>
 8    1  0.1022673E+005  0.1043930E+01  0.7957747E-01            NaN
         13   -1    0    0    0    0  0.00000000000E+00  0.00000000000E+00  0.74505805969E-08  0.10566000000E+00  0.10566000000E+00 0. -1.
     999900   -1    0    0    0    0 -0.00000000000E+00 -0.00000000000E+00 -0.74505805969E-08  0.93827000000E+00  0.93827000000E+00 0. -1.
     999902    2    1    2    0    0  0.16426137252E-01 -0.58454145505E-02 -0.15779955184E-01  0.10204141789E+01  0.10201431775E+01 0.  0.
     999903    2    3    3    0    0 -0.12016562392E+00 -0.23934590679E-01 -0.36766702537E-01  0.12944562105E+00  0.19792336677E-01 0.  0.
         14    1    1    2    0    0 -0.16426137252E-01  0.58454145505E-02  0.15779955184E-01  0.23515821097E-01  0.00000000000E+00 0. -1.
     999901    1    3    3    0    0  0.13659176117E+00  0.18089176128E-01  0.20986747354E-01  0.89096855785E+00  0.88000000000E+00 0.  1.
        -11    1    4    4    0    0 -0.21113391753E-01  0.42231005333E-03 -0.32192451979E-03  0.21126249395E-01  0.51100000000E-03 0. -1.
         11    1    4    4    0    0 -0.99052232168E-01 -0.24356900732E-01 -0.36444778017E-01  0.10831937166E+00  0.51100000000E-03 0.  1.
</event>
<event>
 8    1  0.1022673E+005  0.1043930E+01  0.7957747E-01            NaN
         13   -1    0    0    0    0  0.00000000000E+00  0.00000000000E+00  0.74505805969E-08  0.10566000000E+00  0.10566000000E+00 0. -1.
     999900   -1    0    0    0    0 -0.00000000000E+00 -0.00000000000E+00 -0.74505805969E-08  0.93827000000E+00  0.93827000000E+00 0.  1.
     999902    2    1    2    0    0 -0.20547968233E-01 -0.92484303165E-02  0.23063951364E-02  0.10212789091E+01  0.10210276873E+01 0.  0.
     999903    2    3    3    0    0  0.99364527034E-01  0.20349211850E-03 -0.80562590397E-01  0.12923876753E+00  0.18411339405E-01 0.  0.
         14    1    1    2    0    0  0.20547968233E-01  0.92484303165E-02 -0.23063951364E-02  0.22651090931E-01  0.00000000000E+00 0.  1.
     999901    1    3    3    0    0 -0.11991249527E+00 -0.94519224350E-02  0.82868985534E-01  0.89204014154E+00  0.88000000000E+00 0. -1.
        -11    1    4    4    0    0  0.67602473101E-01  0.11820515181E-02 -0.43423307414E-01  0.80357553242E-01  0.51100000000E-03 0.  1.
         11    1    4    4    0    0  0.31762053933E-01 -0.97855939957E-03 -0.37139282983E-01  0.48881214285E-01  0.51100000000E-03 0. -1.
</event>
<event>
 7    1  0.1022673E+005  0.1043930E+01  0.7957747E-01            NaN
         13   -1    0    0    0    0  0.00000000000E+00  0.00000000000E+00  0.74505805969E-08  0.10566000000E+00  0.10566000000E+00 0. -1.
     999900   -1    0    0    0    0 -0.00000000000E+00 -0.00000000000E+00 -0.74505805969E-08  0.93827000000E+00  0.93827000000E+00 0. -1.
     999903    2    1    2    0    0  0.27679604320E-01 -0.11261998068E+00  0.82650574953E-02  0.11799733618E+00  0.20140497207E-01 0.  0.
         14    1    1    2    0    0 -0.21111708016E-01  0.33769743674E-01 -0.14435021168E-01  0.42361180806E-01  0.00000000000E+00 0.  1.
     999901    1    1    2    0    0 -0.65678963037E-02  0.78850237004E-01  0.61699636728E-02  0.88357148301E+00  0.88000000000E+00 0.  1.
        -11    1    3    3    0    0 -0.22249908677E-02 -0.24621444029E-01  0.29611708909E-02  0.24903729529E-01  0.51100000000E-03 0. -1.
         11    1    3    3    0    0  0.29904595188E-01 -0.87998536649E-01  0.53038866044E-02  0.93093606654E-01  0.51100000000E-03 0.  1.
</event>
<event>
 8    1  0.1022673E+005  0.1043930E+01  0.7957747E-01            NaN
         13   -1    0    0    0    0  0.00000000000E+00  0.00000000000E+00  0.74505805969E-08  0.10566000000E+00  0.10566000000E+00 0. -1.
     999900   -1    0    0    0    0 -0.00000000000E+00 -0.00000000000E+00 -0.74505805969E-08  0.93827000000E+00  0.93827000000E+00 0. -1.
     999902    2    1    2    0    0 -0.10558197459E-01 -0.11443626151E-01 -0.18539328622E-01  0.10197196960E+01  0.10194322536E+01 0.  0.
     999903    2    3    3    0    0 -0.39970331804E-01 -0.10180189450E+00  0.68086692552E-01  0.13037512958E+00  0.20015583022E-01 0.  0.
         14    1    1    2    0    0  0.10558197459E-01  0.11443626151E-01  0.18539328622E-01  0.24210303981E-01  0.00000000000E+00 0. -1.
     999901    1    3    3    0    0  0.29412134345E-01  0.90358268345E-01 -0.86626021174E-01  0.88934456644E+00  0.88000000000E+00 0. -1.
        -11    1    4    4    0    0 -0.25383702152E-01 -0.83218460322E-01  0.58667562067E-01  0.10493706892E+00  0.51100000000E-03 0.  1.
         11    1    4    4    0    0 -0.14586629651E-01 -0.18583434174E-01  0.94191304842E-02  0.25438060664E-01  0.51100000000E-03 0. -1.
</event>
<event>
 8    1  0.1022673E+005  0.1043930E+01  0.7957747E-01            NaN
         13   -1    0    0    0    0  0.00000000000E+00  0.00000000000E+00  0.74505805969E-08  0.10566000000E+00  0.10566000000E+00 0. -1.
     999900   -1    0    0    0    0 -0.00000000000E+00 -0.00000000000E+00 -0.74505805969E-08  0.93827000000E+00  0.93827000000E+00 0. -1.
     999902    2    1    2    0    0 -0.21422368594E-01 -0.55041155859E-02  0.99334536100E-02  0.10196836257E+01  0.10193953158E+01 0.  0.
     999903    2    3    3    0    0  0.84722718320E-01 -0.86237653418E-01 -0.38175905032E-01  0.12833678303E+00  0.19951398110E-01 0.  0.
         14    1    1    2    0    0  0.21422368594E-01  0.55041155859E-02 -0.99334536100E-02  0.24246374269E-01  0.00000000000E+00 0. -1.
     999901    1    3    3    0    0 -0.10614508691E+00  0.80733537832E-01  0.48109358642E-01  0.89134684270E+00  0.88000000000E+00 0. -1.
        -11    1    4    4    0    0  0.29080059358E-01 -0.40288138691E-01 -0.90025269381E-02  0.50498421596E-01  0.51100000000E-03 0. -1.
         11    1    4    4    0    0  0.55642658963E-01 -0.45949514726E-01 -0.29173378094E-01  0.77838361432E-01  0.51100000000E-03 0.  1.
</event>
<event>
 8    1  0.1022673E+005  0.1043930E+01  0.7957747E-01            NaN
         13   -1    0    0    0    0  0.00000000000E+00  0.00000000000E+00  0.74505805969E-08  0.10566000000E+00  0.10566000000E+00 0. -1.
     999900   -1    0    0    0    0 -0.00000000000E+00 -0.00000000000E+00 -0.74505805969E-08  0.93827000000E+00  0.93827000000E+00 0. -1.
     999902    2    1    2    0    0  0.12463022688E-01  0.19918121921E-01 -0.11760795910E-01  0.10176550150E+01  0.10173157596E+01 0.  0.
     999903    2    3    3    0    0  0.57228725676E-01 -0.10688182817E+00  0.29768048571E-01  0.12647218280E+00  0.20253989022E-01 0.  0.
         14    1    1    2    0    0 -0.12463022688E-01 -0.19918121921E-01  0.11760795910E-01  0.26274984983E-01  0.00000000000E+00 0. -1.
     999901    1    3    3    0    0 -0.44765702988E-01  0.12679995009E+00 -0.41528844481E-01  0.89118283221E+00  0.88000000000E+00 0. -1.
        -11    1    4    4    0    0  0.35409188569E-01 -0.64990257132E-01  0.79414700309E-02  0.74437035301E-01  0.51100000000E-03 0. -1.
         11    1    4    4    0    0  0.21819537108E-01 -0.41891571042E-01  0.21826578540E-01  0.52035147503E-01  0.51100000000E-03 0.  1.
</event>
<event>
 8    1  0.1022673E+005  0.1043930E+01  0.7957747E-01            NaN
         13   -1    0    0    0    0  0.00000000000E+00  0.00000000000E+00  0.74505805969E-08  0.10566000000E+00  0.10566000000E+00 0. -1.
     999900   -1    0    0    0    0 -0.00000000000E+00 -0.00000000000E+00 -0.74505805969E-08  0.93827000000E+00  0.93827000000E+00 0. -1.
     999902    2    1    2    0    0  0.52810572184E-02  0.94193035030E-02  0.20686350955E-01  0.10205946629E+01  0.10203278531E+01 0.  0.
     999903    2    3    3    0    0  0.86444462977E-01 -0.66766625937E-01 -0.66719764133E-01  0.12928572470E+00  0.18244017294E-01 0.  0.
         14    1    1    2    0    0 -0.52810572184E-02 -0.94193035030E-02 -0.20686350955E-01  0.23335337145E-01  0.00000000000E+00 0.  1.
     999901    1    3    3    0    0 -0.81163405758E-01  0.76185929440E-01  0.87406115088E-01  0.89130893815E+00  0.88000000000E+00 0.  1.
        -11    1    4    4    0    0  0.34536519236E-01 -0.19621198918E-01 -0.16405519292E-01  0.42978655076E-01  0.51100000000E-03 0.  1.
         11    1    4    4    0    0  0.51907943741E-01 -0.47145427019E-01 -0.50314244841E-01  0.86307069625E-01  0.51100000000E-03 0. -1.
</event>
<event>
 8    1  0.1022673E+005  0.1043930E+01  0.7957747E-01            NaN
         13   -1    0    0    0    0  0.00000000000E+00  0.00000000000E+00  0.74505805969E-08  0.10566000000E+00  0.10566000000E+00 0.  1.
     999900   -1    0    0    0    0 -0.00000000000E+00 -0.00000000000E+00 -0.74505805969E-08  0.93827000000E+00  0.93827000000E+00 0.  1.
     999902    2    1    2    0    0 -0.51966889360E-02  0.76513735043E-02  0.21763515005E-01  0.10202825968E+01  0.10200085184E+01 0.  0.
     999903    2    3    3    0    0  0.49117726840E-01 -0.43234851451E-01  0.11334936376E+00  0.13240454699E+00  0.20027039959E-01 0.  0.
         14    1    1    2    0    0  0.51966889360E-02 -0.76513735043E-02 -0.21763515005E-01  0.23647403193E-01  0.00000000000E+00 0. -1.
     999901    1    3    3    0    0 -0.54314415776E-01  0.50886224956E-01 -0.91585848755E-01  0.88787804982E+00  0.88000000000E+00 0.  1.
        -11    1    4    4    0    0  0.42712446628E-01 -0.37796904364E-01  0.10878039012E+00  0.12282668062E+00  0.51100000000E-03 0. -1.
         11    1    4    4    0    0  0.64052802121E-02 -0.54379470871E-02  0.45689736390E-02  0.95778663716E-02  0.51100000000E-03 0.  1.
</event>
<event>
 8    1  0.1022673E+005  0.1043930E+01  0.7957747E-01            NaN
         13   -1    0    0    0    0  0.00000000000E+00  0.00000000000E+00  0.74505805969E-08  0.10566000000E+00  0.10566000000E+00 0.  1.
     999900   -1    0    0    0    0 -0.00000000000E+00 -0.00000000000E+00 -0.74505805969E-08  0.93827000000E+00  0.93827000000E+00 0.  1.
     999902    2    1    2    0    0  0.17110836249E-01 -0.15505859474E-01 -0.49289134983E-02  0.10203184227E+01  0.10200451838E+01 0.  0.
     999903    2    3    3    0    0 -0.12599818802E+00  0.64837966891E-02 -0.13538224812E-01  0.12844519287E+00  0.19932411732E-01 0.  0.
         14    1    1    2    0    0 -0.17110836249E-01  0.15505859474E-01  0.49289134983E-02  0.23611577318E-01  0.00000000000E+00 0.  1.
     999901    1    3    3    0    0  0.14310902427E+00 -0.21989656163E-01  0.86093113141E-02  0.89187322981E+00  0.88000000000E+00 0.  1.
        -11    1    4    4    0    0 -0.17175997083E-01 -0.59659611008E-02 -0.23887591537E-02  0.18345976641E-01  0.51100000000E-03 0.  1.
         11    1    4    4    0    0 -0.10882219094E+00  0.12449757790E-01 -0.11149465659E-01  0.11009921623E+00  0.51100000000E-03 0. -1.
</event>
<event>
 8    1  0.1022673E+005  0.1043930E+01  0.7957747E-01            NaN
         13   -1    0    0    0    0  0.00000000000E+00  0.00000000000E+00  0.74505805969E-08  0.10566000000E+00  0.10566000000E+00 0. -1.
     999900   -1    0    0    0    0 -0.00000000000E+00 -0.00000000000E+00 -0.74505805969E-08  0.93827000000E+00  0.93827000000E+00 0. -1.
     999902    2    1    2    0    0 -0.17911986673E-01  0.13069472943E-01  0.75619080977E-02  0.10205028183E+01  0.10202338797E+01 0.  0.
     999903    2    3    3    0    0  0.54854633304E-02 -0.11421257980E+00  0.57548313142E-01  0.12963425204E+00  0.20460382787E-01 0.  0.
         14    1    1    2    0    0  0.17911986673E-01 -0.13069472943E-01 -0.75619080977E-02  0.23427181727E-01  0.00000000000E+00 0. -1.
     999901    1    3    3    0    0 -0.23397450004E-01  0.12728205274E+00 -0.49986405044E-01  0.89086856624E+00  0.88000000000E+00 0.  1.
        -11    1    4    4    0    0 -0.46849295464E-02 -0.60918059411E-01  0.22868702466E-01  0.65239537098E-01  0.51100000000E-03 0.  1.
         11    1    4    4    0    0  0.10170392877E-01 -0.53294520387E-01  0.34679610675E-01  0.64394714939E-01  0.51100000000E-03 0. -1.
</event>
<event>
 8    1  0.1022673E+005  0.1043930E+01  0.7957747E-01            NaN
         13   -1    0    0    0    0  0.00000000000E+00  0.00000000000E+00  0.74505805969E-08  0.10566000000E+00  0.10566000000E+00 0.  1.
     999900   -1    0    0    0    0 -0.00000000000E+00 -0.00000000000E+00 -0.74505805969E-08  0.93827000000E+00  0.93827000000E+00 0. -1.
     999902    2    1    2    0    0 -0.21976321442E-01 -0.11793771655E-01  0.15725611222E-01  0.10144453158E+01  0.10140167416E+01 0.  0.
     999903    2    3    3    0    0 -0.46763002887E-01 -0.11591091880E+00 -0.14578811534E-01  0.12744299453E+00  0.20175618275E-01 0.  0.
         14    1    1    2    0    0  0.21976321442E-01  0.11793771655E-01 -0.15725611222E-01  0.29484684199E-01  0.00000000000E+00 0. -1.
     999901    1    3    3    0    0  0.24786681445E-01  0.10411714714E+00  0.30304422756E-01  0.88700232127E+00  0.88000000000E+00 0.  1.
        -11    1    4    4    0    0 -0.32421167766E-01 -0.55682108222E-01 -0.11485802875E-01  0.65450852432E-01  0.51100000000E-03 0. -1.
         11    1    4    4    0    0 -0.14341835120E-01 -0.60228810576E-01 -0.30930086595E-02  0.61992142096E-01  0.51100000000E-03 0.  1.
</event>
<event>
 8    1  0.1022673E+005  0.1043930E+01  0.7957747E-01            NaN
         13   -1    0    0    0    0  0.00000000000E+00  0.00000000000E+00  0.74505805969E-08  0.10566000000E+00  0.10566000000E+00 0. -1.
     999900   -1    0    0    0    0 -0.00000000000E+00 -0.00000000000E+00 -0.74505805969E-08  0.93827000000E+00  0.93827000000E+00 0. -1.
     999902    2    1    2    0    0 -0.16108226380E-01  0.13679490811E-01  0.17424762083E-01  0.10165397506E+01  0.10161706741E+01 0.  0.
     999903    2    3    3    0    0  0.81845960754E-02 -0.12342796638E+00  0.29287711077E-02  0.12547368699E+00  0.20823494668E-01 0.  0.
         14    1    1    2    0    0  0.16108226380E-01 -0.13679490811E-01 -0.17424762083E-01  0.27390249353E-01  0.00000000000E+00 0.  1.
     999901    1    3    3    0    0 -0.24292822456E-01  0.13710745719E+00  0.14495990976E-01  0.89106606365E+00  0.88000000000E+00 0.  1.
        -11    1    4    4    0    0 -0.42553125617E-02 -0.66164923036E-01  0.73309966315E-02  0.66707640926E-01  0.51100000000E-03 0. -1.
         11    1    4    4    0    0  0.12439908637E-01 -0.57263043343E-01 -0.44022255238E-02  0.58766046067E-01  0.51100000000E-03 0.  1.
</event>
<event>
 8    1  0.1022673E+005  0.1043930E+01  0.7957747E-01            NaN
         13   -1    0    0    0    0  0.00000000000E+00  0.00000000000E+00  0.74505805969E-08  0.10566000000E+00  0.10566000000E+00 0.  1.
     999900   -1    0    0    0    0 -0.00000000000E+00 -0.00000000000E+00 -0.74505805969E-08  0.93827000000E+00  0.93827000000E+00 0.  1.
     999902    2    1    2    0    0  0.64297383143E-02 -0.95725219795E-02  0.14657827644E-01  0.10252798895E+01  0.10251102502E+01 0.  0.
     999903    2    3    3    0    0 -0.79308550252E-01  0.96988525899E-01  0.44086780451E-01  0.13422861467E+00  0.19417942367E-01 0.  0.
         14    1    1    2    0    0 -0.64297383143E-02  0.95725219795E-02 -0.14657827644E-01  0.18650110538E-01  0.00000000000E+00 0. -1.
     999901    1    3    3    0    0  0.85738288566E-01 -0.10656104788E+00 -0.29428952807E-01  0.89105127480E+00  0.88000000000E+00 0.  1.
        -11    1    4    4    0    0 -0.72539805558E-01  0.78404246319E-01  0.34542764574E-01  0.11226180533E+00  0.51100000000E-03 0.  1.
         11    1    4    4    0    0 -0.67687446934E-02  0.18584279580E-01  0.95440158771E-02  0.21966809334E-01  0.51100000000E-03 0. -1.
</event>
<event>
 8    1  0.1022673E+005  0.1043930E+01  0.7957747E-01            NaN
         13   -1    0    0    0    0  0.00000000000E+00  0.00000000000E+00  0.74505805969E-08  0.10566000000E+00  0.10566000000E+00 0. -1.
     999900   -1    0    0    0    0 -0.00000000000E+00 -0.00000000000E+00 -0.74505805969E-08  0.93827000000E+00  0.93827000000E+00 0. -1.
     999902    2    1    2    0    0  0.18749692314E-01 -0.12872945842E-01  0.24016535520E-03  0.10211853000E+01  0.10209319741E+01 0.  0.
     999903    2    3    3    0    0 -0.62568353420E-01 -0.11321154136E+00 -0.12999270855E-01  0.13165972932E+00  0.20824296734E-01 0.  0.
         14    1    1    2    0    0 -0.18749692314E-01  0.12872945842E-01 -0.24016535520E-03  0.22744699953E-01  0.00000000000E+00 0. -1.
     999901    1    3    3    0    0  0.81318045734E-01  0.10033859552E+00  0.13239436210E-01  0.88952557073E+00  0.88000000000E+00 0. -1.
        -11    1    4    4    0    0 -0.61114151977E-01 -0.99362534019E-01 -0.14879416064E-01  0.11759894082E+00  0.51100000000E-03 0.  1.
         11    1    4    4    0    0 -0.14542014424E-02 -0.13849007340E-01  0.18801452092E-02  0.14060788497E-01  0.51100000000E-03 0. -1.
</event>
<event>
 8    1  0.1022673E+005  0.1043930E+01  0.7957747E-01            NaN
         13   -1    0    0    0    0  0.00000000000E+00  0.00000000000E+00  0.74505805969E-08  0.10566000000E+00  0.10566000000E+00 0.  1.
     999900   -1    0    0    0    0 -0.00000000000E+00 -0.00000000000E+00 -0.74505805969E-08  0.93827000000E+00  0.93827000000E+00 0. -1.
     999902    2    1    2    0    0  0.14272986755E-01  0.66689269140E-02 -0.16883959056E-01  0.10208375595E+01  0.10205763381E+01 0.  0.
     999903    2    3    3    0    0 -0.50717548726E-01 -0.35679051299E-01 -0.11501714612E+00  0.13199154165E+00  0.18642926642E-01 0.  0.
         14    1    1    2    0    0 -0.14272986755E-01 -0.66689269140E-02  0.16883959056E-01  0.23092440549E-01  0.00000000000E+00 0.  1.
     999901    1    3    3    0    0  0.64990535481E-01  0.42347978213E-01  0.98133187067E-01  0.88884601780E+00  0.88000000000E+00 0.  1.
        -11    1    4    4    0    0 -0.17904171587E-01 -0.25973716474E-02 -0.34664825444E-01  0.39105203538E-01  0.51100000000E-03 0. -1.
         11    1    4    4    0    0 -0.32813377139E-01 -0.33081679652E-01 -0.80352320680E-01  0.92886338110E-01  0.51100000000E-03 0.  1.
</event>
<event>
 8    1  0.1258974E+005  0.1043930E+01  0.7957747E-01            NaN
         13   -1    0    0    0    0  0.00000000000E+00  0.00000000000E+00  0.74505805969E-08  0.10566000000E+00  0.10566000000E+00 0.  1.
     999900   -1    0    0    0    0 -0.00000000000E+00 -0.00000000000E+00 -0.74505805969E-08  0.93827000000E+00  0.93827000000E+00 0.  1.
     999902    2    1    2    0    0  0.13550617319E-01  0.20052875705E-01 -0.18062006750E-04  0.10197279881E+01  0.10194407449E+01 0.  0.
     999903    2    3    3    0    0  0.44284749927E-01 -0.67680892759E-01  0.99052704771E-01  0.12930291103E+00  0.19130137451E-01 0.  0.
         14    1    1    2    0    0 -0.13550617319E-01 -0.20052875705E-01  0.18062006750E-04  0.24202011900E-01  0.00000000000E+00 0.  1.
     999901    1    3    3    0    0 -0.30734132608E-01  0.87733768464E-01 -0.99070766778E-01  0.89042507706E+00  0.88000000000E+00 0.  1.
        -11    1    4    4    0    0  0.83424819917E-02 -0.22002831601E-01  0.40210635598E-01  0.46592681190E-01  0.51100000000E-03 0.  1.
         11    1    4    4    0    0  0.35942267936E-01 -0.45678061158E-01  0.58842069173E-01  0.82710229845E-01  0.51100000000E-03 0. -1.
</event>
<event>
 8    1  0.1022673E+005  0.1043930E+01  0.7957747E-01            NaN
         13   -1    0    0    0    0  0.00000000000E+00  0.00000000000E+00  0.74505805969E-08  0.10566000000E+00  0.10566000000E+00 0. -1.
     999900   -1    0    0    0    0 -0.00000000000E+00 -0.00000000000E+00 -0.74505805969E-08  0.93827000000E+00  0.93827000000E+00 0. -1.
     999902    2    1    2    0    0  0.88189635684E-02 -0.20716363707E-01  0.52685124658E-02  0.10208064391E+01  0.10205445052E+01 0.  0.
     999903    2    3    3    0    0  0.39178655028E-02 -0.13205757549E+00  0.57327657009E-02  0.13377706998E+00  0.20220952861E-01 0.  0.
         14    1    1    2    0    0 -0.88189635684E-02  0.20716363707E-01 -0.52685124658E-02  0.23123560869E-01  0.00000000000E+00 0. -1.
     999901    1    3    3    0    0  0.49010980656E-02  0.11134121179E+00 -0.46425323514E-03  0.88702936915E+00  0.88000000000E+00 0. -1.
        -11    1    4    4    0    0  0.41968943076E-02 -0.20646813258E-01  0.74450898649E-02  0.22351628657E-01  0.51100000000E-03 0.  1.
         11    1    4    4    0    0 -0.27902880482E-03 -0.11141076224E+00 -0.17123241640E-02  0.11142544132E+00  0.51100000000E-03 0. -1.
</event>
<event>
 8    1  0.1022673E+005  0.1043930E+01  0.7957747E-01            NaN
         13   -1    0    0    0    0  0.00000000000E+00  0.00000000000E+00  0.74505805969E-08  0.10566000000E+00  0.10566000000E+00 0.  1.
     999900   -1    0    0    0    0 -0.00000000000E+00 -0.00000000000E+00 -0.74505805969E-08  0.93827000000E+00  0.93827000000E+00 0.  1.
     999902    2    1    2    0    0 -0.18403665626E-01  0.70143577631E-02  0.12221170863E-01  0.10207512783E+01  0.10204880788E+01 0.  0.
     999903    2    3    3    0    0  0.27895303526E-01  0.17747853439E-01  0.12637505922E+00  0.13210629140E+00  0.19704881975E-01 0.  0.
         14    1    1    2    0    0  0.18403665626E-01 -0.70143577631E-02 -0.12221170863E-01  0.23178721720E-01  0.00000000000E+00 0. -1.
     999901    1    3    3    0    0 -0.46298969152E-01 -0.10733495676E-01 -0.11415388836E+00  0.88864498688E+00  0.88000000000E+00 0.  1.
        -11    1    4    4    0    0  0.66172022285E-02 -0.32866610795E-02  0.40377143154E-01  0.41050752936E-01  0.51100000000E-03 0.  1.
         11    1    4    4    0    0  0.21278101298E-01  0.21034514518E-01  0.85997916071E-01  0.91055538467E-01  0.51100000000E-03 0. -1.
</event>
<event>
 8    1  0.1022673E+005  0.1043930E+01  0.7957747E-01            NaN
         13   -1    0    0    0    0  0.00000000000E+00  0.00000000000E+00  0.74505805969E-08  0.10566000000E+00  0.10566000000E+00 0. -1.
     999900   -1    0    0    0    0 -0.00000000000E+00 -0.00000000000E+00 -0.74505805969E-08  0.93827000000E+00  0.93827000000E+00 0.  1.
     999902    2    1    2    0    0  0.21070006754E-01 -0.83569105163E-02  0.84362012146E-03  0.10212475215E+01  0.10209955951E+01 0.  0.
     999903    2    3    3    0    0 -0.54463447062E-01 -0.66517318340E-01 -0.96469855094E-01  0.13076571471E+00  0.20060371315E-01 0.  0.
         14    1    1    2    0    0 -0.21070006754E-01  0.83569105163E-02 -0.84362012146E-03  0.22682478544E-01  0.00000000000E+00 0. -1.
     999901    1    3    3    0    0  0.75533453815E-01  0.58160407824E-01  0.97313475216E-01  0.89048180674E+00  0.88000000000E+00 0. -1.
        -11    1    4    4    0    0 -0.28718688913E-01 -0.38001215700E-01 -0.38643479931E-01  0.61338692110E-01  0.51100000000E-03 0. -1.
         11    1    4    4    0    0 -0.25744758148E-01 -0.28516102640E-01 -0.57826375163E-01  0.69427022602E-01  0.51100000000E-03 0.  1.
</event>
<event>
 8    1  0.1022673E+005  0.1043930E+01  0.7957747E-01            NaN
         13   -1    0    0    0    0  0.00000000000E+00  0.00000000000E+00  0.74505805969E-08  0.10566000000E+00  0.10566000000E+00 0.  1.
     999900   -1    0    0    0    0 -0.00000000000E+00 -0.00000000000E+00 -0.74505805969E-08  0.93827000000E+00  0.93827000000E+00 0. -1.
     999902    2    1    2    0    0  0.26135931771E-02  0.57524296973E-02 -0.22518817555E-01  0.10205415742E+01  0.10202735350E+01 0.  0.
     999903    2    3    3    0    0 -0.47658096213E-01  0.83031396308E-01  0.84519172339E-01  0.12927482811E+00  0.20074455950E-01 0.  0.
         14    1    1    2    0    0 -0.26135931771E-02 -0.57524296973E-02  0.22518817555E-01  0.23388425787E-01  0.00000000000E+00 0.  1.
     999901    1    3    3    0    0  0.50271689390E-01 -0.77278966611E-01 -0.10703798989E+00  0.89126674611E+00  0.88000000000E+00 0. -1.
        -11    1    4    4    0    0 -0.35568587692E-01  0.45000788320E-01  0.56473921343E-01  0.80496958282E-01  0.51100000000E-03 0. -1.
         11    1    4    4    0    0 -0.12089508521E-01  0.38030607988E-01  0.28045250996E-01  0.48777869825E-01  0.51100000000E-03 0.  1.
</event>
<event>
 8    1  0.1022673E+005  0.1043930E+01  0.7957747E-01            NaN
         13   -1    0    0    0    0  0.00000000000E+00  0.00000000000E+00  0.74505805969E-08  0.10566000000E+00  0.10566000000E+00 0.  1.
     999900   -1    0    0    0    0 -0.00000000000E+00 -0.00000000000E+00 -0.74505805969E-08  0.93827000000E+00  0.93827000000E+00 0.  1.
     999902    2    1    2    0    0 -0.41462665027E-02 -0.36927187118E-02  0.20937880964E-01  0.10222684544E+01  0.10220389280E+01 0.  0.
     999903    2    3    3    0    0  0.23127254942E-01 -0.11505447335E-01  0.13094743228E+00  0.13496524521E+00  0.20028533515E-01 0.  0.
         14    1    1    2    0    0  0.41462665027E-02  0.36927187118E-02 -0.20937880964E-01  0.21661545574E-01  0.00000000000E+00 0. -1.
     999901    1    3    3    0    0 -0.27273521444E-01  0.78127286233E-02 -0.11000955132E+00  0.88730320921E+00  0.88000000000E+00 0.  1.
        -11    1    4    4    0    0  0.41159430988E-02 -0.36087061690E-02  0.77395553749E-01  0.77590570361E-01  0.51100000000E-03 0. -1.
         11    1    4    4    0    0  0.19011311843E-01 -0.78967411661E-02  0.53551878531E-01  0.57374674851E-01  0.51100000000E-03 0.  1.
</event>
<event>
 8    1  0.1022673E+005  0.1043930E+01  0.7957747E-01            NaN
         13   -1    0    0    0    0  0.00000000000E+00  0.00000000000E+00  0.74505805969E-08  0.10566000000E+00  0.10566000000E+00 0. -1.
     999900   -1    0    0    0    0 -0.00000000000E+00 -0.00000000000E+00 -0.74505805969E-08  0.93827000000E+00  0.93827000000E+00 0.  1.
     999902    2    1    2    0    0  0.12757459647E-01  0.30999353738E-02 -0.99078991445E-02  0.10274822390E+01  0.10273505841E+01 0.  0.
     999903    2    3    3    0    0  0.29390681498E-01 -0.11355718316E+00  0.66723857309E-01  0.13632682413E+00  0.19336076061E-01 0.  0.
         14    1    1    2    0    0 -0.12757459647E-01 -0.30999353738E-02  0.99078991445E-02  0.16447760985E-01  0.00000000000E+00 0. -1.
     999901    1    3    3    0    0 -0.16633221852E-01  0.11665711854E+00 -0.76631756454E-01  0.89115541488E+00  0.88000000000E+00 0. -1.
        -11    1    4    4    0    0  0.24945934873E-01 -0.57935675870E-01  0.35639740086E-01  0.72452014462E-01  0.51100000000E-03 0. -1.
         11    1    4    4    0    0  0.44447466251E-02 -0.55621507293E-01  0.31084117223E-01  0.63874809672E-01  0.51100000000E-03 0.  1.
</event>
<event>
 8    1  0.1022673E+005  0.1043930E+01  0.7957747E-01            NaN
         13   -1    0    0    0    0  0.00000000000E+00  0.00000000000E+00  0.74505805969E-08  0.10566000000E+00  0.10566000000E+00 0.  1.
     999900   -1    0    0    0    0 -0.00000000000E+00 -0.00000000000E+00 -0.74505805969E-08  0.93827000000E+00  0.93827000000E+00 0.  1.
     999902    2    1    2    0    0 -0.57666684520E-03 -0.23139308633E-01 -0.37699366947E-02  0.10204785060E+01  0.10202090024E+01 0.  0.
     999903    2    3    3    0    0  0.43091019709E-01 -0.53908456563E-01  0.11014232760E+00  0.13152990721E+00  0.20145135726E-01 0.  0.
         14    1    1    2    0    0  0.57666684520E-03  0.23139308633E-01  0.37699366947E-02  0.23451494011E-01  0.00000000000E+00 0. -1.
     999901    1    3    3    0    0 -0.43667686554E-01  0.30769147930E-01 -0.11391226429E+00  0.88894859878E+00  0.88000000000E+00 0.  1.
        -11    1    4    4    0    0  0.19625469128E-01 -0.10210769688E-01  0.38168216082E-01  0.44119074061E-01  0.51100000000E-03 0.  1.
         11    1    4    4    0    0  0.23465550580E-01 -0.43697686875E-01  0.71974111516E-01  0.87410833149E-01  0.51100000000E-03 0. -1.
</event>
<event>
 7    1  0.1022673E+005  0.1043930E+01  0.7957747E-01            NaN
         13   -1    0    0    0    0  0.00000000000E+00  0.00000000000E+00  0.74505805969E-08  0.10566000000E+00  0.10566000000E+00 0.  1.
     999900   -1    0    0    0    0 -0.00000000000E+00 -0.00000000000E+00 -0.74505805969E-08  0.93827000000E+00  0.93827000000E+00 0. -1.
     999903    2    1    2    0    0  0.84419007000E-01  0.32635538155E-01 -0.10792158626E-01  0.93204156429E-01  0.19465276631E-01 0.  0.
         14    1    1    2    0    0 -0.13765035390E-02  0.58703719599E-01  0.20088234624E-01  0.62060926734E-01  0.00000000000E+00 0. -1.
     999901    1    1    2    0    0 -0.83042503461E-01 -0.91339257754E-01 -0.92960759980E-02  0.88866491684E+00  0.88000000000E+00 0. -1.
        -11    1    3    3    0    0  0.57323291743E-01  0.28363897387E-01 -0.14322425660E-01  0.65542836748E-01  0.51100000000E-03 0.  1.
         11    1    3    3    0    0  0.27095715257E-01  0.42716407671E-02  0.35302670338E-02  0.27661319681E-01  0.51100000000E-03 0. -1.
</event>
<event>
 8    1  0.1022673E+005  0.1043930E+01  0.7957747E-01            NaN
         13   -1    0    0    0    0  0.00000000000E+00  0.00000000000E+00  0.74505805969E-08  0.10566000000E+00  0.10566000000E+00 0. -1.
     999900   -1    0    0    0    0 -0.00000000000E+00 -0.00000000000E+00 -0.74505805969E-08  0.93827000000E+00  0.93827000000E+00 0. -1.
     999902    2    1    2    0    0 -0.47275318412E-02  0.10121226224E-01  0.21309335662E-01  0.10198701462E+01  0.10195863076E+01 0.  0.
     999903    2    3    3    0    0  0.36094981283E-01  0.12464374364E+00  0.20637082449E-02  0.13130260307E+00  0.19929981899E-01 0.  0.
         14    1    1    2    0    0  0.47275318412E-02 -0.10121226224E-01 -0.21309335662E-01  0.24059853780E-01  0.00000000000E+00 0.  1.
     999901    1    3    3    0    0 -0.40822513124E-01 -0.11452251741E+00  0.19245627417E-01  0.88856754315E+00  0.88000000000E+00 0.  1.
        -11    1    4    4    0    0  0.22582381486E-01  0.43424326960E-01  0.51012158778E-03  0.48950561493E-01  0.51100000000E-03 0. -1.
         11    1    4    4    0    0  0.13512599797E-01  0.81219416677E-01  0.15535866571E-02  0.82352041572E-01  0.51100000000E-03 0.  1.
</event>
<event>
 8    1  0.1022673E+005  0.1043930E+01  0.7957747E-01            NaN
         13   -1    0    0    0    0  0.00000000000E+00  0.00000000000E+00  0.74505805969E-08  0.10566000000E+00  0.10566000000E+00 0. -1.
     999900   -1    0    0    0    0 -0.00000000000E+00 -0.00000000000E+00 -0.74505805969E-08  0.93827000000E+00  0.93827000000E+00 0. -1.
     999902    2    1    2    0    0 -0.69919751944E-02  0.12579069734E-01  0.19237375221E-01  0.10199050688E+01  0.10196220634E+01 0.  0.
     999903    2    3    3    0    0 -0.11977452379E+00 -0.47452216421E-01 -0.32891181498E-02  0.13039334800E+00  0.19848362926E-01 0.  0.
         14    1    1    2    0    0  0.69919751944E-02 -0.12579069734E-01 -0.19237375221E-01  0.24024931173E-01  0.00000000000E+00 0.  1.
     999901    1    3    3    0    0  0.11278254860E+00  0.60031286155E-01  0.22526493371E-01  0.88951172083E+00  0.88000000000E+00 0.  1.
        -11    1    4    4    0    0 -0.73580177878E-01 -0.35473634182E-01 -0.96175151371E-02  0.82250708307E-01  0.51100000000E-03 0. -1.
         11    1    4    4    0    0 -0.46194345916E-01 -0.11978582240E-01  0.63283969873E-02  0.48142639692E-01  0.51100000000E-03 0.  1.
</event>
<event>
 8    1  0.1022673E+005  0.1043930E+01  0.7957747E-01            NaN
         13   -1    0    0    0    0  0.00000000000E+00  0.00000000000E+00  0.74505805969E-08  0.10566000000E+00  0.10566000000E+00 0. -1.
     999900   -1    0    0    0    0 -0.00000000000E+00 -0.00000000000E+00 -0.74505805969E-08  0.93827000000E+00  0.93827000000E+00 0.  1.
     999902    2    1    2    0    0 -0.32811786193E-02 -0.22062507308E-01 -0.10253727868E-01  0.10193808799E+01  0.10190852364E+01 0.  0.
     999903    2    3    3    0    0 -0.30644331516E-02  0.12468050742E+00 -0.13780841663E-01  0.12722282223E+00  0.21002743146E-01 0.  0.
         14    1    1    2    0    0  0.32811786193E-02  0.22062507308E-01  0.10253727868E-01  0.24549120087E-01  0.00000000000E+00 0. -1.
     999901    1    3    3    0    0 -0.21674546770E-03 -0.14674301473E+00  0.35271137943E-02  0.89215805768E+00  0.88000000000E+00 0. -1.
        -11    1    4    4    0    0 -0.68465418130E-02  0.72795358617E-01 -0.17101306538E-01  0.75091645189E-01  0.51100000000E-03 0. -1.
         11    1    4    4    0    0  0.37821086614E-02  0.51885148801E-01  0.33204648753E-02  0.52131177044E-01  0.51100000000E-03 0.  1.
</event>
<event>
 8    1  0.1022673E+005  0.1043930E+01  0.7957747E-01            NaN
         13   -1    0    0    0    0  0.00000000000E+00  0.00000000000E+00  0.74505805969E-08  0.10566000000E+00  0.10566000000E+00 0. -1.
     999900   -1    0    0    0    0 -0.00000000000E+00 -0.00000000000E+00 -0.74505805969E-08  0.93827000000E+00  0.93827000000E+00 0. -1.
     999902    2    1    2    0    0  0.10645886956E-01 -0.11369553551E-01 -0.20769220917E-01  0.10179692181E+01  0.10176381316E+01 0.  0.
     999903    2    3    3    0    0  0.11516320888E+00  0.54072513662E-01  0.62080012583E-02  0.12896173490E+00  0.20154115599E-01 0.  0.
         14    1    1    2    0    0 -0.10645886956E-01  0.11369553551E-01  0.20769220917E-01  0.25960781855E-01  0.00000000000E+00 0. -1.
     999901    1    3    3    0    0 -0.10451732193E+00 -0.65442067213E-01 -0.26977222175E-01  0.88900748324E+00  0.88000000000E+00 0.  1.
        -11    1    4    4    0    0  0.64042935189E-01  0.33434476250E-01 -0.59972910725E-02  0.72495450691E-01  0.51100000000E-03 0.  1.
         11    1    4    4    0    0  0.51120273694E-01  0.20638037412E-01  0.12205292331E-01  0.56466284211E-01  0.51100000000E-03 0. -1.
</event>
<event>
 8    1  0.1022673E+005  0.1043930E+01  0.7957747E-01            NaN
         13   -1    0    0    0    0  0.00000000000E+00  0.00000000000E+00  0.74505805969E-08  0.10566000000E+00  0.10566000000E+00 0.  1.
     999900   -1    0    0    0    0 -0.00000000000E+00 -0.00000000000E+00 -0.74505805969E-08  0.93827000000E+00  0.93827000000E+00 0.  1.
     999902    2    1    2    0    0  0.10908456170E-01  0.11941983895E-01  0.17262008644E-01  0.10202745072E+01  0.10200002391E+01 0.  0.
     999903    2    3    3    0    0 -0.39140914462E-01  0.11489664409E+00 -0.44171699588E-01  0.13073603024E+00  0.20187138250E-01 0.  0.
         14    1    1    2    0    0 -0.10908456170E-01 -0.11941983895E-01 -0.17262008644E-01  0.23655492761E-01  0.00000000000E+00 0. -1.
     999901    1    3    3    0    0  0.50049370632E-01 -0.10295466019E+00  0.61433708232E-01  0.88953847700E+00  0.88000000000E+00 0.  1.
        -11    1    4    4    0    0 -0.19091505006E-01  0.41235101953E-01 -0.25633981071E-01  0.52174527339E-01  0.51100000000E-03 0. -1.
         11    1    4    4    0    0 -0.20049409456E-01  0.73661542134E-01 -0.18537718517E-01  0.78561502900E-01  0.51100000000E-03 0.  1.
</event>
<event>
 7    1  0.1022673E+005  0.1043930E+01  0.7957747E-01            NaN
         13   -1    0    0    0    0  0.00000000000E+00  0.00000000000E+00  0.74505805969E-08  0.10566000000E+00  0.10566000000E+00 0.  1.
     999900   -1    0    0    0    0 -0.00000000000E+00 -0.00000000000E+00 -0.74505805969E-08  0.93827000000E+00  0.93827000000E+00 0. -1.
     999903    2    1    2    0    0 -0.14321082130E-01  0.10005325001E+00  0.62711734899E-01  0.12063985670E+00  0.20136213616E-01 0.  0.
         14    1    1    2    0    0  0.21970764939E-01 -0.27196028783E-01 -0.17480628406E-01  0.39088500394E-01  0.00000000000E+00 0. -1.
     999901    1    1    2    0    0 -0.76496828094E-02 -0.72857221226E-01 -0.45231106493E-01  0.88420164291E+00  0.88000000000E+00 0.  1.
        -11    1    3    3    0    0 -0.40804657054E-02  0.43169945680E-01  0.38442131902E-01  0.57951298834E-01  0.51100000000E-03 0.  1.
         11    1    3    3    0    0 -0.10240616424E-01  0.56883304329E-01  0.24269602997E-01  0.62688557862E-01  0.51100000000E-03 0. -1.
</event>
<event>
 8    1  0.1022673E+005  0.1043930E+01  0.7957747E-01            NaN
         13   -1    0    0    0    0  0.00000000000E+00  0.00000000000E+00  0.74505805969E-08  0.10566000000E+00  0.10566000000E+00 0.  1.
     999900   -1    0    0    0    0 -0.00000000000E+00 -0.00000000000E+00 -0.74505805969E-08  0.93827000000E+00  0.93827000000E+00 0.  1.
     999902    2    1    2    0    0 -0.14243611294E-02 -0.76303727146E-02  0.19554024935E-01  0.10228916711E+01  0.10226752952E+01 0.  0.
     999903    2    3    3    0    0  0.13688415444E-01  0.48386782006E-01  0.12351927467E+00  0.13487416518E+00  0.20133947180E-01 0.  0.
         14    1    1    2    0    0  0.14243611294E-02  0.76303727146E-02 -0.19554024935E-01  0.21038328915E-01  0.00000000000E+00 0. -1.
     999901    1    3    3    0    0 -0.15112776573E-01 -0.56017154721E-01 -0.10396524973E+00  0.88801750590E+00  0.88000000000E+00 0.  1.
        -11    1    4    4    0    0  0.16671071110E-01  0.23242888067E-01  0.59244986956E-01  0.65790470875E-01  0.51100000000E-03 0.  1.
         11    1    4    4    0    0 -0.29826556664E-02  0.25143893939E-01  0.64274287711E-01  0.69083694306E-01  0.51100000000E-03 0. -1.
</event>
<event>
 8    1  0.1022673E+005  0.1043930E+01  0.7957747E-01            NaN
         13   -1    0    0    0    0  0.00000000000E+00  0.00000000000E+00  0.74505805969E-08  0.10566000000E+00  0.10566000000E+00 0. -1.
     999900   -1    0    0    0    0 -0.00000000000E+00 -0.00000000000E+00 -0.74505805969E-08  0.93827000000E+00  0.93827000000E+00 0. -1.
     999902    2    1    2    0    0  0.17550831550E-01 -0.15406609003E-01 -0.93963293994E-03  0.10205574050E+01  0.10202897327E+01 0.  0.
     999903    2    3    3    0    0 -0.56882830175E-01 -0.56666688086E-01 -0.10128543049E+00  0.13077538490E+00  0.19917152388E-01 0.  0.
         14    1    1    2    0    0 -0.17550831550E-01  0.15406609003E-01  0.93963293994E-03  0.23372595045E-01  0.00000000000E+00 0. -1.
     999901    1    3    3    0    0  0.74433661726E-01  0.41260079082E-01  0.10034579755E+00  0.88978202005E+00  0.88000000000E+00 0.  1.
        -11    1    4    4    0    0 -0.16606925389E-01 -0.88980717924E-02 -0.34533559725E-01  0.39342007077E-01  0.51100000000E-03 0. -1.
         11    1    4    4    0    0 -0.40275904786E-01 -0.47768616293E-01 -0.66751870765E-01  0.91433377825E-01  0.51100000000E-03 0.  1.
</event>
<event>
 8    1  0.1022673E+005  0.1043930E+01  0.7957747E-01            NaN
         13   -1    0    0    0    0  0.00000000000E+00  0.00000000000E+00  0.74505805969E-08  0.10566000000E+00  0.10566000000E+00 0. -1.
     999900   -1    0    0    0    0 -0.00000000000E+00 -0.00000000000E+00 -0.74505805969E-08  0.93827000000E+00  0.93827000000E+00 0.  1.
     999902    2    1    2    0    0  0.64448549716E-02  0.21340930730E-01  0.81621012652E-02  0.10201899204E+01  0.10199136642E+01 0.  0.
     999903    2    3    3    0    0  0.77546292642E-01  0.88065911708E-02 -0.10253795634E+00  0.13032081386E+00  0.19455037494E-01 0.  0.
         14    1    1    2    0    0 -0.64448549716E-02 -0.21340930730E-01 -0.81621012652E-02  0.23740079551E-01  0.00000000000E+00 0. -1.
     999901    1    3    3    0    0 -0.71101437670E-01  0.12534339559E-01  0.11070005761E+00  0.88986910659E+00  0.88000000000E+00 0. -1.
        -11    1    4    4    0    0  0.46981774463E-01 -0.41064035637E-02 -0.57218245274E-01  0.74150781487E-01  0.51100000000E-03 0. -1.
         11    1    4    4    0    0  0.30564518179E-01  0.12912994735E-01 -0.45319711068E-01  0.56170032373E-01  0.51100000000E-03 0.  1.
</event>
<event>
 8    1  0.1022673E+005  0.1043930E+01  0.7957747E-01            NaN
         13   -1    0    0    0    0  0.00000000000E+00  0.00000000000E+00  0.74505805969E-08  0.10566000000E+00  0.10566000000E+00 0.  1.
     999900   -1    0    0    0    0 -0.00000000000E+00 -0.00000000000E+00 -0.74505805969E-08  0.93827000000E+00  0.93827000000E+00 0. -1.
     999902    2    1    2    0    0 -0.50088251489E-02 -0.52823128398E-02  0.18514973795E-01  0.10240353924E+01  0.10238421213E+01 0.  0.
     999903    2    3    3    0    0 -0.66182840645E-01  0.22912269279E-01  0.11472986777E+00  0.13623220446E+00  0.22161464196E-01 0.  0.
         14    1    1    2    0    0  0.50088251489E-02  0.52823128398E-02 -0.18514973795E-01  0.19894607634E-01  0.00000000000E+00 0. -1.
     999901    1    3    3    0    0  0.61174015496E-01 -0.28194582119E-01 -0.96214893971E-01  0.88780318791E+00  0.88000000000E+00 0. -1.
        -11    1    4    4    0    0  0.43819853088E-03 -0.21201733661E-02  0.45548538018E-02  0.50690203403E-02  0.51100000000E-03 0. -1.
         11    1    4    4    0    0 -0.66621039176E-01  0.25032442645E-01  0.11017501396E+00  0.13116318412E+00  0.51100000000E-03 0.  1.
</event>
<event>
 8    1  0.1022673E+005  0.1043930E+01  0.7957747E-01            NaN
         13   -1    0    0    0    0  0.00000000000E+00  0.00000000000E+00  0.74505805969E-08  0.10566000000E+00  0.10566000000E+00 0. -1.
     999900   -1    0    0    0    0 -0.00000000000E+00 -0.00000000000E+00 -0.74505805969E-08  0.93827000000E+00  0.93827000000E+00 0.  1.
     999902    2    1    2    0    0 -0.89541707107E-02 -0.14774901083E-01  0.15918465011E-01  0.10204380353E+01  0.10201675899E+01 0.  0.
     999903    2    3    3    0    0  0.65845112815E-01 -0.38809648129E-01 -0.10177006524E+00  0.12913382687E+00  0.21831889395E-01 0.  0.
         14    1    1    2    0    0  0.89541707107E-02  0.14774901083E-01 -0.15918465011E-01  0.23491964657E-01  0.00000000000E+00 0.  1.
     999901    1    3    3    0    0 -0.74799283525E-01  0.24034747046E-01  0.11768853025E+00  0.89130420847E+00  0.88000000000E+00 0.  1.
        -11    1    4    4    0    0  0.78539742997E-02 -0.13899434482E-01 -0.26054205891E-01  0.30560791168E-01  0.51100000000E-03 0.  1.
         11    1    4    4    0    0  0.57991138515E-01 -0.24910213647E-01 -0.75715859351E-01  0.98573035707E-01  0.51100000000E-03 0. -1.
</event>
<event>
 8    1  0.1022673E+005  0.1043930E+01  0.7957747E-01            NaN
         13   -1    0    0    0    0  0.00000000000E+00  0.00000000000E+00  0.74505805969E-08  0.10566000000E+00  0.10566000000E+00 0. -1.
     999900   -1    0    0    0    0 -0.00000000000E+00 -0.00000000000E+00 -0.74505805969E-08  0.93827000000E+00  0.93827000000E+00 0. -1.
     999902    2    1    2    0    0  0.66510346437E-02  0.14274261926E-01  0.22112476312E-01  0.10167831323E+01  0.10164206736E+01 0.  0.
     999903    2    3    3    0    0 -0.49523710212E-01  0.26786101575E-01 -0.10983408487E+00  0.12508697158E+00  0.20325627915E-01 0.  0.
         14    1    1    2    0    0 -0.66510346437E-02 -0.14274261926E-01 -0.22112476312E-01  0.27146867665E-01  0.00000000000E+00 0.  1.
     999901    1    3    3    0    0  0.56174744856E-01 -0.12511839649E-01  0.13194656118E+00  0.89169616075E+00  0.88000000000E+00 0.  1.
        -11    1    4    4    0    0 -0.36461256129E-01  0.16893097120E-01 -0.56818826077E-01  0.69594827728E-01  0.51100000000E-03 0. -1.
         11    1    4    4    0    0 -0.13062454083E-01  0.98930044553E-02 -0.53015258793E-01  0.55492143855E-01  0.51100000000E-03 0.  1.
</event>
<event>
 8    1  0.1022673E+005  0.1043930E+01  0.7957747E-01            NaN
         13   -1    0    0    0    0  0.00000000000E+00  0.00000000000E+00  0.74505805969E-08  0.10566000000E+00  0.10566000000E+00 0. -1.
     999900   -1    0    0    0    0 -0.00000000000E+00 -0.00000000000E+00 -0.74505805969E-08  0.93827000000E+00  0.93827000000E+00 0.  1.
     999902    2    1    2    0    0  0.23750781054E-01 -0.22778784533E-02 -0.48200219433E-02  0.10195882469E+01  0.10192976368E+01 0.  0.
     999903    2    3    3    0    0 -0.12434564805E+00 -0.15554943181E-01  0.37073035493E-02  0.12707407447E+00  0.20743188189E-01 0.  0.
         14    1    1    2    0    0 -0.23750781054E-01  0.22778784533E-02  0.48200219433E-02  0.24341753069E-01  0.00000000000E+00 0.  1.
     999901    1    3    3    0    0  0.14809642911E+00  0.13277064727E-01 -0.85273254927E-02  0.89251417246E+00  0.88000000000E+00 0. -1.
        -11    1    4    4    0    0 -0.11832589534E+00 -0.11693540434E-01  0.71544837073E-02  0.11911844590E+00  0.51100000000E-03 0. -1.
         11    1    4    4    0    0 -0.60197527105E-02 -0.38614027471E-02 -0.34471801580E-02  0.79556285680E-02  0.51100000000E-03 0.  1.
</event>
<event>
 8    1  0.1022673E+005  0.1043930E+01  0.7957747E-01            NaN
         13   -1    0    0    0    0  0.00000000000E+00  0.00000000000E+00  0.74505805969E-08  0.10566000000E+00  0.10566000000E+00 0.  1.
     999900   -1    0    0    0    0 -0.00000000000E+00 -0.00000000000E+00 -0.74505805969E-08  0.93827000000E+00  0.93827000000E+00 0.  1.
     999902    2    1    2    0    0  0.67009817910E-02  0.86355974086E-02  0.20923439432E-01  0.10203234963E+01  0.10200503762E+01 0.  0.
     999903    2    3    3    0    0 -0.60448824090E-01  0.10440504233E+00  0.48994377901E-01  0.13214059813E+00  0.22499231338E-01 0.  0.
         14    1    1    2    0    0 -0.67009817910E-02 -0.86355974086E-02 -0.20923439432E-01  0.23606503706E-01  0.00000000000E+00 0. -1.
     999901    1    3    3    0    0  0.67149805881E-01 -0.95769444917E-01 -0.28070938469E-01  0.88818289817E+00  0.88000000000E+00 0.  1.
        -11    1    4    4    0    0 -0.71101698979E-02  0.27774170087E-01  0.17555880296E-01  0.33621854410E-01  0.51100000000E-03 0.  1.
         11    1    4    4    0    0 -0.53338654192E-01  0.76630872238E-01  0.31438497605E-01  0.98518743717E-01  0.51100000000E-03 0. -1.
</event>
<event>
 8    1  0.1022673E+005  0.1043930E+01  0.7957747E-01            NaN
         13   -1    0    0    0    0  0.00000000000E+00  0.00000000000E+00  0.74505805969E-08  0.10566000000E+00  0.10566000000E+00 0. -1.
     999900   -1    0    0    0    0 -0.00000000000E+00 -0.00000000000E+00 -0.74505805969E-08  0.93827000000E+00  0.93827000000E+00 0. -1.
     999902    2    1    2    0    0  0.79749484528E-02  0.12219450069E-01  0.17851273668E-01  0.10208739220E+01  0.10206135321E+01 0.  0.
     999903    2    3    3    0    0  0.76998325525E-01 -0.24897301695E-01  0.10392407730E+00  0.13320821497E+00  0.19889618606E-01 0.  0.
         14    1    1    2    0    0 -0.79749484528E-02 -0.12219450069E-01 -0.17851273668E-01  0.23056078036E-01  0.00000000000E+00 0. -1.
     999901    1    3    3    0    0 -0.69023377072E-01  0.37116751764E-01 -0.86072803631E-01  0.88766570699E+00  0.88000000000E+00 0. -1.
        -11    1    4    4    0    0  0.66394402503E-01 -0.15357609729E-01  0.92678494254E-01  0.11503754725E+00  0.51100000000E-03 0.  1.
         11    1    4    4    0    0  0.10603923022E-01 -0.95396919658E-02  0.11245583046E-01  0.18170667717E-01  0.51100000000E-03 0. -1.
</event>
<event>
 8    1  0.1022673E+005  0.1043930E+01  0.7957747E-01            NaN
         13   -1    0    0    0    0  0.00000000000E+00  0.00000000000E+00  0.74505805969E-08  0.10566000000E+00  0.10566000000E+00 0.  1.
     999900   -1    0    0    0    0 -0.00000000000E+00 -0.00000000000E+00 -0.74505805969E-08  0.93827000000E+00  0.93827000000E+00 0.  1.
     999902    2    1    2    0    0 -0.12930032540E-01  0.17336158611E-01  0.98646489963E-02  0.10201594418E+01  0.10198824674E+01 0.  0.
     999903    2    3    3    0    0  0.70613105169E-02  0.90389026005E-01  0.95024107216E-01  0.13281029488E+00  0.19721950858E-01 0.  0.
         14    1    1    2    0    0  0.12930032540E-01 -0.17336158611E-01 -0.98646489963E-02  0.23770558190E-01  0.00000000000E+00 0.  1.
     999901    1    3    3    0    0 -0.19991343057E-01 -0.73052867394E-01 -0.85159458220E-01  0.88734914693E+00  0.88000000000E+00 0.  1.
        -11    1    4    4    0    0 -0.21697357093E-02  0.68160556207E-01  0.76116582079E-01  0.10219865148E+00  0.51100000000E-03 0. -1.
         11    1    4    4    0    0  0.92310462262E-02  0.22228469798E-01  0.18907525137E-01  0.30611643402E-01  0.51100000000E-03 0.  1.
</event>
<event>
 8    1  0.1022673E+005  0.1043930E+01  0.7957747E-01            NaN
         13   -1    0    0    0    0  0.00000000000E+00  0.00000000000E+00  0.74505805969E-08  0.10566000000E+00  0.10566000000E+00 0. -1.
     999900   -1    0    0    0    0 -0.00000000000E+00 -0.00000000000E+00 -0.74505805969E-08  0.93827000000E+00  0.93827000000E+00 0. -1.
     999902    2    1    2    0    0 -0.18179305399E-01  0.32062296620E-02 -0.14887557241E-01  0.10202148906E+01  0.10199392220E+01 0.  0.
     999903    2    3    3    0    0 -0.73247384318E-01  0.31707733245E-01 -0.10509988568E+00  0.13343245210E+00  0.19689429813E-01 0.  0.
         14    1    1    2    0    0  0.18179305399E-01 -0.32062296620E-02  0.14887557241E-01  0.23715109403E-01  0.00000000000E+00 0. -1.
     999901    1    3    3    0    0  0.55068078919E-01 -0.28501503583E-01  0.90212328441E-01  0.88678243850E+00  0.88000000000E+00 0.  1.
        -11    1    4    4    0    0 -0.65448459151E-01  0.34355482543E-01 -0.93299637543E-01  0.11903311923E+00  0.51100000000E-03 0. -1.
         11    1    4    4    0    0 -0.77989251663E-02 -0.26477492981E-02 -0.11800248139E-01  0.14399332875E-01  0.51100000000E-03 0.  1.
</event>
<event>
 8    1  0.1022673E+005  0.1043930E+01  0.7957747E-01            NaN
         13   -1    0    0    0    0  0.00000000000E+00  0.00000000000E+00  0.74505805969E-08  0.10566000000E+00  0.10566000000E+00 0.  1.
     999900   -1    0    0    0    0 -0.00000000000E+00 -0.00000000000E+00 -0.74505805969E-08  0.93827000000E+00  0.93827000000E+00 0.  1.
     999902    2    1    2    0    0 -0.25121588285E-01  0.30219576173E-02  0.95265031971E-02  0.10168933455E+01  0.10165338634E+01 0.  0.
     999903    2    3    3    0    0  0.67771399794E-01 -0.14320910440E-01  0.10462470572E+00  0.12673967870E+00  0.17848417451E-01 0.  0.
         14    1    1    2    0    0  0.25121588285E-01 -0.30219576173E-02 -0.95265031971E-02  0.27036654544E-01  0.00000000000E+00 0.  1.
     999901    1    3    3    0    0 -0.92892988079E-01  0.17342868057E-01 -0.95098202522E-01  0.89015366675E+00  0.88000000000E+00 0.  1.
        -11    1    4    4    0    0  0.19715696760E-01 -0.36016402542E-02  0.17260502458E-01  0.26454991539E-01  0.51100000000E-03 0.  1.
         11    1    4    4    0    0  0.48055703035E-01 -0.10719270186E-01  0.87364203261E-01  0.10028468717E+00  0.51100000000E-03 0. -1.
</event>
<event>
 8    1  0.1101198E+005  0.1043930E+01  0.7957747E-01            NaN
         13   -1    0    0    0    0  0.00000000000E+00  0.00000000000E+00  0.74505805969E-08  0.10566000000E+00  0.10566000000E+00 0.  1.
     999900   -1    0    0    0    0 -0.00000000000E+00 -0.00000000000E+00 -0.74505805969E-08  0.93827000000E+00  0.93827000000E+00 0.  1.
     999902    2    1    2    0    0  0.15417624421E-01  0.12375308951E-01 -0.14248715023E-01  0.10195604023E+01  0.10192691188E+01 0.  0.
     999903    2    3    3    0    0 -0.23155676186E-01 -0.16146901876E-01 -0.12647294473E+00  0.13113725208E+00  0.20116295778E-01 0.  0.
         14    1    1    2    0    0 -0.15417624421E-01 -0.12375308951E-01  0.14248715023E-01  0.24369597745E-01  0.00000000000E+00 0.  1.
     999901    1    3    3    0    0  0.38573300607E-01  0.28522210826E-01  0.11222422970E+00  0.88842315017E+00  0.88000000000E+00 0. -1.
        -11    1    4    4    0    0 -0.76828833288E-02 -0.17394548019E-01 -0.64398736756E-01  0.67149500474E-01  0.51100000000E-03 0.  1.
         11    1    4    4    0    0 -0.15472792857E-01  0.12476461433E-02 -0.62074207971E-01  0.63987751609E-01  0.51100000000E-03 0. -1.
</event>
<event>
 8    1  0.1022673E+005  0.1043930E+01  0.7957747E-01            NaN
         13   -1    0    0    0    0  0.00000000000E+00  0.00000000000E+00  0.74505805969E-08  0.10566000000E+00  0.10566000000E+00 0.  1.
     999900   -1    0    0    0    0 -0.00000000000E+00 -0.00000000000E+00 -0.74505805969E-08  0.93827000000E+00  0.93827000000E+00 0.  1.
     999902    2    1    2    0    0  0.22975546295E-01  0.23422828822E-02 -0.36060891419E-02  0.10205555290E+01  0.10202878132E+01 0.  0.
     999903    2    3    3    0    0 -0.11280329409E+00 -0.36997404344E-01  0.43892122045E-01  0.12800884417E+00  0.19140395078E-01 0.  0.
         14    1    1    2    0    0 -0.22975546295E-01 -0.23422828822E-02  0.36060891419E-02  0.23374471022E-01  0.00000000000E+00 0.  1.
     999901    1    3    3    0    0  0.13577884038E+00  0.39339687226E-01 -0.47498211187E-01  0.89254668480E+00  0.88000000000E+00 0.  1.
        -11    1    4    4    0    0 -0.29125565028E-01 -0.21624311089E-02  0.15244707627E-01  0.32949004205E-01  0.51100000000E-03 0. -1.
         11    1    4    4    0    0 -0.83677729062E-01 -0.34834973235E-01  0.28647414418E-01  0.95059839970E-01  0.51100000000E-03 0.  1.
</event>
<event>
 8    1  0.1022673E+005  0.1043930E+01  0.7957747E-01            NaN
         13   -1    0    0    0    0  0.00000000000E+00  0.00000000000E+00  0.74505805969E-08  0.10566000000E+00  0.10566000000E+00 0.  1.
     999900   -1    0    0    0    0 -0.00000000000E+00 -0.00000000000E+00 -0.74505805969E-08  0.93827000000E+00  0.93827000000E+00 0.  1.
     999902    2    1    2    0    0 -0.14943303536E-02 -0.22147031978E-01  0.81054347051E-02  0.10202990432E+01  0.10200253504E+01 0.  0.
     999903    2    3    3    0    0 -0.19270474516E-01  0.48727272648E-01  0.11766657048E+00  0.13049973950E+00  0.20953804265E-01 0.  0.
         14    1    1    2    0    0  0.14943303536E-02  0.22147031978E-01 -0.81054347051E-02  0.23630956823E-01  0.00000000000E+00 0. -1.
     999901    1    3    3    0    0  0.17776144162E-01 -0.70874304626E-01 -0.10956113577E+00  0.88979930368E+00  0.88000000000E+00 0.  1.
        -11    1    4    4    0    0 -0.95605331196E-02  0.41849766110E-01  0.77401613441E-01  0.88510324829E-01  0.51100000000E-03 0. -1.
         11    1    4    4    0    0 -0.97099413961E-02  0.68775065387E-02  0.40264957035E-01  0.41989414668E-01  0.51100000000E-03 0.  1.
</event>
<event>
 8    1  0.1022673E+005  0.1043930E+01  0.7957747E-01            NaN
         13   -1    0    0    0    0  0.00000000000E+00  0.00000000000E+00  0.74505805969E-08  0.10566000000E+00  0.10566000000E+00 0.  1.
     999900   -1    0    0    0    0 -0.00000000000E+00 -0.00000000000E+00 -0.74505805969E-08  0.93827000000E+00  0.93827000000E+00 0. -1.
     999902    2    1    2    0    0 -0.93060986695E-03 -0.19937030604E-02 -0.19652611374E-01  0.10241546107E+01  0.10239636716E+01 0.  0.
     999903    2    3    3    0    0 -0.63521623446E-01 -0.11017872647E+00  0.35128679949E-01  0.13363643341E+00  0.21220833336E-01 0.  0.
         14    1    1    2    0    0  0.93060986695E-03  0.19937030604E-02  0.19652611374E-01  0.19775389261E-01  0.00000000000E+00 0.  1.
     999901    1    3    3    0    0  0.62591013579E-01  0.10818502341E+00 -0.54781291323E-01  0.89051817733E+00  0.88000000000E+00 0.  1.
        -11    1    4    4    0    0 -0.19415195462E-02 -0.39701326388E-02 -0.26578224583E-02  0.51823346609E-02  0.51100000000E-03 0.  1.
         11    1    4    4    0    0 -0.61580103900E-01 -0.10620859383E+00  0.37786502408E-01  0.12845409875E+00  0.51100000000E-03 0. -1.
</event>
<event>
 8    1  0.1022673E+005  0.1043930E+01  0.7957747E-01            NaN
         13   -1    0    0    0    0  0.00000000000E+00  0.00000000000E+00  0.74505805969E-08  0.10566000000E+00  0.10566000000E+00 0. -1.
     999900   -1    0    0    0    0 -0.00000000000E+00 -0.00000000000E+00 -0.74505805969E-08  0.93827000000E+00  0.93827000000E+00 0. -1.
     999902    2    1    2    0    0  0.94954026624E-02 -0.38432927166E-02 -0.19355642097E-01  0.10220308116E+01  0.10217961663E+01 0.  0.
     999903    2    3    3    0    0 -0.17549356006E-01  0.10909145106E+00  0.66041952086E-01  0.13030303679E+00  0.20209338667E-01 0.  0.
         14    1    1    2    0    0 -0.94954026624E-02  0.38432927166E-02  0.19355642097E-01  0.21899188378E-01  0.00000000000E+00 0. -1.
     999901    1    3    3    0    0  0.27044758669E-01 -0.11293474378E+00 -0.85397594183E-01  0.89172777484E+00  0.88000000000E+00 0. -1.
        -11    1    4    4    0    0 -0.95430750687E-02  0.45845662124E-01  0.39426834854E-01  0.61217901344E-01  0.51100000000E-03 0. -1.
         11    1    4    4    0    0 -0.80062809376E-02  0.63245788936E-01  0.26615117232E-01  0.69085135441E-01  0.51100000000E-03 0.  1.
</event>
<event>
 8    1  0.1301793E+005  0.1043930E+01  0.7957747E-01            NaN
         13   -1    0    0    0    0  0.00000000000E+00  0.00000000000E+00  0.74505805969E-08  0.10566000000E+00  0.10566000000E+00 0. -1.
     999900   -1    0    0    0    0 -0.00000000000E+00 -0.00000000000E+00 -0.74505805969E-08  0.93827000000E+00  0.93827000000E+00 0.  1.
     999902    2    1    2    0    0 -0.58129933690E-03 -0.18706526012E-01 -0.13809302948E-01  0.10206712625E+01  0.10204062216E+01 0.  0.
     999903    2    3    3    0    0 -0.61405245042E-01 -0.60285385708E-01 -0.99758753454E-01  0.13341951577E+00  0.21071935120E-01 0.  0.
         14    1    1    2    0    0  0.58129933690E-03  0.18706526012E-01  0.13809302948E-01  0.23258737547E-01  0.00000000000E+00 0. -1.
     999901    1    3    3    0    0  0.60823945705E-01  0.41578859697E-01  0.85949450506E-01  0.88725174668E+00  0.88000000000E+00 0. -1.
        -11    1    4    4    0    0 -0.33515648578E-01 -0.40604389140E-01 -0.46994595112E-01  0.70574557794E-01  0.51100000000E-03 0. -1.
         11    1    4    4    0    0 -0.27889596463E-01 -0.19680996568E-01 -0.52764158343E-01  0.62844957979E-01  0.51100000000E-03 0.  1.
</event>
<event>
 8    1  0.1022673E+005  0.1043930E+01  0.7957747E-01            NaN
         13   -1    0    0    0    0  0.00000000000E+00  0.00000000000E+00  0.74505805969E-08  0.10566000000E+00  0.10566000000E+00 0. -1.
     999900   -1    0    0    0    0 -0.00000000000E+00 -0.00000000000E+00 -0.74505805969E-08  0.93827000000E+00  0.93827000000E+00 0. -1.
     999902    2    1    2    0    0  0.99801126197E-02  0.30632880002E-02  0.21059877937E-01  0.10204245785E+01  0.10201538196E+01 0.  0.
     999903    2    3    3    0    0 -0.11872301337E-01  0.12641283954E+00 -0.23257558270E-01  0.13044891871E+00  0.18837431761E-01 0.  0.
         14    1    1    2    0    0 -0.99801126197E-02 -0.30632880002E-02 -0.21059877937E-01  0.23505421503E-01  0.00000000000E+00 0.  1.
     999901    1    3    3    0    0  0.21852413957E-01 -0.12334955154E+00  0.44317436207E-01  0.88997565979E+00  0.88000000000E+00 0. -1.
        -11    1    4    4    0    0 -0.68659843085E-02  0.74461881675E-01 -0.42453156964E-02  0.74899915818E-01  0.51100000000E-03 0. -1.
         11    1    4    4    0    0 -0.50063170285E-02  0.51950957869E-01 -0.19012242573E-01  0.55549002893E-01  0.51100000000E-03 0.  1.
</event>
<event>
 8    1  0.1022673E+005  0.1043930E+01  0.7957747E-01            NaN
         13   -1    0    0    0    0  0.00000000000E+00  0.00000000000E+00  0.74505805969E-08  0.10566000000E+00  0.10566000000E+00 0. -1.
     999900   -1    0    0    0    0 -0.00000000000E+00 -0.00000000000E+00 -0.74505805969E-08  0.93827000000E+00  0.93827000000E+00 0.  1.
     999902    2    1    2    0    0 -0.74766830633E-02 -0.64734071964E-02  0.17171832219E-01  0.10241139052E+01  0.10239221715E+01 0.  0.
     999903    2    3    3    0    0  0.64678908092E-01  0.11182104512E+00  0.25203455191E-01  0.13323539850E+00  0.20715935276E-01 0.  0.
         14    1    1    2    0    0  0.74766830633E-02  0.64734071964E-02 -0.17171832219E-01  0.19816094774E-01  0.00000000000E+00 0.  1.
     999901    1    3    3    0    0 -0.72155591155E-01 -0.11829445232E+00 -0.80316229728E-02  0.89087850673E+00  0.88000000000E+00 0. -1.
        -11    1    4    4    0    0  0.10530960444E-01  0.19663218875E-01 -0.34390517114E-02  0.22575019426E-01  0.51100000000E-03 0. -1.
         11    1    4    4    0    0  0.54147947648E-01  0.92157826249E-01  0.28642506903E-01  0.11066037907E+00  0.51100000000E-03 0.  1.
</event>
<event>
 8    1  0.1022673E+005  0.1043930E+01  0.7957747E-01            NaN
         13   -1    0    0    0    0  0.00000000000E+00  0.00000000000E+00  0.74505805969E-08  0.10566000000E+00  0.10566000000E+00 0. -1.
     999900   -1    0    0    0    0 -0.00000000000E+00 -0.00000000000E+00 -0.74505805969E-08  0.93827000000E+00  0.93827000000E+00 0. -1.
     999902    2    1    2    0    0  0.22641475950E-01  0.32268753184E-02 -0.73056538550E-02  0.10199212154E+01  0.10196385948E+01 0.  0.
     999903    2    3    3    0    0 -0.10450742008E+00 -0.37515220265E-01  0.59222043482E-01  0.12736718648E+00  0.19645792263E-01 0.  0.
         14    1    1    2    0    0 -0.22641475950E-01 -0.32268753184E-02  0.73056538550E-02  0.24008784554E-01  0.00000000000E+00 0. -1.
     999901    1    3    3    0    0  0.12714889603E+00  0.40742095583E-01 -0.66527697337E-01  0.89255402897E+00  0.88000000000E+00 0. -1.
        -11    1    4    4    0    0 -0.44150096714E-01 -0.24193070037E-01  0.20075846094E-01  0.54201811733E-01  0.51100000000E-03 0. -1.
         11    1    4    4    0    0 -0.60357323366E-01 -0.13322150227E-01  0.39146197388E-01  0.73165374745E-01  0.51100000000E-03 0.  1.
</event>
<event>
 8    1  0.1022673E+005  0.1043930E+01  0.7957747E-01            NaN
         13   -1    0    0    0    0  0.00000000000E+00  0.00000000000E+00  0.74505805969E-08  0.10566000000E+00  0.10566000000E+00 0.  1.
     999900   -1    0    0    0    0 -0.00000000000E+00 -0.00000000000E+00 -0.74505805969E-08  0.93827000000E+00  0.93827000000E+00 0. -1.
     999902    2    1    2    0    0 -0.49832070936E-02 -0.21656133593E-01 -0.53559919183E-02  0.10210715853E+01  0.10208156911E+01 0.  0.
     999903    2    3    3    0    0 -0.99811976178E-01  0.67032174917E-01 -0.46754217617E-01  0.13058187470E+00  0.20246631160E-01 0.  0.
         14    1    1    2    0    0  0.49832070936E-02  0.21656133593E-01  0.53559919183E-02  0.22858414743E-01  0.00000000000E+00 0.  1.
     999901    1    3    3    0    0  0.94828769084E-01 -0.88688308510E-01  0.41398225699E-01  0.89048971055E+00  0.88000000000E+00 0.  1.
        -11    1    4    4    0    0 -0.30565892917E-01  0.11737924780E-01 -0.18284956036E-01  0.37505378630E-01  0.51100000000E-03 0. -1.
         11    1    4    4    0    0 -0.69246083261E-01  0.55294250138E-01 -0.28469261581E-01  0.93076496073E-01  0.51100000000E-03 0.  1.
</event>
<event>
 8    1  0.1022673E+005  0.1043930E+01  0.7957747E-01            NaN
         13   -1    0    0    0    0  0.00000000000E+00  0.00000000000E+00  0.74505805969E-08  0.10566000000E+00  0.10566000000E+00 0. -1.
     999900   -1    0    0    0    0 -0.00000000000E+00 -0.00000000000E+00 -0.74505805969E-08  0.93827000000E+00  0.93827000000E+00 0.  1.
     999902    2    1    2    0    0 -0.10882514996E-01  0.34303588652E-02  0.20699281280E-01  0.10202940795E+01  0.10200202703E+01 0.  0.
     999903    2    3    3    0    0  0.99678563511E-01 -0.25989095259E-01 -0.73131842076E-01  0.12794127026E+00  0.20234950324E-01 0.  0.
         14    1    1    2    0    0  0.10882514996E-01 -0.34303588652E-02 -0.20699281280E-01  0.23635920547E-01  0.00000000000E+00 0.  1.
     999901    1    3    3    0    0 -0.11056107851E+00  0.29419454124E-01  0.93831123356E-01  0.89235280919E+00  0.88000000000E+00 0.  1.
        -11    1    4    4    0    0  0.21342620841E-01 -0.21977289564E-02 -0.25086537448E-01  0.33014132717E-01  0.51100000000E-03 0.  1.
         11    1    4    4    0    0  0.78335942670E-01 -0.23791366303E-01 -0.48045304628E-01  0.94927137545E-01  0.51100000000E-03 0. -1.
</event>
<event>
 8    1  0.1022673E+005  0.1043930E+01  0.7957747E-01            NaN
         13   -1    0    0    0    0  0.00000000000E+00  0.00000000000E+00  0.74505805969E-08  0.10566000000E+00  0.10566000000E+00 0. -1.
     999900   -1    0    0    0    0 -0.00000000000E+00 -0.00000000000E+00 -0.74505805969E-08  0.93827000000E+00  0.93827000000E+00 0.  1.
     999902    2    1    2    0    0 -0.12267287740E-01  0.18910979960E-01 -0.64265105347E-02  0.10204904704E+01  0.10202212449E+01 0.  0.
     999903    2    3    3    0    0 -0.92491019185E-01 -0.64348282539E-01 -0.63669808992E-01  0.13108350666E+00  0.20826690703E-01 0.  0.
         14    1    1    2    0    0  0.12267287740E-01 -0.18910979960E-01  0.64265105347E-02  0.23439529629E-01  0.00000000000E+00 0.  1.
     999901    1    3    3    0    0  0.80223731444E-01  0.83259262500E-01  0.57243298458E-01  0.88940696371E+00  0.88000000000E+00 0. -1.
        -11    1    4    4    0    0 -0.46156044313E-01 -0.21246609750E-01 -0.22406268267E-01  0.55534681336E-01  0.51100000000E-03 0.  1.
         11    1    4    4    0    0 -0.46334974872E-01 -0.43101672790E-01 -0.41263540726E-01  0.75548825325E-01  0.51100000000E-03 0. -1.
</event>
<event>
 8    1  0.1022673E+005  0.1043930E+01  0.7957747E-01            NaN
         13   -1    0    0    0    0  0.00000000000E+00  0.00000000000E+00  0.74505805969E-08  0.10566000000E+00  0.10566000000E+00 0.  1.
     999900   -1    0    0    0    0 -0.00000000000E+00 -0.00000000000E+00 -0.74505805969E-08  0.93827000000E+00  0.93827000000E+00 0. -1.
     999902    2    1    2    0    0 -0.16948114432E-01  0.42870315148E-02 -0.15201740352E-01  0.10207629948E+01  0.10205000644E+01 0.  0.
     999903    2    3    3    0    0  0.42779988585E-01 -0.35159883665E-01 -0.11812646329E+00  0.13187773557E+00  0.19275138589E-01 0.  0.
         14    1    1    2    0    0  0.16948114432E-01 -0.42870315148E-02  0.15201740352E-01  0.23167005239E-01  0.00000000000E+00 0. -1.
     999901    1    3    3    0    0 -0.59728103017E-01  0.39446915179E-01  0.10292472294E+00  0.88888525919E+00  0.88000000000E+00 0.  1.
        -11    1    4    4    0    0  0.64893325595E-02 -0.15743124109E-01 -0.42255980284E-01  0.45560798769E-01  0.51100000000E-03 0.  1.
         11    1    4    4    0    0  0.36290656026E-01 -0.19416759556E-01 -0.75870483009E-01  0.86316936805E-01  0.51100000000E-03 0. -1.
</event>
<event>
 8    1  0.1022673E+005  0.1043930E+01  0.7957747E-01            NaN
         13   -1    0    0    0    0  0.00000000000E+00  0.00000000000E+00  0.74505805969E-08  0.10566000000E+00  0.10566000000E+00 0.  1.
     999900   -1    0    0    0    0 -0.00000000000E+00 -0.00000000000E+00 -0.74505805969E-08  0.93827000000E+00  0.93827000000E+00 0. -1.
     999902    2    1    2    0    0  0.15944342967E-01  0.10527077269E-01  0.15432908753E-01  0.10193695419E+01  0.10190736219E+01 0.  0.
     999903    2    3    3    0    0  0.20966347213E-01 -0.12395874396E+00  0.23305058735E-01  0.12910349888E+00  0.17867001463E-01 0.  0.
         14    1    1    2    0    0 -0.15944342967E-01 -0.10527077269E-01 -0.15432908753E-01  0.24560458079E-01  0.00000000000E+00 0.  1.
     999901    1    3    3    0    0 -0.50220042462E-02  0.13448582123E+00 -0.78721499817E-02  0.89026604304E+00  0.88000000000E+00 0. -1.
        -11    1    4    4    0    0  0.39978871072E-02 -0.47587232194E-01  0.10697740800E-02  0.47769585583E-01  0.51100000000E-03 0. -1.
         11    1    4    4    0    0  0.16968460106E-01 -0.76371511769E-01  0.22235284655E-01  0.81333913301E-01  0.51100000000E-03 0.  1.
</event>
<event>
 8    1  0.1022673E+005  0.1043930E+01  0.7957747E-01            NaN
         13   -1    0    0    0    0  0.00000000000E+00  0.00000000000E+00  0.74505805969E-08  0.10566000000E+00  0.10566000000E+00 0.  1.
     999900   -1    0    0    0    0 -0.00000000000E+00 -0.00000000000E+00 -0.74505805969E-08  0.93827000000E+00  0.93827000000E+00 0.  1.
     999902    2    1    2    0    0  0.84872681842E-03  0.14391051092E-01 -0.19358739737E-01  0.10197932336E+01  0.10195075555E+01 0.  0.
     999903    2    3    3    0    0  0.22880275458E-01 -0.94771867116E-01 -0.84065889244E-01  0.13041763967E+00  0.20891941085E-01 0.  0.
         14    1    1    2    0    0 -0.84872681842E-03 -0.14391051092E-01  0.19358739737E-01  0.24136766415E-01  0.00000000000E+00 0.  1.
     999901    1    3    3    0    0 -0.22031548640E-01  0.10916291821E+00  0.64707149506E-01  0.88937559391E+00  0.88000000000E+00 0.  1.
        -11    1    4    4    0    0 -0.12363491684E-02 -0.33449368919E-01 -0.23356654494E-01  0.40818908247E-01  0.51100000000E-03 0. -1.
         11    1    4    4    0    0  0.24116624626E-01 -0.61322498196E-01 -0.60709234750E-01  0.89598731427E-01  0.51100000000E-03 0.  1.
</event>
<event>
 8    1  0.1022673E+005  0.1043930E+01  0.7957747E-01            NaN
         13   -1    0    0    0    0  0.00000000000E+00  0.00000000000E+00  0.74505805969E-08  0.10566000000E+00  0.10566000000E+00 0.  1.
     999900   -1    0    0    0    0 -0.00000000000E+00 -0.00000000000E+00 -0.74505805969E-08  0.93827000000E+00  0.93827000000E+00 0. -1.
     999902    2    1    2    0    0 -0.15125325888E-01  0.15336959520E-01 -0.67626892177E-02  0.10213527598E+01  0.10211031917E+01 0.  0.
     999903    2    3    3    0    0 -0.24222834518E-01 -0.12591410316E+00 -0.11936030182E-01  0.13002712297E+00  0.17985460926E-01 0.  0.
         14    1    1    2    0    0  0.15125325888E-01 -0.15336959520E-01  0.67626892177E-02  0.22577240221E-01  0.00000000000E+00 0.  1.
     999901    1    3    3    0    0  0.90975086297E-02  0.14125106268E+00  0.51733409645E-02  0.89132563681E+00  0.88000000000E+00 0.  1.
        -11    1    4    4    0    0 -0.21757803807E-01 -0.12275306891E+00 -0.89228209934E-02  0.12498638250E+00  0.51100000000E-03 0. -1.
         11    1    4    4    0    0 -0.24650307105E-02 -0.31610342489E-02 -0.30132091888E-02  0.50407404756E-02  0.51100000000E-03 0.  1.
</event>
<event>
 8    1  0.1022673E+005  0.1043930E+01  0.7957747E-01            NaN
         13   -1    0    0    0    0  0.00000000000E+00  0.00000000000E+00  0.74505805969E-08  0.10566000000E+00  0.10566000000E+00 0. -1.
     999900   -1    0    0    0    0 -0.00000000000E+00 -0.00000000000E+00 -0.74505805969E-08  0.93827000000E+00  0.93827000000E+00 0. -1.
     999902    2    1    2    0    0 -0.92505457181E-02 -0.81732763426E-02  0.20367684612E-01  0.10201136691E+01  0.10198356143E+01 0.  0.
     999903    2    3    3    0    0  0.12364097201E+00 -0.32623436214E-01  0.10604003325E-01  0.12974672490E+00  0.19245497805E-01 0.  0.
         14    1    1    2    0    0  0.92505457181E-02  0.81732763426E-02 -0.20367684612E-01  0.23816330925E-01  0.00000000000E+00 0.  1.
     999901    1    3    3    0    0 -0.13289151773E+00  0.24450159871E-01  0.97636812873E-02  0.89036694417E+00  0.88000000000E+00 0. -1.
        -11    1    4    4    0    0  0.86982840096E-01 -0.21365962015E-01  0.16094766530E-01  0.91004513265E-01  0.51100000000E-03 0. -1.
         11    1    4    4    0    0  0.36658131917E-01 -0.11257474199E-01 -0.54907632053E-02  0.38742211638E-01  0.51100000000E-03 0.  1.
</event>
<event>
 8    1  0.1022673E+005  0.1043930E+01  0.7957747E-01            NaN
         13   -1    0    0    0    0  0.00000000000E+00  0.00000000000E+00  0.74505805969E-08  0.10566000000E+00  0.10566000000E+00 0.  1.
     999900   -1    0    0    0    0 -0.00000000000E+00 -0.00000000000E+00 -0.74505805969E-08  0.93827000000E+00  0.93827000000E+00 0. -1.
     999902    2    1    2    0    0 -0.20615950201E-01  0.29918590655E-02 -0.11393750295E-01  0.10201858182E+01  0.10199094653E+01 0.  0.
     999903    2    3    3    0    0 -0.72036889847E-01  0.64299613203E-01 -0.89431660769E-01  0.13311610887E+00  0.19953013188E-01 0.  0.
         14    1    1    2    0    0  0.20615950201E-01 -0.29918590655E-02  0.11393750295E-01  0.23744181795E-01  0.00000000000E+00 0.  1.
     999901    1    3    3    0    0  0.51420939647E-01 -0.61307754137E-01  0.78037910474E-01  0.88706970934E+00  0.88000000000E+00 0. -1.
        -11    1    4    4    0    0 -0.13720232908E-01  0.92117785564E-02 -0.65947428612E-02  0.17800376671E-01  0.51100000000E-03 0. -1.
         11    1    4    4    0    0 -0.58316656939E-01  0.55087834646E-01 -0.82836917908E-01  0.11531573220E+00  0.51100000000E-03 0.  1.
</event>
<event>
 8    1  0.1022673E+005  0.1043930E+01  0.7957747E-01            NaN
         13   -1    0    0    0    0  0.00000000000E+00  0.00000000000E+00  0.74505805969E-08  0.10566000000E+00  0.10566000000E+00 0. -1.
     999900   -1    0    0    0    0 -0.00000000000E+00 -0.00000000000E+00 -0.74505805969E-08  0.93827000000E+00  0.93827000000E+00 0. -1.
     999902    2    1    2    0    0 -0.52941749413E-02  0.23213933166E-01 -0.61169237358E-02  0.10193468404E+01  0.10190503664E+01 0.  0.
     999903    2    3    3    0    0  0.11306221602E+00 -0.42451846568E-01 -0.38645096609E-01  0.12840446741E+00  0.20224732118E-01 0.  0.
         14    1    1    2    0    0  0.52941749413E-02 -0.23213933166E-01  0.61169237358E-02  0.24583159628E-01  0.00000000000E+00 0.  1.
     999901    1    3    3    0    0 -0.11835639097E+00  0.65665779734E-01  0.32528172873E-01  0.89094237296E+00  0.88000000000E+00 0. -1.
        -11    1    4    4    0    0  0.59141541348E-01 -0.32125100262E-01 -0.25295411494E-01  0.71901758974E-01  0.51100000000E-03 0. -1.
         11    1    4    4    0    0  0.53920674676E-01 -0.10326746306E-01 -0.13349685115E-01  0.56502708435E-01  0.51100000000E-03 0.  1.
</event>
<event>
 8    1  0.1022673E+005  0.1043930E+01  0.7957747E-01            NaN
         13   -1    0    0    0    0  0.00000000000E+00  0.00000000000E+00  0.74505805969E-08  0.10566000000E+00  0.10566000000E+00 0.  1.
     999900   -1    0    0    0    0 -0.00000000000E+00 -0.00000000000E+00 -0.74505805969E-08  0.93827000000E+00  0.93827000000E+00 0.  1.
     999902    2    1    2    0    0 -0.15554086712E-01 -0.74433436544E-02 -0.16448211363E-01  0.10200998377E+01  0.10198214561E+01 0.  0.
     999903    2    3    3    0    0  0.69829766441E-02 -0.28469000609E-01  0.12341779201E+00  0.12852118364E+00  0.20651811114E-01 0.  0.
         14    1    1    2    0    0  0.15554086712E-01  0.74433436544E-02  0.16448211363E-01  0.23830162300E-01  0.00000000000E+00 0.  1.
     999901    1    3    3    0    0 -0.22537063356E-01  0.21025656954E-01 -0.13986600337E+00  0.89157865406E+00  0.88000000000E+00 0.  1.
        -11    1    4    4    0    0  0.13891086360E-01 -0.15633184405E-01  0.63658050864E-01  0.67007218236E-01  0.51100000000E-03 0.  1.
         11    1    4    4    0    0 -0.69081097162E-02 -0.12835816204E-01  0.59759741142E-01  0.61513965405E-01  0.51100000000E-03 0. -1.
</event>
<event>
 8    1  0.1022673E+005  0.1043930E+01  0.7957747E-01            NaN
         13   -1    0    0    0    0  0.00000000000E+00  0.00000000000E+00  0.74505805969E-08  0.10566000000E+00  0.10566000000E+00 0.  1.
     999900   -1    0    0    0    0 -0.00000000000E+00 -0.00000000000E+00 -0.74505805969E-08  0.93827000000E+00  0.93827000000E+00 0.  1.
     999902    2    1    2    0    0  0.29903644509E-02  0.20650220308E-01 -0.10558819541E-01  0.10205449076E+01  0.10202769456E+01 0.  0.
     999903    2    3    3    0    0 -0.12534434901E+00  0.31110763616E-01 -0.11166552452E-01  0.13117457357E+00  0.20074646062E-01 0.  0.
         14    1    1    2    0    0 -0.29903644509E-02 -0.20650220308E-01  0.10558819541E-01  0.23385092440E-01  0.00000000000E+00 0. -1.
     999901    1    3    3    0    0  0.12833471347E+00 -0.10460543308E-01  0.60773291154E-03  0.88937033399E+00  0.88000000000E+00 0.  1.
        -11    1    4    4    0    0 -0.20009853218E-01  0.81108444623E-02  0.49551940944E-02  0.22158409086E-01  0.51100000000E-03 0. -1.
         11    1    4    4    0    0 -0.10533449580E+00  0.22999919154E-01 -0.16121746547E-01  0.10901616448E+00  0.51100000000E-03 0.  1.
</event>
<event>
 8    1  0.1022673E+005  0.1043930E+01  0.7957747E-01            NaN
         13   -1    0    0    0    0  0.00000000000E+00  0.00000000000E+00  0.74505805969E-08  0.10566000000E+00  0.10566000000E+00 0.  1.
     999900   -1    0    0    0    0 -0.00000000000E+00 -0.00000000000E+00 -0.74505805969E-08  0.93827000000E+00  0.93827000000E+00 0. -1.
     999902    2    1    2    0    0  0.79284913145E-02  0.21642777995E-01  0.14302903402E-01  0.10168035579E+01  0.10164416518E+01 0.  0.
     999903    2    3    3    0    0  0.67576983055E-01  0.71623549160E-01  0.84390750072E-01  0.13059346641E+00  0.15371185324E-01 0.  0.
         14    1    1    2    0    0 -0.79284913145E-02 -0.21642777995E-01 -0.14302903402E-01  0.27126442074E-01  0.00000000000E+00 0. -1.
     999901    1    3    3    0    0 -0.59648491741E-01 -0.49980771165E-01 -0.70087846671E-01  0.88621009152E+00  0.88000000000E+00 0. -1.
        -11    1    4    4    0    0  0.48568506525E-01  0.60403432271E-01  0.67754890070E-01  0.10294882566E+00  0.51100000000E-03 0.  1.
         11    1    4    4    0    0  0.19008476530E-01  0.11220116889E-01  0.16635860002E-01  0.27644640747E-01  0.51100000000E-03 0. -1.
</event>
<event>
 8    1  0.1022673E+005  0.1043930E+01  0.7957747E-01            NaN
         13   -1    0    0    0    0  0.00000000000E+00  0.00000000000E+00  0.74505805969E-08  0.10566000000E+00  0.10566000000E+00 0. -1.
     999900   -1    0    0    0    0 -0.00000000000E+00 -0.00000000000E+00 -0.74505805969E-08  0.93827000000E+00  0.93827000000E+00 0. -1.
     999902    2    1    2    0    0 -0.14125654674E-01 -0.10014603699E-01 -0.15505389022E-01  0.10206868613E+01  0.10204221800E+01 0.  0.
     999903    2    3    3    0    0  0.11720547719E+00 -0.22943031310E-01  0.43500900950E-01  0.12889274119E+00  0.21389337939E-01 0.  0.
         14    1    1    2    0    0  0.14125654674E-01  0.10014603699E-01  0.15505389022E-01  0.23243138685E-01  0.00000000000E+00 0. -1.
     999901    1    3    3    0    0 -0.13133113187E+00  0.12928427611E-01 -0.59006289972E-01  0.89179412013E+00  0.88000000000E+00 0.  1.
        -11    1    4    4    0    0  0.25557503049E-01 -0.18023034659E-02  0.90817006131E-03  0.25642155793E-01  0.51100000000E-03 0. -1.
         11    1    4    4    0    0  0.91647974144E-01 -0.21140727845E-01  0.42592730889E-01  0.10325058539E+00  0.51100000000E-03 0.  1.
</event>
<event>
 8    1  0.1022673E+005  0.1043930E+01  0.7957747E-01            NaN
         13   -1    0    0    0    0  0.00000000000E+00  0.00000000000E+00  0.74505805969E-08  0.10566000000E+00  0.10566000000E+00 0.  1.
     999900   -1    0    0    0    0 -0.00000000000E+00 -0.00000000000E+00 -0.74505805969E-08  0.93827000000E+00  0.93827000000E+00 0.  1.
     999902    2    1    2    0    0 -0.21091787072E-01  0.21872655547E-02 -0.98349218019E-02  0.10205553706E+01  0.10202876512E+01 0.  0.
     999903    2    3    3    0    0  0.55906719596E-01 -0.59970192760E-01  0.97220685094E-01  0.12856141176E+00  0.18819927398E-01 0.  0.
         14    1    1    2    0    0  0.21091787072E-01 -0.21872655547E-02  0.98349218019E-02  0.23374629395E-01  0.00000000000E+00 0.  1.
     999901    1    3    3    0    0 -0.76998506668E-01  0.62157458315E-01 -0.10705560690E+00  0.89199395885E+00  0.88000000000E+00 0.  1.
        -11    1    4    4    0    0  0.22247087648E-01 -0.34405305840E-01  0.38623617725E-01  0.56308995249E-01  0.51100000000E-03 0. -1.
         11    1    4    4    0    0  0.33659631948E-01 -0.25564886920E-01  0.58597067369E-01  0.72252416508E-01  0.51100000000E-03 0.  1.
</event>
<event>
 8    1  0.1022673E+005  0.1043930E+01  0.7957747E-01            NaN
         13   -1    0    0    0    0  0.00000000000E+00  0.00000000000E+00  0.74505805969E-08  0.10566000000E+00  0.10566000000E+00 0. -1.
     999900   -1    0    0    0    0 -0.00000000000E+00 -0.00000000000E+00 -0.74505805969E-08  0.93827000000E+00  0.93827000000E+00 0. -1.
     999902    2    1    2    0    0  0.14090456494E-01 -0.47639927272E-02 -0.17091064651E-01  0.10212729684E+01  0.10210216133E+01 0.  0.
     999903    2    3    3    0    0  0.36838062736E-01  0.34788764494E-01  0.11784190480E+00  0.12981978372E+00  0.19979006919E-01 0.  0.
         14    1    1    2    0    0 -0.14090456494E-01  0.47639927272E-02  0.17091064651E-01  0.22657031620E-01  0.00000000000E+00 0. -1.
     999901    1    3    3    0    0 -0.22747606242E-01 -0.39552757221E-01 -0.13493296945E+00  0.89145318466E+00  0.88000000000E+00 0. -1.
        -11    1    4    4    0    0  0.13619326101E-01  0.25497304244E-01  0.54001229968E-01  0.61253510318E-01  0.51100000000E-03 0.  1.
         11    1    4    4    0    0  0.23218736635E-01  0.92914602492E-02  0.63840674831E-01  0.68566273403E-01  0.51100000000E-03 0. -1.
</event>
<event>
 8    1  0.1022673E+005  0.1043930E+01  0.7957747E-01            NaN
         13   -1    0    0    0    0  0.00000000000E+00  0.00000000000E+00  0.74505805969E-08  0.10566000000E+00  0.10566000000E+00 0. -1.
     999900   -1    0    0    0    0 -0.00000000000E+00 -0.00000000000E+00 -0.74505805969E-08  0.93827000000E+00  0.93827000000E+00 0. -1.
     999902    2    1    2    0    0 -0.57723441704E-02 -0.15250061074E-01  0.16108787428E-01  0.10210088885E+01  0.10207515726E+01 0.  0.
     999903    2    3    3    0    0  0.99336663031E-01 -0.69227213433E-01 -0.45867843771E-01  0.13095128408E+00  0.19601020590E-01 0.  0.
         14    1    1    2    0    0  0.57723441704E-02  0.15250061074E-01 -0.16108787428E-01  0.22921111500E-01  0.00000000000E+00 0.  1.
     999901    1    3    3    0    0 -0.10510900720E+00  0.53977152359E-01  0.61976631198E-01  0.89005760442E+00  0.88000000000E+00 0.  1.
        -11    1    4    4    0    0  0.53248552340E-01 -0.38484030223E-01 -0.14492944090E-01  0.67281018556E-01  0.51100000000E-03 0. -1.
         11    1    4    4    0    0  0.46088110691E-01 -0.30743183211E-01 -0.31374899681E-01  0.63670265524E-01  0.51100000000E-03 0.  1.
</event>
<event>
 8    1  0.1022673E+005  0.1043930E+01  0.7957747E-01            NaN
         13   -1    0    0    0    0  0.00000000000E+00  0.00000000000E+00  0.74505805969E-08  0.10566000000E+00  0.10566000000E+00 0.  1.
     999900   -1    0    0    0    0 -0.00000000000E+00 -0.00000000000E+00 -0.74505805969E-08  0.93827000000E+00  0.93827000000E+00 0. -1.
     999902    2    1    2    0    0 -0.10687924534E-01  0.12196297444E-01  0.12481112424E-01  0.10234663843E+01  0.10232617847E+01 0.  0.
     999903    2    3    3    0    0  0.43624017291E-01 -0.54640115655E-01  0.11225947301E+00  0.13365032776E+00  0.19277544138E-01 0.  0.
         14    1    1    2    0    0  0.10687924534E-01 -0.12196297444E-01 -0.12481112424E-01  0.20463615749E-01  0.00000000000E+00 0.  1.
     999901    1    3    3    0    0 -0.54311941825E-01  0.66836413099E-01 -0.99778360584E-01  0.88981605649E+00  0.88000000000E+00 0. -1.
        -11    1    4    4    0    0  0.28027131326E-01 -0.24558135981E-01  0.71612533366E-01  0.80729413409E-01  0.51100000000E-03 0.  1.
         11    1    4    4    0    0  0.15596885965E-01 -0.30081979675E-01  0.40646939642E-01  0.52920914356E-01  0.51100000000E-03 0. -1.
</event>
<event>
 8    1  0.1022673E+005  0.1043930E+01  0.7957747E-01            NaN
         13   -1    0    0    0    0  0.00000000000E+00  0.00000000000E+00  0.74505805969E-08  0.10566000000E+00  0.10566000000E+00 0. -1.
     999900   -1    0    0    0    0 -0.00000000000E+00 -0.00000000000E+00 -0.74505805969E-08  0.93827000000E+00  0.93827000000E+00 0.  1.
     999902    2    1    2    0    0  0.72055158639E-02 -0.19440529843E-02  0.21788275239E-01  0.10208989831E+01  0.10206391654E+01 0.  0.
     999903    2    3    3    0    0  0.43529460041E-01  0.10700722596E+00  0.61855608879E-01  0.13253239137E+00  0.19833257755E-01 0.  0.
         14    1    1    2    0    0 -0.72055158639E-02  0.19440529843E-02 -0.21788275239E-01  0.23031016885E-01  0.00000000000E+00 0.  1.
     999901    1    3    3    0    0 -0.36323944178E-01 -0.10895127894E+00 -0.40067333640E-01  0.88836659175E+00  0.88000000000E+00 0. -1.
        -11    1    4    4    0    0  0.45581520411E-01  0.10123592758E+00  0.57816003812E-01  0.12517723217E+00  0.51100000000E-03 0. -1.
         11    1    4    4    0    0 -0.20520603695E-02  0.57712983767E-02  0.40396050668E-02  0.73551591967E-02  0.51100000000E-03 0.  1.
</event>
<event>
 8    1  0.1022673E+005  0.1043930E+01  0.7957747E-01            NaN
         13   -1    0    0    0    0  0.00000000000E+00  0.00000000000E+00  0.74505805969E-08  0.10566000000E+00  0.10566000000E+00 0.  1.
     999900   -1    0    0    0    0 -0.00000000000E+00 -0.00000000000E+00 -0.74505805969E-08  0.93827000000E+00  0.93827000000E+00 0.  1.
     999902    2    1    2    0    0  0.14828950985E-01  0.14183278831E-01 -0.13095050171E-01  0.10195877831E+01  0.10192971617E+01 0.  0.
     999903    2    3    3    0    0  0.59625344244E-02  0.72959687692E-01  0.10523058351E+00  0.12968091426E+00  0.19621314244E-01 0.  0.
         14    1    1    2    0    0 -0.14828950985E-01 -0.14183278831E-01  0.13095050171E-01  0.24342216922E-01  0.00000000000E+00 0.  1.
     999901    1    3    3    0    0  0.88664165608E-02 -0.58776408861E-01 -0.11832563368E+00  0.88990686882E+00  0.88000000000E+00 0.  1.
        -11    1    4    4    0    0  0.88772364600E-03  0.57370478682E-01  0.67847864747E-01  0.88858053936E-01  0.51100000000E-03 0.  1.
         11    1    4    4    0    0  0.50748107784E-02  0.15589209010E-01  0.37382718763E-01  0.40822860325E-01  0.51100000000E-03 0. -1.
</event>
<event>
 8    1  0.1022673E+005  0.1043930E+01  0.7957747E-01            NaN
         13   -1    0    0    0    0  0.00000000000E+00  0.00000000000E+00  0.74505805969E-08  0.10566000000E+00  0.10566000000E+00 0.  1.
     999900   -1    0    0    0    0 -0.00000000000E+00 -0.00000000000E+00 -0.74505805969E-08  0.93827000000E+00  0.93827000000E+00 0.  1.
     999902    2    1    2    0    0  0.17126169405E-01 -0.59136224232E-03 -0.14155655757E-01  0.10217030349E+01  0.10214612345E+01 0.  0.
     999903    2    3    3    0    0  0.12616299822E+00 -0.18475871681E-01 -0.37538485126E-01  0.13448511216E+00  0.20460879088E-01 0.  0.
         14    1    1    2    0    0 -0.17126169405E-01  0.59136224232E-03  0.14155655757E-01  0.22226965103E-01  0.00000000000E+00 0.  1.
     999901    1    3    3    0    0 -0.10903682881E+00  0.17884509438E-01  0.23382829370E-01  0.88721792274E+00  0.88000000000E+00 0.  1.
        -11    1    4    4    0    0  0.63518151801E-01 -0.46247541377E-02 -0.92148327677E-02  0.64351520751E-01  0.51100000000E-03 0.  1.
         11    1    4    4    0    0  0.62644846418E-01 -0.13851117543E-01 -0.28323652359E-01  0.70133591409E-01  0.51100000000E-03 0. -1.
</event>
<event>
 8    1  0.1022673E+005  0.1043930E+01  0.7957747E-01            NaN
         13   -1    0    0    0    0  0.00000000000E+00  0.00000000000E+00  0.74505805969E-08  0.10566000000E+00  0.10566000000E+00 0.  1.
     999900   -1    0    0    0    0 -0.00000000000E+00 -0.00000000000E+00 -0.74505805969E-08  0.93827000000E+00  0.93827000000E+00 0.  1.
     999902    2    1    2    0    0 -0.19071932137E-02  0.10660162834E-01 -0.21233538200E-01  0.10200943208E+01  0.10198158087E+01 0.  0.
     999903    2    3    3    0    0  0.12100334387E-01 -0.19411907862E-01  0.12403210832E+00  0.12756832774E+00  0.19143512916E-01 0.  0.
         14    1    1    2    0    0  0.19071932137E-02 -0.10660162834E-01  0.21233538200E-01  0.23835679182E-01  0.00000000000E+00 0.  1.
     999901    1    3    3    0    0 -0.14007527601E-01  0.30072070696E-01 -0.14526564653E+00  0.89252599308E+00  0.88000000000E+00 0.  1.
        -11    1    4    4    0    0  0.46175250332E-02 -0.10597178134E-01  0.21775111749E-01  0.24658433334E-01  0.51100000000E-03 0. -1.
         11    1    4    4    0    0  0.74828093542E-02 -0.88147297280E-02  0.10225699658E+00  0.10290989440E+00  0.51100000000E-03 0.  1.
</event>
<event>
 8    1  0.1022673E+005  0.1043930E+01  0.7957747E-01            NaN
         13   -1    0    0    0    0  0.00000000000E+00  0.00000000000E+00  0.74505805969E-08  0.10566000000E+00  0.10566000000E+00 0. -1.
     999900   -1    0    0    0    0 -0.00000000000E+00 -0.00000000000E+00 -0.74505805969E-08  0.93827000000E+00  0.93827000000E+00 0. -1.
     999902    2    1    2    0    0  0.11673234501E-01 -0.18602814625E-01  0.37868281558E-02  0.10216439240E+01  0.10214008216E+01 0.  0.
     999903    2    3    3    0    0 -0.87812294473E-01  0.14372445805E-01 -0.92790388329E-01  0.13017777377E+00  0.20460458410E-01 0.  0.
         14    1    1    2    0    0 -0.11673234501E-01  0.18602814625E-01 -0.37868281558E-02  0.22286075993E-01  0.00000000000E+00 0.  1.
     999901    1    3    3    0    0  0.99485528974E-01 -0.32975260430E-01  0.96577216485E-01  0.89146615024E+00  0.88000000000E+00 0. -1.
        -11    1    4    4    0    0 -0.18730592617E-01 -0.23747429120E-02 -0.29342682328E-01  0.34895968691E-01  0.51100000000E-03 0. -1.
         11    1    4    4    0    0 -0.69081701856E-01  0.16747188717E-01 -0.63447706000E-01  0.95281805078E-01  0.51100000000E-03 0.  1.
</event>
<event>
 8    1  0.1022673E+005  0.1043930E+01  0.7957747E-01            NaN
         13   -1    0    0    0    0  0.00000000000E+00  0.00000000000E+00  0.74505805969E-08  0.10566000000E+00  0.10566000000E+00 0. -1.
     999900   -1    0    0    0    0 -0.00000000000E+00 -0.00000000000E+00 -0.74505805969E-08  0.93827000000E+00  0.93827000000E+00 0.  1.
     999902    2    1    2    0    0 -0.22090139393E-01  0.77322737329E-02 -0.93398875642E-02  0.10187308767E+01  0.10184191688E+01 0.  0.
     999903    2    3    3    0    0 -0.45428093200E-01 -0.52892439324E-01  0.10639608664E+00  0.12877872537E+00  0.20062678442E-01 0.  0.
         14    1    1    2    0    0  0.22090139393E-01 -0.77322737329E-02  0.93398875642E-02  0.25199123302E-01  0.00000000000E+00 0. -1.
     999901    1    3    3    0    0  0.23337953807E-01  0.60624713057E-01 -0.11573597421E+00  0.88995215132E+00  0.88000000000E+00 0.  1.
        -11    1    4    4    0    0 -0.35045045438E-01 -0.42079135820E-01  0.66445541234E-01  0.86105051837E-01  0.51100000000E-03 0. -1.
         11    1    4    4    0    0 -0.10383047762E-01 -0.10813303505E-01  0.39950545411E-01  0.42673673537E-01  0.51100000000E-03 0.  1.
</event>
<event>
 8    1  0.1092048E+005  0.1043930E+01  0.7957747E-01            NaN
         13   -1    0    0    0    0  0.00000000000E+00  0.00000000000E+00  0.74505805969E-08  0.10566000000E+00  0.10566000000E+00 0. -1.
     999900   -1    0    0    0    0 -0.00000000000E+00 -0.00000000000E+00 -0.74505805969E-08  0.93827000000E+00  0.93827000000E+00 0. -1.
     999902    2    1    2    0    0  0.40271058528E-02  0.35954309888E-04  0.23113802169E-01  0.10204679727E+01  0.10201982242E+01 0.  0.
     999903    2    3    3    0    0  0.19060169486E-01 -0.89226169177E-01  0.94440488552E-01  0.13295390753E+00  0.20811927390E-01 0.  0.
         14    1    1    2    0    0 -0.40271058528E-02 -0.35954309888E-04 -0.23113802169E-01  0.23462027299E-01  0.00000000000E+00 0.  1.
     999901    1    3    3    0    0 -0.15033063633E-01  0.89262123487E-01 -0.71326686383E-01  0.88751406517E+00  0.88000000000E+00 0. -1.
        -11    1    4    4    0    0  0.10123036139E-01 -0.40413341690E-01  0.57867082457E-01  0.71306201696E-01  0.51100000000E-03 0.  1.
         11    1    4    4    0    0  0.89371333471E-02 -0.48812827487E-01  0.36573406095E-01  0.61647705830E-01  0.51100000000E-03 0. -1.
</event>
<event>
 8    1  0.1022673E+005  0.1043930E+01  0.7957747E-01            NaN
         13   -1    0    0    0    0  0.00000000000E+00  0.00000000000E+00  0.74505805969E-08  0.10566000000E+00  0.10566000000E+00 0. -1.
     999900   -1    0    0    0    0 -0.00000000000E+00 -0.00000000000E+00 -0.74505805969E-08  0.93827000000E+00  0.93827000000E+00 0. -1.
     999902    2    1    2    0    0 -0.88328287192E-02 -0.17500898800E-01  0.12855703385E-01  0.10204871027E+01  0.10202177990E+01 0.  0.
     999903    2    3    3    0    0 -0.63981297356E-01  0.75159507855E-01 -0.80643483609E-01  0.12898869977E+00  0.19802908530E-01 0.  0.
         14    1    1    2    0    0  0.88328287192E-02  0.17500898800E-01 -0.12855703385E-01  0.23442897251E-01  0.00000000000E+00 0.  1.
     999901    1    3    3    0    0  0.55148468637E-01 -0.92660406655E-01  0.93499186994E-01  0.89149840298E+00  0.88000000000E+00 0.  1.
        -11    1    4    4    0    0 -0.56093781595E-01  0.63449859072E-01 -0.59281671290E-01  0.10337782461E+00  0.51100000000E-03 0. -1.
         11    1    4    4    0    0 -0.78875157607E-02  0.11709648782E-01 -0.21361812319E-01  0.25610875151E-01  0.51100000000E-03 0.  1.
</event>
<event>
 8    1  0.1022673E+005  0.1043930E+01  0.7957747E-01            NaN
         13   -1    0    0    0    0  0.00000000000E+00  0.00000000000E+00  0.74505805969E-08  0.10566000000E+00  0.10566000000E+00 0. -1.
     999900   -1    0    0    0    0 -0.00000000000E+00 -0.00000000000E+00 -0.74505805969E-08  0.93827000000E+00  0.93827000000E+00 0. -1.
     999902    2    1    2    0    0  0.22102875027E-01 -0.68979066812E-02 -0.65854072664E-02  0.10198574889E+01  0.10195733480E+01 0.  0.
     999903    2    3    3    0    0 -0.24113389347E-01 -0.41525390575E-01  0.11825396194E+00  0.12917243019E+00  0.19892299969E-01 0.  0.
         14    1    1    2    0    0 -0.22102875027E-01  0.68979066812E-02  0.65854072664E-02  0.24072511084E-01  0.00000000000E+00 0. -1.
     999901    1    3    3    0    0  0.46216264374E-01  0.34627483894E-01 -0.12483936921E+00  0.89068505873E+00  0.88000000000E+00 0.  1.
        -11    1    4    4    0    0 -0.15909762148E-01 -0.93828323766E-02  0.49390854705E-01  0.52734009182E-01  0.51100000000E-03 0.  1.
         11    1    4    4    0    0 -0.82036271995E-02 -0.32142558198E-01  0.68863107237E-01  0.76438421007E-01  0.51100000000E-03 0. -1.
</event>
<event>
 8    1  0.1022673E+005  0.1043930E+01  0.7957747E-01            NaN
         13   -1    0    0    0    0  0.00000000000E+00  0.00000000000E+00  0.74505805969E-08  0.10566000000E+00  0.10566000000E+00 0. -1.
     999900   -1    0    0    0    0 -0.00000000000E+00 -0.00000000000E+00 -0.74505805969E-08  0.93827000000E+00  0.93827000000E+00 0. -1.
     999902    2    1    2    0    0  0.13759570224E-01 -0.14940913064E-01  0.12943904405E-01  0.10198447075E+01  0.10195602611E+01 0.  0.
     999903    2    3    3    0    0  0.76024904295E-01 -0.79356558266E-02 -0.10339957454E+00  0.12997850934E+00  0.18978413190E-01 0.  0.
         14    1    1    2    0    0 -0.13759570224E-01  0.14940913064E-01 -0.12943904405E-01  0.24085292549E-01  0.00000000000E+00 0.  1.
     999901    1    3    3    0    0 -0.62265334071E-01 -0.70052572372E-02  0.11634347895E+00  0.88986619812E+00  0.88000000000E+00 0. -1.
        -11    1    4    4    0    0  0.12611268626E-01 -0.86633613002E-02 -0.18707965204E-01  0.24173270537E-01  0.51100000000E-03 0.  1.
         11    1    4    4    0    0  0.63413635670E-01  0.72770547359E-03 -0.84691609337E-01  0.10580523880E+00  0.51100000000E-03 0. -1.
</event>
<event>
 8    1  0.1022673E+005  0.1043930E+01  0.7957747E-01            NaN
         13   -1    0    0    0    0  0.00000000000E+00  0.00000000000E+00  0.74505805969E-08  0.10566000000E+00  0.10566000000E+00 0.  1.
     999900   -1    0    0    0    0 -0.00000000000E+00 -0.00000000000E+00 -0.74505805969E-08  0.93827000000E+00  0.93827000000E+00 0. -1.
     999902    2    1    2    0    0 -0.22164303957E-02 -0.19328508239E-01 -0.12923857090E-01  0.10205734190E+01  0.10203061176E+01 0.  0.
     999903    2    3    3    0    0  0.11096072478E+00  0.36098131352E-01  0.51836731394E-01  0.12924008367E+00  0.20014868839E-01 0.  0.
         14    1    1    2    0    0  0.22164303957E-02  0.19328508239E-01  0.12923857090E-01  0.23356581011E-01  0.00000000000E+00 0.  1.
     999901    1    3    3    0    0 -0.11317715518E+00 -0.55426639591E-01 -0.64760588484E-01  0.89133333532E+00  0.88000000000E+00 0. -1.
        -11    1    4    4    0    0  0.40647428540E-01  0.21623839381E-01  0.26410725949E-01  0.53080989465E-01  0.51100000000E-03 0.  1.
         11    1    4    4    0    0  0.70313296240E-01  0.14474291971E-01  0.25426005445E-01  0.76159094205E-01  0.51100000000E-03 0. -1.
</event>
<event>
 8    1  0.1022673E+005  0.1043930E+01  0.7957747E-01            NaN
         13   -1    0    0    0    0  0.00000000000E+00  0.00000000000E+00  0.74505805969E-08  0.10566000000E+00  0.10566000000E+00 0.  1.
     999900   -1    0    0    0    0 -0.00000000000E+00 -0.00000000000E+00 -0.74505805969E-08  0.93827000000E+00  0.93827000000E+00 0.  1.
     999902    2    1    2    0    0 -0.35640485512E-02 -0.57714068616E-04 -0.21787734818E-01  0.10218526097E+01  0.10216140880E+01 0.  0.
     999903    2    3    3    0    0 -0.10675809253E+00 -0.72240156538E-01 -0.25775389348E-01  0.13287835976E+00  0.19399929354E-01 0.  0.
         14    1    1    2    0    0  0.35640485512E-02  0.57714068616E-04  0.21787734818E-01  0.22077390278E-01  0.00000000000E+00 0.  1.
     999901    1    3    3    0    0  0.10319404398E+00  0.72182442470E-01  0.39876545301E-02  0.88897424997E+00  0.88000000000E+00 0. -1.
        -11    1    4    4    0    0 -0.16020918834E-01 -0.49904328401E-02  0.95720002655E-03  0.16815219687E-01  0.51100000000E-03 0. -1.
         11    1    4    4    0    0 -0.90737173692E-01 -0.67249723698E-01 -0.26732589375E-01  0.11606314007E+00  0.51100000000E-03 0.  1.
</event>
<event>
 8    1  0.1022673E+005  0.1043930E+01  0.7957747E-01            NaN
         13   -1    0    0    0    0  0.00000000000E+00  0.00000000000E+00  0.74505805969E-08  0.10566000000E+00  0.10566000000E+00 0.  1.
     999900   -1    0    0    0    0 -0.00000000000E+00 -0.00000000000E+00 -0.74505805969E-08  0.93827000000E+00  0.93827000000E+00 0.  1.
     999902    2    1    2    0    0 -0.70576603655E-02 -0.20304573111E-01 -0.57172161842E-02  0.10216865106E+01  0.10214443466E+01 0.  0.
     999903    2    3    3    0    0  0.12390368280E+00  0.14572180036E-01 -0.33997924163E-01  0.13086270101E+00  0.20117570127E-01 0.  0.
         14    1    1    2    0    0  0.70576603655E-02  0.20304573111E-01  0.57172161842E-02  0.22243489383E-01  0.00000000000E+00 0. -1.
     999901    1    3    3    0    0 -0.13096134316E+00 -0.34876753146E-01  0.28280707979E-01  0.89082380960E+00  0.88000000000E+00 0.  1.
        -11    1    4    4    0    0  0.33165864064E-01 -0.41682804554E-02 -0.51753483913E-02  0.33828899672E-01  0.51100000000E-03 0.  1.
         11    1    4    4    0    0  0.90737818732E-01  0.18740460491E-01 -0.28822575772E-01  0.97033801341E-01  0.51100000000E-03 0. -1.
</event>
<event>
 8    1  0.1022673E+005  0.1043930E+01  0.7957747E-01            NaN
         13   -1    0    0    0    0  0.00000000000E+00  0.00000000000E+00  0.74505805969E-08  0.10566000000E+00  0.10566000000E+00 0.  1.
     999900   -1    0    0    0    0 -0.00000000000E+00 -0.00000000000E+00 -0.74505805969E-08  0.93827000000E+00  0.93827000000E+00 0. -1.
     999902    2    1    2    0    0 -0.18250973634E-02 -0.19537821743E-01  0.12237424558E-01  0.10208039969E+01  0.10205420070E+01 0.  0.
     999903    2    3    3    0    0  0.12828693261E+00  0.50050926513E-02  0.15403611844E-01  0.13089303523E+00  0.20325535218E-01 0.  0.
         14    1    1    2    0    0  0.18250973634E-02  0.19537821743E-01 -0.12237424558E-01  0.23126003084E-01  0.00000000000E+00 0. -1.
     999901    1    3    3    0    0 -0.13011202997E+00 -0.24542914394E-01 -0.31661872853E-02  0.88991096169E+00  0.88000000000E+00 0. -1.
        -11    1    4    4    0    0  0.10357026611E+00  0.10920402503E-01  0.81779764191E-02  0.10446624159E+00  0.51100000000E-03 0.  1.
         11    1    4    4    0    0  0.24716666502E-01 -0.59153098520E-02  0.72256354245E-02  0.26426793636E-01  0.51100000000E-03 0. -1.
</event>
<event>
 8    1  0.1022673E+005  0.1043930E+01  0.7957747E-01            NaN
         13   -1    0    0    0    0  0.00000000000E+00  0.00000000000E+00  0.74505805969E-08  0.10566000000E+00  0.10566000000E+00 0. -1.
     999900   -1    0    0    0    0 -0.00000000000E+00 -0.00000000000E+00 -0.74505805969E-08  0.93827000000E+00  0.93827000000E+00 0. -1.
     999902    2    1    2    0    0 -0.19074111231E-01 -0.12783896883E-01 -0.30775149053E-02  0.10207627637E+01  0.10204998280E+01 0.  0.
     999903    2    3    3    0    0  0.57211727725E-01 -0.97690230872E-01 -0.63534204620E-01  0.13133394358E+00  0.19885838710E-01 0.  0.
         14    1    1    2    0    0  0.19074111231E-01  0.12783896883E-01  0.30775149053E-02  0.23167236278E-01  0.00000000000E+00 0. -1.
     999901    1    3    3    0    0 -0.76285838955E-01  0.84906333989E-01  0.60456689714E-01  0.88942882015E+00  0.88000000000E+00 0.  1.
        -11    1    4    4    0    0  0.40417686094E-01 -0.80002369683E-01 -0.56457186227E-01  0.10593225902E+00  0.51100000000E-03 0.  1.
         11    1    4    4    0    0  0.16794041630E-01 -0.17687861189E-01 -0.70770183924E-02  0.25401684551E-01  0.51100000000E-03 0. -1.
</event>
<event>
 8    1  0.1022673E+005  0.1043930E+01  0.7957747E-01            NaN
         13   -1    0    0    0    0  0.00000000000E+00  0.00000000000E+00  0.74505805969E-08  0.10566000000E+00  0.10566000000E+00 0. -1.
     999900   -1    0    0    0    0 -0.00000000000E+00 -0.00000000000E+00 -0.74505805969E-08  0.93827000000E+00  0.93827000000E+00 0.  1.
     999902    2    1    2    0    0 -0.13671052835E-02 -0.24537251871E-01 -0.35371939237E-02  0.10191014389E+01  0.10187989425E+01 0.  0.
     999903    2    3    3    0    0  0.45552585994E-02  0.49371044511E-01  0.11621144003E+00  0.12790154772E+00  0.19886093104E-01 0.  0.
         14    1    1    2    0    0  0.13671052835E-02  0.24537251871E-01  0.35371939237E-02  0.24828561116E-01  0.00000000000E+00 0. -1.
     999901    1    3    3    0    0 -0.59223638829E-02 -0.73908296383E-01 -0.11974863396E+00  0.89119989116E+00  0.88000000000E+00 0.  1.
        -11    1    4    4    0    0 -0.70727286595E-02  0.25382711794E-01  0.49936999271E-01  0.56464772787E-01  0.51100000000E-03 0. -1.
         11    1    4    4    0    0  0.11627987259E-01  0.23988332717E-01  0.66274440761E-01  0.71436774937E-01  0.51100000000E-03 0.  1.
</event>
<event>
 8    1  0.1022673E+005  0.1043930E+01  0.7957747E-01            NaN
         13   -1    0    0    0    0  0.00000000000E+00  0.00000000000E+00  0.74505805969E-08  0.10566000000E+00  0.10566000000E+00 0. -1.
     999900   -1    0    0    0    0 -0.00000000000E+00 -0.00000000000E+00 -0.74505805969E-08  0.93827000000E+00  0.93827000000E+00 0.  1.
     999902    2    1    2    0    0 -0.27610702844E-01 -0.16934705946E-01  0.92031338787E-02  0.10102575654E+01  0.10096962492E+01 0.  0.
     999903    2    3    3    0    0 -0.56179212887E-02 -0.74373315152E-01  0.96658269103E-01  0.12378631550E+00  0.20427429417E-01 0.  0.
         14    1    1    2    0    0  0.27610702844E-01  0.16934705946E-01 -0.92031338787E-02  0.33672434575E-01  0.00000000000E+00 0.  1.
     999901    1    3    3    0    0 -0.21992781555E-01  0.57438609206E-01 -0.87455135224E-01  0.88647124993E+00  0.88000000000E+00 0.  1.
        -11    1    4    4    0    0 -0.69290976446E-02 -0.50342057500E-01  0.50043630954E-01  0.71322936477E-01  0.51100000000E-03 0.  1.
         11    1    4    4    0    0  0.13111763559E-02 -0.24031257651E-01  0.46614638149E-01  0.52463379023E-01  0.51100000000E-03 0. -1.
</event>
<event>
 8    1  0.1022673E+005  0.1043930E+01  0.7957747E-01            NaN
         13   -1    0    0    0    0  0.00000000000E+00  0.00000000000E+00  0.74505805969E-08  0.10566000000E+00  0.10566000000E+00 0. -1.
     999900   -1    0    0    0    0 -0.00000000000E+00 -0.00000000000E+00 -0.74505805969E-08  0.93827000000E+00  0.93827000000E+00 0. -1.
     999902    2    1    2    0    0  0.20722717670E-01 -0.30006275497E-02  0.11178845621E-01  0.10201939223E+01  0.10199177603E+01 0.  0.
     999903    2    3    3    0    0 -0.78820999229E-01  0.92466772994E-01  0.37912942726E-01  0.12904988904E+00  0.21298558799E-01 0.  0.
         14    1    1    2    0    0 -0.20722717670E-01  0.30006275497E-02 -0.11178845621E-01  0.23736077661E-01  0.00000000000E+00 0.  1.
     999901    1    3    3    0    0  0.99543716899E-01 -0.95467400544E-01 -0.26734097105E-01  0.89114403330E+00  0.88000000000E+00 0.  1.
        -11    1    4    4    0    0 -0.30711910261E-01  0.28749052175E-01  0.22585326899E-01  0.47750262251E-01  0.51100000000E-03 0.  1.
         11    1    4    4    0    0 -0.48109088968E-01  0.63717720819E-01  0.15327615827E-01  0.81299626786E-01  0.51100000000E-03 0. -1.
</event>
<event>
 8    1  0.1022673E+005  0.1043930E+01  0.7957747E-01            NaN
         13   -1    0    0    0    0  0.00000000000E+00  0.00000000000E+00  0.74505805969E-08  0.10566000000E+00  0.10566000000E+00 0. -1.
     999900   -1    0    0    0    0 -0.00000000000E+00 -0.00000000000E+00 -0.74505805969E-08  0.93827000000E+00  0.93827000000E+00 0.  1.
     999902    2    1    2    0    0 -0.10019855959E-01 -0.67723795132E-02 -0.21624829236E-01  0.10191530777E+01  0.10188518538E+01 0.  0.
     999903    2    3    3    0    0 -0.37280209673E-01  0.24784088439E-01  0.11733918939E+00  0.12727307682E+00  0.20636996921E-01 0.  0.
         14    1    1    2    0    0  0.10019855959E-01  0.67723795132E-02  0.21624829236E-01  0.24776922271E-01  0.00000000000E+00 0. -1.
     999901    1    3    3    0    0  0.27260353714E-01 -0.31556467952E-01 -0.13896401863E+00  0.89188000091E+00  0.88000000000E+00 0.  1.
        -11    1    4    4    0    0 -0.33052946646E-01  0.18360109755E-01  0.11109510727E+00  0.11735405784E+00  0.51100000000E-03 0.  1.
         11    1    4    4    0    0 -0.42272630268E-02  0.64239786837E-02  0.62440821258E-02  0.99190189747E-02  0.51100000000E-03 0. -1.
</event>
<event>
 8    1  0.1022673E+005  0.1043930E+01  0.7957747E-01            NaN
         13   -1    0    0    0    0  0.00000000000E+00  0.00000000000E+00  0.74505805969E-08  0.10566000000E+00  0.10566000000E+00 0. -1.
     999900   -1    0    0    0    0 -0.00000000000E+00 -0.00000000000E+00 -0.74505805969E-08  0.93827000000E+00  0.93827000000E+00 0.  1.
     999902    2    1    2    0    0  0.17241962133E-01 -0.16173806375E-01  0.18477436286E-02  0.10202173151E+01  0.10199417035E+01 0.  0.
     999903    2    3    3    0    0 -0.83745192246E-01 -0.86966007867E-01 -0.45295448128E-01  0.13036765265E+00  0.19175596181E-01 0.  0.
         14    1    1    2    0    0 -0.17241962133E-01  0.16173806375E-01 -0.18477436286E-02  0.23712684947E-01  0.00000000000E+00 0.  1.
     999901    1    3    3    0    0  0.10098715438E+00  0.70792201492E-01  0.47143191756E-01  0.88984966240E+00  0.88000000000E+00 0. -1.
        -11    1    4    4    0    0 -0.40874591844E-01 -0.35728060038E-01 -0.29207247470E-01  0.61648608729E-01  0.51100000000E-03 0.  1.
         11    1    4    4    0    0 -0.42870600402E-01 -0.51237947830E-01 -0.16088200658E-01  0.68719043925E-01  0.51100000000E-03 0. -1.
</event>
<event>
 8    1  0.1022673E+005  0.1043930E+01  0.7957747E-01            NaN
         13   -1    0    0    0    0  0.00000000000E+00  0.00000000000E+00  0.74505805969E-08  0.10566000000E+00  0.10566000000E+00 0.  1.
     999900   -1    0    0    0    0 -0.00000000000E+00 -0.00000000000E+00 -0.74505805969E-08  0.93827000000E+00  0.93827000000E+00 0. -1.
     999902    2    1    2    0    0 -0.90461021194E-02  0.21779439679E-01  0.33954656972E-03  0.10203441727E+01  0.10200715365E+01 0.  0.
     999903    2    3    3    0    0  0.86692022816E-01  0.97016650586E-01  0.80741375179E-02  0.13192633726E+00  0.20288653393E-01 0.  0.
         14    1    1    2    0    0  0.90461021194E-02 -0.21779439679E-01 -0.33954656972E-03  0.23585827273E-01  0.00000000000E+00 0. -1.
     999901    1    3    3    0    0 -0.95738124935E-01 -0.75237210907E-01 -0.77345909482E-02  0.88841783546E+00  0.88000000000E+00 0. -1.
        -11    1    4    4    0    0  0.35747598408E-01  0.25796155179E-01  0.14678408856E-02  0.44110634679E-01  0.51100000000E-03 0.  1.
         11    1    4    4    0    0  0.50944424408E-01  0.71220495407E-01  0.66062966323E-02  0.87815702585E-01  0.51100000000E-03 0. -1.
</event>
<event>
 8    1  0.1022673E+005  0.1043930E+01  0.7957747E-01            NaN
         13   -1    0    0    0    0  0.00000000000E+00  0.00000000000E+00  0.74505805969E-08  0.10566000000E+00  0.10566000000E+00 0.  1.
     999900   -1    0    0    0    0 -0.00000000000E+00 -0.00000000000E+00 -0.74505805969E-08  0.93827000000E+00  0.93827000000E+00 0. -1.
     999902    2    1    2    0    0 -0.11711075414E-01  0.20651429743E-01 -0.64895726760E-02  0.10193181047E+01  0.10190209287E+01 0.  0.
     999903    2    3    3    0    0 -0.78049888334E-01 -0.87132291888E-01  0.49399404110E-01  0.12850850298E+00  0.19756337054E-01 0.  0.
         14    1    1    2    0    0  0.11711075414E-01 -0.20651429743E-01  0.64895726760E-02  0.24611895321E-01  0.00000000000E+00 0. -1.
     999901    1    3    3    0    0  0.66338812920E-01  0.10778372163E+00 -0.55888976786E-01  0.89080960170E+00  0.88000000000E+00 0. -1.
        -11    1    4    4    0    0 -0.53102628329E-01 -0.48087174605E-01  0.36528828961E-01  0.80416925850E-01  0.51100000000E-03 0.  1.
         11    1    4    4    0    0 -0.24947260005E-01 -0.39045117283E-01  0.12870575149E-01  0.48091577132E-01  0.51100000000E-03 0. -1.
</event>
<event>
 8    1  0.1022673E+005  0.1043930E+01  0.7957747E-01            NaN
         13   -1    0    0    0    0  0.00000000000E+00  0.00000000000E+00  0.74505805969E-08  0.10566000000E+00  0.10566000000E+00 0.  1.
     999900   -1    0    0    0    0 -0.00000000000E+00 -0.00000000000E+00 -0.74505805969E-08  0.93827000000E+00  0.93827000000E+00 0. -1.
     999902    2    1    2    0    0  0.20757452284E-01 -0.43139796738E-02 -0.79643687184E-02  0.10212824082E+01  0.10210312649E+01 0.  0.
     999903    2    3    3    0    0  0.14444686875E-01  0.12850468774E+00  0.10571361654E-01  0.13110027922E+00  0.18799621665E-01 0.  0.
         14    1    1    2    0    0 -0.20757452284E-01  0.43139796738E-02  0.79643687184E-02  0.22647591815E-01  0.00000000000E+00 0.  1.
     999901    1    3    3    0    0  0.63127654088E-02 -0.13281866742E+00 -0.18535730373E-01  0.89018212896E+00  0.88000000000E+00 0. -1.
        -11    1    4    4    0    0  0.11810836909E-01  0.10129468796E+00  0.15985458112E-01  0.10322744630E+00  0.51100000000E-03 0.  1.
         11    1    4    4    0    0  0.26338499661E-02  0.27209999784E-01 -0.54140964580E-02  0.27872832927E-01  0.51100000000E-03 0. -1.
</event>
<event>
 8    1  0.1022673E+005  0.1043930E+01  0.7957747E-01            NaN
         13   -1    0    0    0    0  0.00000000000E+00  0.00000000000E+00  0.74505805969E-08  0.10566000000E+00  0.10566000000E+00 0.  1.
     999900   -1    0    0    0    0 -0.00000000000E+00 -0.00000000000E+00 -0.74505805969E-08  0.93827000000E+00  0.93827000000E+00 0.  1.
     999902    2    1    2    0    0  0.55331395343E-02  0.10824679375E-01 -0.11408124590E-01  0.10272586286E+01  0.10271233400E+01 0.  0.
     999903    2    3    3    0    0 -0.12085516233E+00  0.58689529862E-01 -0.17321278329E-01  0.13692160697E+00  0.19926580092E-01 0.  0.
         14    1    1    2    0    0 -0.55331395343E-02 -0.10824679375E-01  0.11408124590E-01  0.16671371369E-01  0.00000000000E+00 0.  1.
     999901    1    3    3    0    0  0.12638830186E+00 -0.47864850487E-01  0.59131537388E-02  0.89033702166E+00  0.88000000000E+00 0.  1.
        -11    1    4    4    0    0 -0.79502803166E-01  0.38800080980E-01 -0.20868453675E-01  0.90894969471E-01  0.51100000000E-03 0. -1.
         11    1    4    4    0    0 -0.41352359163E-01  0.19889448882E-01  0.35471753460E-02  0.46026637495E-01  0.51100000000E-03 0.  1.
</event>
<event>
 8    1  0.1022673E+005  0.1043930E+01  0.7957747E-01            NaN
         13   -1    0    0    0    0  0.00000000000E+00  0.00000000000E+00  0.74505805969E-08  0.10566000000E+00  0.10566000000E+00 0.  1.
     999900   -1    0    0    0    0 -0.00000000000E+00 -0.00000000000E+00 -0.74505805969E-08  0.93827000000E+00  0.93827000000E+00 0. -1.
     999902    2    1    2    0    0  0.25208971417E-02  0.12417467281E-01  0.18321688442E-01  0.10216537193E+01  0.10214108328E+01 0.  0.
     999903    2    3    3    0    0  0.58284215525E-01  0.52308082318E-01  0.10737739212E+00  0.13450563286E+00  0.20704484531E-01 0.  0.
         14    1    1    2    0    0 -0.25208971417E-02 -0.12417467281E-01 -0.18321688442E-01  0.22276280736E-01  0.00000000000E+00 0. -1.
     999901    1    3    3    0    0 -0.55763318383E-01 -0.39890615036E-01 -0.89055703674E-01  0.88714808640E+00  0.88000000000E+00 0. -1.
        -11    1    4    4    0    0  0.45757009428E-01  0.35958174620E-01  0.91729069447E-01  0.10863322483E+00  0.51100000000E-03 0. -1.
         11    1    4    4    0    0  0.12527206096E-01  0.16349907697E-01  0.15648322669E-01  0.25872408037E-01  0.51100000000E-03 0.  1.
</event>
<event>
 8    1  0.1022673E+005  0.1043930E+01  0.7957747E-01            NaN
         13   -1    0    0    0    0  0.00000000000E+00  0.00000000000E+00  0.74505805969E-08  0.10566000000E+00  0.10566000000E+00 0. -1.
     999900   -1    0    0    0    0 -0.00000000000E+00 -0.00000000000E+00 -0.74505805969E-08  0.93827000000E+00  0.93827000000E+00 0. -1.
     999902    2    1    2    0    0  0.13510920995E-01 -0.13889009163E-01 -0.14063598378E-01  0.10199876868E+01  0.10197066475E+01 0.  0.
     999903    2    3    3    0    0 -0.46320627403E-01  0.32031547120E-01  0.11294937518E+00  0.12767562977E+00  0.19284308393E-01 0.  0.
         14    1    1    2    0    0 -0.13510920995E-01  0.13889009163E-01  0.14063598378E-01  0.23942313192E-01  0.00000000000E+00 0. -1.
     999901    1    3    3    0    0  0.59831548398E-01 -0.45920556283E-01 -0.12701297356E+00  0.89231205703E+00  0.88000000000E+00 0.  1.
        -11    1    4    4    0    0 -0.31677221524E-01  0.31736125144E-01  0.83379725593E-01  0.94673479727E-01  0.51100000000E-03 0.  1.
         11    1    4    4    0    0 -0.14643405880E-01  0.29542197571E-03  0.29569649590E-01  0.33002150048E-01  0.51100000000E-03 0. -1.
</event>
<event>
 8    1  0.1022673E+005  0.1043930E+01  0.7957747E-01            NaN
         13   -1    0    0    0    0  0.00000000000E+00  0.00000000000E+00  0.74505805969E-08  0.10566000000E+00  0.10566000000E+00 0.  1.
     999900   -1    0    0    0    0 -0.00000000000E+00 -0.00000000000E+00 -0.74505805969E-08  0.93827000000E+00  0.93827000000E+00 0. -1.
     999902    2    1    2    0    0 -0.23234415461E-01 -0.52024667138E-02 -0.28331444850E-02  0.10199522931E+01  0.10196704123E+01 0.  0.
     999903    2    3    3    0    0  0.21579773752E-01  0.12461278941E+00 -0.13305919561E-01  0.12923910057E+00  0.23057833879E-01 0.  0.
         14    1    1    2    0    0  0.23234415461E-01  0.52024667138E-02  0.28331444850E-02  0.23977706925E-01  0.00000000000E+00 0. -1.
     999901    1    3    3    0    0 -0.44814189213E-01 -0.12981525612E+00  0.10472775076E-01  0.89071319250E+00  0.88000000000E+00 0. -1.
        -11    1    4    4    0    0  0.14417398568E-01  0.57158282007E-01 -0.16848005534E-01  0.61311067475E-01  0.51100000000E-03 0. -1.
         11    1    4    4    0    0  0.71623751834E-02  0.67454507399E-01  0.35420859723E-02  0.67928033100E-01  0.51100000000E-03 0.  1.
</event>
<event>
 8    1  0.1022673E+005  0.1043930E+01  0.7957747E-01            NaN
         13   -1    0    0    0    0  0.00000000000E+00  0.00000000000E+00  0.74505805969E-08  0.10566000000E+00  0.10566000000E+00 0. -1.
     999900   -1    0    0    0    0 -0.00000000000E+00 -0.00000000000E+00 -0.74505805969E-08  0.93827000000E+00  0.93827000000E+00 0.  1.
     999902    2    1    2    0    0  0.24631483112E-02 -0.15496799324E-01  0.18654127836E-01  0.10195538975E+01  0.10192624566E+01 0.  0.
     999903    2    3    3    0    0 -0.10748717264E+00 -0.55852917960E-01 -0.42212097170E-01  0.12970987365E+00  0.19228870184E-01 0.  0.
         14    1    1    2    0    0 -0.24631483112E-02  0.15496799324E-01 -0.18654127836E-01  0.24376102523E-01  0.00000000000E+00 0.  1.
     999901    1    3    3    0    0  0.10995032095E+00  0.40356118637E-01  0.60866225006E-01  0.88984402382E+00  0.88000000000E+00 0. -1.
        -11    1    4    4    0    0 -0.43885001232E-01 -0.12448992865E-01 -0.17023207007E-01  0.48692108747E-01  0.51100000000E-03 0.  1.
         11    1    4    4    0    0 -0.63602171409E-01 -0.43403925095E-01 -0.25188890163E-01  0.81017764905E-01  0.51100000000E-03 0. -1.
</event>
<event>
 8    1  0.1022673E+005  0.1043930E+01  0.7957747E-01            NaN
         13   -1    0    0    0    0  0.00000000000E+00  0.00000000000E+00  0.74505805969E-08  0.10566000000E+00  0.10566000000E+00 0.  1.
     999900   -1    0    0    0    0 -0.00000000000E+00 -0.00000000000E+00 -0.74505805969E-08  0.93827000000E+00  0.93827000000E+00 0.  1.
     999902    2    1    2    0    0  0.19429556433E-01  0.11009586175E-01 -0.87103488123E-02  0.10199594175E+01  0.10196777062E+01 0.  0.
     999903    2    3    3    0    0  0.11308542295E+00 -0.23142614039E-02  0.65294459754E-01  0.13180084044E+00  0.17732071962E-01 0.  0.
         14    1    1    2    0    0 -0.19429556433E-01 -0.11009586175E-01  0.87103488123E-02  0.23970582541E-01  0.00000000000E+00 0.  1.
     999901    1    3    3    0    0 -0.93655866516E-01  0.13323847579E-01 -0.74004808567E-01  0.88815857702E+00  0.88000000000E+00 0.  1.
        -11    1    4    4    0    0  0.11165232983E-01 -0.20395874900E-02  0.12561609171E-02  0.11430722022E-01  0.51100000000E-03 0. -1.
         11    1    4    4    0    0  0.10192018997E+00 -0.27467391385E-03  0.64038298837E-01  0.12037011842E+00  0.51100000000E-03 0.  1.
</event>
<event>
 8    1  0.1022673E+005  0.1043930E+01  0.7957747E-01            NaN
         13   -1    0    0    0    0  0.00000000000E+00  0.00000000000E+00  0.74505805969E-08  0.10566000000E+00  0.10566000000E+00 0.  1.
     999900   -1    0    0    0    0 -0.00000000000E+00 -0.00000000000E+00 -0.74505805969E-08  0.93827000000E+00  0.93827000000E+00 0. -1.
     999902    2    1    2    0    0 -0.10293247307E-01  0.16963461948E-01  0.13569844482E-01  0.10198914755E+01  0.10196081459E+01 0.  0.
     999903    2    3    3    0    0  0.63234932021E-02  0.81844846315E-01  0.10234956293E+00  0.13289229369E+00  0.21127310656E-01 0.  0.
         14    1    1    2    0    0  0.10293247307E-01 -0.16963461948E-01 -0.13569844482E-01  0.24038524511E-01  0.00000000000E+00 0. -1.
     999901    1    3    3    0    0 -0.16616740510E-01 -0.64881384368E-01 -0.88779718449E-01  0.88699918180E+00  0.88000000000E+00 0. -1.
        -11    1    4    4    0    0 -0.42818253084E-02  0.61205876059E-01  0.78189662346E-01  0.99390028227E-01  0.51100000000E-03 0. -1.
         11    1    4    4    0    0  0.10605318511E-01  0.20638970256E-01  0.24159900586E-01  0.33502265465E-01  0.51100000000E-03 0.  1.
</event>
<event>
 8    1  0.1022673E+005  0.1043930E+01  0.7957747E-01            NaN
         13   -1    0    0    0    0  0.00000000000E+00  0.00000000000E+00  0.74505805969E-08  0.10566000000E+00  0.10566000000E+00 0. -1.
     999900   -1    0    0    0    0 -0.00000000000E+00 -0.00000000000E+00 -0.74505805969E-08  0.93827000000E+00  0.93827000000E+00 0.  1.
     999902    2    1    2    0    0  0.16811695315E-01  0.11923515729E-01  0.11794764231E-01  0.10201830046E+01  0.10199065855E+01 0.  0.
     999903    2    3    3    0    0  0.40535502597E-01  0.12089050807E+00 -0.28048320038E-01  0.13225052080E+00  0.21115162345E-01 0.  0.
         14    1    1    2    0    0 -0.16811695315E-01 -0.11923515729E-01 -0.11794764231E-01  0.23746995388E-01  0.00000000000E+00 0. -1.
     999901    1    3    3    0    0 -0.23723807282E-01 -0.10896699234E+00  0.39843084270E-01  0.88793248382E+00  0.88000000000E+00 0.  1.
        -11    1    4    4    0    0  0.13056185344E-01  0.49684102737E-01 -0.21341489601E-01  0.55629976990E-01  0.51100000000E-03 0. -1.
         11    1    4    4    0    0  0.27479317253E-01  0.71206405336E-01 -0.67068304371E-02  0.76620543806E-01  0.51100000000E-03 0.  1.
</event>
<event>
 8    1  0.1022673E+005  0.1043930E+01  0.7957747E-01            NaN
         13   -1    0    0    0    0  0.00000000000E+00  0.00000000000E+00  0.74505805969E-08  0.10566000000E+00  0.10566000000E+00 0.  1.
     999900   -1    0    0    0    0 -0.00000000000E+00 -0.00000000000E+00 -0.74505805969E-08  0.93827000000E+00  0.93827000000E+00 0. -1.
     999902    2    1    2    0    0  0.33977148786E-02  0.22365527152E-01 -0.13901218159E-02  0.10212651878E+01  0.10210136582E+01 0.  0.
     999903    2    3    3    0    0 -0.25836307729E-01 -0.78268940783E-01 -0.98220029098E-01  0.12977320518E+00  0.20009217352E-01 0.  0.
         14    1    1    2    0    0 -0.33977148786E-02 -0.22365527152E-01  0.13901218159E-02  0.22664812151E-01  0.00000000000E+00 0.  1.
     999901    1    3    3    0    0  0.29234022607E-01  0.10063446793E+00  0.96829907282E-01  0.89149198267E+00  0.88000000000E+00 0.  1.
        -11    1    4    4    0    0  0.29048585279E-02 -0.12592074630E-01 -0.18310311779E-01  0.22417118124E-01  0.51100000000E-03 0.  1.
         11    1    4    4    0    0 -0.28741166257E-01 -0.65676866153E-01 -0.79909717319E-01  0.10735608706E+00  0.51100000000E-03 0. -1.
</event>
<event>
 8    1  0.1022673E+005  0.1043930E+01  0.7957747E-01            NaN
         13   -1    0    0    0    0  0.00000000000E+00  0.00000000000E+00  0.74505805969E-08  0.10566000000E+00  0.10566000000E+00 0.  1.
     999900   -1    0    0    0    0 -0.00000000000E+00 -0.00000000000E+00 -0.74505805969E-08  0.93827000000E+00  0.93827000000E+00 0. -1.
     999902    2    1    2    0    0  0.21271501064E-01 -0.13405483510E-02  0.85389925639E-02  0.10209694203E+01  0.10207112074E+01 0.  0.
     999903    2    3    3    0    0 -0.19048924566E-01  0.12178203890E+00 -0.37150758278E-01  0.13031097758E+00  0.20175368897E-01 0.  0.
         14    1    1    2    0    0 -0.21271501064E-01  0.13405483510E-02 -0.85389925639E-02  0.22960579727E-01  0.00000000000E+00 0. -1.
     999901    1    3    3    0    0  0.40320425631E-01 -0.12312258725E+00  0.45689750842E-01  0.89065844270E+00  0.88000000000E+00 0.  1.
        -11    1    4    4    0    0 -0.24025896104E-02  0.60059536843E-01 -0.10366876692E-01  0.60997161049E-01  0.51100000000E-03 0.  1.
         11    1    4    4    0    0 -0.16646334956E-01  0.61722502058E-01 -0.26783881586E-01  0.69313816527E-01  0.51100000000E-03 0. -1.
</event>
<event>
 8    1  0.1022673E+005  0.1043930E+01  0.7957747E-01            NaN
         13   -1    0    0    0    0  0.00000000000E+00  0.00000000000E+00  0.74505805969E-08  0.10566000000E+00  0.10566000000E+00 0. -1.
     999900   -1    0    0    0    0 -0.00000000000E+00 -0.00000000000E+00 -0.74505805969E-08  0.93827000000E+00  0.93827000000E+00 0.  1.
     999902    2    1    2    0    0 -0.17295599768E-01  0.15714183118E-01 -0.43795791727E-02  0.10201549283E+01  0.10198778474E+01 0.  0.
     999903    2    3    3    0    0  0.43964586223E-01  0.47822089328E-01  0.11078046201E+00  0.12996081285E+00  0.19941540693E-01 0.  0.
         14    1    1    2    0    0  0.17295599768E-01 -0.15714183118E-01  0.43795791727E-02  0.23775071738E-01  0.00000000000E+00 0.  1.
     999901    1    3    3    0    0 -0.61260185991E-01 -0.32107906210E-01 -0.11516004118E+00  0.89019411541E+00  0.88000000000E+00 0. -1.
        -11    1    4    4    0    0  0.34737121223E-01  0.33776595023E-01  0.96168203694E-01  0.10768523801E+00  0.51100000000E-03 0. -1.
         11    1    4    4    0    0  0.92274650000E-02  0.14045494305E-01  0.14612258312E-01  0.22275574842E-01  0.51100000000E-03 0.  1.
</event>
<event>
 8    1  0.1022673E+005  0.1043930E+01  0.7957747E-01            NaN
         13   -1    0    0    0    0  0.00000000000E+00  0.00000000000E+00  0.74505805969E-08  0.10566000000E+00  0.10566000000E+00 0. -1.
     999900   -1    0    0    0    0 -0.00000000000E+00 -0.00000000000E+00 -0.74505805969E-08  0.93827000000E+00  0.93827000000E+00 0. -1.
     999902    2    1    2    0    0 -0.20704238528E-01 -0.34156992420E-02 -0.11885458523E-01  0.10198136856E+01  0.10195284973E+01 0.  0.
     999903    2    3    3    0    0 -0.70883451902E-01 -0.10843602536E+00 -0.16875028936E-01  0.13213574957E+00  0.19805412528E-01 0.  0.
         14    1    1    2    0    0  0.20704238528E-01  0.34156992420E-02  0.11885458523E-01  0.24116314367E-01  0.00000000000E+00 0. -1.
     999901    1    3    3    0    0  0.50179213373E-01  0.10502032611E+00  0.49895704131E-02  0.88767793606E+00  0.88000000000E+00 0. -1.
        -11    1    4    4    0    0 -0.54314666080E-01 -0.67421487269E-01 -0.74034948068E-02  0.86895412729E-01  0.51100000000E-03 0. -1.
         11    1    4    4    0    0 -0.16568785821E-01 -0.41014538088E-01 -0.94715341294E-02  0.45240336846E-01  0.51100000000E-03 0.  1.
</event>
<event>
 8    1  0.1022673E+005  0.1043930E+01  0.7957747E-01            NaN
         13   -1    0    0    0    0  0.00000000000E+00  0.00000000000E+00  0.74505805969E-08  0.10566000000E+00  0.10566000000E+00 0. -1.
     999900   -1    0    0    0    0 -0.00000000000E+00 -0.00000000000E+00 -0.74505805969E-08  0.93827000000E+00  0.93827000000E+00 0. -1.
     999902    2    1    2    0    0 -0.13048167517E-01 -0.20214873078E-01  0.14254719579E-02  0.10198275574E+01  0.10195427010E+01 0.  0.
     999903    2    3    3    0    0  0.51819371789E-01 -0.48849792709E-01 -0.10766604437E+00  0.13026096899E+00  0.17446873411E-01 0.  0.
         14    1    1    2    0    0  0.13048167517E-01  0.20214873078E-01 -0.14254719579E-02  0.24102442603E-01  0.00000000000E+00 0. -1.
     999901    1    3    3    0    0 -0.64867539306E-01  0.28634919630E-01  0.10909151633E+00  0.88956658841E+00  0.88000000000E+00 0.  1.
        -11    1    4    4    0    0  0.29141735171E-01 -0.29559115470E-01 -0.77240731388E-01  0.87689074248E-01  0.51100000000E-03 0. -1.
         11    1    4    4    0    0  0.22677636618E-01 -0.19290677238E-01 -0.30425312980E-01  0.42571894741E-01  0.51100000000E-03 0.  1.
</event>
<event>
 8    1  0.1022673E+005  0.1043930E+01  0.7957747E-01            NaN
         13   -1    0    0    0    0  0.00000000000E+00  0.00000000000E+00  0.74505805969E-08  0.10566000000E+00  0.10566000000E+00 0. -1.
     999900   -1    0    0    0    0 -0.00000000000E+00 -0.00000000000E+00 -0.74505805969E-08  0.93827000000E+00  0.93827000000E+00 0. -1.
     999902    2    1    2    0    0  0.82194416956E-02 -0.72804181831E-02 -0.20641398902E-01  0.10205498576E+01  0.10202820104E+01 0.  0.
     999903    2    3    3    0    0  0.10621232326E+00 -0.10719705080E-01  0.71918426361E-01  0.13027924997E+00  0.20111022683E-01 0.  0.
         14    1    1    2    0    0 -0.82194416956E-02  0.72804181831E-02  0.20641398902E-01  0.23380142415E-01  0.00000000000E+00 0. -1.
     999901    1    3    3    0    0 -0.97992881563E-01  0.34392868974E-02 -0.92559825263E-01  0.89027060762E+00  0.88000000000E+00 0. -1.
        -11    1    4    4    0    0  0.67059248370E-01 -0.16193657262E-01  0.42957589760E-01  0.81269877362E-01  0.51100000000E-03 0.  1.
         11    1    4    4    0    0  0.39153074889E-01  0.54739521818E-02  0.28960836601E-01  0.49009372607E-01  0.51100000000E-03 0. -1.
</event>
<event>
 8    1  0.1022673E+005  0.1043930E+01  0.7957747E-01            NaN
         13   -1    0    0    0    0  0.00000000000E+00  0.00000000000E+00  0.74505805969E-08  0.10566000000E+00  0.10566000000E+00 0. -1.
     999900   -1    0    0    0    0 -0.00000000000E+00 -0.00000000000E+00 -0.74505805969E-08  0.93827000000E+00  0.93827000000E+00 0. -1.
     999902    2    1    2    0    0 -0.12938935207E-01  0.18204189319E-01  0.66085839921E-02  0.10206387584E+01  0.10203729677E+01 0.  0.
     999903    2    3    3    0    0 -0.36176878943E-01  0.12667624974E+00 -0.86858007692E-02  0.13354231036E+00  0.20061572767E-01 0.  0.
         14    1    1    2    0    0  0.12938935207E-01 -0.18204189319E-01 -0.66085839921E-02  0.23291241604E-01  0.00000000000E+00 0.  1.
     999901    1    3    3    0    0  0.23237943735E-01 -0.10847206042E+00  0.15294384761E-01  0.88709644804E+00  0.88000000000E+00 0.  1.
        -11    1    4    4    0    0 -0.10162274659E-01  0.12382888217E-01 -0.40026846029E-03  0.16032126580E-01  0.51100000000E-03 0.  1.
         11    1    4    4    0    0 -0.26014604283E-01  0.11429336152E+00 -0.82855323089E-02  0.11751018377E+00  0.51100000000E-03 0. -1.
</event>
<event>
 8    1  0.1022673E+005  0.1043930E+01  0.7957747E-01            NaN
         13   -1    0    0    0    0  0.00000000000E+00  0.00000000000E+00  0.74505805969E-08  0.10566000000E+00  0.10566000000E+00 0.  1.
     999900   -1    0    0    0    0 -0.00000000000E+00 -0.00000000000E+00 -0.74505805969E-08  0.93827000000E+00  0.93827000000E+00 0.  1.
     999902    2    1    2    0    0 -0.96055631161E-02  0.12292605927E-01  0.17874813701E-01  0.10202048242E+01  0.10199289187E+01 0.  0.
     999903    2    3    3    0    0 -0.77641971461E-01  0.73844342463E-01 -0.72206504932E-01  0.13086112621E+00  0.20726609784E-01 0.  0.
         14    1    1    2    0    0  0.96055631161E-02 -0.12292605927E-01 -0.17874813701E-01  0.23725175829E-01  0.00000000000E+00 0. -1.
     999901    1    3    3    0    0  0.68036408345E-01 -0.61551736536E-01  0.90081318633E-01  0.88934369796E+00  0.88000000000E+00 0.  1.
        -11    1    4    4    0    0 -0.55184031371E-01  0.63548035615E-01 -0.51939357232E-01  0.98901911506E-01  0.51100000000E-03 0.  1.
         11    1    4    4    0    0 -0.22457940090E-01  0.10296306848E-01 -0.20267147699E-01  0.31959214706E-01  0.51100000000E-03 0. -1.
</event>
<event>
 8    1  0.1022673E+005  0.1043930E+01  0.7957747E-01            NaN
         13   -1    0    0    0    0  0.00000000000E+00  0.00000000000E+00  0.74505805969E-08  0.10566000000E+00  0.10566000000E+00 0.  1.
     999900   -1    0    0    0    0 -0.00000000000E+00 -0.00000000000E+00 -0.74505805969E-08  0.93827000000E+00  0.93827000000E+00 0.  1.
     999902    2    1    2    0    0 -0.37933292411E-02 -0.20318434800E-01 -0.11539218318E-01  0.10202576174E+01  0.10199829529E+01 0.  0.
     999903    2    3    3    0    0 -0.20640223689E-01 -0.73774896183E-01 -0.10734329448E+00  0.13328533364E+00  0.19329851375E-01 0.  0.
         14    1    1    2    0    0  0.37933292411E-02  0.20318434800E-01  0.11539218318E-01  0.23672382619E-01  0.00000000000E+00 0. -1.
     999901    1    3    3    0    0  0.16846894448E-01  0.53456461383E-01  0.95804076157E-01  0.88697228374E+00  0.88000000000E+00 0. -1.
        -11    1    4    4    0    0 -0.10093769124E-01 -0.52292665448E-01 -0.59959111085E-01  0.80198274033E-01  0.51100000000E-03 0.  1.
         11    1    4    4    0    0 -0.10546454565E-01 -0.21482230735E-01 -0.47384183390E-01  0.53087059608E-01  0.51100000000E-03 0. -1.
</event>
<event>
 8    1  0.1022673E+005  0.1043930E+01  0.7957747E-01            NaN
         13   -1    0    0    0    0  0.00000000000E+00  0.00000000000E+00  0.74505805969E-08  0.10566000000E+00  0.10566000000E+00 0. -1.
     999900   -1    0    0    0    0 -0.00000000000E+00 -0.00000000000E+00 -0.74505805969E-08  0.93827000000E+00  0.93827000000E+00 0. -1.
     999902    2    1    2    0    0  0.13366898824E-01 -0.11408635792E-01  0.16411909512E-01  0.10198845903E+01  0.10196010964E+01 0.  0.
     999903    2    3    3    0    0 -0.24916843640E-01 -0.99806689717E-01 -0.76774472239E-01  0.12973653371E+00  0.18842085387E-01 0.  0.
         14    1    1    2    0    0 -0.13366898824E-01  0.11408635792E-01 -0.16411909512E-01  0.24045409721E-01  0.00000000000E+00 0.  1.
     999901    1    3    3    0    0  0.38283742464E-01  0.88398053925E-01  0.93186381751E-01  0.89014805657E+00  0.88000000000E+00 0.  1.
        -11    1    4    4    0    0 -0.94247077990E-02 -0.65328161573E-01 -0.41086279112E-01  0.77749194619E-01  0.51100000000E-03 0.  1.
         11    1    4    4    0    0 -0.15492135841E-01 -0.34478528143E-01 -0.35688193126E-01  0.51987339088E-01  0.51100000000E-03 0. -1.
</event>
<event>
 8    1  0.1022673E+005  0.1043930E+01  0.7957747E-01            NaN
         13   -1    0    0    0    0  0.00000000000E+00  0.00000000000E+00  0.74505805969E-08  0.10566000000E+00  0.10566000000E+00 0.  1.
     999900   -1    0    0    0    0 -0.00000000000E+00 -0.00000000000E+00 -0.74505805969E-08  0.93827000000E+00  0.93827000000E+00 0.  1.
     999902    2    1    2    0    0  0.22010816204E-01  0.65739757606E-02 -0.47912933716E-02  0.10204640741E+01  0.10201942348E+01 0.  0.
     999903    2    3    3    0    0 -0.11157829802E+00  0.11714817946E-01  0.58004706935E-01  0.12815481303E+00  0.21729163066E-01 0.  0.
         14    1    1    2    0    0 -0.22010816204E-01 -0.65739757606E-02  0.47912933716E-02  0.23465925924E-01  0.00000000000E+00 0.  1.
     999901    1    3    3    0    0  0.13358911422E+00 -0.51408421857E-02 -0.62796000307E-01  0.89230926105E+00  0.88000000000E+00 0. -1.
        -11    1    4    4    0    0 -0.49920445058E-01 -0.48645749166E-02  0.21190498263E-01  0.54451935333E-01  0.51100000000E-03 0. -1.
         11    1    4    4    0    0 -0.61657852961E-01  0.16579392863E-01  0.36814208673E-01  0.73702877696E-01  0.51100000000E-03 0.  1.
</event>
<event>
 8    1  0.1022673E+005  0.1043930E+01  0.7957747E-01            NaN
         13   -1    0    0    0    0  0.00000000000E+00  0.00000000000E+00  0.74505805969E-08  0.10566000000E+00  0.10566000000E+00 0.  1.
     999900   -1    0    0    0    0 -0.00000000000E+00 -0.00000000000E+00 -0.74505805969E-08  0.93827000000E+00  0.93827000000E+00 0. -1.
     999902    2    1    2    0    0 -0.11337238212E-01 -0.38347381147E-02  0.19728474242E-01  0.10208551028E+01  0.10205942827E+01 0.  0.
     999903    2    3    3    0    0 -0.10053065121E+00 -0.63022242884E-01 -0.52728257154E-01  0.13141224143E+00  0.20265565989E-01 0.  0.
         14    1    1    2    0    0  0.11337238212E-01  0.38347381147E-02 -0.19728474242E-01  0.23074897239E-01  0.00000000000E+00 0. -1.
     999901    1    3    3    0    0  0.89193412998E-01  0.59187504769E-01  0.72456731396E-01  0.88944286133E+00  0.88000000000E+00 0.  1.
        -11    1    4    4    0    0 -0.46039350699E-01 -0.20000717195E-01 -0.29368721936E-01  0.58158691958E-01  0.51100000000E-03 0. -1.
         11    1    4    4    0    0 -0.54491300512E-01 -0.43021525689E-01 -0.23359535219E-01  0.73253549475E-01  0.51100000000E-03 0.  1.
</event>
<event>
 8    1  0.1022673E+005  0.1043930E+01  0.7957747E-01            NaN
         13   -1    0    0    0    0  0.00000000000E+00  0.00000000000E+00  0.74505805969E-08  0.10566000000E+00  0.10566000000E+00 0. -1.
     999900   -1    0    0    0    0 -0.00000000000E+00 -0.00000000000E+00 -0.74505805969E-08  0.93827000000E+00  0.93827000000E+00 0. -1.
     999902    2    1    2    0    0 -0.89478246335E-02 -0.20029311479E-01  0.55603197873E-02  0.10212991794E+01  0.10210484121E+01 0.  0.
     999903    2    3    3    0    0 -0.11755034322E+00 -0.59869052524E-01 -0.75720416743E-02  0.13363135251E+00  0.19940308841E-01 0.  0.
         14    1    1    2    0    0  0.89478246335E-02  0.20029311479E-01 -0.55603197873E-02  0.22630820580E-01  0.00000000000E+00 0.  1.
     999901    1    3    3    0    0  0.10860251859E+00  0.39839741045E-01  0.13132361462E-01  0.88766782691E+00  0.88000000000E+00 0. -1.
        -11    1    4    4    0    0 -0.87907676679E-01 -0.50877520471E-01  0.67214877385E-03  0.10157260759E+00  0.51100000000E-03 0. -1.
         11    1    4    4    0    0 -0.29642666545E-01 -0.89915320535E-02 -0.82441904481E-02  0.32058744918E-01  0.51100000000E-03 0.  1.
</event>
<event>
 8    1  0.1022673E+005  0.1043930E+01  0.7957747E-01            NaN
         13   -1    0    0    0    0  0.00000000000E+00  0.00000000000E+00  0.74505805969E-08  0.10566000000E+00  0.10566000000E+00 0.  1.
     999900   -1    0    0    0    0 -0.00000000000E+00 -0.00000000000E+00 -0.74505805969E-08  0.93827000000E+00  0.93827000000E+00 0. -1.
     999902    2    1    2    0    0 -0.23808206401E-02  0.13948985182E-01  0.19199363386E-01  0.10200792548E+01  0.10198003863E+01 0.  0.
     999903    2    3    3    0    0  0.50147295078E-01 -0.65466210092E-01  0.10025540882E+00  0.13123952866E+00  0.19289660876E-01 0.  0.
         14    1    1    2    0    0  0.23808206401E-02 -0.13948985182E-01 -0.19199363386E-01  0.23850745250E-01  0.00000000000E+00 0.  1.
     999901    1    3    3    0    0 -0.52528115718E-01  0.79415195274E-01 -0.81056045435E-01  0.88883972609E+00  0.88000000000E+00 0. -1.
        -11    1    4    4    0    0  0.25511361047E-01 -0.25916671748E-01  0.31120971389E-01  0.47867310329E-01  0.51100000000E-03 0. -1.
         11    1    4    4    0    0  0.24635934031E-01 -0.39549538344E-01  0.69134437432E-01  0.83372218327E-01  0.51100000000E-03 0.  1.
</event>
<event>
 8    1  0.1022673E+005  0.1043930E+01  0.7957747E-01            NaN
         13   -1    0    0    0    0  0.00000000000E+00  0.00000000000E+00  0.74505805969E-08  0.10566000000E+00  0.10566000000E+00 0. -1.
     999900   -1    0    0    0    0 -0.00000000000E+00 -0.00000000000E+00 -0.74505805969E-08  0.93827000000E+00  0.93827000000E+00 0.  1.
     999902    2    1    2    0    0 -0.10115438807E-01  0.15883519362E-01 -0.14945800596E-01  0.10198886763E+01  0.10196052799E+01 0.  0.
     999903    2    3    3    0    0  0.12482546187E+00  0.10746731663E-01 -0.26389075013E-01  0.12951438322E+00  0.19511637738E-01 0.  0.
         14    1    1    2    0    0  0.10115438807E-01 -0.15883519362E-01  0.14945800596E-01  0.24041323696E-01  0.00000000000E+00 0. -1.
     999901    1    3    3    0    0 -0.13494090068E+00  0.51367876990E-02  0.11443274417E-01  0.89037429309E+00  0.88000000000E+00 0.  1.
        -11    1    4    4    0    0  0.87100701075E-01  0.58361718775E-02 -0.27270180330E-01  0.91457732785E-01  0.51100000000E-03 0.  1.
         11    1    4    4    0    0  0.37724760795E-01  0.49105597860E-02  0.88110531635E-03  0.38056650431E-01  0.51100000000E-03 0. -1.
</event>
<event>
 8    1  0.1022673E+005  0.1043930E+01  0.7957747E-01            NaN
         13   -1    0    0    0    0  0.00000000000E+00  0.00000000000E+00  0.74505805969E-08  0.10566000000E+00  0.10566000000E+00 0.  1.
     999900   -1    0    0    0    0 -0.00000000000E+00 -0.00000000000E+00 -0.74505805969E-08  0.93827000000E+00  0.93827000000E+00 0.  1.
     999902    2    1    2    0    0  0.10997534193E-01  0.11594965948E-01 -0.15745376576E-01  0.10214955203E+01  0.10212491333E+01 0.  0.
     999903    2    3    3    0    0 -0.10682616565E+00  0.58163066924E-01 -0.46846736943E-01  0.13187857644E+00  0.20064150610E-01 0.  0.
         14    1    1    2    0    0 -0.10997534193E-01 -0.11594965948E-01  0.15745376576E-01  0.22434479650E-01  0.00000000000E+00 0.  1.
     999901    1    3    3    0    0  0.11782369985E+00 -0.46568100976E-01  0.31101360367E-01  0.88961694391E+00  0.88000000000E+00 0. -1.
        -11    1    4    4    0    0 -0.70240329836E-01  0.46402915287E-01 -0.25746799529E-01  0.88034614156E-01  0.51100000000E-03 0.  1.
         11    1    4    4    0    0 -0.36585835817E-01  0.11760151637E-01 -0.21099937414E-01  0.43843962285E-01  0.51100000000E-03 0. -1.
</event>
<event>
 8    1  0.1022673E+005  0.1043930E+01  0.7957747E-01            NaN
         13   -1    0    0    0    0  0.00000000000E+00  0.00000000000E+00  0.74505805969E-08  0.10566000000E+00  0.10566000000E+00 0. -1.
     999900   -1    0    0    0    0 -0.00000000000E+00 -0.00000000000E+00 -0.74505805969E-08  0.93827000000E+00  0.93827000000E+00 0.  1.
     999902    2    1    2    0    0 -0.12474042661E-01  0.98349638100E-02  0.17222702463E-01  0.10205003237E+01  0.10202313271E+01 0.  0.
     999903    2    3    3    0    0 -0.79634767101E-01  0.88581939103E-01  0.57053439417E-01  0.13354027008E+00  0.19734556454E-01 0.  0.
         14    1    1    2    0    0  0.12474042661E-01 -0.98349638100E-02 -0.17222702463E-01  0.23429676344E-01  0.00000000000E+00 0.  1.
     999901    1    3    3    0    0  0.67160724440E-01 -0.78746975293E-01 -0.39830736954E-01  0.88696005357E+00  0.88000000000E+00 0. -1.
        -11    1    4    4    0    0 -0.33014266774E-02 -0.11349438805E-03  0.35242789429E-02  0.48573616449E-02  0.51100000000E-03 0. -1.
         11    1    4    4    0    0 -0.76333340424E-01  0.88695433491E-01  0.53529160474E-01  0.12868290844E+00  0.51100000000E-03 0.  1.
</event>
<event>
 8    1  0.1022673E+005  0.1043930E+01  0.7957747E-01            NaN
         13   -1    0    0    0    0  0.00000000000E+00  0.00000000000E+00  0.74505805969E-08  0.10566000000E+00  0.10566000000E+00 0.  1.
     999900   -1    0    0    0    0 -0.00000000000E+00 -0.00000000000E+00 -0.74505805969E-08  0.93827000000E+00  0.93827000000E+00 0. -1.
     999902    2    1    2    0    0  0.76034039127E-02  0.21921577099E-01  0.66586372153E-02  0.10197907220E+01  0.10195049838E+01 0.  0.
     999903    2    3    3    0    0  0.84911171415E-02 -0.54168407424E-01  0.11596403277E+00  0.12976929343E+00  0.19649355948E-01 0.  0.
         14    1    1    2    0    0 -0.76034039127E-02 -0.21921577099E-01 -0.66586372153E-02  0.24139278016E-01  0.00000000000E+00 0. -1.
     999901    1    3    3    0    0 -0.88771322879E-03  0.76089984523E-01 -0.10930539555E+00  0.89002142855E+00  0.88000000000E+00 0. -1.
        -11    1    4    4    0    0 -0.63816472462E-02 -0.13598644543E-01  0.29577777151E-01  0.33177621632E-01  0.51100000000E-03 0.  1.
         11    1    4    4    0    0  0.14872764388E-01 -0.40569762882E-01  0.86386255618E-01  0.96591671802E-01  0.51100000000E-03 0. -1.
</event>
<event>
 8    1  0.1022673E+005  0.1043930E+01  0.7957747E-01            NaN
         13   -1    0    0    0    0  0.00000000000E+00  0.00000000000E+00  0.74505805969E-08  0.10566000000E+00  0.10566000000E+00 0.  1.
     999900   -1    0    0    0    0 -0.00000000000E+00 -0.00000000000E+00 -0.74505805969E-08  0.93827000000E+00  0.93827000000E+00 0.  1.
     999902    2    1    2    0    0 -0.13147044597E-01 -0.19284445057E-01 -0.31165945418E-02  0.10203832855E+01  0.10201115633E+01 0.  0.
     999903    2    3    3    0    0  0.29289709599E-01  0.22778233358E-01 -0.12321212034E+00  0.13021864772E+00  0.19973347523E-01 0.  0.
         14    1    1    2    0    0  0.13147044597E-01  0.19284445057E-01  0.31165945418E-02  0.23546714512E-01  0.00000000000E+00 0. -1.
     999901    1    3    3    0    0 -0.42436754196E-01 -0.42062678415E-01  0.12009552580E+00  0.89016463777E+00  0.88000000000E+00 0. -1.
        -11    1    4    4    0    0  0.40409234584E-02  0.11324806463E-01 -0.59947701212E-01  0.61143832930E-01  0.51100000000E-03 0. -1.
         11    1    4    4    0    0  0.25248786140E-01  0.11453426895E-01 -0.63264419127E-01  0.69074814786E-01  0.51100000000E-03 0.  1.
</event>
<event>
 8    1  0.1022673E+005  0.1043930E+01  0.7957747E-01            NaN
         13   -1    0    0    0    0  0.00000000000E+00  0.00000000000E+00  0.74505805969E-08  0.10566000000E+00  0.10566000000E+00 0.  1.
     999900   -1    0    0    0    0 -0.00000000000E+00 -0.00000000000E+00 -0.74505805969E-08  0.93827000000E+00  0.93827000000E+00 0.  1.
     999902    2    1    2    0    0 -0.10760233288E-01 -0.18712026188E-01 -0.10752766733E-01  0.10198147655E+01  0.10195296030E+01 0.  0.
     999903    2    3    3    0    0 -0.90928562756E-01  0.77310580460E-02  0.90538617356E-01  0.12999110751E+00  0.19304766670E-01 0.  0.
         14    1    1    2    0    0  0.10760233288E-01  0.18712026188E-01  0.10752766733E-01  0.24115234540E-01  0.00000000000E+00 0.  1.
     999901    1    3    3    0    0  0.80168329467E-01 -0.26443084234E-01 -0.10129138409E+00  0.88982365795E+00  0.88000000000E+00 0.  1.
        -11    1    4    4    0    0 -0.11848688579E-01 -0.54891387132E-02  0.13831530595E-01  0.19028778848E-01  0.51100000000E-03 0. -1.
         11    1    4    4    0    0 -0.79079874177E-01  0.13220196759E-01  0.76707086761E-01  0.11096232866E+00  0.51100000000E-03 0.  1.
</event>
<event>
 8    1  0.1022673E+005  0.1043930E+01  0.7957747E-01            NaN
         13   -1    0    0    0    0  0.00000000000E+00  0.00000000000E+00  0.74505805969E-08  0.10566000000E+00  0.10566000000E+00 0.  1.
     999900   -1    0    0    0    0 -0.00000000000E+00 -0.00000000000E+00 -0.74505805969E-08  0.93827000000E+00  0.93827000000E+00 0. -1.
     999902    2    1    2    0    0  0.86015403857E-02  0.14233065951E-01  0.16566701147E-01  0.10204561369E+01  0.10201861129E+01 0.  0.
     999903    2    3    3    0    0 -0.49432146030E-01  0.11771351854E+00 -0.24666646286E-01  0.13153752318E+00  0.19841044759E-01 0.  0.
         14    1    1    2    0    0 -0.86015403857E-02 -0.14233065951E-01 -0.16566701147E-01  0.23473863130E-01  0.00000000000E+00 0. -1.
     999901    1    3    3    0    0  0.58033686416E-01 -0.10348045259E+00  0.41233347433E-01  0.88891861369E+00  0.88000000000E+00 0. -1.
        -11    1    4    4    0    0 -0.18972487022E-01  0.26502821942E-01 -0.11021671644E-01  0.34410655349E-01  0.51100000000E-03 0.  1.
         11    1    4    4    0    0 -0.30459659008E-01  0.91210696596E-01 -0.13644974642E-01  0.97126867830E-01  0.51100000000E-03 0. -1.
</event>
<event>
 8    1  0.1022673E+005  0.1043930E+01  0.7957747E-01            NaN
         13   -1    0    0    0    0  0.00000000000E+00  0.00000000000E+00  0.74505805969E-08  0.10566000000E+00  0.10566000000E+00 0.  1.
     999900   -1    0    0    0    0 -0.00000000000E+00 -0.00000000000E+00 -0.74505805969E-08  0.93827000000E+00  0.93827000000E+00 0. -1.
     999902    2    1    2    0    0  0.19980070925E-01  0.11687633877E-01 -0.97875825931E-02  0.10187983309E+01  0.10184883103E+01 0.  0.
     999903    2    3    3    0    0  0.13225293841E-01  0.12457519213E+00  0.31203706557E-01  0.13061506510E+00  0.19817594109E-01 0.  0.
         14    1    1    2    0    0 -0.19980070925E-01 -0.11687633877E-01  0.97875825931E-02  0.25131669121E-01  0.00000000000E+00 0.  1.
     999901    1    3    3    0    0  0.67547770831E-02 -0.11288755826E+00 -0.40991289150E-01  0.88818326578E+00  0.88000000000E+00 0. -1.
        -11    1    4    4    0    0  0.16512298707E-02  0.86612619143E-01  0.26799381647E-01  0.90680429711E-01  0.51100000000E-03 0. -1.
         11    1    4    4    0    0  0.11574063971E-01  0.37962572990E-01  0.44043249102E-02  0.39934635390E-01  0.51100000000E-03 0.  1.
</event>
<event>
 8    1  0.1022673E+005  0.1043930E+01  0.7957747E-01            NaN
         13   -1    0    0    0    0  0.00000000000E+00  0.00000000000E+00  0.74505805969E-08  0.10566000000E+00  0.10566000000E+00 0. -1.
     999900   -1    0    0    0    0 -0.00000000000E+00 -0.00000000000E+00 -0.74505805969E-08  0.93827000000E+00  0.93827000000E+00 0. -1.
     999902    2    1    2    0    0  0.25249158411E-02 -0.23539307286E-01 -0.48024394132E-02  0.10197734768E+01  0.10194873253E+01 0.  0.
     999903    2    3    3    0    0 -0.93707950719E-02  0.54939290522E-01 -0.11325347331E+00  0.12957011523E+00  0.29256248897E-01 0.  0.
         14    1    1    2    0    0 -0.25249158411E-02  0.23539307286E-01  0.48024394132E-02  0.24156523173E-01  0.00000000000E+00 0. -1.
     999901    1    3    3    0    0  0.11895710913E-01 -0.78478597808E-01  0.10845103390E+00  0.89020336160E+00  0.88000000000E+00 0.  1.
        -11    1    4    4    0    0  0.66385590859E-02  0.40554057895E-01 -0.80332705220E-01  0.90234731270E-01  0.51100000000E-03 0.  1.
         11    1    4    4    0    0 -0.16009354158E-01  0.14385232627E-01 -0.32920768091E-01  0.39335383956E-01  0.51100000000E-03 0. -1.
</event>
<event>
 8    1  0.1022673E+005  0.1043930E+01  0.7957747E-01            NaN
         13   -1    0    0    0    0  0.00000000000E+00  0.00000000000E+00  0.74505805969E-08  0.10566000000E+00  0.10566000000E+00 0. -1.
     999900   -1    0    0    0    0 -0.00000000000E+00 -0.00000000000E+00 -0.74505805969E-08  0.93827000000E+00  0.93827000000E+00 0.  1.
     999902    2    1    2    0    0 -0.53653716884E-02 -0.63234262479E-02 -0.19983679907E-01  0.10222939099E+01  0.10220649284E+01 0.  0.
     999903    2    3    3    0    0  0.70026975706E-01  0.42988002364E-01  0.98243697965E-01  0.12982915657E+00  0.21261233052E-01 0.  0.
         14    1    1    2    0    0  0.53653716884E-02  0.63234262479E-02  0.19983679907E-01  0.21636090116E-01  0.00000000000E+00 0. -1.
     999901    1    3    3    0    0 -0.75392347394E-01 -0.49311428612E-01 -0.11822737787E+00  0.89246475332E+00  0.88000000000E+00 0.  1.
        -11    1    4    4    0    0  0.36280776366E-01  0.18978514457E-01  0.33193054558E-01  0.52711656553E-01  0.51100000000E-03 0. -1.
         11    1    4    4    0    0  0.33746199340E-01  0.24009487907E-01  0.65050643408E-01  0.77117500013E-01  0.51100000000E-03 0.  1.
</event>
<event>
 8    1  0.1022673E+005  0.1043930E+01  0.7957747E-01            NaN
         13   -1    0    0    0    0  0.00000000000E+00  0.00000000000E+00  0.74505805969E-08  0.10566000000E+00  0.10566000000E+00 0.  1.
     999900   -1    0    0    0    0 -0.00000000000E+00 -0.00000000000E+00 -0.74505805969E-08  0.93827000000E+00  0.93827000000E+00 0. -1.
     999902    2    1    2    0    0 -0.19525835529E-01  0.15937379493E-02 -0.12086282074E-01  0.10209109542E+01  0.10206514096E+01 0.  0.
     999903    2    3    3    0    0  0.57661983444E-01 -0.74535289575E-02  0.11253237565E+00  0.12873965774E+00  0.23019654137E-01 0.  0.
         14    1    1    2    0    0  0.19525835529E-01 -0.15937379493E-02  0.12086282074E-01  0.23019045769E-01  0.00000000000E+00 0.  1.
     999901    1    3    3    0    0 -0.77187818973E-01  0.90472669067E-02 -0.12461865772E+00  0.89217129649E+00  0.88000000000E+00 0. -1.
        -11    1    4    4    0    0  0.42959939147E-01  0.18653183874E-02  0.93659327603E-01  0.10306001432E+00  0.51100000000E-03 0. -1.
         11    1    4    4    0    0  0.14702044297E-01 -0.93188473449E-02  0.18873048045E-01  0.25679643414E-01  0.51100000000E-03 0.  1.
</event>
<event>
 8    1  0.1022673E+005  0.1043930E+01  0.7957747E-01            NaN
         13   -1    0    0    0    0  0.00000000000E+00  0.00000000000E+00  0.74505805969E-08  0.10566000000E+00  0.10566000000E+00 0.  1.
     999900   -1    0    0    0    0 -0.00000000000E+00 -0.00000000000E+00 -0.74505805969E-08  0.93827000000E+00  0.93827000000E+00 0. -1.
     999902    2    1    2    0    0  0.13707862992E-01  0.67999570507E-05  0.21147482656E-01  0.10187283815E+01  0.10184166110E+01 0.  0.
     999903    2    3    3    0    0  0.41524293306E-01 -0.10811549316E+00 -0.52083941907E-01  0.12865702163E+00  0.20655880844E-01 0.  0.
         14    1    1    2    0    0 -0.13707862992E-01 -0.67999570507E-05 -0.21147482656E-01  0.25201618534E-01  0.00000000000E+00 0. -1.
     999901    1    3    3    0    0 -0.27816430313E-01  0.10812229312E+00  0.73231424563E-01  0.89007135984E+00  0.88000000000E+00 0. -1.
        -11    1    4    4    0    0  0.23089696449E-01 -0.69048111045E-01 -0.42843797329E-01  0.84478564213E-01  0.51100000000E-03 0.  1.
         11    1    4    4    0    0  0.18434596856E-01 -0.39067382114E-01 -0.92401445785E-02  0.44178457412E-01  0.51100000000E-03 0. -1.
</event>
<event>
 8    1  0.1458326E+005  0.1043930E+01  0.7957747E-01            NaN
         13   -1    0    0    0    0  0.00000000000E+00  0.00000000000E+00  0.74505805969E-08  0.10566000000E+00  0.10566000000E+00 0.  1.
     999900   -1    0    0    0    0 -0.00000000000E+00 -0.00000000000E+00 -0.74505805969E-08  0.93827000000E+00  0.93827000000E+00 0.  1.
     999902    2    1    2    0    0  0.25164482402E-01  0.21668188844E-03  0.19386445502E-02  0.10186900224E+01  0.10183772903E+01 0.  0.
     999903    2    3    3    0    0 -0.19112826672E-01  0.36981829577E-01  0.12157845111E+00  0.12873168660E+00  0.75875884099E-02 0.  0.
         14    1    1    2    0    0 -0.25164482402E-01 -0.21668188844E-03 -0.19386445502E-02  0.25239977581E-01  0.00000000000E+00 0. -1.
     999901    1    3    3    0    0  0.44277309075E-01 -0.36765147688E-01 -0.11963980656E+00  0.88995833582E+00  0.88000000000E+00 0.  1.
        -11    1    4    4    0    0 -0.14044432731E-01  0.25768245984E-01  0.74626061899E-01  0.80190765225E-01  0.51100000000E-03 0. -1.
         11    1    4    4    0    0 -0.50683939414E-02  0.11213583592E-01  0.46952389211E-01  0.48540921373E-01  0.51100000000E-03 0.  1.
</event>
<event>
 8    1  0.1022673E+005  0.1043930E+01  0.7957747E-01            NaN
         13   -1    0    0    0    0  0.00000000000E+00  0.00000000000E+00  0.74505805969E-08  0.10566000000E+00  0.10566000000E+00 0.  1.
     999900   -1    0    0    0    0 -0.00000000000E+00 -0.00000000000E+00 -0.74505805969E-08  0.93827000000E+00  0.93827000000E+00 0. -1.
     999902    2    1    2    0    0 -0.23733268086E-01 -0.25601863959E-02 -0.33555562843E-03  0.10200566851E+01  0.10197772823E+01 0.  0.
     999903    2    3    3    0    0  0.69332655163E-01 -0.97974850007E-01  0.42885974686E-01  0.12897120949E+00  0.19704764550E-01 0.  0.
         14    1    1    2    0    0  0.23733268086E-01  0.25601863959E-02  0.33555562843E-03  0.23873314936E-01  0.00000000000E+00 0. -1.
     999901    1    3    3    0    0 -0.93065923249E-01  0.95414663611E-01 -0.43221530314E-01  0.89108547558E+00  0.88000000000E+00 0. -1.
        -11    1    4    4    0    0  0.12763788246E-01 -0.19864873094E-01  0.49699143323E-03  0.23622777037E-01  0.51100000000E-03 0.  1.
         11    1    4    4    0    0  0.56568866917E-01 -0.78109976913E-01  0.42388983253E-01  0.10534843245E+00  0.51100000000E-03 0. -1.
</event>
<event>
 8    1  0.1022673E+005  0.1043930E+01  0.7957747E-01            NaN
         13   -1    0    0    0    0  0.00000000000E+00  0.00000000000E+00  0.74505805969E-08  0.10566000000E+00  0.10566000000E+00 0. -1.
     999900   -1    0    0    0    0 -0.00000000000E+00 -0.00000000000E+00 -0.74505805969E-08  0.93827000000E+00  0.93827000000E+00 0. -1.
     999902    2    1    2    0    0 -0.23634840915E-01 -0.63450878997E-02  0.56501566174E-02  0.10188144647E+01  0.10185048470E+01 0.  0.
     999903    2    3    3    0    0  0.90006070373E-01 -0.44128374394E-01  0.76760362940E-01  0.12786076502E+00  0.20194449308E-01 0.  0.
         14    1    1    2    0    0  0.23634840915E-01  0.63450878997E-02 -0.56501566174E-02  0.25115535339E-01  0.00000000000E+00 0.  1.
     999901    1    3    3    0    0 -0.11364091129E+00  0.37783286494E-01 -0.71110206323E-01  0.89095369964E+00  0.88000000000E+00 0. -1.
        -11    1    4    4    0    0  0.65665081056E-01 -0.37201816404E-01  0.47522732596E-01  0.89188279770E-01  0.51100000000E-03 0. -1.
         11    1    4    4    0    0  0.24340989317E-01 -0.69265579897E-02  0.29237630344E-01  0.38672485253E-01  0.51100000000E-03 0.  1.
</event>
<event>
 8    1  0.1022673E+005  0.1043930E+01  0.7957747E-01            NaN
         13   -1    0    0    0    0  0.00000000000E+00  0.00000000000E+00  0.74505805969E-08  0.10566000000E+00  0.10566000000E+00 0.  1.
     999900   -1    0    0    0    0 -0.00000000000E+00 -0.00000000000E+00 -0.74505805969E-08  0.93827000000E+00  0.93827000000E+00 0. -1.
     999902    2    1    2    0    0 -0.15542223974E-01  0.19106036896E-01  0.10242983172E-01  0.10172556663E+01  0.10169058809E+01 0.  0.
     999903    2    3    3    0    0 -0.15657435083E-01 -0.53078518145E-01  0.11433808769E+00  0.12818513256E+00  0.17197254140E-01 0.  0.
         14    1    1    2    0    0  0.15542223974E-01 -0.19106036896E-01 -0.10242983172E-01  0.26674333660E-01  0.00000000000E+00 0.  1.
     999901    1    3    3    0    0  0.11521110966E-03  0.72184555042E-01 -0.10409510452E+00  0.88907053378E+00  0.88000000000E+00 0. -1.
        -11    1    4    4    0    0  0.12363102415E-02 -0.24366383877E-01  0.54044079488E-01  0.59298168395E-01  0.51100000000E-03 0.  1.
         11    1    4    4    0    0 -0.16893745325E-01 -0.28712134269E-01  0.60294008201E-01  0.68886964161E-01  0.51100000000E-03 0. -1.
</event>
<event>
 8    1  0.1022673E+005  0.1043930E+01  0.7957747E-01            NaN
         13   -1    0    0    0    0  0.00000000000E+00  0.00000000000E+00  0.74505805969E-08  0.10566000000E+00  0.10566000000E+00 0.  1.
     999900   -1    0    0    0    0 -0.00000000000E+00 -0.00000000000E+00 -0.74505805969E-08  0.93827000000E+00  0.93827000000E+00 0.  1.
     999902    2    1    2    0    0 -0.22727329521E-02  0.11414810930E-01 -0.20450290637E-01  0.10203996449E+01  0.10201283045E+01 0.  0.
     999903    2    3    3    0    0  0.30750751737E-01 -0.12095767164E+00 -0.30260677531E-01  0.12983282070E+00  0.19091507667E-01 0.  0.
         14    1    1    2    0    0  0.22727329521E-02 -0.11414810930E-01  0.20450290637E-01  0.23530355093E-01  0.00000000000E+00 0.  1.
     999901    1    3    3    0    0 -0.33023484690E-01  0.13237248257E+00  0.98103868935E-02  0.89056682421E+00  0.88000000000E+00 0. -1.
        -11    1    4    4    0    0  0.18808759423E-01 -0.82747895433E-01 -0.29331511067E-01  0.89786314615E-01  0.51100000000E-03 0. -1.
         11    1    4    4    0    0  0.11941992314E-01 -0.38209776210E-01 -0.92916646392E-03  0.40046506087E-01  0.51100000000E-03 0.  1.
</event>
<event>
 8    1  0.1022673E+005  0.1043930E+01  0.7957747E-01            NaN
         13   -1    0    0    0    0  0.00000000000E+00  0.00000000000E+00  0.74505805969E-08  0.10566000000E+00  0.10566000000E+00 0.  1.
     999900   -1    0    0    0    0 -0.00000000000E+00 -0.00000000000E+00 -0.74505805969E-08  0.93827000000E+00  0.93827000000E+00 0. -1.
     999902    2    1    2    0    0  0.21159354001E-02  0.23518769757E-01  0.12221641458E-03  0.10203159226E+01  0.10200426252E+01 0.  0.
     999903    2    3    3    0    0  0.80571784992E-01  0.23066698177E-01 -0.99041099651E-01  0.13127774124E+00  0.20020510069E-01 0.  0.
         14    1    1    2    0    0 -0.21159354001E-02 -0.23518769757E-01 -0.12221641458E-03  0.23614077376E-01  0.00000000000E+00 0.  1.
     999901    1    3    3    0    0 -0.78455849592E-01  0.45207157967E-03  0.99163316066E-01  0.88903818138E+00  0.88000000000E+00 0.  1.
        -11    1    4    4    0    0  0.36695751507E-01  0.13338019227E-01 -0.31599459158E-01  0.50232139868E-01  0.51100000000E-03 0. -1.
         11    1    4    4    0    0  0.43876033484E-01  0.97286789501E-02 -0.67441640493E-01  0.81045601373E-01  0.51100000000E-03 0.  1.
</event>
<event>
 8    1  0.1022673E+005  0.1043930E+01  0.7957747E-01            NaN
         13   -1    0    0    0    0  0.00000000000E+00  0.00000000000E+00  0.74505805969E-08  0.10566000000E+00  0.10566000000E+00 0. -1.
     999900   -1    0    0    0    0 -0.00000000000E+00 -0.00000000000E+00 -0.74505805969E-08  0.93827000000E+00  0.93827000000E+00 0.  1.
     999902    2    1    2    0    0 -0.24195931110E-02 -0.34512213862E-02 -0.22976022269E-01  0.10205705702E+01  0.10203032029E+01 0.  0.
     999903    2    3    3    0    0  0.17639613529E-01 -0.83581582315E-01  0.94531491500E-01  0.12892531436E+00  0.19710325493E-01 0.  0.
         14    1    1    2    0    0  0.24195931110E-02  0.34512213862E-02  0.22976022269E-01  0.23359429771E-01  0.00000000000E+00 0. -1.
     999901    1    3    3    0    0 -0.20059206640E-01  0.80130360929E-01 -0.11750751377E+00  0.89164525586E+00  0.88000000000E+00 0. -1.
        -11    1    4    4    0    0  0.17333336930E-01 -0.41538230866E-01  0.56421823157E-01  0.72177229387E-01  0.51100000000E-03 0. -1.
         11    1    4    4    0    0  0.30627659895E-03 -0.42043351449E-01  0.38109668343E-01  0.56748084978E-01  0.51100000000E-03 0.  1.
</event>
<event>
 8    1  0.1022673E+005  0.1043930E+01  0.7957747E-01            NaN
         13   -1    0    0    0    0  0.00000000000E+00  0.00000000000E+00  0.74505805969E-08  0.10566000000E+00  0.10566000000E+00 0. -1.
     999900   -1    0    0    0    0 -0.00000000000E+00 -0.00000000000E+00 -0.74505805969E-08  0.93827000000E+00  0.93827000000E+00 0.  1.
     999902    2    1    2    0    0 -0.56900870311E-02  0.19368464899E-01 -0.89648208518E-02  0.10218419368E+01  0.10216031819E+01 0.  0.
     999903    2    3    3    0    0 -0.72177348415E-01  0.91695015555E-01 -0.64220631308E-01  0.13465261628E+00  0.19735553801E-01 0.  0.
         14    1    1    2    0    0  0.56900870311E-02 -0.19368464899E-01  0.89648208518E-02  0.22088063199E-01  0.00000000000E+00 0. -1.
     999901    1    3    3    0    0  0.66487261384E-01 -0.72326550656E-01  0.55255810457E-01  0.88718932052E+00  0.88000000000E+00 0. -1.
        -11    1    4    4    0    0 -0.24531035824E-01  0.43793730405E-01 -0.34052304279E-01  0.60658742891E-01  0.51100000000E-03 0.  1.
         11    1    4    4    0    0 -0.47646312591E-01  0.47901285149E-01 -0.30168327030E-01  0.73993873390E-01  0.51100000000E-03 0. -1.
</event>
<event>
 8    1  0.1022673E+005  0.1043930E+01  0.7957747E-01            NaN
         13   -1    0    0    0    0  0.00000000000E+00  0.00000000000E+00  0.74505805969E-08  0.10566000000E+00  0.10566000000E+00 0.  1.
     999900   -1    0    0    0    0 -0.00000000000E+00 -0.00000000000E+00 -0.74505805969E-08  0.93827000000E+00  0.93827000000E+00 0. -1.
     999902    2    1    2    0    0 -0.76825891232E-02  0.22026443146E-01 -0.54974688287E-02  0.10199631784E+01  0.10196815566E+01 0.  0.
     999903    2    3    3    0    0  0.57935023445E-01 -0.29592969399E-01  0.10913532266E+00  0.12860976270E+00  0.19943460801E-01 0.  0.
         14    1    1    2    0    0  0.76825891232E-02 -0.22026443146E-01  0.54974688287E-02  0.23966821583E-01  0.00000000000E+00 0.  1.
     999901    1    3    3    0    0 -0.65617612568E-01  0.51619412544E-01 -0.11463279149E+00  0.89135341572E+00  0.88000000000E+00 0. -1.
        -11    1    4    4    0    0  0.14398937518E-01 -0.83987353732E-03  0.35866504100E-01  0.38661376418E-01  0.51100000000E-03 0.  1.
         11    1    4    4    0    0  0.43536085927E-01 -0.28753095861E-01  0.73268818563E-01  0.89948386278E-01  0.51100000000E-03 0. -1.
</event>
<event>
 8    1  0.1022673E+005  0.1043930E+01  0.7957747E-01            NaN
         13   -1    0    0    0    0  0.00000000000E+00  0.00000000000E+00  0.74505805969E-08  0.10566000000E+00  0.10566000000E+00 0. -1.
     999900   -1    0    0    0    0 -0.00000000000E+00 -0.00000000000E+00 -0.74505805969E-08  0.93827000000E+00  0.93827000000E+00 0. -1.
     999902    2    1    2    0    0  0.60453388256E-02 -0.19267356313E-01 -0.11221322017E-01  0.10208281557E+01  0.10205667192E+01 0.  0.
     999903    2    3    3    0    0  0.11687019909E+00 -0.62592912914E-01 -0.56784267518E-02  0.13280226805E+00  0.52613387297E-02 0.  0.
         14    1    1    2    0    0 -0.60453388256E-02  0.19267356313E-01  0.11221322017E-01  0.23101844269E-01  0.00000000000E+00 0. -1.
     999901    1    3    3    0    0 -0.11082486027E+00  0.43325556601E-01 -0.55428952654E-02  0.88802588768E+00  0.88000000000E+00 0.  1.
        -11    1    4    4    0    0  0.18381182121E-01 -0.11886863576E-01 -0.14928059285E-02  0.21946639204E-01  0.51100000000E-03 0.  1.
         11    1    4    4    0    0  0.98489016971E-01 -0.50706049338E-01 -0.41856208233E-02  0.11085562884E+00  0.51100000000E-03 0. -1.
</event>
<event>
 8    1  0.1022673E+005  0.1043930E+01  0.7957747E-01            NaN
         13   -1    0    0    0    0  0.00000000000E+00  0.00000000000E+00  0.74505805969E-08  0.10566000000E+00  0.10566000000E+00 0. -1.
     999900   -1    0    0    0    0 -0.00000000000E+00 -0.00000000000E+00 -0.74505805969E-08  0.93827000000E+00  0.93827000000E+00 0. -1.
     999902    2    1    2    0    0 -0.18215860679E-01  0.11308481102E-02 -0.15574003169E-01  0.10199373767E+01  0.10196551409E+01 0.  0.
     999903    2    3    3    0    0  0.16499616694E-01  0.72403693228E-01 -0.10689966585E+00  0.13166638231E+00  0.19848564889E-01 0.  0.
         14    1    1    2    0    0  0.18215860679E-01 -0.11308481102E-02  0.15574003169E-01  0.23992623292E-01  0.00000000000E+00 0. -1.
     999901    1    3    3    0    0 -0.34715477373E-01 -0.71272845118E-01  0.91325662681E-01  0.88827099440E+00  0.88000000000E+00 0.  1.
        -11    1    4    4    0    0  0.10983792350E-01  0.15140253468E-01 -0.19449462336E-01  0.26989139957E-01  0.51100000000E-03 0.  1.
         11    1    4    4    0    0  0.55158243440E-02  0.57263439761E-01 -0.87450203514E-01  0.10467724236E+00  0.51100000000E-03 0. -1.
</event>
<event>
 8    1  0.1022673E+005  0.1043930E+01  0.7957747E-01            NaN
         13   -1    0    0    0    0  0.00000000000E+00  0.00000000000E+00  0.74505805969E-08  0.10566000000E+00  0.10566000000E+00 0. -1.
     999900   -1    0    0    0    0 -0.00000000000E+00 -0.00000000000E+00 -0.74505805969E-08  0.93827000000E+00  0.93827000000E+00 0.  1.
     999902    2    1    2    0    0 -0.86624203956E-02 -0.83471937468E-02 -0.20050434352E-01  0.10205476757E+01  0.10202797780E+01 0.  0.
     999903    2    3    3    0    0  0.11301757672E+00 -0.34778128532E-01 -0.53403610028E-01  0.13115628251E+00  0.19171176410E-01 0.  0.
         14    1    1    2    0    0  0.86624203956E-02  0.83471937468E-02  0.20050434352E-01  0.23382324269E-01  0.00000000000E+00 0. -1.
     999901    1    3    3    0    0 -0.12167999712E+00  0.26430934785E-01  0.33353175676E-01  0.88939139322E+00  0.88000000000E+00 0.  1.
        -11    1    4    4    0    0  0.65424151484E-02  0.12152121016E-02 -0.66593074371E-02  0.94280132036E-02  0.51100000000E-03 0.  1.
         11    1    4    4    0    0  0.10647516157E+00 -0.35993340633E-01 -0.46744302591E-01  0.12172826930E+00  0.51100000000E-03 0. -1.
</event>
<event>
 8    1  0.1187542E+005  0.1043930E+01  0.7957747E-01            NaN
         13   -1    0    0    0    0  0.00000000000E+00  0.00000000000E+00  0.74505805969E-08  0.10566000000E+00  0.10566000000E+00 0. -1.
     999900   -1    0    0    0    0 -0.00000000000E+00 -0.00000000000E+00 -0.74505805969E-08  0.93827000000E+00  0.93827000000E+00 0. -1.
     999902    2    1    2    0    0  0.22632647400E-01 -0.81885475908E-02  0.46825216443E-04  0.10198615303E+01  0.10195774859E+01 0.  0.
     999903    2    3    3    0    0  0.20343285452E-02 -0.20932134734E-01 -0.12708772918E+00  0.13039546314E+00  0.20233465856E-01 0.  0.
         14    1    1    2    0    0 -0.22632647400E-01  0.81885475908E-02 -0.46825216443E-04  0.24068469677E-01  0.00000000000E+00 0. -1.
     999901    1    3    3    0    0  0.20598318855E-01  0.12743587143E-01  0.12713455440E+00  0.88946606719E+00  0.88000000000E+00 0.  1.
        -11    1    4    4    0    0  0.34228102724E-02 -0.49299046205E-03 -0.63307370025E-01  0.63403808169E-01  0.51100000000E-03 0.  1.
         11    1    4    4    0    0 -0.13884817272E-02 -0.20439144272E-01 -0.63780359158E-01  0.66991654969E-01  0.51100000000E-03 0. -1.
</event>
<event>
 8    1  0.1022673E+005  0.1043930E+01  0.7957747E-01            NaN
         13   -1    0    0    0    0  0.00000000000E+00  0.00000000000E+00  0.74505805969E-08  0.10566000000E+00  0.10566000000E+00 0. -1.
     999900   -1    0    0    0    0 -0.00000000000E+00 -0.00000000000E+00 -0.74505805969E-08  0.93827000000E+00  0.93827000000E+00 0.  1.
     999902    2    1    2    0    0 -0.54516404318E-02  0.63204076571E-02  0.23300422433E-01  0.10191796945E+01  0.10188791254E+01 0.  0.
     999903    2    3    3    0    0  0.34112690568E-01 -0.46413199056E-01  0.11680921758E+00  0.13177332517E+00  0.20048820694E-01 0.  0.
         14    1    1    2    0    0  0.54516404318E-02 -0.63204076571E-02 -0.23300422433E-01  0.24750305492E-01  0.00000000000E+00 0.  1.
     999901    1    3    3    0    0 -0.39564331000E-01  0.52733606713E-01 -0.93508795148E-01  0.88740636933E+00  0.88000000000E+00 0.  1.
        -11    1    4    4    0    0  0.17717049675E-01 -0.26820043225E-01  0.43158560817E-01  0.53815713881E-01  0.51100000000E-03 0.  1.
         11    1    4    4    0    0  0.16395640893E-01 -0.19593155831E-01  0.73650656765E-01  0.77957611293E-01  0.51100000000E-03 0. -1.
</event>
<event>
 8    1  0.1022673E+005  0.1043930E+01  0.7957747E-01            NaN
         13   -1    0    0    0    0  0.00000000000E+00  0.00000000000E+00  0.74505805969E-08  0.10566000000E+00  0.10566000000E+00 0.  1.
     999900   -1    0    0    0    0 -0.00000000000E+00 -0.00000000000E+00 -0.74505805969E-08  0.93827000000E+00  0.93827000000E+00 0. -1.
     999902    2    1    2    0    0 -0.18790869001E-01 -0.32521056984E-02 -0.13624197169E-01  0.10204930271E+01  0.10202238611E+01 0.  0.
     999903    2    3    3    0    0 -0.77001185823E-01  0.65955798157E-01  0.80304680963E-01  0.13088591772E+00  0.20073159821E-01 0.  0.
         14    1    1    2    0    0  0.18790869001E-01  0.32521056984E-02  0.13624197169E-01  0.23436972880E-01  0.00000000000E+00 0.  1.
     999901    1    3    3    0    0  0.58210316823E-01 -0.69207903856E-01 -0.93928878132E-01  0.88960710940E+00  0.88000000000E+00 0. -1.
        -11    1    4    4    0    0 -0.28383963848E-01  0.26560765225E-01  0.43277682203E-01  0.58175102501E-01  0.51100000000E-03 0. -1.
         11    1    4    4    0    0 -0.48617221976E-01  0.39395032932E-01  0.37026998760E-01  0.72710815224E-01  0.51100000000E-03 0.  1.
</event>
<event>
 8    1  0.1022673E+005  0.1043930E+01  0.7957747E-01            NaN
         13   -1    0    0    0    0  0.00000000000E+00  0.00000000000E+00  0.74505805969E-08  0.10566000000E+00  0.10566000000E+00 0. -1.
     999900   -1    0    0    0    0 -0.00000000000E+00 -0.00000000000E+00 -0.74505805969E-08  0.93827000000E+00  0.93827000000E+00 0.  1.
     999902    2    1    2    0    0 -0.14320013876E-01 -0.17014144770E-01 -0.88382704054E-02  0.10199997066E+01  0.10197189527E+01 0.  0.
     999903    2    3    3    0    0  0.53568219642E-01 -0.10485328186E+00 -0.54275756196E-01  0.13186171540E+00  0.24039330366E-01 0.  0.
         14    1    1    2    0    0  0.14320013876E-01  0.17014144770E-01  0.88382704054E-02  0.23930293425E-01  0.00000000000E+00 0.  1.
     999901    1    3    3    0    0 -0.67888233518E-01  0.87839137092E-01  0.45437485790E-01  0.88813799118E+00  0.88000000000E+00 0.  1.
        -11    1    4    4    0    0  0.34549623564E-01 -0.41381434552E-01 -0.24592351591E-01  0.59254911120E-01  0.51100000000E-03 0.  1.
         11    1    4    4    0    0  0.19018596078E-01 -0.63471847310E-01 -0.29683404605E-01  0.72606804279E-01  0.51100000000E-03 0. -1.
</event>
<event>
 8    1  0.1022673E+005  0.1043930E+01  0.7957747E-01            NaN
         13   -1    0    0    0    0  0.00000000000E+00  0.00000000000E+00  0.74505805969E-08  0.10566000000E+00  0.10566000000E+00 0.  1.
     999900   -1    0    0    0    0 -0.00000000000E+00 -0.00000000000E+00 -0.74505805969E-08  0.93827000000E+00  0.93827000000E+00 0. -1.
     999902    2    1    2    0    0 -0.22221924635E-01  0.13694356566E-02  0.78932584678E-02  0.10203081284E+01  0.10200346485E+01 0.  0.
     999903    2    3    3    0    0 -0.12132223354E+00 -0.39394693963E-02 -0.50495017466E-01  0.13280700363E+00  0.18797597053E-01 0.  0.
         14    1    1    2    0    0  0.22221924635E-01 -0.13694356566E-02 -0.78932584678E-02  0.23621871597E-01  0.00000000000E+00 0.  1.
     999901    1    3    3    0    0  0.99100308906E-01  0.53089050529E-02  0.58388275934E-01  0.88750112477E+00  0.88000000000E+00 0.  1.
        -11    1    4    4    0    0 -0.86344913640E-01 -0.57730799112E-02 -0.27097621894E-01  0.90682494433E-01  0.51100000000E-03 0. -1.
         11    1    4    4    0    0 -0.34977319901E-01  0.18336105149E-02 -0.23397395572E-01  0.42124509202E-01  0.51100000000E-03 0.  1.
</event>
<event>
 8    1  0.1022673E+005  0.1043930E+01  0.7957747E-01            NaN
         13   -1    0    0    0    0  0.00000000000E+00  0.00000000000E+00  0.74505805969E-08  0.10566000000E+00  0.10566000000E+00 0.  1.
     999900   -1    0    0    0    0 -0.00000000000E+00 -0.00000000000E+00 -0.74505805969E-08  0.93827000000E+00  0.93827000000E+00 0. -1.
     999902    2    1    2    0    0 -0.21282432359E-01 -0.91792983175E-02  0.47869434835E-02  0.10202632243E+01  0.10199886914E+01 0.  0.
     999903    2    3    3    0    0  0.58032963479E-02 -0.12861362232E+00  0.17044318736E-01  0.13169784251E+00  0.21878547171E-01 0.  0.
         14    1    1    2    0    0  0.21282432359E-01  0.91792983175E-02 -0.47869434835E-02  0.23666775712E-01  0.00000000000E+00 0. -1.
     999901    1    3    3    0    0 -0.27085728707E-01  0.11943432400E+00 -0.12257375252E-01  0.88856538178E+00  0.88000000000E+00 0.  1.
        -11    1    4    4    0    0  0.88421190311E-02 -0.46110336858E-01  0.14334316649E-01  0.49092565515E-01  0.51100000000E-03 0. -1.
         11    1    4    4    0    0 -0.30388226832E-02 -0.82503285459E-01  0.27100020871E-02  0.82605276993E-01  0.51100000000E-03 0.  1.
</event>
<event>
 8    1  0.1022673E+005  0.1043930E+01  0.7957747E-01            NaN
         13   -1    0    0    0    0  0.00000000000E+00  0.00000000000E+00  0.74505805969E-08  0.10566000000E+00  0.10566000000E+00 0.  1.
     999900   -1    0    0    0    0 -0.00000000000E+00 -0.00000000000E+00 -0.74505805969E-08  0.93827000000E+00  0.93827000000E+00 0.  1.
     999902    2    1    2    0    0  0.10930593361E-01 -0.21920326855E-01  0.43743326909E-02  0.10190480108E+01  0.10187441950E+01 0.  0.
     999903    2    3    3    0    0  0.10483151972E+00 -0.38338447995E-01 -0.65982626860E-01  0.13110823781E+00  0.19395330741E-01 0.  0.
         14    1    1    2    0    0 -0.10930593361E-01  0.21920326855E-01 -0.43743326909E-02  0.24881989212E-01  0.00000000000E+00 0. -1.
     999901    1    3    3    0    0 -0.93900926355E-01  0.16418121141E-01  0.70356959551E-01  0.88793977297E+00  0.88000000000E+00 0.  1.
        -11    1    4    4    0    0  0.60798610758E-01 -0.29151557425E-01 -0.31471557471E-01  0.74411050396E-01  0.51100000000E-03 0.  1.
         11    1    4    4    0    0  0.44032908958E-01 -0.91868905699E-02 -0.34511069389E-01  0.56697187418E-01  0.51100000000E-03 0. -1.
</event>
<event>
 8    1  0.1022673E+005  0.1043930E+01  0.7957747E-01            NaN
         13   -1    0    0    0    0  0.00000000000E+00  0.00000000000E+00  0.74505805969E-08  0.10566000000E+00  0.10566000000E+00 0. -1.
     999900   -1    0    0    0    0 -0.00000000000E+00 -0.00000000000E+00 -0.74505805969E-08  0.93827000000E+00  0.93827000000E+00 0. -1.
     999902    2    1    2    0    0 -0.98584434947E-02 -0.11263338596E-01  0.18801087998E-01  0.10198980917E+01  0.10196149199E+01 0.  0.
     999903    2    3    3    0    0 -0.72986044150E-01  0.10243444215E+00  0.27789323584E-01  0.13029533338E+00  0.19617589483E-01 0.  0.
         14    1    1    2    0    0  0.98584434947E-02  0.11263338596E-01 -0.18801087998E-01  0.24031908255E-01  0.00000000000E+00 0.  1.
     999901    1    3    3    0    0  0.63127600655E-01 -0.11369778074E+00 -0.89882355860E-02  0.88960275836E+00  0.88000000000E+00 0.  1.
        -11    1    4    4    0    0 -0.35684936938E-01  0.51871907847E-01  0.23878230648E-01  0.67338997377E-01  0.51100000000E-03 0. -1.
         11    1    4    4    0    0 -0.37301107212E-01  0.50562534300E-01  0.39110929361E-02  0.62956336004E-01  0.51100000000E-03 0.  1.
</event>
<event>
 8    1  0.1022673E+005  0.1043930E+01  0.7957747E-01            NaN
         13   -1    0    0    0    0  0.00000000000E+00  0.00000000000E+00  0.74505805969E-08  0.10566000000E+00  0.10566000000E+00 0.  1.
     999900   -1    0    0    0    0 -0.00000000000E+00 -0.00000000000E+00 -0.74505805969E-08  0.93827000000E+00  0.93827000000E+00 0.  1.
     999902    2    1    2    0    0 -0.13754782124E-02  0.22501764957E-01  0.66102545769E-02  0.10204370897E+01  0.10201666223E+01 0.  0.
     999903    2    3    3    0    0  0.11428161159E+00 -0.28836008567E-01  0.51619640419E-01  0.13024723684E+00  0.20197853572E-01 0.  0.
         14    1    1    2    0    0  0.13754782124E-02 -0.22501764957E-01 -0.66102545769E-02  0.23492910251E-01  0.00000000000E+00 0. -1.
     999901    1    3    3    0    0 -0.11565708980E+00  0.51337773524E-01 -0.45009385842E-01  0.89018985291E+00  0.88000000000E+00 0.  1.
        -11    1    4    4    0    0  0.50425287674E-01 -0.21990686805E-01  0.18912052673E-01  0.58174107647E-01  0.51100000000E-03 0. -1.
         11    1    4    4    0    0  0.63856323917E-01 -0.68453217619E-02  0.32707587746E-01  0.72073129191E-01  0.51100000000E-03 0.  1.
</event>
<event>
 8    1  0.1022673E+005  0.1043930E+01  0.7957747E-01            NaN
         13   -1    0    0    0    0  0.00000000000E+00  0.00000000000E+00  0.74505805969E-08  0.10566000000E+00  0.10566000000E+00 0. -1.
     999900   -1    0    0    0    0 -0.00000000000E+00 -0.00000000000E+00 -0.74505805969E-08  0.93827000000E+00  0.93827000000E+00 0. -1.
     999902    2    1    2    0    0 -0.11573026127E-02 -0.55841538140E-02  0.22793658793E-01  0.10204337662E+01  0.10201632213E+01 0.  0.
     999903    2    3    3    0    0  0.69115741716E-01  0.70294333258E-01 -0.80491435579E-01  0.12837790677E+00  0.16844485888E-01 0.  0.
         14    1    1    2    0    0  0.11573026127E-02  0.55841538140E-02 -0.22793658793E-01  0.23496233833E-01  0.00000000000E+00 0.  1.
     999901    1    3    3    0    0 -0.70273044328E-01 -0.75878487072E-01  0.10328509437E+00  0.89205585939E+00  0.88000000000E+00 0.  1.
        -11    1    4    4    0    0  0.22937886904E-01  0.28269664132E-01 -0.20472880090E-01  0.41769851639E-01  0.51100000000E-03 0.  1.
         11    1    4    4    0    0  0.46177854812E-01  0.42024669126E-01 -0.60018555489E-01  0.86608055134E-01  0.51100000000E-03 0. -1.
</event>
<event>
 8    1  0.1022673E+005  0.1043930E+01  0.7957747E-01            NaN
         13   -1    0    0    0    0  0.00000000000E+00  0.00000000000E+00  0.74505805969E-08  0.10566000000E+00  0.10566000000E+00 0. -1.
     999900   -1    0    0    0    0 -0.00000000000E+00 -0.00000000000E+00 -0.74505805969E-08  0.93827000000E+00  0.93827000000E+00 0. -1.
     999902    2    1    2    0    0  0.14796125500E-02  0.23599872660E-01 -0.85389720869E-03  0.10202683774E+01  0.10199939655E+01 0.  0.
     999903    2    3    3    0    0  0.87372956364E-02  0.89781710542E-01 -0.95143547143E-01  0.13273063303E+00  0.20688897941E-01 0.  0.
         14    1    1    2    0    0 -0.14796125500E-02 -0.23599872660E-01  0.85389720869E-03  0.23661622584E-01  0.00000000000E+00 0. -1.
     999901    1    3    3    0    0 -0.72576830864E-02 -0.66181837881E-01  0.94289649935E-01  0.88753774439E+00  0.88000000000E+00 0.  1.
        -11    1    4    4    0    0  0.14333239895E-01  0.47482222165E-01 -0.56228847993E-01  0.74979648274E-01  0.51100000000E-03 0. -1.
         11    1    4    4    0    0 -0.55959442586E-02  0.42299488376E-01 -0.38914699151E-01  0.57750984754E-01  0.51100000000E-03 0.  1.
</event>
<event>
 8    1  0.1022673E+005  0.1043930E+01  0.7957747E-01            NaN
         13   -1    0    0    0    0  0.00000000000E+00  0.00000000000E+00  0.74505805969E-08  0.10566000000E+00  0.10566000000E+00 0.  1.
     999900   -1    0    0    0    0 -0.00000000000E+00 -0.00000000000E+00 -0.74505805969E-08  0.93827000000E+00  0.93827000000E+00 0. -1.
     999902    2    1    2    0    0 -0.22991645456E-02  0.48829209492E-02 -0.22920836146E-01  0.10203823079E+01  0.10201105628E+01 0.  0.
     999903    2    3    3    0    0 -0.10403364630E+00  0.75843751736E-01  0.14056688992E-01  0.13091466842E+00  0.19125523838E-01 0.  0.
         14    1    1    2    0    0  0.22991645456E-02 -0.48829209492E-02  0.22920836146E-01  0.23547692121E-01  0.00000000000E+00 0.  1.
     999901    1    3    3    0    0  0.10173448175E+00 -0.70960830787E-01 -0.36977525138E-01  0.88946763946E+00  0.88000000000E+00 0.  1.
        -11    1    4    4    0    0 -0.70532280578E-01  0.60525547859E-01  0.14523012107E-01  0.94070843245E-01  0.51100000000E-03 0.  1.
         11    1    4    4    0    0 -0.33501365720E-01  0.15318203878E-01 -0.46632311528E-03  0.36843825173E-01  0.51100000000E-03 0. -1.
</event>
<event>
 8    1  0.1677468E+005  0.1043930E+01  0.7957747E-01            NaN
         13   -1    0    0    0    0  0.00000000000E+00  0.00000000000E+00  0.74505805969E-08  0.10566000000E+00  0.10566000000E+00 0. -1.
     999900   -1    0    0    0    0 -0.00000000000E+00 -0.00000000000E+00 -0.74505805969E-08  0.93827000000E+00  0.93827000000E+00 0.  1.
     999902    2    1    2    0    0 -0.45216220573E-02  0.33555734668E-02 -0.23218623715E-01  0.10200383817E+01  0.10197585453E+01 0.  0.
     999903    2    3    3    0    0  0.15742349410E-01  0.11723545224E+00  0.42637419013E-01  0.13002923919E+00  0.33131264956E-01 0.  0.
         14    1    1    2    0    0  0.45216220573E-02 -0.33555734668E-02  0.23218623715E-01  0.23891618332E-01  0.00000000000E+00 0. -1.
     999901    1    3    3    0    0 -0.20263971467E-01 -0.11387987877E+00 -0.65856042728E-01  0.89000914248E+00  0.88000000000E+00 0.  1.
        -11    1    4    4    0    0  0.17409487729E-02  0.48505448352E-01  0.34205223592E-01  0.59380702794E-01  0.51100000000E-03 0.  1.
         11    1    4    4    0    0  0.14001400637E-01  0.68730003889E-01  0.84321954214E-02  0.70648536396E-01  0.51100000000E-03 0. -1.
</event>
<event>
 8    1  0.1798856E+005  0.1043930E+01  0.7957747E-01            NaN
         13   -1    0    0    0    0  0.00000000000E+00  0.00000000000E+00  0.74505805969E-08  0.10566000000E+00  0.10566000000E+00 0.  1.
     999900   -1    0    0    0    0 -0.00000000000E+00 -0.00000000000E+00 -0.74505805969E-08  0.93827000000E+00  0.93827000000E+00 0. -1.
     999902    2    1    2    0    0  0.23070311615E-01  0.24489320234E-02  0.52793025808E-02  0.10201369846E+01  0.10198594804E+01 0.  0.
     999903    2    3    3    0    0 -0.18617188783E-01 -0.12671657664E+00 -0.44067136553E-02  0.12967901522E+00  0.19837775826E-01 0.  0.
         14    1    1    2    0    0 -0.23070311615E-01 -0.24489320234E-02 -0.52793025808E-02  0.23793015400E-01  0.00000000000E+00 0. -1.
     999901    1    3    3    0    0  0.41687500398E-01  0.12916550867E+00  0.96860162361E-02  0.89045796938E+00  0.88000000000E+00 0. -1.
        -11    1    4    4    0    0 -0.67342398385E-02 -0.57490306592E-01  0.77237431579E-02  0.58398652961E-01  0.51100000000E-03 0.  1.
         11    1    4    4    0    0 -0.11882948944E-01 -0.69226270050E-01 -0.12130456813E-01  0.71280362261E-01  0.51100000000E-03 0. -1.
</event>
<event>
 8    1  0.1022673E+005  0.1043930E+01  0.7957747E-01            NaN
         13   -1    0    0    0    0  0.00000000000E+00  0.00000000000E+00  0.74505805969E-08  0.10566000000E+00  0.10566000000E+00 0. -1.
     999900   -1    0    0    0    0 -0.00000000000E+00 -0.00000000000E+00 -0.74505805969E-08  0.93827000000E+00  0.93827000000E+00 0. -1.
     999902    2    1    2    0    0 -0.89602967622E-03  0.92892517971E-02  0.22024474995E-01  0.10200099129E+01  0.10197294013E+01 0.  0.
     999903    2    3    3    0    0  0.76214695196E-01  0.10469980734E+00  0.10218289559E-01  0.13142191837E+00  0.19914260385E-01 0.  0.
         14    1    1    2    0    0  0.89602967622E-03 -0.92892517971E-02 -0.22024474995E-01  0.23920087101E-01  0.00000000000E+00 0.  1.
     999901    1    3    3    0    0 -0.77110724873E-01 -0.95410555543E-01  0.11806185436E-01  0.88858799452E+00  0.88000000000E+00 0.  1.
        -11    1    4    4    0    0  0.65388696947E-01  0.81139122842E-01  0.14242199250E-01  0.10517766067E+00  0.51100000000E-03 0. -1.
         11    1    4    4    0    0  0.10825998250E-01  0.23560684498E-01 -0.40239096917E-02  0.26244257702E-01  0.51100000000E-03 0.  1.
</event>
<event>
 8    1  0.1022673E+005  0.1043930E+01  0.7957747E-01            NaN
         13   -1    0    0    0    0  0.00000000000E+00  0.00000000000E+00  0.74505805969E-08  0.10566000000E+00  0.10566000000E+00 0. -1.
     999900   -1    0    0    0    0 -0.00000000000E+00 -0.00000000000E+00 -0.74505805969E-08  0.93827000000E+00  0.93827000000E+00 0. -1.
     999902    2    1    2    0    0 -0.20830727882E-01 -0.70805056237E-02  0.73595208290E-02  0.10207305317E+01  0.10204668554E+01 0.  0.
     999903    2    3    3    0    0  0.45495713080E-01 -0.10142828638E+00 -0.64689341085E-01  0.13028584557E+00  0.20787821417E-01 0.  0.
         14    1    1    2    0    0  0.20830727882E-01  0.70805056237E-02 -0.73595208290E-02  0.23199468331E-01  0.00000000000E+00 0.  1.
     999901    1    3    3    0    0 -0.66326440962E-01  0.94347780753E-01  0.72048861914E-01  0.89044468610E+00  0.88000000000E+00 0.  1.
        -11    1    4    4    0    0  0.43094111432E-02 -0.27953848960E-01 -0.22105320211E-01  0.35901183806E-01  0.51100000000E-03 0.  1.
         11    1    4    4    0    0  0.41186301937E-01 -0.73474437417E-01 -0.42584020874E-01  0.94384661761E-01  0.51100000000E-03 0. -1.
</event>
<event>
 8    1  0.1022673E+005  0.1043930E+01  0.7957747E-01            NaN
         13   -1    0    0    0    0  0.00000000000E+00  0.00000000000E+00  0.74505805969E-08  0.10566000000E+00  0.10566000000E+00 0. -1.
     999900   -1    0    0    0    0 -0.00000000000E+00 -0.00000000000E+00 -0.74505805969E-08  0.93827000000E+00  0.93827000000E+00 0.  1.
     999902    2    1    2    0    0  0.67872021684E-02 -0.11535803674E-01  0.19273070663E-01  0.10204653003E+01  0.10201954896E+01 0.  0.
     999903    2    3    3    0    0 -0.12286565138E+00 -0.17547634225E-01 -0.30786972591E-01  0.12953768681E+00  0.20695092826E-01 0.  0.
         14    1    1    2    0    0 -0.67872021684E-02  0.11535803674E-01 -0.19273070663E-01  0.23464699709E-01  0.00000000000E+00 0.  1.
     999901    1    3    3    0    0  0.12965285354E+00  0.60118305510E-02  0.50060043254E-01  0.89092761348E+00  0.88000000000E+00 0.  1.
        -11    1    4    4    0    0 -0.23318419594E-01 -0.10299309463E-01 -0.16055688114E-02  0.25547278524E-01  0.51100000000E-03 0. -1.
         11    1    4    4    0    0 -0.99547231781E-01 -0.72483247617E-02 -0.29181403780E-01  0.10399040828E+00  0.51100000000E-03 0.  1.
</event>
<event>
 8    1  0.1022673E+005  0.1043930E+01  0.7957747E-01            NaN
         13   -1    0    0    0    0  0.00000000000E+00  0.00000000000E+00  0.74505805969E-08  0.10566000000E+00  0.10566000000E+00 0.  1.
     999900   -1    0    0    0    0 -0.00000000000E+00 -0.00000000000E+00 -0.74505805969E-08  0.93827000000E+00  0.93827000000E+00 0.  1.
     999902    2    1    2    0    0 -0.13561893954E-01 -0.17397645968E-01 -0.99749725741E-02  0.10197204331E+01  0.10194330083E+01 0.  0.
     999903    2    3    3    0    0 -0.30113188265E-01  0.36993825701E-01  0.11790379839E+00  0.12866187294E+00  0.19422271376E-01 0.  0.
         14    1    1    2    0    0  0.13561893954E-01  0.17397645968E-01  0.99749725741E-02  0.24209566925E-01  0.00000000000E+00 0.  1.
     999901    1    3    3    0    0  0.16551294311E-01 -0.54391471669E-01 -0.12787877096E+00  0.89105856014E+00  0.88000000000E+00 0.  1.
        -11    1    4    4    0    0 -0.28044348235E-01  0.30228888897E-01  0.78984116405E-01  0.89101195038E-01  0.51100000000E-03 0. -1.
         11    1    4    4    0    0 -0.20688400297E-02  0.67649368035E-02  0.38919681984E-01  0.39560677898E-01  0.51100000000E-03 0.  1.
</event>
<event>
 8    1  0.1022673E+005  0.1043930E+01  0.7957747E-01            NaN
         13   -1    0    0    0    0  0.00000000000E+00  0.00000000000E+00  0.74505805969E-08  0.10566000000E+00  0.10566000000E+00 0.  1.
     999900   -1    0    0    0    0 -0.00000000000E+00 -0.00000000000E+00 -0.74505805969E-08  0.93827000000E+00  0.93827000000E+00 0. -1.
     999902    2    1    2    0    0  0.14686180446E-01 -0.17041148711E-01  0.27200639175E-02  0.10212698280E+01  0.10210184025E+01 0.  0.
     999903    2    3    3    0    0  0.68574194088E-01 -0.23963541219E-01 -0.10905112875E+00  0.13253778910E+00  0.19936034094E-01 0.  0.
         14    1    1    2    0    0 -0.14686180446E-01  0.17041148711E-01 -0.27200639175E-02  0.22660171959E-01  0.00000000000E+00 0.  1.
     999901    1    3    3    0    0 -0.53888013642E-01  0.69223925082E-02  0.11177119267E+00  0.88873203894E+00  0.88000000000E+00 0.  1.
        -11    1    4    4    0    0  0.70962826660E-05 -0.27319096095E-02 -0.88693766090E-02  0.92946405473E-02  0.51100000000E-03 0.  1.
         11    1    4    4    0    0  0.68567097805E-01 -0.21231631610E-01 -0.10018175214E+00  0.12324314855E+00  0.51100000000E-03 0. -1.
</event>
<event>
 8    1  0.1022673E+005  0.1043930E+01  0.7957747E-01            NaN
         13   -1    0    0    0    0  0.00000000000E+00  0.00000000000E+00  0.74505805969E-08  0.10566000000E+00  0.10566000000E+00 0. -1.
     999900   -1    0    0    0    0 -0.00000000000E+00 -0.00000000000E+00 -0.74505805969E-08  0.93827000000E+00  0.93827000000E+00 0.  1.
     999902    2    1    2    0    0 -0.13223695321E-01  0.18660449066E-01  0.66813183641E-02  0.10201031561E+01  0.10198248529E+01 0.  0.
     999903    2    3    3    0    0  0.47356388401E-01 -0.11024963998E+00 -0.38092819985E-01  0.12752683939E+00  0.20357337541E-01 0.  0.
         14    1    1    2    0    0  0.13223695321E-01 -0.18660449066E-01 -0.66813183641E-02  0.23826843945E-01  0.00000000000E+00 0.  1.
     999901    1    3    3    0    0 -0.60580083722E-01  0.12891008905E+00  0.44774138349E-01  0.89257631666E+00  0.88000000000E+00 0. -1.
        -11    1    4    4    0    0  0.16256775230E-01 -0.58458467321E-01 -0.25476229339E-01  0.65810139984E-01  0.51100000000E-03 0. -1.
         11    1    4    4    0    0  0.31099613171E-01 -0.51791172664E-01 -0.12616590646E-01  0.61716699408E-01  0.51100000000E-03 0.  1.
</event>
<event>
 8    1  0.1022673E+005  0.1043930E+01  0.7957747E-01            NaN
         13   -1    0    0    0    0  0.00000000000E+00  0.00000000000E+00  0.74505805969E-08  0.10566000000E+00  0.10566000000E+00 0. -1.
     999900   -1    0    0    0    0 -0.00000000000E+00 -0.00000000000E+00 -0.74505805969E-08  0.93827000000E+00  0.93827000000E+00 0. -1.
     999902    2    1    2    0    0  0.71509253408E-02  0.34247608940E-02 -0.23018970485E-01  0.10195837945E+01  0.10192930767E+01 0.  0.
     999903    2    3    3    0    0 -0.62619823630E-01 -0.11105239587E+00  0.33548456604E-02  0.12903982870E+00  0.19650584244E-01 0.  0.
         14    1    1    2    0    0 -0.71509253408E-02 -0.34247608940E-02  0.23018970485E-01  0.24346205508E-01  0.00000000000E+00 0. -1.
     999901    1    3    3    0    0  0.69770748971E-01  0.11447715676E+00 -0.26373816146E-01  0.89054396579E+00  0.88000000000E+00 0. -1.
        -11    1    4    4    0    0 -0.35557840703E-01 -0.80430446875E-01 -0.93069166585E-03  0.87946257043E-01  0.51100000000E-03 0.  1.
         11    1    4    4    0    0 -0.27061982927E-01 -0.30621948996E-01  0.42855373262E-02  0.41093571656E-01  0.51100000000E-03 0. -1.
</event>
<event>
 8    1  0.1022673E+005  0.1043930E+01  0.7957747E-01            NaN
         13   -1    0    0    0    0  0.00000000000E+00  0.00000000000E+00  0.74505805969E-08  0.10566000000E+00  0.10566000000E+00 0. -1.
     999900   -1    0    0    0    0 -0.00000000000E+00 -0.00000000000E+00 -0.74505805969E-08  0.93827000000E+00  0.93827000000E+00 0.  1.
     999902    2    1    2    0    0  0.50957318628E-02 -0.22404197370E-01  0.26484310370E-02  0.10208014737E+01  0.10205394260E+01 0.  0.
     999903    2    3    3    0    0 -0.14185588131E-01 -0.13125809613E+00 -0.96504367143E-02  0.13379966831E+00  0.19475666849E-01 0.  0.
         14    1    1    2    0    0 -0.50957318628E-02  0.22404197370E-01 -0.26484310370E-02  0.23128526325E-01  0.00000000000E+00 0. -1.
     999901    1    3    3    0    0  0.19281319993E-01  0.10885389876E+00  0.12298867751E-01  0.88700180537E+00  0.88000000000E+00 0.  1.
        -11    1    4    4    0    0 -0.89469066882E-02 -0.20495764170E-01 -0.43319364857E-02  0.22784869605E-01  0.51100000000E-03 0.  1.
         11    1    4    4    0    0 -0.52386814424E-02 -0.11076233196E+00 -0.53185002286E-02  0.11101479870E+00  0.51100000000E-03 0. -1.
</event>
<event>
 8    1  0.1022673E+005  0.1043930E+01  0.7957747E-01            NaN
         13   -1    0    0    0    0  0.00000000000E+00  0.00000000000E+00  0.74505805969E-08  0.10566000000E+00  0.10566000000E+00 0.  1.
     999900   -1    0    0    0    0 -0.00000000000E+00 -0.00000000000E+00 -0.74505805969E-08  0.93827000000E+00  0.93827000000E+00 0. -1.
     999902    2    1    2    0    0 -0.21670623757E-01  0.11224579123E-01 -0.22117482265E-02  0.10194249201E+01  0.10191303493E+01 0.  0.
     999903    2    3    3    0    0 -0.59240461559E-01  0.10979607306E+00 -0.39656545705E-01  0.13233420040E+00  0.19367215393E-01 0.  0.
         14    1    1    2    0    0  0.21670623757E-01 -0.11224579123E-01  0.22117482265E-02  0.24505079897E-01  0.00000000000E+00 0.  1.
     999901    1    3    3    0    0  0.37569837801E-01 -0.98571493939E-01  0.37444797478E-01  0.88709071971E+00  0.88000000000E+00 0. -1.
        -11    1    4    4    0    0 -0.58599347142E-01  0.97114516091E-01 -0.33900469638E-01  0.11838334209E+00  0.51100000000E-03 0.  1.
         11    1    4    4    0    0 -0.64111441668E-03  0.12681556971E-01 -0.57560760670E-02  0.13950858310E-01  0.51100000000E-03 0. -1.
</event>
<event>
 8    1  0.1022673E+005  0.1043930E+01  0.7957747E-01            NaN
         13   -1    0    0    0    0  0.00000000000E+00  0.00000000000E+00  0.74505805969E-08  0.10566000000E+00  0.10566000000E+00 0.  1.
     999900   -1    0    0    0    0 -0.00000000000E+00 -0.00000000000E+00 -0.74505805969E-08  0.93827000000E+00  0.93827000000E+00 0.  1.
     999902    2    1    2    0    0 -0.23324601630E-01  0.53943123410E-02  0.15941992064E-01  0.10151674765E+01  0.10147599335E+01 0.  0.
     999903    2    3    3    0    0  0.99685707433E-01 -0.68543496489E-01 -0.10868502954E-01  0.12313769093E+00  0.20231544522E-01 0.  0.
         14    1    1    2    0    0  0.23324601630E-01 -0.53943123410E-02 -0.15941992064E-01  0.28762523495E-01  0.00000000000E+00 0. -1.
     999901    1    3    3    0    0 -0.12301030906E+00  0.73937808830E-01  0.26810495018E-01  0.89202978558E+00  0.88000000000E+00 0.  1.
        -11    1    4    4    0    0  0.23518460265E-01 -0.11392422320E-01  0.49640428881E-02  0.26604663169E-01  0.51100000000E-03 0. -1.
         11    1    4    4    0    0  0.76167247168E-01 -0.57151074169E-01 -0.15832545842E-01  0.96533027761E-01  0.51100000000E-03 0.  1.
</event>
<event>
 8    1  0.1022673E+005  0.1043930E+01  0.7957747E-01            NaN
         13   -1    0    0    0    0  0.00000000000E+00  0.00000000000E+00  0.74505805969E-08  0.10566000000E+00  0.10566000000E+00 0. -1.
     999900   -1    0    0    0    0 -0.00000000000E+00 -0.00000000000E+00 -0.74505805969E-08  0.93827000000E+00  0.93827000000E+00 0. -1.
     999902    2    1    2    0    0  0.28300271404E-02 -0.16499403900E-01 -0.16242037365E-01  0.10206052672E+01  0.10203387027E+01 0.  0.
     999903    2    3    3    0    0 -0.86637453044E-01 -0.34236693243E-01  0.88112724032E-01  0.12975794152E+00  0.19876413556E-01 0.  0.
         14    1    1    2    0    0 -0.28300271404E-02  0.16499403900E-01  0.16242037365E-01  0.23324732805E-01  0.00000000000E+00 0. -1.
     999901    1    3    3    0    0  0.89467480184E-01  0.17737289342E-01 -0.10435476140E+00  0.89084732568E+00  0.88000000000E+00 0. -1.
        -11    1    4    4    0    0 -0.11132100930E-01 -0.43707995453E-02  0.22008961013E-01  0.25053603446E-01  0.51100000000E-03 0.  1.
         11    1    4    4    0    0 -0.75505352114E-01 -0.29865893697E-01  0.66103763019E-01  0.10470433807E+00  0.51100000000E-03 0. -1.
</event>
<event>
 8    1  0.1022673E+005  0.1043930E+01  0.7957747E-01            NaN
         13   -1    0    0    0    0  0.00000000000E+00  0.00000000000E+00  0.74505805969E-08  0.10566000000E+00  0.10566000000E+00 0. -1.
     999900   -1    0    0    0    0 -0.00000000000E+00 -0.00000000000E+00 -0.74505805969E-08  0.93827000000E+00  0.93827000000E+00 0. -1.
     999902    2    1    2    0    0  0.21583784593E-01 -0.75594844554E-03 -0.96915353139E-02  0.10202581375E+01  0.10199834852E+01 0.  0.
     999903    2    3    3    0    0 -0.35650794409E-01  0.12295028433E+00  0.42577849529E-02  0.12965518864E+00  0.20114364272E-01 0.  0.
         14    1    1    2    0    0 -0.21583784593E-01  0.75594844554E-03  0.96915353139E-02  0.23671862456E-01  0.00000000000E+00 0. -1.
     999901    1    3    3    0    0  0.57234579002E-01 -0.12370623277E+00 -0.13949320267E-01  0.89060294890E+00  0.88000000000E+00 0.  1.
        -11    1    4    4    0    0 -0.17037511247E-01  0.52361085240E-01  0.11629258678E-01  0.56280199142E-01  0.51100000000E-03 0.  1.
         11    1    4    4    0    0 -0.18613283162E-01  0.70589199088E-01 -0.73714737249E-02  0.73374989498E-01  0.51100000000E-03 0. -1.
</event>
<event>
 8    1  0.1085479E+005  0.1043930E+01  0.7957747E-01            NaN
         13   -1    0    0    0    0  0.00000000000E+00  0.00000000000E+00  0.74505805969E-08  0.10566000000E+00  0.10566000000E+00 0. -1.
     999900   -1    0    0    0    0 -0.00000000000E+00 -0.00000000000E+00 -0.74505805969E-08  0.93827000000E+00  0.93827000000E+00 0. -1.
     999902    2    1    2    0    0  0.14981185197E-01  0.13220922389E-01 -0.12980965972E-01  0.10201028269E+01  0.10198245160E+01 0.  0.
     999903    2    3    3    0    0  0.23377031491E-01 -0.87744138875E-02 -0.12835293304E+00  0.13225994904E+00  0.19868134273E-01 0.  0.
         14    1    1    2    0    0 -0.14981185197E-01 -0.13220922389E-01  0.12980965972E-01  0.23827173065E-01  0.00000000000E+00 0. -1.
     999901    1    3    3    0    0 -0.83958462939E-02  0.21995336276E-01  0.11537196706E+00  0.88784287790E+00  0.88000000000E+00 0.  1.
        -11    1    4    4    0    0  0.13048201571E-01 -0.14926539815E-01 -0.83215447895E-01  0.85546063875E-01  0.51100000000E-03 0.  1.
         11    1    4    4    0    0  0.10328829920E-01  0.61521259275E-02 -0.45137485141E-01  0.46713885161E-01  0.51100000000E-03 0. -1.
</event>
<event>
 8    1  0.1022673E+005  0.1043930E+01  0.7957747E-01            NaN
         13   -1    0    0    0    0  0.00000000000E+00  0.00000000000E+00  0.74505805969E-08  0.10566000000E+00  0.10566000000E+00 0. -1.
     999900   -1    0    0    0    0 -0.00000000000E+00 -0.00000000000E+00 -0.74505805969E-08  0.93827000000E+00  0.93827000000E+00 0. -1.
     999902    2    1    2    0    0  0.14142462154E-01 -0.47528316790E-02 -0.17277953213E-01  0.10211018088E+01  0.10208465985E+01 0.  0.
     999903    2    3    3    0    0  0.96007679129E-01 -0.53205404258E-01  0.69991808826E-01  0.13168313526E+00  0.19831926642E-01 0.  0.
         14    1    1    2    0    0 -0.14142462154E-01  0.47528316790E-02  0.17277953213E-01  0.22828191167E-01  0.00000000000E+00 0. -1.
     999901    1    3    3    0    0 -0.81865216975E-01  0.48452572579E-01 -0.87269762038E-01  0.88941867358E+00  0.88000000000E+00 0. -1.
        -11    1    4    4    0    0  0.73871836733E-01 -0.36823711402E-01  0.42800949773E-01  0.92979655873E-01  0.51100000000E-03 0. -1.
         11    1    4    4    0    0  0.22135842396E-01 -0.16381692856E-01  0.27190859052E-01  0.38703479384E-01  0.51100000000E-03 0.  1.
</event>
<event>
 8    1  0.1022673E+005  0.1043930E+01  0.7957747E-01            NaN
         13   -1    0    0    0    0  0.00000000000E+00  0.00000000000E+00  0.74505805969E-08  0.10566000000E+00  0.10566000000E+00 0. -1.
     999900   -1    0    0    0    0 -0.00000000000E+00 -0.00000000000E+00 -0.74505805969E-08  0.93827000000E+00  0.93827000000E+00 0.  1.
     999902    2    1    2    0    0  0.22833004885E-01  0.90025562423E-03 -0.40855256652E-02  0.10207168983E+01  0.10204529084E+01 0.  0.
     999903    2    3    3    0    0  0.77759570855E-01 -0.10249332669E+00  0.24535745904E-01  0.13250164412E+00  0.20081085417E-01 0.  0.
         14    1    1    2    0    0 -0.22833004885E-01 -0.90025562423E-03  0.40855256652E-02  0.23213101736E-01  0.00000000000E+00 0.  1.
     999901    1    3    3    0    0 -0.54926565970E-01  0.10339358231E+00 -0.28621271569E-01  0.88821525415E+00  0.88000000000E+00 0.  1.
        -11    1    4    4    0    0  0.18911384738E-01 -0.39761397815E-01  0.51895446740E-02  0.44337362617E-01  0.51100000000E-03 0. -1.
         11    1    4    4    0    0  0.58848186117E-01 -0.62731928873E-01  0.19346201230E-01  0.88164281500E-01  0.51100000000E-03 0.  1.
</event>
<event>
 8    1  0.1022673E+005  0.1043930E+01  0.7957747E-01            NaN
         13   -1    0    0    0    0  0.00000000000E+00  0.00000000000E+00  0.74505805969E-08  0.10566000000E+00  0.10566000000E+00 0. -1.
     999900   -1    0    0    0    0 -0.00000000000E+00 -0.00000000000E+00 -0.74505805969E-08  0.93827000000E+00  0.93827000000E+00 0. -1.
     999902    2    1    2    0    0 -0.17846389849E-01  0.10133808504E-01 -0.12644303775E-01  0.10198246868E+01  0.10195397617E+01 0.  0.
     999903    2    3    3    0    0 -0.25628721261E-01  0.11454012689E+00 -0.58523993072E-01  0.13243176940E+00  0.18353303793E-01 0.  0.
         14    1    1    2    0    0  0.17846389849E-01 -0.10133808504E-01  0.12644303775E-01  0.24105313177E-01  0.00000000000E+00 0. -1.
     999901    1    3    3    0    0  0.77823314120E-02 -0.10440631839E+00  0.45879689298E-01  0.88739291742E+00  0.88000000000E+00 0.  1.
        -11    1    4    4    0    0 -0.16792185367E-01  0.82527389113E-01 -0.32642620409E-01  0.90324687829E-01  0.51100000000E-03 0. -1.
         11    1    4    4    0    0 -0.88365358939E-02  0.32012737776E-01 -0.25881372663E-01  0.42107081571E-01  0.51100000000E-03 0.  1.
</event>
<event>
 8    1  0.1022673E+005  0.1043930E+01  0.7957747E-01            NaN
         13   -1    0    0    0    0  0.00000000000E+00  0.00000000000E+00  0.74505805969E-08  0.10566000000E+00  0.10566000000E+00 0. -1.
     999900   -1    0    0    0    0 -0.00000000000E+00 -0.00000000000E+00 -0.74505805969E-08  0.93827000000E+00  0.93827000000E+00 0. -1.
     999902    2    1    2    0    0  0.17773717279E-01  0.15453572455E-01  0.68519773330E-02  0.10194010881E+01  0.10191059370E+01 0.  0.
     999903    2    3    3    0    0  0.10384375620E+00  0.14278705418E-01 -0.74325469659E-01  0.13148261781E+00  0.27856708636E-01 0.  0.
         14    1    1    2    0    0 -0.17773717279E-01 -0.15453572455E-01 -0.68519773330E-02  0.24528911939E-01  0.00000000000E+00 0.  1.
     999901    1    3    3    0    0 -0.86070038921E-01  0.11748670364E-02  0.81177446992E-01  0.88791847025E+00  0.88000000000E+00 0. -1.
        -11    1    4    4    0    0  0.74906425461E-01  0.17629514502E-01 -0.65455949766E-01  0.10102729749E+00  0.51100000000E-03 0. -1.
         11    1    4    4    0    0  0.28937330740E-01 -0.33508090832E-02 -0.88695198930E-02  0.30455320323E-01  0.51100000000E-03 0.  1.
</event>
<event>
 8    1  0.1022673E+005  0.1043930E+01  0.7957747E-01            NaN
         13   -1    0    0    0    0  0.00000000000E+00  0.00000000000E+00  0.74505805969E-08  0.10566000000E+00  0.10566000000E+00 0. -1.
     999900   -1    0    0    0    0 -0.00000000000E+00 -0.00000000000E+00 -0.74505805969E-08  0.93827000000E+00  0.93827000000E+00 0.  1.
     999902    2    1    2    0    0 -0.21400974963E-01  0.62380368248E-03  0.55865937081E-02  0.10218030732E+01  0.10215634682E+01 0.  0.
     999903    2    3    3    0    0  0.63120061702E-01 -0.31812565998E-01  0.10891307530E+00  0.13114472932E+00  0.18458074450E-01 0.  0.
         14    1    1    2    0    0  0.21400974963E-01 -0.62380368248E-03 -0.55865937081E-02  0.22126926801E-01  0.00000000000E+00 0.  1.
     999901    1    3    3    0    0 -0.84521036665E-01  0.32436369681E-01 -0.10332648160E+00  0.89065834388E+00  0.88000000000E+00 0.  1.
        -11    1    4    4    0    0  0.51651820750E-01 -0.25755819007E-01  0.73675991281E-01  0.93593192123E-01  0.51100000000E-03 0.  1.
         11    1    4    4    0    0  0.11468240952E-01 -0.60567469915E-02  0.35237084023E-01  0.37551537200E-01  0.51100000000E-03 0. -1.
</event>
<event>
 8    1  0.1022673E+005  0.1043930E+01  0.7957747E-01            NaN
         13   -1    0    0    0    0  0.00000000000E+00  0.00000000000E+00  0.74505805969E-08  0.10566000000E+00  0.10566000000E+00 0. -1.
     999900   -1    0    0    0    0 -0.00000000000E+00 -0.00000000000E+00 -0.74505805969E-08  0.93827000000E+00  0.93827000000E+00 0.  1.
     999902    2    1    2    0    0  0.23124958274E-01 -0.49389200457E-02  0.63494070692E-02  0.10194458909E+01  0.10191518302E+01 0.  0.
     999903    2    3    3    0    0 -0.39902508369E-01 -0.11148527116E+00  0.49804684198E-01  0.12971955796E+00  0.18041100007E-01 0.  0.
         14    1    1    2    0    0 -0.23124958274E-01  0.49389200457E-02 -0.63494070692E-02  0.24484109061E-01  0.00000000000E+00 0. -1.
     999901    1    3    3    0    0  0.63027466644E-01  0.10654635111E+00 -0.43455277128E-01  0.88972633298E+00  0.88000000000E+00 0.  1.
        -11    1    4    4    0    0 -0.18068886137E-01 -0.60243620342E-01  0.17322713363E-01  0.65238914441E-01  0.51100000000E-03 0. -1.
         11    1    4    4    0    0 -0.21833622233E-01 -0.51241650817E-01  0.32481970834E-01  0.64480643518E-01  0.51100000000E-03 0.  1.
</event>
<event>
 8    1  0.1022673E+005  0.1043930E+01  0.7957747E-01            NaN
         13   -1    0    0    0    0  0.00000000000E+00  0.00000000000E+00  0.74505805969E-08  0.10566000000E+00  0.10566000000E+00 0. -1.
     999900   -1    0    0    0    0 -0.00000000000E+00 -0.00000000000E+00 -0.74505805969E-08  0.93827000000E+00  0.93827000000E+00 0.  1.
     999902    2    1    2    0    0  0.87918178926E-02  0.15621804349E-01 -0.15678546501E-01  0.10201150120E+01  0.10198369890E+01 0.  0.
     999903    2    3    3    0    0 -0.34698165443E-01 -0.10878114829E+00 -0.58586229095E-01  0.12926791934E+00  0.15509604185E-01 0.  0.
         14    1    1    2    0    0 -0.87918178926E-02 -0.15621804349E-01  0.15678546501E-01  0.23814987998E-01  0.00000000000E+00 0.  1.
     999901    1    3    3    0    0  0.43489983335E-01  0.12440295264E+00  0.42907682594E-01  0.89084709266E+00  0.88000000000E+00 0. -1.
        -11    1    4    4    0    0 -0.98701033700E-03 -0.13196153825E-01 -0.11364750077E-01  0.17450826069E-01  0.51100000000E-03 0. -1.
         11    1    4    4    0    0 -0.33711155106E-01 -0.95584994469E-01 -0.47221479018E-01  0.11181709327E+00  0.51100000000E-03 0.  1.
</event>
<event>
 8    1  0.1022673E+005  0.1043930E+01  0.7957747E-01            NaN
         13   -1    0    0    0    0  0.00000000000E+00  0.00000000000E+00  0.74505805969E-08  0.10566000000E+00  0.10566000000E+00 0. -1.
     999900   -1    0    0    0    0 -0.00000000000E+00 -0.00000000000E+00 -0.74505805969E-08  0.93827000000E+00  0.93827000000E+00 0. -1.
     999902    2    1    2    0    0  0.12962078912E-01  0.18448212544E-01 -0.49193376225E-02  0.10208529136E+01  0.10205920435E+01 0.  0.
     999903    2    3    3    0    0 -0.41101515562E-01 -0.87407210696E-01  0.82481011097E-01  0.12857097167E+00  0.19950501268E-01 0.  0.
         14    1    1    2    0    0 -0.12962078912E-01 -0.18448212544E-01  0.49193376225E-02  0.23077086437E-01  0.00000000000E+00 0. -1.
     999901    1    3    3    0    0  0.54063594474E-01  0.10585542324E+00 -0.87400348719E-01  0.89228194190E+00  0.88000000000E+00 0. -1.
        -11    1    4    4    0    0 -0.48336590066E-03 -0.10754915360E-01  0.15929460225E-01  0.19233061926E-01  0.51100000000E-03 0. -1.
         11    1    4    4    0    0 -0.40618149661E-01 -0.76652295336E-01  0.66551550871E-01  0.10933790974E+00  0.51100000000E-03 0.  1.
</event>
<event>
 8    1  0.1022673E+005  0.1043930E+01  0.7957747E-01            NaN
         13   -1    0    0    0    0  0.00000000000E+00  0.00000000000E+00  0.74505805969E-08  0.10566000000E+00  0.10566000000E+00 0. -1.
     999900   -1    0    0    0    0 -0.00000000000E+00 -0.00000000000E+00 -0.74505805969E-08  0.93827000000E+00  0.93827000000E+00 0.  1.
     999902    2    1    2    0    0 -0.11170456663E-01 -0.17132187458E-01  0.12447258847E-01  0.10199878781E+01  0.10197068433E+01 0.  0.
     999903    2    3    3    0    0 -0.61179645871E-01 -0.11636642761E+00  0.58343697899E-03  0.13292017847E+00  0.19579042408E-01 0.  0.
         14    1    1    2    0    0  0.11170456663E-01  0.17132187458E-01 -0.12447258847E-01  0.23942121918E-01  0.00000000000E+00 0.  1.
     999901    1    3    3    0    0  0.50009189208E-01  0.99234240155E-01  0.11863821868E-01  0.88706769961E+00  0.88000000000E+00 0.  1.
        -11    1    4    4    0    0 -0.41223410971E-01 -0.74393282683E-01 -0.87898998761E-02  0.85505868695E-01  0.51100000000E-03 0. -1.
         11    1    4    4    0    0 -0.19956234899E-01 -0.41973144930E-01  0.93733368550E-02  0.47414309776E-01  0.51100000000E-03 0.  1.
</event>
<event>
 7    1  0.1022673E+005  0.1043930E+01  0.7957747E-01            NaN
         13   -1    0    0    0    0  0.00000000000E+00  0.00000000000E+00  0.74505805969E-08  0.10566000000E+00  0.10566000000E+00 0.  1.
     999900   -1    0    0    0    0 -0.00000000000E+00 -0.00000000000E+00 -0.74505805969E-08  0.93827000000E+00  0.93827000000E+00 0. -1.
     999903    2    1    2    0    0  0.90618697420E-01  0.33639402063E-01  0.66630425116E-01  0.11900237591E+00  0.19457497990E-01 0.  0.
         14    1    1    2    0    0 -0.13816792536E-01 -0.54777336112E-02 -0.37851802905E-01  0.40665320663E-01  0.00000000000E+00 0. -1.
     999901    1    1    2    0    0 -0.76801904885E-01 -0.28161668451E-01 -0.28778622211E-01  0.88426230343E+00  0.88000000000E+00 0. -1.
        -11    1    3    3    0    0  0.46253098241E-01  0.24954645394E-01  0.28087614680E-01  0.59592437801E-01  0.51100000000E-03 0. -1.
         11    1    3    3    0    0  0.44365599179E-01  0.86847566686E-02  0.38542810436E-01  0.59409938110E-01  0.51100000000E-03 0.  1.
</event>
<event>
 8    1  0.1022673E+005  0.1043930E+01  0.7957747E-01            NaN
         13   -1    0    0    0    0  0.00000000000E+00  0.00000000000E+00  0.74505805969E-08  0.10566000000E+00  0.10566000000E+00 0. -1.
     999900   -1    0    0    0    0 -0.00000000000E+00 -0.00000000000E+00 -0.74505805969E-08  0.93827000000E+00  0.93827000000E+00 0. -1.
     999902    2    1    2    0    0 -0.10453046737E-01 -0.20761262983E-01  0.10780716552E-02  0.10206607399E+01  0.10203954564E+01 0.  0.
     999903    2    3    3    0    0 -0.73544423109E-01  0.10489466802E+00  0.51860339685E-02  0.12948914581E+00  0.18134783832E-01 0.  0.
         14    1    1    2    0    0  0.10453046737E-01  0.20761262983E-01 -0.10780716552E-02  0.23269260092E-01  0.00000000000E+00 0.  1.
     999901    1    3    3    0    0  0.63091376372E-01 -0.12565593101E+00 -0.41079623134E-02  0.89117159410E+00  0.88000000000E+00 0.  1.
        -11    1    4    4    0    0 -0.44118751307E-01  0.47172193568E-01  0.29990327987E-02  0.64660152966E-01  0.51100000000E-03 0.  1.
         11    1    4    4    0    0 -0.29425671802E-01  0.57722474456E-01  0.21870011698E-02  0.64828992846E-01  0.51100000000E-03 0. -1.
</event>
<event>
 8    1  0.1022673E+005  0.1043930E+01  0.7957747E-01            NaN
         13   -1    0    0    0    0  0.00000000000E+00  0.00000000000E+00  0.74505805969E-08  0.10566000000E+00  0.10566000000E+00 0. -1.
     999900   -1    0    0    0    0 -0.00000000000E+00 -0.00000000000E+00 -0.74505805969E-08  0.93827000000E+00  0.93827000000E+00 0.  1.
     999902    2    1    2    0    0 -0.22414037378E-01 -0.54853300679E-02  0.62327717226E-02  0.10200275867E+01  0.10197474944E+01 0.  0.
     999903    2    3    3    0    0 -0.11711297551E+00 -0.44790516768E-01 -0.39200713046E-01  0.13291035200E+00  0.20169936552E-01 0.  0.
         14    1    1    2    0    0  0.22414037378E-01  0.54853300679E-02 -0.62327717226E-02  0.23902413286E-01  0.00000000000E+00 0.  1.
     999901    1    3    3    0    0  0.94698938133E-01  0.39305186700E-01  0.45433484769E-01  0.88711723471E+00  0.88000000000E+00 0.  1.
        -11    1    4    4    0    0 -0.46842963461E-01 -0.75560572475E-02 -0.13518292789E-01  0.49339260106E-01  0.51100000000E-03 0.  1.
         11    1    4    4    0    0 -0.70270012050E-01 -0.37234459521E-01 -0.25682420257E-01  0.83571091896E-01  0.51100000000E-03 0. -1.
</event>
<event>
 8    1  0.1022673E+005  0.1043930E+01  0.7957747E-01            NaN
         13   -1    0    0    0    0  0.00000000000E+00  0.00000000000E+00  0.74505805969E-08  0.10566000000E+00  0.10566000000E+00 0. -1.
     999900   -1    0    0    0    0 -0.00000000000E+00 -0.00000000000E+00 -0.74505805969E-08  0.93827000000E+00  0.93827000000E+00 0. -1.
     999902    2    1    2    0    0 -0.68636582487E-02  0.11007312723E-01 -0.22965453789E-01  0.10175542004E+01  0.10172123023E+01 0.  0.
     999903    2    3    3    0    0  0.11942854389E+00  0.27416049508E-01 -0.33126571902E-01  0.12832857362E+00  0.18868920861E-01 0.  0.
         14    1    1    2    0    0  0.68636582487E-02 -0.11007312723E-01  0.22965453789E-01  0.26375799622E-01  0.00000000000E+00 0. -1.
     999901    1    3    3    0    0 -0.12629220214E+00 -0.16408736784E-01  0.10161118113E-01  0.88922562676E+00  0.88000000000E+00 0. -1.
        -11    1    4    4    0    0  0.44833475790E-01  0.19671851101E-01 -0.11973958304E-01  0.50404950904E-01  0.51100000000E-03 0. -1.
         11    1    4    4    0    0  0.74595068101E-01  0.77441984065E-02 -0.21152613598E-01  0.77923622715E-01  0.51100000000E-03 0.  1.
</event>
<event>
 8    1  0.1022673E+005  0.1043930E+01  0.7957747E-01            NaN
         13   -1    0    0    0    0  0.00000000000E+00  0.00000000000E+00  0.74505805969E-08  0.10566000000E+00  0.10566000000E+00 0.  1.
     999900   -1    0    0    0    0 -0.00000000000E+00 -0.00000000000E+00 -0.74505805969E-08  0.93827000000E+00  0.93827000000E+00 0. -1.
     999902    2    1    2    0    0  0.98116023707E-02  0.15467702509E-01  0.14926238008E-01  0.10203014168E+01  0.10200277796E+01 0.  0.
     999903    2    3    3    0    0 -0.98147567550E-01 -0.71269844041E-01  0.39840397307E-01  0.12912281537E+00  0.19316016821E-01 0.  0.
         14    1    1    2    0    0 -0.98116023707E-02 -0.15467702509E-01 -0.14926238008E-01  0.23628583179E-01  0.00000000000E+00 0. -1.
     999901    1    3    3    0    0  0.10795916992E+00  0.86737546550E-01 -0.24914159299E-01  0.89117860145E+00  0.88000000000E+00 0. -1.
        -11    1    4    4    0    0 -0.54731472381E-01 -0.42849098297E-01  0.13064829933E-01  0.70728567043E-01  0.51100000000E-03 0. -1.
         11    1    4    4    0    0 -0.43416095169E-01 -0.28420745744E-01  0.26775567374E-01  0.58394248326E-01  0.51100000000E-03 0.  1.
</event>
<event>
 8    1  0.1022673E+005  0.1043930E+01  0.7957747E-01            NaN
         13   -1    0    0    0    0  0.00000000000E+00  0.00000000000E+00  0.74505805969E-08  0.10566000000E+00  0.10566000000E+00 0. -1.
     999900   -1    0    0    0    0 -0.00000000000E+00 -0.00000000000E+00 -0.74505805969E-08  0.93827000000E+00  0.93827000000E+00 0.  1.
     999902    2    1    2    0    0  0.77039775932E-02  0.62641689117E-02  0.24527361005E-01  0.10174690378E+01  0.10171248991E+01 0.  0.
     999903    2    3    3    0    0 -0.89085347967E-01  0.50756411275E-01 -0.69793469869E-01  0.12604088460E+00  0.22422391629E-01 0.  0.
         14    1    1    2    0    0 -0.77039775932E-02 -0.62641689117E-02 -0.24527361005E-01  0.26460962205E-01  0.00000000000E+00 0. -1.
     999901    1    3    3    0    0  0.96789325560E-01 -0.44492242363E-01  0.94320830875E-01  0.89142815320E+00  0.88000000000E+00 0. -1.
        -11    1    4    4    0    0 -0.39499742923E-01  0.28582545371E-01 -0.44919948477E-01  0.66296715477E-01  0.51100000000E-03 0. -1.
         11    1    4    4    0    0 -0.49585605044E-01  0.22173865904E-01 -0.24873521392E-01  0.59744169122E-01  0.51100000000E-03 0.  1.
</event>
<event>
 7    1  0.1022673E+005  0.1043930E+01  0.7957747E-01            NaN
         13   -1    0    0    0    0  0.00000000000E+00  0.00000000000E+00  0.74505805969E-08  0.10566000000E+00  0.10566000000E+00 0. -1.
     999900   -1    0    0    0    0 -0.00000000000E+00 -0.00000000000E+00 -0.74505805969E-08  0.93827000000E+00  0.93827000000E+00 0. -1.
     999903    2    1    2    0    0  0.62533546506E-01 -0.83788150971E-01  0.48338667019E-01  0.11698594085E+00  0.20449570777E-01 0.  0.
         14    1    1    2    0    0 -0.12692444829E-01 -0.14342051464E-01 -0.35104824888E-01  0.39989265139E-01  0.00000000000E+00 0.  1.
     999901    1    1    2    0    0 -0.49841101677E-01  0.98130202435E-01 -0.13233842130E-01  0.88695479401E+00  0.88000000000E+00 0.  1.
        -11    1    3    3    0    0  0.34998105598E-01 -0.48346541538E-01  0.38529807673E-01  0.71042682061E-01  0.51100000000E-03 0. -1.
         11    1    3    3    0    0  0.27535440908E-01 -0.35441609433E-01  0.98088593457E-02  0.45943258786E-01  0.51100000000E-03 0.  1.
</event>
<event>
 8    1  0.1022673E+005  0.1043930E+01  0.7957747E-01            NaN
         13   -1    0    0    0    0  0.00000000000E+00  0.00000000000E+00  0.74505805969E-08  0.10566000000E+00  0.10566000000E+00 0. -1.
     999900   -1    0    0    0    0 -0.00000000000E+00 -0.00000000000E+00 -0.74505805969E-08  0.93827000000E+00  0.93827000000E+00 0. -1.
     999902    2    1    2    0    0  0.15520054578E-01  0.94627170854E-02 -0.11693533311E-01  0.10223162583E+01  0.10220877546E+01 0.  0.
     999903    2    3    3    0    0  0.23863278751E-01 -0.25806091313E-01  0.12467704933E+00  0.13107530657E+00  0.20023959180E-01 0.  0.
         14    1    1    2    0    0 -0.15520054578E-01 -0.94627170854E-02  0.11693533311E-01  0.21613741694E-01  0.00000000000E+00 0. -1.
     999901    1    3    3    0    0 -0.83432241730E-02  0.35268808399E-01 -0.13637058264E+00  0.89124095173E+00  0.88000000000E+00 0. -1.
        -11    1    4    4    0    0 -0.13969502624E-02  0.21048170159E-02  0.51421064983E-02  0.57518783841E-02  0.51100000000E-03 0. -1.
         11    1    4    4    0    0  0.25260229014E-01 -0.27910908329E-01  0.11953494283E+00  0.12532342819E+00  0.51100000000E-03 0.  1.
</event>
<event>
 8    1  0.1022673E+005  0.1043930E+01  0.7957747E-01            NaN
         13   -1    0    0    0    0  0.00000000000E+00  0.00000000000E+00  0.74505805969E-08  0.10566000000E+00  0.10566000000E+00 0.  1.
     999900   -1    0    0    0    0 -0.00000000000E+00 -0.00000000000E+00 -0.74505805969E-08  0.93827000000E+00  0.93827000000E+00 0. -1.
     999902    2    1    2    0    0 -0.13177062375E-01  0.68722952428E-02 -0.18094960073E-01  0.10205143857E+01  0.10202457157E+01 0.  0.
     999903    2    3    3    0    0  0.38258626462E-01 -0.87759866877E-01 -0.87621957816E-01  0.13122541148E+00  0.19416085928E-01 0.  0.
         14    1    1    2    0    0  0.13177062375E-01 -0.68722952428E-02  0.18094960073E-01  0.23415614337E-01  0.00000000000E+00 0.  1.
     999901    1    3    3    0    0 -0.51435688837E-01  0.94632162120E-01  0.69526997743E-01  0.88928897419E+00  0.88000000000E+00 0.  1.
        -11    1    4    4    0    0  0.31917938031E-01 -0.73964795143E-01 -0.82204330628E-01  0.11509717105E+00  0.51100000000E-03 0.  1.
         11    1    4    4    0    0  0.63406884306E-02 -0.13795071735E-01 -0.54176271881E-02  0.16128240428E-01  0.51100000000E-03 0. -1.
</event>
<event>
 8    1  0.1022673E+005  0.1043930E+01  0.7957747E-01            NaN
         13   -1    0    0    0    0  0.00000000000E+00  0.00000000000E+00  0.74505805969E-08  0.10566000000E+00  0.10566000000E+00 0.  1.
     999900   -1    0    0    0    0 -0.00000000000E+00 -0.00000000000E+00 -0.74505805969E-08  0.93827000000E+00  0.93827000000E+00 0. -1.
     999902    2    1    2    0    0  0.17523058929E-01 -0.41370004675E-02 -0.17056509114E-01  0.10191288534E+01  0.10188270329E+01 0.  0.
     999903    2    3    3    0    0  0.61727743041E-01 -0.65723567894E-01  0.90645724772E-01  0.12932734155E+00  0.19468236094E-01 0.  0.
         14    1    1    2    0    0 -0.17523058929E-01  0.41370004675E-02  0.17056509114E-01  0.24801146551E-01  0.00000000000E+00 0. -1.
     999901    1    3    3    0    0 -0.44204684112E-01  0.61586567427E-01 -0.10770223389E+00  0.88980151189E+00  0.88000000000E+00 0. -1.
        -11    1    4    4    0    0  0.46713061119E-01 -0.43773339234E-01  0.52338829903E-01  0.82691169682E-01  0.51100000000E-03 0. -1.
         11    1    4    4    0    0  0.15014681922E-01 -0.21950228660E-01  0.38306894869E-01  0.46636171872E-01  0.51100000000E-03 0.  1.
</event>
<event>
 8    1  0.1022673E+005  0.1043930E+01  0.7957747E-01            NaN
         13   -1    0    0    0    0  0.00000000000E+00  0.00000000000E+00  0.74505805969E-08  0.10566000000E+00  0.10566000000E+00 0.  1.
     999900   -1    0    0    0    0 -0.00000000000E+00 -0.00000000000E+00 -0.74505805969E-08  0.93827000000E+00  0.93827000000E+00 0.  1.
     999902    2    1    2    0    0 -0.11470868507E-01 -0.79802632615E-02 -0.19537620504E-01  0.10199095079E+01  0.10196266083E+01 0.  0.
     999903    2    3    3    0    0 -0.15267861586E-01 -0.84727680941E-01  0.94251113485E-01  0.12926229420E+00  0.20336685918E-01 0.  0.
         14    1    1    2    0    0  0.11470868507E-01  0.79802632615E-02  0.19537620504E-01  0.24020492105E-01  0.00000000000E+00 0.  1.
     999901    1    3    3    0    0  0.37969930789E-02  0.76747417679E-01 -0.11378873399E+00  0.89064721369E+00  0.88000000000E+00 0.  1.
        -11    1    4    4    0    0 -0.16576344244E-01 -0.43121722629E-01  0.57239808974E-01  0.73558921984E-01  0.51100000000E-03 0.  1.
         11    1    4    4    0    0  0.13084826577E-02 -0.41605958311E-01  0.37011304511E-01  0.55703372218E-01  0.51100000000E-03 0. -1.
</event>
<event>
 7    1  0.1022673E+005  0.1043930E+01  0.7957747E-01            NaN
         13   -1    0    0    0    0  0.00000000000E+00  0.00000000000E+00  0.74505805969E-08  0.10566000000E+00  0.10566000000E+00 0. -1.
     999900   -1    0    0    0    0 -0.00000000000E+00 -0.00000000000E+00 -0.74505805969E-08  0.93827000000E+00  0.93827000000E+00 0. -1.
     999903    2    1    2    0    0 -0.20114409950E-01 -0.93260988939E-01 -0.93061189821E-02  0.10073489246E+00  0.30963093561E-01 0.  0.
         14    1    1    2    0    0  0.44999333829E-01  0.36656059384E-01  0.18692297074E-01  0.60975476255E-01  0.00000000000E+00 0. -1.
     999901    1    1    2    0    0 -0.24884923879E-01  0.56604929555E-01 -0.93861780922E-02  0.88221963129E+00  0.88000000000E+00 0. -1.
        -11    1    3    3    0    0  0.71048495402E-02 -0.28960767444E-01  0.24572457334E-02  0.29924974779E-01  0.51100000000E-03 0. -1.
         11    1    3    3    0    0 -0.27219259491E-01 -0.64300221495E-01 -0.11763364716E-01  0.70809917680E-01  0.51100000000E-03 0.  1.
</event>
<event>
 8    1  0.1022673E+005  0.1043930E+01  0.7957747E-01            NaN
         13   -1    0    0    0    0  0.00000000000E+00  0.00000000000E+00  0.74505805969E-08  0.10566000000E+00  0.10566000000E+00 0. -1.
     999900   -1    0    0    0    0 -0.00000000000E+00 -0.00000000000E+00 -0.74505805969E-08  0.93827000000E+00  0.93827000000E+00 0. -1.
     999902    2    1    2    0    0 -0.16526271264E-02 -0.20790998728E-01 -0.45987668264E-02  0.10225724379E+01  0.10223493753E+01 0.  0.
     999903    2    3    3    0    0 -0.85142864301E-01  0.32536661948E-01  0.92976976552E-01  0.13165409996E+00  0.19497234571E-01 0.  0.
         14    1    1    2    0    0  0.16526271264E-02  0.20790998728E-01  0.45987668264E-02  0.21357562146E-01  0.00000000000E+00 0.  1.
     999901    1    3    3    0    0  0.83490237175E-01 -0.53327660676E-01 -0.97575743378E-01  0.89091833789E+00  0.88000000000E+00 0. -1.
        -11    1    4    4    0    0 -0.70743821030E-01  0.19938896012E-01  0.79336939076E-01  0.10815201714E+00  0.51100000000E-03 0. -1.
         11    1    4    4    0    0 -0.14399043271E-01  0.12597765936E-01  0.13640037476E-01  0.23502082823E-01  0.51100000000E-03 0.  1.
</event>
<event>
 8    1  0.1022673E+005  0.1043930E+01  0.7957747E-01            NaN
         13   -1    0    0    0    0  0.00000000000E+00  0.00000000000E+00  0.74505805969E-08  0.10566000000E+00  0.10566000000E+00 0. -1.
     999900   -1    0    0    0    0 -0.00000000000E+00 -0.00000000000E+00 -0.74505805969E-08  0.93827000000E+00  0.93827000000E+00 0. -1.
     999902    2    1    2    0    0  0.18004033695E-01 -0.89798694817E-02  0.85216878626E-02  0.10220804588E+01  0.10218468877E+01 0.  0.
     999903    2    3    3    0    0 -0.12126906173E+00  0.39039769502E-01 -0.12710326019E-01  0.12958189903E+00  0.19990678669E-01 0.  0.
         14    1    1    2    0    0 -0.18004033695E-01  0.89798694817E-02 -0.85216878626E-02  0.21849541167E-01  0.00000000000E+00 0. -1.
     999901    1    3    3    0    0  0.13927309542E+00 -0.48019638984E-01  0.21232013881E-01  0.89249855980E+00  0.88000000000E+00 0.  1.
        -11    1    4    4    0    0 -0.55681129822E-01  0.20228226918E-01  0.38434730451E-02  0.59368365218E-01  0.51100000000E-03 0. -1.
         11    1    4    4    0    0 -0.65587931905E-01  0.18811542584E-01 -0.16553799064E-01  0.70213533812E-01  0.51100000000E-03 0.  1.
</event>
<event>
 8    1  0.1022673E+005  0.1043930E+01  0.7957747E-01            NaN
         13   -1    0    0    0    0  0.00000000000E+00  0.00000000000E+00  0.74505805969E-08  0.10566000000E+00  0.10566000000E+00 0.  1.
     999900   -1    0    0    0    0 -0.00000000000E+00 -0.00000000000E+00 -0.74505805969E-08  0.93827000000E+00  0.93827000000E+00 0. -1.
     999902    2    1    2    0    0 -0.10363797872E-01 -0.22717311868E-01 -0.54498802509E-03  0.10189543804E+01  0.10186482453E+01 0.  0.
     999903    2    3    3    0    0 -0.61686437499E-01 -0.49840274594E-01  0.10259350071E+00  0.13103140154E+00  0.18829026999E-01 0.  0.
         14    1    1    2    0    0  0.10363797872E-01  0.22717311868E-01  0.54498802509E-03  0.24975619647E-01  0.00000000000E+00 0. -1.
     999901    1    3    3    0    0  0.51322639627E-01  0.27122962726E-01 -0.10313848874E+00  0.88792297881E+00  0.88000000000E+00 0. -1.
        -11    1    4    4    0    0 -0.20894279468E-01 -0.25283102274E-01  0.31599756908E-01  0.45547908105E-01  0.51100000000E-03 0.  1.
         11    1    4    4    0    0 -0.40792158031E-01 -0.24557172319E-01  0.70993743806E-01  0.85483493434E-01  0.51100000000E-03 0. -1.
</event>
<event>
 8    1  0.1022673E+005  0.1043930E+01  0.7957747E-01            NaN
         13   -1    0    0    0    0  0.00000000000E+00  0.00000000000E+00  0.74505805969E-08  0.10566000000E+00  0.10566000000E+00 0. -1.
     999900   -1    0    0    0    0 -0.00000000000E+00 -0.00000000000E+00 -0.74505805969E-08  0.93827000000E+00  0.93827000000E+00 0. -1.
     999902    2    1    2    0    0  0.12072429524E-01  0.31615921941E-02  0.20053582514E-01  0.10203104024E+01  0.10200369757E+01 0.  0.
     999903    2    3    3    0    0 -0.93149717503E-01  0.77744210718E-01 -0.38760230552E-01  0.12896684807E+00  0.20225238140E-01 0.  0.
         14    1    1    2    0    0 -0.12072429524E-01 -0.31615921941E-02 -0.20053582514E-01  0.23619597614E-01  0.00000000000E+00 0.  1.
     999901    1    3    3    0    0  0.10522214703E+00 -0.74582618524E-01  0.58813813066E-01  0.89134355431E+00  0.88000000000E+00 0.  1.
        -11    1    4    4    0    0 -0.79016596060E-01  0.55836873052E-01 -0.27700386296E-01  0.10064269157E+00  0.51100000000E-03 0. -1.
         11    1    4    4    0    0 -0.14133121443E-01  0.21907337666E-01 -0.11059844256E-01  0.28324156498E-01  0.51100000000E-03 0.  1.
</event>
<event>
 8    1  0.1301180E+005  0.1043930E+01  0.7957747E-01            NaN
         13   -1    0    0    0    0  0.00000000000E+00  0.00000000000E+00  0.74505805969E-08  0.10566000000E+00  0.10566000000E+00 0. -1.
     999900   -1    0    0    0    0 -0.00000000000E+00 -0.00000000000E+00 -0.74505805969E-08  0.93827000000E+00  0.93827000000E+00 0. -1.
     999902    2    1    2    0    0  0.17954878604E-02 -0.18770738563E-01 -0.13432679657E-01  0.10207782984E+01  0.10205157193E+01 0.  0.
     999903    2    3    3    0    0 -0.76779340833E-01  0.62537709359E-02  0.10178004505E+00  0.12944547523E+00  0.21512244350E-01 0.  0.
         14    1    1    2    0    0 -0.17954878604E-02  0.18770738563E-01  0.13432679657E-01  0.23151701571E-01  0.00000000000E+00 0. -1.
     999901    1    3    3    0    0  0.78574828693E-01 -0.25024509499E-01 -0.11521272471E+00  0.89133282320E+00  0.88000000000E+00 0. -1.
        -11    1    4    4    0    0 -0.54013815966E-01  0.11040184000E-01  0.59025663914E-01  0.80769227428E-01  0.51100000000E-03 0.  1.
         11    1    4    4    0    0 -0.22765524867E-01 -0.47864130636E-02  0.42754381137E-01  0.48676247800E-01  0.51100000000E-03 0. -1.
</event>
<event>
 8    1  0.1022673E+005  0.1043930E+01  0.7957747E-01            NaN
         13   -1    0    0    0    0  0.00000000000E+00  0.00000000000E+00  0.74505805969E-08  0.10566000000E+00  0.10566000000E+00 0. -1.
     999900   -1    0    0    0    0 -0.00000000000E+00 -0.00000000000E+00 -0.74505805969E-08  0.93827000000E+00  0.93827000000E+00 0.  1.
     999902    2    1    2    0    0  0.11888992982E-03 -0.47040324891E-02  0.23264127353E-01  0.10201947587E+01  0.10199186164E+01 0.  0.
     999903    2    3    3    0    0  0.72500157268E-01  0.10537957667E+00  0.15516131774E-01  0.13035349182E+00  0.19752329029E-01 0.  0.
         14    1    1    2    0    0 -0.11888992982E-03  0.47040324891E-02 -0.23264127353E-01  0.23735241267E-01  0.00000000000E+00 0.  1.
     999901    1    3    3    0    0 -0.72381267339E-01 -0.11008360916E+00  0.77479955798E-02  0.88984126691E+00  0.88000000000E+00 0. -1.
        -11    1    4    4    0    0  0.22044777525E-01  0.27818207377E-01  0.12956284573E-01  0.37788242996E-01  0.51100000000E-03 0.  1.
         11    1    4    4    0    0  0.50455379744E-01  0.77561369290E-01  0.25598472004E-02  0.92565248824E-01  0.51100000000E-03 0. -1.
</event>
<event>
 8    1  0.1022673E+005  0.1043930E+01  0.7957747E-01            NaN
         13   -1    0    0    0    0  0.00000000000E+00  0.00000000000E+00  0.74505805969E-08  0.10566000000E+00  0.10566000000E+00 0. -1.
     999900   -1    0    0    0    0 -0.00000000000E+00 -0.00000000000E+00 -0.74505805969E-08  0.93827000000E+00  0.93827000000E+00 0. -1.
     999902    2    1    2    0    0 -0.23110954594E-01 -0.53647145221E-02 -0.42551778747E-02  0.10198259978E+01  0.10195411040E+01 0.  0.
     999903    2    3    3    0    0  0.66474803260E-01  0.88990310266E-01  0.60969163097E-01  0.12787157441E+00  0.17196682952E-01 0.  0.
         14    1    1    2    0    0  0.23110954594E-01  0.53647145221E-02  0.42551778747E-02  0.24104002217E-01  0.00000000000E+00 0. -1.
     999901    1    3    3    0    0 -0.89585757854E-01 -0.94355024788E-01 -0.65224340972E-01  0.89195442337E+00  0.88000000000E+00 0. -1.
        -11    1    4    4    0    0  0.59345904400E-01  0.77700012795E-01  0.46802335966E-01  0.10839717769E+00  0.51100000000E-03 0.  1.
         11    1    4    4    0    0  0.71288988599E-02  0.11290297470E-01  0.14166827131E-01  0.19474396727E-01  0.51100000000E-03 0. -1.
</event>
<event>
 8    1  0.1022673E+005  0.1043930E+01  0.7957747E-01            NaN
         13   -1    0    0    0    0  0.00000000000E+00  0.00000000000E+00  0.74505805969E-08  0.10566000000E+00  0.10566000000E+00 0. -1.
     999900   -1    0    0    0    0 -0.00000000000E+00 -0.00000000000E+00 -0.74505805969E-08  0.93827000000E+00  0.93827000000E+00 0. -1.
     999902    2    1    2    0    0  0.28874583119E-01  0.23464405739E-02  0.60859682323E-02  0.10143278659E+01  0.10138958197E+01 0.  0.
     999903    2    3    3    0    0 -0.62440377693E-01 -0.99330071269E-01 -0.33194200425E-01  0.12291355887E+00  0.15512065905E-01 0.  0.
         14    1    1    2    0    0 -0.28874583119E-01 -0.23464405739E-02 -0.60859682323E-02  0.29602134095E-01  0.00000000000E+00 0. -1.
     999901    1    3    3    0    0  0.91314960812E-01  0.10167651184E+00  0.39280168657E-01  0.89141430703E+00  0.88000000000E+00 0.  1.
        -11    1    4    4    0    0 -0.14935042013E-01 -0.37252902156E-01 -0.97955266354E-02  0.41316433317E-01  0.51100000000E-03 0. -1.
         11    1    4    4    0    0 -0.47505335680E-01 -0.62077169113E-01 -0.23398673790E-01  0.81597125558E-01  0.51100000000E-03 0.  1.
</event>
<event>
 8    1  0.1022673E+005  0.1043930E+01  0.7957747E-01            NaN
         13   -1    0    0    0    0  0.00000000000E+00  0.00000000000E+00  0.74505805969E-08  0.10566000000E+00  0.10566000000E+00 0.  1.
     999900   -1    0    0    0    0 -0.00000000000E+00 -0.00000000000E+00 -0.74505805969E-08  0.93827000000E+00  0.93827000000E+00 0.  1.
     999902    2    1    2    0    0 -0.14132216513E-01 -0.13182421544E-01 -0.15822994883E-01  0.10189527514E+01  0.10186465759E+01 0.  0.
     999903    2    3    3    0    0 -0.11604864910E+00  0.41863988832E-01 -0.38519092552E-01  0.13107202776E+00  0.21823690161E-01 0.  0.
         14    1    1    2    0    0  0.14132216513E-01  0.13182421544E-01  0.15822994883E-01  0.24977248615E-01  0.00000000000E+00 0.  1.
     999901    1    3    3    0    0  0.10191643259E+00 -0.55046410375E-01  0.22696097669E-01  0.88788072362E+00  0.88000000000E+00 0. -1.
        -11    1    4    4    0    0 -0.49733239344E-01  0.24722044699E-01 -0.81173468510E-02  0.56131337332E-01  0.51100000000E-03 0.  1.
         11    1    4    4    0    0 -0.66315409757E-01  0.17141944132E-01 -0.30401745701E-01  0.74940690433E-01  0.51100000000E-03 0. -1.
</event>
<event>
 8    1  0.1022673E+005  0.1043930E+01  0.7957747E-01            NaN
         13   -1    0    0    0    0  0.00000000000E+00  0.00000000000E+00  0.74505805969E-08  0.10566000000E+00  0.10566000000E+00 0. -1.
     999900   -1    0    0    0    0 -0.00000000000E+00 -0.00000000000E+00 -0.74505805969E-08  0.93827000000E+00  0.93827000000E+00 0.  1.
     999902    2    1    2    0    0 -0.63712979083E-02 -0.11865909079E-01  0.19716016751E-01  0.10200529283E+01  0.10197734366E+01 0.  0.
     999903    2    3    3    0    0 -0.46946422632E-02 -0.64291578566E-01 -0.11000417949E+00  0.12899816496E+00  0.19600008095E-01 0.  0.
         14    1    1    2    0    0  0.63712979083E-02  0.11865909079E-01 -0.19716016751E-01  0.23877071677E-01  0.00000000000E+00 0.  1.
     999901    1    3    3    0    0 -0.16766556451E-02  0.52425669487E-01  0.12972019624E+00  0.89105476336E+00  0.88000000000E+00 0. -1.
        -11    1    4    4    0    0  0.14903456235E-02 -0.81218163905E-02 -0.29507481277E-01  0.30645352076E-01  0.51100000000E-03 0. -1.
         11    1    4    4    0    0 -0.61849878867E-02 -0.56169762175E-01 -0.80496698215E-01  0.98352812886E-01  0.51100000000E-03 0.  1.
</event>
<event>
 8    1  0.1022673E+005  0.1043930E+01  0.7957747E-01            NaN
         13   -1    0    0    0    0  0.00000000000E+00  0.00000000000E+00  0.74505805969E-08  0.10566000000E+00  0.10566000000E+00 0. -1.
     999900   -1    0    0    0    0 -0.00000000000E+00 -0.00000000000E+00 -0.74505805969E-08  0.93827000000E+00  0.93827000000E+00 0.  1.
     999902    2    1    2    0    0 -0.16395757977E-02  0.96619414954E-03 -0.18868648420E-01  0.10249656220E+01  0.10247901632E+01 0.  0.
     999903    2    3    3    0    0  0.61655743339E-01  0.11519767668E+00 -0.28572221879E-01  0.13527506435E+00  0.20274017161E-01 0.  0.
         14    1    1    2    0    0  0.16395757977E-02 -0.96619414954E-03  0.18868648420E-01  0.18964378006E-01  0.00000000000E+00 0. -1.
     999901    1    3    3    0    0 -0.63295319136E-01 -0.11423148253E+00  0.97035734591E-02  0.88969055765E+00  0.88000000000E+00 0. -1.
        -11    1    4    4    0    0  0.37520919568E-01  0.75959811912E-01 -0.27908412492E-01  0.89201194161E-01  0.51100000000E-03 0.  1.
         11    1    4    4    0    0  0.24134823770E-01  0.39237864770E-01 -0.66380938698E-03  0.46073870188E-01  0.51100000000E-03 0. -1.
</event>
<event>
 8    1  0.1022673E+005  0.1043930E+01  0.7957747E-01            NaN
         13   -1    0    0    0    0  0.00000000000E+00  0.00000000000E+00  0.74505805969E-08  0.10566000000E+00  0.10566000000E+00 0.  1.
     999900   -1    0    0    0    0 -0.00000000000E+00 -0.00000000000E+00 -0.74505805969E-08  0.93827000000E+00  0.93827000000E+00 0.  1.
     999902    2    1    2    0    0  0.12376216117E-02 -0.18060052036E-01  0.16562880962E-01  0.10193937775E+01  0.10190984484E+01 0.  0.
     999903    2    3    3    0    0 -0.10300495831E+00 -0.70581099069E-01  0.35769792984E-01  0.13147830785E+00  0.20380244413E-01 0.  0.
         14    1    1    2    0    0 -0.12376216117E-02  0.18060052036E-01 -0.16562880962E-01  0.24536222459E-01  0.00000000000E+00 0. -1.
     999901    1    3    3    0    0  0.10424257992E+00  0.52521047033E-01 -0.19206912022E-01  0.88791546969E+00  0.88000000000E+00 0. -1.
        -11    1    4    4    0    0 -0.47484310718E-01 -0.44830592492E-01  0.17643232401E-01  0.67646777884E-01  0.51100000000E-03 0.  1.
         11    1    4    4    0    0 -0.55520647592E-01 -0.25750506576E-01  0.18126560584E-01  0.63831529964E-01  0.51100000000E-03 0. -1.
</event>
<event>
 8    1  0.1022673E+005  0.1043930E+01  0.7957747E-01            NaN
         13   -1    0    0    0    0  0.00000000000E+00  0.00000000000E+00  0.74505805969E-08  0.10566000000E+00  0.10566000000E+00 0. -1.
     999900   -1    0    0    0    0 -0.00000000000E+00 -0.00000000000E+00 -0.74505805969E-08  0.93827000000E+00  0.93827000000E+00 0. -1.
     999902    2    1    2    0    0 -0.23046095081E-02 -0.22211745793E-01 -0.74319567706E-02  0.10203947741E+01  0.10201233201E+01 0.  0.
     999903    2    3    3    0    0  0.12398390514E+00 -0.15558913819E-01 -0.33735247100E-01  0.13096523099E+00  0.19993406374E-01 0.  0.
         14    1    1    2    0    0  0.23046095081E-02  0.22211745793E-01  0.74319567706E-02  0.23535225888E-01  0.00000000000E+00 0. -1.
     999901    1    3    3    0    0 -0.12628851464E+00 -0.66528319740E-02  0.26303290330E-01  0.88942954313E+00  0.88000000000E+00 0. -1.
        -11    1    4    4    0    0  0.33571535438E-01  0.73711999668E-03 -0.16783098757E-01  0.37543639441E-01  0.51100000000E-03 0.  1.
         11    1    4    4    0    0  0.90412369697E-01 -0.16296033815E-01 -0.16952148343E-01  0.93421591545E-01  0.51100000000E-03 0. -1.
</event>
<event>
 8    1  0.1022673E+005  0.1043930E+01  0.7957747E-01            NaN
         13   -1    0    0    0    0  0.00000000000E+00  0.00000000000E+00  0.74505805969E-08  0.10566000000E+00  0.10566000000E+00 0.  1.
     999900   -1    0    0    0    0 -0.00000000000E+00 -0.00000000000E+00 -0.74505805969E-08  0.93827000000E+00  0.93827000000E+00 0.  1.
     999902    2    1    2    0    0 -0.16900884225E-01  0.39795907140E-02  0.19348746937E-01  0.10179328648E+01  0.10176008384E+01 0.  0.
     999903    2    3    3    0    0 -0.23713388439E-01  0.12310168165E+00  0.26793765915E-01  0.12984958546E+00  0.20655753097E-01 0.  0.
         14    1    1    2    0    0  0.16900884225E-01 -0.39795907140E-02 -0.19348746937E-01  0.25997135186E-01  0.00000000000E+00 0. -1.
     999901    1    3    3    0    0  0.68125042137E-02 -0.11912209093E+00 -0.74450189783E-02  0.88808327936E+00  0.88000000000E+00 0. -1.
        -11    1    4    4    0    0 -0.24026568847E-01  0.90812669512E-01  0.13407843816E-01  0.94890717940E-01  0.51100000000E-03 0. -1.
         11    1    4    4    0    0  0.31318040864E-03  0.32289012137E-01  0.13385922099E-01  0.34958867519E-01  0.51100000000E-03 0.  1.
</event>
<event>
 8    1  0.1022673E+005  0.1043930E+01  0.7957747E-01            NaN
         13   -1    0    0    0    0  0.00000000000E+00  0.00000000000E+00  0.74505805969E-08  0.10566000000E+00  0.10566000000E+00 0. -1.
     999900   -1    0    0    0    0 -0.00000000000E+00 -0.00000000000E+00 -0.74505805969E-08  0.93827000000E+00  0.93827000000E+00 0.  1.
     999902    2    1    2    0    0  0.22889701908E-01 -0.27550666013E-02 -0.82101887962E-02  0.10194568301E+01  0.10191630352E+01 0.  0.
     999903    2    3    3    0    0 -0.69588665786E-01  0.70751533403E-01  0.77386463075E-01  0.12744659722E+00  0.20139726675E-01 0.  0.
         14    1    1    2    0    0 -0.22889701908E-01  0.27550666013E-02  0.82101887962E-02  0.24473169910E-01  0.00000000000E+00 0. -1.
     999901    1    3    3    0    0  0.92478367693E-01 -0.73506600005E-01 -0.85596651871E-01  0.89201023287E+00  0.88000000000E+00 0.  1.
        -11    1    4    4    0    0 -0.47315641880E-01  0.50523291418E-01  0.64830845749E-01  0.94840247911E-01  0.51100000000E-03 0. -1.
         11    1    4    4    0    0 -0.22273023906E-01  0.20228241986E-01  0.12555617325E-01  0.32606349308E-01  0.51100000000E-03 0.  1.
</event>
<event>
 8    1  0.1022673E+005  0.1043930E+01  0.7957747E-01            NaN
         13   -1    0    0    0    0  0.00000000000E+00  0.00000000000E+00  0.74505805969E-08  0.10566000000E+00  0.10566000000E+00 0.  1.
     999900   -1    0    0    0    0 -0.00000000000E+00 -0.00000000000E+00 -0.74505805969E-08  0.93827000000E+00  0.93827000000E+00 0. -1.
     999902    2    1    2    0    0 -0.17006603025E-01 -0.16164312048E-01  0.15311317578E-02  0.10204171547E+01  0.10201462227E+01 0.  0.
     999903    2    3    3    0    0 -0.46850254680E-01  0.96138360816E-01  0.71216840584E-01  0.13004721365E+00  0.20072583592E-01 0.  0.
         14    1    1    2    0    0  0.17006603025E-01  0.16164312048E-01 -0.15311317578E-02  0.23512845317E-01  0.00000000000E+00 0. -1.
     999901    1    3    3    0    0  0.29843651656E-01 -0.11230267286E+00 -0.69685708826E-01  0.89036994103E+00  0.88000000000E+00 0.  1.
        -11    1    4    4    0    0 -0.15191213936E-01  0.15556247516E-01  0.95632145644E-02  0.23758914357E-01  0.51100000000E-03 0. -1.
         11    1    4    4    0    0 -0.31659040744E-01  0.80582113300E-01  0.61653626020E-01  0.10628829930E+00  0.51100000000E-03 0.  1.
</event>
<event>
 8    1  0.1022673E+005  0.1043930E+01  0.7957747E-01            NaN
         13   -1    0    0    0    0  0.00000000000E+00  0.00000000000E+00  0.74505805969E-08  0.10566000000E+00  0.10566000000E+00 0.  1.
     999900   -1    0    0    0    0 -0.00000000000E+00 -0.00000000000E+00 -0.74505805969E-08  0.93827000000E+00  0.93827000000E+00 0. -1.
     999902    2    1    2    0    0 -0.22818948369E-01  0.46929811451E-02 -0.27171053800E-02  0.10204755518E+01  0.10202059796E+01 0.  0.
     999903    2    3    3    0    0  0.11342731908E+00 -0.13954816048E-01  0.54129785453E-01  0.12798333634E+00  0.19728332513E-01 0.  0.
         14    1    1    2    0    0  0.22818948369E-01 -0.46929811451E-02  0.27171053800E-02  0.23454448157E-01  0.00000000000E+00 0.  1.
     999901    1    3    3    0    0 -0.13624626745E+00  0.18647797193E-01 -0.56846890833E-01  0.89249221550E+00  0.88000000000E+00 0. -1.
        -11    1    4    4    0    0  0.52456778848E-01 -0.19585508001E-02  0.15190144260E-01  0.54649347407E-01  0.51100000000E-03 0. -1.
         11    1    4    4    0    0  0.60970540230E-01 -0.11996265248E-01  0.38939641193E-01  0.73333988935E-01  0.51100000000E-03 0.  1.
</event>
<event>
 8    1  0.1022673E+005  0.1043930E+01  0.7957747E-01            NaN
         13   -1    0    0    0    0  0.00000000000E+00  0.00000000000E+00  0.74505805969E-08  0.10566000000E+00  0.10566000000E+00 0.  1.
     999900   -1    0    0    0    0 -0.00000000000E+00 -0.00000000000E+00 -0.74505805969E-08  0.93827000000E+00  0.93827000000E+00 0. -1.
     999902    2    1    2    0    0 -0.15895751180E-02 -0.24177405017E-01 -0.58333739228E-03  0.10196933760E+01  0.10194053007E+01 0.  0.
     999903    2    3    3    0    0  0.43735406497E-01  0.11206479555E+00  0.36503544484E-01  0.12728554992E+00  0.19944880889E-01 0.  0.
         14    1    1    2    0    0  0.15895751180E-02  0.24177405017E-01  0.58333739228E-03  0.24236624041E-01  0.00000000000E+00 0.  1.
     999901    1    3    3    0    0 -0.45324981615E-01 -0.13624220057E+00 -0.37086881876E-01  0.89240782604E+00  0.88000000000E+00 0. -1.
        -11    1    4    4    0    0  0.39996149337E-01  0.95272855317E-01  0.24187952246E-01  0.10612222706E+00  0.51100000000E-03 0.  1.
         11    1    4    4    0    0  0.37392571602E-02  0.16791940237E-01  0.12315592237E-01  0.21163322853E-01  0.51100000000E-03 0. -1.
</event>
<event>
 8    1  0.1134751E+005  0.1043930E+01  0.7957747E-01            NaN
         13   -1    0    0    0    0  0.00000000000E+00  0.00000000000E+00  0.74505805969E-08  0.10566000000E+00  0.10566000000E+00 0.  1.
     999900   -1    0    0    0    0 -0.00000000000E+00 -0.00000000000E+00 -0.74505805969E-08  0.93827000000E+00  0.93827000000E+00 0. -1.
     999902    2    1    2    0    0 -0.90870922958E-02  0.16589581179E-01 -0.13424742679E-01  0.10207348892E+01  0.10204713131E+01 0.  0.
     999903    2    3    3    0    0  0.28765845934E-01  0.39008289465E-01  0.11872105632E+00  0.12978149219E+00  0.19985643912E-01 0.  0.
         14    1    1    2    0    0  0.90870922958E-02 -0.16589581179E-01  0.13424742679E-01  0.23195110823E-01  0.00000000000E+00 0.  1.
     999901    1    3    3    0    0 -0.37852938230E-01 -0.22418708286E-01 -0.13214579900E+00  0.89095339699E+00  0.88000000000E+00 0. -1.
        -11    1    4    4    0    0  0.59473506045E-02  0.18242520303E-01  0.65579990563E-01  0.68331228655E-01  0.51100000000E-03 0. -1.
         11    1    4    4    0    0  0.22818495329E-01  0.20765769163E-01  0.53141065753E-01  0.61450263533E-01  0.51100000000E-03 0.  1.
</event>
<event>
 8    1  0.1022673E+005  0.1043930E+01  0.7957747E-01            NaN
         13   -1    0    0    0    0  0.00000000000E+00  0.00000000000E+00  0.74505805969E-08  0.10566000000E+00  0.10566000000E+00 0. -1.
     999900   -1    0    0    0    0 -0.00000000000E+00 -0.00000000000E+00 -0.74505805969E-08  0.93827000000E+00  0.93827000000E+00 0.  1.
     999902    2    1    2    0    0  0.46056089519E-02 -0.21137442390E-01  0.29845632115E-01  0.10070685722E+01  0.10063937322E+01 0.  0.
     999903    2    3    3    0    0 -0.46530680489E-01 -0.10425278355E+00  0.36969764230E-01  0.12164560360E+00  0.19928429528E-01 0.  0.
         14    1    1    2    0    0 -0.46056089519E-02  0.21137442390E-01 -0.29845632115E-01  0.36861427820E-01  0.00000000000E+00 0.  1.
     999901    1    3    3    0    0  0.51136289441E-01  0.83115341158E-01 -0.71241321142E-02  0.88542296858E+00  0.88000000000E+00 0. -1.
        -11    1    4    4    0    0 -0.15184261520E-01 -0.52351937239E-01  0.24391304029E-01  0.59720046582E-01  0.51100000000E-03 0.  1.
         11    1    4    4    0    0 -0.31346418969E-01 -0.51900846308E-01  0.12578460201E-01  0.61925557016E-01  0.51100000000E-03 0. -1.
</event>
<event>
 8    1  0.1022673E+005  0.1043930E+01  0.7957747E-01            NaN
         13   -1    0    0    0    0  0.00000000000E+00  0.00000000000E+00  0.74505805969E-08  0.10566000000E+00  0.10566000000E+00 0.  1.
     999900   -1    0    0    0    0 -0.00000000000E+00 -0.00000000000E+00 -0.74505805969E-08  0.93827000000E+00  0.93827000000E+00 0. -1.
     999902    2    1    2    0    0 -0.93523331744E-02  0.25792872645E-02 -0.25615773706E-01  0.10165386378E+01  0.10161695309E+01 0.  0.
     999903    2    3    3    0    0 -0.32389926278E-01  0.37799218874E-01  0.11262782136E+00  0.12475252791E+00  0.20006968875E-01 0.  0.
         14    1    1    2    0    0  0.93523331744E-02 -0.25792872645E-02  0.25615773706E-01  0.27391362164E-01  0.00000000000E+00 0.  1.
     999901    1    3    3    0    0  0.23037593103E-01 -0.35219931610E-01 -0.13824359507E+00  0.89178610993E+00  0.88000000000E+00 0. -1.
        -11    1    4    4    0    0 -0.11907021697E-01  0.19244451311E-01  0.29723718347E-01  0.37361566152E-01  0.51100000000E-03 0.  1.
         11    1    4    4    0    0 -0.20482904581E-01  0.18554767563E-01  0.82904103015E-01  0.87390961759E-01  0.51100000000E-03 0. -1.
</event>
<event>
 8    1  0.1022673E+005  0.1043930E+01  0.7957747E-01            NaN
         13   -1    0    0    0    0  0.00000000000E+00  0.00000000000E+00  0.74505805969E-08  0.10566000000E+00  0.10566000000E+00 0. -1.
     999900   -1    0    0    0    0 -0.00000000000E+00 -0.00000000000E+00 -0.74505805969E-08  0.93827000000E+00  0.93827000000E+00 0. -1.
     999902    2    1    2    0    0  0.21102206849E-01  0.39007112181E-02 -0.93469163007E-02  0.10205230881E+01  0.10202546201E+01 0.  0.
     999903    2    3    3    0    0 -0.26597056539E-01 -0.10390097009E+00  0.69324835547E-01  0.12918383349E+00  0.19486277457E-01 0.  0.
         14    1    1    2    0    0 -0.21102206849E-01 -0.39007112181E-02  0.93469163007E-02  0.23406911933E-01  0.00000000000E+00 0. -1.
     999901    1    3    3    0    0  0.47699263387E-01  0.10780168130E+00 -0.78671751848E-01  0.89133925458E+00  0.88000000000E+00 0. -1.
        -11    1    4    4    0    0 -0.23184140327E-02 -0.13616337150E-01  0.19847128697E-02  0.13963519871E-01  0.51100000000E-03 0. -1.
         11    1    4    4    0    0 -0.24278642506E-01 -0.90284632935E-01  0.67340122677E-01  0.11522031361E+00  0.51100000000E-03 0.  1.
</event>
<event>
 8    1  0.1022673E+005  0.1043930E+01  0.7957747E-01            NaN
         13   -1    0    0    0    0  0.00000000000E+00  0.00000000000E+00  0.74505805969E-08  0.10566000000E+00  0.10566000000E+00 0. -1.
     999900   -1    0    0    0    0 -0.00000000000E+00 -0.00000000000E+00 -0.74505805969E-08  0.93827000000E+00  0.93827000000E+00 0.  1.
     999902    2    1    2    0    0  0.40682072905E-02 -0.62857474027E-02  0.22295121196E-01  0.10204112126E+01  0.10201401421E+01 0.  0.
     999903    2    3    3    0    0 -0.42800757601E-01 -0.12232539873E+00  0.93236080470E-02  0.13146230480E+00  0.19999997259E-01 0.  0.
         14    1    1    2    0    0 -0.40682072905E-02  0.62857474027E-02 -0.22295121196E-01  0.23518787386E-01  0.00000000000E+00 0.  1.
     999901    1    3    3    0    0  0.46868964891E-01  0.11603965133E+00  0.12971513149E-01  0.88894890781E+00  0.88000000000E+00 0. -1.
        -11    1    4    4    0    0 -0.14762491272E-01 -0.40426722481E-01  0.12557199464E-01  0.44835202893E-01  0.51100000000E-03 0.  1.
         11    1    4    4    0    0 -0.28038266329E-01 -0.81898676251E-01 -0.32335914173E-02  0.86627101907E-01  0.51100000000E-03 0. -1.
</event>
<event>
 8    1  0.1022673E+005  0.1043930E+01  0.7957747E-01            NaN
         13   -1    0    0    0    0  0.00000000000E+00  0.00000000000E+00  0.74505805969E-08  0.10566000000E+00  0.10566000000E+00 0.  1.
     999900   -1    0    0    0    0 -0.00000000000E+00 -0.00000000000E+00 -0.74505805969E-08  0.93827000000E+00  0.93827000000E+00 0. -1.
     999902    2    1    2    0    0  0.96386184131E-02  0.51660207413E-04  0.22208972238E-01  0.10197195873E+01  0.10194321423E+01 0.  0.
     999903    2    3    3    0    0 -0.77951772501E-01 -0.69635620084E-01 -0.71100768808E-01  0.12773578625E+00  0.18317023332E-01 0.  0.
         14    1    1    2    0    0 -0.96386184131E-02 -0.51660207413E-04 -0.22208972238E-01  0.24210412668E-01  0.00000000000E+00 0. -1.
     999901    1    3    3    0    0  0.87590390914E-01  0.69687280291E-01  0.93309741046E-01  0.89198380108E+00  0.88000000000E+00 0. -1.
        -11    1    4    4    0    0 -0.32964345440E-01 -0.19379946975E-01 -0.20321319524E-01  0.43306437896E-01  0.51100000000E-03 0.  1.
         11    1    4    4    0    0 -0.44987427061E-01 -0.50255673109E-01 -0.50779449284E-01  0.84429348356E-01  0.51100000000E-03 0. -1.
</event>
<event>
 8    1  0.1022673E+005  0.1043930E+01  0.7957747E-01            NaN
         13   -1    0    0    0    0  0.00000000000E+00  0.00000000000E+00  0.74505805969E-08  0.10566000000E+00  0.10566000000E+00 0.  1.
     999900   -1    0    0    0    0 -0.00000000000E+00 -0.00000000000E+00 -0.74505805969E-08  0.93827000000E+00  0.93827000000E+00 0.  1.
     999902    2    1    2    0    0 -0.35716831809E-02 -0.12377655285E-01  0.16445511995E-01  0.10230393768E+01  0.10228260597E+01 0.  0.
     999903    2    3    3    0    0 -0.12213120342E+00  0.18867784084E-01  0.47387279830E-01  0.13400055299E+00  0.20942057826E-01 0.  0.
         14    1    1    2    0    0  0.35716831809E-02  0.12377655285E-01 -0.16445511995E-01  0.20890623156E-01  0.00000000000E+00 0. -1.
     999901    1    3    3    0    0  0.11855952024E+00 -0.31245439369E-01 -0.30941767836E-01  0.88903882385E+00  0.88000000000E+00 0.  1.
        -11    1    4    4    0    0 -0.25791662081E-01 -0.29079770797E-02  0.15373545956E-01  0.30170734161E-01  0.51100000000E-03 0. -1.
         11    1    4    4    0    0 -0.96339541343E-01  0.21775761163E-01  0.32013733875E-01  0.10382981883E+00  0.51100000000E-03 0.  1.
</event>
<event>
 8    1  0.1022673E+005  0.1043930E+01  0.7957747E-01            NaN
         13   -1    0    0    0    0  0.00000000000E+00  0.00000000000E+00  0.74505805969E-08  0.10566000000E+00  0.10566000000E+00 0. -1.
     999900   -1    0    0    0    0 -0.00000000000E+00 -0.00000000000E+00 -0.74505805969E-08  0.93827000000E+00  0.93827000000E+00 0. -1.
     999902    2    1    2    0    0 -0.10873442432E-01  0.13026818376E-01 -0.15956321001E-01  0.10206376423E+01  0.10203718258E+01 0.  0.
     999903    2    3    3    0    0 -0.98730896070E-01  0.78433884671E-01  0.35326228795E-01  0.13236577153E+00  0.19315561846E-01 0.  0.
         14    1    1    2    0    0  0.10873442432E-01 -0.13026818376E-01  0.15956321001E-01  0.23292357700E-01  0.00000000000E+00 0. -1.
     999901    1    3    3    0    0  0.87857453639E-01 -0.65407066295E-01 -0.51282549797E-01  0.88827187077E+00  0.88000000000E+00 0. -1.
        -11    1    4    4    0    0 -0.47454812592E-01  0.26861719421E-01  0.10618200980E-01  0.55556444463E-01  0.51100000000E-03 0. -1.
         11    1    4    4    0    0 -0.51276083479E-01  0.51572165250E-01  0.24708027815E-01  0.76809327070E-01  0.51100000000E-03 0.  1.
</event>
<event>
 8    1  0.1022673E+005  0.1043930E+01  0.7957747E-01            NaN
         13   -1    0    0    0    0  0.00000000000E+00  0.00000000000E+00  0.74505805969E-08  0.10566000000E+00  0.10566000000E+00 0. -1.
     999900   -1    0    0    0    0 -0.00000000000E+00 -0.00000000000E+00 -0.74505805969E-08  0.93827000000E+00  0.93827000000E+00 0. -1.
     999902    2    1    2    0    0  0.16398210950E-01  0.42216923369E-02 -0.14482158373E-01  0.10216486868E+01  0.10214056894E+01 0.  0.
     999903    2    3    3    0    0 -0.35343444525E-01  0.86469593543E-01 -0.92261564928E-01  0.13289025375E+00  0.20529819777E-01 0.  0.
         14    1    1    2    0    0 -0.16398210950E-01 -0.42216923369E-02  0.14482158373E-01  0.22281313240E-01  0.00000000000E+00 0. -1.
     999901    1    3    3    0    0  0.51741655475E-01 -0.82247901206E-01  0.77779406555E-01  0.88875843301E+00  0.88000000000E+00 0.  1.
        -11    1    4    4    0    0 -0.32173463785E-01  0.54920894341E-01 -0.56715083602E-01  0.85254315059E-01  0.51100000000E-03 0.  1.
         11    1    4    4    0    0 -0.31699807400E-02  0.31548699202E-01 -0.35546481326E-01  0.47635938690E-01  0.51100000000E-03 0. -1.
</event>
<event>
 8    1  0.1022673E+005  0.1043930E+01  0.7957747E-01            NaN
         13   -1    0    0    0    0  0.00000000000E+00  0.00000000000E+00  0.74505805969E-08  0.10566000000E+00  0.10566000000E+00 0.  1.
     999900   -1    0    0    0    0 -0.00000000000E+00 -0.00000000000E+00 -0.74505805969E-08  0.93827000000E+00  0.93827000000E+00 0.  1.
     999902    2    1    2    0    0 -0.69071559686E-02  0.13178731309E-02 -0.22633446303E-01  0.10202293991E+01  0.10199540716E+01 0.  0.
     999903    2    3    3    0    0  0.72843041987E-01 -0.10546163760E+00 -0.51581195088E-03  0.12991981935E+00  0.21227991583E-01 0.  0.
         14    1    1    2    0    0  0.69071559686E-02 -0.13178731309E-02  0.22633446303E-01  0.23700600935E-01  0.00000000000E+00 0. -1.
     999901    1    3    3    0    0 -0.79750197956E-01  0.10677951073E+00 -0.22117634352E-01  0.89030957972E+00  0.88000000000E+00 0.  1.
        -11    1    4    4    0    0  0.33226793425E-01 -0.64097415388E-01 -0.56052095623E-02  0.72416696666E-01  0.51100000000E-03 0.  1.
         11    1    4    4    0    0  0.39616248562E-01 -0.41364222210E-01  0.50893976114E-02  0.57503122682E-01  0.51100000000E-03 0. -1.
</event>
<event>
 8    1  0.1022673E+005  0.1043930E+01  0.7957747E-01            NaN
         13   -1    0    0    0    0  0.00000000000E+00  0.00000000000E+00  0.74505805969E-08  0.10566000000E+00  0.10566000000E+00 0.  1.
     999900   -1    0    0    0    0 -0.00000000000E+00 -0.00000000000E+00 -0.74505805969E-08  0.93827000000E+00  0.93827000000E+00 0.  1.
     999902    2    1    2    0    0  0.12489376252E-01 -0.61788899879E-02  0.19508477207E-01  0.10199561834E+01  0.10196743951E+01 0.  0.
     999903    2    3    3    0    0  0.11863691862E+00  0.12532614157E-01 -0.49437161764E-01  0.13070316973E+00  0.20186647504E-01 0.  0.
         14    1    1    2    0    0 -0.12489376252E-01  0.61788899879E-02 -0.19508477207E-01  0.23973816626E-01  0.00000000000E+00 0. -1.
     999901    1    3    3    0    0 -0.10614754237E+00 -0.18711504145E-01  0.68945638971E-01  0.88925301364E+00  0.88000000000E+00 0. -1.
        -11    1    4    4    0    0  0.84264177785E-01  0.18038391590E-01 -0.34763420765E-01  0.92922504127E-01  0.51100000000E-03 0. -1.
         11    1    4    4    0    0  0.34372740835E-01 -0.55057774331E-02 -0.14673740999E-01  0.37780665605E-01  0.51100000000E-03 0.  1.
</event>
<event>
 8    1  0.1022673E+005  0.1043930E+01  0.7957747E-01            NaN
         13   -1    0    0    0    0  0.00000000000E+00  0.00000000000E+00  0.74505805969E-08  0.10566000000E+00  0.10566000000E+00 0. -1.
     999900   -1    0    0    0    0 -0.00000000000E+00 -0.00000000000E+00 -0.74505805969E-08  0.93827000000E+00  0.93827000000E+00 0. -1.
     999902    2    1    2    0    0  0.22382464499E-01 -0.58822113514E-02 -0.74267452692E-02  0.10196250278E+01  0.10193353058E+01 0.  0.
     999903    2    3    3    0    0  0.55006429181E-01  0.55681771873E-01  0.10206589699E+00  0.13010657056E+00  0.19598607167E-01 0.  0.
         14    1    1    2    0    0 -0.22382464499E-01  0.58822113514E-02  0.74267452692E-02  0.24304972181E-01  0.00000000000E+00 0. -1.
     999901    1    3    3    0    0 -0.32623964681E-01 -0.61563983225E-01 -0.10949264226E+00  0.88951845726E+00  0.88000000000E+00 0. -1.
        -11    1    4    4    0    0  0.17230758160E-01  0.13999904075E-01  0.43843253260E-01  0.49146600272E-01  0.51100000000E-03 0. -1.
         11    1    4    4    0    0  0.37775671021E-01  0.41681867798E-01  0.58222643732E-01  0.80959970283E-01  0.51100000000E-03 0.  1.
</event>
<event>
 8    1  0.1022673E+005  0.1043930E+01  0.7957747E-01            NaN
         13   -1    0    0    0    0  0.00000000000E+00  0.00000000000E+00  0.74505805969E-08  0.10566000000E+00  0.10566000000E+00 0. -1.
     999900   -1    0    0    0    0 -0.00000000000E+00 -0.00000000000E+00 -0.74505805969E-08  0.93827000000E+00  0.93827000000E+00 0.  1.
     999902    2    1    2    0    0  0.16129952362E-01  0.15750548901E-01 -0.79701251859E-02  0.10200181191E+01  0.10197378022E+01 0.  0.
     999903    2    3    3    0    0  0.54383649908E-01  0.93242783180E-01 -0.75632327817E-01  0.13319989339E+00  0.19239662019E-01 0.  0.
         14    1    1    2    0    0 -0.16129952362E-01 -0.15750548901E-01  0.79701251859E-02  0.23911880924E-01  0.00000000000E+00 0.  1.
     999901    1    3    3    0    0 -0.38253697546E-01 -0.77492234279E-01  0.67662202631E-01  0.88681822569E+00  0.88000000000E+00 0. -1.
        -11    1    4    4    0    0  0.19014753504E-01  0.48830128750E-01 -0.42422038857E-01  0.67422791593E-01  0.51100000000E-03 0. -1.
         11    1    4    4    0    0  0.35368896405E-01  0.44412654430E-01 -0.33210288961E-01  0.65777101793E-01  0.51100000000E-03 0.  1.
</event>
<event>
 8    1  0.1022673E+005  0.1043930E+01  0.7957747E-01            NaN
         13   -1    0    0    0    0  0.00000000000E+00  0.00000000000E+00  0.74505805969E-08  0.10566000000E+00  0.10566000000E+00 0.  1.
     999900   -1    0    0    0    0 -0.00000000000E+00 -0.00000000000E+00 -0.74505805969E-08  0.93827000000E+00  0.93827000000E+00 0.  1.
     999902    2    1    2    0    0  0.25100259321E-02  0.62982952944E-02  0.24913959742E-01  0.10181099662E+01  0.10177825058E+01 0.  0.
     999903    2    3    3    0    0 -0.10671328727E-01  0.10767474003E+00  0.71160583865E-01  0.13098557704E+00  0.19638375640E-01 0.  0.
         14    1    1    2    0    0 -0.25100259321E-02 -0.62982952944E-02 -0.24913959742E-01  0.25820033769E-01  0.00000000000E+00 0. -1.
     999901    1    3    3    0    0  0.13181354659E-01 -0.10137644474E+00 -0.46246624123E-01  0.88712438919E+00  0.88000000000E+00 0.  1.
        -11    1    4    4    0    0  0.20976088007E-02  0.41485716300E-01  0.35923581586E-01  0.54920209892E-01  0.51100000000E-03 0. -1.
         11    1    4    4    0    0 -0.12768937528E-01  0.66189023734E-01  0.35237002279E-01  0.76065367146E-01  0.51100000000E-03 0.  1.
</event>
<event>
 8    1  0.1022673E+005  0.1043930E+01  0.7957747E-01            NaN
         13   -1    0    0    0    0  0.00000000000E+00  0.00000000000E+00  0.74505805969E-08  0.10566000000E+00  0.10566000000E+00 0. -1.
     999900   -1    0    0    0    0 -0.00000000000E+00 -0.00000000000E+00 -0.74505805969E-08  0.93827000000E+00  0.93827000000E+00 0.  1.
     999902    2    1    2    0    0  0.24586464565E-02 -0.22942636493E-01  0.64153460475E-02  0.10199807583E+01  0.10196995544E+01 0.  0.
     999903    2    3    3    0    0  0.92655696605E-02  0.12590350861E+00 -0.43448490733E-02  0.12739054389E+00  0.16490260652E-01 0.  0.
         14    1    1    2    0    0 -0.24586464565E-02  0.22942636493E-01 -0.64153460475E-02  0.23949241669E-01  0.00000000000E+00 0.  1.
     999901    1    3    3    0    0 -0.68069232040E-02 -0.14884614511E+00  0.10760195121E-01  0.89259021444E+00  0.88000000000E+00 0. -1.
        -11    1    4    4    0    0 -0.15177164891E-02  0.80053263721E-01 -0.56510805108E-02  0.80268451634E-01  0.51100000000E-03 0.  1.
         11    1    4    4    0    0  0.10783286150E-01  0.45850244894E-01  0.13062314375E-02  0.47122092256E-01  0.51100000000E-03 0. -1.
</event>
<event>
 8    1  0.1022673E+005  0.1043930E+01  0.7957747E-01            NaN
         13   -1    0    0    0    0  0.00000000000E+00  0.00000000000E+00  0.74505805969E-08  0.10566000000E+00  0.10566000000E+00 0. -1.
     999900   -1    0    0    0    0 -0.00000000000E+00 -0.00000000000E+00 -0.74505805969E-08  0.93827000000E+00  0.93827000000E+00 0.  1.
     999902    2    1    2    0    0  0.17958927072E-01  0.14967763553E-01 -0.14708132909E-02  0.10205052204E+01  0.10202363376E+01 0.  0.
     999903    2    3    3    0    0  0.22019221478E-01  0.10779015192E-01 -0.12764411117E+00  0.13148681075E+00  0.19867788079E-01 0.  0.
         14    1    1    2    0    0 -0.17958927072E-01 -0.14967763553E-01  0.14708132909E-02  0.23424779596E-01  0.00000000000E+00 0. -1.
     999901    1    3    3    0    0 -0.40602944059E-02  0.41887483615E-02  0.12617329788E+00  0.88901840965E+00  0.88000000000E+00 0. -1.
        -11    1    4    4    0    0  0.75272084836E-02  0.39695428299E-03 -0.10183334778E-01  0.12679821310E-01  0.51100000000E-03 0.  1.
         11    1    4    4    0    0  0.14492012994E-01  0.10382060909E-01 -0.11746077639E+00  0.11880698944E+00  0.51100000000E-03 0. -1.
</event>
<event>
 8    1  0.1022673E+005  0.1043930E+01  0.7957747E-01            NaN
         13   -1    0    0    0    0  0.00000000000E+00  0.00000000000E+00  0.74505805969E-08  0.10566000000E+00  0.10566000000E+00 0. -1.
     999900   -1    0    0    0    0 -0.00000000000E+00 -0.00000000000E+00 -0.74505805969E-08  0.93827000000E+00  0.93827000000E+00 0.  1.
     999902    2    1    2    0    0 -0.54082723427E-02  0.18872971048E-01  0.12916964831E-01  0.10204292250E+01  0.10201585743E+01 0.  0.
     999903    2    3    3    0    0  0.58731573214E-01 -0.11046397661E+00  0.22103962090E-01  0.12861850138E+00  0.20061055232E-01 0.  0.
         14    1    1    2    0    0  0.54082723427E-02 -0.18872971048E-01 -0.12916964831E-01  0.23500775016E-01  0.00000000000E+00 0.  1.
     999901    1    3    3    0    0 -0.64139845557E-01  0.12933694766E+00 -0.91869972594E-02  0.89181072360E+00  0.88000000000E+00 0. -1.
        -11    1    4    4    0    0  0.55693531757E-01 -0.88806115973E-01  0.17968781168E-01  0.10635522522E+00  0.51100000000E-03 0.  1.
         11    1    4    4    0    0  0.30380414574E-02 -0.21657860635E-01  0.41351809220E-02  0.22263276161E-01  0.51100000000E-03 0. -1.
</event>
<event>
 8    1  0.1022673E+005  0.1043930E+01  0.7957747E-01            NaN
         13   -1    0    0    0    0  0.00000000000E+00  0.00000000000E+00  0.74505805969E-08  0.10566000000E+00  0.10566000000E+00 0. -1.
     999900   -1    0    0    0    0 -0.00000000000E+00 -0.00000000000E+00 -0.74505805969E-08  0.93827000000E+00  0.93827000000E+00 0.  1.
     999902    2    1    2    0    0 -0.11117011821E-01 -0.73428597732E-02  0.19595879287E-01  0.10202339238E+01  0.10199587027E+01 0.  0.
     999903    2    3    3    0    0  0.11752263558E+00 -0.27089175602E-01  0.45689712847E-01  0.13027945081E+00  0.18433451533E-01 0.  0.
         14    1    1    2    0    0  0.11117011821E-01  0.73428597732E-02 -0.19595879287E-01  0.23696076183E-01  0.00000000000E+00 0.  1.
     999901    1    3    3    0    0 -0.12863964740E+00  0.19746315828E-01 -0.26093833560E-01  0.88995447301E+00  0.88000000000E+00 0. -1.
        -11    1    4    4    0    0  0.97686462319E-01 -0.16526172940E-01  0.32784221005E-01  0.10435911834E+00  0.51100000000E-03 0.  1.
         11    1    4    4    0    0  0.19836173260E-01 -0.10563002661E-01  0.12905491842E-01  0.25920332473E-01  0.51100000000E-03 0. -1.
</event>
<event>
 8    1  0.1022673E+005  0.1043930E+01  0.7957747E-01            NaN
         13   -1    0    0    0    0  0.00000000000E+00  0.00000000000E+00  0.74505805969E-08  0.10566000000E+00  0.10566000000E+00 0.  1.
     999900   -1    0    0    0    0 -0.00000000000E+00 -0.00000000000E+00 -0.74505805969E-08  0.93827000000E+00  0.93827000000E+00 0. -1.
     999902    2    1    2    0    0 -0.19984002973E-01 -0.99388378765E-02 -0.69781376197E-02  0.10205454906E+01  0.10202775422E+01 0.  0.
     999903    2    3    3    0    0  0.11347348225E+00 -0.37072262344E-01  0.43453301891E-01  0.12864277556E+00  0.20253159015E-01 0.  0.
         14    1    1    2    0    0  0.19984002973E-01  0.99388378765E-02  0.69781376197E-02  0.23384509355E-01  0.00000000000E+00 0.  1.
     999901    1    3    3    0    0 -0.13345748522E+00  0.27133424468E-01 -0.50431439510E-01  0.89190271508E+00  0.88000000000E+00 0. -1.
        -11    1    4    4    0    0  0.96354872870E-02 -0.21744947079E-02  0.10087481525E-01  0.14127612927E-01  0.51100000000E-03 0.  1.
         11    1    4    4    0    0  0.10383799496E+00 -0.34897767636E-01  0.33365820366E-01  0.11451516263E+00  0.51100000000E-03 0. -1.
</event>
<event>
 8    1  0.1022673E+005  0.1043930E+01  0.7957747E-01            NaN
         13   -1    0    0    0    0  0.00000000000E+00  0.00000000000E+00  0.74505805969E-08  0.10566000000E+00  0.10566000000E+00 0. -1.
     999900   -1    0    0    0    0 -0.00000000000E+00 -0.00000000000E+00 -0.74505805969E-08  0.93827000000E+00  0.93827000000E+00 0. -1.
     999902    2    1    2    0    0 -0.89225232587E-02  0.18481225568E-01  0.11150731871E-01  0.10205739314E+01  0.10203066419E+01 0.  0.
     999903    2    3    3    0    0 -0.95278211174E-01 -0.14312493884E-01  0.88399046005E-01  0.13237348390E+00  0.20629175958E-01 0.  0.
         14    1    1    2    0    0  0.89225232587E-02 -0.18481225568E-01 -0.11150731871E-01  0.23356068613E-01  0.00000000000E+00 0.  1.
     999901    1    3    3    0    0  0.86355687916E-01  0.32793719453E-01 -0.77248314133E-01  0.88820044748E+00  0.88000000000E+00 0. -1.
        -11    1    4    4    0    0 -0.59234627917E-01 -0.10213444205E-01  0.41343858401E-01  0.72956365970E-01  0.51100000000E-03 0. -1.
         11    1    4    4    0    0 -0.36043583257E-01 -0.40990496793E-02  0.47055187603E-01  0.59417117935E-01  0.51100000000E-03 0.  1.
</event>
<event>
 8    1  0.1022673E+005  0.1043930E+01  0.7957747E-01            NaN
         13   -1    0    0    0    0  0.00000000000E+00  0.00000000000E+00  0.74505805969E-08  0.10566000000E+00  0.10566000000E+00 0.  1.
     999900   -1    0    0    0    0 -0.00000000000E+00 -0.00000000000E+00 -0.74505805969E-08  0.93827000000E+00  0.93827000000E+00 0.  1.
     999902    2    1    2    0    0 -0.22427593535E-01  0.49455865592E-02  0.51333702413E-02  0.10203968900E+01  0.10201254853E+01 0.  0.
     999903    2    3    3    0    0 -0.72102899570E-01 -0.45862366308E-02  0.10963300852E+00  0.13277159397E+00  0.19724044075E-01 0.  0.
         14    1    1    2    0    0  0.22427593535E-01 -0.49455865592E-02 -0.51333702413E-02  0.23533110041E-01  0.00000000000E+00 0.  1.
     999901    1    3    3    0    0  0.49675306035E-01  0.95318231900E-02 -0.10449963828E+00  0.88762529599E+00  0.88000000000E+00 0. -1.
        -11    1    4    4    0    0 -0.50137938702E-01  0.12887108237E-02  0.60192065258E-01  0.78350619103E-01  0.51100000000E-03 0. -1.
         11    1    4    4    0    0 -0.21964960868E-01 -0.58749474545E-02  0.49440943262E-01  0.54420974864E-01  0.51100000000E-03 0.  1.
</event>
<event>
 8    1  0.1022673E+005  0.1043930E+01  0.7957747E-01            NaN
         13   -1    0    0    0    0  0.00000000000E+00  0.00000000000E+00  0.74505805969E-08  0.10566000000E+00  0.10566000000E+00 0.  1.
     999900   -1    0    0    0    0 -0.00000000000E+00 -0.00000000000E+00 -0.74505805969E-08  0.93827000000E+00  0.93827000000E+00 0.  1.
     999902    2    1    2    0    0 -0.16301877922E-01  0.13747756349E-01 -0.10240278407E-01  0.10202738099E+01  0.10199995254E+01 0.  0.
     999903    2    3    3    0    0  0.10974635211E+00  0.66207134993E-01 -0.15595721009E-03  0.12968870097E+00  0.19786063597E-01 0.  0.
         14    1    1    2    0    0  0.16301877922E-01 -0.13747756349E-01  0.10240278407E-01  0.23656190104E-01  0.00000000000E+00 0.  1.
     999901    1    3    3    0    0 -0.12604823003E+00 -0.52459378644E-01 -0.10084321197E-01  0.89058510892E+00  0.88000000000E+00 0.  1.
        -11    1    4    4    0    0  0.40519589566E-01  0.23582754200E-01  0.94384707656E-02  0.47826031464E-01  0.51100000000E-03 0. -1.
         11    1    4    4    0    0  0.69226762541E-01  0.42624380793E-01 -0.95944279757E-02  0.81862669509E-01  0.51100000000E-03 0.  1.
</event>
<event>
 8    1  0.1022673E+005  0.1043930E+01  0.7957747E-01            NaN
         13   -1    0    0    0    0  0.00000000000E+00  0.00000000000E+00  0.74505805969E-08  0.10566000000E+00  0.10566000000E+00 0.  1.
     999900   -1    0    0    0    0 -0.00000000000E+00 -0.00000000000E+00 -0.74505805969E-08  0.93827000000E+00  0.93827000000E+00 0.  1.
     999902    2    1    2    0    0  0.19609863926E-01  0.57871699667E-02 -0.12684969614E-01  0.10198686918E+01  0.10195848184E+01 0.  0.
     999903    2    3    3    0    0 -0.57553783666E-01 -0.10901467408E+00  0.28786998169E-01  0.12809875731E+00  0.19594978461E-01 0.  0.
         14    1    1    2    0    0 -0.19609863926E-01 -0.57871699667E-02  0.12684969614E-01  0.24061308226E-01  0.00000000000E+00 0. -1.
     999901    1    3    3    0    0  0.77163647592E-01  0.11480184405E+00 -0.41471967783E-01  0.89176993447E+00  0.88000000000E+00 0. -1.
        -11    1    4    4    0    0 -0.23497212341E-01 -0.62134658616E-01  0.99821327152E-02  0.67176922255E-01  0.51100000000E-03 0. -1.
         11    1    4    4    0    0 -0.34056571325E-01 -0.46880015466E-01  0.18804865454E-01  0.60921835053E-01  0.51100000000E-03 0.  1.
</event>
<event>
 8    1  0.1022673E+005  0.1043930E+01  0.7957747E-01            NaN
         13   -1    0    0    0    0  0.00000000000E+00  0.00000000000E+00  0.74505805969E-08  0.10566000000E+00  0.10566000000E+00 0.  1.
     999900   -1    0    0    0    0 -0.00000000000E+00 -0.00000000000E+00 -0.74505805969E-08  0.93827000000E+00  0.93827000000E+00 0.  1.
     999902    2    1    2    0    0 -0.21684632512E-01  0.13457103369E-02  0.89259102541E-02  0.10204415752E+01  0.10201712123E+01 0.  0.
     999903    2    3    3    0    0  0.38497961893E-01 -0.30517827849E-01 -0.11732586031E+00  0.12882689429E+00  0.20434781833E-01 0.  0.
         14    1    1    2    0    0  0.21684632512E-01 -0.13457103369E-02 -0.89259102541E-02  0.23488424753E-01  0.00000000000E+00 0. -1.
     999901    1    3    3    0    0 -0.60182594405E-01  0.31863538186E-01  0.12625177056E+00  0.89161468096E+00  0.88000000000E+00 0. -1.
        -11    1    4    4    0    0  0.22731383409E-01 -0.52802140537E-02 -0.55574258993E-01  0.60277324392E-01  0.51100000000E-03 0. -1.
         11    1    4    4    0    0  0.15766578483E-01 -0.25237613795E-01 -0.61751601312E-01  0.68549569895E-01  0.51100000000E-03 0.  1.
</event>
<event>
 8    1  0.1022673E+005  0.1043930E+01  0.7957747E-01            NaN
         13   -1    0    0    0    0  0.00000000000E+00  0.00000000000E+00  0.74505805969E-08  0.10566000000E+00  0.10566000000E+00 0. -1.
     999900   -1    0    0    0    0 -0.00000000000E+00 -0.00000000000E+00 -0.74505805969E-08  0.93827000000E+00  0.93827000000E+00 0.  1.
     999902    2    1    2    0    0  0.82513491600E-02 -0.35898730522E-03  0.29305370337E-01  0.10134830237E+01  0.10130255777E+01 0.  0.
     999903    2    3    3    0    0 -0.43094663226E-01 -0.91710278221E-01  0.72002923340E-01  0.12623753774E+00  0.21990221337E-01 0.  0.
         14    1    1    2    0    0 -0.82513491600E-02  0.35898730522E-03 -0.29305370337E-01  0.30446976294E-01  0.00000000000E+00 0.  1.
     999901    1    3    3    0    0  0.51346012386E-01  0.91351290916E-01 -0.42697553003E-01  0.88724548597E+00  0.88000000000E+00 0.  1.
        -11    1    4    4    0    0 -0.22185206575E-01 -0.23491999809E-01  0.23623108500E-01  0.40029611814E-01  0.51100000000E-03 0. -1.
         11    1    4    4    0    0 -0.20909456651E-01 -0.68218278412E-01  0.48379814840E-01  0.86207925923E-01  0.51100000000E-03 0.  1.
</event>
<event>
 8    1  0.1022673E+005  0.1043930E+01  0.7957747E-01            NaN
         13   -1    0    0    0    0  0.00000000000E+00  0.00000000000E+00  0.74505805969E-08  0.10566000000E+00  0.10566000000E+00 0. -1.
     999900   -1    0    0    0    0 -0.00000000000E+00 -0.00000000000E+00 -0.74505805969E-08  0.93827000000E+00  0.93827000000E+00 0. -1.
     999902    2    1    2    0    0 -0.19880360382E-01  0.88172930879E-02  0.54236942573E-03  0.10221752867E+01  0.10219437603E+01 0.  0.
     999903    2    3    3    0    0 -0.39053064172E-02  0.62649933579E-01 -0.11472939911E+00  0.13288301969E+00  0.23554114463E-01 0.  0.
         14    1    1    2    0    0  0.19880360382E-01 -0.88172930879E-02 -0.54236942573E-03  0.21754713304E-01  0.00000000000E+00 0.  1.
     999901    1    3    3    0    0 -0.15975053965E-01 -0.53832640491E-01  0.11527176853E+00  0.88929226700E+00  0.88000000000E+00 0.  1.
        -11    1    4    4    0    0 -0.86982549581E-02  0.21589160406E-01 -0.25428669749E-01  0.34476511606E-01  0.51100000000E-03 0. -1.
         11    1    4    4    0    0  0.47929485409E-02  0.41060773173E-01 -0.89300729357E-01  0.98406508087E-01  0.51100000000E-03 0.  1.
</event>
<event>
 8    1  0.1022673E+005  0.1043930E+01  0.7957747E-01            NaN
         13   -1    0    0    0    0  0.00000000000E+00  0.00000000000E+00  0.74505805969E-08  0.10566000000E+00  0.10566000000E+00 0. -1.
     999900   -1    0    0    0    0 -0.00000000000E+00 -0.00000000000E+00 -0.74505805969E-08  0.93827000000E+00  0.93827000000E+00 0. -1.
     999902    2    1    2    0    0 -0.54241419160E-02  0.36727163462E-02 -0.22678106662E-01  0.10203247743E+01  0.10200516841E+01 0.  0.
     999903    2    3    3    0    0 -0.16912269420E-01  0.12827506158E+00 -0.11977948493E-01  0.13140845935E+00  0.19600909652E-01 0.  0.
         14    1    1    2    0    0  0.54241419160E-02 -0.36727163462E-02  0.22678106662E-01  0.23605225749E-01  0.00000000000E+00 0. -1.
     999901    1    3    3    0    0  0.11488127504E-01 -0.12460234523E+00 -0.10700158168E-01  0.88891631490E+00  0.88000000000E+00 0.  1.
        -11    1    4    4    0    0 -0.17528985782E-01  0.83924524522E-01 -0.11347679825E-02  0.85744620695E-01  0.51100000000E-03 0. -1.
         11    1    4    4    0    0  0.61671636149E-03  0.44350537056E-01 -0.10843180511E-01  0.45663838656E-01  0.51100000000E-03 0.  1.
</event>
<event>
 8    1  0.1022673E+005  0.1043930E+01  0.7957747E-01            NaN
         13   -1    0    0    0    0  0.00000000000E+00  0.00000000000E+00  0.74505805969E-08  0.10566000000E+00  0.10566000000E+00 0.  1.
     999900   -1    0    0    0    0 -0.00000000000E+00 -0.00000000000E+00 -0.74505805969E-08  0.93827000000E+00  0.93827000000E+00 0.  1.
     999902    2    1    2    0    0 -0.14246971613E-01 -0.66758579152E-02  0.16986517758E-01  0.10207764892E+01  0.10205138685E+01 0.  0.
     999903    2    3    3    0    0  0.97476719718E-02 -0.36114144751E-01 -0.12185684762E+00  0.12908156612E+00  0.20339882991E-01 0.  0.
         14    1    1    2    0    0  0.14246971613E-01  0.66758579152E-02 -0.16986517758E-01  0.23153510848E-01  0.00000000000E+00 0. -1.
     999901    1    3    3    0    0 -0.23994643585E-01  0.29438286836E-01  0.13884336538E+00  0.89169492303E+00  0.88000000000E+00 0. -1.
        -11    1    4    4    0    0  0.11285485071E-01 -0.37546555944E-01 -0.11995838051E+00  0.12620372503E+00  0.51100000000E-03 0.  1.
         11    1    4    4    0    0 -0.15378130991E-02  0.14324111925E-02 -0.18984671081E-02  0.28778410854E-02  0.51100000000E-03 0. -1.
</event>
<event>
 8    1  0.1022673E+005  0.1043930E+01  0.7957747E-01            NaN
         13   -1    0    0    0    0  0.00000000000E+00  0.00000000000E+00  0.74505805969E-08  0.10566000000E+00  0.10566000000E+00 0. -1.
     999900   -1    0    0    0    0 -0.00000000000E+00 -0.00000000000E+00 -0.74505805969E-08  0.93827000000E+00  0.93827000000E+00 0.  1.
     999902    2    1    2    0    0 -0.14151554865E-01  0.58809382387E-02  0.15867149887E-01  0.10218705715E+01  0.10216324420E+01 0.  0.
     999903    2    3    3    0    0 -0.99064097527E-02 -0.27688922719E-01 -0.12503180465E+00  0.13001998301E+00  0.20184905530E-01 0.  0.
         14    1    1    2    0    0  0.14151554865E-01 -0.58809382387E-02 -0.15867149887E-01  0.22059428488E-01  0.00000000000E+00 0.  1.
     999901    1    3    3    0    0 -0.42451451127E-02  0.33569860958E-01  0.14089895454E+00  0.89185058850E+00  0.88000000000E+00 0. -1.
        -11    1    4    4    0    0 -0.56573599849E-02 -0.11867319147E-01 -0.94088160957E-01  0.95003590138E-01  0.51100000000E-03 0.  1.
         11    1    4    4    0    0 -0.42490497678E-02 -0.15821603572E-01 -0.30943643696E-01  0.35016392872E-01  0.51100000000E-03 0. -1.
</event>
<event>
 8    1  0.1022673E+005  0.1043930E+01  0.7957747E-01            NaN
         13   -1    0    0    0    0  0.00000000000E+00  0.00000000000E+00  0.74505805969E-08  0.10566000000E+00  0.10566000000E+00 0. -1.
     999900   -1    0    0    0    0 -0.00000000000E+00 -0.00000000000E+00 -0.74505805969E-08  0.93827000000E+00  0.93827000000E+00 0.  1.
     999902    2    1    2    0    0 -0.15530315254E-01 -0.84707244580E-02  0.15333053932E-01  0.10205196090E+01  0.10202510602E+01 0.  0.
     999903    2    3    3    0    0  0.81783772737E-01 -0.22424610192E-01  0.98194493663E-01  0.13117672750E+00  0.19332010405E-01 0.  0.
         14    1    1    2    0    0  0.15530315254E-01  0.84707244580E-02 -0.15333053932E-01  0.23410391018E-01  0.00000000000E+00 0.  1.
     999901    1    3    3    0    0 -0.97314087992E-01  0.13953885734E-01 -0.82861439732E-01  0.88934288148E+00  0.88000000000E+00 0. -1.
        -11    1    4    4    0    0  0.24938293915E-01 -0.46430217792E-02  0.43241521872E-01  0.50135481343E-01  0.51100000000E-03 0. -1.
         11    1    4    4    0    0  0.56845478822E-01 -0.17781588413E-01  0.54952971791E-01  0.81041246157E-01  0.51100000000E-03 0.  1.
</event>
<event>
 8    1  0.1022673E+005  0.1043930E+01  0.7957747E-01            NaN
         13   -1    0    0    0    0  0.00000000000E+00  0.00000000000E+00  0.74505805969E-08  0.10566000000E+00  0.10566000000E+00 0.  1.
     999900   -1    0    0    0    0 -0.00000000000E+00 -0.00000000000E+00 -0.74505805969E-08  0.93827000000E+00  0.93827000000E+00 0.  1.
     999902    2    1    2    0    0 -0.12772881145E-01 -0.44822009244E-02  0.16523075809E-01  0.10225700222E+01  0.10223469087E+01 0.  0.
     999903    2    3    3    0    0 -0.58828525740E-01 -0.63325963346E-02 -0.11572689154E+00  0.13149505328E+00  0.19933348787E-01 0.  0.
         14    1    1    2    0    0  0.12772881145E-01  0.44822009244E-02 -0.16523075809E-01  0.21359977811E-01  0.00000000000E+00 0. -1.
     999901    1    3    3    0    0  0.46055644595E-01  0.18503954102E-02  0.13224996735E+00  0.89107496891E+00  0.88000000000E+00 0. -1.
        -11    1    4    4    0    0 -0.19074907068E-01 -0.74527577981E-02 -0.56983101661E-01  0.60553535606E-01  0.51100000000E-03 0. -1.
         11    1    4    4    0    0 -0.39753618671E-01  0.11201614635E-02 -0.58743789876E-01  0.70941517669E-01  0.51100000000E-03 0.  1.
</event>
<event>
 8    1  0.1022673E+005  0.1043930E+01  0.7957747E-01            NaN
         13   -1    0    0    0    0  0.00000000000E+00  0.00000000000E+00  0.74505805969E-08  0.10566000000E+00  0.10566000000E+00 0. -1.
     999900   -1    0    0    0    0 -0.00000000000E+00 -0.00000000000E+00 -0.74505805969E-08  0.93827000000E+00  0.93827000000E+00 0.  1.
     999902    2    1    2    0    0 -0.11369929259E-01  0.10020882765E-01  0.17917994956E-01  0.10204619808E+01  0.10201920928E+01 0.  0.
     999903    2    3    3    0    0 -0.90029590582E-01 -0.90687074562E-01  0.21248867708E-01  0.13122605612E+00  0.20959264160E-01 0.  0.
         14    1    1    2    0    0  0.11369929259E-01 -0.10020882765E-01 -0.17917994956E-01  0.23468019218E-01  0.00000000000E+00 0.  1.
     999901    1    3    3    0    0  0.78659661323E-01  0.10070795733E+00 -0.33308727519E-02  0.88923592466E+00  0.88000000000E+00 0.  1.
        -11    1    4    4    0    0 -0.34913307877E-01 -0.33455910655E-01 -0.21170283907E-02  0.48404338182E-01  0.51100000000E-03 0. -1.
         11    1    4    4    0    0 -0.55116282705E-01 -0.57231163908E-01  0.23365896099E-01  0.82821717943E-01  0.51100000000E-03 0.  1.
</event>
<event>
 8    1  0.1022673E+005  0.1043930E+01  0.7957747E-01            NaN
         13   -1    0    0    0    0  0.00000000000E+00  0.00000000000E+00  0.74505805969E-08  0.10566000000E+00  0.10566000000E+00 0. -1.
     999900   -1    0    0    0    0 -0.00000000000E+00 -0.00000000000E+00 -0.74505805969E-08  0.93827000000E+00  0.93827000000E+00 0.  1.
     999902    2    1    2    0    0  0.26760589662E-02 -0.44344951815E-02 -0.22621948052E-01  0.10207227043E+01  0.10204588480E+01 0.  0.
     999903    2    3    3    0    0  0.51978248378E-01 -0.11799657009E+00 -0.21167403392E-01  0.13205563143E+00  0.19123335688E-01 0.  0.
         14    1    1    2    0    0 -0.26760589662E-02  0.44344951815E-02  0.22621948052E-01  0.23207295679E-01  0.00000000000E+00 0. -1.
     999901    1    3    3    0    0 -0.49302189411E-01  0.11356207491E+00 -0.14545446593E-02  0.88866707289E+00  0.88000000000E+00 0.  1.
        -11    1    4    4    0    0  0.23090773257E-01 -0.41513237689E-01 -0.16024370298E-01  0.50135559012E-01  0.51100000000E-03 0. -1.
         11    1    4    4    0    0  0.28887475121E-01 -0.76483332405E-01 -0.51430330940E-02  0.81920072418E-01  0.51100000000E-03 0.  1.
</event>
<event>
 8    1  0.1022673E+005  0.1043930E+01  0.7957747E-01            NaN
         13   -1    0    0    0    0  0.00000000000E+00  0.00000000000E+00  0.74505805969E-08  0.10566000000E+00  0.10566000000E+00 0. -1.
     999900   -1    0    0    0    0 -0.00000000000E+00 -0.00000000000E+00 -0.74505805969E-08  0.93827000000E+00  0.93827000000E+00 0.  1.
     999902    2    1    2    0    0  0.11610204436E-01 -0.71962347664E-02 -0.19429168998E-01  0.10201797316E+01  0.10199032354E+01 0.  0.
     999903    2    3    3    0    0 -0.74148511816E-01  0.79389898902E-01 -0.69116381138E-01  0.13039293970E+00  0.20603075756E-01 0.  0.
         14    1    1    2    0    0 -0.11610204436E-01  0.71962347664E-02  0.19429168998E-01  0.23750268415E-01  0.00000000000E+00 0. -1.
     999901    1    3    3    0    0  0.85758716252E-01 -0.86586133669E-01  0.49687212141E-01  0.88978679188E+00  0.88000000000E+00 0.  1.
        -11    1    4    4    0    0 -0.23932499304E-01  0.24172536833E-01 -0.10860096481E-01  0.35711046980E-01  0.51100000000E-03 0.  1.
         11    1    4    4    0    0 -0.50216012512E-01  0.55217362070E-01 -0.58256284657E-01  0.94681892723E-01  0.51100000000E-03 0. -1.
</event>
<event>
 8    1  0.1022673E+005  0.1043930E+01  0.7957747E-01            NaN
         13   -1    0    0    0    0  0.00000000000E+00  0.00000000000E+00  0.74505805969E-08  0.10566000000E+00  0.10566000000E+00 0. -1.
     999900   -1    0    0    0    0 -0.00000000000E+00 -0.00000000000E+00 -0.74505805969E-08  0.93827000000E+00  0.93827000000E+00 0. -1.
     999902    2    1    2    0    0  0.14896384072E-01 -0.14730523027E-01  0.11646482065E-01  0.10199606214E+01  0.10196789387E+01 0.  0.
     999903    2    3    3    0    0 -0.62765280092E-01  0.67490614345E-01 -0.85634106325E-01  0.12740520999E+00  0.20110294824E-01 0.  0.
         14    1    1    2    0    0 -0.14896384072E-01  0.14730523027E-01 -0.11646482065E-01  0.23969378623E-01  0.00000000000E+00 0. -1.
     999901    1    3    3    0    0  0.77661664164E-01 -0.82221137372E-01  0.97280588390E-01  0.89255541138E+00  0.88000000000E+00 0. -1.
        -11    1    4    4    0    0 -0.28518557498E-01  0.19363942574E-01 -0.39683129483E-01  0.52566931434E-01  0.51100000000E-03 0. -1.
         11    1    4    4    0    0 -0.34246722594E-01  0.48126671771E-01 -0.45950976842E-01  0.74838278560E-01  0.51100000000E-03 0.  1.
</event>
<event>
 8    1  0.1022673E+005  0.1043930E+01  0.7957747E-01            NaN
         13   -1    0    0    0    0  0.00000000000E+00  0.00000000000E+00  0.74505805969E-08  0.10566000000E+00  0.10566000000E+00 0. -1.
     999900   -1    0    0    0    0 -0.00000000000E+00 -0.00000000000E+00 -0.74505805969E-08  0.93827000000E+00  0.93827000000E+00 0.  1.
     999902    2    1    2    0    0  0.22151972652E-01 -0.89650181891E-02 -0.10077489118E-01  0.10179947493E+01  0.10176643220E+01 0.  0.
     999903    2    3    3    0    0  0.11801116262E+00  0.44183098615E-01  0.26453687849E-01  0.13044292909E+00  0.20899268939E-01 0.  0.
         14    1    1    2    0    0 -0.22151972652E-01  0.89650181891E-02  0.10077489118E-01  0.25935250730E-01  0.00000000000E+00 0.  1.
     999901    1    3    3    0    0 -0.95859189965E-01 -0.53148116804E-01 -0.36531176967E-01  0.88755182018E+00  0.88000000000E+00 0.  1.
        -11    1    4    4    0    0  0.98235095623E-01  0.28205161280E-01  0.19131853586E-01  0.10398054663E+00  0.51100000000E-03 0.  1.
         11    1    4    4    0    0  0.19776066994E-01  0.15977937335E-01  0.73218342632E-02  0.26462382455E-01  0.51100000000E-03 0. -1.
</event>
<event>
 8    1  0.1022673E+005  0.1043930E+01  0.7957747E-01            NaN
         13   -1    0    0    0    0  0.00000000000E+00  0.00000000000E+00  0.74505805969E-08  0.10566000000E+00  0.10566000000E+00 0.  1.
     999900   -1    0    0    0    0 -0.00000000000E+00 -0.00000000000E+00 -0.74505805969E-08  0.93827000000E+00  0.93827000000E+00 0. -1.
     999902    2    1    2    0    0 -0.11028293656E-01  0.82960297419E-02 -0.26043231426E-01  0.10144563291E+01  0.10140280797E+01 0.  0.
     999903    2    3    3    0    0 -0.62313144673E-01  0.80816488537E-01  0.69094201285E-01  0.12488312587E+00  0.20187958221E-01 0.  0.
         14    1    1    2    0    0  0.11028293656E-01 -0.82960297419E-02  0.26043231426E-01  0.29473670853E-01  0.00000000000E+00 0.  1.
     999901    1    3    3    0    0  0.51284851018E-01 -0.72520458795E-01 -0.95137432711E-01  0.88957320328E+00  0.88000000000E+00 0. -1.
        -11    1    4    4    0    0 -0.26211532160E-01  0.35648776378E-01  0.42060723658E-01  0.61051169285E-01  0.51100000000E-03 0. -1.
         11    1    4    4    0    0 -0.36101612514E-01  0.45167712159E-01  0.27033477627E-01  0.63831956584E-01  0.51100000000E-03 0.  1.
</event>
<event>
 8    1  0.1022673E+005  0.1043930E+01  0.7957747E-01            NaN
         13   -1    0    0    0    0  0.00000000000E+00  0.00000000000E+00  0.74505805969E-08  0.10566000000E+00  0.10566000000E+00 0. -1.
     999900   -1    0    0    0    0 -0.00000000000E+00 -0.00000000000E+00 -0.74505805969E-08  0.93827000000E+00  0.93827000000E+00 0. -1.
     999902    2    1    2    0    0  0.22523508823E-01  0.63733716203E-02  0.22064341615E-03  0.10205210915E+01  0.10202525771E+01 0.  0.
     999903    2    3    3    0    0  0.15307749070E-01  0.63182092692E-01  0.11262244927E+00  0.13152532997E+00  0.19717817487E-01 0.  0.
         14    1    1    2    0    0 -0.22523508823E-01 -0.63733716203E-02 -0.22064341615E-03  0.23408908540E-01  0.00000000000E+00 0.  1.
     999901    1    3    3    0    0  0.72157597537E-02 -0.56808721072E-01 -0.11240180586E+00  0.88899576148E+00  0.88000000000E+00 0. -1.
        -11    1    4    4    0    0  0.43431801125E-02  0.32021597298E-01  0.73683259578E-01  0.80459491485E-01  0.51100000000E-03 0. -1.
         11    1    4    4    0    0  0.10964568957E-01  0.31160495395E-01  0.38939189694E-01  0.51065838490E-01  0.51100000000E-03 0.  1.
</event>
<event>
 8    1  0.1022673E+005  0.1043930E+01  0.7957747E-01            NaN
         13   -1    0    0    0    0  0.00000000000E+00  0.00000000000E+00  0.74505805969E-08  0.10566000000E+00  0.10566000000E+00 0.  1.
     999900   -1    0    0    0    0 -0.00000000000E+00 -0.00000000000E+00 -0.74505805969E-08  0.93827000000E+00  0.93827000000E+00 0.  1.
     999902    2    1    2    0    0 -0.27419374067E-02 -0.13822355367E-01  0.18960678425E-01  0.10203062184E+01  0.10200326938E+01 0.  0.
     999903    2    3    3    0    0  0.36365991851E-03  0.18915218796E-01  0.12985742240E+00  0.13273679506E+00  0.19954670165E-01 0.  0.
         14    1    1    2    0    0  0.27419374067E-02  0.13822355367E-01 -0.18960678425E-01  0.23623781556E-01  0.00000000000E+00 0. -1.
     999901    1    3    3    0    0 -0.31055973252E-02 -0.32737574163E-01 -0.11089674397E+00  0.88756942338E+00  0.88000000000E+00 0.  1.
        -11    1    4    4    0    0 -0.94808306635E-02  0.83383098222E-02  0.71981327277E-01  0.73082050863E-01  0.51100000000E-03 0. -1.
         11    1    4    4    0    0  0.98444905821E-02  0.10576908974E-01  0.57876095121E-01  0.59654744201E-01  0.51100000000E-03 0.  1.
</event>
<event>
 8    1  0.1022673E+005  0.1043930E+01  0.7957747E-01            NaN
         13   -1    0    0    0    0  0.00000000000E+00  0.00000000000E+00  0.74505805969E-08  0.10566000000E+00  0.10566000000E+00 0. -1.
     999900   -1    0    0    0    0 -0.00000000000E+00 -0.00000000000E+00 -0.74505805969E-08  0.93827000000E+00  0.93827000000E+00 0.  1.
     999902    2    1    2    0    0 -0.12137344297E-01  0.99527925852E-02  0.17494667909E-01  0.10204260299E+01  0.10201553048E+01 0.  0.
     999903    2    3    3    0    0 -0.93632051521E-01  0.48228073805E-01  0.78989804043E-01  0.13369718956E+00  0.23294659880E-01 0.  0.
         14    1    1    2    0    0  0.12137344297E-01 -0.99527925852E-02 -0.17494667909E-01  0.23503970135E-01  0.00000000000E+00 0.  1.
     999901    1    3    3    0    0  0.81494707224E-01 -0.38275281219E-01 -0.61495136134E-01  0.88672884030E+00  0.88000000000E+00 0. -1.
        -11    1    4    4    0    0 -0.59137026040E-01  0.41119860572E-01  0.46194465914E-01  0.85569974784E-01  0.51100000000E-03 0.  1.
         11    1    4    4    0    0 -0.34495025481E-01  0.71082132321E-02  0.32795338129E-01  0.48127214778E-01  0.51100000000E-03 0. -1.
</event>
<event>
 8    1  0.1022673E+005  0.1043930E+01  0.7957747E-01            NaN
         13   -1    0    0    0    0  0.00000000000E+00  0.00000000000E+00  0.74505805969E-08  0.10566000000E+00  0.10566000000E+00 0.  1.
     999900   -1    0    0    0    0 -0.00000000000E+00 -0.00000000000E+00 -0.74505805969E-08  0.93827000000E+00  0.93827000000E+00 0.  1.
     999902    2    1    2    0    0  0.22407790266E-01 -0.59424933216E-02  0.10494714873E-02  0.10207238870E+01  0.10204600579E+01 0.  0.
     999903    2    3    3    0    0  0.11213088074E+00  0.64842098310E-01 -0.22287197508E-01  0.13302726566E+00  0.20535386684E-01 0.  0.
         14    1    1    2    0    0 -0.22407790266E-01  0.59424933216E-02 -0.10494714873E-02  0.23206113028E-01  0.00000000000E+00 0. -1.
     999901    1    3    3    0    0 -0.89723090474E-01 -0.70784591632E-01  0.23336668995E-01  0.88769662132E+00  0.88000000000E+00 0. -1.
        -11    1    4    4    0    0  0.65690400525E-01  0.45152987100E-01 -0.21558614425E-01  0.82577575298E-01  0.51100000000E-03 0.  1.
         11    1    4    4    0    0  0.46440480215E-01  0.19689111209E-01 -0.72858308299E-03  0.50449690357E-01  0.51100000000E-03 0. -1.
</event>
<event>
 8    1  0.1022673E+005  0.1043930E+01  0.7957747E-01            NaN
         13   -1    0    0    0    0  0.00000000000E+00  0.00000000000E+00  0.74505805969E-08  0.10566000000E+00  0.10566000000E+00 0.  1.
     999900   -1    0    0    0    0 -0.00000000000E+00 -0.00000000000E+00 -0.74505805969E-08  0.93827000000E+00  0.93827000000E+00 0.  1.
     999902    2    1    2    0    0  0.11175172536E-01 -0.10203699336E-01  0.16710013962E-01  0.10213861643E+01  0.10211373424E+01 0.  0.
     999903    2    3    3    0    0  0.60104713672E-01 -0.82926737818E-01  0.86016739907E-01  0.13432012246E+00  0.12393357242E-01 0.  0.
         14    1    1    2    0    0 -0.11175172536E-01  0.10203699336E-01 -0.16710013962E-01  0.22543835697E-01  0.00000000000E+00 0. -1.
     999901    1    3    3    0    0 -0.48929541137E-01  0.72723038481E-01 -0.69306725946E-01  0.88706604184E+00  0.88000000000E+00 0.  1.
        -11    1    4    4    0    0  0.25489032405E-01 -0.25897458529E-01  0.33320446187E-01  0.49303979416E-01  0.51100000000E-03 0. -1.
         11    1    4    4    0    0  0.34615681267E-01 -0.57029279289E-01  0.52696293721E-01  0.85016143048E-01  0.51100000000E-03 0.  1.
</event>
<event>
 8    1  0.1022673E+005  0.1043930E+01  0.7957747E-01            NaN
         13   -1    0    0    0    0  0.00000000000E+00  0.00000000000E+00  0.74505805969E-08  0.10566000000E+00  0.10566000000E+00 0.  1.
     999900   -1    0    0    0    0 -0.00000000000E+00 -0.00000000000E+00 -0.74505805969E-08  0.93827000000E+00  0.93827000000E+00 0. -1.
     999902    2    1    2    0    0  0.43869543487E-02  0.23562703605E-01 -0.61180253840E-02  0.10191938604E+01  0.10188936394E+01 0.  0.
     999903    2    3    3    0    0  0.12587126771E+00 -0.60832749856E-02 -0.26130926910E-01  0.13012814925E+00  0.19233502438E-01 0.  0.
         14    1    1    2    0    0 -0.43869543487E-02 -0.23562703605E-01  0.61180253840E-02  0.24736139639E-01  0.00000000000E+00 0.  1.
     999901    1    3    3    0    0 -0.12148431337E+00  0.29645978591E-01  0.20012901526E-01  0.88906571111E+00  0.88000000000E+00 0.  1.
        -11    1    4    4    0    0  0.86983613865E-01 -0.12417596494E-01 -0.14596277668E-01  0.89071085243E-01  0.51100000000E-03 0. -1.
         11    1    4    4    0    0  0.38887653850E-01  0.63343215079E-02 -0.11534649242E-01  0.41057064009E-01  0.51100000000E-03 0.  1.
</event>
<event>
 8    1  0.1022673E+005  0.1043930E+01  0.7957747E-01            NaN
         13   -1    0    0    0    0  0.00000000000E+00  0.00000000000E+00  0.74505805969E-08  0.10566000000E+00  0.10566000000E+00 0.  1.
     999900   -1    0    0    0    0 -0.00000000000E+00 -0.00000000000E+00 -0.74505805969E-08  0.93827000000E+00  0.93827000000E+00 0. -1.
     999902    2    1    2    0    0  0.70120707187E-02  0.10780645959E-01  0.19979983835E-01  0.10201688717E+01  0.10198921196E+01 0.  0.
     999903    2    3    3    0    0 -0.79585152729E-02  0.98029184386E-01 -0.82553993084E-01  0.12980397892E+00  0.18996110482E-01 0.  0.
         14    1    1    2    0    0 -0.70120707187E-02 -0.10780645959E-01 -0.19979983835E-01  0.23761128279E-01  0.00000000000E+00 0. -1.
     999901    1    3    3    0    0  0.14970585992E-01 -0.87248538428E-01  0.10253397692E+00  0.89036489280E+00  0.88000000000E+00 0.  1.
        -11    1    4    4    0    0 -0.13332505007E-01  0.77594316585E-01 -0.60830101170E-01  0.99494703304E-01  0.51100000000E-03 0. -1.
         11    1    4    4    0    0  0.53739897343E-02  0.20434867801E-01 -0.21723891914E-01  0.30309275620E-01  0.51100000000E-03 0.  1.
</event>
<event>
 8    1  0.1022673E+005  0.1043930E+01  0.7957747E-01            NaN
         13   -1    0    0    0    0  0.00000000000E+00  0.00000000000E+00  0.74505805969E-08  0.10566000000E+00  0.10566000000E+00 0.  1.
     999900   -1    0    0    0    0 -0.00000000000E+00 -0.00000000000E+00 -0.74505805969E-08  0.93827000000E+00  0.93827000000E+00 0. -1.
     999902    2    1    2    0    0 -0.15592712613E-01  0.15609327396E-01 -0.85161498640E-02  0.10202802939E+01  0.10200061615E+01 0.  0.
     999903    2    3    3    0    0  0.41138238822E-01 -0.10376857979E+00  0.58929449962E-01  0.12785752724E+00  0.20361590216E-01 0.  0.
         14    1    1    2    0    0  0.15592712613E-01 -0.15609327396E-01  0.85161498640E-02  0.23649706064E-01  0.00000000000E+00 0.  1.
     999901    1    3    3    0    0 -0.56730951435E-01  0.11937790718E+00 -0.67445599826E-01  0.89242276669E+00  0.88000000000E+00 0.  1.
        -11    1    4    4    0    0  0.17888861879E-01 -0.69894266162E-01  0.41426712168E-01  0.83196474828E-01  0.51100000000E-03 0. -1.
         11    1    4    4    0    0  0.23249376943E-01 -0.33874313623E-01  0.17502737794E-01  0.44661052417E-01  0.51100000000E-03 0.  1.
</event>
<event>
 8    1  0.1022673E+005  0.1043930E+01  0.7957747E-01            NaN
         13   -1    0    0    0    0  0.00000000000E+00  0.00000000000E+00  0.74505805969E-08  0.10566000000E+00  0.10566000000E+00 0. -1.
     999900   -1    0    0    0    0 -0.00000000000E+00 -0.00000000000E+00 -0.74505805969E-08  0.93827000000E+00  0.93827000000E+00 0. -1.
     999902    2    1    2    0    0 -0.14038972992E-01 -0.15181237514E-01 -0.11021946373E-01  0.10204982686E+01  0.10202292243E+01 0.  0.
     999903    2    3    3    0    0  0.24606737672E-01  0.36568303644E-01  0.11922838888E+00  0.12856965272E+00  0.19287677842E-01 0.  0.
         14    1    1    2    0    0  0.14038972992E-01  0.15181237514E-01  0.11021946373E-01  0.23431731412E-01  0.00000000000E+00 0. -1.
     999901    1    3    3    0    0 -0.38645710664E-01 -0.51749541158E-01 -0.13025033525E+00  0.89192861586E+00  0.88000000000E+00 0. -1.
        -11    1    4    4    0    0  0.48164451643E-02  0.10905553762E-01  0.58793165546E-01  0.59991888475E-01  0.51100000000E-03 0. -1.
         11    1    4    4    0    0  0.19790292508E-01  0.25662749882E-01  0.60435223334E-01  0.68577764250E-01  0.51100000000E-03 0.  1.
</event>
<event>
 8    1  0.1022673E+005  0.1043930E+01  0.7957747E-01            NaN
         13   -1    0    0    0    0  0.00000000000E+00  0.00000000000E+00  0.74505805969E-08  0.10566000000E+00  0.10566000000E+00 0.  1.
     999900   -1    0    0    0    0 -0.00000000000E+00 -0.00000000000E+00 -0.74505805969E-08  0.93827000000E+00  0.93827000000E+00 0. -1.
     999902    2    1    2    0    0 -0.26805921711E-02  0.10625446904E-01 -0.19171016246E-01  0.10218480264E+01  0.10216094045E+01 0.  0.
     999903    2    3    3    0    0 -0.12707691633E+00  0.10294535453E-02  0.28667695890E-01  0.13176091212E+00  0.19735722335E-01 0.  0.
         14    1    1    2    0    0  0.26805921711E-02 -0.10625446904E-01  0.19171016246E-01  0.22081973648E-01  0.00000000000E+00 0.  1.
     999901    1    3    3    0    0  0.12439632416E+00  0.95959933585E-02 -0.47838712135E-01  0.89008711424E+00  0.88000000000E+00 0.  1.
        -11    1    4    4    0    0 -0.67423276322E-01 -0.59221349027E-02  0.75845966294E-02  0.68108421644E-01  0.51100000000E-03 0. -1.
         11    1    4    4    0    0 -0.59653640005E-01  0.69515884481E-02  0.21083099260E-01  0.63652490471E-01  0.51100000000E-03 0.  1.
</event>
<event>
 8    1  0.1022673E+005  0.1043930E+01  0.7957747E-01            NaN
         13   -1    0    0    0    0  0.00000000000E+00  0.00000000000E+00  0.74505805969E-08  0.10566000000E+00  0.10566000000E+00 0. -1.
     999900   -1    0    0    0    0 -0.00000000000E+00 -0.00000000000E+00 -0.74505805969E-08  0.93827000000E+00  0.93827000000E+00 0. -1.
     999902    2    1    2    0    0 -0.13546254903E-01  0.10143689183E-01  0.16238861171E-01  0.10204758732E+01  0.10202063084E+01 0.  0.
     999903    2    3    3    0    0 -0.42379837235E-01 -0.81359210141E-01 -0.88747352124E-01  0.12905775523E+00  0.19090311589E-01 0.  0.
         14    1    1    2    0    0  0.13546254903E-01 -0.10143689183E-01 -0.16238861171E-01  0.23454126807E-01  0.00000000000E+00 0.  1.
     999901    1    3    3    0    0  0.28833582333E-01  0.91502899324E-01  0.10498621330E+00  0.89141811797E+00  0.88000000000E+00 0.  1.
        -11    1    4    4    0    0 -0.53933487692E-02 -0.13432824314E-01 -0.24715551947E-01  0.28646965093E-01  0.51100000000E-03 0.  1.
         11    1    4    4    0    0 -0.36986488466E-01 -0.67926385827E-01 -0.64031800177E-01  0.10041079013E+00  0.51100000000E-03 0. -1.
</event>
<event>
 8    1  0.1022673E+005  0.1043930E+01  0.7957747E-01            NaN
         13   -1    0    0    0    0  0.00000000000E+00  0.00000000000E+00  0.74505805969E-08  0.10566000000E+00  0.10566000000E+00 0. -1.
     999900   -1    0    0    0    0 -0.00000000000E+00 -0.00000000000E+00 -0.74505805969E-08  0.93827000000E+00  0.93827000000E+00 0. -1.
     999902    2    1    2    0    0  0.21557309922E-01  0.25905027205E-02  0.78073499238E-02  0.10208565731E+01  0.10205957867E+01 0.  0.
     999903    2    3    3    0    0  0.11803525642E+00 -0.17181187590E-01 -0.55746293540E-01  0.13308521770E+00  0.19403890391E-01 0.  0.
         14    1    1    2    0    0 -0.21557309922E-01 -0.25905027205E-02 -0.78073499238E-02  0.23073426885E-01  0.00000000000E+00 0. -1.
     999901    1    3    3    0    0 -0.96477946496E-01  0.19771690310E-01  0.63553643463E-01  0.88777135541E+00  0.88000000000E+00 0. -1.
        -11    1    4    4    0    0  0.73322643566E-01 -0.11339629683E-01 -0.44827915587E-01  0.86686794829E-01  0.51100000000E-03 0. -1.
         11    1    4    4    0    0  0.44712612851E-01 -0.58415579068E-02 -0.10918377952E-01  0.46398422871E-01  0.51100000000E-03 0.  1.
</event>
<event>
 8    1  0.1022673E+005  0.1043930E+01  0.7957747E-01            NaN
         13   -1    0    0    0    0  0.00000000000E+00  0.00000000000E+00  0.74505805969E-08  0.10566000000E+00  0.10566000000E+00 0.  1.
     999900   -1    0    0    0    0 -0.00000000000E+00 -0.00000000000E+00 -0.74505805969E-08  0.93827000000E+00  0.93827000000E+00 0. -1.
     999902    2    1    2    0    0 -0.93727338750E-02 -0.90830179687E-02  0.15949498934E-01  0.10233208789E+01  0.10231133297E+01 0.  0.
     999903    2    3    3    0    0  0.39439254228E-01  0.69602405425E-01  0.10547224315E+00  0.13394563315E+00  0.20422755716E-01 0.  0.
         14    1    1    2    0    0  0.93727338750E-02  0.90830179687E-02 -0.15949498934E-01  0.20609121087E-01  0.00000000000E+00 0. -1.
     999901    1    3    3    0    0 -0.48811988103E-01 -0.78685423393E-01 -0.89522744215E-01  0.88937524576E+00  0.88000000000E+00 0.  1.
        -11    1    4    4    0    0  0.35913156914E-01  0.61688817803E-01  0.80923741663E-01  0.10790819323E+00  0.51100000000E-03 0. -1.
         11    1    4    4    0    0  0.35260973147E-02  0.79135876220E-02  0.24548501486E-01  0.26037439919E-01  0.51100000000E-03 0.  1.
</event>
<event>
 8    1  0.1022673E+005  0.1043930E+01  0.7957747E-01            NaN
         13   -1    0    0    0    0  0.00000000000E+00  0.00000000000E+00  0.74505805969E-08  0.10566000000E+00  0.10566000000E+00 0.  1.
     999900   -1    0    0    0    0 -0.00000000000E+00 -0.00000000000E+00 -0.74505805969E-08  0.93827000000E+00  0.93827000000E+00 0. -1.
     999902    2    1    2    0    0  0.71311072141E-02  0.22071255084E-01 -0.57674146994E-02  0.10200290363E+01  0.10197489784E+01 0.  0.
     999903    2    3    3    0    0  0.41718853027E-01  0.28360914073E-01  0.11875455324E+00  0.13056763052E+00  0.20011448706E-01 0.  0.
         14    1    1    2    0    0 -0.71311072141E-02 -0.22071255084E-01  0.57674146994E-02  0.23900963650E-01  0.00000000000E+00 0.  1.
     999901    1    3    3    0    0 -0.34587745813E-01 -0.62896589891E-02 -0.12452196793E+00  0.88946140583E+00  0.88000000000E+00 0. -1.
        -11    1    4    4    0    0  0.41682619629E-01  0.20625263979E-01  0.10258313703E+00  0.11263393546E+00  0.51100000000E-03 0. -1.
         11    1    4    4    0    0  0.36233397381E-04  0.77356500940E-02  0.16171416204E-01  0.17933695053E-01  0.51100000000E-03 0.  1.
</event>
<event>
 7    1  0.1022673E+005  0.1043930E+01  0.7957747E-01            NaN
         13   -1    0    0    0    0  0.00000000000E+00  0.00000000000E+00  0.74505805969E-08  0.10566000000E+00  0.10566000000E+00 0. -1.
     999900   -1    0    0    0    0 -0.00000000000E+00 -0.00000000000E+00 -0.74505805969E-08  0.93827000000E+00  0.93827000000E+00 0. -1.
     999903    2    1    2    0    0 -0.76758398816E-01 -0.51539563711E-01  0.59027066780E-01  0.11160402482E+00  0.20569038078E-01 0.  0.
         14    1    1    2    0    0  0.20433039843E-01  0.30869081109E-01 -0.33479979708E-01  0.49913107767E-01  0.00000000000E+00 0.  1.
     999901    1    1    2    0    0  0.56325358973E-01  0.20670482602E-01 -0.25547087072E-01  0.88241286741E+00  0.88000000000E+00 0. -1.
        -11    1    3    3    0    0 -0.36421668020E-01 -0.33388523238E-01  0.22761455522E-01  0.54402907678E-01  0.51100000000E-03 0.  1.
         11    1    3    3    0    0 -0.40336730796E-01 -0.18151040473E-01  0.36265611258E-01  0.57201117143E-01  0.51100000000E-03 0. -1.
</event>
<event>
 8    1  0.1022673E+005  0.1043930E+01  0.7957747E-01            NaN
         13   -1    0    0    0    0  0.00000000000E+00  0.00000000000E+00  0.74505805969E-08  0.10566000000E+00  0.10566000000E+00 0.  1.
     999900   -1    0    0    0    0 -0.00000000000E+00 -0.00000000000E+00 -0.74505805969E-08  0.93827000000E+00  0.93827000000E+00 0.  1.
     999902    2    1    2    0    0 -0.10392590520E-01  0.10515014481E-02 -0.20798250907E-01  0.10206560052E+01  0.10203906125E+01 0.  0.
     999903    2    3    3    0    0  0.79812754257E-01 -0.56193526555E-01  0.80991204969E-01  0.12836956533E+00  0.19783373102E-01 0.  0.
         14    1    1    2    0    0  0.10392590520E-01 -0.10515014481E-02  0.20798250907E-01  0.23273994797E-01  0.00000000000E+00 0.  1.
     999901    1    3    3    0    0 -0.90205344777E-01  0.57245028003E-01 -0.10178945588E+00  0.89228643988E+00  0.88000000000E+00 0.  1.
        -11    1    4    4    0    0  0.20562111668E-01 -0.19837098867E-01  0.13977059127E-01  0.31810850830E-01  0.51100000000E-03 0. -1.
         11    1    4    4    0    0  0.59250642589E-01 -0.36356427688E-01  0.67014145842E-01  0.96558714497E-01  0.51100000000E-03 0.  1.
</event>
<event>
 8    1  0.1022673E+005  0.1043930E+01  0.7957747E-01            NaN
         13   -1    0    0    0    0  0.00000000000E+00  0.00000000000E+00  0.74505805969E-08  0.10566000000E+00  0.10566000000E+00 0. -1.
     999900   -1    0    0    0    0 -0.00000000000E+00 -0.00000000000E+00 -0.74505805969E-08  0.93827000000E+00  0.93827000000E+00 0.  1.
     999902    2    1    2    0    0  0.14042855287E-01 -0.93903939771E-02 -0.25959358521E-02  0.10268384768E+01  0.10266962244E+01 0.  0.
     999903    2    3    3    0    0 -0.11749271364E+00  0.12631665329E-01  0.61032202998E-01  0.13451840132E+00  0.20153753085E-01 0.  0.
         14    1    1    2    0    0 -0.14042855287E-01  0.93903939771E-02  0.25959358521E-02  0.17091523239E-01  0.00000000000E+00 0. -1.
     999901    1    3    3    0    0  0.13153556892E+00 -0.22022059306E-01 -0.63628138850E-01  0.89232007544E+00  0.88000000000E+00 0. -1.
        -11    1    4    4    0    0 -0.58336240677E-01  0.15159645066E-01  0.25383040929E-01  0.65402535904E-01  0.51100000000E-03 0.  1.
         11    1    4    4    0    0 -0.59156472959E-01 -0.25279797378E-02  0.35649162068E-01  0.69115865413E-01  0.51100000000E-03 0. -1.
</event>
<event>
 8    1  0.1022673E+005  0.1043930E+01  0.7957747E-01            NaN
         13   -1    0    0    0    0  0.00000000000E+00  0.00000000000E+00  0.74505805969E-08  0.10566000000E+00  0.10566000000E+00 0. -1.
     999900   -1    0    0    0    0 -0.00000000000E+00 -0.00000000000E+00 -0.74505805969E-08  0.93827000000E+00  0.93827000000E+00 0. -1.
     999902    2    1    2    0    0 -0.20824265338E-01  0.11164213840E-04  0.88803238699E-02  0.10212913096E+01  0.10210403659E+01 0.  0.
     999903    2    3    3    0    0  0.99144587591E-01  0.53656976624E-01  0.61576997859E-01  0.12997355575E+00  0.19816108076E-01 0.  0.
         14    1    1    2    0    0  0.20824265338E-01 -0.11164213840E-04 -0.88803238699E-02  0.22638690412E-01  0.00000000000E+00 0.  1.
     999901    1    3    3    0    0 -0.11996885293E+00 -0.53645812410E-01 -0.52696673989E-01  0.89131775384E+00  0.88000000000E+00 0.  1.
        -11    1    4    4    0    0  0.96946983654E-02  0.85723617042E-02  0.14021579798E-01  0.19087650002E-01  0.51100000000E-03 0.  1.
         11    1    4    4    0    0  0.89449889226E-01  0.45084614920E-01  0.47555418061E-01  0.11088590575E+00  0.51100000000E-03 0. -1.
</event>
<event>
 8    1  0.1022673E+005  0.1043930E+01  0.7957747E-01            NaN
         13   -1    0    0    0    0  0.00000000000E+00  0.00000000000E+00  0.74505805969E-08  0.10566000000E+00  0.10566000000E+00 0.  1.
     999900   -1    0    0    0    0 -0.00000000000E+00 -0.00000000000E+00 -0.74505805969E-08  0.93827000000E+00  0.93827000000E+00 0.  1.
     999902    2    1    2    0    0  0.96349501452E-02  0.14654327027E-01  0.16168488252E-01  0.10200762461E+01  0.10197973064E+01 0.  0.
     999903    2    3    3    0    0 -0.53298852076E-01  0.11839975423E+00  0.81519597385E-02  0.13171368389E+00  0.20561387140E-01 0.  0.
         14    1    1    2    0    0 -0.96349501452E-02 -0.14654327027E-01 -0.16168488252E-01  0.23853753945E-01  0.00000000000E+00 0. -1.
     999901    1    3    3    0    0  0.62933802221E-01 -0.10374542721E+00  0.80165285132E-02  0.88836256217E+00  0.88000000000E+00 0. -1.
        -11    1    4    4    0    0 -0.52812141934E-02  0.15510888268E-01 -0.56388156323E-02  0.17335981108E-01  0.51100000000E-03 0.  1.
         11    1    4    4    0    0 -0.48017637882E-01  0.10288886597E+00  0.13790775371E-01  0.11437770278E+00  0.51100000000E-03 0. -1.
</event>
<event>
 8    1  0.1140286E+005  0.1043930E+01  0.7957747E-01            NaN
         13   -1    0    0    0    0  0.00000000000E+00  0.00000000000E+00  0.74505805969E-08  0.10566000000E+00  0.10566000000E+00 0.  1.
     999900   -1    0    0    0    0 -0.00000000000E+00 -0.00000000000E+00 -0.74505805969E-08  0.93827000000E+00  0.93827000000E+00 0. -1.
     999902    2    1    2    0    0 -0.11140936566E-01  0.65102893990E-02 -0.21979261797E-01  0.10184428996E+01  0.10181239353E+01 0.  0.
     999903    2    3    3    0    0 -0.34911025225E-01 -0.75092084464E-01  0.94055739546E-01  0.12676577979E+00  0.19117529957E-01 0.  0.
         14    1    1    2    0    0  0.11140936566E-01 -0.65102893990E-02  0.21979261797E-01  0.25487100360E-01  0.00000000000E+00 0.  1.
     999901    1    3    3    0    0  0.23770088659E-01  0.81602373863E-01 -0.11603500134E+00  0.89167711985E+00  0.88000000000E+00 0. -1.
        -11    1    4    4    0    0 -0.19824119065E-01 -0.57091491398E-01  0.58234909131E-01  0.83928540135E-01  0.51100000000E-03 0.  1.
         11    1    4    4    0    0 -0.15086906160E-01 -0.18000593066E-01  0.35820830416E-01  0.42837239651E-01  0.51100000000E-03 0. -1.
</event>
<event>
 8    1  0.1022673E+005  0.1043930E+01  0.7957747E-01            NaN
         13   -1    0    0    0    0  0.00000000000E+00  0.00000000000E+00  0.74505805969E-08  0.10566000000E+00  0.10566000000E+00 0. -1.
     999900   -1    0    0    0    0 -0.00000000000E+00 -0.00000000000E+00 -0.74505805969E-08  0.93827000000E+00  0.93827000000E+00 0.  1.
     999902    2    1    2    0    0 -0.33537537814E-02 -0.14070384167E-02  0.23708282282E-01  0.10199443778E+01  0.10196623087E+01 0.  0.
     999903    2    3    3    0    0  0.92167091432E-01  0.46517250541E-02 -0.86390555188E-01  0.12793389893E+00  0.19681036038E-01 0.  0.
         14    1    1    2    0    0  0.33537537814E-02  0.14070384167E-02 -0.23708282282E-01  0.23985622158E-01  0.00000000000E+00 0.  1.
     999901    1    3    3    0    0 -0.95520845214E-01 -0.60587634709E-02  0.11009883747E+00  0.89201047892E+00  0.88000000000E+00 0. -1.
        -11    1    4    4    0    0  0.60221883622E-01 -0.25737322028E-02 -0.45401807110E-01  0.75464459015E-01  0.51100000000E-03 0.  1.
         11    1    4    4    0    0  0.31945207810E-01  0.72254572570E-02 -0.40988748077E-01  0.52469439910E-01  0.51100000000E-03 0. -1.
</event>
<event>
 8    1  0.1022673E+005  0.1043930E+01  0.7957747E-01            NaN
         13   -1    0    0    0    0  0.00000000000E+00  0.00000000000E+00  0.74505805969E-08  0.10566000000E+00  0.10566000000E+00 0.  1.
     999900   -1    0    0    0    0 -0.00000000000E+00 -0.00000000000E+00 -0.74505805969E-08  0.93827000000E+00  0.93827000000E+00 0. -1.
     999902    2    1    2    0    0  0.99885903784E-02 -0.64432887729E-02  0.20019230185E-01  0.10206478720E+01  0.10203822916E+01 0.  0.
     999903    2    3    3    0    0  0.13613060012E-01  0.81337412092E-01 -0.96563866428E-01  0.12862197177E+00  0.20443613046E-01 0.  0.
         14    1    1    2    0    0 -0.99885903784E-02  0.64432887729E-02 -0.20019230185E-01  0.23282128020E-01  0.00000000000E+00 0. -1.
     999901    1    3    3    0    0 -0.36244696336E-02 -0.87780700865E-01  0.11658309661E+00  0.89202590021E+00  0.88000000000E+00 0.  1.
        -11    1    4    4    0    0  0.21532816224E-02  0.26551261161E-01 -0.46164429955E-01  0.53301236431E-01  0.51100000000E-03 0.  1.
         11    1    4    4    0    0  0.11459778390E-01  0.54786150932E-01 -0.50399436473E-01  0.75320735342E-01  0.51100000000E-03 0. -1.
</event>
<event>
 8    1  0.1022673E+005  0.1043930E+01  0.7957747E-01            NaN
         13   -1    0    0    0    0  0.00000000000E+00  0.00000000000E+00  0.74505805969E-08  0.10566000000E+00  0.10566000000E+00 0. -1.
     999900   -1    0    0    0    0 -0.00000000000E+00 -0.00000000000E+00 -0.74505805969E-08  0.93827000000E+00  0.93827000000E+00 0. -1.
     999902    2    1    2    0    0 -0.19466179706E-01  0.88583196217E-02 -0.95419429556E-02  0.10205109767E+01  0.10202422275E+01 0.  0.
     999903    2    3    3    0    0  0.10391089412E+00  0.70052151303E-01  0.24616295685E-01  0.12914496169E+00  0.19175017497E-01 0.  0.
         14    1    1    2    0    0  0.19466179706E-01 -0.88583196217E-02  0.95419429556E-02  0.23419023341E-01  0.00000000000E+00 0. -1.
     999901    1    3    3    0    0 -0.12337707383E+00 -0.61193831682E-01 -0.34158238641E-01  0.89136601497E+00  0.88000000000E+00 0. -1.
        -11    1    4    4    0    0  0.61934688650E-01  0.41802552258E-01  0.24197253621E-01  0.78543791844E-01  0.51100000000E-03 0. -1.
         11    1    4    4    0    0  0.41976205473E-01  0.28249599046E-01  0.41904206411E-03  0.50601169842E-01  0.51100000000E-03 0.  1.
</event>
<event>
 8    1  0.1022673E+005  0.1043930E+01  0.7957747E-01            NaN
         13   -1    0    0    0    0  0.00000000000E+00  0.00000000000E+00  0.74505805969E-08  0.10566000000E+00  0.10566000000E+00 0.  1.
     999900   -1    0    0    0    0 -0.00000000000E+00 -0.00000000000E+00 -0.74505805969E-08  0.93827000000E+00  0.93827000000E+00 0.  1.
     999902    2    1    2    0    0  0.10844465654E-01  0.19264518842E-01  0.12230084680E-01  0.10186654182E+01  0.10183520684E+01 0.  0.
     999903    2    3    3    0    0  0.11087213213E+00 -0.50197628163E-01  0.40486655540E-01  0.12982968664E+00  0.20103400179E-01 0.  0.
         14    1    1    2    0    0 -0.10844465654E-01 -0.19264518842E-01 -0.12230084680E-01  0.25264581786E-01  0.00000000000E+00 0. -1.
     999901    1    3    3    0    0 -0.10002766648E+00  0.69462147005E-01 -0.28256570860E-01  0.88883573158E+00  0.88000000000E+00 0. -1.
        -11    1    4    4    0    0  0.61603562962E-01 -0.16886282148E-01  0.20574889676E-01  0.67109855465E-01  0.51100000000E-03 0.  1.
         11    1    4    4    0    0  0.49268569172E-01 -0.33311346016E-01  0.19911765865E-01  0.62719831174E-01  0.51100000000E-03 0. -1.
</event>
<event>
 8    1  0.1022673E+005  0.1043930E+01  0.7957747E-01            NaN
         13   -1    0    0    0    0  0.00000000000E+00  0.00000000000E+00  0.74505805969E-08  0.10566000000E+00  0.10566000000E+00 0.  1.
     999900   -1    0    0    0    0 -0.00000000000E+00 -0.00000000000E+00 -0.74505805969E-08  0.93827000000E+00  0.93827000000E+00 0. -1.
     999902    2    1    2    0    0  0.17850053554E-01  0.10951673544E-01  0.10827414671E-01  0.10203546639E+01  0.10200822730E+01 0.  0.
     999903    2    3    3    0    0  0.12205285311E+00 -0.22539734104E-01 -0.40615647918E-01  0.13208314766E+00  0.19783540468E-01 0.  0.
         14    1    1    2    0    0 -0.17850053554E-01 -0.10951673544E-01 -0.10827414671E-01  0.23575336132E-01  0.00000000000E+00 0.  1.
     999901    1    3    3    0    0 -0.10420279956E+00  0.33491407648E-01  0.51443062589E-01  0.88827151621E+00  0.88000000000E+00 0.  1.
        -11    1    4    4    0    0  0.28384982471E-01 -0.22052096192E-02 -0.17709996210E-01  0.33533196479E-01  0.51100000000E-03 0. -1.
         11    1    4    4    0    0  0.93667870639E-01 -0.20334524485E-01 -0.22905651708E-01  0.98549951179E-01  0.51100000000E-03 0.  1.
</event>
<event>
 8    1  0.1022673E+005  0.1043930E+01  0.7957747E-01            NaN
         13   -1    0    0    0    0  0.00000000000E+00  0.00000000000E+00  0.74505805969E-08  0.10566000000E+00  0.10566000000E+00 0. -1.
     999900   -1    0    0    0    0 -0.00000000000E+00 -0.00000000000E+00 -0.74505805969E-08  0.93827000000E+00  0.93827000000E+00 0. -1.
     999902    2    1    2    0    0 -0.13110501988E-01  0.18934244899E-01 -0.47597323025E-02  0.10204130711E+01  0.10201420439E+01 0.  0.
     999903    2    3    3    0    0 -0.10092485150E+00  0.83934941203E-01 -0.88473987409E-02  0.13364751049E+00  0.23504905681E-01 0.  0.
         14    1    1    2    0    0  0.13110501988E-01 -0.18934244899E-01  0.47597323025E-02  0.23516928878E-01  0.00000000000E+00 0. -1.
     999901    1    3    3    0    0  0.87814349515E-01 -0.65000696304E-01  0.40876664384E-02  0.88676556063E+00  0.88000000000E+00 0.  1.
        -11    1    4    4    0    0 -0.37586091744E-01  0.17176162675E-01 -0.25937963019E-02  0.41409223092E-01  0.51100000000E-03 0. -1.
         11    1    4    4    0    0 -0.63338759759E-01  0.66758778528E-01 -0.62536024390E-02  0.92238287402E-01  0.51100000000E-03 0.  1.
</event>
<event>
 8    1  0.1022673E+005  0.1043930E+01  0.7957747E-01            NaN
         13   -1    0    0    0    0  0.00000000000E+00  0.00000000000E+00  0.74505805969E-08  0.10566000000E+00  0.10566000000E+00 0.  1.
     999900   -1    0    0    0    0 -0.00000000000E+00 -0.00000000000E+00 -0.74505805969E-08  0.93827000000E+00  0.93827000000E+00 0.  1.
     999902    2    1    2    0    0 -0.16039410234E-01  0.19300303687E-01  0.20424821950E-02  0.10187519116E+01  0.10184407303E+01 0.  0.
     999903    2    3    3    0    0 -0.65722053003E-01  0.33546071745E-01  0.10648305977E+00  0.13107001971E+00  0.19899268076E-01 0.  0.
         14    1    1    2    0    0  0.16039410234E-01 -0.19300303687E-01 -0.20424821950E-02  0.25178088422E-01  0.00000000000E+00 0. -1.
     999901    1    3    3    0    0  0.49682642769E-01 -0.14245768058E-01 -0.10444057757E+00  0.88768189186E+00  0.88000000000E+00 0.  1.
        -11    1    4    4    0    0 -0.17722444016E-01  0.19581070405E-01  0.38128768804E-01  0.46384991879E-01  0.51100000000E-03 0. -1.
         11    1    4    4    0    0 -0.47999608987E-01  0.13965001340E-01  0.68354290963E-01  0.84685027835E-01  0.51100000000E-03 0.  1.
</event>
<event>
 8    1  0.1022673E+005  0.1043930E+01  0.7957747E-01            NaN
         13   -1    0    0    0    0  0.00000000000E+00  0.00000000000E+00  0.74505805969E-08  0.10566000000E+00  0.10566000000E+00 0.  1.
     999900   -1    0    0    0    0 -0.00000000000E+00 -0.00000000000E+00 -0.74505805969E-08  0.93827000000E+00  0.93827000000E+00 0. -1.
     999902    2    1    2    0    0  0.11318136936E-01  0.74093170517E-02  0.21178422673E-01  0.10187998629E+01  0.10184898806E+01 0.  0.
     999903    2    3    3    0    0  0.34861126796E-01 -0.59255838108E-01 -0.10493362788E+00  0.12700237213E+00  0.19798579608E-01 0.  0.
         14    1    1    2    0    0 -0.11318136936E-01 -0.74093170517E-02 -0.21178422673E-01  0.25130137082E-01  0.00000000000E+00 0. -1.
     999901    1    3    3    0    0 -0.23542989860E-01  0.66665155160E-01  0.12611205055E+00  0.89179749079E+00  0.88000000000E+00 0.  1.
        -11    1    4    4    0    0  0.32423901448E-01 -0.45742399202E-01 -0.71561081737E-01  0.90911638476E-01  0.51100000000E-03 0.  1.
         11    1    4    4    0    0  0.24372253479E-02 -0.13513438906E-01 -0.33372546144E-01  0.36090733652E-01  0.51100000000E-03 0. -1.
</event>
<event>
 8    1  0.1022673E+005  0.1043930E+01  0.7957747E-01            NaN
         13   -1    0    0    0    0  0.00000000000E+00  0.00000000000E+00  0.74505805969E-08  0.10566000000E+00  0.10566000000E+00 0. -1.
     999900   -1    0    0    0    0 -0.00000000000E+00 -0.00000000000E+00 -0.74505805969E-08  0.93827000000E+00  0.93827000000E+00 0. -1.
     999902    2    1    2    0    0  0.44315020353E-02 -0.10750507320E-01 -0.20957004695E-01  0.10199631966E+01  0.10196815752E+01 0.  0.
     999903    2    3    3    0    0 -0.85925543492E-01  0.80877941209E-01 -0.51114551811E-01  0.13009261845E+00  0.19671084638E-01 0.  0.
         14    1    1    2    0    0 -0.44315020353E-02  0.10750507320E-01  0.20957004695E-01  0.23966803369E-01  0.00000000000E+00 0. -1.
     999901    1    3    3    0    0  0.90357045527E-01 -0.91628448530E-01  0.30157547116E-01  0.88987057818E+00  0.88000000000E+00 0. -1.
        -11    1    4    4    0    0 -0.46376760776E-01  0.34166809041E-01 -0.17205957735E-01  0.60120552914E-01  0.51100000000E-03 0. -1.
         11    1    4    4    0    0 -0.39548782716E-01  0.46711132169E-01 -0.33908594076E-01  0.69972065541E-01  0.51100000000E-03 0.  1.
</event>
<event>
 8    1  0.1022673E+005  0.1043930E+01  0.7957747E-01            NaN
         13   -1    0    0    0    0  0.00000000000E+00  0.00000000000E+00  0.74505805969E-08  0.10566000000E+00  0.10566000000E+00 0.  1.
     999900   -1    0    0    0    0 -0.00000000000E+00 -0.00000000000E+00 -0.74505805969E-08  0.93827000000E+00  0.93827000000E+00 0. -1.
     999902    2    1    2    0    0 -0.90463966492E-03  0.44033855945E-03  0.23352406808E-01  0.10205559294E+01  0.10202882230E+01 0.  0.
     999903    2    3    3    0    0  0.41380955384E-01 -0.12216838592E+00  0.72848831423E-02  0.13090479771E+00  0.21106836678E-01 0.  0.
         14    1    1    2    0    0  0.90463966492E-03 -0.44033855945E-03 -0.23352406808E-01  0.23374070564E-01  0.00000000000E+00 0. -1.
     999901    1    3    3    0    0 -0.42285595049E-01  0.12260872448E+00  0.16067523666E-01  0.88965113173E+00  0.88000000000E+00 0.  1.
        -11    1    4    4    0    0  0.38947005703E-01 -0.10743556092E+00  0.12767679733E-01  0.11498932025E+00  0.51100000000E-03 0. -1.
         11    1    4    4    0    0  0.24339496803E-02 -0.14732824994E-01 -0.54827965912E-02  0.15915477461E-01  0.51100000000E-03 0.  1.
</event>
<event>
 8    1  0.1022673E+005  0.1043930E+01  0.7957747E-01            NaN
         13   -1    0    0    0    0  0.00000000000E+00  0.00000000000E+00  0.74505805969E-08  0.10566000000E+00  0.10566000000E+00 0.  1.
     999900   -1    0    0    0    0 -0.00000000000E+00 -0.00000000000E+00 -0.74505805969E-08  0.93827000000E+00  0.93827000000E+00 0.  1.
     999902    2    1    2    0    0  0.18308563478E-02  0.16287004947E-01 -0.17145509812E-01  0.10202110820E+01  0.10199353238E+01 0.  0.
     999903    2    3    3    0    0 -0.11354535462E+00  0.13597213195E-01 -0.62350066321E-01  0.13152533496E+00  0.18274331821E-01 0.  0.
         14    1    1    2    0    0 -0.18308563478E-02 -0.16287004947E-01  0.17145509812E-01  0.23718918016E-01  0.00000000000E+00 0.  1.
     999901    1    3    3    0    0  0.11537621097E+00  0.26897917523E-02  0.45204556509E-01  0.88868574703E+00  0.88000000000E+00 0. -1.
        -11    1    4    4    0    0 -0.35374151654E-01  0.93490623611E-02 -0.27787719001E-01  0.45947296118E-01  0.51100000000E-03 0.  1.
         11    1    4    4    0    0 -0.78171202966E-01  0.42481508334E-02 -0.34562347320E-01  0.85578038841E-01  0.51100000000E-03 0. -1.
</event>
<event>
 7    1  0.1022673E+005  0.1043930E+01  0.7957747E-01            NaN
         13   -1    0    0    0    0  0.00000000000E+00  0.00000000000E+00  0.74505805969E-08  0.10566000000E+00  0.10566000000E+00 0.  1.
     999900   -1    0    0    0    0 -0.00000000000E+00 -0.00000000000E+00 -0.74505805969E-08  0.93827000000E+00  0.93827000000E+00 0.  1.
     999903    2    1    2    0    0 -0.63518201593E-01 -0.56044559865E-02 -0.53759881452E-01  0.85739495386E-01  0.19878741277E-01 0.  0.
         14    1    1    2    0    0 -0.25477223081E-01 -0.61918225588E-01 -0.14495856772E-01  0.68506097681E-01  0.00000000000E+00 0. -1.
     999901    1    1    2    0    0  0.88995424675E-01  0.67522681574E-01  0.68255738224E-01  0.88968440693E+00  0.88000000000E+00 0.  1.
        -11    1    3    3    0    0 -0.53330850481E-02  0.51856844736E-02 -0.42588478798E-02  0.85867354596E-02  0.51100000000E-03 0. -1.
         11    1    3    3    0    0 -0.58185116545E-01 -0.10790140460E-01 -0.49501033572E-01  0.77152759926E-01  0.51100000000E-03 0.  1.
</event>
<event>
 8    1  0.1022673E+005  0.1043930E+01  0.7957747E-01            NaN
         13   -1    0    0    0    0  0.00000000000E+00  0.00000000000E+00  0.74505805969E-08  0.10566000000E+00  0.10566000000E+00 0. -1.
     999900   -1    0    0    0    0 -0.00000000000E+00 -0.00000000000E+00 -0.74505805969E-08  0.93827000000E+00  0.93827000000E+00 0. -1.
     999902    2    1    2    0    0  0.23553284924E-01 -0.11913083854E-02  0.24761901482E-02  0.10202169664E+01  0.10199413466E+01 0.  0.
     999903    2    3    3    0    0 -0.28219656244E-01 -0.47974793721E-02  0.12549543282E+00  0.13014552206E+00  0.19219480948E-01 0.  0.
         14    1    1    2    0    0 -0.23553284924E-01  0.11913083854E-02 -0.24761901482E-02  0.23713033632E-01  0.00000000000E+00 0. -1.
     999901    1    3    3    0    0  0.51772941168E-01  0.36061709867E-02 -0.12301924267E+00  0.89007144431E+00  0.88000000000E+00 0. -1.
        -11    1    4    4    0    0 -0.24059628872E-01 -0.10896487853E-01  0.10727022537E+00  0.11047516265E+00  0.51100000000E-03 0.  1.
         11    1    4    4    0    0 -0.41600273725E-02  0.60990084804E-02  0.18225207442E-01  0.19670359414E-01  0.51100000000E-03 0. -1.
</event>
<event>
 7    1  0.1022673E+005  0.1043930E+01  0.7957747E-01            NaN
         13   -1    0    0    0    0  0.00000000000E+00  0.00000000000E+00  0.74505805969E-08  0.10566000000E+00  0.10566000000E+00 0.  1.
     999900   -1    0    0    0    0 -0.00000000000E+00 -0.00000000000E+00 -0.74505805969E-08  0.93827000000E+00  0.93827000000E+00 0.  1.
     999903    2    1    2    0    0  0.72758111061E-03 -0.74547568967E-01 -0.62481743917E-01  0.99269640362E-01  0.19814735971E-01 0.  0.
         14    1    1    2    0    0  0.18247727206E-01 -0.23188007195E-01  0.51059838952E-01  0.58972623985E-01  0.00000000000E+00 0.  1.
     999901    1    1    2    0    0 -0.18975308317E-01  0.97735576162E-01  0.11421904965E-01  0.88568773565E+00  0.88000000000E+00 0.  1.
        -11    1    3    3    0    0  0.23266458746E-02 -0.63029219066E-01 -0.42213934249E-01  0.75897121835E-01  0.51100000000E-03 0. -1.
         11    1    3    3    0    0 -0.15990647640E-02 -0.11518349901E-01 -0.20267809668E-01  0.23372518527E-01  0.51100000000E-03 0.  1.
</event>
<event>
 8    1  0.1022673E+005  0.1043930E+01  0.7957747E-01            NaN
         13   -1    0    0    0    0  0.00000000000E+00  0.00000000000E+00  0.74505805969E-08  0.10566000000E+00  0.10566000000E+00 0. -1.
     999900   -1    0    0    0    0 -0.00000000000E+00 -0.00000000000E+00 -0.74505805969E-08  0.93827000000E+00  0.93827000000E+00 0. -1.
     999902    2    1    2    0    0 -0.10420152213E-01 -0.10512494275E-01  0.19222064742E-01  0.10196693347E+01  0.10193806807E+01 0.  0.
     999903    2    3    3    0    0 -0.15869888589E-01 -0.85054043589E-01 -0.94034499969E-01  0.12926875538E+00  0.19541756259E-01 0.  0.
         14    1    1    2    0    0  0.10420152213E-01  0.10512494275E-01 -0.19222064742E-01  0.24260665304E-01  0.00000000000E+00 0.  1.
     999901    1    3    3    0    0  0.54497363753E-02  0.74541549314E-01  0.11325656471E+00  0.89040057932E+00  0.88000000000E+00 0. -1.
        -11    1    4    4    0    0 -0.19635465524E-01 -0.70445192147E-01 -0.82662539939E-01  0.11036953037E+00  0.51100000000E-03 0.  1.
         11    1    4    4    0    0  0.37655769354E-02 -0.14608851442E-01 -0.11371960030E-01  0.18899225012E-01  0.51100000000E-03 0. -1.
</event>
<event>
 8    1  0.1022673E+005  0.1043930E+01  0.7957747E-01            NaN
         13   -1    0    0    0    0  0.00000000000E+00  0.00000000000E+00  0.74505805969E-08  0.10566000000E+00  0.10566000000E+00 0.  1.
     999900   -1    0    0    0    0 -0.00000000000E+00 -0.00000000000E+00 -0.74505805969E-08  0.93827000000E+00  0.93827000000E+00 0. -1.
     999902    2    1    2    0    0 -0.89491068541E-03  0.16116090407E-01  0.17460899881E-01  0.10201516010E+01  0.10198744416E+01 0.  0.
     999903    2    3    3    0    0  0.66669281638E-01  0.11240215953E+00 -0.89584064990E-03  0.13213533023E+00  0.19491136049E-01 0.  0.
         14    1    1    2    0    0  0.89491068541E-03 -0.16116090407E-01 -0.17460899881E-01  0.23778399017E-01  0.00000000000E+00 0. -1.
     999901    1    3    3    0    0 -0.67564192324E-01 -0.96286069123E-01  0.18356740531E-01  0.88801627075E+00  0.88000000000E+00 0.  1.
        -11    1    4    4    0    0  0.31256850727E-01  0.53771168762E-01 -0.10132655782E-01  0.63017943013E-01  0.51100000000E-03 0. -1.
         11    1    4    4    0    0  0.35412430912E-01  0.58630990768E-01  0.92368151325E-02  0.69117387221E-01  0.51100000000E-03 0.  1.
</event>
<event>
 8    1  0.1022673E+005  0.1043930E+01  0.7957747E-01            NaN
         13   -1    0    0    0    0  0.00000000000E+00  0.00000000000E+00  0.74505805969E-08  0.10566000000E+00  0.10566000000E+00 0. -1.
     999900   -1    0    0    0    0 -0.00000000000E+00 -0.00000000000E+00 -0.74505805969E-08  0.93827000000E+00  0.93827000000E+00 0. -1.
     999902    2    1    2    0    0  0.89193810478E-02 -0.21673446273E-01  0.37034672023E-02  0.10202021830E+01  0.10199262154E+01 0.  0.
     999903    2    3    3    0    0 -0.49861070843E-01  0.14084185389E-01 -0.11679766082E+00  0.12932942460E+00  0.19997895659E-01 0.  0.
         14    1    1    2    0    0 -0.89193810478E-02  0.21673446273E-01 -0.37034672023E-02  0.23727817029E-01  0.00000000000E+00 0. -1.
     999901    1    3    3    0    0  0.58780451891E-01 -0.35757631662E-01  0.12050112803E+00  0.89087275837E+00  0.88000000000E+00 0.  1.
        -11    1    4    4    0    0 -0.50156769811E-01  0.15341967582E-01 -0.10422140472E+00  0.11667664655E+00  0.51100000000E-03 0. -1.
         11    1    4    4    0    0  0.29569896789E-03 -0.12577821931E-02 -0.12576256099E-01  0.12652778050E-01  0.51100000000E-03 0.  1.
</event>
<event>
 8    1  0.1022673E+005  0.1043930E+01  0.7957747E-01            NaN
         13   -1    0    0    0    0  0.00000000000E+00  0.00000000000E+00  0.74505805969E-08  0.10566000000E+00  0.10566000000E+00 0. -1.
     999900   -1    0    0    0    0 -0.00000000000E+00 -0.00000000000E+00 -0.74505805969E-08  0.93827000000E+00  0.93827000000E+00 0. -1.
     999902    2    1    2    0    0  0.93668426810E-02 -0.64920818979E-02  0.20598410616E-01  0.10203889850E+01  0.10201173958E+01 0.  0.
     999903    2    3    3    0    0 -0.11048851929E+00  0.61183998842E-01  0.21892276005E-01  0.12968867970E+00  0.19715153703E-01 0.  0.
         14    1    1    2    0    0 -0.93668426810E-02  0.64920818979E-02 -0.20598410616E-01  0.23541015040E-01  0.00000000000E+00 0.  1.
     999901    1    3    3    0    0  0.11985536197E+00 -0.67676080740E-01 -0.12938653888E-02  0.89070030526E+00  0.88000000000E+00 0.  1.
        -11    1    4    4    0    0 -0.80719284720E-01  0.42567326650E-01  0.69321585246E-02  0.91519922239E-01  0.51100000000E-03 0. -1.
         11    1    4    4    0    0 -0.29769234569E-01  0.18616672192E-01  0.14960117481E-01  0.38168757464E-01  0.51100000000E-03 0.  1.
</event>
<event>
 8    1  0.1022673E+005  0.1043930E+01  0.7957747E-01            NaN
         13   -1    0    0    0    0  0.00000000000E+00  0.00000000000E+00  0.74505805969E-08  0.10566000000E+00  0.10566000000E+00 0. -1.
     999900   -1    0    0    0    0 -0.00000000000E+00 -0.00000000000E+00 -0.74505805969E-08  0.93827000000E+00  0.93827000000E+00 0. -1.
     999902    2    1    2    0    0 -0.17749209956E-01  0.12570347911E-01 -0.90316480766E-02  0.10203796546E+01  0.10201078476E+01 0.  0.
     999903    2    3    3    0    0 -0.99051881360E-01 -0.81729134211E-01 -0.17560386421E-01  0.13157413254E+00  0.22637548484E-01 0.  0.
         14    1    1    2    0    0  0.17749209956E-01 -0.12570347911E-01  0.90316480766E-02  0.23550345383E-01  0.00000000000E+00 0. -1.
     999901    1    3    3    0    0  0.81302671404E-01  0.94299482122E-01  0.85287383442E-02  0.88880552208E+00  0.88000000000E+00 0.  1.
        -11    1    4    4    0    0 -0.32312358025E-01 -0.40328713801E-01 -0.36078009663E-02  0.51805125101E-01  0.51100000000E-03 0. -1.
         11    1    4    4    0    0 -0.66739523335E-01 -0.41400420410E-01 -0.13952585455E-01  0.79769007434E-01  0.51100000000E-03 0.  1.
</event>
<event>
 8    1  0.1022673E+005  0.1043930E+01  0.7957747E-01            NaN
         13   -1    0    0    0    0  0.00000000000E+00  0.00000000000E+00  0.74505805969E-08  0.10566000000E+00  0.10566000000E+00 0. -1.
     999900   -1    0    0    0    0 -0.00000000000E+00 -0.00000000000E+00 -0.74505805969E-08  0.93827000000E+00  0.93827000000E+00 0. -1.
     999902    2    1    2    0    0 -0.16539814730E-01 -0.17192887175E-02 -0.16201032515E-01  0.10207137367E+01  0.10204496742E+01 0.  0.
     999903    2    3    3    0    0 -0.40050032378E-01 -0.15288934130E-01 -0.12203140626E+00  0.13395732509E+00  0.34858918954E-01 0.  0.
         14    1    1    2    0    0  0.16539814730E-01  0.17192887175E-02  0.16201032515E-01  0.23216263256E-01  0.00000000000E+00 0.  1.
     999901    1    3    3    0    0  0.23510217648E-01  0.13569645412E-01  0.10583037374E+00  0.88675641166E+00  0.88000000000E+00 0.  1.
        -11    1    4    4    0    0 -0.78564639852E-02 -0.20668492832E-01 -0.58248734066E-01  0.62306394243E-01  0.51100000000E-03 0.  1.
         11    1    4    4    0    0 -0.32193568393E-01  0.53795587022E-02 -0.63782672192E-01  0.71650930843E-01  0.51100000000E-03 0. -1.
</event>
<event>
 8    1  0.1022673E+005  0.1043930E+01  0.7957747E-01            NaN
         13   -1    0    0    0    0  0.00000000000E+00  0.00000000000E+00  0.74505805969E-08  0.10566000000E+00  0.10566000000E+00 0.  1.
     999900   -1    0    0    0    0 -0.00000000000E+00 -0.00000000000E+00 -0.74505805969E-08  0.93827000000E+00  0.93827000000E+00 0.  1.
     999902    2    1    2    0    0 -0.17212665508E-01 -0.14762778291E-01  0.41472444832E-02  0.10208775573E+01  0.10206172505E+01 0.  0.
     999903    2    3    3    0    0 -0.25560077988E-01  0.72610560684E-01  0.10386513863E+00  0.13090708698E+00  0.20569085797E-01 0.  0.
         14    1    1    2    0    0  0.17212665508E-01  0.14762778291E-01 -0.41472444832E-02  0.23052442681E-01  0.00000000000E+00 0.  1.
     999901    1    3    3    0    0  0.83474124800E-02 -0.87373338975E-01 -0.99717894144E-01  0.88997047034E+00  0.88000000000E+00 0.  1.
        -11    1    4    4    0    0 -0.15535037476E-01  0.57213395690E-01  0.65381184958E-01  0.88259110030E-01  0.51100000000E-03 0. -1.
         11    1    4    4    0    0 -0.10025040512E-01  0.15397164994E-01  0.38483953669E-01  0.42647976952E-01  0.51100000000E-03 0.  1.
</event>
<event>
 8    1  0.1022673E+005  0.1043930E+01  0.7957747E-01            NaN
         13   -1    0    0    0    0  0.00000000000E+00  0.00000000000E+00  0.74505805969E-08  0.10566000000E+00  0.10566000000E+00 0.  1.
     999900   -1    0    0    0    0 -0.00000000000E+00 -0.00000000000E+00 -0.74505805969E-08  0.93827000000E+00  0.93827000000E+00 0. -1.
     999902    2    1    2    0    0  0.17797314444E-01 -0.67531293861E-02 -0.78637785275E-02  0.10233341710E+01  0.10231268922E+01 0.  0.
     999903    2    3    3    0    0 -0.11444356081E+00  0.40501410108E-01  0.44280538480E-01  0.13067540623E+00  0.19432006393E-01 0.  0.
         14    1    1    2    0    0 -0.17797314444E-01  0.67531293861E-02  0.78637785275E-02  0.20595828963E-01  0.00000000000E+00 0.  1.
     999901    1    3    3    0    0  0.13224087526E+00 -0.47254539494E-01 -0.52144317008E-01  0.89265876481E+00  0.88000000000E+00 0. -1.
        -11    1    4    4    0    0 -0.79656692390E-01  0.18849532299E-01  0.32080373051E-01  0.87919878108E-01  0.51100000000E-03 0.  1.
         11    1    4    4    0    0 -0.34786868425E-01  0.21651877809E-01  0.12200165429E-01  0.42755528121E-01  0.51100000000E-03 0. -1.
</event>
<event>
 8    1  0.1022673E+005  0.1043930E+01  0.7957747E-01            NaN
         13   -1    0    0    0    0  0.00000000000E+00  0.00000000000E+00  0.74505805969E-08  0.10566000000E+00  0.10566000000E+00 0. -1.
     999900   -1    0    0    0    0 -0.00000000000E+00 -0.00000000000E+00 -0.74505805969E-08  0.93827000000E+00  0.93827000000E+00 0. -1.
     999902    2    1    2    0    0  0.22904431741E-01  0.53987116662E-02 -0.33058609837E-02  0.10201668395E+01  0.10198900395E+01 0.  0.
     999903    2    3    3    0    0  0.20614566184E-01  0.11138111890E+00  0.64374010290E-01  0.13122472713E+00  0.15658921536E-01 0.  0.
         14    1    1    2    0    0 -0.22904431741E-01 -0.53987116662E-02  0.33058609837E-02  0.23763160520E-01  0.00000000000E+00 0. -1.
     999901    1    3    3    0    0  0.22898655572E-02 -0.10598240724E+00 -0.67679871273E-01  0.88894211235E+00  0.88000000000E+00 0. -1.
        -11    1    4    4    0    0 -0.36191109774E-03  0.28857983336E-01  0.12014046494E-01  0.31265198160E-01  0.51100000000E-03 0. -1.
         11    1    4    4    0    0  0.20976477282E-01  0.82523135567E-01  0.52359963796E-01  0.99959528973E-01  0.51100000000E-03 0.  1.
</event>
<event>
 8    1  0.1022673E+005  0.1043930E+01  0.7957747E-01            NaN
         13   -1    0    0    0    0  0.00000000000E+00  0.00000000000E+00  0.74505805969E-08  0.10566000000E+00  0.10566000000E+00 0.  1.
     999900   -1    0    0    0    0 -0.00000000000E+00 -0.00000000000E+00 -0.74505805969E-08  0.93827000000E+00  0.93827000000E+00 0.  1.
     999902    2    1    2    0    0  0.12655805312E-01  0.18885820918E-01  0.94205447389E-02  0.10193212556E+01  0.10190241566E+01 0.  0.
     999903    2    3    3    0    0  0.38607158460E-01  0.23504240665E-01 -0.11925671920E+00  0.12957261645E+00  0.22889644959E-01 0.  0.
         14    1    1    2    0    0 -0.12655805312E-01 -0.18885820918E-01 -0.94205447389E-02  0.24608744442E-01  0.00000000000E+00 0. -1.
     999901    1    3    3    0    0 -0.25951353148E-01 -0.46184197466E-02  0.12867726394E+00  0.88974863910E+00  0.88000000000E+00 0. -1.
        -11    1    4    4    0    0  0.19195729197E-01  0.11284386974E-01 -0.29699421185E-01  0.37123175355E-01  0.51100000000E-03 0.  1.
         11    1    4    4    0    0  0.19411429263E-01  0.12219853690E-01 -0.89557298018E-01  0.92449441099E-01  0.51100000000E-03 0. -1.
</event>
<event>
 8    1  0.1022673E+005  0.1043930E+01  0.7957747E-01            NaN
         13   -1    0    0    0    0  0.00000000000E+00  0.00000000000E+00  0.74505805969E-08  0.10566000000E+00  0.10566000000E+00 0. -1.
     999900   -1    0    0    0    0 -0.00000000000E+00 -0.00000000000E+00 -0.74505805969E-08  0.93827000000E+00  0.93827000000E+00 0. -1.
     999902    2    1    2    0    0 -0.20134807539E-01 -0.56596420157E-03 -0.12525901449E-01  0.10202101982E+01  0.10199344192E+01 0.  0.
     999903    2    3    3    0    0  0.11065529456E+00  0.25899912975E-01 -0.57104677747E-01  0.12903470440E+00  0.21762605857E-01 0.  0.
         14    1    1    2    0    0  0.20134807539E-01  0.56596420157E-03  0.12525901449E-01  0.23719801795E-01  0.00000000000E+00 0. -1.
     999901    1    3    3    0    0 -0.13079010209E+00 -0.26465877176E-01  0.44578776298E-01  0.89117549380E+00  0.88000000000E+00 0.  1.
        -11    1    4    4    0    0  0.57789151712E-01  0.18918200707E-01 -0.19789540735E-01  0.63948193227E-01  0.51100000000E-03 0.  1.
         11    1    4    4    0    0  0.52866142844E-01  0.69817122681E-02 -0.37315137012E-01  0.65086511173E-01  0.51100000000E-03 0. -1.
</event>
<event>
 8    1  0.1022673E+005  0.1043930E+01  0.7957747E-01            NaN
         13   -1    0    0    0    0  0.00000000000E+00  0.00000000000E+00  0.74505805969E-08  0.10566000000E+00  0.10566000000E+00 0. -1.
     999900   -1    0    0    0    0 -0.00000000000E+00 -0.00000000000E+00 -0.74505805969E-08  0.93827000000E+00  0.93827000000E+00 0. -1.
     999902    2    1    2    0    0  0.65440363276E-02  0.20658757531E-01  0.69517672283E-02  0.10211717984E+01  0.10209181681E+01 0.  0.
     999903    2    3    3    0    0  0.23618651909E-01 -0.61986603551E-01 -0.10927188042E+00  0.12952739924E+00  0.20900324566E-01 0.  0.
         14    1    1    2    0    0 -0.65440363276E-02 -0.20658757531E-01 -0.69517672283E-02  0.22758201637E-01  0.00000000000E+00 0. -1.
     999901    1    3    3    0    0 -0.17074615581E-01  0.82645361082E-01  0.11622364765E+00  0.89164439912E+00  0.88000000000E+00 0.  1.
        -11    1    4    4    0    0  0.21900292207E-01 -0.53574036808E-01 -0.78217731570E-01  0.97304033172E-01  0.51100000000E-03 0. -1.
         11    1    4    4    0    0  0.17183597013E-02 -0.84125667432E-02 -0.31054148849E-01  0.32223366072E-01  0.51100000000E-03 0.  1.
</event>
<event>
 8    1  0.1022673E+005  0.1043930E+01  0.7957747E-01            NaN
         13   -1    0    0    0    0  0.00000000000E+00  0.00000000000E+00  0.74505805969E-08  0.10566000000E+00  0.10566000000E+00 0.  1.
     999900   -1    0    0    0    0 -0.00000000000E+00 -0.00000000000E+00 -0.74505805969E-08  0.93827000000E+00  0.93827000000E+00 0. -1.
     999902    2    1    2    0    0 -0.19720062291E-01 -0.13529219912E-01  0.19558492272E-02  0.10199352924E+01  0.10196530070E+01 0.  0.
     999903    2    3    3    0    0  0.96245501827E-01 -0.40049386547E-02 -0.82728457899E-01  0.12824579716E+00  0.17993070515E-01 0.  0.
         14    1    1    2    0    0  0.19720062291E-01  0.13529219912E-01 -0.19558492272E-02  0.23994707633E-01  0.00000000000E+00 0. -1.
     999901    1    3    3    0    0 -0.11596556412E+00 -0.95242812578E-02  0.84684307126E-01  0.89168949521E+00  0.88000000000E+00 0.  1.
        -11    1    4    4    0    0  0.73732064303E-01 -0.88038362229E-02 -0.56253655245E-01  0.93159324214E-01  0.51100000000E-03 0.  1.
         11    1    4    4    0    0  0.22513437524E-01  0.47988975682E-02 -0.26474802653E-01  0.35086472943E-01  0.51100000000E-03 0. -1.
</event>
<event>
 8    1  0.1022673E+005  0.1043930E+01  0.7957747E-01            NaN
         13   -1    0    0    0    0  0.00000000000E+00  0.00000000000E+00  0.74505805969E-08  0.10566000000E+00  0.10566000000E+00 0. -1.
     999900   -1    0    0    0    0 -0.00000000000E+00 -0.00000000000E+00 -0.74505805969E-08  0.93827000000E+00  0.93827000000E+00 0. -1.
     999902    2    1    2    0    0  0.14692186627E-01 -0.32814436253E-02  0.17722654793E-01  0.10206765978E+01  0.10204116800E+01 0.  0.
     999903    2    3    3    0    0  0.30931734942E-02  0.40375569033E-01 -0.12044750085E+00  0.12875089252E+00  0.20722875447E-01 0.  0.
         14    1    1    2    0    0 -0.14692186627E-01  0.32814436253E-02 -0.17722654793E-01  0.23253402183E-01  0.00000000000E+00 0.  1.
     999901    1    3    3    0    0  0.11599013133E-01 -0.43657012658E-01  0.13817015564E+00  0.89192570530E+00  0.88000000000E+00 0.  1.
        -11    1    4    4    0    0  0.45099411989E-02  0.40598192575E-03 -0.22398513923E-01  0.22857360694E-01  0.51100000000E-03 0.  1.
         11    1    4    4    0    0 -0.14167677047E-02  0.39969587107E-01 -0.98048986926E-01  0.10589353183E+00  0.51100000000E-03 0. -1.
</event>
<event>
 7    1  0.1022673E+005  0.1043930E+01  0.7957747E-01            NaN
         13   -1    0    0    0    0  0.00000000000E+00  0.00000000000E+00  0.74505805969E-08  0.10566000000E+00  0.10566000000E+00 0. -1.
     999900   -1    0    0    0    0 -0.00000000000E+00 -0.00000000000E+00 -0.74505805969E-08  0.93827000000E+00  0.93827000000E+00 0.  1.
     999903    2    1    2    0    0 -0.78256994430E-01  0.26319912770E-01 -0.67661424862E-01  0.10844776212E+00  0.19129916596E-01 0.  0.
         14    1    1    2    0    0  0.44630753453E-01  0.97812944229E-02  0.27197096696E-01  0.53171984570E-01  0.00000000000E+00 0. -1.
     999901    1    1    2    0    0  0.33626240978E-01 -0.36101207193E-01  0.40464328166E-01  0.88231025331E+00  0.88000000000E+00 0.  1.
        -11    1    3    3    0    0 -0.25939850639E-01  0.34570176744E-02 -0.12307218643E-01  0.28923270460E-01  0.51100000000E-03 0.  1.
         11    1    3    3    0    0 -0.52317143791E-01  0.22862895096E-01 -0.55354206219E-01  0.79524491660E-01  0.51100000000E-03 0. -1.
</event>
<event>
 8    1  0.1022673E+005  0.1043930E+01  0.7957747E-01            NaN
         13   -1    0    0    0    0  0.00000000000E+00  0.00000000000E+00  0.74505805969E-08  0.10566000000E+00  0.10566000000E+00 0. -1.
     999900   -1    0    0    0    0 -0.00000000000E+00 -0.00000000000E+00 -0.74505805969E-08  0.93827000000E+00  0.93827000000E+00 0. -1.
     999902    2    1    2    0    0 -0.18763632872E-02  0.29328412421E-02  0.23479472781E-01  0.10201937842E+01  0.10199176190E+01 0.  0.
     999903    2    3    3    0    0  0.11814510682E+00  0.44618231675E-01 -0.19714587849E-01  0.13002045732E+00  0.23824388457E-01 0.  0.
         14    1    1    2    0    0  0.18763632872E-02 -0.29328412421E-02 -0.23479472781E-01  0.23736215769E-01  0.00000000000E+00 0.  1.
     999901    1    3    3    0    0 -0.12002147011E+00 -0.41685390433E-01  0.43194060630E-01  0.89017332691E+00  0.88000000000E+00 0.  1.
        -11    1    4    4    0    0  0.69367274048E-01  0.31169635621E-01 -0.22601948736E-01  0.79337721805E-01  0.51100000000E-03 0. -1.
         11    1    4    4    0    0  0.48777832772E-01  0.13448596055E-01  0.28873608871E-02  0.50682735519E-01  0.51100000000E-03 0.  1.
</event>
<event>
 8    1  0.1022673E+005  0.1043930E+01  0.7957747E-01            NaN
         13   -1    0    0    0    0  0.00000000000E+00  0.00000000000E+00  0.74505805969E-08  0.10566000000E+00  0.10566000000E+00 0.  1.
     999900   -1    0    0    0    0 -0.00000000000E+00 -0.00000000000E+00 -0.74505805969E-08  0.93827000000E+00  0.93827000000E+00 0. -1.
     999902    2    1    2    0    0  0.19333552688E-01 -0.72419803722E-02 -0.11483191394E-01  0.10203059397E+01  0.10200324085E+01 0.  0.
     999903    2    3    3    0    0  0.77936154894E-01  0.98541260777E-01 -0.34129586883E-01  0.13174687116E+00  0.20198639701E-01 0.  0.
         14    1    1    2    0    0 -0.19333552688E-01  0.72419803722E-02  0.11483191394E-01  0.23624060274E-01  0.00000000000E+00 0.  1.
     999901    1    3    3    0    0 -0.58602602206E-01 -0.10578324115E+00  0.22646395489E-01  0.88855906856E+00  0.88000000000E+00 0.  1.
        -11    1    4    4    0    0  0.48777629560E-01  0.59474774595E-01 -0.10711064330E-01  0.77662693610E-01  0.51100000000E-03 0. -1.
         11    1    4    4    0    0  0.29158525334E-01  0.39066486182E-01 -0.23418522553E-01  0.54084177555E-01  0.51100000000E-03 0.  1.
</event>
<event>
 8    1  0.1022673E+005  0.1043930E+01  0.7957747E-01            NaN
         13   -1    0    0    0    0  0.00000000000E+00  0.00000000000E+00  0.74505805969E-08  0.10566000000E+00  0.10566000000E+00 0. -1.
     999900   -1    0    0    0    0 -0.00000000000E+00 -0.00000000000E+00 -0.74505805969E-08  0.93827000000E+00  0.93827000000E+00 0.  1.
     999902    2    1    2    0    0  0.16753061078E-01  0.37506563049E-02  0.18839914341E-01  0.10184412799E+01  0.10181222745E+01 0.  0.
     999903    2    3    3    0    0  0.97902595548E-01  0.82608320820E-01  0.19375433423E-01  0.13119606863E+00  0.20686906981E-01 0.  0.
         14    1    1    2    0    0 -0.16753061078E-01 -0.37506563049E-02 -0.18839914341E-01  0.25488720066E-01  0.00000000000E+00 0. -1.
     999901    1    3    3    0    0 -0.81149534470E-01 -0.78857664515E-01 -0.53551908124E-03  0.88724521130E+00  0.88000000000E+00 0.  1.
        -11    1    4    4    0    0  0.43433084359E-01  0.49187954077E-01  0.59187782770E-02  0.65887636932E-01  0.51100000000E-03 0. -1.
         11    1    4    4    0    0  0.54469511189E-01  0.33420366744E-01  0.13456655146E-01  0.65308431700E-01  0.51100000000E-03 0.  1.
</event>
<event>
 8    1  0.1022673E+005  0.1043930E+01  0.7957747E-01            NaN
         13   -1    0    0    0    0  0.00000000000E+00  0.00000000000E+00  0.74505805969E-08  0.10566000000E+00  0.10566000000E+00 0. -1.
     999900   -1    0    0    0    0 -0.00000000000E+00 -0.00000000000E+00 -0.74505805969E-08  0.93827000000E+00  0.93827000000E+00 0.  1.
     999902    2    1    2    0    0  0.46784621864E-02 -0.56052422674E-02 -0.22493743753E-01  0.10202809988E+01  0.10200068830E+01 0.  0.
     999903    2    3    3    0    0  0.11343425223E+00  0.56167479996E-01 -0.29633263928E-01  0.13140830611E+00  0.19180646340E-01 0.  0.
         14    1    1    2    0    0 -0.46784621864E-02  0.56052422674E-02  0.22493743753E-01  0.23649001191E-01  0.00000000000E+00 0. -1.
     999901    1    3    3    0    0 -0.10875579005E+00 -0.61772722263E-01  0.71395201750E-02  0.88887269270E+00  0.88000000000E+00 0. -1.
        -11    1    4    4    0    0  0.10147518291E+00  0.51009194397E-01 -0.32352425044E-01  0.11809356963E+00  0.51100000000E-03 0.  1.
         11    1    4    4    0    0  0.11959069321E-01  0.51582855981E-02  0.27191611158E-02  0.13314736479E-01  0.51100000000E-03 0. -1.
</event>
<event>
 8    1  0.1022673E+005  0.1043930E+01  0.7957747E-01            NaN
         13   -1    0    0    0    0  0.00000000000E+00  0.00000000000E+00  0.74505805969E-08  0.10566000000E+00  0.10566000000E+00 0. -1.
     999900   -1    0    0    0    0 -0.00000000000E+00 -0.00000000000E+00 -0.74505805969E-08  0.93827000000E+00  0.93827000000E+00 0.  1.
     999902    2    1    2    0    0  0.12315979995E-01 -0.19871119445E-01 -0.57330922899E-02  0.10198589988E+01  0.10195748939E+01 0.  0.
     999903    2    3    3    0    0  0.31198780992E-01 -0.49301039811E-01  0.11543910737E+00  0.13086778268E+00  0.19905591420E-01 0.  0.
         14    1    1    2    0    0 -0.12315979995E-01  0.19871119445E-01  0.57330922899E-02  0.24071001193E-01  0.00000000000E+00 0. -1.
     999901    1    3    3    0    0 -0.18882800998E-01  0.29429920366E-01 -0.12117219966E+00  0.88899121613E+00  0.88000000000E+00 0.  1.
        -11    1    4    4    0    0  0.88910260265E-02 -0.23465097423E-01  0.67506173816E-01  0.72020870344E-01  0.51100000000E-03 0. -1.
         11    1    4    4    0    0  0.22307754966E-01 -0.25835942387E-01  0.47932933558E-01  0.58846912333E-01  0.51100000000E-03 0.  1.
</event>
<event>
 8    1  0.1022673E+005  0.1043930E+01  0.7957747E-01            NaN
         13   -1    0    0    0    0  0.00000000000E+00  0.00000000000E+00  0.74505805969E-08  0.10566000000E+00  0.10566000000E+00 0. -1.
     999900   -1    0    0    0    0 -0.00000000000E+00 -0.00000000000E+00 -0.74505805969E-08  0.93827000000E+00  0.93827000000E+00 0. -1.
     999902    2    1    2    0    0 -0.19544947266E-01 -0.94350548772E-02 -0.76187257064E-02  0.10209284738E+01  0.10206693287E+01 0.  0.
     999903    2    3    3    0    0 -0.69011389472E-01 -0.11177250261E+00 -0.14290108861E-01  0.13359291755E+00  0.19677301439E-01 0.  0.
         14    1    1    2    0    0  0.19544947266E-01  0.94350548772E-02  0.76187257064E-02  0.23001526157E-01  0.00000000000E+00 0. -1.
     999901    1    3    3    0    0  0.49466442206E-01  0.10233744773E+00  0.66713831541E-02  0.88733555630E+00  0.88000000000E+00 0. -1.
        -11    1    4    4    0    0 -0.34198587105E-01 -0.55777826045E-01  0.27617879142E-02  0.65487386814E-01  0.51100000000E-03 0.  1.
         11    1    4    4    0    0 -0.34812802367E-01 -0.55994676562E-01 -0.17051896775E-01  0.68105530734E-01  0.51100000000E-03 0. -1.
</event>
<event>
 8    1  0.1022673E+005  0.1043930E+01  0.7957747E-01            NaN
         13   -1    0    0    0    0  0.00000000000E+00  0.00000000000E+00  0.74505805969E-08  0.10566000000E+00  0.10566000000E+00 0. -1.
     999900   -1    0    0    0    0 -0.00000000000E+00 -0.00000000000E+00 -0.74505805969E-08  0.93827000000E+00  0.93827000000E+00 0. -1.
     999902    2    1    2    0    0  0.18674990413E-01 -0.10360306987E-01 -0.81920712749E-02  0.10210564069E+01  0.10208001689E+01 0.  0.
     999903    2    3    3    0    0  0.26596891053E-01  0.86915695631E-01  0.90914833317E-01  0.13013129463E+00  0.20172113560E-01 0.  0.
         14    1    1    2    0    0 -0.18674990413E-01  0.10360306987E-01  0.81920712749E-02  0.22873593062E-01  0.00000000000E+00 0. -1.
     999901    1    3    3    0    0 -0.79219006408E-02 -0.97276002619E-01 -0.99106904592E-01  0.89092511230E+00  0.88000000000E+00 0. -1.
        -11    1    4    4    0    0  0.18927102292E-01  0.32947534383E-01  0.44657891728E-01  0.58637561662E-01  0.51100000000E-03 0.  1.
         11    1    4    4    0    0  0.76697887613E-02  0.53968161249E-01  0.46256941589E-01  0.71493732973E-01  0.51100000000E-03 0. -1.
</event>
<event>
 8    1  0.1022673E+005  0.1043930E+01  0.7957747E-01            NaN
         13   -1    0    0    0    0  0.00000000000E+00  0.00000000000E+00  0.74505805969E-08  0.10566000000E+00  0.10566000000E+00 0. -1.
     999900   -1    0    0    0    0 -0.00000000000E+00 -0.00000000000E+00 -0.74505805969E-08  0.93827000000E+00  0.93827000000E+00 0.  1.
     999902    2    1    2    0    0 -0.53399445270E-02 -0.11107863460E-01 -0.20082476945E-01  0.10203672005E+01  0.10200951026E+01 0.  0.
     999903    2    3    3    0    0  0.12096971236E-01 -0.49213700014E-01 -0.12180775912E+00  0.13351651759E+00  0.20523286907E-01 0.  0.
         14    1    1    2    0    0  0.53399445270E-02  0.11107863460E-01  0.20082476945E-01  0.23562799461E-01  0.00000000000E+00 0. -1.
     999901    1    3    3    0    0 -0.17436915763E-01  0.38105836554E-01  0.10172528218E+00  0.88685068295E+00  0.88000000000E+00 0. -1.
        -11    1    4    4    0    0  0.31261342955E-02 -0.44259984588E-01 -0.96803735666E-01  0.10648916992E+00  0.51100000000E-03 0. -1.
         11    1    4    4    0    0  0.89708369408E-02 -0.49537154253E-02 -0.25004023455E-01  0.27027347666E-01  0.51100000000E-03 0.  1.
</event>
<event>
 8    1  0.1022673E+005  0.1043930E+01  0.7957747E-01            NaN
         13   -1    0    0    0    0  0.00000000000E+00  0.00000000000E+00  0.74505805969E-08  0.10566000000E+00  0.10566000000E+00 0.  1.
     999900   -1    0    0    0    0 -0.00000000000E+00 -0.00000000000E+00 -0.74505805969E-08  0.93827000000E+00  0.93827000000E+00 0. -1.
     999902    2    1    2    0    0 -0.18699222889E-01 -0.67344435643E-02 -0.13499749427E-01  0.10199038288E+01  0.10196207938E+01 0.  0.
     999903    2    3    3    0    0 -0.11347207268E+00 -0.63018854260E-01  0.17119261972E-01  0.13249898784E+00  0.20386892321E-01 0.  0.
         14    1    1    2    0    0  0.18699222889E-01  0.67344435643E-02  0.13499749427E-01  0.24026171175E-01  0.00000000000E+00 0.  1.
     999901    1    3    3    0    0  0.94772849787E-01  0.56284410696E-01 -0.30619011399E-01  0.88740484098E+00  0.88000000000E+00 0. -1.
        -11    1    4    4    0    0 -0.10796364958E+00 -0.58783880943E-01  0.20707006315E-01  0.12466248642E+00  0.51100000000E-03 0.  1.
         11    1    4    4    0    0 -0.55084230948E-02 -0.42349733169E-02 -0.35877443432E-02  0.78365014170E-02  0.51100000000E-03 0. -1.
</event>
<event>
 8    1  0.1022673E+005  0.1043930E+01  0.7957747E-01            NaN
         13   -1    0    0    0    0  0.00000000000E+00  0.00000000000E+00  0.74505805969E-08  0.10566000000E+00  0.10566000000E+00 0. -1.
     999900   -1    0    0    0    0 -0.00000000000E+00 -0.00000000000E+00 -0.74505805969E-08  0.93827000000E+00  0.93827000000E+00 0.  1.
     999902    2    1    2    0    0 -0.17799047515E-02 -0.65410868290E-02 -0.22981283749E-01  0.10199697562E+01  0.10196882908E+01 0.  0.
     999903    2    3    3    0    0 -0.94475232281E-01 -0.73363691658E-01 -0.51520081623E-01  0.13212283969E+00  0.22233425037E-01 0.  0.
         14    1    1    2    0    0  0.17799047515E-02  0.65410868290E-02  0.22981283749E-01  0.23960243750E-01  0.00000000000E+00 0. -1.
     999901    1    3    3    0    0  0.92695327530E-01  0.66822604829E-01  0.28538797874E-01  0.88784691656E+00  0.88000000000E+00 0.  1.
        -11    1    4    4    0    0 -0.89377954515E-01 -0.71678118221E-01 -0.53409947624E-01  0.12640828696E+00  0.51100000000E-03 0.  1.
         11    1    4    4    0    0 -0.50972777659E-02 -0.16855734375E-02  0.18898660014E-02  0.57145527331E-02  0.51100000000E-03 0. -1.
</event>
<event>
 8    1  0.1022673E+005  0.1043930E+01  0.7957747E-01            NaN
         13   -1    0    0    0    0  0.00000000000E+00  0.00000000000E+00  0.74505805969E-08  0.10566000000E+00  0.10566000000E+00 0.  1.
     999900   -1    0    0    0    0 -0.00000000000E+00 -0.00000000000E+00 -0.74505805969E-08  0.93827000000E+00  0.93827000000E+00 0. -1.
     999902    2    1    2    0    0 -0.54110009841E-02 -0.20174897745E-01 -0.10826157862E-01  0.10204031829E+01  0.10201319250E+01 0.  0.
     999903    2    3    3    0    0 -0.51742503260E-02  0.79147400750E-01 -0.10160769347E+00  0.13017497491E+00  0.18174619861E-01 0.  0.
         14    1    1    2    0    0  0.54110009841E-02  0.20174897745E-01  0.10826157862E-01  0.23526817139E-01  0.00000000000E+00 0.  1.
     999901    1    3    3    0    0 -0.23675065809E-03 -0.99322298495E-01  0.90781535612E-01  0.89022820795E+00  0.88000000000E+00 0.  1.
        -11    1    4    4    0    0  0.67845894761E-02  0.32763296861E-01 -0.42568471649E-01  0.54146100276E-01  0.51100000000E-03 0. -1.
         11    1    4    4    0    0 -0.11958839802E-01  0.46384103889E-01 -0.59039221824E-01  0.76028874631E-01  0.51100000000E-03 0.  1.
</event>
<event>
 8    1  0.1022673E+005  0.1043930E+01  0.7957747E-01            NaN
         13   -1    0    0    0    0  0.00000000000E+00  0.00000000000E+00  0.74505805969E-08  0.10566000000E+00  0.10566000000E+00 0. -1.
     999900   -1    0    0    0    0 -0.00000000000E+00 -0.00000000000E+00 -0.74505805969E-08  0.93827000000E+00  0.93827000000E+00 0.  1.
     999902    2    1    2    0    0  0.45732903475E-02 -0.22142639266E-01 -0.72642133222E-02  0.10201817316E+01  0.10199052825E+01 0.  0.
     999903    2    3    3    0    0  0.61843512434E-02  0.59173511082E-01  0.11210535202E+00  0.12840597222E+00  0.19512384181E-01 0.  0.
         14    1    1    2    0    0 -0.45732903475E-02  0.22142639266E-01  0.72642133222E-02  0.23748268431E-01  0.00000000000E+00 0. -1.
     999901    1    3    3    0    0 -0.16110608959E-02 -0.81316150348E-01 -0.11936956535E+00  0.89177575935E+00  0.88000000000E+00 0.  1.
        -11    1    4    4    0    0 -0.30158355451E-02  0.15303906581E-01  0.45659208206E-01  0.48252764022E-01  0.51100000000E-03 0. -1.
         11    1    4    4    0    0  0.92001867885E-02  0.43869604501E-01  0.66446143817E-01  0.80153208203E-01  0.51100000000E-03 0.  1.
</event>
<event>
 8    1  0.1022673E+005  0.1043930E+01  0.7957747E-01            NaN
         13   -1    0    0    0    0  0.00000000000E+00  0.00000000000E+00  0.74505805969E-08  0.10566000000E+00  0.10566000000E+00 0. -1.
     999900   -1    0    0    0    0 -0.00000000000E+00 -0.00000000000E+00 -0.74505805969E-08  0.93827000000E+00  0.93827000000E+00 0.  1.
     999902    2    1    2    0    0 -0.14021056602E-01  0.19065880724E-01  0.41906831900E-02  0.10198954486E+01  0.10196122137E+01 0.  0.
     999903    2    3    3    0    0 -0.11265959123E+00 -0.55836752062E-01 -0.29116703840E-01  0.13059834022E+00  0.19955391474E-01 0.  0.
         14    1    1    2    0    0  0.14021056602E-01 -0.19065880724E-01 -0.41906831900E-02  0.24034551412E-01  0.00000000000E+00 0.  1.
     999901    1    3    3    0    0  0.98638534632E-01  0.74902632786E-01  0.33307387030E-01  0.88929710836E+00  0.88000000000E+00 0. -1.
        -11    1    4    4    0    0 -0.26429110374E-01 -0.16945733547E-01  0.72174801548E-03  0.31407607388E-01  0.51100000000E-03 0. -1.
         11    1    4    4    0    0 -0.86230480860E-01 -0.38891018515E-01 -0.29838451856E-01  0.99190732836E-01  0.51100000000E-03 0.  1.
</event>
<event>
 8    1  0.1114483E+005  0.1043930E+01  0.7957747E-01            NaN
         13   -1    0    0    0    0  0.00000000000E+00  0.00000000000E+00  0.74505805969E-08  0.10566000000E+00  0.10566000000E+00 0.  1.
     999900   -1    0    0    0    0 -0.00000000000E+00 -0.00000000000E+00 -0.74505805969E-08  0.93827000000E+00  0.93827000000E+00 0. -1.
     999902    2    1    2    0    0 -0.75309392038E-02 -0.22924351376E-02 -0.22434734469E-01  0.10201542221E+01  0.10198771246E+01 0.  0.
     999903    2    3    3    0    0  0.10572004691E-01  0.86658005800E-02  0.12532783944E+00  0.12758401323E+00  0.19589530650E-01 0.  0.
         14    1    1    2    0    0  0.75309392038E-02  0.22924351376E-02  0.22434734469E-01  0.23775777902E-01  0.00000000000E+00 0.  1.
     999901    1    3    3    0    0 -0.18102943895E-01 -0.10958235718E-01 -0.14776257391E+00  0.89257020887E+00  0.88000000000E+00 0. -1.
        -11    1    4    4    0    0  0.57313691291E-02  0.14902639549E-01  0.83231741741E-01  0.84750936347E-01  0.51100000000E-03 0.  1.
         11    1    4    4    0    0  0.48406355622E-02 -0.62368389685E-02  0.42096097698E-01  0.42833076884E-01  0.51100000000E-03 0. -1.
</event>
<event>
 8    1  0.1022673E+005  0.1043930E+01  0.7957747E-01            NaN
         13   -1    0    0    0    0  0.00000000000E+00  0.00000000000E+00  0.74505805969E-08  0.10566000000E+00  0.10566000000E+00 0.  1.
     999900   -1    0    0    0    0 -0.00000000000E+00 -0.00000000000E+00 -0.74505805969E-08  0.93827000000E+00  0.93827000000E+00 0.  1.
     999902    2    1    2    0    0 -0.41953360924E-02 -0.23071190175E-01 -0.41022988730E-02  0.10201243385E+01  0.10198465358E+01 0.  0.
     999903    2    3    3    0    0  0.11205312900E+00 -0.55422867666E-01  0.33612560759E-01  0.13108961071E+00  0.20666006269E-01 0.  0.
         14    1    1    2    0    0  0.41953360924E-02  0.23071190175E-01  0.41022988730E-02  0.23805661450E-01  0.00000000000E+00 0.  1.
     999901    1    3    3    0    0 -0.11624846509E+00  0.32351677490E-01 -0.37714859632E-01  0.88903472784E+00  0.88000000000E+00 0. -1.
        -11    1    4    4    0    0  0.26093063619E-01 -0.22830467719E-01  0.11533209173E-01  0.36542499369E-01  0.51100000000E-03 0. -1.
         11    1    4    4    0    0  0.85960065383E-01 -0.32592399947E-01  0.22079351586E-01  0.94547111338E-01  0.51100000000E-03 0.  1.
</event>
<event>
 8    1  0.1022673E+005  0.1043930E+01  0.7957747E-01            NaN
         13   -1    0    0    0    0  0.00000000000E+00  0.00000000000E+00  0.74505805969E-08  0.10566000000E+00  0.10566000000E+00 0. -1.
     999900   -1    0    0    0    0 -0.00000000000E+00 -0.00000000000E+00 -0.74505805969E-08  0.93827000000E+00  0.93827000000E+00 0. -1.
     999902    2    1    2    0    0 -0.11722078020E-01  0.17492736645E-01  0.12132574108E-01  0.10196276894E+01  0.10193380316E+01 0.  0.
     999903    2    3    3    0    0  0.47156810587E-01  0.21435229953E-01 -0.11604700669E+00  0.12838570666E+00  0.18241382736E-01 0.  0.
         14    1    1    2    0    0  0.11722078020E-01 -0.17492736645E-01 -0.12132574108E-01  0.24302310650E-01  0.00000000000E+00 0.  1.
     999901    1    3    3    0    0 -0.58878888607E-01 -0.39424933084E-02  0.12817958080E+00  0.89124198269E+00  0.88000000000E+00 0.  1.
        -11    1    4    4    0    0  0.13757715259E-01 -0.22039533950E-02 -0.32024054532E-01  0.34927543993E-01  0.51100000000E-03 0.  1.
         11    1    4    4    0    0  0.33399095328E-01  0.23639183348E-01 -0.84022952161E-01  0.93458162666E-01  0.51100000000E-03 0. -1.
</event>
<event>
 8    1  0.1022673E+005  0.1043930E+01  0.7957747E-01            NaN
         13   -1    0    0    0    0  0.00000000000E+00  0.00000000000E+00  0.74505805969E-08  0.10566000000E+00  0.10566000000E+00 0. -1.
     999900   -1    0    0    0    0 -0.00000000000E+00 -0.00000000000E+00 -0.74505805969E-08  0.93827000000E+00  0.93827000000E+00 0. -1.
     999902    2    1    2    0    0 -0.14366002806E-01  0.11612987098E-01  0.14840776216E-01  0.10202341745E+01  0.10199589593E+01 0.  0.
     999903    2    3    3    0    0 -0.69294340074E-01 -0.99554789452E-01 -0.41710513495E-01  0.12974361021E+00  0.19513477011E-01 0.  0.
         14    1    1    2    0    0  0.14366002806E-01 -0.11612987098E-01 -0.14840776216E-01  0.23695825469E-01  0.00000000000E+00 0.  1.
     999901    1    3    3    0    0  0.54928337268E-01  0.11116777655E+00  0.56551289711E-01  0.89049056432E+00  0.88000000000E+00 0. -1.
        -11    1    4    4    0    0 -0.35439987883E-01 -0.67234768399E-01 -0.27484624542E-01  0.80821856760E-01  0.51100000000E-03 0.  1.
         11    1    4    4    0    0 -0.33854352190E-01 -0.32320021053E-01 -0.14225888953E-01  0.48921753450E-01  0.51100000000E-03 0. -1.
</event>
<event>
 8    1  0.1022673E+005  0.1043930E+01  0.7957747E-01            NaN
         13   -1    0    0    0    0  0.00000000000E+00  0.00000000000E+00  0.74505805969E-08  0.10566000000E+00  0.10566000000E+00 0.  1.
     999900   -1    0    0    0    0 -0.00000000000E+00 -0.00000000000E+00 -0.74505805969E-08  0.93827000000E+00  0.93827000000E+00 0.  1.
     999902    2    1    2    0    0  0.22070292914E-01 -0.24305060576E-02 -0.48336187701E-02  0.10212062446E+01  0.10209533902E+01 0.  0.
     999903    2    3    3    0    0  0.39893312123E-01  0.78658437103E-02 -0.12469070453E+00  0.13284292037E+00  0.21121596703E-01 0.  0.
         14    1    1    2    0    0 -0.22070292914E-01  0.24305060576E-02  0.48336187701E-02  0.22723755399E-01  0.00000000000E+00 0. -1.
     999901    1    3    3    0    0 -0.17823019209E-01 -0.10296349768E-01  0.11985708576E+00  0.88836332423E+00  0.88000000000E+00 0. -1.
        -11    1    4    4    0    0  0.32952047695E-02  0.68800952623E-02 -0.37580885566E-01  0.38350725758E-01  0.51100000000E-03 0. -1.
         11    1    4    4    0    0  0.36598107354E-01  0.98574844805E-03 -0.87109818962E-01  0.94492194612E-01  0.51100000000E-03 0.  1.
</event>
<event>
 8    1  0.1022673E+005  0.1043930E+01  0.7957747E-01            NaN
         13   -1    0    0    0    0  0.00000000000E+00  0.00000000000E+00  0.74505805969E-08  0.10566000000E+00  0.10566000000E+00 0. -1.
     999900   -1    0    0    0    0 -0.00000000000E+00 -0.00000000000E+00 -0.74505805969E-08  0.93827000000E+00  0.93827000000E+00 0. -1.
     999902    2    1    2    0    0  0.67648003550E-02  0.22654747300E-01  0.14566025642E-02  0.10202419906E+01  0.10199669591E+01 0.  0.
     999903    2    3    3    0    0  0.14782235158E-01 -0.10388984499E+00  0.72244947209E-01  0.12834020068E+00  0.15500333678E-01 0.  0.
         14    1    1    2    0    0 -0.67648003550E-02 -0.22654747300E-01 -0.14566025642E-02  0.23688009416E-01  0.00000000000E+00 0.  1.
     999901    1    3    3    0    0 -0.80174348031E-02  0.12654459229E+00 -0.70788344645E-01  0.89190178991E+00  0.88000000000E+00 0. -1.
        -11    1    4    4    0    0  0.74268056483E-02 -0.21070848776E-01  0.21027723943E-01  0.30684921468E-01  0.51100000000E-03 0. -1.
         11    1    4    4    0    0  0.73554295098E-02 -0.82818996216E-01  0.51217223266E-01  0.97655279210E-01  0.51100000000E-03 0.  1.
</event>
<event>
 8    1  0.1022673E+005  0.1043930E+01  0.7957747E-01            NaN
         13   -1    0    0    0    0  0.00000000000E+00  0.00000000000E+00  0.74505805969E-08  0.10566000000E+00  0.10566000000E+00 0. -1.
     999900   -1    0    0    0    0 -0.00000000000E+00 -0.00000000000E+00 -0.74505805969E-08  0.93827000000E+00  0.93827000000E+00 0.  1.
     999902    2    1    2    0    0 -0.20086826989E-01  0.24632050654E-02  0.11355796829E-01  0.10207243516E+01  0.10204605332E+01 0.  0.
     999903    2    3    3    0    0 -0.53806928586E-01  0.10588191963E+00  0.56250978796E-01  0.13289100395E+00  0.19740310217E-01 0.  0.
         14    1    1    2    0    0  0.20086826989E-01 -0.24632050654E-02 -0.11355796829E-01  0.23205648436E-01  0.00000000000E+00 0. -1.
     999901    1    3    3    0    0  0.33720101597E-01 -0.10341871456E+00 -0.44895181966E-01  0.88783334761E+00  0.88000000000E+00 0.  1.
        -11    1    4    4    0    0 -0.12459218875E-01  0.40437983729E-01  0.13283566908E-01  0.44352868383E-01  0.51100000000E-03 0.  1.
         11    1    4    4    0    0 -0.41347709712E-01  0.65443935898E-01  0.42967411887E-01  0.88538135566E-01  0.51100000000E-03 0. -1.
</event>
<event>
 8    1  0.1022673E+005  0.1043930E+01  0.7957747E-01            NaN
         13   -1    0    0    0    0  0.00000000000E+00  0.00000000000E+00  0.74505805969E-08  0.10566000000E+00  0.10566000000E+00 0.  1.
     999900   -1    0    0    0    0 -0.00000000000E+00 -0.00000000000E+00 -0.74505805969E-08  0.93827000000E+00  0.93827000000E+00 0. -1.
     999902    2    1    2    0    0 -0.84557549990E-02  0.42217080713E-02  0.21650517467E-01  0.10203065473E+01  0.10200330303E+01 0.  0.
     999903    2    3    3    0    0 -0.38841525689E-01  0.11047407977E+00  0.58809480654E-01  0.13261648307E+00  0.20381122367E-01 0.  0.
         14    1    1    2    0    0  0.84557549990E-02 -0.42217080713E-02 -0.21650517467E-01  0.23623452716E-01  0.00000000000E+00 0. -1.
     999901    1    3    3    0    0  0.30385770690E-01 -0.10625237170E+00 -0.37158963187E-01  0.88769006421E+00  0.88000000000E+00 0. -1.
        -11    1    4    4    0    0 -0.35468111353E-01  0.81320614585E-01  0.37377521815E-01  0.96272371620E-01  0.51100000000E-03 0. -1.
         11    1    4    4    0    0 -0.33734143359E-02  0.29153465186E-01  0.21431958839E-01  0.36344111454E-01  0.51100000000E-03 0.  1.
</event>
<event>
 8    1  0.1022673E+005  0.1043930E+01  0.7957747E-01            NaN
         13   -1    0    0    0    0  0.00000000000E+00  0.00000000000E+00  0.74505805969E-08  0.10566000000E+00  0.10566000000E+00 0. -1.
     999900   -1    0    0    0    0 -0.00000000000E+00 -0.00000000000E+00 -0.74505805969E-08  0.93827000000E+00  0.93827000000E+00 0.  1.
     999902    2    1    2    0    0 -0.20584848974E-01 -0.13582148346E-01  0.18327799029E-02  0.10192000618E+01  0.10188999932E+01 0.  0.
     999903    2    3    3    0    0  0.41578840157E-01 -0.49944436771E-01  0.11038768781E+00  0.12960987059E+00  0.19749182811E-01 0.  0.
         14    1    1    2    0    0  0.20584848974E-01  0.13582148346E-01 -0.18327799029E-02  0.24729938195E-01  0.00000000000E+00 0. -1.
     999901    1    3    3    0    0 -0.62163689131E-01  0.36362288424E-01 -0.10855490791E+00  0.88959019121E+00  0.88000000000E+00 0.  1.
        -11    1    4    4    0    0  0.24869726203E-01 -0.40489000861E-01  0.66793250448E-01  0.81972323980E-01  0.51100000000E-03 0. -1.
         11    1    4    4    0    0  0.16709113954E-01 -0.94554359094E-02  0.43594437365E-01  0.47637546615E-01  0.51100000000E-03 0.  1.
</event>
<event>
 8    1  0.1022673E+005  0.1043930E+01  0.7957747E-01            NaN
         13   -1    0    0    0    0  0.00000000000E+00  0.00000000000E+00  0.74505805969E-08  0.10566000000E+00  0.10566000000E+00 0. -1.
     999900   -1    0    0    0    0 -0.00000000000E+00 -0.00000000000E+00 -0.74505805969E-08  0.93827000000E+00  0.93827000000E+00 0. -1.
     999902    2    1    2    0    0 -0.62453436870E-03 -0.22532611232E-01 -0.60057243208E-02  0.10206023911E+01  0.10203357601E+01 0.  0.
     999903    2    3    3    0    0 -0.36769968984E-01  0.63416746229E-01 -0.10561204696E+00  0.13008837998E+00  0.19883858331E-01 0.  0.
         14    1    1    2    0    0  0.62453436870E-03  0.22532611232E-01  0.60057243208E-02  0.23327608895E-01  0.00000000000E+00 0. -1.
     999901    1    3    3    0    0  0.36145434616E-01 -0.85949357461E-01  0.99606322642E-01  0.89051401112E+00  0.88000000000E+00 0. -1.
        -11    1    4    4    0    0 -0.21493248586E-01  0.21727730225E-01 -0.33044528549E-01  0.45013953209E-01  0.51100000000E-03 0. -1.
         11    1    4    4    0    0 -0.15276720399E-01  0.41689016004E-01 -0.72567518414E-01  0.85074426776E-01  0.51100000000E-03 0.  1.
</event>
<event>
 8    1  0.1022673E+005  0.1043930E+01  0.7957747E-01            NaN
         13   -1    0    0    0    0  0.00000000000E+00  0.00000000000E+00  0.74505805969E-08  0.10566000000E+00  0.10566000000E+00 0. -1.
     999900   -1    0    0    0    0 -0.00000000000E+00 -0.00000000000E+00 -0.74505805969E-08  0.93827000000E+00  0.93827000000E+00 0. -1.
     999902    2    1    2    0    0 -0.68259677910E-02 -0.16261245121E-01 -0.16254867006E-01  0.10199457837E+01  0.10196637481E+01 0.  0.
     999903    2    3    3    0    0  0.12726318883E+00  0.74577682667E-02  0.43653885488E-02  0.12923388391E+00  0.20755784627E-01 0.  0.
         14    1    1    2    0    0  0.68259677910E-02  0.16261245121E-01  0.16254867006E-01  0.23984216280E-01  0.00000000000E+00 0. -1.
     999901    1    3    3    0    0 -0.13408915662E+00 -0.23719013388E-01 -0.20620255555E-01  0.89071189981E+00  0.88000000000E+00 0. -1.
        -11    1    4    4    0    0  0.71235661136E-01  0.12419131145E-01 -0.37153755542E-02  0.72407315738E-01  0.51100000000E-03 0.  1.
         11    1    4    4    0    0  0.56027527694E-01 -0.49613628781E-02  0.80807641030E-02  0.56826568175E-01  0.51100000000E-03 0. -1.
</event>
<event>
 8    1  0.1022673E+005  0.1043930E+01  0.7957747E-01            NaN
         13   -1    0    0    0    0  0.00000000000E+00  0.00000000000E+00  0.74505805969E-08  0.10566000000E+00  0.10566000000E+00 0. -1.
     999900   -1    0    0    0    0 -0.00000000000E+00 -0.00000000000E+00 -0.74505805969E-08  0.93827000000E+00  0.93827000000E+00 0. -1.
     999902    2    1    2    0    0 -0.74587107812E-02  0.22038599494E-01  0.41525264636E-02  0.10202957936E+01  0.10200220247E+01 0.  0.
     999903    2    3    3    0    0  0.51926920095E-01 -0.20493519010E-01 -0.11522725430E+00  0.12923621858E+00  0.17558209066E-01 0.  0.
         14    1    1    2    0    0  0.74587107812E-02 -0.22038599494E-01 -0.41525264636E-02  0.23634206359E-01  0.00000000000E+00 0. -1.
     999901    1    3    3    0    0 -0.59385630876E-01  0.42532118504E-01  0.11937978077E+00  0.89105957506E+00  0.88000000000E+00 0.  1.
        -11    1    4    4    0    0  0.14248552454E-01  0.17174226429E-02 -0.35574356951E-01  0.38363612722E-01  0.51100000000E-03 0. -1.
         11    1    4    4    0    0  0.37678367641E-01 -0.22210941652E-01 -0.79652897352E-01  0.90872605854E-01  0.51100000000E-03 0.  1.
</event>
<event>
 8    1  0.1022673E+005  0.1043930E+01  0.7957747E-01            NaN
         13   -1    0    0    0    0  0.00000000000E+00  0.00000000000E+00  0.74505805969E-08  0.10566000000E+00  0.10566000000E+00 0.  1.
     999900   -1    0    0    0    0 -0.00000000000E+00 -0.00000000000E+00 -0.74505805969E-08  0.93827000000E+00  0.93827000000E+00 0. -1.
     999902    2    1    2    0    0  0.14692528749E-01  0.16775069637E-01  0.63355340202E-02  0.10207478441E+01  0.10204845657E+01 0.  0.
     999903    2    3    3    0    0 -0.66620239303E-01  0.10611479578E+00 -0.34718596879E-01  0.13154663254E+00  0.20013230507E-01 0.  0.
         14    1    1    2    0    0 -0.14692528749E-01 -0.16775069637E-01 -0.63355340202E-02  0.23182155933E-01  0.00000000000E+00 0.  1.
     999901    1    3    3    0    0  0.81312768052E-01 -0.89339726144E-01  0.41054130899E-01  0.88920121153E+00  0.88000000000E+00 0.  1.
        -11    1    4    4    0    0 -0.37814187292E-01  0.71364414189E-01 -0.14378022688E-01  0.82035242613E-01  0.51100000000E-03 0. -1.
         11    1    4    4    0    0 -0.28806052011E-01  0.34750381591E-01 -0.20340574191E-01  0.49511389928E-01  0.51100000000E-03 0.  1.
</event>
<event>
 8    1  0.1022673E+005  0.1043930E+01  0.7957747E-01            NaN
         13   -1    0    0    0    0  0.00000000000E+00  0.00000000000E+00  0.74505805969E-08  0.10566000000E+00  0.10566000000E+00 0. -1.
     999900   -1    0    0    0    0 -0.00000000000E+00 -0.00000000000E+00 -0.74505805969E-08  0.93827000000E+00  0.93827000000E+00 0. -1.
     999902    2    1    2    0    0 -0.12104528459E-02  0.83340078492E-02  0.21233667391E-01  0.10210872875E+01  0.10208317487E+01 0.  0.
     999903    2    3    3    0    0  0.78429507638E-01  0.49408180784E-01 -0.88701556809E-01  0.12973137403E+00  0.19232972462E-01 0.  0.
         14    1    1    2    0    0  0.12104528459E-02 -0.83340078492E-02 -0.21233667391E-01  0.22842712487E-01  0.00000000000E+00 0.  1.
     999901    1    3    3    0    0 -0.79639960484E-01 -0.41074172935E-01  0.10993522420E+00  0.89135591349E+00  0.88000000000E+00 0.  1.
        -11    1    4    4    0    0  0.38914813029E-01  0.32510731785E-01 -0.57211394630E-01  0.76450736757E-01  0.51100000000E-03 0.  1.
         11    1    4    4    0    0  0.39514694609E-01  0.16897448999E-01 -0.31490162179E-01  0.53280637268E-01  0.51100000000E-03 0. -1.
</event>
<event>
 8    1  0.1022673E+005  0.1043930E+01  0.7957747E-01            NaN
         13   -1    0    0    0    0  0.00000000000E+00  0.00000000000E+00  0.74505805969E-08  0.10566000000E+00  0.10566000000E+00 0. -1.
     999900   -1    0    0    0    0 -0.00000000000E+00 -0.00000000000E+00 -0.74505805969E-08  0.93827000000E+00  0.93827000000E+00 0. -1.
     999902    2    1    2    0    0 -0.10387548252E-01  0.15188769264E-01 -0.15017335865E-01  0.10201787843E+01  0.10199022658E+01 0.  0.
     999903    2    3    3    0    0 -0.55457621105E-01  0.16820348578E-01  0.11375745446E+00  0.12966380962E+00  0.22659947403E-01 0.  0.
         14    1    1    2    0    0  0.10387548252E-01 -0.15188769264E-01  0.15017335865E-01  0.23751215693E-01  0.00000000000E+00 0. -1.
     999901    1    3    3    0    0  0.45070072853E-01 -0.16315793142E-02 -0.12877479032E+00  0.89051497469E+00  0.88000000000E+00 0. -1.
        -11    1    4    4    0    0 -0.41622285119E-01  0.15391115912E-01  0.10273045728E+00  0.11190669793E+00  0.51100000000E-03 0. -1.
         11    1    4    4    0    0 -0.13835335986E-01  0.14292326664E-02  0.11026997171E-01  0.17757111687E-01  0.51100000000E-03 0.  1.
</event>
<event>
 8    1  0.1022673E+005  0.1043930E+01  0.7957747E-01            NaN
         13   -1    0    0    0    0  0.00000000000E+00  0.00000000000E+00  0.74505805969E-08  0.10566000000E+00  0.10566000000E+00 0. -1.
     999900   -1    0    0    0    0 -0.00000000000E+00 -0.00000000000E+00 -0.74505805969E-08  0.93827000000E+00  0.93827000000E+00 0.  1.
     999902    2    1    2    0    0 -0.62272089450E-02  0.10719490512E-01 -0.20069526079E-01  0.10203403522E+01  0.10200676266E+01 0.  0.
     999903    2    3    3    0    0 -0.86932439920E-01  0.70139934580E-01  0.64647663106E-01  0.13060942338E+00  0.20065931285E-01 0.  0.
         14    1    1    2    0    0  0.62272089450E-02 -0.10719490512E-01  0.20069526079E-01  0.23589647838E-01  0.00000000000E+00 0. -1.
     999901    1    3    3    0    0  0.80705230975E-01 -0.59420444068E-01 -0.84717189185E-01  0.88973092878E+00  0.88000000000E+00 0. -1.
        -11    1    4    4    0    0 -0.33873942282E-01  0.16898744732E-01  0.16180090056E-01  0.41171203218E-01  0.51100000000E-03 0.  1.
         11    1    4    4    0    0 -0.53058497638E-01  0.53241189848E-01  0.48467573051E-01  0.89438220166E-01  0.51100000000E-03 0. -1.
</event>
<event>
 8    1  0.1022673E+005  0.1043930E+01  0.7957747E-01            NaN
         13   -1    0    0    0    0  0.00000000000E+00  0.00000000000E+00  0.74505805969E-08  0.10566000000E+00  0.10566000000E+00 0. -1.
     999900   -1    0    0    0    0 -0.00000000000E+00 -0.00000000000E+00 -0.74505805969E-08  0.93827000000E+00  0.93827000000E+00 0. -1.
     999902    2    1    2    0    0  0.19130551978E-01  0.81706858714E-02 -0.11957042662E-01  0.10199360634E+01  0.10196537963E+01 0.  0.
     999903    2    3    3    0    0 -0.24700656272E-01  0.47297404119E-01  0.11553052486E+00  0.12881028392E+00  0.19940416552E-01 0.  0.
         14    1    1    2    0    0 -0.19130551978E-01 -0.81706858714E-02  0.11957042662E-01  0.23993936647E-01  0.00000000000E+00 0. -1.
     999901    1    3    3    0    0  0.43831208250E-01 -0.39126718248E-01 -0.12748756752E+00  0.89112577943E+00  0.88000000000E+00 0. -1.
        -11    1    4    4    0    0 -0.33793327108E-02  0.21394351923E-01  0.61545935354E-01  0.65247999688E-01  0.51100000000E-03 0. -1.
         11    1    4    4    0    0 -0.21321323561E-01  0.25903052196E-01  0.53984589507E-01  0.63562284231E-01  0.51100000000E-03 0.  1.
</event>
<event>
 8    1  0.1022673E+005  0.1043930E+01  0.7957747E-01            NaN
         13   -1    0    0    0    0  0.00000000000E+00  0.00000000000E+00  0.74505805969E-08  0.10566000000E+00  0.10566000000E+00 0.  1.
     999900   -1    0    0    0    0 -0.00000000000E+00 -0.00000000000E+00 -0.74505805969E-08  0.93827000000E+00  0.93827000000E+00 0. -1.
     999902    2    1    2    0    0  0.23421346289E-01 -0.55275159048E-02 -0.27834685450E-02  0.10197047943E+01  0.10194169936E+01 0.  0.
     999903    2    3    3    0    0  0.12973434420E+00 -0.38214502851E-02  0.20792543687E-01  0.13299109048E+00  0.20216249079E-01 0.  0.
         14    1    1    2    0    0 -0.23421346289E-01  0.55275159048E-02  0.27834685450E-02  0.24225205700E-01  0.00000000000E+00 0. -1.
     999901    1    3    3    0    0 -0.10631299791E+00 -0.17060656197E-02 -0.23576012233E-01  0.88671370382E+00  0.88000000000E+00 0. -1.
        -11    1    4    4    0    0  0.77831890514E-01  0.36450055503E-02  0.20421532202E-01  0.80550539073E-01  0.51100000000E-03 0.  1.
         11    1    4    4    0    0  0.51902453688E-01 -0.74664558354E-02  0.37101148528E-03  0.52440551409E-01  0.51100000000E-03 0. -1.
</event>
<event>
 8    1  0.1022673E+005  0.1043930E+01  0.7957747E-01            NaN
         13   -1    0    0    0    0  0.00000000000E+00  0.00000000000E+00  0.74505805969E-08  0.10566000000E+00  0.10566000000E+00 0.  1.
     999900   -1    0    0    0    0 -0.00000000000E+00 -0.00000000000E+00 -0.74505805969E-08  0.93827000000E+00  0.93827000000E+00 0. -1.
     999902    2    1    2    0    0  0.21641457683E-01 -0.72577813131E-02  0.60994618147E-02  0.10203030765E+01  0.10200294782E+01 0.  0.
     999903    2    3    3    0    0 -0.10184610197E+00 -0.18074898368E-01  0.74637200272E-01  0.12897619537E+00  0.19100179833E-01 0.  0.
         14    1    1    2    0    0 -0.21641457683E-01  0.72577813131E-02 -0.60994618147E-02  0.23626923513E-01  0.00000000000E+00 0.  1.
     999901    1    3    3    0    0  0.12348755966E+00  0.10817117055E-01 -0.68537738457E-01  0.89132688112E+00  0.88000000000E+00 0.  1.
        -11    1    4    4    0    0 -0.90699062579E-01 -0.10795783186E-01  0.69166489775E-01  0.11457370255E+00  0.51100000000E-03 0.  1.
         11    1    4    4    0    0 -0.11147039392E-01 -0.72791151822E-02  0.54707104970E-02  0.14402492819E-01  0.51100000000E-03 0. -1.
</event>
<event>
 8    1  0.1022673E+005  0.1043930E+01  0.7957747E-01            NaN
         13   -1    0    0    0    0  0.00000000000E+00  0.00000000000E+00  0.74505805969E-08  0.10566000000E+00  0.10566000000E+00 0.  1.
     999900   -1    0    0    0    0 -0.00000000000E+00 -0.00000000000E+00 -0.74505805969E-08  0.93827000000E+00  0.93827000000E+00 0.  1.
     999902    2    1    2    0    0  0.72113490126E-02 -0.28522298734E-01 -0.17883373866E-02  0.10144558888E+01  0.10140276264E+01 0.  0.
     999903    2    3    3    0    0 -0.32108834515E-01 -0.10372883855E+00 -0.64694525823E-01  0.12813806263E+00  0.21055455870E-01 0.  0.
         14    1    1    2    0    0 -0.72113490126E-02  0.28522298734E-01  0.17883373866E-02  0.29474111187E-01  0.00000000000E+00 0.  1.
     999901    1    3    3    0    0  0.39320183528E-01  0.75206539819E-01  0.62906188436E-01  0.88631782618E+00  0.88000000000E+00 0. -1.
        -11    1    4    4    0    0 -0.25597079227E-01 -0.50512895377E-01 -0.28052895795E-01  0.63198015378E-01  0.51100000000E-03 0. -1.
         11    1    4    4    0    0 -0.65117552887E-02 -0.53215943176E-01 -0.36641630028E-01  0.64940047253E-01  0.51100000000E-03 0.  1.
</event>
<event>
 8    1  0.1022673E+005  0.1043930E+01  0.7957747E-01            NaN
         13   -1    0    0    0    0  0.00000000000E+00  0.00000000000E+00  0.74505805969E-08  0.10566000000E+00  0.10566000000E+00 0. -1.
     999900   -1    0    0    0    0 -0.00000000000E+00 -0.00000000000E+00 -0.74505805969E-08  0.93827000000E+00  0.93827000000E+00 0.  1.
     999902    2    1    2    0    0 -0.12466703587E-01 -0.17997303174E-01 -0.66992837709E-02  0.10210345414E+01  0.10207778077E+01 0.  0.
     999903    2    3    3    0    0  0.72036204770E-01  0.10434362362E+00 -0.79866499176E-02  0.12856061957E+00  0.19678407961E-01 0.  0.
         14    1    1    2    0    0  0.12466703587E-01  0.17997303174E-01  0.66992837709E-02  0.22895458565E-01  0.00000000000E+00 0. -1.
     999901    1    3    3    0    0 -0.84502908357E-01 -0.12234092680E+00  0.12873661467E-02  0.89247392186E+00  0.88000000000E+00 0. -1.
        -11    1    4    4    0    0  0.65466331867E-01  0.85016888019E-01 -0.21546318702E-02  0.10732481268E+00  0.51100000000E-03 0. -1.
         11    1    4    4    0    0  0.65698729024E-02  0.19326735604E-01 -0.58320180474E-02  0.21235806897E-01  0.51100000000E-03 0.  1.
</event>
<event>
 8    1  0.1022673E+005  0.1043930E+01  0.7957747E-01            NaN
         13   -1    0    0    0    0  0.00000000000E+00  0.00000000000E+00  0.74505805969E-08  0.10566000000E+00  0.10566000000E+00 0.  1.
     999900   -1    0    0    0    0 -0.00000000000E+00 -0.00000000000E+00 -0.74505805969E-08  0.93827000000E+00  0.93827000000E+00 0.  1.
     999902    2    1    2    0    0  0.14623704677E-01 -0.76638005721E-02 -0.17595913671E-01  0.10198011220E+01  0.10195156328E+01 0.  0.
     999903    2    3    3    0    0  0.37414620287E-01  0.11821804175E+00  0.30427577458E-01  0.12925526701E+00  0.20142675427E-01 0.  0.
         14    1    1    2    0    0 -0.14623704677E-01  0.76638005721E-02  0.17595913671E-01  0.24128878042E-01  0.00000000000E+00 0.  1.
     999901    1    3    3    0    0 -0.22790915610E-01 -0.12588184232E+00 -0.48023491128E-01  0.89054585495E+00  0.88000000000E+00 0. -1.
        -11    1    4    4    0    0  0.27056081749E-01  0.83042361842E-01  0.30708324797E-01  0.92581465493E-01  0.51100000000E-03 0. -1.
         11    1    4    4    0    0  0.10358538538E-01  0.35175679910E-01 -0.28074733965E-03  0.36673801519E-01  0.51100000000E-03 0.  1.
</event>
<event>
 8    1  0.1022673E+005  0.1043930E+01  0.7957747E-01            NaN
         13   -1    0    0    0    0  0.00000000000E+00  0.00000000000E+00  0.74505805969E-08  0.10566000000E+00  0.10566000000E+00 0.  1.
     999900   -1    0    0    0    0 -0.00000000000E+00 -0.00000000000E+00 -0.74505805969E-08  0.93827000000E+00  0.93827000000E+00 0.  1.
     999902    2    1    2    0    0  0.20333045316E-01 -0.95804203163E-03 -0.11561636060E-01  0.10205201302E+01  0.10202515935E+01 0.  0.
     999903    2    3    3    0    0  0.11654315503E+00 -0.58760176409E-01  0.16020346446E-01  0.13296267418E+00  0.19681359405E-01 0.  0.
         14    1    1    2    0    0 -0.20333045316E-01  0.95804203163E-03  0.11561636060E-01  0.23409869815E-01  0.00000000000E+00 0.  1.
     999901    1    3    3    0    0 -0.96210109718E-01  0.57802134377E-01 -0.27581982507E-01  0.88755745600E+00  0.88000000000E+00 0.  1.
        -11    1    4    4    0    0  0.31163870774E-01 -0.13130241189E-01  0.12605122881E-01  0.36093494138E-01  0.51100000000E-03 0.  1.
         11    1    4    4    0    0  0.85379284261E-01 -0.45629935220E-01  0.34152235653E-02  0.96869180042E-01  0.51100000000E-03 0. -1.
</event>
<event>
 7    1  0.1022673E+005  0.1043930E+01  0.7957747E-01            NaN
         13   -1    0    0    0    0  0.00000000000E+00  0.00000000000E+00  0.74505805969E-08  0.10566000000E+00  0.10566000000E+00 0.  1.
     999900   -1    0    0    0    0 -0.00000000000E+00 -0.00000000000E+00 -0.74505805969E-08  0.93827000000E+00  0.93827000000E+00 0.  1.
     999903    2    1    2    0    0 -0.75602121290E-01 -0.12557703791E-01 -0.69254246244E-01  0.10528974559E+00  0.20405960789E-01 0.  0.
         14    1    1    2    0    0 -0.14252454480E-01  0.11128959699E-01  0.50744305624E-01  0.53869942973E-01  0.00000000000E+00 0.  1.
     999901    1    1    2    0    0  0.89854575770E-01  0.14287440918E-02  0.18509940620E-01  0.88477031144E+00  0.88000000000E+00 0. -1.
        -11    1    3    3    0    0 -0.22533921261E-01  0.24667950966E-02 -0.29936111763E-01  0.37553889198E-01  0.51100000000E-03 0. -1.
         11    1    3    3    0    0 -0.53068200029E-01 -0.15024498887E-01 -0.39318134481E-01  0.67735856393E-01  0.51100000000E-03 0.  1.
</event>
<event>
 8    1  0.1022673E+005  0.1043930E+01  0.7957747E-01            NaN
         13   -1    0    0    0    0  0.00000000000E+00  0.00000000000E+00  0.74505805969E-08  0.10566000000E+00  0.10566000000E+00 0.  1.
     999900   -1    0    0    0    0 -0.00000000000E+00 -0.00000000000E+00 -0.74505805969E-08  0.93827000000E+00  0.93827000000E+00 0. -1.
     999902    2    1    2    0    0 -0.10415071477E-01  0.17666566291E-01  0.62687866915E-02  0.10224852112E+01  0.10222603036E+01 0.  0.
     999903    2    3    3    0    0 -0.12292380061E+00  0.46131841586E-01 -0.20553202572E-01  0.13446049022E+00  0.20464157197E-01 0.  0.
         14    1    1    2    0    0  0.10415071477E-01 -0.17666566291E-01 -0.62687866915E-02  0.21444788760E-01  0.00000000000E+00 0. -1.
     999901    1    3    3    0    0  0.11250872914E+00 -0.28465275295E-01  0.26821989264E-01  0.88802472102E+00  0.88000000000E+00 0.  1.
        -11    1    4    4    0    0 -0.96206184535E-01  0.33407964111E-01 -0.24088606670E-01  0.10465296986E+00  0.51100000000E-03 0. -1.
         11    1    4    4    0    0 -0.26717616078E-01  0.12723877475E-01  0.35354040977E-02  0.29807520360E-01  0.51100000000E-03 0.  1.
</event>
<event>
 8    1  0.1022673E+005  0.1043930E+01  0.7957747E-01            NaN
         13   -1    0    0    0    0  0.00000000000E+00  0.00000000000E+00  0.74505805969E-08  0.10566000000E+00  0.10566000000E+00 0.  1.
     999900   -1    0    0    0    0 -0.00000000000E+00 -0.00000000000E+00 -0.74505805969E-08  0.93827000000E+00  0.93827000000E+00 0.  1.
     999902    2    1    2    0    0 -0.12068694189E-02  0.11237531769E-01  0.21467012533E-01  0.10196695119E+01  0.10193808622E+01 0.  0.
     999903    2    3    3    0    0 -0.64636290092E-01 -0.10855341292E+00  0.18453430688E-01  0.12928631156E+00  0.20315703240E-01 0.  0.
         14    1    1    2    0    0  0.12068694189E-02 -0.11237531769E-01 -0.21467012533E-01  0.24260488065E-01  0.00000000000E+00 0.  1.
     999901    1    3    3    0    0  0.63429420673E-01  0.11979094469E+00  0.30135818452E-02  0.89038320038E+00  0.88000000000E+00 0.  1.
        -11    1    4    4    0    0 -0.44840542279E-01 -0.59345887480E-01  0.49272278236E-02  0.74546276149E-01  0.51100000000E-03 0.  1.
         11    1    4    4    0    0 -0.19795747813E-01 -0.49207525443E-01  0.13526202864E-01  0.54740035409E-01  0.51100000000E-03 0. -1.
</event>
<event>
 8    1  0.1022673E+005  0.1043930E+01  0.7957747E-01            NaN
         13   -1    0    0    0    0  0.00000000000E+00  0.00000000000E+00  0.74505805969E-08  0.10566000000E+00  0.10566000000E+00 0.  1.
     999900   -1    0    0    0    0 -0.00000000000E+00 -0.00000000000E+00 -0.74505805969E-08  0.93827000000E+00  0.93827000000E+00 0. -1.
     999902    2    1    2    0    0  0.19643233952E-01  0.85654873501E-03  0.13216837997E-01  0.10202387543E+01  0.10199636467E+01 0.  0.
     999903    2    3    3    0    0  0.62217418770E-01  0.93851514503E-01  0.66978147226E-01  0.13268543014E+00  0.20981830057E-01 0.  0.
         14    1    1    2    0    0 -0.19643233952E-01 -0.85654873501E-03 -0.13216837997E-01  0.23691245693E-01  0.00000000000E+00 0. -1.
     999901    1    3    3    0    0 -0.42574184818E-01 -0.92994965768E-01 -0.53761309229E-01  0.88755332417E+00  0.88000000000E+00 0.  1.
        -11    1    4    4    0    0  0.56061343127E-01  0.82697013181E-01  0.66319880648E-01  0.11991771292E+00  0.51100000000E-03 0. -1.
         11    1    4    4    0    0  0.61560756431E-02  0.11154501322E-01  0.65826657856E-03  0.12767717217E-01  0.51100000000E-03 0.  1.
</event>
<event>
 8    1  0.1022673E+005  0.1043930E+01  0.7957747E-01            NaN
         13   -1    0    0    0    0  0.00000000000E+00  0.00000000000E+00  0.74505805969E-08  0.10566000000E+00  0.10566000000E+00 0. -1.
     999900   -1    0    0    0    0 -0.00000000000E+00 -0.00000000000E+00 -0.74505805969E-08  0.93827000000E+00  0.93827000000E+00 0. -1.
     999902    2    1    2    0    0 -0.23349595127E-01  0.46412532117E-02 -0.24007497400E-02  0.10200028518E+01  0.10197221725E+01 0.  0.
     999903    2    3    3    0    0  0.72957413867E-03 -0.11432768700E+00 -0.57606476984E-01  0.12995729817E+00  0.22339222580E-01 0.  0.
         14    1    1    2    0    0  0.23349595127E-01 -0.46412532117E-02  0.24007497400E-02  0.23927148248E-01  0.00000000000E+00 0. -1.
     999901    1    3    3    0    0 -0.24079169265E-01  0.11896894021E+00  0.55205727244E-01  0.89004555358E+00  0.88000000000E+00 0. -1.
        -11    1    4    4    0    0  0.95465902138E-02 -0.25627131670E-01 -0.13353631004E-01  0.30437934298E-01  0.51100000000E-03 0. -1.
         11    1    4    4    0    0 -0.88170160751E-02 -0.88700555327E-01 -0.44252845980E-01  0.99519363875E-01  0.51100000000E-03 0.  1.
</event>
<event>
 8    1  0.1022673E+005  0.1043930E+01  0.7957747E-01            NaN
         13   -1    0    0    0    0  0.00000000000E+00  0.00000000000E+00  0.74505805969E-08  0.10566000000E+00  0.10566000000E+00 0. -1.
     999900   -1    0    0    0    0 -0.00000000000E+00 -0.00000000000E+00 -0.74505805969E-08  0.93827000000E+00  0.93827000000E+00 0. -1.
     999902    2    1    2    0    0  0.19634996018E-01  0.12059524127E-02 -0.10689153478E-01  0.10215414897E+01  0.10212961225E+01 0.  0.
     999903    2    3    3    0    0 -0.63312389838E-01  0.79287527460E-01 -0.81091407662E-01  0.13141033166E+00  0.19947133941E-01 0.  0.
         14    1    1    2    0    0 -0.19634996018E-01 -0.12059524127E-02  0.10689153478E-01  0.22388510266E-01  0.00000000000E+00 0. -1.
     999901    1    3    3    0    0  0.82947385856E-01 -0.78081575047E-01  0.70402254183E-01  0.89013115808E+00  0.88000000000E+00 0.  1.
        -11    1    4    4    0    0 -0.90375910095E-02  0.25119230310E-01 -0.22171121293E-01  0.34705525829E-01  0.51100000000E-03 0.  1.
         11    1    4    4    0    0 -0.54274798828E-01  0.54168297149E-01 -0.58920286369E-01  0.96704805830E-01  0.51100000000E-03 0. -1.
</event>
<event>
 8    1  0.1022673E+005  0.1043930E+01  0.7957747E-01            NaN
         13   -1    0    0    0    0  0.00000000000E+00  0.00000000000E+00  0.74505805969E-08  0.10566000000E+00  0.10566000000E+00 0.  1.
     999900   -1    0    0    0    0 -0.00000000000E+00 -0.00000000000E+00 -0.74505805969E-08  0.93827000000E+00  0.93827000000E+00 0.  1.
     999902    2    1    2    0    0 -0.59944052472E-02  0.18914100999E-01 -0.15909434624E-01  0.10184980079E+01  0.10181804388E+01 0.  0.
     999903    2    3    3    0    0  0.70129246083E-01 -0.10256083512E+00  0.12636035001E-01  0.12644093899E+00  0.19768804128E-01 0.  0.
         14    1    1    2    0    0  0.59944052472E-02 -0.18914100999E-01  0.15909434624E-01  0.25431992076E-01  0.00000000000E+00 0. -1.
     999901    1    3    3    0    0 -0.76123651330E-01  0.12147493612E+00 -0.28545469625E-01  0.89205706893E+00  0.88000000000E+00 0. -1.
        -11    1    4    4    0    0  0.10000199390E-01 -0.29390073018E-01  0.15803371065E-02  0.31089209803E-01  0.51100000000E-03 0. -1.
         11    1    4    4    0    0  0.60129046693E-01 -0.73170762099E-01  0.11055697894E-01  0.95351729189E-01  0.51100000000E-03 0.  1.
</event>
<event>
 8    1  0.1022673E+005  0.1043930E+01  0.7957747E-01            NaN
         13   -1    0    0    0    0  0.00000000000E+00  0.00000000000E+00  0.74505805969E-08  0.10566000000E+00  0.10566000000E+00 0.  1.
     999900   -1    0    0    0    0 -0.00000000000E+00 -0.00000000000E+00 -0.74505805969E-08  0.93827000000E+00  0.93827000000E+00 0. -1.
     999902    2    1    2    0    0 -0.10552253855E-01 -0.15221243637E-01  0.14013533034E-01  0.10207046813E+01  0.10204404103E+01 0.  0.
     999903    2    3    3    0    0 -0.20061853147E-01  0.10724941573E+00 -0.65414143451E-01  0.12862943188E+00  0.19015926413E-01 0.  0.
         14    1    1    2    0    0  0.10552253855E-01  0.15221243637E-01 -0.14013533034E-01  0.23225318671E-01  0.00000000000E+00 0.  1.
     999901    1    3    3    0    0  0.95095992923E-02 -0.12247065936E+00  0.79427676485E-01  0.89207524945E+00  0.88000000000E+00 0.  1.
        -11    1    4    4    0    0 -0.19053265546E-01  0.84392142988E-01 -0.43071246917E-01  0.96646025050E-01  0.51100000000E-03 0. -1.
         11    1    4    4    0    0 -0.10085876010E-02  0.22857272739E-01 -0.22342896534E-01  0.31983406832E-01  0.51100000000E-03 0.  1.
</event>
<event>
 8    1  0.1022673E+005  0.1043930E+01  0.7957747E-01            NaN
         13   -1    0    0    0    0  0.00000000000E+00  0.00000000000E+00  0.74505805969E-08  0.10566000000E+00  0.10566000000E+00 0. -1.
     999900   -1    0    0    0    0 -0.00000000000E+00 -0.00000000000E+00 -0.74505805969E-08  0.93827000000E+00  0.93827000000E+00 0.  1.
     999902    2    1    2    0    0  0.17345547306E-01 -0.10503940695E-01  0.12868634559E-01  0.10199132863E+01  0.10196304767E+01 0.  0.
     999903    2    3    3    0    0 -0.31319866997E-01 -0.84121876951E-01  0.94399497765E-01  0.13174933480E+00  0.19728096517E-01 0.  0.
         14    1    1    2    0    0 -0.17345547306E-01  0.10503940695E-01 -0.12868634559E-01  0.24016713699E-01  0.00000000000E+00 0.  1.
     999901    1    3    3    0    0  0.48665414303E-01  0.73617936256E-01 -0.81530863205E-01  0.88816395150E+00  0.88000000000E+00 0.  1.
        -11    1    4    4    0    0 -0.17470645237E-01 -0.21768347187E-01  0.25741280385E-01  0.37973135518E-01  0.51100000000E-03 0. -1.
         11    1    4    4    0    0 -0.13849221760E-01 -0.62353529763E-01  0.68658217380E-01  0.93776199284E-01  0.51100000000E-03 0.  1.
</event>
<event>
 8    1  0.1022673E+005  0.1043930E+01  0.7957747E-01            NaN
         13   -1    0    0    0    0  0.00000000000E+00  0.00000000000E+00  0.74505805969E-08  0.10566000000E+00  0.10566000000E+00 0.  1.
     999900   -1    0    0    0    0 -0.00000000000E+00 -0.00000000000E+00 -0.74505805969E-08  0.93827000000E+00  0.93827000000E+00 0.  1.
     999902    2    1    2    0    0 -0.21638742333E-01 -0.59749676958E-02 -0.68865627226E-02  0.10204489405E+01  0.10201787491E+01 0.  0.
     999903    2    3    3    0    0 -0.10787453925E+00 -0.69951380152E-01 -0.29977945143E-01  0.13362155823E+00  0.20638115813E-01 0.  0.
         14    1    1    2    0    0  0.21638742333E-01  0.59749676958E-02  0.68865627226E-02  0.23481059492E-01  0.00000000000E+00 0.  1.
     999901    1    3    3    0    0  0.86235796918E-01  0.63976412456E-01  0.23091382420E-01  0.88682738228E+00  0.88000000000E+00 0. -1.
        -11    1    4    4    0    0 -0.35468555743E-01 -0.11983398345E-01 -0.96928538308E-02  0.38675997968E-01  0.51100000000E-03 0.  1.
         11    1    4    4    0    0 -0.72405983507E-01 -0.57967981807E-01 -0.20285091312E-01  0.94945560259E-01  0.51100000000E-03 0. -1.
</event>
<event>
 8    1  0.1022673E+005  0.1043930E+01  0.7957747E-01            NaN
         13   -1    0    0    0    0  0.00000000000E+00  0.00000000000E+00  0.74505805969E-08  0.10566000000E+00  0.10566000000E+00 0. -1.
     999900   -1    0    0    0    0 -0.00000000000E+00 -0.00000000000E+00 -0.74505805969E-08  0.93827000000E+00  0.93827000000E+00 0.  1.
     999902    2    1    2    0    0  0.15860885891E-01 -0.99128067565E-03 -0.17702349537E-01  0.10201408529E+01  0.10198634400E+01 0.  0.
     999903    2    3    3    0    0  0.12276530367E+00  0.43268536206E-01 -0.18021130768E-01  0.13256686304E+00  0.17485022482E-01 0.  0.
         14    1    1    2    0    0 -0.15860885891E-01  0.99128067565E-03  0.17702349537E-01  0.23789147058E-01  0.00000000000E+00 0. -1.
     999901    1    3    3    0    0 -0.10690441778E+00 -0.44259816882E-01  0.31878123061E-03  0.88757398990E+00  0.88000000000E+00 0. -1.
        -11    1    4    4    0    0  0.56384625289E-01  0.28457345103E-01 -0.54054310190E-02  0.63391846990E-01  0.51100000000E-03 0. -1.
         11    1    4    4    0    0  0.66380678381E-01  0.14811191103E-01 -0.12615699749E-01  0.69175016049E-01  0.51100000000E-03 0.  1.
</event>
<event>
 8    1  0.1022673E+005  0.1043930E+01  0.7957747E-01            NaN
         13   -1    0    0    0    0  0.00000000000E+00  0.00000000000E+00  0.74505805969E-08  0.10566000000E+00  0.10566000000E+00 0.  1.
     999900   -1    0    0    0    0 -0.00000000000E+00 -0.00000000000E+00 -0.74505805969E-08  0.93827000000E+00  0.93827000000E+00 0.  1.
     999902    2    1    2    0    0 -0.35649989549E-03  0.18674886849E-03  0.23810081567E-01  0.10201165174E+01  0.10198385300E+01 0.  0.
     999903    2    3    3    0    0 -0.80576802492E-01 -0.91065205263E-02 -0.97068373851E-01  0.12818980364E+00  0.20852020046E-01 0.  0.
         14    1    1    2    0    0  0.35649989549E-03 -0.18674886849E-03 -0.23810081567E-01  0.23813482558E-01  0.00000000000E+00 0. -1.
     999901    1    3    3    0    0  0.80220302596E-01  0.92932693948E-02  0.12087845542E+00  0.89192671380E+00  0.88000000000E+00 0. -1.
        -11    1    4    4    0    0 -0.17784901832E-01 -0.18682189374E-02 -0.96916757266E-02  0.20346564196E-01  0.51100000000E-03 0.  1.
         11    1    4    4    0    0 -0.62791900660E-01 -0.72383015889E-02 -0.87376698125E-01  0.10784323945E+00  0.51100000000E-03 0. -1.
</event>
<event>
 8    1  0.1022673E+005  0.1043930E+01  0.7957747E-01            NaN
         13   -1    0    0    0    0  0.00000000000E+00  0.00000000000E+00  0.74505805969E-08  0.10566000000E+00  0.10566000000E+00 0. -1.
     999900   -1    0    0    0    0 -0.00000000000E+00 -0.00000000000E+00 -0.74505805969E-08  0.93827000000E+00  0.93827000000E+00 0.  1.
     999902    2    1    2    0    0 -0.27576484924E-02  0.91445154074E-02  0.21534004580E-01  0.10203728325E+01  0.10201008662E+01 0.  0.
     999903    2    3    3    0    0  0.79763146051E-01  0.10230720231E+00  0.60009253564E-02  0.13148012564E+00  0.20544810066E-01 0.  0.
         14    1    1    2    0    0  0.27576484924E-02 -0.91445154074E-02 -0.21534004580E-01  0.23557167497E-01  0.00000000000E+00 0.  1.
     999901    1    3    3    0    0 -0.82520794543E-01 -0.93162686903E-01  0.15533079223E-01  0.88889270686E+00  0.88000000000E+00 0.  1.
        -11    1    4    4    0    0  0.44785815993E-01  0.60137094058E-01 -0.65553474572E-02  0.75269337032E-01  0.51100000000E-03 0. -1.
         11    1    4    4    0    0  0.34977330058E-01  0.42170108253E-01  0.12556272814E-01  0.56210788609E-01  0.51100000000E-03 0.  1.
</event>
<event>
 8    1  0.1022673E+005  0.1043930E+01  0.7957747E-01            NaN
         13   -1    0    0    0    0  0.00000000000E+00  0.00000000000E+00  0.74505805969E-08  0.10566000000E+00  0.10566000000E+00 0.  1.
     999900   -1    0    0    0    0 -0.00000000000E+00 -0.00000000000E+00 -0.74505805969E-08  0.93827000000E+00  0.93827000000E+00 0.  1.
     999902    2    1    2    0    0  0.27763395609E-01  0.80916160364E-02 -0.69855582565E-02  0.10141797326E+01  0.10137432868E+01 0.  0.
     999903    2    3    3    0    0  0.43443563733E-01 -0.72220578595E-01  0.90298439347E-01  0.12504527007E+00  0.19477068985E-01 0.  0.
         14    1    1    2    0    0 -0.27763395609E-01 -0.80916160364E-02  0.69855582565E-02  0.29750267393E-01  0.00000000000E+00 0. -1.
     999901    1    3    3    0    0 -0.15680168124E-01  0.80312194631E-01 -0.97283997604E-01  0.88913446254E+00  0.88000000000E+00 0.  1.
        -11    1    4    4    0    0  0.11718152560E-01 -0.18831082602E-01  0.12387548856E-01  0.25409393126E-01  0.51100000000E-03 0. -1.
         11    1    4    4    0    0  0.31725411173E-01 -0.53389495993E-01  0.77910890491E-01  0.99635876945E-01  0.51100000000E-03 0.  1.
</event>
<event>
 8    1  0.1022673E+005  0.1043930E+01  0.7957747E-01            NaN
         13   -1    0    0    0    0  0.00000000000E+00  0.00000000000E+00  0.74505805969E-08  0.10566000000E+00  0.10566000000E+00 0. -1.
     999900   -1    0    0    0    0 -0.00000000000E+00 -0.00000000000E+00 -0.74505805969E-08  0.93827000000E+00  0.93827000000E+00 0.  1.
     999902    2    1    2    0    0  0.21113583812E-01 -0.74331210253E-02 -0.58134413797E-02  0.10208035906E+01  0.10205415914E+01 0.  0.
     999903    2    3    3    0    0  0.94748973288E-01  0.64677934294E-01 -0.64160218465E-01  0.13286974103E+00  0.19422443792E-01 0.  0.
         14    1    1    2    0    0 -0.21113583812E-01  0.74331210253E-02  0.58134413797E-02  0.23126409367E-01  0.00000000000E+00 0.  1.
     999901    1    3    3    0    0 -0.73635389477E-01 -0.72111055320E-01  0.58346777086E-01  0.88793384961E+00  0.88000000000E+00 0. -1.
        -11    1    4    4    0    0  0.42557609657E-01  0.35656343304E-01 -0.40081045929E-01  0.68478290876E-01  0.51100000000E-03 0.  1.
         11    1    4    4    0    0  0.52191363631E-01  0.29021590991E-01 -0.24079172536E-01  0.64391450149E-01  0.51100000000E-03 0. -1.
</event>
<event>
 8    1  0.1022673E+005  0.1043930E+01  0.7957747E-01            NaN
         13   -1    0    0    0    0  0.00000000000E+00  0.00000000000E+00  0.74505805969E-08  0.10566000000E+00  0.10566000000E+00 0. -1.
     999900   -1    0    0    0    0 -0.00000000000E+00 -0.00000000000E+00 -0.74505805969E-08  0.93827000000E+00  0.93827000000E+00 0. -1.
     999902    2    1    2    0    0  0.17279378524E-01  0.24007806942E-02 -0.21573284466E-01  0.10161856804E+01  0.10158068663E+01 0.  0.
     999903    2    3    3    0    0  0.48296978386E-02  0.63674330748E-01  0.10549992476E+00  0.12486248252E+00  0.19561672728E-01 0.  0.
         14    1    1    2    0    0 -0.17279378524E-01 -0.24007806942E-02  0.21573284466E-01  0.27744319648E-01  0.00000000000E+00 0. -1.
     999901    1    3    3    0    0  0.12449680685E-01 -0.61273550054E-01 -0.12707320923E+00  0.89132319783E+00  0.88000000000E+00 0. -1.
        -11    1    4    4    0    0  0.29675290175E-02  0.14079665250E-01  0.10990925298E-01  0.18113662300E-01  0.51100000000E-03 0.  1.
         11    1    4    4    0    0  0.18621688210E-02  0.49594665498E-01  0.94508999462E-01  0.10674882022E+00  0.51100000000E-03 0. -1.
</event>
<event>
 8    1  0.1022673E+005  0.1043930E+01  0.7957747E-01            NaN
         13   -1    0    0    0    0  0.00000000000E+00  0.00000000000E+00  0.74505805969E-08  0.10566000000E+00  0.10566000000E+00 0.  1.
     999900   -1    0    0    0    0 -0.00000000000E+00 -0.00000000000E+00 -0.74505805969E-08  0.93827000000E+00  0.93827000000E+00 0.  1.
     999902    2    1    2    0    0  0.18181897214E-01 -0.49796451580E-02  0.13785668421E-01  0.10205757090E+01  0.10203084607E+01 0.  0.
     999903    2    3    3    0    0  0.43600062249E-01 -0.11308662418E+00  0.50370181641E-01  0.13284172376E+00  0.20499228681E-01 0.  0.
         14    1    1    2    0    0 -0.18181897214E-01  0.49796451580E-02 -0.13785668421E-01  0.23354290955E-01  0.00000000000E+00 0. -1.
     999901    1    3    3    0    0 -0.25418165034E-01  0.10810697902E+00 -0.36584513220E-01  0.88773398529E+00  0.88000000000E+00 0.  1.
        -11    1    4    4    0    0  0.67171140384E-02 -0.23921486927E-01  0.20792290722E-02  0.24938754427E-01  0.51100000000E-03 0. -1.
         11    1    4    4    0    0  0.36882948210E-01 -0.89165137249E-01  0.48290952569E-01  0.10790296933E+00  0.51100000000E-03 0.  1.
</event>
<event>
 8    1  0.1022673E+005  0.1043930E+01  0.7957747E-01            NaN
         13   -1    0    0    0    0  0.00000000000E+00  0.00000000000E+00  0.74505805969E-08  0.10566000000E+00  0.10566000000E+00 0.  1.
     999900   -1    0    0    0    0 -0.00000000000E+00 -0.00000000000E+00 -0.74505805969E-08  0.93827000000E+00  0.93827000000E+00 0. -1.
     999902    2    1    2    0    0  0.18972523782E-01 -0.11514879125E-01  0.76311632875E-02  0.10204612175E+01  0.10201913118E+01 0.  0.
     999903    2    3    3    0    0  0.52171568495E-01 -0.20475318095E-02  0.12024652423E+00  0.13261324245E+00  0.20024498487E-01 0.  0.
         14    1    1    2    0    0 -0.18972523782E-01  0.11514879125E-01 -0.76311632875E-02  0.23468782522E-01  0.00000000000E+00 0. -1.
     999901    1    3    3    0    0 -0.33199044713E-01 -0.94673473158E-02 -0.11261536094E+00  0.88784797502E+00  0.88000000000E+00 0. -1.
        -11    1    4    4    0    0  0.39007655059E-01  0.72389907629E-02  0.81377038771E-01  0.90534433784E-01  0.51100000000E-03 0.  1.
         11    1    4    4    0    0  0.13163913436E-01 -0.92865225723E-02  0.38869485456E-01  0.42078808670E-01  0.51100000000E-03 0. -1.
</event>
<event>
 8    1  0.1022673E+005  0.1043930E+01  0.7957747E-01            NaN
         13   -1    0    0    0    0  0.00000000000E+00  0.00000000000E+00  0.74505805969E-08  0.10566000000E+00  0.10566000000E+00 0. -1.
     999900   -1    0    0    0    0 -0.00000000000E+00 -0.00000000000E+00 -0.74505805969E-08  0.93827000000E+00  0.93827000000E+00 0.  1.
     999902    2    1    2    0    0 -0.58491595844E-02 -0.14451457193E-01 -0.17992499741E-01  0.10201227043E+01  0.10198448629E+01 0.  0.
     999903    2    3    3    0    0 -0.24894060649E-01 -0.10192799500E+00 -0.80012573270E-01  0.13340891593E+00  0.19669685987E-01 0.  0.
         14    1    1    2    0    0  0.58491595844E-02  0.14451457193E-01  0.17992499741E-01  0.23807295726E-01  0.00000000000E+00 0. -1.
     999901    1    3    3    0    0  0.19044901065E-01  0.87476537810E-01  0.62020073529E-01  0.88671378835E+00  0.88000000000E+00 0. -1.
        -11    1    4    4    0    0 -0.21304315112E-01 -0.10008564389E+00 -0.78833631043E-01  0.12917434907E+00  0.51100000000E-03 0.  1.
         11    1    4    4    0    0 -0.35897455369E-02 -0.18423511177E-02 -0.11789422263E-02  0.42345668532E-02  0.51100000000E-03 0. -1.
</event>
<event>
 8    1  0.1022673E+005  0.1043930E+01  0.7957747E-01            NaN
         13   -1    0    0    0    0  0.00000000000E+00  0.00000000000E+00  0.74505805969E-08  0.10566000000E+00  0.10566000000E+00 0.  1.
     999900   -1    0    0    0    0 -0.00000000000E+00 -0.00000000000E+00 -0.74505805969E-08  0.93827000000E+00  0.93827000000E+00 0. -1.
     999902    2    1    2    0    0  0.11361643277E-01 -0.22958026912E-01 -0.85707985839E-02  0.10169185853E+01  0.10165597831E+01 0.  0.
     999903    2    3    3    0    0  0.20338878811E-01 -0.12512906379E+00 -0.15183584879E-01  0.13093707277E+00  0.29034861483E-01 0.  0.
         14    1    1    2    0    0 -0.11361643277E-01  0.22958026912E-01  0.85707985839E-02  0.27011414736E-01  0.00000000000E+00 0. -1.
     999901    1    3    3    0    0 -0.89772355343E-02  0.10217103687E+00  0.66127862956E-02  0.88598151249E+00  0.88000000000E+00 0.  1.
        -11    1    4    4    0    0  0.24281460654E-01 -0.70016156116E-01 -0.15344707181E-01  0.75680728117E-01  0.51100000000E-03 0. -1.
         11    1    4    4    0    0 -0.39425818425E-02 -0.55112907670E-01  0.16112230207E-03  0.55256344656E-01  0.51100000000E-03 0.  1.
</event>
<event>
 8    1  0.1022673E+005  0.1043930E+01  0.7957747E-01            NaN
         13   -1    0    0    0    0  0.00000000000E+00  0.00000000000E+00  0.74505805969E-08  0.10566000000E+00  0.10566000000E+00 0.  1.
     999900   -1    0    0    0    0 -0.00000000000E+00 -0.00000000000E+00 -0.74505805969E-08  0.93827000000E+00  0.93827000000E+00 0.  1.
     999902    2    1    2    0    0  0.23738346131E-01 -0.62728949931E-02 -0.27137111120E-02  0.10192273176E+01  0.10189279182E+01 0.  0.
     999903    2    3    3    0    0  0.11315935871E+00 -0.16307419170E-01  0.62638464399E-01  0.13222804140E+00  0.22129286641E-01 0.  0.
         14    1    1    2    0    0 -0.23738346131E-01  0.62728949931E-02  0.27137111120E-02  0.24702682377E-01  0.00000000000E+00 0.  1.
     999901    1    3    3    0    0 -0.89421012581E-01  0.10034524177E-01 -0.65352175511E-01  0.88699927622E+00  0.88000000000E+00 0.  1.
        -11    1    4    4    0    0  0.30037679770E-01 -0.98875620625E-02  0.82517167017E-02  0.32686052668E-01  0.51100000000E-03 0.  1.
         11    1    4    4    0    0  0.83121678943E-01 -0.64198571074E-02  0.54386747697E-01  0.99541988736E-01  0.51100000000E-03 0. -1.
</event>
<event>
 8    1  0.1022673E+005  0.1043930E+01  0.7957747E-01            NaN
         13   -1    0    0    0    0  0.00000000000E+00  0.00000000000E+00  0.74505805969E-08  0.10566000000E+00  0.10566000000E+00 0.  1.
     999900   -1    0    0    0    0 -0.00000000000E+00 -0.00000000000E+00 -0.74505805969E-08  0.93827000000E+00  0.93827000000E+00 0.  1.
     999902    2    1    2    0    0 -0.11543603125E-02 -0.19367397214E-01  0.13429711607E-01  0.10203336915E+01  0.10200608100E+01 0.  0.
     999903    2    3    3    0    0 -0.65847081671E-01  0.42559097322E-01  0.10363127307E+00  0.13120132752E+00  0.18089573159E-01 0.  0.
         14    1    1    2    0    0  0.11543603125E-02  0.19367397214E-01 -0.13429711607E-01  0.23596308534E-01  0.00000000000E+00 0. -1.
     999901    1    3    3    0    0  0.64692721359E-01 -0.61926494536E-01 -0.90201561458E-01  0.88913236394E+00  0.88000000000E+00 0.  1.
        -11    1    4    4    0    0 -0.46718290331E-01  0.30489787433E-01  0.59224382173E-01  0.81363470636E-01  0.51100000000E-03 0. -1.
         11    1    4    4    0    0 -0.19128791340E-01  0.12069309889E-01  0.44406890892E-01  0.49837856887E-01  0.51100000000E-03 0.  1.
</event>
<event>
 8    1  0.1022673E+005  0.1043930E+01  0.7957747E-01            NaN
         13   -1    0    0    0    0  0.00000000000E+00  0.00000000000E+00  0.74505805969E-08  0.10566000000E+00  0.10566000000E+00 0.  1.
     999900   -1    0    0    0    0 -0.00000000000E+00 -0.00000000000E+00 -0.74505805969E-08  0.93827000000E+00  0.93827000000E+00 0. -1.
     999902    2    1    2    0    0  0.17847231514E-02  0.24620765852E-02 -0.24184291969E-01  0.10195552788E+01  0.10192638713E+01 0.  0.
     999903    2    3    3    0    0 -0.18633342435E-01  0.45470561792E-01  0.11566305384E+00  0.12724148455E+00  0.19941913795E-01 0.  0.
         14    1    1    2    0    0 -0.17847231514E-02 -0.24620765852E-02  0.24184291969E-01  0.24374721247E-01  0.00000000000E+00 0.  1.
     999901    1    3    3    0    0  0.20418065586E-01 -0.43008485207E-01 -0.13984734581E+00  0.89231379421E+00  0.88000000000E+00 0. -1.
        -11    1    4    4    0    0 -0.15677468578E-01  0.20120419616E-01  0.40537421670E-01  0.47897369272E-01  0.51100000000E-03 0.  1.
         11    1    4    4    0    0 -0.29558738570E-02  0.25350142177E-01  0.75125632170E-01  0.79344115274E-01  0.51100000000E-03 0. -1.
</event>
<event>
 8    1  0.1022673E+005  0.1043930E+01  0.7957747E-01            NaN
         13   -1    0    0    0    0  0.00000000000E+00  0.00000000000E+00  0.74505805969E-08  0.10566000000E+00  0.10566000000E+00 0.  1.
     999900   -1    0    0    0    0 -0.00000000000E+00 -0.00000000000E+00 -0.74505805969E-08  0.93827000000E+00  0.93827000000E+00 0.  1.
     999902    2    1    2    0    0 -0.61161697449E-02 -0.14204808729E-01 -0.17963049402E-01  0.10202265136E+01  0.10199511183E+01 0.  0.
     999903    2    3    3    0    0  0.64836531486E-01  0.89288660317E-01 -0.68277948942E-01  0.12990254276E+00  0.60457942272E-02 0.  0.
         14    1    1    2    0    0  0.61161697449E-02  0.14204808729E-01  0.17963049402E-01  0.23703486393E-01  0.00000000000E+00 0. -1.
     999901    1    3    3    0    0 -0.70952701231E-01 -0.10349346905E+00  0.50314899541E-01  0.89032397085E+00  0.88000000000E+00 0.  1.
        -11    1    4    4    0    0  0.54270161718E-01  0.75402943632E-01 -0.59897558199E-01  0.11053883010E+00  0.51100000000E-03 0.  1.
         11    1    4    4    0    0  0.10566369768E-01  0.13885716684E-01 -0.83803907434E-02  0.19363712659E-01  0.51100000000E-03 0. -1.
</event>
<event>
 8    1  0.1022673E+005  0.1043930E+01  0.7957747E-01            NaN
         13   -1    0    0    0    0  0.00000000000E+00  0.00000000000E+00  0.74505805969E-08  0.10566000000E+00  0.10566000000E+00 0. -1.
     999900   -1    0    0    0    0 -0.00000000000E+00 -0.00000000000E+00 -0.74505805969E-08  0.93827000000E+00  0.93827000000E+00 0.  1.
     999902    2    1    2    0    0 -0.13247565962E-01 -0.13401118201E-01 -0.12042202592E-01  0.10215670258E+01  0.10213222241E+01 0.  0.
     999903    2    3    3    0    0  0.37894361298E-01 -0.81131692811E-01  0.93987025490E-01  0.13114851481E+00  0.18655770685E-01 0.  0.
         14    1    1    2    0    0  0.13247565962E-01  0.13401118201E-01  0.12042202592E-01  0.22362974226E-01  0.00000000000E+00 0. -1.
     999901    1    3    3    0    0 -0.51141927260E-01  0.67730574610E-01 -0.10602922808E+00  0.89041851096E+00  0.88000000000E+00 0.  1.
        -11    1    4    4    0    0  0.33790105761E-01 -0.64582904736E-01  0.65772656029E-01  0.98178542633E-01  0.51100000000E-03 0. -1.
         11    1    4    4    0    0  0.41042555373E-02 -0.16548788074E-01  0.28214369460E-01  0.32969972176E-01  0.51100000000E-03 0.  1.
</event>
<event>
 8    1  0.1022673E+005  0.1043930E+01  0.7957747E-01            NaN
         13   -1    0    0    0    0  0.00000000000E+00  0.00000000000E+00  0.74505805969E-08  0.10566000000E+00  0.10566000000E+00 0.  1.
     999900   -1    0    0    0    0 -0.00000000000E+00 -0.00000000000E+00 -0.74505805969E-08  0.93827000000E+00  0.93827000000E+00 0.  1.
     999902    2    1    2    0    0 -0.24348938961E-02  0.18430868555E-01 -0.56380410968E-03  0.10253304436E+01  0.10251617312E+01 0.  0.
     999903    2    3    3    0    0 -0.11750201447E+00 -0.38277250471E-01 -0.49578879720E-01  0.13467970921E+00  0.20216019607E-01 0.  0.
         14    1    1    2    0    0  0.24348938961E-02 -0.18430868555E-01  0.56380410968E-03  0.18599556421E-01  0.00000000000E+00 0.  1.
     999901    1    3    3    0    0  0.11506712058E+00  0.56708119026E-01  0.49015075610E-01  0.89065073437E+00  0.88000000000E+00 0. -1.
        -11    1    4    4    0    0 -0.82247710302E-01 -0.17531540643E-01 -0.37039504920E-01  0.91892474191E-01  0.51100000000E-03 0. -1.
         11    1    4    4    0    0 -0.35254304171E-01 -0.20745709828E-01 -0.12539374800E-01  0.42787235015E-01  0.51100000000E-03 0.  1.
</event>
<event>
 8    1  0.1022673E+005  0.1043930E+01  0.7957747E-01            NaN
         13   -1    0    0    0    0  0.00000000000E+00  0.00000000000E+00  0.74505805969E-08  0.10566000000E+00  0.10566000000E+00 0. -1.
     999900   -1    0    0    0    0 -0.00000000000E+00 -0.00000000000E+00 -0.74505805969E-08  0.93827000000E+00  0.93827000000E+00 0.  1.
     999902    2    1    2    0    0 -0.19349382934E-01  0.14091210903E-01 -0.15607195624E-02  0.10199425722E+01  0.10196604601E+01 0.  0.
     999903    2    3    3    0    0 -0.12575144586E+00 -0.35139901502E-01 -0.36516684601E-02  0.13216474334E+00  0.20148098850E-01 0.  0.
         14    1    1    2    0    0  0.19349382934E-01 -0.14091210903E-01  0.15607195624E-02  0.23987427753E-01  0.00000000000E+00 0. -1.
     999901    1    3    3    0    0  0.10640206293E+00  0.49231112405E-01  0.20909488977E-02  0.88777782890E+00  0.88000000000E+00 0. -1.
        -11    1    4    4    0    0 -0.60890751827E-01 -0.26844189788E-01 -0.52500175632E-02  0.66754160836E-01  0.51100000000E-03 0. -1.
         11    1    4    4    0    0 -0.64860694033E-01 -0.82957117139E-02  0.15983491031E-02  0.65410582509E-01  0.51100000000E-03 0.  1.
</event>
<event>
 8    1  0.1022673E+005  0.1043930E+01  0.7957747E-01            NaN
         13   -1    0    0    0    0  0.00000000000E+00  0.00000000000E+00  0.74505805969E-08  0.10566000000E+00  0.10566000000E+00 0.  1.
     999900   -1    0    0    0    0 -0.00000000000E+00 -0.00000000000E+00 -0.74505805969E-08  0.93827000000E+00  0.93827000000E+00 0.  1.
     999902    2    1    2    0    0 -0.15340696668E-01 -0.28864485357E-03 -0.19233498306E-01  0.10193261843E+01  0.10190292058E+01 0.  0.
     999903    2    3    3    0    0 -0.92511334616E-01 -0.82635203244E-01 -0.38646194590E-01  0.13190682694E+00  0.22780666990E-01 0.  0.
         14    1    1    2    0    0  0.15340696668E-01  0.28864485357E-03  0.19233498306E-01  0.24603815704E-01  0.00000000000E+00 0.  1.
     999901    1    3    3    0    0  0.77170637948E-01  0.82346558390E-01  0.19412696284E-01  0.88741935736E+00  0.88000000000E+00 0. -1.
        -11    1    4    4    0    0 -0.34170726672E-01 -0.30161425184E-01 -0.28818363064E-02  0.45671831931E-01  0.51100000000E-03 0. -1.
         11    1    4    4    0    0 -0.58340607944E-01 -0.52473778060E-01 -0.35764358283E-01  0.86234995005E-01  0.51100000000E-03 0.  1.
</event>
<event>
 8    1  0.1022673E+005  0.1043930E+01  0.7957747E-01            NaN
         13   -1    0    0    0    0  0.00000000000E+00  0.00000000000E+00  0.74505805969E-08  0.10566000000E+00  0.10566000000E+00 0. -1.
     999900   -1    0    0    0    0 -0.00000000000E+00 -0.00000000000E+00 -0.74505805969E-08  0.93827000000E+00  0.93827000000E+00 0. -1.
     999902    2    1    2    0    0  0.14026023660E-01 -0.40050828885E-02  0.19710314416E-01  0.10194092634E+01  0.10191143114E+01 0.  0.
     999903    2    3    3    0    0  0.57305586987E-01  0.36465397236E-01 -0.10690229070E+00  0.12837518317E+00  0.20938777479E-01 0.  0.
         14    1    1    2    0    0 -0.14026023660E-01  0.40050828885E-02 -0.19710314416E-01  0.24520736592E-01  0.00000000000E+00 0.  1.
     999901    1    3    3    0    0 -0.43279563327E-01 -0.40470480124E-01  0.12661260512E+00  0.89103408023E+00  0.88000000000E+00 0.  1.
        -11    1    4    4    0    0  0.32995995364E-01  0.28381620011E-01 -0.80920473906E-01  0.91883819483E-01  0.51100000000E-03 0. -1.
         11    1    4    4    0    0  0.24309591622E-01  0.80837772249E-02 -0.25981816795E-01  0.36491363691E-01  0.51100000000E-03 0.  1.
</event>
<event>
 8    1  0.1022673E+005  0.1043930E+01  0.7957747E-01            NaN
         13   -1    0    0    0    0  0.00000000000E+00  0.00000000000E+00  0.74505805969E-08  0.10566000000E+00  0.10566000000E+00 0.  1.
     999900   -1    0    0    0    0 -0.00000000000E+00 -0.00000000000E+00 -0.74505805969E-08  0.93827000000E+00  0.93827000000E+00 0. -1.
     999902    2    1    2    0    0  0.23251933389E-03  0.17428097970E-01  0.16154775505E-01  0.10201651218E+01  0.10198882813E+01 0.  0.
     999903    2    3    3    0    0  0.91700127919E-01  0.58800941542E-01  0.72799346631E-01  0.13264799913E+00  0.20719136466E-01 0.  0.
         14    1    1    2    0    0 -0.23251933389E-03 -0.17428097970E-01 -0.16154775505E-01  0.23764878197E-01  0.00000000000E+00 0. -1.
     999901    1    3    3    0    0 -0.91467608585E-01 -0.41372843572E-01 -0.56644571126E-01  0.88751712268E+00  0.88000000000E+00 0. -1.
        -11    1    4    4    0    0  0.68566989363E-01  0.35408731175E-01  0.58168957729E-01  0.96639014058E-01  0.51100000000E-03 0.  1.
         11    1    4    4    0    0  0.23133138555E-01  0.23392210367E-01  0.14630388902E-01  0.36008985069E-01  0.51100000000E-03 0. -1.
</event>
<event>
 8    1  0.1022673E+005  0.1043930E+01  0.7957747E-01            NaN
         13   -1    0    0    0    0  0.00000000000E+00  0.00000000000E+00  0.74505805969E-08  0.10566000000E+00  0.10566000000E+00 0. -1.
     999900   -1    0    0    0    0 -0.00000000000E+00 -0.00000000000E+00 -0.74505805969E-08  0.93827000000E+00  0.93827000000E+00 0.  1.
     999902    2    1    2    0    0  0.12134468859E-01  0.21813456231E-01  0.55681980293E-02  0.10183550702E+01  0.10180338756E+01 0.  0.
     999903    2    3    3    0    0  0.52705058705E-01 -0.10301959595E+00 -0.48441566056E-01  0.12698179352E+00  0.19670541496E-01 0.  0.
         14    1    1    2    0    0 -0.12134468859E-01 -0.21813456231E-01 -0.55681980293E-02  0.25574929844E-01  0.00000000000E+00 0. -1.
     999901    1    3    3    0    0 -0.40570589845E-01  0.12483305218E+00  0.54009764086E-01  0.89137327663E+00  0.88000000000E+00 0. -1.
        -11    1    4    4    0    0  0.52323078848E-01 -0.88419625415E-01 -0.43224422261E-01  0.11146455284E+00  0.51100000000E-03 0.  1.
         11    1    4    4    0    0  0.38197985614E-03 -0.14599970531E-01 -0.52171437954E-02  0.15517240686E-01  0.51100000000E-03 0. -1.
</event>
<event>
 8    1  0.1022673E+005  0.1043930E+01  0.7957747E-01            NaN
         13   -1    0    0    0    0  0.00000000000E+00  0.00000000000E+00  0.74505805969E-08  0.10566000000E+00  0.10566000000E+00 0.  1.
     999900   -1    0    0    0    0 -0.00000000000E+00 -0.00000000000E+00 -0.74505805969E-08  0.93827000000E+00  0.93827000000E+00 0.  1.
     999902    2    1    2    0    0 -0.17481430196E-01 -0.14004177424E-01 -0.68282373132E-02  0.10205132920E+01  0.10202445967E+01 0.  0.
     999903    2    3    3    0    0  0.57248263186E-01  0.62001056767E-01  0.94506757777E-01  0.12830810043E+00  0.20247140363E-01 0.  0.
         14    1    1    2    0    0  0.17481430196E-01  0.14004177424E-01  0.68282373132E-02  0.23416707963E-01  0.00000000000E+00 0.  1.
     999901    1    3    3    0    0 -0.74729693382E-01 -0.76005234191E-01 -0.10133499509E+00  0.89220519161E+00  0.88000000000E+00 0. -1.
        -11    1    4    4    0    0  0.20726563862E-01  0.21202501616E-01  0.19704451926E-01  0.35604256361E-01  0.51100000000E-03 0.  1.
         11    1    4    4    0    0  0.36521699324E-01  0.40798555151E-01  0.74802305851E-01  0.92703844071E-01  0.51100000000E-03 0. -1.
</event>
<event>
 8    1  0.1022673E+005  0.1043930E+01  0.7957747E-01            NaN
         13   -1    0    0    0    0  0.00000000000E+00  0.00000000000E+00  0.74505805969E-08  0.10566000000E+00  0.10566000000E+00 0.  1.
     999900   -1    0    0    0    0 -0.00000000000E+00 -0.00000000000E+00 -0.74505805969E-08  0.93827000000E+00  0.93827000000E+00 0.  1.
     999902    2    1    2    0    0  0.28301024341E-02  0.22270521829E-01 -0.84322474602E-02  0.10199489988E+01  0.10196670396E+01 0.  0.
     999903    2    3    3    0    0  0.70641581775E-01  0.10626158600E+00 -0.32047579796E-01  0.13303830456E+00  0.19758172394E-01 0.  0.
         14    1    1    2    0    0 -0.28301024341E-02 -0.22270521829E-01  0.84322474602E-02  0.23981001221E-01  0.00000000000E+00 0.  1.
     999901    1    3    3    0    0 -0.67811479341E-01 -0.83991064168E-01  0.23615332336E-01  0.88691069421E+00  0.88000000000E+00 0. -1.
        -11    1    4    4    0    0  0.17043423948E-01  0.40127372590E-01 -0.59758867967E-02  0.44007461582E-01  0.51100000000E-03 0.  1.
         11    1    4    4    0    0  0.53598157827E-01  0.66134213407E-01 -0.26071692999E-01  0.89030842982E-01  0.51100000000E-03 0. -1.
</event>
<event>
 8    1  0.1022673E+005  0.1043930E+01  0.7957747E-01            NaN
         13   -1    0    0    0    0  0.00000000000E+00  0.00000000000E+00  0.74505805969E-08  0.10566000000E+00  0.10566000000E+00 0. -1.
     999900   -1    0    0    0    0 -0.00000000000E+00 -0.00000000000E+00 -0.74505805969E-08  0.93827000000E+00  0.93827000000E+00 0. -1.
     999902    2    1    2    0    0 -0.27430331416E-01 -0.96744948616E-02 -0.88785006828E-02  0.10135187076E+01  0.10130623495E+01 0.  0.
     999903    2    3    3    0    0 -0.47861856098E-01  0.10731306374E+00  0.35752035503E-01  0.12442061354E+00  0.19885424620E-01 0.  0.
         14    1    1    2    0    0  0.27430331416E-01  0.96744948616E-02  0.88785006828E-02  0.30411292422E-01  0.00000000000E+00 0. -1.
     999901    1    3    3    0    0  0.20431524683E-01 -0.11698755860E+00 -0.44630536186E-01  0.88909809404E+00  0.88000000000E+00 0. -1.
        -11    1    4    4    0    0 -0.30260259480E-01  0.63554570024E-01  0.11310474924E-01  0.71295544312E-01  0.51100000000E-03 0. -1.
         11    1    4    4    0    0 -0.17601596618E-01  0.43758493713E-01  0.24441560579E-01  0.53125069224E-01  0.51100000000E-03 0.  1.
</event>
<event>
 7    1  0.1022673E+005  0.1043930E+01  0.7957747E-01            NaN
         13   -1    0    0    0    0  0.00000000000E+00  0.00000000000E+00  0.74505805969E-08  0.10566000000E+00  0.10566000000E+00 0. -1.
     999900   -1    0    0    0    0 -0.00000000000E+00 -0.00000000000E+00 -0.74505805969E-08  0.93827000000E+00  0.93827000000E+00 0.  1.
     999902    2    1    2    0    0  0.21679003743E-01  0.47019000158E-02 -0.48928146720E-02  0.10212137789E+01  0.10209610940E+01 0.  0.
         14    1    1    2    0    0 -0.21679003743E-01 -0.47019000158E-02  0.48928146720E-02  0.22716221131E-01  0.00000000000E+00 0. -1.
     999901    1    3    3    0    0  0.14177064175E-01  0.11148959663E+00 -0.79515037654E-01  0.89070396907E+00  0.88000000000E+00 0.  1.
        -11    1    3    3    0    0  0.49894742007E-02 -0.75797613083E-01  0.53842094426E-01  0.93109641043E-01  0.51100000000E-03 0. -1.
         11    1    3    3    0    0  0.25124653677E-02 -0.30990083526E-01  0.20780128556E-01  0.37400168756E-01  0.51100000000E-03 0.  1.
</event>
<event>
 8    1  0.1022673E+005  0.1043930E+01  0.7957747E-01            NaN
         13   -1    0    0    0    0  0.00000000000E+00  0.00000000000E+00  0.74505805969E-08  0.10566000000E+00  0.10566000000E+00 0.  1.
     999900   -1    0    0    0    0 -0.00000000000E+00 -0.00000000000E+00 -0.74505805969E-08  0.93827000000E+00  0.93827000000E+00 0.  1.
     999902    2    1    2    0    0  0.17915103162E-01  0.61961210391E-02  0.14562814054E-01  0.10200256408E+01  0.10197455023E+01 0.  0.
     999903    2    3    3    0    0 -0.59913931126E-01  0.24443046376E-01 -0.10846020564E+00  0.12787936787E+00  0.20059283661E-01 0.  0.
         14    1    1    2    0    0 -0.17915103162E-01 -0.61961210391E-02 -0.14562814054E-01  0.23904359235E-01  0.00000000000E+00 0.  1.
     999901    1    3    3    0    0  0.77829034288E-01 -0.18246925337E-01  0.12302301969E+00  0.89214627289E+00  0.88000000000E+00 0. -1.
        -11    1    4    4    0    0 -0.32023382469E-01  0.24831725382E-02 -0.55338823386E-01  0.63986792898E-01  0.51100000000E-03 0. -1.
         11    1    4    4    0    0 -0.27890548657E-01  0.21959873837E-01 -0.53121382253E-01  0.63892574974E-01  0.51100000000E-03 0.  1.
</event>
<event>
 8    1  0.1022673E+005  0.1043930E+01  0.7957747E-01            NaN
         13   -1    0    0    0    0  0.00000000000E+00  0.00000000000E+00  0.74505805969E-08  0.10566000000E+00  0.10566000000E+00 0.  1.
     999900   -1    0    0    0    0 -0.00000000000E+00 -0.00000000000E+00 -0.74505805969E-08  0.93827000000E+00  0.93827000000E+00 0.  1.
     999902    2    1    2    0    0 -0.12973697848E-01 -0.16833124018E-01  0.11957773187E-01  0.10195443641E+01  0.10192526925E+01 0.  0.
     999903    2    3    3    0    0  0.66468042576E-01 -0.81562553200E-01 -0.73422260928E-01  0.12949344454E+00  0.17529204548E-01 0.  0.
         14    1    1    2    0    0  0.12973697848E-01  0.16833124018E-01 -0.11957773187E-01  0.24385635929E-01  0.00000000000E+00 0. -1.
     999901    1    3    3    0    0 -0.79441740424E-01  0.64729429181E-01  0.85380034114E-01  0.89005091953E+00  0.88000000000E+00 0.  1.
        -11    1    4    4    0    0  0.15036631720E-01 -0.29649851382E-01 -0.18256220476E-01  0.37931051758E-01  0.51100000000E-03 0. -1.
         11    1    4    4    0    0  0.51431410856E-01 -0.51912701818E-01 -0.55166040452E-01  0.91562392786E-01  0.51100000000E-03 0.  1.
</event>
<event>
 8    1  0.1022673E+005  0.1043930E+01  0.7957747E-01            NaN
         13   -1    0    0    0    0  0.00000000000E+00  0.00000000000E+00  0.74505805969E-08  0.10566000000E+00  0.10566000000E+00 0.  1.
     999900   -1    0    0    0    0 -0.00000000000E+00 -0.00000000000E+00 -0.74505805969E-08  0.93827000000E+00  0.93827000000E+00 0.  1.
     999902    2    1    2    0    0  0.97548414601E-02 -0.21634003571E-01  0.65728767535E-02  0.10193050177E+01  0.10190075218E+01 0.  0.
     999903    2    3    3    0    0  0.87564344144E-01  0.90441775983E-01  0.17232224330E-01  0.12872715997E+00  0.20651947826E-01 0.  0.
         14    1    1    2    0    0 -0.97548414601E-02  0.21634003571E-01 -0.65728767535E-02  0.24624982259E-01  0.00000000000E+00 0. -1.
     999901    1    3    3    0    0 -0.77809502684E-01 -0.11207577955E+00 -0.10659347577E-01  0.89057785778E+00  0.88000000000E+00 0.  1.
        -11    1    4    4    0    0  0.51528872984E-01  0.54735678859E-01  0.87417531539E-04  0.75176379628E-01  0.51100000000E-03 0. -1.
         11    1    4    4    0    0  0.36035471161E-01  0.35706097124E-01  0.17144806799E-01  0.53550780338E-01  0.51100000000E-03 0.  1.
</event>
<event>
 8    1  0.1022673E+005  0.1043930E+01  0.7957747E-01            NaN
         13   -1    0    0    0    0  0.00000000000E+00  0.00000000000E+00  0.74505805969E-08  0.10566000000E+00  0.10566000000E+00 0. -1.
     999900   -1    0    0    0    0 -0.00000000000E+00 -0.00000000000E+00 -0.74505805969E-08  0.93827000000E+00  0.93827000000E+00 0. -1.
     999902    2    1    2    0    0 -0.13792530907E-01 -0.13959350058E-01  0.12689333788E-01  0.10205608632E+01  0.10202932710E+01 0.  0.
     999903    2    3    3    0    0  0.11277164519E+00  0.11246090663E-01  0.60029868490E-01  0.12988980656E+00  0.20587817323E-01 0.  0.
         14    1    1    2    0    0  0.13792530907E-01  0.13959350058E-01 -0.12689333788E-01  0.23369136802E-01  0.00000000000E+00 0.  1.
     999901    1    3    3    0    0 -0.12656417610E+00 -0.25205440720E-01 -0.47340534702E-01  0.89067105664E+00  0.88000000000E+00 0.  1.
        -11    1    4    4    0    0  0.19677624595E-01 -0.58350354662E-02  0.11186530378E-01  0.23380678593E-01  0.51100000000E-03 0. -1.
         11    1    4    4    0    0  0.93094020596E-01  0.17081126129E-01  0.48843338112E-01  0.10650912796E+00  0.51100000000E-03 0.  1.
</event>
<event>
 8    1  0.1022673E+005  0.1043930E+01  0.7957747E-01            NaN
         13   -1    0    0    0    0  0.00000000000E+00  0.00000000000E+00  0.74505805969E-08  0.10566000000E+00  0.10566000000E+00 0. -1.
     999900   -1    0    0    0    0 -0.00000000000E+00 -0.00000000000E+00 -0.74505805969E-08  0.93827000000E+00  0.93827000000E+00 0.  1.
     999902    2    1    2    0    0  0.96762548015E-02 -0.17091791041E-01  0.12174325264E-01  0.10208221350E+01  0.10205605606E+01 0.  0.
     999903    2    3    3    0    0 -0.19592793761E-01  0.16184827564E-01 -0.12555712996E+00  0.12900715180E+00  0.15245527882E-01 0.  0.
         14    1    1    2    0    0 -0.96762548015E-02  0.17091791041E-01 -0.12174325264E-01  0.23107864973E-01  0.00000000000E+00 0.  1.
     999901    1    3    3    0    0  0.29269048562E-01 -0.33276618605E-01  0.13773145523E+00  0.89181498323E+00  0.88000000000E+00 0. -1.
        -11    1    4    4    0    0 -0.17664224726E-01  0.51673307748E-02 -0.80720038941E-01  0.82793187824E-01  0.51100000000E-03 0. -1.
         11    1    4    4    0    0 -0.19285690350E-02  0.11017496789E-01 -0.44837091022E-01  0.46213963976E-01  0.51100000000E-03 0.  1.
</event>
<event>
 8    1  0.1022673E+005  0.1043930E+01  0.7957747E-01            NaN
         13   -1    0    0    0    0  0.00000000000E+00  0.00000000000E+00  0.74505805969E-08  0.10566000000E+00  0.10566000000E+00 0. -1.
     999900   -1    0    0    0    0 -0.00000000000E+00 -0.00000000000E+00 -0.74505805969E-08  0.93827000000E+00  0.93827000000E+00 0.  1.
     999902    2    1    2    0    0 -0.13236119537E-01 -0.17776040199E-02  0.19195758286E-01  0.10205455635E+01  0.10202776167E+01 0.  0.
     999903    2    3    3    0    0 -0.20328261035E-01  0.53299087834E-01  0.11842097498E+00  0.13322973237E+00  0.21739441424E-01 0.  0.
         14    1    1    2    0    0  0.13236119537E-01  0.17776040199E-02 -0.19195758286E-01  0.23384436548E-01  0.00000000000E+00 0.  1.
     999901    1    3    3    0    0  0.70921414975E-02 -0.55076691854E-01 -0.99225216689E-01  0.88731583108E+00  0.88000000000E+00 0.  1.
        -11    1    4    4    0    0 -0.29095179648E-02  0.27129754000E-01  0.73468344422E-01  0.78373130600E-01  0.51100000000E-03 0. -1.
         11    1    4    4    0    0 -0.17418743070E-01  0.26169333834E-01  0.44952630554E-01  0.54856601774E-01  0.51100000000E-03 0.  1.
</event>
<event>
 8    1  0.1022673E+005  0.1043930E+01  0.7957747E-01            NaN
         13   -1    0    0    0    0  0.00000000000E+00  0.00000000000E+00  0.74505805969E-08  0.10566000000E+00  0.10566000000E+00 0. -1.
     999900   -1    0    0    0    0 -0.00000000000E+00 -0.00000000000E+00 -0.74505805969E-08  0.93827000000E+00  0.93827000000E+00 0. -1.
     999902    2    1    2    0    0 -0.18742795702E-01 -0.96598013071E-02  0.11235454253E-01  0.10200377505E+01  0.10197578992E+01 0.  0.
     999903    2    3    3    0    0 -0.10682678967E+00 -0.47837327580E-01 -0.57719304553E-01  0.13213512510E+00  0.20683333000E-01 0.  0.
         14    1    1    2    0    0  0.18742795702E-01  0.96598013071E-02 -0.11235454253E-01  0.23892249461E-01  0.00000000000E+00 0.  1.
     999901    1    3    3    0    0  0.88083993972E-01  0.38177526273E-01  0.68954758806E-01  0.88790262544E+00  0.88000000000E+00 0.  1.
        -11    1    4    4    0    0 -0.28109883431E-01 -0.11718183393E-01 -0.53541649768E-02  0.30925872213E-01  0.51100000000E-03 0.  1.
         11    1    4    4    0    0 -0.78716906244E-01 -0.36119144186E-01 -0.52365139577E-01  0.10120925288E+00  0.51100000000E-03 0. -1.
</event>
<event>
 8    1  0.1022673E+005  0.1043930E+01  0.7957747E-01            NaN
         13   -1    0    0    0    0  0.00000000000E+00  0.00000000000E+00  0.74505805969E-08  0.10566000000E+00  0.10566000000E+00 0.  1.
     999900   -1    0    0    0    0 -0.00000000000E+00 -0.00000000000E+00 -0.74505805969E-08  0.93827000000E+00  0.93827000000E+00 0.  1.
     999902    2    1    2    0    0 -0.24598880523E-01  0.42508618643E-02  0.38428098968E-02  0.10186724875E+01  0.10183593152E+01 0.  0.
     999903    2    3    3    0    0  0.52701428998E-01  0.31651798587E-02  0.11516919922E+00  0.12829611680E+00  0.20211139373E-01 0.  0.
         14    1    1    2    0    0  0.24598880523E-01 -0.42508618643E-02 -0.38428098968E-02  0.25257512496E-01  0.00000000000E+00 0. -1.
     999901    1    3    3    0    0 -0.77300309521E-01  0.10856820056E-02 -0.11132638932E+00  0.89037637071E+00  0.88000000000E+00 0. -1.
        -11    1    4    4    0    0  0.24683730231E-01 -0.70327265196E-02  0.65658448392E-01  0.70498501733E-01  0.51100000000E-03 0.  1.
         11    1    4    4    0    0  0.28017698767E-01  0.10197906378E-01  0.49510750825E-01  0.57797615063E-01  0.51100000000E-03 0. -1.
</event>
<event>
 8    1  0.1022673E+005  0.1043930E+01  0.7957747E-01            NaN
         13   -1    0    0    0    0  0.00000000000E+00  0.00000000000E+00  0.74505805969E-08  0.10566000000E+00  0.10566000000E+00 0. -1.
     999900   -1    0    0    0    0 -0.00000000000E+00 -0.00000000000E+00 -0.74505805969E-08  0.93827000000E+00  0.93827000000E+00 0.  1.
     999902    2    1    2    0    0  0.15143964101E-01  0.18010372236E-01 -0.27660043049E-02  0.10202368800E+01  0.10199617284E+01 0.  0.
     999903    2    3    3    0    0  0.91066047335E-01 -0.88282807127E-01  0.22095370588E-01  0.13024784034E+00  0.19733613480E-01 0.  0.
         14    1    1    2    0    0 -0.15143964101E-01 -0.18010372236E-01  0.27660043049E-02  0.23693120026E-01  0.00000000000E+00 0.  1.
     999901    1    3    3    0    0 -0.75922083235E-01  0.10629317936E+00 -0.24861374893E-01  0.88998903963E+00  0.88000000000E+00 0. -1.
        -11    1    4    4    0    0  0.39755900974E-01 -0.43981927954E-01  0.19478285389E-01  0.62406781454E-01  0.51100000000E-03 0. -1.
         11    1    4    4    0    0  0.51310146362E-01 -0.44300879173E-01  0.26170851990E-02  0.67841058889E-01  0.51100000000E-03 0.  1.
</event>
<event>
 8    1  0.1022673E+005  0.1043930E+01  0.7957747E-01            NaN
         13   -1    0    0    0    0  0.00000000000E+00  0.00000000000E+00  0.74505805969E-08  0.10566000000E+00  0.10566000000E+00 0.  1.
     999900   -1    0    0    0    0 -0.00000000000E+00 -0.00000000000E+00 -0.74505805969E-08  0.93827000000E+00  0.93827000000E+00 0. -1.
     999902    2    1    2    0    0 -0.23635432594E-01 -0.22307933080E-02 -0.33415084609E-02  0.10199555179E+01  0.10196737139E+01 0.  0.
     999903    2    3    3    0    0  0.81029950003E-01 -0.59285267340E-01  0.77415269665E-01  0.12825393524E+00  0.19374008526E-01 0.  0.
         14    1    1    2    0    0  0.23635432594E-01  0.22307933080E-02  0.33415084609E-02  0.23974482090E-01  0.00000000000E+00 0.  1.
     999901    1    3    3    0    0 -0.10466538260E+00  0.57054474032E-01 -0.80756778126E-01  0.89170158267E+00  0.88000000000E+00 0.  1.
        -11    1    4    4    0    0  0.44987916138E-01 -0.40089607339E-01  0.55414573210E-01  0.81866508781E-01  0.51100000000E-03 0.  1.
         11    1    4    4    0    0  0.36042033865E-01 -0.19195660001E-01  0.22000696455E-01  0.46387426460E-01  0.51100000000E-03 0. -1.
</event>
<event>
 8    1  0.1022673E+005  0.1043930E+01  0.7957747E-01            NaN
         13   -1    0    0    0    0  0.00000000000E+00  0.00000000000E+00  0.74505805969E-08  0.10566000000E+00  0.10566000000E+00 0.  1.
     999900   -1    0    0    0    0 -0.00000000000E+00 -0.00000000000E+00 -0.74505805969E-08  0.93827000000E+00  0.93827000000E+00 0. -1.
     999902    2    1    2    0    0  0.49671835761E-02 -0.62500583833E-02 -0.22560035548E-01  0.10199990296E+01  0.10197182596E+01 0.  0.
     999903    2    3    3    0    0  0.10025809777E+00  0.73281126968E-01  0.31432553366E-01  0.12965035211E+00  0.19984960677E-01 0.  0.
         14    1    1    2    0    0 -0.49671835761E-02  0.62500583833E-02  0.22560035548E-01  0.23930970444E-01  0.00000000000E+00 0.  1.
     999901    1    3    3    0    0 -0.95290914193E-01 -0.79531185351E-01 -0.53992588914E-01  0.89034867745E+00  0.88000000000E+00 0.  1.
        -11    1    4    4    0    0  0.57154017679E-01  0.31936958358E-01  0.22640029789E-01  0.69277580182E-01  0.51100000000E-03 0.  1.
         11    1    4    4    0    0  0.43104080090E-01  0.41344168610E-01  0.87925235766E-02  0.60372771928E-01  0.51100000000E-03 0. -1.
</event>
<event>
 8    1  0.1022673E+005  0.1043930E+01  0.7957747E-01            NaN
         13   -1    0    0    0    0  0.00000000000E+00  0.00000000000E+00  0.74505805969E-08  0.10566000000E+00  0.10566000000E+00 0.  1.
     999900   -1    0    0    0    0 -0.00000000000E+00 -0.00000000000E+00 -0.74505805969E-08  0.93827000000E+00  0.93827000000E+00 0.  1.
     999902    2    1    2    0    0 -0.80414375181E-02  0.73716092768E-02  0.20299048829E-01  0.10208853320E+01  0.10206252027E+01 0.  0.
     999903    2    3    3    0    0 -0.36674742696E-01 -0.34669542966E-02  0.12717926288E+00  0.13388999897E+00  0.19872352485E-01 0.  0.
         14    1    1    2    0    0  0.80414375181E-02 -0.73716092768E-02 -0.20299048829E-01  0.23044668018E-01  0.00000000000E+00 0. -1.
     999901    1    3    3    0    0  0.28633305177E-01  0.10838563573E-01 -0.10688021405E+00  0.88699533301E+00  0.88000000000E+00 0.  1.
        -11    1    4    4    0    0 -0.16102189224E-01 -0.25863270603E-02  0.26461894160E-01  0.31087980781E-01  0.51100000000E-03 0.  1.
         11    1    4    4    0    0 -0.20572553471E-01 -0.88062723628E-03  0.10071736872E+00  0.10280201819E+00  0.51100000000E-03 0. -1.
</event>
<event>
 8    1  0.1022673E+005  0.1043930E+01  0.7957747E-01            NaN
         13   -1    0    0    0    0  0.00000000000E+00  0.00000000000E+00  0.74505805969E-08  0.10566000000E+00  0.10566000000E+00 0.  1.
     999900   -1    0    0    0    0 -0.00000000000E+00 -0.00000000000E+00 -0.74505805969E-08  0.93827000000E+00  0.93827000000E+00 0.  1.
     999902    2    1    2    0    0 -0.15826888748E-01  0.50255754085E-02  0.16426591136E-01  0.10205723522E+01  0.10203050261E+01 0.  0.
     999903    2    3    3    0    0  0.11648816177E+00 -0.47630565595E-03 -0.49661532232E-01  0.12821301685E+00  0.20064675589E-01 0.  0.
         14    1    1    2    0    0  0.15826888748E-01 -0.50255754085E-02 -0.16426591136E-01  0.23357647826E-01  0.00000000000E+00 0. -1.
     999901    1    3    3    0    0 -0.13231505052E+00  0.55018810645E-02  0.66088123368E-01  0.89235933532E+00  0.88000000000E+00 0. -1.
        -11    1    4    4    0    0  0.42248326386E-01 -0.38574251649E-02 -0.85458670441E-02  0.43279253412E-01  0.51100000000E-03 0. -1.
         11    1    4    4    0    0  0.74239835384E-01  0.33811195090E-02 -0.41115665188E-01  0.84933763438E-01  0.51100000000E-03 0.  1.
</event>
<event>
 8    1  0.1022673E+005  0.1043930E+01  0.7957747E-01            NaN
         13   -1    0    0    0    0  0.00000000000E+00  0.00000000000E+00  0.74505805969E-08  0.10566000000E+00  0.10566000000E+00 0.  1.
     999900   -1    0    0    0    0 -0.00000000000E+00 -0.00000000000E+00 -0.74505805969E-08  0.93827000000E+00  0.93827000000E+00 0. -1.
     999902    2    1    2    0    0 -0.92931699223E-02 -0.21295583549E-01  0.27526176707E-02  0.10205325260E+01  0.10202642769E+01 0.  0.
     999903    2    3    3    0    0 -0.85278700633E-01 -0.91842605416E-01 -0.40893917218E-01  0.13337092674E+00  0.20198284182E-01 0.  0.
         14    1    1    2    0    0  0.92931699223E-02  0.21295583549E-01 -0.27526176707E-02  0.23397474008E-01  0.00000000000E+00 0.  1.
     999901    1    3    3    0    0  0.75985530711E-01  0.70547021867E-01  0.43646534889E-01  0.88716159925E+00  0.88000000000E+00 0.  1.
        -11    1    4    4    0    0 -0.20009958469E-01 -0.17146936310E-01 -0.77012106499E-03  0.26367974329E-01  0.51100000000E-03 0. -1.
         11    1    4    4    0    0 -0.65268742164E-01 -0.74695669106E-01 -0.40123796153E-01  0.10700295242E+00  0.51100000000E-03 0.  1.
</event>
<event>
 8    1  0.1022673E+005  0.1043930E+01  0.7957747E-01            NaN
         13   -1    0    0    0    0  0.00000000000E+00  0.00000000000E+00  0.74505805969E-08  0.10566000000E+00  0.10566000000E+00 0.  1.
     999900   -1    0    0    0    0 -0.00000000000E+00 -0.00000000000E+00 -0.74505805969E-08  0.93827000000E+00  0.93827000000E+00 0. -1.
     999902    2    1    2    0    0 -0.51452564543E-02 -0.74613700623E-02  0.23543503162E-01  0.10187021930E+01  0.10183897661E+01 0.  0.
     999903    2    3    3    0    0 -0.69520225205E-01 -0.10006004789E+00 -0.38539793306E-01  0.12933557145E+00  0.19932372641E-01 0.  0.
         14    1    1    2    0    0  0.51452564543E-02  0.74613700623E-02 -0.23543503162E-01  0.25227807046E-01  0.00000000000E+00 0. -1.
     999901    1    3    3    0    0  0.64374968751E-01  0.92598677828E-01  0.62083296468E-01  0.88936662150E+00  0.88000000000E+00 0.  1.
        -11    1    4    4    0    0 -0.52096857353E-01 -0.83612420717E-01 -0.37290053676E-01  0.10533721407E+00  0.51100000000E-03 0. -1.
         11    1    4    4    0    0 -0.17423367852E-01 -0.16447627173E-01 -0.12497396295E-02  0.23998357383E-01  0.51100000000E-03 0.  1.
</event>
<event>
 8    1  0.1022673E+005  0.1043930E+01  0.7957747E-01            NaN
         13   -1    0    0    0    0  0.00000000000E+00  0.00000000000E+00  0.74505805969E-08  0.10566000000E+00  0.10566000000E+00 0.  1.
     999900   -1    0    0    0    0 -0.00000000000E+00 -0.00000000000E+00 -0.74505805969E-08  0.93827000000E+00  0.93827000000E+00 0. -1.
     999902    2    1    2    0    0 -0.24276490671E-02 -0.25519386940E-02  0.23359942153E-01  0.10203060129E+01  0.10200324834E+01 0.  0.
     999903    2    3    3    0    0  0.98559332179E-01  0.68493408598E-01 -0.42417403169E-01  0.12925468386E+00  0.22410895273E-01 0.  0.
         14    1    1    2    0    0  0.24276490671E-02  0.25519386940E-02 -0.23359942153E-01  0.23623987142E-01  0.00000000000E+00 0. -1.
     999901    1    3    3    0    0 -0.10098698125E+00 -0.71045347292E-01  0.65777345323E-01  0.89105132900E+00  0.88000000000E+00 0.  1.
        -11    1    4    4    0    0  0.35491073512E-01  0.32845857038E-01 -0.26249825627E-01  0.55025276829E-01  0.51100000000E-03 0. -1.
         11    1    4    4    0    0  0.63068258667E-01  0.35647551560E-01 -0.16167577542E-01  0.74229407030E-01  0.51100000000E-03 0.  1.
</event>
<event>
 8    1  0.1022673E+005  0.1043930E+01  0.7957747E-01            NaN
         13   -1    0    0    0    0  0.00000000000E+00  0.00000000000E+00  0.74505805969E-08  0.10566000000E+00  0.10566000000E+00 0.  1.
     999900   -1    0    0    0    0 -0.00000000000E+00 -0.00000000000E+00 -0.74505805969E-08  0.93827000000E+00  0.93827000000E+00 0. -1.
     999902    2    1    2    0    0  0.69176406486E-02  0.15288921003E-01 -0.18489649178E-01  0.10189605790E+01  0.10186545978E+01 0.  0.
     999903    2    3    3    0    0 -0.57736477379E-01  0.88024430420E-01  0.71790379619E-01  0.12900490995E+00  0.20164498843E-01 0.  0.
         14    1    1    2    0    0 -0.69176406486E-02 -0.15288921003E-01  0.18489649178E-01  0.24969420985E-01  0.00000000000E+00 0.  1.
     999901    1    3    3    0    0  0.64654118028E-01 -0.72735509417E-01 -0.90280028798E-01  0.88995566907E+00  0.88000000000E+00 0. -1.
        -11    1    4    4    0    0 -0.49959464452E-01  0.69714828510E-01  0.49116512392E-01  0.98837231411E-01  0.51100000000E-03 0. -1.
         11    1    4    4    0    0 -0.77770129270E-02  0.18309601910E-01  0.22673867227E-01  0.30167678535E-01  0.51100000000E-03 0.  1.
</event>
<event>
 8    1  0.1022673E+005  0.1043930E+01  0.7957747E-01            NaN
         13   -1    0    0    0    0  0.00000000000E+00  0.00000000000E+00  0.74505805969E-08  0.10566000000E+00  0.10566000000E+00 0. -1.
     999900   -1    0    0    0    0 -0.00000000000E+00 -0.00000000000E+00 -0.74505805969E-08  0.93827000000E+00  0.93827000000E+00 0.  1.
     999902    2    1    2    0    0 -0.91562400860E-02  0.15221026517E-01 -0.16154301579E-01  0.10199200471E+01  0.10196373986E+01 0.  0.
     999903    2    3    3    0    0 -0.26598602798E-01 -0.12355153759E+00  0.15514144098E-03  0.12872531048E+00  0.24448177401E-01 0.  0.
         14    1    1    2    0    0  0.91562400860E-02 -0.15221026517E-01  0.16154301579E-01  0.24009952941E-01  0.00000000000E+00 0. -1.
     999901    1    3    3    0    0  0.17442362712E-01  0.13877256411E+00 -0.16309443020E-01  0.89119473657E+00  0.88000000000E+00 0. -1.
        -11    1    4    4    0    0 -0.17799536346E-01 -0.10800022845E+00 -0.65002036775E-02  0.10965120431E+00  0.51100000000E-03 0.  1.
         11    1    4    4    0    0 -0.87990664516E-02 -0.15551309147E-01  0.66553451185E-02  0.19074106172E-01  0.51100000000E-03 0. -1.
</event>
<event>
 8    1  0.1022673E+005  0.1043930E+01  0.7957747E-01            NaN
         13   -1    0    0    0    0  0.00000000000E+00  0.00000000000E+00  0.74505805969E-08  0.10566000000E+00  0.10566000000E+00 0. -1.
     999900   -1    0    0    0    0 -0.00000000000E+00 -0.00000000000E+00 -0.74505805969E-08  0.93827000000E+00  0.93827000000E+00 0.  1.
     999902    2    1    2    0    0  0.17088419555E-01 -0.54760507666E-02 -0.15191624782E-01  0.10204185841E+01  0.10201476854E+01 0.  0.
     999903    2    3    3    0    0 -0.73279826615E-01 -0.99230229051E-01  0.33979677539E-01  0.12947858451E+00  0.19837187695E-01 0.  0.
         14    1    1    2    0    0 -0.17088419555E-01  0.54760507666E-02  0.15191624782E-01  0.23511415916E-01  0.00000000000E+00 0. -1.
     999901    1    3    3    0    0  0.90368246170E-01  0.93754178285E-01 -0.49171302321E-01  0.89093999957E+00  0.88000000000E+00 0.  1.
        -11    1    4    4    0    0 -0.70551708268E-02 -0.20661360524E-01  0.23561724722E-02  0.21965425646E-01  0.51100000000E-03 0. -1.
         11    1    4    4    0    0 -0.66224655788E-01 -0.78568868528E-01  0.31623505067E-01  0.10751315887E+00  0.51100000000E-03 0.  1.
</event>
<event>
 8    1  0.1022673E+005  0.1043930E+01  0.7957747E-01            NaN
         13   -1    0    0    0    0  0.00000000000E+00  0.00000000000E+00  0.74505805969E-08  0.10566000000E+00  0.10566000000E+00 0.  1.
     999900   -1    0    0    0    0 -0.00000000000E+00 -0.00000000000E+00 -0.74505805969E-08  0.93827000000E+00  0.93827000000E+00 0. -1.
     999902    2    1    2    0    0 -0.89964928224E-02  0.15767550096E-01 -0.14649427327E-01  0.10206028004E+01  0.10203361789E+01 0.  0.
     999903    2    3    3    0    0 -0.12203535728E+00 -0.37434902560E-01  0.20678894590E-01  0.13107687265E+00  0.21436639343E-01 0.  0.
         14    1    1    2    0    0  0.89964928224E-02 -0.15767550096E-01  0.14649427327E-01  0.23327199578E-01  0.00000000000E+00 0.  1.
     999901    1    3    3    0    0  0.11303886446E+00  0.53202452656E-01 -0.35328321917E-01  0.88952592777E+00  0.88000000000E+00 0.  1.
        -11    1    4    4    0    0 -0.72798763398E-01 -0.14179214664E-01  0.19148624020E-01  0.76600528743E-01  0.51100000000E-03 0.  1.
         11    1    4    4    0    0 -0.49236593883E-01 -0.23255687895E-01  0.15302705697E-02  0.54476343909E-01  0.51100000000E-03 0. -1.
</event>
<event>
 8    1  0.1022673E+005  0.1043930E+01  0.7957747E-01            NaN
         13   -1    0    0    0    0  0.00000000000E+00  0.00000000000E+00  0.74505805969E-08  0.10566000000E+00  0.10566000000E+00 0.  1.
     999900   -1    0    0    0    0 -0.00000000000E+00 -0.00000000000E+00 -0.74505805969E-08  0.93827000000E+00  0.93827000000E+00 0. -1.
     999902    2    1    2    0    0 -0.14815380186E-01 -0.77782621702E-02 -0.58397954684E-02  0.10262071316E+01  0.10260540809E+01 0.  0.
     999903    2    3    3    0    0 -0.13366357175E+00  0.24506257263E-01 -0.91255628661E-02  0.13762512691E+00  0.19771004031E-01 0.  0.
         14    1    1    2    0    0  0.14815380186E-01  0.77782621702E-02  0.58397954684E-02  0.17722868378E-01  0.00000000000E+00 0.  1.
     999901    1    3    3    0    0  0.11884819157E+00 -0.32284519434E-01  0.32857673977E-02  0.88858200471E+00  0.88000000000E+00 0.  1.
        -11    1    4    4    0    0 -0.11505179539E-01  0.25674080818E-02  0.47883064751E-02  0.12733803060E-01  0.51100000000E-03 0.  1.
         11    1    4    4    0    0 -0.12215839221E+00  0.21938849182E-01 -0.13913869341E-01  0.12489132385E+00  0.51100000000E-03 0. -1.
</event>
<event>
 8    1  0.1022673E+005  0.1043930E+01  0.7957747E-01            NaN
         13   -1    0    0    0    0  0.00000000000E+00  0.00000000000E+00  0.74505805969E-08  0.10566000000E+00  0.10566000000E+00 0.  1.
     999900   -1    0    0    0    0 -0.00000000000E+00 -0.00000000000E+00 -0.74505805969E-08  0.93827000000E+00  0.93827000000E+00 0.  1.
     999902    2    1    2    0    0  0.17221928682E-01  0.17329773547E-02  0.17040507211E-01  0.10196405594E+01  0.10193512120E+01 0.  0.
     999903    2    3    3    0    0 -0.11876927324E+00 -0.25378585008E-01 -0.32653205846E-01  0.12739725799E+00  0.20337567410E-01 0.  0.
         14    1    1    2    0    0 -0.17221928682E-01 -0.17329773547E-02 -0.17040507211E-01  0.24289440587E-01  0.00000000000E+00 0. -1.
     999901    1    3    3    0    0  0.13599120192E+00  0.27111562363E-01  0.49693713057E-01  0.89224330142E+00  0.88000000000E+00 0. -1.
        -11    1    4    4    0    0 -0.87657563727E-01 -0.98908759765E-02 -0.26409179792E-01  0.92083569677E-01  0.51100000000E-03 0. -1.
         11    1    4    4    0    0 -0.31111709515E-01 -0.15487709032E-01 -0.62440260543E-02  0.35313688314E-01  0.51100000000E-03 0.  1.
</event>
<event>
 8    1  0.1022673E+005  0.1043930E+01  0.7957747E-01            NaN
         13   -1    0    0    0    0  0.00000000000E+00  0.00000000000E+00  0.74505805969E-08  0.10566000000E+00  0.10566000000E+00 0. -1.
     999900   -1    0    0    0    0 -0.00000000000E+00 -0.00000000000E+00 -0.74505805969E-08  0.93827000000E+00  0.93827000000E+00 0.  1.
     999902    2    1    2    0    0 -0.61856254900E-02 -0.12766034899E-01 -0.81953276178E-02  0.10275471735E+01  0.10274165644E+01 0.  0.
     999903    2    3    3    0    0 -0.81304309650E-01 -0.10418865585E+00 -0.38363644648E-01  0.13911538675E+00  0.20387614520E-01 0.  0.
         14    1    1    2    0    0  0.61856254900E-02  0.12766034899E-01  0.81953276178E-02  0.16382826512E-01  0.00000000000E+00 0. -1.
     999901    1    3    3    0    0  0.75118684160E-01  0.91422620947E-01  0.30168317031E-01  0.88843178674E+00  0.88000000000E+00 0.  1.
        -11    1    4    4    0    0 -0.66549861910E-01 -0.92963689542E-01 -0.27387505999E-01  0.11756474089E+00  0.51100000000E-03 0.  1.
         11    1    4    4    0    0 -0.14754447740E-01 -0.11224966304E-01 -0.10976138649E-01  0.21550645867E-01  0.51100000000E-03 0. -1.
</event>
<event>
 8    1  0.1022673E+005  0.1043930E+01  0.7957747E-01            NaN
         13   -1    0    0    0    0  0.00000000000E+00  0.00000000000E+00  0.74505805969E-08  0.10566000000E+00  0.10566000000E+00 0.  1.
     999900   -1    0    0    0    0 -0.00000000000E+00 -0.00000000000E+00 -0.74505805969E-08  0.93827000000E+00  0.93827000000E+00 0. -1.
     999902    2    1    2    0    0  0.22354361133E-01 -0.76249139417E-02  0.24940134303E-02  0.10201796973E+01  0.10199032003E+01 0.  0.
     999903    2    3    3    0    0  0.90452650875E-01  0.35535691200E-01  0.87189476736E-01  0.13244463752E+00  0.22251061873E-01 0.  0.
         14    1    1    2    0    0 -0.22354361133E-01  0.76249139417E-02 -0.24940134303E-02  0.23750302677E-01  0.00000000000E+00 0. -1.
     999901    1    3    3    0    0 -0.68098289742E-01 -0.43160605141E-01 -0.84695463305E-01  0.88773505980E+00  0.88000000000E+00 0. -1.
        -11    1    4    4    0    0  0.55177814998E-01  0.23745256161E-01  0.67493489218E-01  0.90355191693E-01  0.51100000000E-03 0. -1.
         11    1    4    4    0    0  0.35274835877E-01  0.11790435039E-01  0.19695987518E-01  0.42089445825E-01  0.51100000000E-03 0.  1.
</event>
<event>
 8    1  0.1022673E+005  0.1043930E+01  0.7957747E-01            NaN
         13   -1    0    0    0    0  0.00000000000E+00  0.00000000000E+00  0.74505805969E-08  0.10566000000E+00  0.10566000000E+00 0. -1.
     999900   -1    0    0    0    0 -0.00000000000E+00 -0.00000000000E+00 -0.74505805969E-08  0.93827000000E+00  0.93827000000E+00 0. -1.
     999902    2    1    2    0    0  0.14611437506E-01 -0.17810585517E-01 -0.73519396290E-02  0.10197481457E+01  0.10194613865E+01 0.  0.
     999903    2    3    3    0    0 -0.14111572173E-01  0.12390330493E+00 -0.19349034655E-01  0.12786711755E+00  0.20602164162E-01 0.  0.
         14    1    1    2    0    0 -0.14611437506E-01  0.17810585517E-01  0.73519396290E-02  0.24181854328E-01  0.00000000000E+00 0.  1.
     999901    1    3    3    0    0  0.28723009679E-01 -0.14171389044E+00  0.11997095026E-01  0.89188102812E+00  0.88000000000E+00 0.  1.
        -11    1    4    4    0    0 -0.18993475080E-01  0.93782831960E-01 -0.17647242586E-01  0.97301890824E-01  0.51100000000E-03 0.  1.
         11    1    4    4    0    0  0.48819029065E-02  0.30120472967E-01 -0.17017920694E-02  0.30565226729E-01  0.51100000000E-03 0. -1.
</event>
<event>
 8    1  0.1022673E+005  0.1043930E+01  0.7957747E-01            NaN
         13   -1    0    0    0    0  0.00000000000E+00  0.00000000000E+00  0.74505805969E-08  0.10566000000E+00  0.10566000000E+00 0.  1.
     999900   -1    0    0    0    0 -0.00000000000E+00 -0.00000000000E+00 -0.74505805969E-08  0.93827000000E+00  0.93827000000E+00 0. -1.
     999902    2    1    2    0    0 -0.17958295623E-01 -0.28736610256E-01  0.94455163455E-02  0.10087517265E+01  0.10081381526E+01 0.  0.
     999903    2    3    3    0    0  0.85456688948E-01 -0.82069773847E-01 -0.32289814617E-02  0.12100191470E+00  0.24346325693E-01 0.  0.
         14    1    1    2    0    0  0.17958295623E-01  0.28736610256E-01 -0.94455163455E-02  0.35178273547E-01  0.00000000000E+00 0.  1.
     999901    1    3    3    0    0 -0.10341498457E+00  0.53333163591E-01  0.12674497807E-01  0.88774981175E+00  0.88000000000E+00 0. -1.
        -11    1    4    4    0    0  0.24275479616E-01 -0.35419347936E-01 -0.88942137036E-02  0.43854273192E-01  0.51100000000E-03 0.  1.
         11    1    4    4    0    0  0.61181209332E-01 -0.46650425911E-01  0.56652322419E-02  0.77147641509E-01  0.51100000000E-03 0. -1.
</event>
<event>
 8    1  0.1022673E+005  0.1043930E+01  0.7957747E-01            NaN
         13   -1    0    0    0    0  0.00000000000E+00  0.00000000000E+00  0.74505805969E-08  0.10566000000E+00  0.10566000000E+00 0. -1.
     999900   -1    0    0    0    0 -0.00000000000E+00 -0.00000000000E+00 -0.74505805969E-08  0.93827000000E+00  0.93827000000E+00 0.  1.
     999902    2    1    2    0    0 -0.55749005461E-02 -0.12094577359E-01 -0.19503082136E-01  0.10203137232E+01  0.10200403743E+01 0.  0.
     999903    2    3    3    0    0 -0.11334910029E-01 -0.17209499259E-01  0.12528027121E+00  0.12844963066E+00  0.19481124499E-01 0.  0.
         14    1    1    2    0    0  0.55749005461E-02  0.12094577359E-01  0.19503082136E-01  0.23616276810E-01  0.00000000000E+00 0. -1.
     999901    1    3    3    0    0  0.57600094831E-02  0.51149219009E-02 -0.14478335335E+00  0.89186409253E+00  0.88000000000E+00 0.  1.
        -11    1    4    4    0    0 -0.16847614267E-02 -0.16210193462E-01  0.10083037980E+00  0.10214027317E+00  0.51100000000E-03 0.  1.
         11    1    4    4    0    0 -0.96501486024E-02 -0.99930579711E-03  0.24449891417E-01  0.26309357488E-01  0.51100000000E-03 0. -1.
</event>
<event>
 8    1  0.1022673E+005  0.1043930E+01  0.7957747E-01            NaN
         13   -1    0    0    0    0  0.00000000000E+00  0.00000000000E+00  0.74505805969E-08  0.10566000000E+00  0.10566000000E+00 0.  1.
     999900   -1    0    0    0    0 -0.00000000000E+00 -0.00000000000E+00 -0.74505805969E-08  0.93827000000E+00  0.93827000000E+00 0. -1.
     999902    2    1    2    0    0  0.19178953996E-01 -0.13888609256E-01 -0.31475657105E-02  0.10200420760E+01  0.10197623272E+01 0.  0.
     999903    2    3    3    0    0 -0.21163771683E-01  0.11804657130E+00  0.39430809135E-01  0.12827565737E+00  0.22736695814E-01 0.  0.
         14    1    1    2    0    0 -0.19178953996E-01  0.13888609256E-01  0.31475657105E-02  0.23887924007E-01  0.00000000000E+00 0. -1.
     999901    1    3    3    0    0  0.40342725679E-01 -0.13193518056E+00 -0.42578374846E-01  0.89176641863E+00  0.88000000000E+00 0. -1.
        -11    1    4    4    0    0 -0.19771191012E-01  0.98792091802E-01  0.41268963304E-01  0.10887683799E+00  0.51100000000E-03 0. -1.
         11    1    4    4    0    0 -0.13925806712E-02  0.19254479499E-01 -0.18381541685E-02  0.19398819383E-01  0.51100000000E-03 0.  1.
</event>
<event>
 8    1  0.1022673E+005  0.1043930E+01  0.7957747E-01            NaN
         13   -1    0    0    0    0  0.00000000000E+00  0.00000000000E+00  0.74505805969E-08  0.10566000000E+00  0.10566000000E+00 0.  1.
     999900   -1    0    0    0    0 -0.00000000000E+00 -0.00000000000E+00 -0.74505805969E-08  0.93827000000E+00  0.93827000000E+00 0.  1.
     999902    2    1    2    0    0  0.13515991209E-02  0.10886218517E-01 -0.20983136648E-01  0.10202524030E+01  0.10199776161E+01 0.  0.
     999903    2    3    3    0    0  0.95433387539E-01 -0.26144124692E-02  0.84454123698E-01  0.12887668775E+00  0.19035099866E-01 0.  0.
         14    1    1    2    0    0 -0.13515991209E-02 -0.10886218517E-01  0.20983136648E-01  0.23677596951E-01  0.00000000000E+00 0.  1.
     999901    1    3    3    0    0 -0.94081788418E-01  0.13500630987E-01 -0.10543726035E+00  0.89137571530E+00  0.88000000000E+00 0. -1.
        -11    1    4    4    0    0  0.42413639211E-01 -0.10556234494E-01  0.36505569054E-01  0.56949702113E-01  0.51100000000E-03 0.  1.
         11    1    4    4    0    0  0.53019748328E-01  0.79418220243E-02  0.47948554644E-01  0.71926985640E-01  0.51100000000E-03 0. -1.
</event>
<event>
 8    1  0.1022673E+005  0.1043930E+01  0.7957747E-01            NaN
         13   -1    0    0    0    0  0.00000000000E+00  0.00000000000E+00  0.74505805969E-08  0.10566000000E+00  0.10566000000E+00 0.  1.
     999900   -1    0    0    0    0 -0.00000000000E+00 -0.00000000000E+00 -0.74505805969E-08  0.93827000000E+00  0.93827000000E+00 0. -1.
     999902    2    1    2    0    0 -0.25393219570E-01 -0.45495461196E-02  0.47868468905E-02  0.10176920909E+01  0.10173538047E+01 0.  0.
     999903    2    3    3    0    0  0.53023306247E-01 -0.94939607039E-01  0.63679192150E-01  0.12764275354E+00  0.20313370664E-01 0.  0.
         14    1    1    2    0    0  0.25393219570E-01  0.45495461196E-02 -0.47868468905E-02  0.26237909086E-01  0.00000000000E+00 0. -1.
     999901    1    3    3    0    0 -0.78416525817E-01  0.90390060919E-01 -0.58892345260E-01  0.89004933738E+00  0.88000000000E+00 0. -1.
        -11    1    4    4    0    0  0.17512431590E-01 -0.34797712924E-01  0.34165484773E-01  0.51818023464E-01  0.51100000000E-03 0. -1.
         11    1    4    4    0    0  0.35510874657E-01 -0.60141894115E-01  0.29513707378E-01  0.75824730074E-01  0.51100000000E-03 0.  1.
</event>
<event>
 7    1  0.1022673E+005  0.1043930E+01  0.7957747E-01            NaN
         13   -1    0    0    0    0  0.00000000000E+00  0.00000000000E+00  0.74505805969E-08  0.10566000000E+00  0.10566000000E+00 0. -1.
     999900   -1    0    0    0    0 -0.00000000000E+00 -0.00000000000E+00 -0.74505805969E-08  0.93827000000E+00  0.93827000000E+00 0. -1.
     999903    2    1    2    0    0  0.36634170787E-01  0.11335588290E+00  0.80866906932E-02  0.12103315880E+00  0.19799300633E-01 0.  0.
         14    1    1    2    0    0 -0.52258900698E-03 -0.35308462908E-01  0.15089395884E-01  0.38401178632E-01  0.00000000000E+00 0.  1.
     999901    1    1    2    0    0 -0.36111581780E-01 -0.78047419996E-01 -0.23176086578E-01  0.88449566256E+00  0.88000000000E+00 0. -1.
        -11    1    3    3    0    0  0.12775031524E-01  0.54318831857E-01 -0.49914487919E-02  0.56025999382E-01  0.51100000000E-03 0.  1.
         11    1    3    3    0    0  0.23859139263E-01  0.59037051046E-01  0.13078139485E-01  0.65007159421E-01  0.51100000000E-03 0. -1.
</event>
<event>
 8    1  0.1022673E+005  0.1043930E+01  0.7957747E-01            NaN
         13   -1    0    0    0    0  0.00000000000E+00  0.00000000000E+00  0.74505805969E-08  0.10566000000E+00  0.10566000000E+00 0.  1.
     999900   -1    0    0    0    0 -0.00000000000E+00 -0.00000000000E+00 -0.74505805969E-08  0.93827000000E+00  0.93827000000E+00 0.  1.
     999902    2    1    2    0    0 -0.11558682580E-01 -0.19752665235E-01 -0.80526118607E-02  0.10196686009E+01  0.10193799293E+01 0.  0.
     999903    2    3    3    0    0 -0.11937339219E+00  0.11400860348E-02 -0.51657524611E-01  0.13177113665E+00  0.21067179390E-01 0.  0.
         14    1    1    2    0    0  0.11558682580E-01  0.19752665235E-01  0.80526118607E-02  0.24261399066E-01  0.00000000000E+00 0. -1.
     999901    1    3    3    0    0  0.10781470961E+00 -0.20892751270E-01  0.43604912750E-01  0.88789746428E+00  0.88000000000E+00 0. -1.
        -11    1    4    4    0    0 -0.60407807118E-01 -0.60390556300E-02 -0.17212958172E-01  0.63104044274E-01  0.51100000000E-03 0.  1.
         11    1    4    4    0    0 -0.58965585067E-01  0.71791416648E-02 -0.34444566439E-01  0.68667092377E-01  0.51100000000E-03 0. -1.
</event>
<event>
 8    1  0.1022673E+005  0.1043930E+01  0.7957747E-01            NaN
         13   -1    0    0    0    0  0.00000000000E+00  0.00000000000E+00  0.74505805969E-08  0.10566000000E+00  0.10566000000E+00 0. -1.
     999900   -1    0    0    0    0 -0.00000000000E+00 -0.00000000000E+00 -0.74505805969E-08  0.93827000000E+00  0.93827000000E+00 0. -1.
     999902    2    1    2    0    0 -0.61801368719E-02  0.19842638207E-01  0.13111722695E-01  0.10193568102E+01  0.10190605796E+01 0.  0.
     999903    2    3    3    0    0  0.11410526172E+00 -0.54334939609E-01 -0.49563606221E-02  0.12789882144E+00  0.19006488357E-01 0.  0.
         14    1    1    2    0    0  0.61801368719E-02 -0.19842638207E-01 -0.13111722695E-01  0.24573189756E-01  0.00000000000E+00 0. -1.
     999901    1    3    3    0    0 -0.12028539860E+00  0.74177577816E-01  0.18068083318E-01  0.89145798880E+00  0.88000000000E+00 0. -1.
        -11    1    4    4    0    0  0.42366260425E-01 -0.20143745608E-01 -0.11036178771E-01  0.48194697554E-01  0.51100000000E-03 0. -1.
         11    1    4    4    0    0  0.71739001300E-01 -0.34191194002E-01  0.60798181488E-02  0.79704123887E-01  0.51100000000E-03 0.  1.
</event>
<event>
 8    1  0.1022673E+005  0.1043930E+01  0.7957747E-01            NaN
         13   -1    0    0    0    0  0.00000000000E+00  0.00000000000E+00  0.74505805969E-08  0.10566000000E+00  0.10566000000E+00 0. -1.
     999900   -1    0    0    0    0 -0.00000000000E+00 -0.00000000000E+00 -0.74505805969E-08  0.93827000000E+00  0.93827000000E+00 0.  1.
     999902    2    1    2    0    0 -0.10368739270E-01 -0.21436187829E-01  0.47470462496E-03  0.10201130681E+01  0.10198349991E+01 0.  0.
     999903    2    3    3    0    0 -0.36209927094E-01 -0.12718332557E-01  0.12371230716E+00  0.13110728930E+00  0.20284761788E-01 0.  0.
         14    1    1    2    0    0  0.10368739270E-01  0.21436187829E-01 -0.47470462496E-03  0.23816931943E-01  0.00000000000E+00 0.  1.
     999901    1    3    3    0    0  0.25841187825E-01 -0.87178552722E-02 -0.12323760254E+00  0.88900577876E+00  0.88000000000E+00 0.  1.
        -11    1    4    4    0    0 -0.23938729126E-01 -0.16245545298E-01  0.10082073709E+00  0.10489071762E+00  0.51100000000E-03 0.  1.
         11    1    4    4    0    0 -0.12271197968E-01  0.35272127410E-02  0.22891570069E-01  0.26216571678E-01  0.51100000000E-03 0. -1.
</event>
<event>
 8    1  0.1022673E+005  0.1043930E+01  0.7957747E-01            NaN
         13   -1    0    0    0    0  0.00000000000E+00  0.00000000000E+00  0.74505805969E-08  0.10566000000E+00  0.10566000000E+00 0.  1.
     999900   -1    0    0    0    0 -0.00000000000E+00 -0.00000000000E+00 -0.74505805969E-08  0.93827000000E+00  0.93827000000E+00 0.  1.
     999902    2    1    2    0    0 -0.12709559051E-01  0.70927250657E-02  0.19343177879E-01  0.10197226009E+01  0.10194352283E+01 0.  0.
     999903    2    3    3    0    0 -0.85357086019E-01 -0.25605140230E-01  0.96611648701E-01  0.13275178394E+00  0.18648596084E-01 0.  0.
         14    1    1    2    0    0  0.12709559051E-01 -0.70927250657E-02 -0.19343177879E-01  0.24207399087E-01  0.00000000000E+00 0. -1.
     999901    1    3    3    0    0  0.72647526968E-01  0.32697865296E-01 -0.77268470823E-01  0.88697081697E+00  0.88000000000E+00 0. -1.
        -11    1    4    4    0    0 -0.62454805665E-01 -0.26877243930E-01  0.74981582235E-01  0.10121999697E+00  0.51100000000E-03 0. -1.
         11    1    4    4    0    0 -0.22902280354E-01  0.12721037002E-02  0.21630066466E-01  0.31531786971E-01  0.51100000000E-03 0.  1.
</event>
<event>
 7    1  0.1022673E+005  0.1043930E+01  0.7957747E-01            NaN
         13   -1    0    0    0    0  0.00000000000E+00  0.00000000000E+00  0.74505805969E-08  0.10566000000E+00  0.10566000000E+00 0.  1.
     999900   -1    0    0    0    0 -0.00000000000E+00 -0.00000000000E+00 -0.74505805969E-08  0.93827000000E+00  0.93827000000E+00 0.  1.
     999902    2    1    2    0    0  0.20908250363E-01  0.16832492489E-02  0.10078973411E-01  0.10206582582E+01  0.10203929175E+01 0.  0.
         14    1    1    2    0    0 -0.20908250363E-01 -0.16832492489E-02 -0.10078973411E-01  0.23271741797E-01  0.00000000000E+00 0.  1.
     999901    1    3    3    0    0 -0.86231948054E-01  0.68806949938E-01 -0.16204454570E-02  0.88688949203E+00  0.88000000000E+00 0. -1.
        -11    1    3    3    0    0  0.37169065451E-01 -0.24046394646E-01 -0.15971330625E-01  0.47064987464E-01  0.51100000000E-03 0.  1.
         11    1    3    3    0    0  0.69971132965E-01 -0.43077306043E-01  0.27670749493E-01  0.86703778712E-01  0.51100000000E-03 0. -1.
</event>
<event>
 8    1  0.1022673E+005  0.1043930E+01  0.7957747E-01            NaN
         13   -1    0    0    0    0  0.00000000000E+00  0.00000000000E+00  0.74505805969E-08  0.10566000000E+00  0.10566000000E+00 0. -1.
     999900   -1    0    0    0    0 -0.00000000000E+00 -0.00000000000E+00 -0.74505805969E-08  0.93827000000E+00  0.93827000000E+00 0. -1.
     999902    2    1    2    0    0  0.15702011110E-01  0.20826675875E-01 -0.69871021184E-02  0.10169277190E+01  0.10165691627E+01 0.  0.
     999903    2    3    3    0    0 -0.17820332690E-01  0.12675178380E+00 -0.85615113971E-02  0.12994048419E+00  0.20679724384E-01 0.  0.
         14    1    1    2    0    0 -0.15702011110E-01 -0.20826675875E-01  0.69871021184E-02  0.27002280957E-01  0.00000000000E+00 0. -1.
     999901    1    3    3    0    0  0.33522343800E-01 -0.10592510793E+00  0.15744092787E-02  0.88698723485E+00  0.88000000000E+00 0.  1.
        -11    1    4    4    0    0 -0.65800225068E-02  0.80761970785E-01  0.34143865904E-02  0.81103093518E-01  0.51100000000E-03 0.  1.
         11    1    4    4    0    0 -0.11240310183E-01  0.45989813016E-01 -0.11975897988E-01  0.48837390675E-01  0.51100000000E-03 0. -1.
</event>
<event>
 8    1  0.1022673E+005  0.1043930E+01  0.7957747E-01            NaN
         13   -1    0    0    0    0  0.00000000000E+00  0.00000000000E+00  0.74505805969E-08  0.10566000000E+00  0.10566000000E+00 0.  1.
     999900   -1    0    0    0    0 -0.00000000000E+00 -0.00000000000E+00 -0.74505805969E-08  0.93827000000E+00  0.93827000000E+00 0. -1.
     999902    2    1    2    0    0  0.83104572216E-02 -0.51599308040E-02 -0.21602249648E-01  0.10202161691E+01  0.10199405306E+01 0.  0.
     999903    2    3    3    0    0 -0.10115476126E+00  0.55169401049E-02  0.75707139957E-01  0.12804704449E+00  0.20043757373E-01 0.  0.
         14    1    1    2    0    0 -0.83104572216E-02  0.51599308040E-02  0.21602249648E-01  0.23713830880E-01  0.00000000000E+00 0.  1.
     999901    1    3    3    0    0  0.10946521848E+00 -0.10676870909E-01 -0.97309389605E-01  0.89216912463E+00  0.88000000000E+00 0. -1.
        -11    1    4    4    0    0 -0.73529275668E-01 -0.44626782006E-02  0.57871404321E-01  0.93679402411E-01  0.51100000000E-03 0.  1.
         11    1    4    4    0    0 -0.27625485592E-01  0.99796183056E-02  0.17835735637E-01  0.34367642084E-01  0.51100000000E-03 0. -1.
</event>
<event>
 8    1  0.1022673E+005  0.1043930E+01  0.7957747E-01            NaN
         13   -1    0    0    0    0  0.00000000000E+00  0.00000000000E+00  0.74505805969E-08  0.10566000000E+00  0.10566000000E+00 0.  1.
     999900   -1    0    0    0    0 -0.00000000000E+00 -0.00000000000E+00 -0.74505805969E-08  0.93827000000E+00  0.93827000000E+00 0.  1.
     999902    2    1    2    0    0  0.16481480445E-01 -0.11935217690E-01  0.56309717329E-02  0.10228161074E+01  0.10225981581E+01 0.  0.
     999903    2    3    3    0    0 -0.11496312022E+00 -0.39894769007E-01  0.46325703175E-01  0.13168453420E+00  0.19663015237E-01 0.  0.
         14    1    1    2    0    0 -0.16481480445E-01  0.11935217690E-01 -0.56309717329E-02  0.21113892621E-01  0.00000000000E+00 0. -1.
     999901    1    3    3    0    0  0.13144460066E+00  0.27959551317E-01 -0.40694731443E-01  0.89113157318E+00  0.88000000000E+00 0. -1.
        -11    1    4    4    0    0 -0.81084212946E-01 -0.25442783773E-01  0.41363950418E-01  0.94515725413E-01  0.51100000000E-03 0.  1.
         11    1    4    4    0    0 -0.33878907270E-01 -0.14451985234E-01  0.49617527571E-02  0.37168808784E-01  0.51100000000E-03 0. -1.
</event>
<event>
 8    1  0.1022673E+005  0.1043930E+01  0.7957747E-01            NaN
         13   -1    0    0    0    0  0.00000000000E+00  0.00000000000E+00  0.74505805969E-08  0.10566000000E+00  0.10566000000E+00 0.  1.
     999900   -1    0    0    0    0 -0.00000000000E+00 -0.00000000000E+00 -0.74505805969E-08  0.93827000000E+00  0.93827000000E+00 0. -1.
     999902    2    1    2    0    0 -0.74483172633E-02  0.13082960038E-01 -0.18966163992E-01  0.10197151977E+01  0.10194276472E+01 0.  0.
     999903    2    3    3    0    0  0.81567160085E-01  0.61158929691E-01  0.76552853157E-01  0.12878369826E+00  0.18201245204E-01 0.  0.
         14    1    1    2    0    0  0.74483172633E-02 -0.13082960038E-01  0.18966163992E-01  0.24214802291E-01  0.00000000000E+00 0.  1.
     999901    1    3    3    0    0 -0.89015477349E-01 -0.48075969653E-01 -0.95519017149E-01  0.89093149944E+00  0.88000000000E+00 0. -1.
        -11    1    4    4    0    0  0.66064165644E-01  0.39682495354E-01  0.56712184447E-01  0.95685460784E-01  0.51100000000E-03 0.  1.
         11    1    4    4    0    0  0.15502994442E-01  0.21476434336E-01  0.19840668710E-01  0.33098237480E-01  0.51100000000E-03 0. -1.
</event>
<event>
 8    1  0.1022673E+005  0.1043930E+01  0.7957747E-01            NaN
         13   -1    0    0    0    0  0.00000000000E+00  0.00000000000E+00  0.74505805969E-08  0.10566000000E+00  0.10566000000E+00 0.  1.
     999900   -1    0    0    0    0 -0.00000000000E+00 -0.00000000000E+00 -0.74505805969E-08  0.93827000000E+00  0.93827000000E+00 0. -1.
     999902    2    1    2    0    0  0.85058306921E-02 -0.56910515380E-02 -0.19402658615E-01  0.10219937199E+01  0.10217582704E+01 0.  0.
     999903    2    3    3    0    0 -0.12426210217E+00 -0.25728392174E-01  0.24425412252E-01  0.13073072907E+00  0.19771255948E-01 0.  0.
         14    1    1    2    0    0 -0.85058306921E-02  0.56910515380E-02  0.19402658615E-01  0.21936280102E-01  0.00000000000E+00 0.  1.
     999901    1    3    3    0    0  0.13276793286E+00  0.20037340636E-01 -0.43828070867E-01  0.89126299082E+00  0.88000000000E+00 0. -1.
        -11    1    4    4    0    0 -0.56619508009E-01 -0.94379476600E-02  0.13267729684E-02  0.57418333228E-01  0.51100000000E-03 0.  1.
         11    1    4    4    0    0 -0.67642594159E-01 -0.16290444514E-01  0.23098639284E-01  0.73312395847E-01  0.51100000000E-03 0. -1.
</event>
<event>
 8    1  0.1022673E+005  0.1043930E+01  0.7957747E-01            NaN
         13   -1    0    0    0    0  0.00000000000E+00  0.00000000000E+00  0.74505805969E-08  0.10566000000E+00  0.10566000000E+00 0.  1.
     999900   -1    0    0    0    0 -0.00000000000E+00 -0.00000000000E+00 -0.74505805969E-08  0.93827000000E+00  0.93827000000E+00 0.  1.
     999902    2    1    2    0    0 -0.44532259253E-02  0.18805299236E-01 -0.14428105187E-01  0.10198127713E+01  0.10195275611E+01 0.  0.
     999903    2    3    3    0    0 -0.86116065960E-01 -0.38699099259E-01 -0.88535023105E-01  0.13106792009E+00  0.20657982955E-01 0.  0.
         14    1    1    2    0    0  0.44532259253E-02 -0.18805299236E-01  0.14428105187E-01  0.24117228692E-01  0.00000000000E+00 0.  1.
     999901    1    3    3    0    0  0.81662840034E-01  0.57504398496E-01  0.74106917918E-01  0.88874485122E+00  0.88000000000E+00 0.  1.
        -11    1    4    4    0    0 -0.80574379041E-02 -0.40951045860E-02 -0.18640888727E-01  0.20722838625E-01  0.51100000000E-03 0. -1.
         11    1    4    4    0    0 -0.78058628056E-01 -0.34603994673E-01 -0.69894134377E-01  0.11034508146E+00  0.51100000000E-03 0.  1.
</event>
<event>
 8    1  0.1022673E+005  0.1043930E+01  0.7957747E-01            NaN
         13   -1    0    0    0    0  0.00000000000E+00  0.00000000000E+00  0.74505805969E-08  0.10566000000E+00  0.10566000000E+00 0. -1.
     999900   -1    0    0    0    0 -0.00000000000E+00 -0.00000000000E+00 -0.74505805969E-08  0.93827000000E+00  0.93827000000E+00 0. -1.
     999902    2    1    2    0    0  0.13919520579E-01 -0.10761566741E-01  0.17421282130E-01  0.10191698416E+01  0.10188690302E+01 0.  0.
     999903    2    3    3    0    0  0.12965375901E-01 -0.12129125784E+00  0.46290551548E-01  0.13178539409E+00  0.18571610939E-01 0.  0.
         14    1    1    2    0    0 -0.13919520579E-01  0.10761566741E-01 -0.17421282130E-01  0.24760158378E-01  0.00000000000E+00 0.  1.
     999901    1    3    3    0    0  0.95414467716E-03  0.11052969110E+00 -0.28869269418E-01  0.88738444753E+00  0.88000000000E+00 0. -1.
        -11    1    4    4    0    0  0.12178343939E-01 -0.70603428243E-01  0.18614729739E-01  0.74026518390E-01  0.51100000000E-03 0. -1.
         11    1    4    4    0    0  0.78703196251E-03 -0.50687829594E-01  0.27675821809E-01  0.57758875699E-01  0.51100000000E-03 0.  1.
</event>
<event>
 8    1  0.1022673E+005  0.1043930E+01  0.7957747E-01            NaN
         13   -1    0    0    0    0  0.00000000000E+00  0.00000000000E+00  0.74505805969E-08  0.10566000000E+00  0.10566000000E+00 0. -1.
     999900   -1    0    0    0    0 -0.00000000000E+00 -0.00000000000E+00 -0.74505805969E-08  0.93827000000E+00  0.93827000000E+00 0. -1.
     999902    2    1    2    0    0 -0.20953265303E-02 -0.15630960830E-01  0.17937042677E-01  0.10200458038E+01  0.10197661433E+01 0.  0.
     999903    2    3    3    0    0 -0.75222399667E-01 -0.46482220774E-01 -0.92553254887E-01  0.12959228172E+00  0.20224940836E-01 0.  0.
         14    1    1    2    0    0  0.20953265303E-02  0.15630960830E-01 -0.17937042677E-01  0.23884196234E-01  0.00000000000E+00 0.  1.
     999901    1    3    3    0    0  0.73127073137E-01  0.30851259944E-01  0.11049029756E+00  0.89045352204E+00  0.88000000000E+00 0.  1.
        -11    1    4    4    0    0 -0.51463947354E-02 -0.93151426207E-02 -0.61649328865E-02  0.12309540175E-01  0.51100000000E-03 0. -1.
         11    1    4    4    0    0 -0.70076004931E-01 -0.37167078153E-01 -0.86388322001E-01  0.11728274155E+00  0.51100000000E-03 0.  1.
</event>
<event>
 8    1  0.1022673E+005  0.1043930E+01  0.7957747E-01            NaN
         13   -1    0    0    0    0  0.00000000000E+00  0.00000000000E+00  0.74505805969E-08  0.10566000000E+00  0.10566000000E+00 0.  1.
     999900   -1    0    0    0    0 -0.00000000000E+00 -0.00000000000E+00 -0.74505805969E-08  0.93827000000E+00  0.93827000000E+00 0.  1.
     999902    2    1    2    0    0  0.21534717888E-01 -0.34812216798E-02  0.73662335259E-02  0.10209055700E+01  0.10206459026E+01 0.  0.
     999903    2    3    3    0    0 -0.51195889233E-01 -0.68060414030E-01 -0.95634461405E-01  0.12957546482E+00  0.19763902546E-01 0.  0.
         14    1    1    2    0    0 -0.21534717888E-01  0.34812216798E-02 -0.73662335259E-02  0.23024429966E-01  0.00000000000E+00 0. -1.
     999901    1    3    3    0    0  0.72730607121E-01  0.64579192350E-01  0.10300069493E+00  0.89133010521E+00  0.88000000000E+00 0. -1.
        -11    1    4    4    0    0 -0.11644569291E-01 -0.76260497856E-02 -0.24602648804E-01  0.28271966301E-01  0.51100000000E-03 0. -1.
         11    1    4    4    0    0 -0.39551319942E-01 -0.60434364244E-01 -0.71031812601E-01  0.10130349852E+00  0.51100000000E-03 0.  1.
</event>
<event>
 8    1  0.1022673E+005  0.1043930E+01  0.7957747E-01            NaN
         13   -1    0    0    0    0  0.00000000000E+00  0.00000000000E+00  0.74505805969E-08  0.10566000000E+00  0.10566000000E+00 0.  1.
     999900   -1    0    0    0    0 -0.00000000000E+00 -0.00000000000E+00 -0.74505805969E-08  0.93827000000E+00  0.93827000000E+00 0. -1.
     999902    2    1    2    0    0 -0.11758661711E-01 -0.88455119669E-02  0.19419239100E-01  0.10195657628E+01  0.10192746090E+01 0.  0.
     999903    2    3    3    0    0  0.50329554145E-01 -0.66740300211E-02 -0.11488093726E+00  0.12721146138E+00  0.20187111353E-01 0.  0.
         14    1    1    2    0    0  0.11758661711E-01  0.88455119669E-02 -0.19419239100E-01  0.24364237202E-01  0.00000000000E+00 0.  1.
     999901    1    3    3    0    0 -0.62088215856E-01 -0.21714819458E-02  0.13430017636E+00  0.89235430141E+00  0.88000000000E+00 0.  1.
        -11    1    4    4    0    0  0.46394837153E-01 -0.25373444378E-02 -0.85836148083E-01  0.97606477603E-01  0.51100000000E-03 0. -1.
         11    1    4    4    0    0  0.39347169921E-02 -0.41366855833E-02 -0.29044789176E-01  0.29604983782E-01  0.51100000000E-03 0.  1.
</event>
<event>
 8    1  0.1022673E+005  0.1043930E+01  0.7957747E-01            NaN
         13   -1    0    0    0    0  0.00000000000E+00  0.00000000000E+00  0.74505805969E-08  0.10566000000E+00  0.10566000000E+00 0. -1.
     999900   -1    0    0    0    0 -0.00000000000E+00 -0.00000000000E+00 -0.74505805969E-08  0.93827000000E+00  0.93827000000E+00 0.  1.
     999902    2    1    2    0    0  0.34101582041E-02  0.12147638738E-01 -0.14687312044E-01  0.10245673700E+01  0.10243843928E+01 0.  0.
     999903    2    3    3    0    0 -0.58510857163E-01 -0.92266700443E-01 -0.75251299512E-01  0.13417163609E+00  0.20065030163E-01 0.  0.
         14    1    1    2    0    0 -0.34101582041E-02 -0.12147638738E-01  0.14687312044E-01  0.19362630012E-01  0.00000000000E+00 0. -1.
     999901    1    3    3    0    0  0.61921015368E-01  0.10441433918E+00  0.60563987468E-01  0.89039573390E+00  0.88000000000E+00 0.  1.
        -11    1    4    4    0    0 -0.23785197246E-01 -0.54854944554E-01 -0.36153875241E-01  0.69872486474E-01  0.51100000000E-03 0.  1.
         11    1    4    4    0    0 -0.34725659918E-01 -0.37411755889E-01 -0.39097424271E-01  0.64299149614E-01  0.51100000000E-03 0. -1.
</event>
<event>
 8    1  0.1022673E+005  0.1043930E+01  0.7957747E-01            NaN
         13   -1    0    0    0    0  0.00000000000E+00  0.00000000000E+00  0.74505805969E-08  0.10566000000E+00  0.10566000000E+00 0.  1.
     999900   -1    0    0    0    0 -0.00000000000E+00 -0.00000000000E+00 -0.74505805969E-08  0.93827000000E+00  0.93827000000E+00 0. -1.
     999902    2    1    2    0    0  0.29037035655E-02  0.21914145727E-01  0.10209462695E-01  0.10195805769E+01  0.10192897813E+01 0.  0.
     999903    2    3    3    0    0  0.70154794801E-01 -0.42850146904E-01  0.98646634857E-01  0.13023348138E+00  0.21720284994E-01 0.  0.
         14    1    1    2    0    0 -0.29037035655E-02 -0.21914145727E-01 -0.10209462695E-01  0.24349423111E-01  0.00000000000E+00 0. -1.
     999901    1    3    3    0    0 -0.67251091235E-01  0.64764292630E-01 -0.88437172162E-01  0.88934709551E+00  0.88000000000E+00 0. -1.
        -11    1    4    4    0    0  0.54067188804E-01 -0.41778386758E-01  0.73480756016E-01  0.10034130321E+00  0.51100000000E-03 0. -1.
         11    1    4    4    0    0  0.16087605997E-01 -0.10717601458E-02  0.25165878841E-01  0.29892178164E-01  0.51100000000E-03 0.  1.
</event>
<event>
 8    1  0.1022673E+005  0.1043930E+01  0.7957747E-01            NaN
         13   -1    0    0    0    0  0.00000000000E+00  0.00000000000E+00  0.74505805969E-08  0.10566000000E+00  0.10566000000E+00 0. -1.
     999900   -1    0    0    0    0 -0.00000000000E+00 -0.00000000000E+00 -0.74505805969E-08  0.93827000000E+00  0.93827000000E+00 0.  1.
     999902    2    1    2    0    0  0.43548046745E-02  0.28010373156E-01  0.21340103207E-01  0.10084483803E+01  0.10078239879E+01 0.  0.
     999903    2    3    3    0    0  0.13527982036E-01  0.11915441313E+00 -0.16682240038E-01  0.12287676733E+00  0.20967173142E-01 0.  0.
         14    1    1    2    0    0 -0.43548046745E-02 -0.28010373156E-01 -0.21340103207E-01  0.35481619650E-01  0.00000000000E+00 0.  1.
     999901    1    3    3    0    0 -0.91731773618E-02 -0.91144039975E-01  0.38022343245E-01  0.88557161302E+00  0.88000000000E+00 0. -1.
        -11    1    4    4    0    0  0.97519574936E-02  0.62732421961E-01  0.14070062035E-02  0.63503529252E-01  0.51100000000E-03 0. -1.
         11    1    4    4    0    0  0.37760245428E-02  0.56421991170E-01 -0.18089246241E-01  0.59373238075E-01  0.51100000000E-03 0.  1.
</event>
<event>
 8    1  0.1022673E+005  0.1043930E+01  0.7957747E-01            NaN
         13   -1    0    0    0    0  0.00000000000E+00  0.00000000000E+00  0.74505805969E-08  0.10566000000E+00  0.10566000000E+00 0.  1.
     999900   -1    0    0    0    0 -0.00000000000E+00 -0.00000000000E+00 -0.74505805969E-08  0.93827000000E+00  0.93827000000E+00 0.  1.
     999902    2    1    2    0    0  0.74866906999E-02 -0.17304529555E-01  0.13437773466E-01  0.10207767921E+01  0.10205141784E+01 0.  0.
     999903    2    3    3    0    0  0.81184805194E-01  0.11782054207E-01 -0.98926118394E-01  0.13010115774E+00  0.20252035666E-01 0.  0.
         14    1    1    2    0    0 -0.74866906999E-02  0.17304529555E-01 -0.13437773466E-01  0.23153207909E-01  0.00000000000E+00 0. -1.
     999901    1    3    3    0    0 -0.73698114494E-01 -0.29086583762E-01  0.11236389186E+00  0.89067563435E+00  0.88000000000E+00 0. -1.
        -11    1    4    4    0    0  0.21038568556E-01 -0.46886636820E-02 -0.32372920040E-01  0.38895655373E-01  0.51100000000E-03 0. -1.
         11    1    4    4    0    0  0.60146236638E-01  0.16470717889E-01 -0.66553198354E-01  0.91205502365E-01  0.51100000000E-03 0.  1.
</event>
<event>
 8    1  0.1022673E+005  0.1043930E+01  0.7957747E-01            NaN
         13   -1    0    0    0    0  0.00000000000E+00  0.00000000000E+00  0.74505805969E-08  0.10566000000E+00  0.10566000000E+00 0.  1.
     999900   -1    0    0    0    0 -0.00000000000E+00 -0.00000000000E+00 -0.74505805969E-08  0.93827000000E+00  0.93827000000E+00 0. -1.
     999902    2    1    2    0    0 -0.17731431767E-01  0.42982151798E-02  0.15040035235E-01  0.10202851066E+01  0.10200110870E+01 0.  0.
     999903    2    3    3    0    0 -0.86842820121E-01  0.21551529025E-01  0.97144726509E-01  0.13359731417E+00  0.20124628044E-01 0.  0.
         14    1    1    2    0    0  0.17731431767E-01 -0.42982151798E-02 -0.15040035235E-01  0.23644893447E-01  0.00000000000E+00 0. -1.
     999901    1    3    3    0    0  0.69111388354E-01 -0.17253313846E-01 -0.82104691274E-01  0.88668779239E+00  0.88000000000E+00 0. -1.
        -11    1    4    4    0    0 -0.79930679195E-01  0.23841491639E-01  0.82953115978E-01  0.11763847488E+00  0.51100000000E-03 0. -1.
         11    1    4    4    0    0 -0.69121409263E-02 -0.22899626140E-02  0.14191610531E-01  0.15958839288E-01  0.51100000000E-03 0.  1.
</event>
<event>
 8    1  0.1022673E+005  0.1043930E+01  0.7957747E-01            NaN
         13   -1    0    0    0    0  0.00000000000E+00  0.00000000000E+00  0.74505805969E-08  0.10566000000E+00  0.10566000000E+00 0.  1.
     999900   -1    0    0    0    0 -0.00000000000E+00 -0.00000000000E+00 -0.74505805969E-08  0.93827000000E+00  0.93827000000E+00 0.  1.
     999902    2    1    2    0    0 -0.18861313502E-01  0.28817753059E-02 -0.12686370697E-01  0.10210171700E+01  0.10207600422E+01 0.  0.
     999903    2    3    3    0    0 -0.71662111269E-01 -0.88619822367E-01 -0.65819552063E-01  0.13310748904E+00  0.19911280663E-01 0.  0.
         14    1    1    2    0    0  0.18861313502E-01 -0.28817753059E-02  0.12686370697E-01  0.22912829974E-01  0.00000000000E+00 0.  1.
     999901    1    3    3    0    0  0.52800797766E-01  0.91501597673E-01  0.53133181366E-01  0.88790968098E+00  0.88000000000E+00 0. -1.
        -11    1    4    4    0    0 -0.28780378052E-01 -0.21280379038E-01 -0.22416470263E-01  0.42236523920E-01  0.51100000000E-03 0. -1.
         11    1    4    4    0    0 -0.42881733216E-01 -0.67339443329E-01 -0.43403081801E-01  0.90870965123E-01  0.51100000000E-03 0.  1.
</event>
<event>
 7    1  0.1022673E+005  0.1043930E+01  0.7957747E-01            NaN
         13   -1    0    0    0    0  0.00000000000E+00  0.00000000000E+00  0.74505805969E-08  0.10566000000E+00  0.10566000000E+00 0.  1.
     999900   -1    0    0    0    0 -0.00000000000E+00 -0.00000000000E+00 -0.74505805969E-08  0.93827000000E+00  0.93827000000E+00 0.  1.
     999903    2    1    2    0    0  0.74053070267E-01 -0.42250403161E-02  0.90390618248E-01  0.11822601437E+00  0.17470501573E-01 0.  0.
         14    1    1    2    0    0 -0.51767031991E-02  0.31337978805E-02 -0.41200408071E-01  0.41642437133E-01  0.00000000000E+00 0. -1.
     999901    1    1    2    0    0 -0.68876367068E-01  0.10912424356E-02 -0.49190210177E-01  0.88406154850E+00  0.88000000000E+00 0.  1.
        -11    1    3    3    0    0  0.42197057691E-01 -0.61453456014E-02  0.39344226982E-01  0.58022291132E-01  0.51100000000E-03 0.  1.
         11    1    3    3    0    0  0.31856012576E-01  0.19203052853E-02  0.51046391266E-01  0.60203723240E-01  0.51100000000E-03 0. -1.
</event>
<event>
 8    1  0.1022673E+005  0.1043930E+01  0.7957747E-01            NaN
         13   -1    0    0    0    0  0.00000000000E+00  0.00000000000E+00  0.74505805969E-08  0.10566000000E+00  0.10566000000E+00 0. -1.
     999900   -1    0    0    0    0 -0.00000000000E+00 -0.00000000000E+00 -0.74505805969E-08  0.93827000000E+00  0.93827000000E+00 0.  1.
     999902    2    1    2    0    0  0.16090789442E-01  0.85370491560E-02 -0.16613360053E-01  0.10192764314E+01  0.10189782358E+01 0.  0.
     999903    2    3    3    0    0 -0.16367617175E-01 -0.89063852832E-01  0.87183709253E-01  0.12722636787E+00  0.19628569686E-01 0.  0.
         14    1    1    2    0    0 -0.16090789442E-01 -0.85370491560E-02  0.16613360053E-01  0.24653568614E-01  0.00000000000E+00 0. -1.
     999901    1    3    3    0    0  0.32458406617E-01  0.97600901988E-01 -0.10379706931E+00  0.89205006352E+00  0.88000000000E+00 0.  1.
        -11    1    4    4    0    0 -0.16119736905E-01 -0.40078368448E-01  0.47254744866E-01  0.64026506766E-01  0.51100000000E-03 0.  1.
         11    1    4    4    0    0 -0.24788027036E-03 -0.48985484385E-01  0.39928964387E-01  0.63199861100E-01  0.51100000000E-03 0. -1.
</event>
<event>
 8    1  0.1022673E+005  0.1043930E+01  0.7957747E-01            NaN
         13   -1    0    0    0    0  0.00000000000E+00  0.00000000000E+00  0.74505805969E-08  0.10566000000E+00  0.10566000000E+00 0. -1.
     999900   -1    0    0    0    0 -0.00000000000E+00 -0.00000000000E+00 -0.74505805969E-08  0.93827000000E+00  0.93827000000E+00 0.  1.
     999902    2    1    2    0    0 -0.10029130037E-01  0.19292753111E-01 -0.90124721459E-02  0.10203924040E+01  0.10201208946E+01 0.  0.
     999903    2    3    3    0    0  0.13594279280E-01  0.58550775271E-01  0.11422869070E+00  0.13062409595E+00  0.20036540334E-01 0.  0.
         14    1    1    2    0    0  0.10029130037E-01 -0.19292753111E-01  0.90124721459E-02  0.23537596013E-01  0.00000000000E+00 0. -1.
     999901    1    3    3    0    0 -0.23623409318E-01 -0.39258022160E-01 -0.12324116285E+00  0.88976830804E+00  0.88000000000E+00 0.  1.
        -11    1    4    4    0    0  0.11811937663E-01  0.47977544706E-01  0.73949680005E-01  0.88939209358E-01  0.51100000000E-03 0. -1.
         11    1    4    4    0    0  0.17823416168E-02  0.10573230564E-01  0.40279010698E-01  0.41684886590E-01  0.51100000000E-03 0.  1.
</event>
<event>
 8    1  0.1022673E+005  0.1043930E+01  0.7957747E-01            NaN
         13   -1    0    0    0    0  0.00000000000E+00  0.00000000000E+00  0.74505805969E-08  0.10566000000E+00  0.10566000000E+00 0. -1.
     999900   -1    0    0    0    0 -0.00000000000E+00 -0.00000000000E+00 -0.74505805969E-08  0.93827000000E+00  0.93827000000E+00 0. -1.
     999902    2    1    2    0    0  0.19944828709E-01  0.11432855706E-01 -0.57358659117E-02  0.10202359809E+01  0.10199608082E+01 0.  0.
     999903    2    3    3    0    0 -0.30318542415E-01 -0.11793391445E+00  0.35319394432E-01  0.12841329559E+00  0.20368914260E-01 0.  0.
         14    1    1    2    0    0 -0.19944828709E-01 -0.11432855706E-01  0.57358659117E-02  0.23694019067E-01  0.00000000000E+00 0. -1.
     999901    1    3    3    0    0  0.50263371124E-01  0.12936677016E+00 -0.41055260343E-01  0.89182268535E+00  0.88000000000E+00 0. -1.
        -11    1    4    4    0    0 -0.23616813383E-01 -0.89535580001E-01  0.35660175620E-01  0.99228439506E-01  0.51100000000E-03 0.  1.
         11    1    4    4    0    0 -0.67017290323E-02 -0.28398334450E-01 -0.34078118882E-03  0.29184856080E-01  0.51100000000E-03 0. -1.
</event>
<event>
 8    1  0.1022673E+005  0.1043930E+01  0.7957747E-01            NaN
         13   -1    0    0    0    0  0.00000000000E+00  0.00000000000E+00  0.74505805969E-08  0.10566000000E+00  0.10566000000E+00 0. -1.
     999900   -1    0    0    0    0 -0.00000000000E+00 -0.00000000000E+00 -0.74505805969E-08  0.93827000000E+00  0.93827000000E+00 0.  1.
     999902    2    1    2    0    0  0.21303806678E-01 -0.48557534848E-03  0.10365304118E-01  0.10202334287E+01  0.10199581960E+01 0.  0.
     999903    2    3    3    0    0 -0.78443808399E-01  0.47429632538E-01 -0.87213880038E-01  0.12795143793E+00  0.19034402464E-01 0.  0.
         14    1    1    2    0    0 -0.21303806678E-01  0.48557534848E-03 -0.10365304118E-01  0.23696571310E-01  0.00000000000E+00 0.  1.
     999901    1    3    3    0    0  0.99747615077E-01 -0.47915207886E-01  0.97579184157E-01  0.89228199076E+00  0.88000000000E+00 0. -1.
        -11    1    4    4    0    0 -0.43053255797E-02  0.55085359867E-02 -0.16055079074E-02  0.71915626747E-02  0.51100000000E-03 0. -1.
         11    1    4    4    0    0 -0.74138482819E-01  0.41921096551E-01 -0.85608372131E-01  0.12075987525E+00  0.51100000000E-03 0.  1.
</event>
<event>
 8    1  0.1022673E+005  0.1043930E+01  0.7957747E-01            NaN
         13   -1    0    0    0    0  0.00000000000E+00  0.00000000000E+00  0.74505805969E-08  0.10566000000E+00  0.10566000000E+00 0. -1.
     999900   -1    0    0    0    0 -0.00000000000E+00 -0.00000000000E+00 -0.74505805969E-08  0.93827000000E+00  0.93827000000E+00 0. -1.
     999902    2    1    2    0    0  0.35342620676E-02  0.52600399885E-03 -0.22524475358E-01  0.10211238675E+01  0.10208691557E+01 0.  0.
     999903    2    3    3    0    0  0.12858532631E+00 -0.16168056577E-01  0.97750532140E-02  0.13153985245E+00  0.20287654365E-01 0.  0.
         14    1    1    2    0    0 -0.35342620676E-02 -0.52600399885E-03  0.22524475358E-01  0.22806132480E-01  0.00000000000E+00 0. -1.
     999901    1    3    3    0    0 -0.12505106425E+00  0.16694060576E-01 -0.32299528572E-01  0.88958401507E+00  0.88000000000E+00 0. -1.
        -11    1    4    4    0    0  0.44462074717E-01  0.37042562049E-02  0.59630223362E-02  0.45015734567E-01  0.51100000000E-03 0.  1.
         11    1    4    4    0    0  0.84123251596E-01 -0.19872312782E-01  0.38120308778E-02  0.86524117880E-01  0.51100000000E-03 0. -1.
</event>
<event>
 8    1  0.1022673E+005  0.1043930E+01  0.7957747E-01            NaN
         13   -1    0    0    0    0  0.00000000000E+00  0.00000000000E+00  0.74505805969E-08  0.10566000000E+00  0.10566000000E+00 0. -1.
     999900   -1    0    0    0    0 -0.00000000000E+00 -0.00000000000E+00 -0.74505805969E-08  0.93827000000E+00  0.93827000000E+00 0.  1.
     999902    2    1    2    0    0  0.19393718516E-01  0.31043601308E-02 -0.14219341426E-01  0.10196824632E+01  0.10193941253E+01 0.  0.
     999903    2    3    3    0    0 -0.12126549681E+00 -0.13584588606E-01  0.29951076083E-01  0.12726184397E+00  0.20215049037E-01 0.  0.
         14    1    1    2    0    0 -0.19393718516E-01 -0.31043601308E-02  0.14219341426E-01  0.24247536788E-01  0.00000000000E+00 0.  1.
     999901    1    3    3    0    0  0.14065921533E+00  0.16688948737E-01 -0.44170417510E-01  0.89242061924E+00  0.88000000000E+00 0.  1.
        -11    1    4    4    0    0 -0.44686243808E-01 -0.12090477129E-01  0.18317533960E-01  0.49787882002E-01  0.51100000000E-03 0.  1.
         11    1    4    4    0    0 -0.76579253003E-01 -0.14941114776E-02  0.11633542123E-01  0.77473961967E-01  0.51100000000E-03 0. -1.
</event>
<event>
 8    1  0.1022673E+005  0.1043930E+01  0.7957747E-01            NaN
         13   -1    0    0    0    0  0.00000000000E+00  0.00000000000E+00  0.74505805969E-08  0.10566000000E+00  0.10566000000E+00 0. -1.
     999900   -1    0    0    0    0 -0.00000000000E+00 -0.00000000000E+00 -0.74505805969E-08  0.93827000000E+00  0.93827000000E+00 0.  1.
     999902    2    1    2    0    0 -0.11985692403E-01  0.59025696956E-02 -0.17828756514E-01  0.10216508234E+01  0.10214078731E+01 0.  0.
     999903    2    3    3    0    0  0.44897208065E-01  0.66057123386E-01  0.10039649649E+00  0.12989331984E+00  0.20335072883E-01 0.  0.
         14    1    1    2    0    0  0.11985692403E-01 -0.59025696956E-02  0.17828756514E-01  0.22279176606E-01  0.00000000000E+00 0. -1.
     999901    1    3    3    0    0 -0.56882900469E-01 -0.60154553691E-01 -0.11822525301E+00  0.89175750355E+00  0.88000000000E+00 0.  1.
        -11    1    4    4    0    0  0.16831883087E-01  0.42252869924E-01  0.51862049460E-01  0.68982248443E-01  0.51100000000E-03 0.  1.
         11    1    4    4    0    0  0.28065324979E-01  0.23804253462E-01  0.48534447033E-01  0.60911071398E-01  0.51100000000E-03 0. -1.
</event>
<event>
 8    1  0.1022673E+005  0.1043930E+01  0.7957747E-01            NaN
         13   -1    0    0    0    0  0.00000000000E+00  0.00000000000E+00  0.74505805969E-08  0.10566000000E+00  0.10566000000E+00 0.  1.
     999900   -1    0    0    0    0 -0.00000000000E+00 -0.00000000000E+00 -0.74505805969E-08  0.93827000000E+00  0.93827000000E+00 0.  1.
     999902    2    1    2    0    0  0.11113734574E-02  0.48689778124E-02 -0.22953835653E-01  0.10204391365E+01  0.10201687168E+01 0.  0.
     999903    2    3    3    0    0 -0.13175083431E-01 -0.12692360798E+00  0.12890417359E-01  0.12978870060E+00  0.19893688898E-01 0.  0.
         14    1    1    2    0    0 -0.11113734574E-02 -0.48689778124E-02  0.22953835653E-01  0.23490863481E-01  0.00000000000E+00 0.  1.
     999901    1    3    3    0    0  0.14286456888E-01  0.13179258580E+00 -0.35844253012E-01  0.89065043591E+00  0.88000000000E+00 0.  1.
        -11    1    4    4    0    0 -0.81398879103E-02 -0.89148596733E-01 -0.10669802047E-03  0.89520961680E-01  0.51100000000E-03 0.  1.
         11    1    4    4    0    0 -0.50351955203E-02 -0.37775011250E-01  0.12997115379E-01  0.40267738924E-01  0.51100000000E-03 0. -1.
</event>
<event>
 8    1  0.1022673E+005  0.1043930E+01  0.7957747E-01            NaN
         13   -1    0    0    0    0  0.00000000000E+00  0.00000000000E+00  0.74505805969E-08  0.10566000000E+00  0.10566000000E+00 0.  1.
     999900   -1    0    0    0    0 -0.00000000000E+00 -0.00000000000E+00 -0.74505805969E-08  0.93827000000E+00  0.93827000000E+00 0. -1.
     999902    2    1    2    0    0  0.72580959580E-02 -0.15414076688E-01  0.12231710263E-01  0.10229564821E+01  0.10227414511E+01 0.  0.
     999903    2    3    3    0    0 -0.42287610089E-01 -0.76406113776E-02 -0.12238067588E+00  0.13130873873E+00  0.20453218060E-01 0.  0.
         14    1    1    2    0    0 -0.72580959580E-02  0.15414076688E-01 -0.12231710263E-01  0.20973517899E-01  0.00000000000E+00 0. -1.
     999901    1    3    3    0    0  0.49545706047E-01 -0.77734653103E-02  0.13461238615E+00  0.89164774337E+00  0.88000000000E+00 0.  1.
        -11    1    4    4    0    0 -0.32938348455E-01  0.33012913985E-02 -0.88763643732E-01  0.94736892990E-01  0.51100000000E-03 0. -1.
         11    1    4    4    0    0 -0.93492616347E-02 -0.10941902776E-01 -0.33617032149E-01  0.36571845742E-01  0.51100000000E-03 0.  1.
</event>
<event>
 8    1  0.1022673E+005  0.1043930E+01  0.7957747E-01            NaN
         13   -1    0    0    0    0  0.00000000000E+00  0.00000000000E+00  0.74505805969E-08  0.10566000000E+00  0.10566000000E+00 0. -1.
     999900   -1    0    0    0    0 -0.00000000000E+00 -0.00000000000E+00 -0.74505805969E-08  0.93827000000E+00  0.93827000000E+00 0. -1.
     999902    2    1    2    0    0  0.20046148079E-01  0.24518180765E-02 -0.13458978175E-01  0.10196606045E+01  0.10193717402E+01 0.  0.
     999903    2    3    3    0    0 -0.10058368267E+00 -0.50469360643E-01  0.55766845172E-01  0.12716723094E+00  0.19933138780E-01 0.  0.
         14    1    1    2    0    0 -0.20046148079E-01 -0.24518180765E-02  0.13458978175E-01  0.24269395505E-01  0.00000000000E+00 0. -1.
     999901    1    3    3    0    0  0.12062983075E+00  0.52921178719E-01 -0.69225823347E-01  0.89249337356E+00  0.88000000000E+00 0.  1.
        -11    1    4    4    0    0 -0.47599386063E-01 -0.21814571578E-01  0.36845643104E-01  0.64026866419E-01  0.51100000000E-03 0.  1.
         11    1    4    4    0    0 -0.52984296604E-01 -0.28654789065E-01  0.18921202069E-01  0.63140364520E-01  0.51100000000E-03 0. -1.
</event>
<event>
 8    1  0.1100801E+005  0.1043930E+01  0.7957747E-01            NaN
         13   -1    0    0    0    0  0.00000000000E+00  0.00000000000E+00  0.74505805969E-08  0.10566000000E+00  0.10566000000E+00 0. -1.
     999900   -1    0    0    0    0 -0.00000000000E+00 -0.00000000000E+00 -0.74505805969E-08  0.93827000000E+00  0.93827000000E+00 0.  1.
     999902    2    1    2    0    0  0.19534979448E-01  0.11114576790E-02  0.14164510250E-01  0.10197745842E+01  0.10194884592E+01 0.  0.
     999903    2    3    3    0    0 -0.65995513724E-01  0.10875717491E+00 -0.63180029641E-02  0.12886347809E+00  0.19553718259E-01 0.  0.
         14    1    1    2    0    0 -0.19534979448E-01 -0.11114576790E-02 -0.14164510250E-01  0.24155415766E-01  0.00000000000E+00 0.  1.
     999901    1    3    3    0    0  0.85530493172E-01 -0.10764571723E+00  0.20482513214E-01  0.89091110614E+00  0.88000000000E+00 0. -1.
        -11    1    4    4    0    0 -0.17690125334E-01  0.46792458189E-01 -0.50656159207E-02  0.50283160833E-01  0.51100000000E-03 0.  1.
         11    1    4    4    0    0 -0.48305388390E-01  0.61964716724E-01 -0.12523870434E-02  0.78580317259E-01  0.51100000000E-03 0. -1.
</event>
<event>
 8    1  0.1022673E+005  0.1043930E+01  0.7957747E-01            NaN
         13   -1    0    0    0    0  0.00000000000E+00  0.00000000000E+00  0.74505805969E-08  0.10566000000E+00  0.10566000000E+00 0. -1.
     999900   -1    0    0    0    0 -0.00000000000E+00 -0.00000000000E+00 -0.74505805969E-08  0.93827000000E+00  0.93827000000E+00 0.  1.
     999902    2    1    2    0    0  0.18169037956E-01 -0.60551537237E-02 -0.13202004485E-01  0.10206690510E+01  0.10204039592E+01 0.  0.
     999903    2    3    3    0    0 -0.71490477978E-01  0.43887520126E-01  0.94714404021E-01  0.12815627757E+00  0.20401232518E-01 0.  0.
         14    1    1    2    0    0 -0.18169037956E-01  0.60551537237E-02  0.13202004485E-01  0.23260949019E-01  0.00000000000E+00 0. -1.
     999901    1    3    3    0    0  0.89659515934E-01 -0.49942673850E-01 -0.10791640851E+00  0.89251277341E+00  0.88000000000E+00 0.  1.
        -11    1    4    4    0    0 -0.30377210693E-01  0.72366731525E-02  0.35608437185E-01  0.47364187817E-01  0.51100000000E-03 0. -1.
         11    1    4    4    0    0 -0.41113267285E-01  0.36650846973E-01  0.59105966837E-01  0.80792089758E-01  0.51100000000E-03 0.  1.
</event>
<event>
 8    1  0.1022673E+005  0.1043930E+01  0.7957747E-01            NaN
         13   -1    0    0    0    0  0.00000000000E+00  0.00000000000E+00  0.74505805969E-08  0.10566000000E+00  0.10566000000E+00 0.  1.
     999900   -1    0    0    0    0 -0.00000000000E+00 -0.00000000000E+00 -0.74505805969E-08  0.93827000000E+00  0.93827000000E+00 0.  1.
     999902    2    1    2    0    0  0.72386994907E-02  0.18415474494E-01 -0.12942710946E-01  0.10202859259E+01  0.10200119256E+01 0.  0.
     999903    2    3    3    0    0 -0.77455893916E-01  0.34404907915E-01  0.95796087683E-01  0.12941390233E+00  0.19696560881E-01 0.  0.
         14    1    1    2    0    0 -0.72386994907E-02 -0.18415474494E-01  0.12942710946E-01  0.23644074053E-01  0.00000000000E+00 0.  1.
     999901    1    3    3    0    0  0.84694593406E-01 -0.15989433421E-01 -0.10873879863E+00  0.89087202362E+00  0.88000000000E+00 0.  1.
        -11    1    4    4    0    0 -0.45440079616E-01  0.20883773430E-01  0.41709742575E-01  0.65122166540E-01  0.51100000000E-03 0.  1.
         11    1    4    4    0    0 -0.32015814299E-01  0.13521134485E-01  0.54086345107E-01  0.64291735792E-01  0.51100000000E-03 0. -1.
</event>
<event>
 8    1  0.1022673E+005  0.1043930E+01  0.7957747E-01            NaN
         13   -1    0    0    0    0  0.00000000000E+00  0.00000000000E+00  0.74505805969E-08  0.10566000000E+00  0.10566000000E+00 0. -1.
     999900   -1    0    0    0    0 -0.00000000000E+00 -0.00000000000E+00 -0.74505805969E-08  0.93827000000E+00  0.93827000000E+00 0. -1.
     999902    2    1    2    0    0 -0.17315730478E-01  0.16573713195E-01 -0.22846308186E-02  0.10198521673E+01  0.10195678992E+01 0.  0.
     999903    2    3    3    0    0 -0.10244214720E+00  0.50593628293E-02 -0.81077083694E-01  0.13216565857E+00  0.19346243332E-01 0.  0.
         14    1    1    2    0    0  0.17315730478E-01 -0.16573713195E-01  0.22846308186E-02  0.24077832731E-01  0.00000000000E+00 0. -1.
     999901    1    3    3    0    0  0.85126416721E-01  0.11514350366E-01  0.78792452876E-01  0.88768650869E+00  0.88000000000E+00 0.  1.
        -11    1    4    4    0    0 -0.50103549940E-01  0.11838384465E-01 -0.43092926175E-01  0.67139961801E-01  0.51100000000E-03 0. -1.
         11    1    4    4    0    0 -0.52338597259E-01 -0.67790216361E-02 -0.37984157519E-01  0.65025696773E-01  0.51100000000E-03 0.  1.
</event>
<event>
 8    1  0.1022673E+005  0.1043930E+01  0.7957747E-01            NaN
         13   -1    0    0    0    0  0.00000000000E+00  0.00000000000E+00  0.74505805969E-08  0.10566000000E+00  0.10566000000E+00 0.  1.
     999900   -1    0    0    0    0 -0.00000000000E+00 -0.00000000000E+00 -0.74505805969E-08  0.93827000000E+00  0.93827000000E+00 0. -1.
     999902    2    1    2    0    0 -0.19587638338E-01  0.10041297069E-01  0.91856224915E-02  0.10200788180E+01  0.10197999392E+01 0.  0.
     999903    2    3    3    0    0 -0.95389480119E-02  0.28808996887E-01 -0.12451969981E+00  0.12972477833E+00  0.20060225340E-01 0.  0.
         14    1    1    2    0    0  0.19587638338E-01 -0.10041297069E-01 -0.91856224915E-02  0.23851182005E-01  0.00000000000E+00 0. -1.
     999901    1    3    3    0    0 -0.10048690326E-01 -0.18767699818E-01  0.13370532230E+00  0.89035403966E+00  0.88000000000E+00 0.  1.
        -11    1    4    4    0    0  0.54367069336E-02  0.52375454809E-02 -0.40003904568E-01  0.40713181731E-01  0.51100000000E-03 0.  1.
         11    1    4    4    0    0 -0.14975654946E-01  0.23571451406E-01 -0.84515795245E-01  0.89011596600E-01  0.51100000000E-03 0. -1.
</event>
<event>
 8    1  0.1148640E+005  0.1043930E+01  0.7957747E-01            NaN
         13   -1    0    0    0    0  0.00000000000E+00  0.00000000000E+00  0.74505805969E-08  0.10566000000E+00  0.10566000000E+00 0.  1.
     999900   -1    0    0    0    0 -0.00000000000E+00 -0.00000000000E+00 -0.74505805969E-08  0.93827000000E+00  0.93827000000E+00 0. -1.
     999902    2    1    2    0    0  0.37621541131E-02  0.62608596903E-02  0.24101230946E-01  0.10187462453E+01  0.10184349222E+01 0.  0.
     999903    2    3    3    0    0  0.70409018290E-01  0.96298910348E-01  0.50568321544E-01  0.13125023857E+00  0.20941823968E-01 0.  0.
         14    1    1    2    0    0 -0.37621541131E-02 -0.62608596903E-02 -0.24101230946E-01  0.25183754699E-01  0.00000000000E+00 0. -1.
     999901    1    3    3    0    0 -0.66646864177E-01 -0.90038050658E-01 -0.26467090598E-01  0.88749600673E+00  0.88000000000E+00 0. -1.
        -11    1    4    4    0    0  0.29064003434E-01  0.35692325586E-01  0.30388681540E-01  0.55157877843E-01  0.51100000000E-03 0.  1.
         11    1    4    4    0    0  0.41345014857E-01  0.60606584762E-01  0.20179640004E-01  0.76092360731E-01  0.51100000000E-03 0. -1.
</event>
<event>
 8    1  0.1022673E+005  0.1043930E+01  0.7957747E-01            NaN
         13   -1    0    0    0    0  0.00000000000E+00  0.00000000000E+00  0.74505805969E-08  0.10566000000E+00  0.10566000000E+00 0.  1.
     999900   -1    0    0    0    0 -0.00000000000E+00 -0.00000000000E+00 -0.74505805969E-08  0.93827000000E+00  0.93827000000E+00 0. -1.
     999902    2    1    2    0    0  0.18880034469E-01 -0.13847061149E-01 -0.10707638920E-01  0.10181841200E+01  0.10178585619E+01 0.  0.
     999903    2    3    3    0    0 -0.91379845048E-01  0.82890804244E-01  0.13241400053E-01  0.12572178912E+00  0.20235416346E-01 0.  0.
         14    1    1    2    0    0 -0.18880034469E-01  0.13847061149E-01  0.10707638920E-01  0.25745879967E-01  0.00000000000E+00 0.  1.
     999901    1    3    3    0    0  0.11025987952E+00 -0.96737865394E-01 -0.23949038973E-01  0.89246233091E+00  0.88000000000E+00 0. -1.
        -11    1    4    4    0    0 -0.63965116092E-01  0.44931869136E-01  0.70540352621E-02  0.78488403444E-01  0.51100000000E-03 0. -1.
         11    1    4    4    0    0 -0.27414728957E-01  0.37958935109E-01  0.61873647909E-02  0.47233385676E-01  0.51100000000E-03 0.  1.
</event>
<event>
 8    1  0.1022673E+005  0.1043930E+01  0.7957747E-01            NaN
         13   -1    0    0    0    0  0.00000000000E+00  0.00000000000E+00  0.74505805969E-08  0.10566000000E+00  0.10566000000E+00 0.  1.
     999900   -1    0    0    0    0 -0.00000000000E+00 -0.00000000000E+00 -0.74505805969E-08  0.93827000000E+00  0.93827000000E+00 0.  1.
     999902    2    1    2    0    0 -0.11462365840E-01  0.18916598331E-01 -0.27565662628E-02  0.10216404917E+01  0.10213973135E+01 0.  0.
     999903    2    3    3    0    0  0.56874566041E-01 -0.15267356433E-01 -0.11535005520E+00  0.13118231032E+00  0.20865159247E-01 0.  0.
         14    1    1    2    0    0  0.11462365840E-01 -0.18916598331E-01  0.27565662628E-02  0.22289508308E-01  0.00000000000E+00 0. -1.
     999901    1    3    3    0    0 -0.68336931880E-01  0.34183954764E-01  0.11259348894E+00  0.89045818137E+00  0.88000000000E+00 0. -1.
        -11    1    4    4    0    0  0.30481866709E-01 -0.45074578309E-02 -0.80255860677E-01  0.85969329811E-01  0.51100000000E-03 0. -1.
         11    1    4    4    0    0  0.26392699332E-01 -0.10759898602E-01 -0.35094194527E-01  0.45212980508E-01  0.51100000000E-03 0.  1.
</event>
<event>
 8    1  0.1022673E+005  0.1043930E+01  0.7957747E-01            NaN
         13   -1    0    0    0    0  0.00000000000E+00  0.00000000000E+00  0.74505805969E-08  0.10566000000E+00  0.10566000000E+00 0. -1.
     999900   -1    0    0    0    0 -0.00000000000E+00 -0.00000000000E+00 -0.74505805969E-08  0.93827000000E+00  0.93827000000E+00 0.  1.
     999902    2    1    2    0    0  0.20453350678E-01 -0.91702222726E-02 -0.87036570311E-02  0.10198844978E+01  0.10196010017E+01 0.  0.
     999903    2    3    3    0    0 -0.95873748900E-01 -0.48907810608E-01  0.66556453992E-01  0.12815855653E+00  0.20275709028E-01 0.  0.
         14    1    1    2    0    0 -0.20453350678E-01  0.91702222726E-02  0.87036570311E-02  0.24045502203E-01  0.00000000000E+00 0. -1.
     999901    1    3    3    0    0  0.11632709958E+00  0.39737588335E-01 -0.75260111023E-01  0.89172594127E+00  0.88000000000E+00 0.  1.
        -11    1    4    4    0    0 -0.47318409181E-01 -0.26330109152E-01  0.21832941532E-01  0.58388739944E-01  0.51100000000E-03 0.  1.
         11    1    4    4    0    0 -0.48555339719E-01 -0.22577701456E-01  0.44723512459E-01  0.69769816583E-01  0.51100000000E-03 0. -1.
</event>
<event>
 8    1  0.1022673E+005  0.1043930E+01  0.7957747E-01            NaN
         13   -1    0    0    0    0  0.00000000000E+00  0.00000000000E+00  0.74505805969E-08  0.10566000000E+00  0.10566000000E+00 0.  1.
     999900   -1    0    0    0    0 -0.00000000000E+00 -0.00000000000E+00 -0.74505805969E-08  0.93827000000E+00  0.93827000000E+00 0.  1.
     999902    2    1    2    0    0  0.98982586546E-02  0.15587839002E-01 -0.14552722436E-01  0.10204196198E+01  0.10201487452E+01 0.  0.
     999903    2    3    3    0    0 -0.42126692634E-01 -0.11576581128E-01 -0.12280866419E+00  0.13184556532E+00  0.19814379399E-01 0.  0.
         14    1    1    2    0    0 -0.98982586546E-02 -0.15587839002E-01  0.14552722436E-01  0.23510380249E-01  0.00000000000E+00 0.  1.
     999901    1    3    3    0    0  0.52024951288E-01  0.27164420131E-01  0.10825594176E+00  0.88857405443E+00  0.88000000000E+00 0. -1.
        -11    1    4    4    0    0 -0.36703203817E-01 -0.19546125948E-02 -0.98680264183E-01  0.10530432727E+00  0.51100000000E-03 0.  1.
         11    1    4    4    0    0 -0.54234888164E-02 -0.96219685335E-02 -0.24128400012E-01  0.26541238056E-01  0.51100000000E-03 0. -1.
</event>
<event>
 8    1  0.1022673E+005  0.1043930E+01  0.7957747E-01            NaN
         13   -1    0    0    0    0  0.00000000000E+00  0.00000000000E+00  0.74505805969E-08  0.10566000000E+00  0.10566000000E+00 0. -1.
     999900   -1    0    0    0    0 -0.00000000000E+00 -0.00000000000E+00 -0.74505805969E-08  0.93827000000E+00  0.93827000000E+00 0.  1.
     999902    2    1    2    0    0  0.16080394770E-01 -0.75191026660E-02 -0.15734325744E-01  0.10202090176E+01  0.10199332108E+01 0.  0.
     999903    2    3    3    0    0 -0.14031158885E-01  0.24162943492E-01 -0.12754919624E+00  0.13205755359E+00  0.19740282184E-01 0.  0.
         14    1    1    2    0    0 -0.16080394770E-01  0.75191026660E-02  0.15734325744E-01  0.23720982430E-01  0.00000000000E+00 0. -1.
     999901    1    3    3    0    0  0.30111553655E-01 -0.31682046158E-01  0.11181487049E+00  0.88815146398E+00  0.88000000000E+00 0.  1.
        -11    1    4    4    0    0 -0.15071280214E-01  0.16944105636E-01 -0.60525098471E-01  0.64635863644E-01  0.51100000000E-03 0.  1.
         11    1    4    4    0    0  0.10401213288E-02  0.72188378566E-02 -0.67024097766E-01  0.67421689943E-01  0.51100000000E-03 0. -1.
</event>
<event>
 8    1  0.1022673E+005  0.1043930E+01  0.7957747E-01            NaN
         13   -1    0    0    0    0  0.00000000000E+00  0.00000000000E+00  0.74505805969E-08  0.10566000000E+00  0.10566000000E+00 0. -1.
     999900   -1    0    0    0    0 -0.00000000000E+00 -0.00000000000E+00 -0.74505805969E-08  0.93827000000E+00  0.93827000000E+00 0. -1.
     999902    2    1    2    0    0 -0.38300782407E-02  0.22767782875E-01  0.48235750363E-02  0.10203438110E+01  0.10200711663E+01 0.  0.
     999903    2    3    3    0    0 -0.83231133725E-01  0.99770401994E-01 -0.20937664116E-01  0.13304590587E+00  0.19526201773E-01 0.  0.
         14    1    1    2    0    0  0.38300782407E-02 -0.22767782875E-01 -0.48235750363E-02  0.23586189021E-01  0.00000000000E+00 0.  1.
     999901    1    3    3    0    0  0.79401055485E-01 -0.77002619119E-01  0.25761239153E-01  0.88729790511E+00  0.88000000000E+00 0. -1.
        -11    1    4    4    0    0 -0.68776713678E-01  0.84040614520E-01 -0.10043561002E-01  0.10906051289E+00  0.51100000000E-03 0.  1.
         11    1    4    4    0    0 -0.14454420047E-01  0.15729787474E-01 -0.10894103114E-01  0.23985392983E-01  0.51100000000E-03 0. -1.
</event>
<event>
 8    1  0.1022673E+005  0.1043930E+01  0.7957747E-01            NaN
         13   -1    0    0    0    0  0.00000000000E+00  0.00000000000E+00  0.74505805969E-08  0.10566000000E+00  0.10566000000E+00 0.  1.
     999900   -1    0    0    0    0 -0.00000000000E+00 -0.00000000000E+00 -0.74505805969E-08  0.93827000000E+00  0.93827000000E+00 0. -1.
     999902    2    1    2    0    0  0.15075584025E-01  0.13808552538E-01  0.11721857093E-01  0.10203641075E+01  0.10200919373E+01 0.  0.
     999903    2    3    3    0    0  0.21802702202E-02  0.13030517766E+00 -0.97421367332E-02  0.13233344594E+00  0.20809583939E-01 0.  0.
         14    1    1    2    0    0 -0.15075584025E-01 -0.13808552538E-01 -0.11721857093E-01  0.23565892527E-01  0.00000000000E+00 0. -1.
     999901    1    3    3    0    0  0.12895313805E-01 -0.11649662512E+00  0.21463993826E-01  0.88803066153E+00  0.88000000000E+00 0.  1.
        -11    1    4    4    0    0  0.11453950102E-01  0.79948645535E-01 -0.63079854668E-02  0.81012534200E-01  0.51100000000E-03 0.  1.
         11    1    4    4    0    0 -0.92736798821E-02  0.50356532127E-01 -0.34341512664E-02  0.51320911745E-01  0.51100000000E-03 0. -1.
</event>
<event>
 8    1  0.1022673E+005  0.1043930E+01  0.7957747E-01            NaN
         13   -1    0    0    0    0  0.00000000000E+00  0.00000000000E+00  0.74505805969E-08  0.10566000000E+00  0.10566000000E+00 0.  1.
     999900   -1    0    0    0    0 -0.00000000000E+00 -0.00000000000E+00 -0.74505805969E-08  0.93827000000E+00  0.93827000000E+00 0. -1.
     999902    2    1    2    0    0  0.22107182567E-01  0.35406273654E-02 -0.85669682727E-02  0.10199580057E+01  0.10196762609E+01 0.  0.
     999903    2    3    3    0    0 -0.11543708941E+00 -0.46235071626E-01 -0.21710672441E-01  0.12778716789E+00  0.19869663274E-01 0.  0.
         14    1    1    2    0    0 -0.22107182567E-01 -0.35406273654E-02  0.85669682727E-02  0.23971994255E-01  0.00000000000E+00 0.  1.
     999901    1    3    3    0    0  0.13754427198E+00  0.49775698992E-01  0.13143704168E-01  0.89217083786E+00  0.88000000000E+00 0.  1.
        -11    1    4    4    0    0 -0.95124556045E-01 -0.29540164086E-01 -0.16150499527E-01  0.10090788975E+00  0.51100000000E-03 0.  1.
         11    1    4    4    0    0 -0.20312533366E-01 -0.16694907540E-01 -0.55601729140E-02  0.26879278141E-01  0.51100000000E-03 0. -1.
</event>
<event>
 8    1  0.1022673E+005  0.1043930E+01  0.7957747E-01            NaN
         13   -1    0    0    0    0  0.00000000000E+00  0.00000000000E+00  0.74505805969E-08  0.10566000000E+00  0.10566000000E+00 0.  1.
     999900   -1    0    0    0    0 -0.00000000000E+00 -0.00000000000E+00 -0.74505805969E-08  0.93827000000E+00  0.93827000000E+00 0.  1.
     999902    2    1    2    0    0  0.16902430738E-01 -0.16417149244E-01 -0.47294895866E-02  0.10198970429E+01  0.10196138461E+01 0.  0.
     999903    2    3    3    0    0 -0.70066937021E-02 -0.11329583353E+00  0.63456145777E-01  0.13163671702E+00  0.20408409517E-01 0.  0.
         14    1    1    2    0    0 -0.16902430738E-01  0.16417149244E-01  0.47294895866E-02  0.24032957077E-01  0.00000000000E+00 0.  1.
     999901    1    3    3    0    0  0.23909124440E-01  0.96878684288E-01 -0.68185635364E-01  0.88826032590E+00  0.88000000000E+00 0.  1.
        -11    1    4    4    0    0 -0.13961179947E-01 -0.61376648797E-01  0.34802455076E-01  0.71926904308E-01  0.51100000000E-03 0. -1.
         11    1    4    4    0    0  0.69544862445E-02 -0.51919184735E-01  0.28653690701E-01  0.59709812713E-01  0.51100000000E-03 0.  1.
</event>
<event>
 8    1  0.1022673E+005  0.1043930E+01  0.7957747E-01            NaN
         13   -1    0    0    0    0  0.00000000000E+00  0.00000000000E+00  0.74505805969E-08  0.10566000000E+00  0.10566000000E+00 0. -1.
     999900   -1    0    0    0    0 -0.00000000000E+00 -0.00000000000E+00 -0.74505805969E-08  0.93827000000E+00  0.93827000000E+00 0. -1.
     999902    2    1    2    0    0 -0.94293199825E-02 -0.49531001768E-02 -0.14627057840E-01  0.10258359099E+01  0.10256763222E+01 0.  0.
     999903    2    3    3    0    0  0.25519462036E-01 -0.99907041049E-01  0.84123421258E-01  0.13455069997E+00  0.19861547413E-01 0.  0.
         14    1    1    2    0    0  0.94293199825E-02  0.49531001768E-02  0.14627057840E-01  0.18094090133E-01  0.00000000000E+00 0. -1.
     999901    1    3    3    0    0 -0.34948782019E-01  0.94953940872E-01 -0.98750479098E-01  0.89128520989E+00  0.88000000000E+00 0. -1.
        -11    1    4    4    0    0  0.16042098039E-01 -0.43144355817E-01  0.26526838405E-01  0.53129263360E-01  0.51100000000E-03 0. -1.
         11    1    4    4    0    0  0.94773639977E-02 -0.56762685232E-01  0.57596582853E-01  0.81421436615E-01  0.51100000000E-03 0.  1.
</event>
<event>
 8    1  0.1022673E+005  0.1043930E+01  0.7957747E-01            NaN
         13   -1    0    0    0    0  0.00000000000E+00  0.00000000000E+00  0.74505805969E-08  0.10566000000E+00  0.10566000000E+00 0.  1.
     999900   -1    0    0    0    0 -0.00000000000E+00 -0.00000000000E+00 -0.74505805969E-08  0.93827000000E+00  0.93827000000E+00 0. -1.
     999902    2    1    2    0    0  0.17754856752E-01 -0.12284653028E-01 -0.52723816274E-02  0.10217051120E+01  0.10214633573E+01 0.  0.
     999903    2    3    3    0    0  0.70100407822E-01  0.10030656861E+00 -0.45218928179E-01  0.13209139444E+00  0.20685988842E-01 0.  0.
         14    1    1    2    0    0 -0.17754856752E-01  0.12284653028E-01  0.52723816274E-02  0.22224887993E-01  0.00000000000E+00 0.  1.
     999901    1    3    3    0    0 -0.52345551070E-01 -0.11259122164E+00  0.39946546552E-01  0.88961371757E+00  0.88000000000E+00 0. -1.
        -11    1    4    4    0    0  0.43709040570E-01  0.45042109734E-01 -0.25535167972E-01  0.67761182112E-01  0.51100000000E-03 0. -1.
         11    1    4    4    0    0  0.26391367252E-01  0.55264458881E-01 -0.19683760207E-01  0.64330212325E-01  0.51100000000E-03 0.  1.
</event>
<event>
 8    1  0.1022673E+005  0.1043930E+01  0.7957747E-01            NaN
         13   -1    0    0    0    0  0.00000000000E+00  0.00000000000E+00  0.74505805969E-08  0.10566000000E+00  0.10566000000E+00 0. -1.
     999900   -1    0    0    0    0 -0.00000000000E+00 -0.00000000000E+00 -0.74505805969E-08  0.93827000000E+00  0.93827000000E+00 0.  1.
     999902    2    1    2    0    0 -0.18176589293E-01 -0.12398155685E-01 -0.83899273704E-02  0.10203823134E+01  0.10201105685E+01 0.  0.
     999903    2    3    3    0    0  0.11610041013E+00 -0.38159803209E-01  0.35315703601E-01  0.12875225714E+00  0.19861243275E-01 0.  0.
         14    1    1    2    0    0  0.18176589293E-01  0.12398155685E-01  0.83899273704E-02  0.23547686595E-01  0.00000000000E+00 0. -1.
     999901    1    3    3    0    0 -0.13427699942E+00  0.25761647524E-01 -0.43705630971E-01  0.89163005627E+00  0.88000000000E+00 0. -1.
        -11    1    4    4    0    0  0.49273765926E-01 -0.16854688836E-01  0.49333458037E-02  0.52312365327E-01  0.51100000000E-03 0. -1.
         11    1    4    4    0    0  0.66826644203E-01 -0.21305114373E-01  0.30382357797E-01  0.76439891812E-01  0.51100000000E-03 0.  1.
</event>
<event>
 8    1  0.1022673E+005  0.1043930E+01  0.7957747E-01            NaN
         13   -1    0    0    0    0  0.00000000000E+00  0.00000000000E+00  0.74505805969E-08  0.10566000000E+00  0.10566000000E+00 0. -1.
     999900   -1    0    0    0    0 -0.00000000000E+00 -0.00000000000E+00 -0.74505805969E-08  0.93827000000E+00  0.93827000000E+00 0. -1.
     999902    2    1    2    0    0  0.71340670739E-02 -0.43501210850E-02 -0.22366965098E-01  0.10200532415E+01  0.10197737573E+01 0.  0.
     999903    2    3    3    0    0 -0.18530655682E-01  0.96726702000E-01  0.79495951856E-01  0.12806038507E+00  0.19504250379E-01 0.  0.
         14    1    1    2    0    0 -0.71340670739E-02  0.43501210850E-02  0.22366965098E-01  0.23876758452E-01  0.00000000000E+00 0. -1.
     999901    1    3    3    0    0  0.25664722756E-01 -0.10107682308E+00 -0.10186291695E+00  0.89199285648E+00  0.88000000000E+00 0.  1.
        -11    1    4    4    0    0 -0.20208515783E-01  0.87137613513E-01  0.64927644393E-01  0.11053147935E+00  0.51100000000E-03 0.  1.
         11    1    4    4    0    0  0.16778601016E-02  0.95890884866E-02  0.14568307463E-01  0.17528905724E-01  0.51100000000E-03 0. -1.
</event>
<event>
 8    1  0.1022673E+005  0.1043930E+01  0.7957747E-01            NaN
         13   -1    0    0    0    0  0.00000000000E+00  0.00000000000E+00  0.74505805969E-08  0.10566000000E+00  0.10566000000E+00 0. -1.
     999900   -1    0    0    0    0 -0.00000000000E+00 -0.00000000000E+00 -0.74505805969E-08  0.93827000000E+00  0.93827000000E+00 0.  1.
     999902    2    1    2    0    0 -0.21681060175E-01  0.27388568657E-03  0.96018307543E-02  0.10202163217E+01  0.10199406868E+01 0.  0.
     999903    2    3    3    0    0 -0.22682215632E-01 -0.12376494466E+00 -0.28653334533E-01  0.13069392660E+00  0.20679565687E-01 0.  0.
         14    1    1    2    0    0  0.21681060175E-01 -0.27388568657E-03 -0.96018307543E-02  0.23713678279E-01  0.00000000000E+00 0.  1.
     999901    1    3    3    0    0  0.10011554566E-02  0.12403883035E+00  0.38255165287E-01  0.88952239512E+00  0.88000000000E+00 0.  1.
        -11    1    4    4    0    0 -0.15864706173E-01 -0.11412721184E+00 -0.22614633352E-01  0.11742398454E+00  0.51100000000E-03 0. -1.
         11    1    4    4    0    0 -0.68175094588E-02 -0.96377328298E-02 -0.60387011803E-02  0.13269942060E-01  0.51100000000E-03 0.  1.
</event>
<event>
 8    1  0.1022673E+005  0.1043930E+01  0.7957747E-01            NaN
         13   -1    0    0    0    0  0.00000000000E+00  0.00000000000E+00  0.74505805969E-08  0.10566000000E+00  0.10566000000E+00 0. -1.
     999900   -1    0    0    0    0 -0.00000000000E+00 -0.00000000000E+00 -0.74505805969E-08  0.93827000000E+00  0.93827000000E+00 0. -1.
     999902    2    1    2    0    0  0.86325707141E-02  0.21677016630E-01 -0.91874236111E-03  0.10205792310E+01  0.10203120642E+01 0.  0.
     999903    2    3    3    0    0 -0.11417364243E+00  0.57654470368E-01 -0.21221626164E-01  0.13109176604E+00  0.19365823667E-01 0.  0.
         14    1    1    2    0    0 -0.86325707141E-02 -0.21677016630E-01  0.91874236111E-03  0.23350769038E-01  0.00000000000E+00 0.  1.
     999901    1    3    3    0    0  0.12280621315E+00 -0.35977453738E-01  0.20302883803E-01  0.88948746492E+00  0.88000000000E+00 0.  1.
        -11    1    4    4    0    0 -0.23224120162E-01  0.13900746088E-01 -0.12408885802E-01  0.29779725770E-01  0.51100000000E-03 0. -1.
         11    1    4    4    0    0 -0.90949522272E-01  0.43753724280E-01 -0.88127403620E-02  0.10131204027E+00  0.51100000000E-03 0.  1.
</event>
<event>
 8    1  0.1022673E+005  0.1043930E+01  0.7957747E-01            NaN
         13   -1    0    0    0    0  0.00000000000E+00  0.00000000000E+00  0.74505805969E-08  0.10566000000E+00  0.10566000000E+00 0. -1.
     999900   -1    0    0    0    0 -0.00000000000E+00 -0.00000000000E+00 -0.74505805969E-08  0.93827000000E+00  0.93827000000E+00 0. -1.
     999902    2    1    2    0    0 -0.16066618003E-01  0.63352637352E-02  0.95831897246E-02  0.10241788151E+01  0.10239883476E+01 0.  0.
     999903    2    3    3    0    0  0.67616384981E-01 -0.11032844699E+00 -0.18534392199E-01  0.13210041897E+00  0.19043509757E-01 0.  0.
         14    1    1    2    0    0  0.16066618003E-01 -0.63352637352E-02 -0.95831897246E-02  0.19751184925E-01  0.00000000000E+00 0.  1.
     999901    1    3    3    0    0 -0.83683002983E-01  0.11666371073E+00  0.28117581923E-01  0.89207839611E+00  0.88000000000E+00 0.  1.
        -11    1    4    4    0    0  0.53366956568E-01 -0.97466283997E-01 -0.11778221545E-01  0.11174388660E+00  0.51100000000E-03 0.  1.
         11    1    4    4    0    0  0.14249428413E-01 -0.12862162994E-01 -0.67561706538E-02  0.20356532364E-01  0.51100000000E-03 0. -1.
</event>
<event>
 8    1  0.1022673E+005  0.1043930E+01  0.7957747E-01            NaN
         13   -1    0    0    0    0  0.00000000000E+00  0.00000000000E+00  0.74505805969E-08  0.10566000000E+00  0.10566000000E+00 0.  1.
     999900   -1    0    0    0    0 -0.00000000000E+00 -0.00000000000E+00 -0.74505805969E-08  0.93827000000E+00  0.93827000000E+00 0. -1.
     999902    2    1    2    0    0 -0.59349354076E-02 -0.20824541861E-01  0.93792911085E-02  0.10203322013E+01  0.10200592850E+01 0.  0.
     999903    2    3    3    0    0  0.79399376074E-01  0.25478426784E-01 -0.95772589268E-01  0.12877018575E+00  0.21353236988E-01 0.  0.
         14    1    1    2    0    0  0.59349354076E-02  0.20824541861E-01 -0.93792911085E-02  0.23597798705E-01  0.00000000000E+00 0. -1.
     999901    1    3    3    0    0 -0.85334311481E-01 -0.46302968646E-01  0.10515188038E+00  0.89156201555E+00  0.88000000000E+00 0.  1.
        -11    1    4    4    0    0  0.59832797420E-01  0.93824317637E-02 -0.71134520772E-01  0.93425771816E-01  0.51100000000E-03 0. -1.
         11    1    4    4    0    0  0.19566578654E-01  0.16095995020E-01 -0.24638068496E-01  0.35344413931E-01  0.51100000000E-03 0.  1.
</event>
<event>
 8    1  0.1022673E+005  0.1043930E+01  0.7957747E-01            NaN
         13   -1    0    0    0    0  0.00000000000E+00  0.00000000000E+00  0.74505805969E-08  0.10566000000E+00  0.10566000000E+00 0. -1.
     999900   -1    0    0    0    0 -0.00000000000E+00 -0.00000000000E+00 -0.74505805969E-08  0.93827000000E+00  0.93827000000E+00 0.  1.
     999902    2    1    2    0    0 -0.33897700993E-01 -0.10148890282E-01 -0.93039452991E-02  0.10073428779E+01  0.10066782287E+01 0.  0.
     999903    2    3    3    0    0 -0.44251494535E-01  0.96017871078E-01 -0.51122006159E-01  0.11991551045E+00  0.24261982558E-01 0.  0.
         14    1    1    2    0    0  0.33897700993E-01  0.10148890282E-01  0.93039452991E-02  0.36587122116E-01  0.00000000000E+00 0. -1.
     999901    1    3    3    0    0  0.10353793541E-01 -0.10616676136E+00  0.41818060860E-01  0.88742736743E+00  0.88000000000E+00 0. -1.
        -11    1    4    4    0    0 -0.11149477874E-01  0.13026521952E-01 -0.37249278779E-03  0.17158117697E-01  0.51100000000E-03 0. -1.
         11    1    4    4    0    0 -0.33102016660E-01  0.82991349126E-01 -0.50749513371E-01  0.10275739275E+00  0.51100000000E-03 0.  1.
</event>
<event>
 8    1  0.1022673E+005  0.1043930E+01  0.7957747E-01            NaN
         13   -1    0    0    0    0  0.00000000000E+00  0.00000000000E+00  0.74505805969E-08  0.10566000000E+00  0.10566000000E+00 0.  1.
     999900   -1    0    0    0    0 -0.00000000000E+00 -0.00000000000E+00 -0.74505805969E-08  0.93827000000E+00  0.93827000000E+00 0.  1.
     999902    2    1    2    0    0 -0.37406189050E-02  0.23323230322E-01 -0.45315516702E-02  0.10198779676E+01  0.10195943157E+01 0.  0.
     999903    2    3    3    0    0 -0.80469255498E-01 -0.86613190598E-01  0.45365203997E-01  0.12832707923E+00  0.20801241865E-01 0.  0.
         14    1    1    2    0    0  0.37406189050E-02 -0.23323230322E-01  0.45315516702E-02  0.24052032409E-01  0.00000000000E+00 0. -1.
     999901    1    3    3    0    0  0.76728636593E-01  0.10993642092E+00 -0.49896755667E-01  0.89155088836E+00  0.88000000000E+00 0. -1.
        -11    1    4    4    0    0 -0.30712489285E-01 -0.19894468503E-01  0.17411155474E-01  0.40527229502E-01  0.51100000000E-03 0.  1.
         11    1    4    4    0    0 -0.49756766212E-01 -0.66718722095E-01  0.27954048524E-01  0.87799849725E-01  0.51100000000E-03 0. -1.
</event>
<event>
 8    1  0.1022673E+005  0.1043930E+01  0.7957747E-01            NaN
         13   -1    0    0    0    0  0.00000000000E+00  0.00000000000E+00  0.74505805969E-08  0.10566000000E+00  0.10566000000E+00 0. -1.
     999900   -1    0    0    0    0 -0.00000000000E+00 -0.00000000000E+00 -0.74505805969E-08  0.93827000000E+00  0.93827000000E+00 0.  1.
     999902    2    1    2    0    0 -0.18629968530E-01 -0.11892273823E-01 -0.14832071128E-02  0.10217782098E+01  0.10215380601E+01 0.  0.
     999903    2    3    3    0    0  0.54123317710E-01 -0.10035643500E+00 -0.63568193419E-01  0.13218645291E+00  0.20774877912E-01 0.  0.
         14    1    1    2    0    0  0.18629968530E-01  0.11892273823E-01  0.14832071128E-02  0.22151790164E-01  0.00000000000E+00 0.  1.
     999901    1    3    3    0    0 -0.72753286241E-01  0.88464161174E-01  0.62084986306E-01  0.88959175693E+00  0.88000000000E+00 0. -1.
        -11    1    4    4    0    0  0.51317247896E-02 -0.23619111414E-01 -0.19384548735E-01  0.30987398632E-01  0.51100000000E-03 0. -1.
         11    1    4    4    0    0  0.48991592921E-01 -0.76737323583E-01 -0.44183644684E-01  0.10119905427E+00  0.51100000000E-03 0.  1.
</event>
<event>
 8    1  0.1022673E+005  0.1043930E+01  0.7957747E-01            NaN
         13   -1    0    0    0    0  0.00000000000E+00  0.00000000000E+00  0.74505805969E-08  0.10566000000E+00  0.10566000000E+00 0. -1.
     999900   -1    0    0    0    0 -0.00000000000E+00 -0.00000000000E+00 -0.74505805969E-08  0.93827000000E+00  0.93827000000E+00 0.  1.
     999902    2    1    2    0    0  0.39300612033E-02  0.16699791876E-01 -0.15870879048E-01  0.10205587948E+01  0.10202911547E+01 0.  0.
     999903    2    3    3    0    0 -0.98954266905E-01  0.49329921618E-01 -0.69927434926E-01  0.13231782438E+00  0.19818486015E-01 0.  0.
         14    1    1    2    0    0 -0.39300612033E-02 -0.16699791876E-01  0.15870879048E-01  0.23371205179E-01  0.00000000000E+00 0. -1.
     999901    1    3    3    0    0  0.10288432811E+00 -0.32630129742E-01  0.54056555878E-01  0.88824097044E+00  0.88000000000E+00 0.  1.
        -11    1    4    4    0    0 -0.45748159483E-01  0.32422161729E-01 -0.29284744234E-01  0.63260951883E-01  0.51100000000E-03 0.  1.
         11    1    4    4    0    0 -0.53206107422E-01  0.16907759888E-01 -0.40642690692E-01  0.69056872497E-01  0.51100000000E-03 0. -1.
</event>
<event>
 8    1  0.1022673E+005  0.1043930E+01  0.7957747E-01            NaN
         13   -1    0    0    0    0  0.00000000000E+00  0.00000000000E+00  0.74505805969E-08  0.10566000000E+00  0.10566000000E+00 0.  1.
     999900   -1    0    0    0    0 -0.00000000000E+00 -0.00000000000E+00 -0.74505805969E-08  0.93827000000E+00  0.93827000000E+00 0.  1.
     999902    2    1    2    0    0 -0.12171927673E-01 -0.81711850166E-02 -0.18951637377E-01  0.10199698529E+01  0.10196883898E+01 0.  0.
     999903    2    3    3    0    0 -0.13479880616E-01 -0.67571997799E-01  0.10629481013E+00  0.12911810326E+00  0.25004316832E-01 0.  0.
         14    1    1    2    0    0  0.12171927673E-01  0.81711850166E-02  0.18951637377E-01  0.23960147059E-01  0.00000000000E+00 0.  1.
     999901    1    3    3    0    0  0.13079529432E-02  0.59400812783E-01 -0.12524644751E+00  0.89085174968E+00  0.88000000000E+00 0.  1.
        -11    1    4    4    0    0 -0.85334254804E-02 -0.39091576465E-02  0.15169211905E-01  0.17845643019E-01  0.51100000000E-03 0. -1.
         11    1    4    4    0    0 -0.49464551358E-02 -0.63662840153E-01  0.91125598225E-01  0.11127246024E+00  0.51100000000E-03 0.  1.
</event>
<event>
 8    1  0.1022673E+005  0.1043930E+01  0.7957747E-01            NaN
         13   -1    0    0    0    0  0.00000000000E+00  0.00000000000E+00  0.74505805969E-08  0.10566000000E+00  0.10566000000E+00 0. -1.
     999900   -1    0    0    0    0 -0.00000000000E+00 -0.00000000000E+00 -0.74505805969E-08  0.93827000000E+00  0.93827000000E+00 0. -1.
     999902    2    1    2    0    0  0.22414270472E-01  0.53720738665E-02 -0.59384484797E-02  0.10201282381E+01  0.10198505274E+01 0.  0.
     999903    2    3    3    0    0  0.11711051809E+00 -0.52863927318E-01 -0.28976803905E-01  0.13283483852E+00  0.17203804817E-01 0.  0.
         14    1    1    2    0    0 -0.22414270472E-01 -0.53720738665E-02  0.59384484797E-02  0.23801761884E-01  0.00000000000E+00 0.  1.
     999901    1    3    3    0    0 -0.94696247621E-01  0.58236001184E-01  0.23038355426E-01  0.88729339960E+00  0.88000000000E+00 0.  1.
        -11    1    4    4    0    0  0.84295947729E-01 -0.45514123731E-01 -0.24697885565E-01  0.98932244162E-01  0.51100000000E-03 0.  1.
         11    1    4    4    0    0  0.32814570364E-01 -0.73498035869E-02 -0.42789183403E-02  0.33902594357E-01  0.51100000000E-03 0. -1.
</event>
<event>
 8    1  0.1022673E+005  0.1043930E+01  0.7957747E-01            NaN
         13   -1    0    0    0    0  0.00000000000E+00  0.00000000000E+00  0.74505805969E-08  0.10566000000E+00  0.10566000000E+00 0. -1.
     999900   -1    0    0    0    0 -0.00000000000E+00 -0.00000000000E+00 -0.74505805969E-08  0.93827000000E+00  0.93827000000E+00 0.  1.
     999902    2    1    2    0    0  0.23096932272E-01  0.43793829603E-02  0.33892729731E-02  0.10201784854E+01  0.10199019598E+01 0.  0.
     999903    2    3    3    0    0 -0.35180068595E-01  0.11983691482E+00 -0.30255781284E-01  0.13008936615E+00  0.20231349535E-01 0.  0.
         14    1    1    2    0    0 -0.23096932272E-01 -0.43793829603E-02 -0.33892729731E-02  0.23751514620E-01  0.00000000000E+00 0. -1.
     999901    1    3    3    0    0  0.58277000867E-01 -0.11545753186E+00  0.33645054257E-01  0.89008911923E+00  0.88000000000E+00 0. -1.
        -11    1    4    4    0    0 -0.33173270898E-01  0.94090124223E-01 -0.17536559210E-01  0.10129762785E+00  0.51100000000E-03 0.  1.
         11    1    4    4    0    0 -0.20067976971E-02  0.25746790599E-01 -0.12719222074E-01  0.28791738300E-01  0.51100000000E-03 0. -1.
</event>
<event>
 8    1  0.1022673E+005  0.1043930E+01  0.7957747E-01            NaN
         13   -1    0    0    0    0  0.00000000000E+00  0.00000000000E+00  0.74505805969E-08  0.10566000000E+00  0.10566000000E+00 0. -1.
     999900   -1    0    0    0    0 -0.00000000000E+00 -0.00000000000E+00 -0.74505805969E-08  0.93827000000E+00  0.93827000000E+00 0.  1.
     999902    2    1    2    0    0  0.18704088216E-01  0.44972154543E-02 -0.12973654271E-01  0.10207269061E+01  0.10204631464E+01 0.  0.
     999903    2    3    3    0    0 -0.95244807433E-01 -0.38925514788E-01 -0.76903267558E-01  0.13002107372E+00  0.20114621705E-01 0.  0.
         14    1    1    2    0    0 -0.18704088216E-01 -0.44972154543E-02  0.12973654271E-01  0.23203093931E-01  0.00000000000E+00 0. -1.
     999901    1    3    3    0    0  0.11394889565E+00  0.43422730242E-01  0.63929613287E-01  0.89070583235E+00  0.88000000000E+00 0. -1.
        -11    1    4    4    0    0 -0.67150906951E-01 -0.29790534454E-01 -0.43298562551E-01  0.85274538330E-01  0.51100000000E-03 0.  1.
         11    1    4    4    0    0 -0.28093900482E-01 -0.91349803339E-02 -0.33604705008E-01  0.44746535392E-01  0.51100000000E-03 0. -1.
</event>
<event>
 8    1  0.1022673E+005  0.1043930E+01  0.7957747E-01            NaN
         13   -1    0    0    0    0  0.00000000000E+00  0.00000000000E+00  0.74505805969E-08  0.10566000000E+00  0.10566000000E+00 0.  1.
     999900   -1    0    0    0    0 -0.00000000000E+00 -0.00000000000E+00 -0.74505805969E-08  0.93827000000E+00  0.93827000000E+00 0.  1.
     999902    2    1    2    0    0  0.63646547136E-02  0.24579361032E-02 -0.22138254527E-01  0.10207642366E+01  0.10205013347E+01 0.  0.
     999903    2    3    3    0    0  0.17998013967E-01 -0.72275631901E-01  0.10298866527E+00  0.12870079308E+00  0.20236933895E-01 0.  0.
         14    1    1    2    0    0 -0.63646547136E-02 -0.24579361032E-02  0.22138254527E-01  0.23165763380E-01  0.00000000000E+00 0.  1.
     999901    1    3    3    0    0 -0.11633359254E-01  0.74733568004E-01 -0.12512691979E+00  0.89206344353E+00  0.88000000000E+00 0.  1.
        -11    1    4    4    0    0  0.59726028633E-02 -0.35855099962E-01  0.66351116297E-01  0.75657067965E-01  0.51100000000E-03 0.  1.
         11    1    4    4    0    0  0.12025411104E-01 -0.36420531939E-01  0.36637548971E-01  0.53043725120E-01  0.51100000000E-03 0. -1.
</event>
<event>
 8    1  0.1022673E+005  0.1043930E+01  0.7957747E-01            NaN
         13   -1    0    0    0    0  0.00000000000E+00  0.00000000000E+00  0.74505805969E-08  0.10566000000E+00  0.10566000000E+00 0.  1.
     999900   -1    0    0    0    0 -0.00000000000E+00 -0.00000000000E+00 -0.74505805969E-08  0.93827000000E+00  0.93827000000E+00 0.  1.
     999902    2    1    2    0    0  0.17047369437E-01  0.72513012092E-02 -0.13800750213E-01  0.10208290286E+01  0.10205676120E+01 0.  0.
     999903    2    3    3    0    0  0.12972323134E-01 -0.10972267662E+00 -0.68141678827E-01  0.13141773227E+00  0.20493536239E-01 0.  0.
         14    1    1    2    0    0 -0.17047369437E-01 -0.72513012092E-02  0.13800750213E-01  0.23100971417E-01  0.00000000000E+00 0.  1.
     999901    1    3    3    0    0  0.40750463033E-02  0.11697397783E+00  0.54340928613E-01  0.88941129632E+00  0.88000000000E+00 0. -1.
        -11    1    4    4    0    0 -0.32599565647E-02 -0.59008071315E-01 -0.34616174031E-01  0.68491754414E-01  0.51100000000E-03 0. -1.
         11    1    4    4    0    0  0.16232279699E-01 -0.50714605309E-01 -0.33525504795E-01  0.62925977852E-01  0.51100000000E-03 0.  1.
</event>
<event>
 8    1  0.1022673E+005  0.1043930E+01  0.7957747E-01            NaN
         13   -1    0    0    0    0  0.00000000000E+00  0.00000000000E+00  0.74505805969E-08  0.10566000000E+00  0.10566000000E+00 0.  1.
     999900   -1    0    0    0    0 -0.00000000000E+00 -0.00000000000E+00 -0.74505805969E-08  0.93827000000E+00  0.93827000000E+00 0.  1.
     999902    2    1    2    0    0  0.14912441304E-01 -0.75071020298E-02  0.16491762283E-01  0.10204626672E+01  0.10201927952E+01 0.  0.
     999903    2    3    3    0    0 -0.11334882375E+00 -0.41957392365E-01 -0.39182349962E-01  0.12875790584E+00  0.20855770168E-01 0.  0.
         14    1    1    2    0    0 -0.14912441304E-01  0.75071020298E-02 -0.16491762283E-01  0.23467332822E-01  0.00000000000E+00 0. -1.
     999901    1    3    3    0    0  0.12826126505E+00  0.34450290335E-01  0.55674112246E-01  0.89170476134E+00  0.88000000000E+00 0.  1.
        -11    1    4    4    0    0 -0.76580623390E-01 -0.19761420812E-01 -0.19211893034E-01  0.81390807751E-01  0.51100000000E-03 0. -1.
         11    1    4    4    0    0 -0.36768200356E-01 -0.22195971553E-01 -0.19970456928E-01  0.47367098091E-01  0.51100000000E-03 0.  1.
</event>
<event>
 8    1  0.1022673E+005  0.1043930E+01  0.7957747E-01            NaN
         13   -1    0    0    0    0  0.00000000000E+00  0.00000000000E+00  0.74505805969E-08  0.10566000000E+00  0.10566000000E+00 0.  1.
     999900   -1    0    0    0    0 -0.00000000000E+00 -0.00000000000E+00 -0.74505805969E-08  0.93827000000E+00  0.93827000000E+00 0.  1.
     999902    2    1    2    0    0  0.98064466697E-02  0.20924576771E-01 -0.32363844953E-02  0.10205959370E+01  0.10203291568E+01 0.  0.
     999903    2    3    3    0    0 -0.45703891650E-01 -0.11744129435E+00 -0.11042508612E-01  0.12802244006E+00  0.19659726107E-01 0.  0.
         14    1    1    2    0    0 -0.98064466697E-02 -0.20924576771E-01  0.32363844953E-02  0.23334062953E-01  0.00000000000E+00 0.  1.
     999901    1    3    3    0    0  0.55510338320E-01  0.13836587112E+00  0.78061241171E-02  0.89257349699E+00  0.88000000000E+00 0. -1.
        -11    1    4    4    0    0 -0.53380834497E-02 -0.38222071961E-01 -0.47585717023E-02  0.38888649315E-01  0.51100000000E-03 0.  1.
         11    1    4    4    0    0 -0.40365808200E-01 -0.79219222393E-01 -0.62839369101E-02  0.89133790743E-01  0.51100000000E-03 0. -1.
</event>
<event>
 8    1  0.1022673E+005  0.1043930E+01  0.7957747E-01            NaN
         13   -1    0    0    0    0  0.00000000000E+00  0.00000000000E+00  0.74505805969E-08  0.10566000000E+00  0.10566000000E+00 0.  1.
     999900   -1    0    0    0    0 -0.00000000000E+00 -0.00000000000E+00 -0.74505805969E-08  0.93827000000E+00  0.93827000000E+00 0. -1.
     999902    2    1    2    0    0  0.15490145158E-01  0.67815806563E-02  0.14433579012E-01  0.10216979817E+01  0.10214560701E+01 0.  0.
     999903    2    3    3    0    0 -0.51874646900E-01  0.44791070170E-01  0.11203115572E+00  0.13293028234E+00  0.20548993964E-01 0.  0.
         14    1    1    2    0    0 -0.15490145158E-01 -0.67815806563E-02 -0.14433579012E-01  0.22232018268E-01  0.00000000000E+00 0. -1.
     999901    1    3    3    0    0  0.67364792058E-01 -0.38009489514E-01 -0.97597576709E-01  0.88876769939E+00  0.88000000000E+00 0. -1.
        -11    1    4    4    0    0 -0.34538072978E-01  0.37117177231E-01  0.66638719022E-01  0.83734958796E-01  0.51100000000E-03 0. -1.
         11    1    4    4    0    0 -0.17336573921E-01  0.76738929392E-02  0.45392436699E-01  0.49195323544E-01  0.51100000000E-03 0.  1.
</event>
<event>
 8    1  0.1022673E+005  0.1043930E+01  0.7957747E-01            NaN
         13   -1    0    0    0    0  0.00000000000E+00  0.00000000000E+00  0.74505805969E-08  0.10566000000E+00  0.10566000000E+00 0. -1.
     999900   -1    0    0    0    0 -0.00000000000E+00 -0.00000000000E+00 -0.74505805969E-08  0.93827000000E+00  0.93827000000E+00 0. -1.
     999902    2    1    2    0    0  0.14888797241E-01 -0.18501954523E-01 -0.57549163900E-03  0.10201743734E+01  0.10198977509E+01 0.  0.
     999903    2    3    3    0    0 -0.23921708697E-01 -0.60439949278E-01 -0.11220560487E+00  0.13128386667E+00  0.20496835587E-01 0.  0.
         14    1    1    2    0    0 -0.14888797241E-01  0.18501954523E-01  0.57549163900E-03  0.23755626599E-01  0.00000000000E+00 0.  1.
     999901    1    3    3    0    0  0.38810505938E-01  0.41937994755E-01  0.11163011323E+00  0.88889050673E+00  0.88000000000E+00 0.  1.
        -11    1    4    4    0    0  0.72210556900E-04 -0.22937307750E-01 -0.29684591749E-01  0.37517481385E-01  0.51100000000E-03 0.  1.
         11    1    4    4    0    0 -0.23993919254E-01 -0.37502641528E-01 -0.82521013118E-01  0.93766385287E-01  0.51100000000E-03 0. -1.
</event>
<event>
 8    1  0.1022673E+005  0.1043930E+01  0.7957747E-01            NaN
         13   -1    0    0    0    0  0.00000000000E+00  0.00000000000E+00  0.74505805969E-08  0.10566000000E+00  0.10566000000E+00 0. -1.
     999900   -1    0    0    0    0 -0.00000000000E+00 -0.00000000000E+00 -0.74505805969E-08  0.93827000000E+00  0.93827000000E+00 0.  1.
     999902    2    1    2    0    0  0.17762560239E-01 -0.15312715958E-01 -0.70939122440E-03  0.10204674543E+01  0.10201976937E+01 0.  0.
     999903    2    3    3    0    0  0.40775449567E-01 -0.10089763554E+00  0.73922831765E-01  0.13287276059E+00  0.18644444382E-01 0.  0.
         14    1    1    2    0    0 -0.17762560239E-01  0.15312715958E-01  0.70939122440E-03  0.23462545730E-01  0.00000000000E+00 0.  1.
     999901    1    3    3    0    0 -0.23012889328E-01  0.85584919584E-01 -0.74632222989E-01  0.88759469368E+00  0.88000000000E+00 0.  1.
        -11    1    4    4    0    0  0.37848978335E-01 -0.92563382326E-01  0.60768521097E-01  0.11701965299E+00  0.51100000000E-03 0.  1.
         11    1    4    4    0    0  0.29264712316E-02 -0.83342532156E-02  0.13154310668E-01  0.15853107603E-01  0.51100000000E-03 0. -1.
</event>
<event>
 8    1  0.1721353E+005  0.1043930E+01  0.7957747E-01            NaN
         13   -1    0    0    0    0  0.00000000000E+00  0.00000000000E+00  0.74505805969E-08  0.10566000000E+00  0.10566000000E+00 0.  1.
     999900   -1    0    0    0    0 -0.00000000000E+00 -0.00000000000E+00 -0.74505805969E-08  0.93827000000E+00  0.93827000000E+00 0. -1.
     999902    2    1    2    0    0 -0.20382550466E-01  0.15897959087E-01  0.94578770376E-03  0.10180632650E+01  0.10177346037E+01 0.  0.
     999903    2    3    3    0    0  0.22656454529E-01  0.11739100028E+00  0.46916433854E-01  0.12999429599E+00  0.20084903440E-01 0.  0.
         14    1    1    2    0    0  0.20382550466E-01 -0.15897959087E-01 -0.94578770376E-03  0.25866735028E-01  0.00000000000E+00 0.  1.
     999901    1    3    3    0    0 -0.43039004995E-01 -0.10149304119E+00 -0.45970646150E-01  0.88806896898E+00  0.88000000000E+00 0. -1.
        -11    1    4    4    0    0  0.87451985238E-02  0.67688541039E-01  0.36273876241E-01  0.77293416950E-01  0.51100000000E-03 0. -1.
         11    1    4    4    0    0  0.13911256006E-01  0.49702459240E-01  0.10642557613E-01  0.52700879041E-01  0.51100000000E-03 0.  1.
</event>
<event>
 8    1  0.1022673E+005  0.1043930E+01  0.7957747E-01            NaN
         13   -1    0    0    0    0  0.00000000000E+00  0.00000000000E+00  0.74505805969E-08  0.10566000000E+00  0.10566000000E+00 0. -1.
     999900   -1    0    0    0    0 -0.00000000000E+00 -0.00000000000E+00 -0.74505805969E-08  0.93827000000E+00  0.93827000000E+00 0. -1.
     999902    2    1    2    0    0  0.71007504902E-02  0.31756003227E-01 -0.74949991017E-02  0.10105377942E+01  0.10099859375E+01 0.  0.
     999903    2    3    3    0    0 -0.23026016923E-01 -0.11290072184E+00 -0.17237556563E-01  0.11816561417E+00  0.19728369636E-01 0.  0.
         14    1    1    2    0    0 -0.71007504902E-02 -0.31756003227E-01  0.74949991017E-02  0.33392205828E-01  0.00000000000E+00 0.  1.
     999901    1    3    3    0    0  0.30126767413E-01  0.14465672506E+00  0.97425574608E-02  0.89237218001E+00  0.88000000000E+00 0.  1.
        -11    1    4    4    0    0  0.34217001626E-02 -0.82310235613E-02 -0.86013620056E-03  0.89698793834E-02  0.51100000000E-03 0. -1.
         11    1    4    4    0    0 -0.26447717085E-01 -0.10466969828E+00 -0.16377420362E-01  0.10919573478E+00  0.51100000000E-03 0.  1.
</event>
<event>
 8    1  0.1022673E+005  0.1043930E+01  0.7957747E-01            NaN
         13   -1    0    0    0    0  0.00000000000E+00  0.00000000000E+00  0.74505805969E-08  0.10566000000E+00  0.10566000000E+00 0. -1.
     999900   -1    0    0    0    0 -0.00000000000E+00 -0.00000000000E+00 -0.74505805969E-08  0.93827000000E+00  0.93827000000E+00 0. -1.
     999902    2    1    2    0    0  0.14179228142E-01 -0.49497659619E-02  0.17804606866E-01  0.10206371960E+01  0.10203713692E+01 0.  0.
     999903    2    3    3    0    0 -0.76712510340E-01  0.92824398412E-01  0.46870377619E-01  0.13009471278E+00  0.15054029756E-01 0.  0.
         14    1    1    2    0    0 -0.14179228142E-01  0.49497659619E-02 -0.17804606866E-01  0.23292804027E-01  0.00000000000E+00 0.  1.
     999901    1    3    3    0    0  0.90891738482E-01 -0.97774164374E-01 -0.29065770753E-01  0.89054248319E+00  0.88000000000E+00 0. -1.
        -11    1    4    4    0    0 -0.32227152408E-01  0.44867712866E-01  0.28430165188E-01  0.62130800927E-01  0.51100000000E-03 0.  1.
         11    1    4    4    0    0 -0.44485357932E-01  0.47956685546E-01  0.18440212431E-01  0.67963911853E-01  0.51100000000E-03 0. -1.
</event>
<event>
 8    1  0.1022673E+005  0.1043930E+01  0.7957747E-01            NaN
         13   -1    0    0    0    0  0.00000000000E+00  0.00000000000E+00  0.74505805969E-08  0.10566000000E+00  0.10566000000E+00 0. -1.
     999900   -1    0    0    0    0 -0.00000000000E+00 -0.00000000000E+00 -0.74505805969E-08  0.93827000000E+00  0.93827000000E+00 0.  1.
     999902    2    1    2    0    0 -0.10975212755E-01  0.19963289202E-01  0.46780287935E-02  0.10206733415E+01  0.10204083486E+01 0.  0.
     999903    2    3    3    0    0 -0.18912028302E-01  0.20996566278E-01  0.12749273375E+00  0.13210848037E+00  0.19993319262E-01 0.  0.
         14    1    1    2    0    0  0.10975212755E-01 -0.19963289202E-01 -0.46780287935E-02  0.23256658491E-01  0.00000000000E+00 0.  1.
     999901    1    3    3    0    0  0.79368155477E-02 -0.10332770761E-02 -0.12281470496E+00  0.88856486114E+00  0.88000000000E+00 0.  1.
        -11    1    4    4    0    0  0.37358007109E-02  0.24385526291E-03  0.10915252252E-01  0.11550736992E-01  0.51100000000E-03 0. -1.
         11    1    4    4    0    0 -0.22647829013E-01  0.20752711015E-01  0.11657748150E+00  0.12055774337E+00  0.51100000000E-03 0.  1.
</event>
<event>
 8    1  0.1022673E+005  0.1043930E+01  0.7957747E-01            NaN
         13   -1    0    0    0    0  0.00000000000E+00  0.00000000000E+00  0.74505805969E-08  0.10566000000E+00  0.10566000000E+00 0.  1.
     999900   -1    0    0    0    0 -0.00000000000E+00 -0.00000000000E+00 -0.74505805969E-08  0.93827000000E+00  0.93827000000E+00 0. -1.
     999902    2    1    2    0    0  0.95921811774E-02 -0.14680568340E-01 -0.16103868847E-01  0.10201211021E+01  0.10198432229E+01 0.  0.
     999903    2    3    3    0    0 -0.30702951503E-01 -0.24118582967E-01  0.12078867085E+00  0.12857618386E+00  0.20434157095E-01 0.  0.
         14    1    1    2    0    0 -0.95921811774E-02  0.14680568340E-01  0.16103868847E-01  0.23808897882E-01  0.00000000000E+00 0.  1.
     999901    1    3    3    0    0  0.40295132681E-01  0.94380146268E-02 -0.13689253970E+00  0.89154491825E+00  0.88000000000E+00 0. -1.
        -11    1    4    4    0    0 -0.10944950988E-01 -0.90888564107E-02  0.18648034968E-01  0.23460809708E-01  0.51100000000E-03 0.  1.
         11    1    4    4    0    0 -0.19758000515E-01 -0.15029726556E-01  0.10214063588E+00  0.10511537416E+00  0.51100000000E-03 0. -1.
</event>
<event>
 8    1  0.1022673E+005  0.1043930E+01  0.7957747E-01            NaN
         13   -1    0    0    0    0  0.00000000000E+00  0.00000000000E+00  0.74505805969E-08  0.10566000000E+00  0.10566000000E+00 0.  1.
     999900   -1    0    0    0    0 -0.00000000000E+00 -0.00000000000E+00 -0.74505805969E-08  0.93827000000E+00  0.93827000000E+00 0. -1.
     999902    2    1    2    0    0 -0.10317058651E-01 -0.16684881879E-01  0.13352086267E-01  0.10202001624E+01  0.10199241473E+01 0.  0.
     999903    2    3    3    0    0  0.43770258330E-01  0.10479977045E+00 -0.54663849741E-01  0.12761396148E+00  0.19958940265E-01 0.  0.
         14    1    1    2    0    0  0.10317058651E-01  0.16684881879E-01 -0.13352086267E-01  0.23729837551E-01  0.00000000000E+00 0. -1.
     999901    1    3    3    0    0 -0.54087316981E-01 -0.12148465232E+00  0.68015936008E-01  0.89258620097E+00  0.88000000000E+00 0.  1.
        -11    1    4    4    0    0  0.15747081944E-01  0.63109976685E-01 -0.29372449365E-01  0.71371154184E-01  0.51100000000E-03 0.  1.
         11    1    4    4    0    0  0.28023176385E-01  0.41689793761E-01 -0.25291400376E-01  0.56242807296E-01  0.51100000000E-03 0. -1.
</event>
<event>
 8    1  0.1022673E+005  0.1043930E+01  0.7957747E-01            NaN
         13   -1    0    0    0    0  0.00000000000E+00  0.00000000000E+00  0.74505805969E-08  0.10566000000E+00  0.10566000000E+00 0.  1.
     999900   -1    0    0    0    0 -0.00000000000E+00 -0.00000000000E+00 -0.74505805969E-08  0.93827000000E+00  0.93827000000E+00 0.  1.
     999902    2    1    2    0    0  0.11554449486E-03  0.13870372319E-01  0.90747547609E-02  0.10273543627E+01  0.10272206359E+01 0.  0.
     999903    2    3    3    0    0 -0.10686012009E+00 -0.28481813219E-01 -0.76156944698E-01  0.13578162698E+00  0.20161127241E-01 0.  0.
         14    1    1    2    0    0 -0.11554449486E-03 -0.13870372319E-01 -0.90747547609E-02  0.16575637326E-01  0.00000000000E+00 0. -1.
     999901    1    3    3    0    0  0.10697566458E+00  0.42352185538E-01  0.85231699459E-01  0.89157273569E+00  0.88000000000E+00 0. -1.
        -11    1    4    4    0    0 -0.24516573343E-01  0.19843664171E-02 -0.15889721194E-01  0.29287274356E-01  0.51100000000E-03 0. -1.
         11    1    4    4    0    0 -0.82343546743E-01 -0.30466179636E-01 -0.60267223504E-01  0.10649435263E+00  0.51100000000E-03 0.  1.
</event>
<event>
 8    1  0.1022673E+005  0.1043930E+01  0.7957747E-01            NaN
         13   -1    0    0    0    0  0.00000000000E+00  0.00000000000E+00  0.74505805969E-08  0.10566000000E+00  0.10566000000E+00 0. -1.
     999900   -1    0    0    0    0 -0.00000000000E+00 -0.00000000000E+00 -0.74505805969E-08  0.93827000000E+00  0.93827000000E+00 0.  1.
     999902    2    1    2    0    0 -0.11970396688E-01 -0.22593038964E-01 -0.22556881841E-02  0.10182624342E+01  0.10179388788E+01 0.  0.
     999903    2    3    3    0    0  0.31418246910E-01  0.90531042062E-01 -0.80436180519E-01  0.12652714750E+00  0.18872310495E-01 0.  0.
         14    1    1    2    0    0  0.11970396688E-01  0.22593038964E-01  0.22556881841E-02  0.25667565831E-01  0.00000000000E+00 0. -1.
     999901    1    3    3    0    0 -0.43388643598E-01 -0.11312408103E+00  0.78180492335E-01  0.89173528666E+00  0.88000000000E+00 0. -1.
        -11    1    4    4    0    0  0.15032377132E-01  0.62860924024E-01 -0.61422014218E-01  0.89164976773E-01  0.51100000000E-03 0.  1.
         11    1    4    4    0    0  0.16385869778E-01  0.27670118038E-01 -0.19014166301E-01  0.37362170732E-01  0.51100000000E-03 0. -1.
</event>
<event>
 8    1  0.1022673E+005  0.1043930E+01  0.7957747E-01            NaN
         13   -1    0    0    0    0  0.00000000000E+00  0.00000000000E+00  0.74505805969E-08  0.10566000000E+00  0.10566000000E+00 0.  1.
     999900   -1    0    0    0    0 -0.00000000000E+00 -0.00000000000E+00 -0.74505805969E-08  0.93827000000E+00  0.93827000000E+00 0. -1.
     999902    2    1    2    0    0 -0.14229199445E-01 -0.13194903787E-01  0.16360735401E-01  0.10185479342E+01  0.10182316264E+01 0.  0.
     999903    2    3    3    0    0  0.21029680038E-01  0.37774074329E-01  0.12115980742E+00  0.13016520651E+00  0.19853309989E-01 0.  0.
         14    1    1    2    0    0  0.14229199445E-01  0.13194903787E-01 -0.16360735401E-01  0.25382065827E-01  0.00000000000E+00 0. -1.
     999901    1    3    3    0    0 -0.35258879483E-01 -0.50968978117E-01 -0.10479907202E+00  0.88838272766E+00  0.88000000000E+00 0. -1.
        -11    1    4    4    0    0  0.11568550169E-01  0.23003899909E-01  0.96641528688E-01  0.10001428374E+00  0.51100000000E-03 0. -1.
         11    1    4    4    0    0  0.94611298684E-02  0.14770174420E-01  0.24518278733E-01  0.30150922769E-01  0.51100000000E-03 0.  1.
</event>
<event>
 8    1  0.1022673E+005  0.1043930E+01  0.7957747E-01            NaN
         13   -1    0    0    0    0  0.00000000000E+00  0.00000000000E+00  0.74505805969E-08  0.10566000000E+00  0.10566000000E+00 0. -1.
     999900   -1    0    0    0    0 -0.00000000000E+00 -0.00000000000E+00 -0.74505805969E-08  0.93827000000E+00  0.93827000000E+00 0. -1.
     999902    2    1    2    0    0  0.17331532213E-01  0.71261488195E-02  0.20559659407E-01  0.10161115960E+01  0.10157307281E+01 0.  0.
     999903    2    3    3    0    0 -0.96845729018E-01 -0.63965906465E-01 -0.39763633427E-01  0.12385074459E+00  0.16944850951E-01 0.  0.
         14    1    1    2    0    0 -0.17331532213E-01 -0.71261488195E-02 -0.20559659407E-01  0.27818403994E-01  0.00000000000E+00 0.  1.
     999901    1    3    3    0    0  0.11417726123E+00  0.71092055285E-01  0.60323292834E-01  0.89226085141E+00  0.88000000000E+00 0.  1.
        -11    1    4    4    0    0 -0.16527557630E-01 -0.50578759410E-02 -0.95974579535E-02  0.19776617264E-01  0.51100000000E-03 0. -1.
         11    1    4    4    0    0 -0.80318171388E-01 -0.58908030524E-01 -0.30166175473E-01  0.10407412733E+00  0.51100000000E-03 0.  1.
</event>
<event>
 8    1  0.1022673E+005  0.1043930E+01  0.7957747E-01            NaN
         13   -1    0    0    0    0  0.00000000000E+00  0.00000000000E+00  0.74505805969E-08  0.10566000000E+00  0.10566000000E+00 0. -1.
     999900   -1    0    0    0    0 -0.00000000000E+00 -0.00000000000E+00 -0.74505805969E-08  0.93827000000E+00  0.93827000000E+00 0. -1.
     999902    2    1    2    0    0 -0.33421252461E-02  0.12145360423E-01  0.19687540968E-01  0.10205573910E+01  0.10202897184E+01 0.  0.
     999903    2    3    3    0    0 -0.47303265244E-01  0.10490456366E+00 -0.59300693913E-01  0.13107664763E+00  0.20541394209E-01 0.  0.
         14    1    1    2    0    0  0.33421252461E-02 -0.12145360423E-01 -0.19687540968E-01  0.23372608976E-01  0.00000000000E+00 0.  1.
     999901    1    3    3    0    0  0.43961139998E-01 -0.92759203239E-01  0.78988234881E-01  0.88948074339E+00  0.88000000000E+00 0.  1.
        -11    1    4    4    0    0 -0.17942736202E-01  0.56855238425E-01 -0.38869699260E-01  0.71172849882E-01  0.51100000000E-03 0. -1.
         11    1    4    4    0    0 -0.29360529042E-01  0.48049325237E-01 -0.20430994653E-01  0.59903797750E-01  0.51100000000E-03 0.  1.
</event>
<event>
 8    1  0.1022673E+005  0.1043930E+01  0.7957747E-01            NaN
         13   -1    0    0    0    0  0.00000000000E+00  0.00000000000E+00  0.74505805969E-08  0.10566000000E+00  0.10566000000E+00 0. -1.
     999900   -1    0    0    0    0 -0.00000000000E+00 -0.00000000000E+00 -0.74505805969E-08  0.93827000000E+00  0.93827000000E+00 0. -1.
     999902    2    1    2    0    0 -0.75580818546E-02  0.21026547313E-01 -0.97210008069E-02  0.10195632573E+01  0.10192720429E+01 0.  0.
     999903    2    3    3    0    0  0.61962028167E-01  0.23965082854E-01  0.10880937226E+00  0.12889433451E+00  0.18990835807E-01 0.  0.
         14    1    1    2    0    0  0.75580818546E-02 -0.21026547313E-01  0.97210008069E-02  0.24366742702E-01  0.00000000000E+00 0. -1.
     999901    1    3    3    0    0 -0.69520110022E-01 -0.29385355411E-02 -0.11853037307E+00  0.89066892279E+00  0.88000000000E+00 0. -1.
        -11    1    4    4    0    0  0.28323351469E-01  0.11591169227E-01  0.32836330445E-01  0.44889343508E-01  0.51100000000E-03 0.  1.
         11    1    4    4    0    0  0.33638676698E-01  0.12373913626E-01  0.75973041818E-01  0.84004990998E-01  0.51100000000E-03 0. -1.
</event>
<event>
 8    1  0.1022673E+005  0.1043930E+01  0.7957747E-01            NaN
         13   -1    0    0    0    0  0.00000000000E+00  0.00000000000E+00  0.74505805969E-08  0.10566000000E+00  0.10566000000E+00 0. -1.
     999900   -1    0    0    0    0 -0.00000000000E+00 -0.00000000000E+00 -0.74505805969E-08  0.93827000000E+00  0.93827000000E+00 0. -1.
     999902    2    1    2    0    0  0.23146149207E-01 -0.57005046554E-02  0.19993892171E-03  0.10200913769E+01  0.10198127952E+01 0.  0.
     999903    2    3    3    0    0  0.68032663096E-02 -0.32178260803E-02 -0.12878086842E+00  0.13053570006E+00  0.19960412819E-01 0.  0.
         14    1    1    2    0    0 -0.23146149207E-01  0.57005046554E-02 -0.19993892171E-03  0.23838623115E-01  0.00000000000E+00 0. -1.
     999901    1    3    3    0    0  0.16342882898E-01 -0.24826785751E-02  0.12898080735E+00  0.88955567683E+00  0.88000000000E+00 0.  1.
        -11    1    4    4    0    0 -0.44387189636E-02  0.44312246414E-02 -0.65881689253E-01  0.66181538799E-01  0.51100000000E-03 0.  1.
         11    1    4    4    0    0  0.11241985273E-01 -0.76490507217E-02 -0.62899179171E-01  0.64354161258E-01  0.51100000000E-03 0. -1.
</event>
<event>
 8    1  0.1022673E+005  0.1043930E+01  0.7957747E-01            NaN
         13   -1    0    0    0    0  0.00000000000E+00  0.00000000000E+00  0.74505805969E-08  0.10566000000E+00  0.10566000000E+00 0.  1.
     999900   -1    0    0    0    0 -0.00000000000E+00 -0.00000000000E+00 -0.74505805969E-08  0.93827000000E+00  0.93827000000E+00 0. -1.
     999902    2    1    2    0    0  0.53218492176E-02 -0.80022656822E-02  0.21565992167E-01  0.10203196134E+01  0.10200464025E+01 0.  0.
     999903    2    3    3    0    0 -0.93910144893E-01 -0.45514677282E-01 -0.72564864387E-01  0.12896402344E+00  0.21802720845E-01 0.  0.
         14    1    1    2    0    0 -0.53218492176E-02  0.80022656822E-02 -0.21565992167E-01  0.23610386555E-01  0.00000000000E+00 0. -1.
     999901    1    3    3    0    0  0.99231994110E-01  0.37512411600E-01  0.94130856554E-01  0.89135559001E+00  0.88000000000E+00 0.  1.
        -11    1    4    4    0    0 -0.75935785389E-01 -0.41274592282E-01 -0.67894795725E-01  0.10990814291E+00  0.51100000000E-03 0.  1.
         11    1    4    4    0    0 -0.17974359504E-01 -0.42400850003E-02 -0.46700686618E-02  0.19055880528E-01  0.51100000000E-03 0. -1.
</event>
<event>
 8    1  0.1022673E+005  0.1043930E+01  0.7957747E-01            NaN
         13   -1    0    0    0    0  0.00000000000E+00  0.00000000000E+00  0.74505805969E-08  0.10566000000E+00  0.10566000000E+00 0.  1.
     999900   -1    0    0    0    0 -0.00000000000E+00 -0.00000000000E+00 -0.74505805969E-08  0.93827000000E+00  0.93827000000E+00 0.  1.
     999902    2    1    2    0    0 -0.14183305356E-01  0.18987548007E-01 -0.54582985768E-03  0.10202236494E+01  0.10199481868E+01 0.  0.
     999903    2    3    3    0    0 -0.45689726242E-01 -0.10772785487E+00  0.50123935636E-01  0.12914740514E+00  0.21766982646E-01 0.  0.
         14    1    1    2    0    0  0.14183305356E-01 -0.18987548007E-01  0.54582985768E-03  0.23706350634E-01  0.00000000000E+00 0. -1.
     999901    1    3    3    0    0  0.31506420886E-01  0.12671540287E+00 -0.50669765494E-01  0.89107624422E+00  0.88000000000E+00 0.  1.
        -11    1    4    4    0    0 -0.31148170125E-01 -0.92207862852E-01  0.36842893536E-01  0.10406804696E+00  0.51100000000E-03 0. -1.
         11    1    4    4    0    0 -0.14541556116E-01 -0.15519992015E-01  0.13281042100E-01  0.25079358179E-01  0.51100000000E-03 0.  1.
</event>
<event>
 8    1  0.1022673E+005  0.1043930E+01  0.7957747E-01            NaN
         13   -1    0    0    0    0  0.00000000000E+00  0.00000000000E+00  0.74505805969E-08  0.10566000000E+00  0.10566000000E+00 0.  1.
     999900   -1    0    0    0    0 -0.00000000000E+00 -0.00000000000E+00 -0.74505805969E-08  0.93827000000E+00  0.93827000000E+00 0.  1.
     999902    2    1    2    0    0  0.19668532854E-01 -0.38734691684E-03  0.13267247697E-01  0.10202019347E+01  0.10199259613E+01 0.  0.
     999903    2    3    3    0    0 -0.77240412133E-01 -0.16033759456E-01  0.10195231614E+00  0.13031362978E+00  0.19084146071E-01 0.  0.
         14    1    1    2    0    0 -0.19668532854E-01  0.38734691684E-03 -0.13267247697E-01  0.23728065318E-01  0.00000000000E+00 0. -1.
     999901    1    3    3    0    0  0.96908944987E-01  0.15646412539E-01 -0.88685068439E-01  0.88988830491E+00  0.88000000000E+00 0. -1.
        -11    1    4    4    0    0 -0.48733651795E-01 -0.14373451667E-01  0.77735493133E-01  0.92868901919E-01  0.51100000000E-03 0.  1.
         11    1    4    4    0    0 -0.28506760338E-01 -0.16603077895E-02  0.24216823003E-01  0.37444727857E-01  0.51100000000E-03 0. -1.
</event>
<event>
 8    1  0.1022673E+005  0.1043930E+01  0.7957747E-01            NaN
         13   -1    0    0    0    0  0.00000000000E+00  0.00000000000E+00  0.74505805969E-08  0.10566000000E+00  0.10566000000E+00 0. -1.
     999900   -1    0    0    0    0 -0.00000000000E+00 -0.00000000000E+00 -0.74505805969E-08  0.93827000000E+00  0.93827000000E+00 0. -1.
     999902    2    1    2    0    0  0.94015376624E-02 -0.17449692021E-01 -0.15188549937E-01  0.10189585621E+01  0.10186525308E+01 0.  0.
     999903    2    3    3    0    0 -0.20532819968E-01 -0.44120183592E-01  0.11701071404E+00  0.12818135859E+00  0.19255289980E-01 0.  0.
         14    1    1    2    0    0 -0.94015376624E-02  0.17449692021E-01  0.15188549937E-01  0.24971437909E-01  0.00000000000E+00 0. -1.
     999901    1    3    3    0    0  0.29934357631E-01  0.26670491571E-01 -0.13219926398E+00  0.89077720350E+00  0.88000000000E+00 0. -1.
        -11    1    4    4    0    0 -0.13059284021E-01 -0.42762446034E-01  0.10071327418E+00  0.11019344993E+00  0.51100000000E-03 0.  1.
         11    1    4    4    0    0 -0.74735359467E-02 -0.13577375578E-02  0.16297439857E-01  0.17987908654E-01  0.51100000000E-03 0. -1.
</event>
<event>
 8    1  0.1022673E+005  0.1043930E+01  0.7957747E-01            NaN
         13   -1    0    0    0    0  0.00000000000E+00  0.00000000000E+00  0.74505805969E-08  0.10566000000E+00  0.10566000000E+00 0.  1.
     999900   -1    0    0    0    0 -0.00000000000E+00 -0.00000000000E+00 -0.74505805969E-08  0.93827000000E+00  0.93827000000E+00 0. -1.
     999902    2    1    2    0    0  0.22527206410E-01 -0.44531855495E-02 -0.83459669292E-02  0.10194972135E+01  0.10192043992E+01 0.  0.
     999903    2    3    3    0    0  0.42130625423E-01  0.11253884135E-01 -0.12293301297E+00  0.13171278183E+00  0.18278175825E-01 0.  0.
         14    1    1    2    0    0 -0.22527206410E-01  0.44531855495E-02  0.83459669292E-02  0.24432786459E-01  0.00000000000E+00 0.  1.
     999901    1    3    3    0    0 -0.19603419013E-01 -0.15707069685E-01  0.11458704604E+00  0.88778443172E+00  0.88000000000E+00 0.  1.
        -11    1    4    4    0    0  0.21223345191E-01  0.10709221651E-01 -0.43539118863E-01  0.49608807704E-01  0.51100000000E-03 0. -1.
         11    1    4    4    0    0  0.20907280232E-01  0.54466248454E-03 -0.79393894108E-01  0.82103974122E-01  0.51100000000E-03 0.  1.
</event>
<event>
 8    1  0.1022673E+005  0.1043930E+01  0.7957747E-01            NaN
         13   -1    0    0    0    0  0.00000000000E+00  0.00000000000E+00  0.74505805969E-08  0.10566000000E+00  0.10566000000E+00 0. -1.
     999900   -1    0    0    0    0 -0.00000000000E+00 -0.00000000000E+00 -0.74505805969E-08  0.93827000000E+00  0.93827000000E+00 0.  1.
     999902    2    1    2    0    0  0.21418055799E-01  0.78626666650E-02  0.39040970366E-02  0.10207827191E+01  0.10205202413E+01 0.  0.
     999903    2    3    3    0    0  0.51484752017E-01 -0.86846439079E-01 -0.81324940504E-01  0.13109861233E+00  0.19496577520E-01 0.  0.
         14    1    1    2    0    0 -0.21418055799E-01 -0.78626666650E-02 -0.39040970366E-02  0.23147280941E-01  0.00000000000E+00 0.  1.
     999901    1    3    3    0    0 -0.30066696218E-01  0.94709105744E-01  0.85229037541E-01  0.88968410673E+00  0.88000000000E+00 0.  1.
        -11    1    4    4    0    0  0.36252885436E-01 -0.74386736901E-01 -0.61014715964E-01  0.10281398258E+00  0.51100000000E-03 0. -1.
         11    1    4    4    0    0  0.15231866581E-01 -0.12459702178E-01 -0.20310224540E-01  0.28284629744E-01  0.51100000000E-03 0.  1.
</event>
<event>
 8    1  0.1022673E+005  0.1043930E+01  0.7957747E-01            NaN
         13   -1    0    0    0    0  0.00000000000E+00  0.00000000000E+00  0.74505805969E-08  0.10566000000E+00  0.10566000000E+00 0. -1.
     999900   -1    0    0    0    0 -0.00000000000E+00 -0.00000000000E+00 -0.74505805969E-08  0.93827000000E+00  0.93827000000E+00 0.  1.
     999902    2    1    2    0    0  0.15764673542E-01  0.93244781618E-02 -0.14597645437E-01  0.10205085979E+01  0.10202397935E+01 0.  0.
     999903    2    3    3    0    0  0.17547599157E-01 -0.11617572108E-01 -0.12956136727E+00  0.13278206024E+00  0.20050970411E-01 0.  0.
         14    1    1    2    0    0 -0.15764673542E-01 -0.93244781618E-02  0.14597645437E-01  0.23421402118E-01  0.00000000000E+00 0.  1.
     999901    1    3    3    0    0 -0.17829256150E-02  0.20942050270E-01  0.11496372184E+00  0.88772653764E+00  0.88000000000E+00 0. -1.
        -11    1    4    4    0    0  0.18361222417E-01 -0.15988867325E-01 -0.10250621115E+00  0.10535920848E+00  0.51100000000E-03 0. -1.
         11    1    4    4    0    0 -0.81362325957E-03  0.43712952169E-02 -0.27055156125E-01  0.27422851760E-01  0.51100000000E-03 0.  1.
</event>
<event>
 8    1  0.1022673E+005  0.1043930E+01  0.7957747E-01            NaN
         13   -1    0    0    0    0  0.00000000000E+00  0.00000000000E+00  0.74505805969E-08  0.10566000000E+00  0.10566000000E+00 0.  1.
     999900   -1    0    0    0    0 -0.00000000000E+00 -0.00000000000E+00 -0.74505805969E-08  0.93827000000E+00  0.93827000000E+00 0.  1.
     999902    2    1    2    0    0  0.18899457355E-01 -0.86341724326E-02  0.10580569306E-01  0.10206129061E+01  0.10203465182E+01 0.  0.
     999903    2    3    3    0    0  0.57194387714E-01 -0.98258427982E-01  0.66854946848E-01  0.13344560820E+00  0.20303442395E-01 0.  0.
         14    1    1    2    0    0 -0.18899457355E-01  0.86341724326E-02 -0.10580569306E-01  0.23317093917E-01  0.00000000000E+00 0.  1.
     999901    1    3    3    0    0 -0.38294930360E-01  0.89624255549E-01 -0.56274377542E-01  0.88716729789E+00  0.88000000000E+00 0.  1.
        -11    1    4    4    0    0  0.20740300049E-01 -0.41410650952E-01  0.38387357359E-01  0.60156898062E-01  0.51100000000E-03 0. -1.
         11    1    4    4    0    0  0.36454087665E-01 -0.56847777029E-01  0.28467589489E-01  0.73288710133E-01  0.51100000000E-03 0.  1.
</event>
<event>
 8    1  0.1022673E+005  0.1043930E+01  0.7957747E-01            NaN
         13   -1    0    0    0    0  0.00000000000E+00  0.00000000000E+00  0.74505805969E-08  0.10566000000E+00  0.10566000000E+00 0.  1.
     999900   -1    0    0    0    0 -0.00000000000E+00 -0.00000000000E+00 -0.74505805969E-08  0.93827000000E+00  0.93827000000E+00 0. -1.
     999902    2    1    2    0    0  0.41156630292E-02 -0.22109947811E-01  0.75023520637E-02  0.10202219052E+01  0.10199464015E+01 0.  0.
     999903    2    3    3    0    0 -0.88115811851E-01 -0.53588906340E-02 -0.91160568014E-01  0.12976044352E+00  0.27099991410E-01 0.  0.
         14    1    1    2    0    0 -0.41156630292E-02  0.22109947811E-01 -0.75023520637E-02  0.23708094838E-01  0.00000000000E+00 0. -1.
     999901    1    3    3    0    0  0.92231474880E-01 -0.16751057177E-01  0.98662920077E-01  0.89046146164E+00  0.88000000000E+00 0.  1.
        -11    1    4    4    0    0 -0.54823591133E-01 -0.12129306461E-01 -0.69975660885E-01  0.89719565632E-01  0.51100000000E-03 0.  1.
         11    1    4    4    0    0 -0.33292220718E-01  0.67704158272E-02 -0.21184907129E-01  0.40040877886E-01  0.51100000000E-03 0. -1.
</event>
<event>
 8    1  0.1022673E+005  0.1043930E+01  0.7957747E-01            NaN
         13   -1    0    0    0    0  0.00000000000E+00  0.00000000000E+00  0.74505805969E-08  0.10566000000E+00  0.10566000000E+00 0.  1.
     999900   -1    0    0    0    0 -0.00000000000E+00 -0.00000000000E+00 -0.74505805969E-08  0.93827000000E+00  0.93827000000E+00 0.  1.
     999902    2    1    2    0    0  0.17877304929E-02  0.18606706713E-01  0.14891394762E-01  0.10200310638E+01  0.10197510539E+01 0.  0.
     999903    2    3    3    0    0 -0.96051905233E-01  0.73188814777E-01  0.49617691098E-01  0.13224859239E+00  0.21099853331E-01 0.  0.
         14    1    1    2    0    0 -0.17877304929E-02 -0.18606706713E-01 -0.14891394762E-01  0.23898936231E-01  0.00000000000E+00 0. -1.
     999901    1    3    3    0    0  0.97839635726E-01 -0.54582108065E-01 -0.34726296336E-01  0.88778247138E+00  0.88000000000E+00 0.  1.
        -11    1    4    4    0    0 -0.50571680873E-01  0.37236777897E-01  0.14466974938E-01  0.64448638616E-01  0.51100000000E-03 0. -1.
         11    1    4    4    0    0 -0.45480224360E-01  0.35952036880E-01  0.35150716160E-01  0.67799953770E-01  0.51100000000E-03 0.  1.
</event>
<event>
 8    1  0.1022673E+005  0.1043930E+01  0.7957747E-01            NaN
         13   -1    0    0    0    0  0.00000000000E+00  0.00000000000E+00  0.74505805969E-08  0.10566000000E+00  0.10566000000E+00 0.  1.
     999900   -1    0    0    0    0 -0.00000000000E+00 -0.00000000000E+00 -0.74505805969E-08  0.93827000000E+00  0.93827000000E+00 0. -1.
     999902    2    1    2    0    0 -0.23166855832E-01  0.16915521293E-02 -0.51709096554E-02  0.10201328812E+01  0.10198552801E+01 0.  0.
     999903    2    3    3    0    0 -0.51482876172E-02 -0.92457894587E-01  0.88680418152E-01  0.12996612216E+00  0.21260508213E-01 0.  0.
         14    1    1    2    0    0  0.23166855832E-01 -0.16915521293E-02  0.51709096554E-02  0.23797118826E-01  0.00000000000E+00 0.  1.
     999901    1    3    3    0    0 -0.18018568215E-01  0.94149446717E-01 -0.93851327807E-01  0.89016675901E+00  0.88000000000E+00 0. -1.
        -11    1    4    4    0    0  0.21066989561E-02 -0.60412298603E-02  0.74485201633E-03  0.64614676539E-02  0.51100000000E-03 0. -1.
         11    1    4    4    0    0 -0.72549865733E-02 -0.86416664727E-01  0.87935566136E-01  0.12350465451E+00  0.51100000000E-03 0.  1.
</event>
<event>
 8    1  0.1022673E+005  0.1043930E+01  0.7957747E-01            NaN
         13   -1    0    0    0    0  0.00000000000E+00  0.00000000000E+00  0.74505805969E-08  0.10566000000E+00  0.10566000000E+00 0. -1.
     999900   -1    0    0    0    0 -0.00000000000E+00 -0.00000000000E+00 -0.74505805969E-08  0.93827000000E+00  0.93827000000E+00 0.  1.
     999902    2    1    2    0    0  0.16821786064E-01  0.11292720135E-01 -0.11461291824E-01  0.10206521302E+01  0.10203866481E+01 0.  0.
     999903    2    3    3    0    0 -0.10844308370E+00  0.65641029805E-01 -0.21659600944E-01  0.13006298140E+00  0.19457482435E-01 0.  0.
         14    1    1    2    0    0 -0.16821786064E-01 -0.11292720135E-01  0.11461291824E-01  0.23277869849E-01  0.00000000000E+00 0. -1.
     999901    1    3    3    0    0  0.12526486976E+00 -0.54348309670E-01  0.10198309120E-01  0.89058914875E+00  0.88000000000E+00 0.  1.
        -11    1    4    4    0    0 -0.31240258890E-01  0.16506242513E-01  0.24662485771E-02  0.35422497378E-01  0.51100000000E-03 0.  1.
         11    1    4    4    0    0 -0.77202824806E-01  0.49134787292E-01 -0.24125849521E-01  0.94640484024E-01  0.51100000000E-03 0. -1.
</event>
<event>
 8    1  0.1022673E+005  0.1043930E+01  0.7957747E-01            NaN
         13   -1    0    0    0    0  0.00000000000E+00  0.00000000000E+00  0.74505805969E-08  0.10566000000E+00  0.10566000000E+00 0.  1.
     999900   -1    0    0    0    0 -0.00000000000E+00 -0.00000000000E+00 -0.74505805969E-08  0.93827000000E+00  0.93827000000E+00 0.  1.
     999902    2    1    2    0    0  0.66297394743E-02 -0.34894800488E-02 -0.27074325349E-01  0.10158382039E+01  0.10154497070E+01 0.  0.
     999903    2    3    3    0    0 -0.11502263812E+00  0.11275912890E-01  0.42299821199E-01  0.12464232753E+00  0.19725147554E-01 0.  0.
         14    1    1    2    0    0 -0.66297394743E-02  0.34894800488E-02  0.27074325349E-01  0.28091796126E-01  0.00000000000E+00 0.  1.
     999901    1    3    3    0    0  0.12165237760E+00 -0.14765392939E-01 -0.69374146548E-01  0.89119587634E+00  0.88000000000E+00 0.  1.
        -11    1    4    4    0    0 -0.14947087205E-01 -0.37280324996E-02  0.13392745768E-02  0.15471535788E-01  0.51100000000E-03 0.  1.
         11    1    4    4    0    0 -0.10007555092E+00  0.15003945390E-01  0.40960546623E-01  0.10917079174E+00  0.51100000000E-03 0. -1.
</event>
<event>
 8    1  0.1022673E+005  0.1043930E+01  0.7957747E-01            NaN
         13   -1    0    0    0    0  0.00000000000E+00  0.00000000000E+00  0.74505805969E-08  0.10566000000E+00  0.10566000000E+00 0.  1.
     999900   -1    0    0    0    0 -0.00000000000E+00 -0.00000000000E+00 -0.74505805969E-08  0.93827000000E+00  0.93827000000E+00 0. -1.
     999902    2    1    2    0    0 -0.15772717717E-01  0.37750244987E-02 -0.16941605427E-01  0.10204769100E+01  0.10202073694E+01 0.  0.
     999903    2    3    3    0    0  0.31561241934E-02  0.46656625377E-01 -0.12266203779E+00  0.13291060684E+00  0.20795482312E-01 0.  0.
         14    1    1    2    0    0  0.15772717717E-01 -0.37750244987E-02  0.16941605427E-01  0.23453089959E-01  0.00000000000E+00 0.  1.
     999901    1    3    3    0    0 -0.18928841911E-01 -0.42881600878E-01  0.10572043237E+00  0.88756630320E+00  0.88000000000E+00 0.  1.
        -11    1    4    4    0    0  0.62579970125E-02  0.47051888986E-01 -0.10903147902E+00  0.11891664023E+00  0.51100000000E-03 0. -1.
         11    1    4    4    0    0 -0.31018728191E-02 -0.39526360954E-03 -0.13630558769E-01  0.13993966617E-01  0.51100000000E-03 0.  1.
</event>
<event>
 8    1  0.1022673E+005  0.1043930E+01  0.7957747E-01            NaN
         13   -1    0    0    0    0  0.00000000000E+00  0.00000000000E+00  0.74505805969E-08  0.10566000000E+00  0.10566000000E+00 0.  1.
     999900   -1    0    0    0    0 -0.00000000000E+00 -0.00000000000E+00 -0.74505805969E-08  0.93827000000E+00  0.93827000000E+00 0.  1.
     999902    2    1    2    0    0 -0.20620569347E-01 -0.52923412274E-02 -0.10314449238E-01  0.10202740363E+01  0.10199997571E+01 0.  0.
     999903    2    3    3    0    0 -0.53784403054E-01 -0.78883377379E-01  0.87627856063E-01  0.13116876939E+00  0.20279439490E-01 0.  0.
         14    1    1    2    0    0  0.20620569347E-01  0.52923412274E-02  0.10314449238E-01  0.23655963708E-01  0.00000000000E+00 0.  1.
     999901    1    3    3    0    0  0.33163833707E-01  0.73591036152E-01 -0.97942305302E-01  0.88910526690E+00  0.88000000000E+00 0.  1.
        -11    1    4    4    0    0 -0.18492282348E-01 -0.43834960028E-01  0.37843653632E-01  0.60793679510E-01  0.51100000000E-03 0. -1.
         11    1    4    4    0    0 -0.35292120706E-01 -0.35048417351E-01  0.49784202432E-01  0.70375089879E-01  0.51100000000E-03 0.  1.
</event>
<event>
 8    1  0.1022673E+005  0.1043930E+01  0.7957747E-01            NaN
         13   -1    0    0    0    0  0.00000000000E+00  0.00000000000E+00  0.74505805969E-08  0.10566000000E+00  0.10566000000E+00 0.  1.
     999900   -1    0    0    0    0 -0.00000000000E+00 -0.00000000000E+00 -0.74505805969E-08  0.93827000000E+00  0.93827000000E+00 0.  1.
     999902    2    1    2    0    0  0.89466573625E-03  0.22370255660E-01 -0.40719991535E-02  0.10211745624E+01  0.10209209944E+01 0.  0.
     999903    2    3    3    0    0 -0.13302543709E-01 -0.19976352478E-01 -0.12773133237E+00  0.13140693727E+00  0.19403029807E-01 0.  0.
         14    1    1    2    0    0 -0.89466573625E-03 -0.22370255660E-01  0.40719991535E-02  0.22755437639E-01  0.00000000000E+00 0.  1.
     999901    1    3    3    0    0  0.14197209446E-01  0.42346608138E-01  0.12365933321E+00  0.88976762510E+00  0.88000000000E+00 0. -1.
        -11    1    4    4    0    0  0.80011489265E-03 -0.14665799301E-01 -0.80393411574E-01  0.81725685060E-01  0.51100000000E-03 0. -1.
         11    1    4    4    0    0 -0.14102658602E-01 -0.53105531776E-02 -0.47337920793E-01  0.49681252205E-01  0.51100000000E-03 0.  1.
</event>
<event>
 8    1  0.1022673E+005  0.1043930E+01  0.7957747E-01            NaN
         13   -1    0    0    0    0  0.00000000000E+00  0.00000000000E+00  0.74505805969E-08  0.10566000000E+00  0.10566000000E+00 0. -1.
     999900   -1    0    0    0    0 -0.00000000000E+00 -0.00000000000E+00 -0.74505805969E-08  0.93827000000E+00  0.93827000000E+00 0. -1.
     999902    2    1    2    0    0  0.69424116409E-02 -0.11327559043E-01  0.19497397889E-01  0.10203363738E+01  0.10200635551E+01 0.  0.
     999903    2    3    3    0    0 -0.76740167043E-01 -0.10312716375E+00 -0.14418246897E-01  0.13096569046E+00  0.20490512291E-01 0.  0.
         14    1    1    2    0    0 -0.69424116409E-02  0.11327559043E-01 -0.19497397889E-01  0.23593626210E-01  0.00000000000E+00 0. -1.
     999901    1    3    3    0    0  0.83682578684E-01  0.91799604708E-01  0.33915644787E-01  0.88937068333E+00  0.88000000000E+00 0.  1.
        -11    1    4    4    0    0 -0.69523048332E-01 -0.82421833705E-01 -0.80604989262E-02  0.10812976318E+00  0.51100000000E-03 0.  1.
         11    1    4    4    0    0 -0.72171187107E-02 -0.20705330045E-01 -0.63577479713E-02  0.22835927287E-01  0.51100000000E-03 0. -1.
</event>
<event>
 8    1  0.1022673E+005  0.1043930E+01  0.7957747E-01            NaN
         13   -1    0    0    0    0  0.00000000000E+00  0.00000000000E+00  0.74505805969E-08  0.10566000000E+00  0.10566000000E+00 0.  1.
     999900   -1    0    0    0    0 -0.00000000000E+00 -0.00000000000E+00 -0.74505805969E-08  0.93827000000E+00  0.93827000000E+00 0. -1.
     999902    2    1    2    0    0 -0.50797882360E-02  0.18320454615E-01 -0.15454586361E-01  0.10194292338E+01  0.10191347679E+01 0.  0.
     999903    2    3    3    0    0 -0.46305052743E-01 -0.11577624528E+00  0.19525320843E-01  0.12763046653E+00  0.18973691043E-01 0.  0.
         14    1    1    2    0    0  0.50797882360E-02 -0.18320454615E-01  0.15454586361E-01  0.24500766221E-01  0.00000000000E+00 0.  1.
     999901    1    3    3    0    0  0.41225264507E-01  0.13409669990E+00 -0.34979907204E-01  0.89179876725E+00  0.88000000000E+00 0. -1.
        -11    1    4    4    0    0 -0.66837313392E-02 -0.39877540836E-01  0.82725130751E-02  0.41274521455E-01  0.51100000000E-03 0. -1.
         11    1    4    4    0    0 -0.39621321404E-01 -0.75898704446E-01  0.11252807768E-01  0.86355945076E-01  0.51100000000E-03 0.  1.
</event>
<event>
 8    1  0.1037696E+005  0.1043930E+01  0.7957747E-01            NaN
         13   -1    0    0    0    0  0.00000000000E+00  0.00000000000E+00  0.74505805969E-08  0.10566000000E+00  0.10566000000E+00 0.  1.
     999900   -1    0    0    0    0 -0.00000000000E+00 -0.00000000000E+00 -0.74505805969E-08  0.93827000000E+00  0.93827000000E+00 0.  1.
     999902    2    1    2    0    0 -0.15756752272E-01  0.10596317695E-01 -0.12520073197E-01  0.10211855628E+01  0.10209322427E+01 0.  0.
     999903    2    3    3    0    0 -0.31618822323E-01 -0.11113623267E+00  0.56103110353E-01  0.13001803623E+00  0.20152384914E-01 0.  0.
         14    1    1    2    0    0  0.15756752272E-01 -0.10596317695E-01  0.12520073197E-01  0.22744437204E-01  0.00000000000E+00 0. -1.
     999901    1    3    3    0    0  0.15862070051E-01  0.12173255036E+00 -0.68623183550E-01  0.89116752657E+00  0.88000000000E+00 0.  1.
        -11    1    4    4    0    0 -0.24480246572E-01 -0.59284945363E-01  0.38421426528E-01  0.74769341019E-01  0.51100000000E-03 0.  1.
         11    1    4    4    0    0 -0.71385757507E-02 -0.51851287304E-01  0.17681683825E-01  0.55248695212E-01  0.51100000000E-03 0. -1.
</event>
<event>
 8    1  0.1022673E+005  0.1043930E+01  0.7957747E-01            NaN
         13   -1    0    0    0    0  0.00000000000E+00  0.00000000000E+00  0.74505805969E-08  0.10566000000E+00  0.10566000000E+00 0. -1.
     999900   -1    0    0    0    0 -0.00000000000E+00 -0.00000000000E+00 -0.74505805969E-08  0.93827000000E+00  0.93827000000E+00 0. -1.
     999902    2    1    2    0    0  0.14230331914E-01 -0.18198617455E-01 -0.11454180149E-02  0.10207998464E+01  0.10205377614E+01 0.  0.
     999903    2    3    3    0    0 -0.83208853878E-01 -0.20738221501E-01  0.96048813047E-01  0.13009924402E+00  0.18618582408E-01 0.  0.
         14    1    1    2    0    0 -0.14230331914E-01  0.18198617455E-01  0.11454180149E-02  0.23130153611E-01  0.00000000000E+00 0. -1.
     999901    1    3    3    0    0  0.97439185792E-01  0.25396040455E-02 -0.97194231062E-01  0.89070060237E+00  0.88000000000E+00 0. -1.
        -11    1    4    4    0    0 -0.33477998686E-01 -0.50598767376E-02  0.50837359144E-01  0.61082542141E-01  0.51100000000E-03 0.  1.
         11    1    4    4    0    0 -0.49730855191E-01 -0.15678344763E-01  0.45211453903E-01  0.69016701874E-01  0.51100000000E-03 0. -1.
</event>
<event>
 8    1  0.1022673E+005  0.1043930E+01  0.7957747E-01            NaN
         13   -1    0    0    0    0  0.00000000000E+00  0.00000000000E+00  0.74505805969E-08  0.10566000000E+00  0.10566000000E+00 0. -1.
     999900   -1    0    0    0    0 -0.00000000000E+00 -0.00000000000E+00 -0.74505805969E-08  0.93827000000E+00  0.93827000000E+00 0. -1.
     999902    2    1    2    0    0  0.11639372325E-01  0.19208039134E-01  0.28311572674E-02  0.10212928799E+01  0.10210419714E+01 0.  0.
     999903    2    3    3    0    0 -0.91931788740E-02 -0.24267236796E-01 -0.12639021010E+00  0.13055034885E+00  0.19887057529E-01 0.  0.
         14    1    1    2    0    0 -0.11639372325E-01 -0.19208039134E-01 -0.28311572674E-02  0.22637120112E-01  0.00000000000E+00 0.  1.
     999901    1    3    3    0    0  0.20832551199E-01  0.43475275930E-01  0.12922136737E+00  0.89074253103E+00  0.88000000000E+00 0.  1.
        -11    1    4    4    0    0  0.45647851983E-02 -0.17537867111E-02 -0.37642991242E-01  0.37962730965E-01  0.51100000000E-03 0.  1.
         11    1    4    4    0    0 -0.13757964072E-01 -0.22513450085E-01 -0.88747218860E-01  0.92587617890E-01  0.51100000000E-03 0. -1.
</event>
<event>
 8    1  0.1022673E+005  0.1043930E+01  0.7957747E-01            NaN
         13   -1    0    0    0    0  0.00000000000E+00  0.00000000000E+00  0.74505805969E-08  0.10566000000E+00  0.10566000000E+00 0.  1.
     999900   -1    0    0    0    0 -0.00000000000E+00 -0.00000000000E+00 -0.74505805969E-08  0.93827000000E+00  0.93827000000E+00 0. -1.
     999902    2    1    2    0    0  0.37912978666E-02  0.68194101314E-03  0.22796086380E-01  0.10208107323E+01  0.10205488968E+01 0.  0.
     999903    2    3    3    0    0 -0.32421933667E-01  0.10248165243E+00 -0.69239423826E-01  0.12943813094E+00  0.20160879497E-01 0.  0.
         14    1    1    2    0    0 -0.37912978666E-02 -0.68194101314E-03 -0.22796086380E-01  0.23119267663E-01  0.00000000000E+00 0. -1.
     999901    1    3    3    0    0  0.36213231534E-01 -0.10179971142E+00  0.92035510206E-01  0.89137260140E+00  0.88000000000E+00 0.  1.
        -11    1    4    4    0    0 -0.19719061509E-01  0.39206511165E-01 -0.36425205514E-01  0.57035503174E-01  0.51100000000E-03 0.  1.
         11    1    4    4    0    0 -0.12702872159E-01  0.63275141263E-01 -0.32814218313E-01  0.72402627766E-01  0.51100000000E-03 0. -1.
</event>
<event>
 8    1  0.1022673E+005  0.1043930E+01  0.7957747E-01            NaN
         13   -1    0    0    0    0  0.00000000000E+00  0.00000000000E+00  0.74505805969E-08  0.10566000000E+00  0.10566000000E+00 0. -1.
     999900   -1    0    0    0    0 -0.00000000000E+00 -0.00000000000E+00 -0.74505805969E-08  0.93827000000E+00  0.93827000000E+00 0.  1.
     999902    2    1    2    0    0  0.82444626534E-02  0.11294262598E-01 -0.19034513129E-01  0.10203112739E+01  0.10200378677E+01 0.  0.
     999903    2    3    3    0    0  0.10585575733E+00  0.46585464497E-01  0.57924731107E-01  0.13087540829E+00  0.19936177112E-01 0.  0.
         14    1    1    2    0    0 -0.82444626534E-02 -0.11294262598E-01  0.19034513129E-01  0.23618726090E-01  0.00000000000E+00 0. -1.
     999901    1    3    3    0    0 -0.97611294680E-01 -0.35291201899E-01 -0.76959244236E-01  0.88943586562E+00  0.88000000000E+00 0.  1.
        -11    1    4    4    0    0  0.17325457298E-01  0.16016428664E-01  0.13832904759E-01  0.27355215824E-01  0.51100000000E-03 0. -1.
         11    1    4    4    0    0  0.88530300035E-01  0.30569035833E-01  0.44091826348E-01  0.10352019246E+00  0.51100000000E-03 0.  1.
</event>
<event>
 8    1  0.1187532E+005  0.1043930E+01  0.7957747E-01            NaN
         13   -1    0    0    0    0  0.00000000000E+00  0.00000000000E+00  0.74505805969E-08  0.10566000000E+00  0.10566000000E+00 0. -1.
     999900   -1    0    0    0    0 -0.00000000000E+00 -0.00000000000E+00 -0.74505805969E-08  0.93827000000E+00  0.93827000000E+00 0. -1.
     999902    2    1    2    0    0 -0.83076613957E-02  0.53770894933E-02 -0.27633186680E-01  0.10145782822E+01  0.10141536212E+01 0.  0.
     999903    2    3    3    0    0 -0.80444434329E-01  0.35494647766E-01 -0.92080865449E-01  0.12876550032E+00  0.19248149393E-01 0.  0.
         14    1    1    2    0    0  0.83076613957E-02 -0.53770894933E-02  0.27633186680E-01  0.29351717758E-01  0.00000000000E+00 0. -1.
     999901    1    3    3    0    0  0.72136772933E-01 -0.30117558273E-01  0.64447678769E-01  0.88581278193E+00  0.88000000000E+00 0.  1.
        -11    1    4    4    0    0 -0.50272422691E-01  0.13623340800E-01 -0.45934124773E-01  0.69448663323E-01  0.51100000000E-03 0. -1.
         11    1    4    4    0    0 -0.30172011638E-01  0.21871306966E-01 -0.46146740677E-01  0.59316836992E-01  0.51100000000E-03 0.  1.
</event>
<event>
 8    1  0.1022673E+005  0.1043930E+01  0.7957747E-01            NaN
         13   -1    0    0    0    0  0.00000000000E+00  0.00000000000E+00  0.74505805969E-08  0.10566000000E+00  0.10566000000E+00 0.  1.
     999900   -1    0    0    0    0 -0.00000000000E+00 -0.00000000000E+00 -0.74505805969E-08  0.93827000000E+00  0.93827000000E+00 0. -1.
     999902    2    1    2    0    0  0.38297066091E-02 -0.77639745037E-03  0.23058614841E-01  0.10205426281E+01  0.10202746133E+01 0.  0.
     999903    2    3    3    0    0  0.14301719611E-01 -0.86972667905E-01  0.96304676816E-01  0.13324084985E+00  0.26641117593E-01 0.  0.
         14    1    1    2    0    0 -0.38297066091E-02  0.77639745037E-03 -0.23058614841E-01  0.23387371894E-01  0.00000000000E+00 0. -1.
     999901    1    3    3    0    0 -0.10472013002E-01  0.86196270455E-01 -0.73246061975E-01  0.88730177825E+00  0.88000000000E+00 0. -1.
        -11    1    4    4    0    0  0.10400259052E-01 -0.14610463265E-01  0.30327134126E-01  0.35236730985E-01  0.51100000000E-03 0.  1.
         11    1    4    4    0    0  0.39014605592E-02 -0.72362204640E-01  0.65977542689E-01  0.98004118868E-01  0.51100000000E-03 0. -1.
</event>
<event>
 8    1  0.1022673E+005  0.1043930E+01  0.7957747E-01            NaN
         13   -1    0    0    0    0  0.00000000000E+00  0.00000000000E+00  0.74505805969E-08  0.10566000000E+00  0.10566000000E+00 0. -1.
     999900   -1    0    0    0    0 -0.00000000000E+00 -0.00000000000E+00 -0.74505805969E-08  0.93827000000E+00  0.93827000000E+00 0. -1.
     999902    2    1    2    0    0 -0.15841905307E-01  0.27498356122E-02  0.17306040079E-01  0.10203074137E+01  0.10200339170E+01 0.  0.
     999903    2    3    3    0    0 -0.11635164587E+00  0.24173502214E-01 -0.52759060662E-01  0.13156093705E+00  0.20067335915E-01 0.  0.
         14    1    1    2    0    0  0.15841905307E-01 -0.27498356122E-02 -0.17306040079E-01  0.23622586286E-01  0.00000000000E+00 0.  1.
     999901    1    3    3    0    0  0.10050974056E+00 -0.21423666602E-01  0.70065100741E-01  0.88874647666E+00  0.88000000000E+00 0.  1.
        -11    1    4    4    0    0 -0.10678095709E+00  0.18647471537E-01 -0.52624377207E-01  0.12049683477E+00  0.51100000000E-03 0.  1.
         11    1    4    4    0    0 -0.95706887771E-02  0.55260306770E-02 -0.13468345570E-03  0.11064102284E-01  0.51100000000E-03 0. -1.
</event>
<event>
 8    1  0.1022673E+005  0.1043930E+01  0.7957747E-01            NaN
         13   -1    0    0    0    0  0.00000000000E+00  0.00000000000E+00  0.74505805969E-08  0.10566000000E+00  0.10566000000E+00 0. -1.
     999900   -1    0    0    0    0 -0.00000000000E+00 -0.00000000000E+00 -0.74505805969E-08  0.93827000000E+00  0.93827000000E+00 0.  1.
     999902    2    1    2    0    0 -0.10380941086E-01 -0.68794196506E-02 -0.20391268920E-01  0.10200366076E+01  0.10197567291E+01 0.  0.
     999903    2    3    3    0    0  0.48639798390E-01  0.11784575039E+00 -0.68320664288E-02  0.12918102575E+00  0.19687798495E-01 0.  0.
         14    1    1    2    0    0  0.10380941086E-01  0.68794196506E-02  0.20391268920E-01  0.23893392407E-01  0.00000000000E+00 0. -1.
     999901    1    3    3    0    0 -0.59020739476E-01 -0.12472517004E+00 -0.13559202491E-01  0.89085558184E+00  0.88000000000E+00 0. -1.
        -11    1    4    4    0    0  0.24409647157E-01  0.38721964917E-01 -0.77265665148E-02  0.46423942018E-01  0.51100000000E-03 0. -1.
         11    1    4    4    0    0  0.24230151232E-01  0.79123785473E-01  0.89450008604E-03  0.82757083731E-01  0.51100000000E-03 0.  1.
</event>
<event>
 8    1  0.1022673E+005  0.1043930E+01  0.7957747E-01            NaN
         13   -1    0    0    0    0  0.00000000000E+00  0.00000000000E+00  0.74505805969E-08  0.10566000000E+00  0.10566000000E+00 0. -1.
     999900   -1    0    0    0    0 -0.00000000000E+00 -0.00000000000E+00 -0.74505805969E-08  0.93827000000E+00  0.93827000000E+00 0. -1.
     999902    2    1    2    0    0 -0.19328335623E-01 -0.12510927492E-01  0.26341251158E-02  0.10207557367E+01  0.10204926396E+01 0.  0.
     999903    2    3    3    0    0 -0.11699501641E+00 -0.36740198632E-01  0.49675374928E-01  0.13377280715E+00  0.19744492892E-01 0.  0.
         14    1    1    2    0    0  0.19328335623E-01  0.12510927492E-01 -0.26341251158E-02  0.23174263306E-01  0.00000000000E+00 0. -1.
     999901    1    3    3    0    0  0.97666680783E-01  0.24229271140E-01 -0.47041249812E-01  0.88698292954E+00  0.88000000000E+00 0. -1.
        -11    1    4    4    0    0 -0.70632393152E-01 -0.23041897487E-01  0.19616300569E-01  0.76843505719E-01  0.51100000000E-03 0. -1.
         11    1    4    4    0    0 -0.46362623255E-01 -0.13698301146E-01  0.30059074359E-01  0.56929301433E-01  0.51100000000E-03 0.  1.
</event>
<event>
 8    1  0.1022673E+005  0.1043930E+01  0.7957747E-01            NaN
         13   -1    0    0    0    0  0.00000000000E+00  0.00000000000E+00  0.74505805969E-08  0.10566000000E+00  0.10566000000E+00 0. -1.
     999900   -1    0    0    0    0 -0.00000000000E+00 -0.00000000000E+00 -0.74505805969E-08  0.93827000000E+00  0.93827000000E+00 0. -1.
     999902    2    1    2    0    0 -0.22848081729E-01  0.10239348754E-02  0.16327123722E-01  0.10158291415E+01  0.10154403904E+01 0.  0.
     999903    2    3    3    0    0  0.33522257111E-01 -0.83396608016E-01  0.87617793784E-01  0.12712964062E+00  0.20157673143E-01 0.  0.
         14    1    1    2    0    0  0.22848081729E-01 -0.10239348754E-02 -0.16327123722E-01  0.28100858534E-01  0.00000000000E+00 0.  1.
     999901    1    3    3    0    0 -0.56370338840E-01  0.84420542891E-01 -0.71290670063E-01  0.88869950084E+00  0.88000000000E+00 0. -1.
        -11    1    4    4    0    0  0.11446979655E-01 -0.51185287011E-01  0.57359604633E-01  0.77726136623E-01  0.51100000000E-03 0.  1.
         11    1    4    4    0    0  0.22075277456E-01 -0.32211321004E-01  0.30258189151E-01  0.49403503998E-01  0.51100000000E-03 0. -1.
</event>
<event>
 8    1  0.1022673E+005  0.1043930E+01  0.7957747E-01            NaN
         13   -1    0    0    0    0  0.00000000000E+00  0.00000000000E+00  0.74505805969E-08  0.10566000000E+00  0.10566000000E+00 0.  1.
     999900   -1    0    0    0    0 -0.00000000000E+00 -0.00000000000E+00 -0.74505805969E-08  0.93827000000E+00  0.93827000000E+00 0.  1.
     999902    2    1    2    0    0 -0.16330092125E-01  0.16523669135E-01 -0.26290899661E-02  0.10205501868E+01  0.10202823473E+01 0.  0.
     999903    2    3    3    0    0 -0.11868800556E+00 -0.34289349259E-01  0.42009168669E-01  0.13203925305E+00  0.20174041689E-01 0.  0.
         14    1    1    2    0    0  0.16330092125E-01 -0.16523669135E-01  0.26290899661E-02  0.23379813184E-01  0.00000000000E+00 0.  1.
     999901    1    3    3    0    0  0.10235791344E+00  0.50813018394E-01 -0.44638258635E-01  0.88851093376E+00  0.88000000000E+00 0.  1.
        -11    1    4    4    0    0 -0.32598685387E-01 -0.22799245561E-02  0.52204865276E-02  0.33096630426E-01  0.51100000000E-03 0. -1.
         11    1    4    4    0    0 -0.86089320174E-01 -0.32009424703E-01  0.36788682141E-01  0.98942622628E-01  0.51100000000E-03 0.  1.
</event>
<event>
 8    1  0.1022673E+005  0.1043930E+01  0.7957747E-01            NaN
         13   -1    0    0    0    0  0.00000000000E+00  0.00000000000E+00  0.74505805969E-08  0.10566000000E+00  0.10566000000E+00 0. -1.
     999900   -1    0    0    0    0 -0.00000000000E+00 -0.00000000000E+00 -0.74505805969E-08  0.93827000000E+00  0.93827000000E+00 0.  1.
     999902    2    1    2    0    0  0.14259132898E-01  0.46597811019E-02  0.17622653574E-01  0.10207870886E+01  0.10205247110E+01 0.  0.
     999903    2    3    3    0    0 -0.63754148353E-01 -0.99011576206E-01 -0.48256656316E-01  0.12883759120E+00  0.20063309080E-01 0.  0.
         14    1    1    2    0    0 -0.14259132898E-01 -0.46597811019E-02 -0.17622653574E-01  0.23142911440E-01  0.00000000000E+00 0.  1.
     999901    1    3    3    0    0  0.78013281251E-01  0.10367135731E+00  0.65879309890E-01  0.89194949736E+00  0.88000000000E+00 0. -1.
        -11    1    4    4    0    0 -0.55179306253E-01 -0.83888514719E-01 -0.32978421745E-01  0.10568763486E+00  0.51100000000E-03 0.  1.
         11    1    4    4    0    0 -0.85748421004E-02 -0.15123061487E-01 -0.15278234571E-01  0.23149956336E-01  0.51100000000E-03 0. -1.
</event>
<event>
 8    1  0.1022673E+005  0.1043930E+01  0.7957747E-01            NaN
         13   -1    0    0    0    0  0.00000000000E+00  0.00000000000E+00  0.74505805969E-08  0.10566000000E+00  0.10566000000E+00 0.  1.
     999900   -1    0    0    0    0 -0.00000000000E+00 -0.00000000000E+00 -0.74505805969E-08  0.93827000000E+00  0.93827000000E+00 0.  1.
     999902    2    1    2    0    0  0.14550875111E-01 -0.74137314232E-03  0.19288021371E-01  0.10197575907E+01  0.10194710582E+01 0.  0.
     999903    2    3    3    0    0 -0.54307483516E-01 -0.10385882356E+00  0.53203297537E-01  0.13041798852E+00  0.21030997671E-01 0.  0.
         14    1    1    2    0    0 -0.14550875111E-01  0.74137314232E-03 -0.19288021371E-01  0.24172409252E-01  0.00000000000E+00 0. -1.
     999901    1    3    3    0    0  0.68858358626E-01  0.10311745042E+00 -0.33915276166E-01  0.88933960223E+00  0.88000000000E+00 0.  1.
        -11    1    4    4    0    0 -0.35606637500E-01 -0.82185059048E-01  0.33343375602E-01  0.95573314175E-01  0.51100000000E-03 0.  1.
         11    1    4    4    0    0 -0.18700846015E-01 -0.21673764515E-01  0.19859921936E-01  0.34844674345E-01  0.51100000000E-03 0. -1.
</event>
<event>
 8    1  0.1022673E+005  0.1043930E+01  0.7957747E-01            NaN
         13   -1    0    0    0    0  0.00000000000E+00  0.00000000000E+00  0.74505805969E-08  0.10566000000E+00  0.10566000000E+00 0. -1.
     999900   -1    0    0    0    0 -0.00000000000E+00 -0.00000000000E+00 -0.74505805969E-08  0.93827000000E+00  0.93827000000E+00 0.  1.
     999902    2    1    2    0    0  0.18906974019E-01  0.11020271849E-01  0.98579615773E-02  0.10199279279E+01  0.10196454671E+01 0.  0.
     999903    2    3    3    0    0  0.13081017206E+00  0.39635027489E-02  0.13349370619E-01  0.13280656436E+00  0.18230945501E-01 0.  0.
         14    1    1    2    0    0 -0.18906974019E-01 -0.11020271849E-01 -0.98579615773E-02  0.24002072091E-01  0.00000000000E+00 0. -1.
     999901    1    3    3    0    0 -0.11190319804E+00  0.70567691000E-02 -0.34914090419E-02  0.88712136355E+00  0.88000000000E+00 0. -1.
        -11    1    4    4    0    0  0.91043952404E-01 -0.41950186571E-02  0.13956157306E-01  0.92204310629E-01  0.51100000000E-03 0.  1.
         11    1    4    4    0    0  0.39766219656E-01  0.81585214060E-02 -0.60678668671E-03  0.40602253735E-01  0.51100000000E-03 0. -1.
</event>
<event>
 8    1  0.1022673E+005  0.1043930E+01  0.7957747E-01            NaN
         13   -1    0    0    0    0  0.00000000000E+00  0.00000000000E+00  0.74505805969E-08  0.10566000000E+00  0.10566000000E+00 0. -1.
     999900   -1    0    0    0    0 -0.00000000000E+00 -0.00000000000E+00 -0.74505805969E-08  0.93827000000E+00  0.93827000000E+00 0.  1.
     999902    2    1    2    0    0  0.11226634910E-01 -0.15941599035E-02 -0.20435655108E-01  0.10205591918E+01  0.10202915609E+01 0.  0.
     999903    2    3    3    0    0  0.76461567239E-01  0.68917476027E-01  0.76820995407E-01  0.13000523874E+00  0.20097437624E-01 0.  0.
         14    1    1    2    0    0 -0.11226634910E-01  0.15941599035E-02  0.20435655108E-01  0.23370808220E-01  0.00000000000E+00 0. -1.
     999901    1    3    3    0    0 -0.65234932330E-01 -0.70511635930E-01 -0.97256650514E-01  0.89055395304E+00  0.88000000000E+00 0.  1.
        -11    1    4    4    0    0  0.63284660327E-01  0.52886348348E-01  0.51380265142E-01  0.97170503968E-01  0.51100000000E-03 0.  1.
         11    1    4    4    0    0  0.13176906912E-01  0.16031127679E-01  0.25440730264E-01  0.32834734776E-01  0.51100000000E-03 0. -1.
</event>
<event>
 8    1  0.1022673E+005  0.1043930E+01  0.7957747E-01            NaN
         13   -1    0    0    0    0  0.00000000000E+00  0.00000000000E+00  0.74505805969E-08  0.10566000000E+00  0.10566000000E+00 0.  1.
     999900   -1    0    0    0    0 -0.00000000000E+00 -0.00000000000E+00 -0.74505805969E-08  0.93827000000E+00  0.93827000000E+00 0. -1.
     999902    2    1    2    0    0 -0.19196476150E-01  0.18006892387E-02  0.13192155742E-01  0.10205680619E+01  0.10203006365E+01 0.  0.
     999903    2    3    3    0    0 -0.12142593124E+00  0.19797585615E-01 -0.42580301853E-01  0.13271372881E+00  0.25761415657E-01 0.  0.
         14    1    1    2    0    0  0.19196476150E-01 -0.18006892387E-02 -0.13192155742E-01  0.23361938093E-01  0.00000000000E+00 0. -1.
     999901    1    3    3    0    0  0.10222945509E+00 -0.17996896376E-01  0.55772457595E-01  0.88785433309E+00  0.88000000000E+00 0.  1.
        -11    1    4    4    0    0 -0.57630539507E-01  0.62272851517E-02 -0.33243750563E-01  0.66824144115E-01  0.51100000000E-03 0.  1.
         11    1    4    4    0    0 -0.63795391731E-01  0.13570300463E-01 -0.93365512895E-02  0.65889584699E-01  0.51100000000E-03 0. -1.
</event>
<event>
 8    1  0.1022673E+005  0.1043930E+01  0.7957747E-01            NaN
         13   -1    0    0    0    0  0.00000000000E+00  0.00000000000E+00  0.74505805969E-08  0.10566000000E+00  0.10566000000E+00 0.  1.
     999900   -1    0    0    0    0 -0.00000000000E+00 -0.00000000000E+00 -0.74505805969E-08  0.93827000000E+00  0.93827000000E+00 0.  1.
     999902    2    1    2    0    0 -0.88310120959E-02  0.68169293126E-02 -0.21860787987E-01  0.10193871527E+01  0.10190916621E+01 0.  0.
     999903    2    3    3    0    0  0.36815608752E-01  0.80076740944E-01  0.90739176372E-01  0.12802338527E+00  0.19715870754E-01 0.  0.
         14    1    1    2    0    0  0.88310120959E-02 -0.68169293126E-02  0.21860787987E-01  0.24542847253E-01  0.00000000000E+00 0.  1.
     999901    1    3    3    0    0 -0.45646620848E-01 -0.73259811632E-01 -0.11259996436E+00  0.89136376748E+00  0.88000000000E+00 0.  1.
        -11    1    4    4    0    0  0.18670990944E-01  0.47269071756E-01  0.38692503973E-01  0.63877554995E-01  0.51100000000E-03 0.  1.
         11    1    4    4    0    0  0.18144617809E-01  0.32807669188E-01  0.52046672398E-01  0.64145830276E-01  0.51100000000E-03 0. -1.
</event>
<event>
 8    1  0.1022673E+005  0.1043930E+01  0.7957747E-01            NaN
         13   -1    0    0    0    0  0.00000000000E+00  0.00000000000E+00  0.74505805969E-08  0.10566000000E+00  0.10566000000E+00 0.  1.
     999900   -1    0    0    0    0 -0.00000000000E+00 -0.00000000000E+00 -0.74505805969E-08  0.93827000000E+00  0.93827000000E+00 0. -1.
     999902    2    1    2    0    0  0.20468225904E-01 -0.42178741408E-02  0.10613093744E-01  0.10204912182E+01  0.10202220101E+01 0.  0.
     999903    2    3    3    0    0 -0.87107556540E-02 -0.12751277699E+00 -0.19962434628E-01  0.13089135928E+00  0.19966561479E-01 0.  0.
         14    1    1    2    0    0 -0.20468225904E-01  0.42178741408E-02 -0.10613093744E-01  0.23438781810E-01  0.00000000000E+00 0. -1.
     999901    1    3    3    0    0  0.29178981558E-01  0.12329490285E+00  0.30575528372E-01  0.88959985891E+00  0.88000000000E+00 0. -1.
        -11    1    4    4    0    0 -0.15133929471E-01 -0.82815449969E-01 -0.13853559034E-01  0.85320670378E-01  0.51100000000E-03 0. -1.
         11    1    4    4    0    0  0.64231738174E-02 -0.44697327025E-01 -0.61088755943E-02  0.45570688903E-01  0.51100000000E-03 0.  1.
</event>
<event>
 8    1  0.1022673E+005  0.1043930E+01  0.7957747E-01            NaN
         13   -1    0    0    0    0  0.00000000000E+00  0.00000000000E+00  0.74505805969E-08  0.10566000000E+00  0.10566000000E+00 0.  1.
     999900   -1    0    0    0    0 -0.00000000000E+00 -0.00000000000E+00 -0.74505805969E-08  0.93827000000E+00  0.93827000000E+00 0. -1.
     999902    2    1    2    0    0  0.16615167327E-01  0.14016811483E-01 -0.68653047118E-02  0.10211337898E+01  0.10208793021E+01 0.  0.
     999903    2    3    3    0    0  0.10025449895E+00  0.40295887208E-01 -0.76745236677E-01  0.13402087001E+00  0.19925841502E-01 0.  0.
         14    1    1    2    0    0 -0.16615167327E-01 -0.14016811483E-01  0.68653047118E-02  0.22796210173E-01  0.00000000000E+00 0. -1.
     999901    1    3    3    0    0 -0.83639331625E-01 -0.26279075725E-01  0.69879931966E-01  0.88711291982E+00  0.88000000000E+00 0.  1.
        -11    1    4    4    0    0  0.95928284070E-01  0.36191648046E-01 -0.66662819578E-01  0.12229580413E+00  0.51100000000E-03 0. -1.
         11    1    4    4    0    0  0.43262148814E-02  0.41042391615E-02 -0.10082417099E-01  0.11725065878E-01  0.51100000000E-03 0.  1.
</event>
<event>
 8    1  0.1022673E+005  0.1043930E+01  0.7957747E-01            NaN
         13   -1    0    0    0    0  0.00000000000E+00  0.00000000000E+00  0.74505805969E-08  0.10566000000E+00  0.10566000000E+00 0.  1.
     999900   -1    0    0    0    0 -0.00000000000E+00 -0.00000000000E+00 -0.74505805969E-08  0.93827000000E+00  0.93827000000E+00 0. -1.
     999902    2    1    2    0    0 -0.72272837005E-02  0.18674480433E-01  0.11802648843E-01  0.10206862402E+01  0.10204215446E+01 0.  0.
     999903    2    3    3    0    0 -0.50128842835E-01 -0.10254999141E+00  0.59161752303E-01  0.13008037844E+00  0.19783586597E-01 0.  0.
         14    1    1    2    0    0  0.72272837005E-02 -0.18674480433E-01 -0.11802648843E-01  0.23243759783E-01  0.00000000000E+00 0. -1.
     999901    1    3    3    0    0  0.42901559135E-01  0.12122447184E+00 -0.47359103460E-01  0.89060586178E+00  0.88000000000E+00 0. -1.
        -11    1    4    4    0    0 -0.39539307477E-01 -0.94687609589E-01  0.51368710918E-01  0.11475236742E+00  0.51100000000E-03 0. -1.
         11    1    4    4    0    0 -0.10589535359E-01 -0.78623818165E-02  0.77930413847E-02  0.15328011024E-01  0.51100000000E-03 0.  1.
</event>
<event>
 8    1  0.1022673E+005  0.1043930E+01  0.7957747E-01            NaN
         13   -1    0    0    0    0  0.00000000000E+00  0.00000000000E+00  0.74505805969E-08  0.10566000000E+00  0.10566000000E+00 0. -1.
     999900   -1    0    0    0    0 -0.00000000000E+00 -0.00000000000E+00 -0.74505805969E-08  0.93827000000E+00  0.93827000000E+00 0. -1.
     999902    2    1    2    0    0 -0.12028426627E-02 -0.14292287329E-01  0.18665648817E-01  0.10203901879E+01  0.10201186268E+01 0.  0.
     999903    2    3    3    0    0  0.73515288081E-01  0.69184944736E-01  0.81171969113E-01  0.13108805285E+00  0.20103106014E-01 0.  0.
         14    1    1    2    0    0  0.12028426627E-02  0.14292287329E-01 -0.18665648817E-01  0.23539812092E-01  0.00000000000E+00 0.  1.
     999901    1    3    3    0    0 -0.74718130744E-01 -0.83477232065E-01 -0.62506320296E-01  0.88930213505E+00  0.88000000000E+00 0.  1.
        -11    1    4    4    0    0  0.22720157575E-01  0.32642945743E-01  0.38436447450E-01  0.55311744509E-01  0.51100000000E-03 0. -1.
         11    1    4    4    0    0  0.50795130506E-01  0.36541998993E-01  0.42735521663E-01  0.75776308345E-01  0.51100000000E-03 0.  1.
</event>
<event>
 8    1  0.1022673E+005  0.1043930E+01  0.7957747E-01            NaN
         13   -1    0    0    0    0  0.00000000000E+00  0.00000000000E+00  0.74505805969E-08  0.10566000000E+00  0.10566000000E+00 0. -1.
     999900   -1    0    0    0    0 -0.00000000000E+00 -0.00000000000E+00 -0.74505805969E-08  0.93827000000E+00  0.93827000000E+00 0.  1.
     999902    2    1    2    0    0  0.14363553378E-01  0.18385831553E-01 -0.29968116324E-02  0.10204070039E+01  0.10201358352E+01 0.  0.
     999903    2    3    3    0    0  0.11089126221E+00  0.22002436956E-01 -0.66646893776E-01  0.13283615521E+00  0.20558609270E-01 0.  0.
         14    1    1    2    0    0 -0.14363553378E-01 -0.18385831553E-01  0.29968116324E-02  0.23522996142E-01  0.00000000000E+00 0. -1.
     999901    1    3    3    0    0 -0.96527708833E-01 -0.36166054026E-02  0.63650082143E-01  0.88757084864E+00  0.88000000000E+00 0. -1.
        -11    1    4    4    0    0  0.43135563427E-01  0.14342860791E-01 -0.17198947841E-01  0.48605137750E-01  0.51100000000E-03 0. -1.
         11    1    4    4    0    0  0.67755698784E-01  0.76595761648E-02 -0.49447945935E-01  0.84231017464E-01  0.51100000000E-03 0.  1.
</event>
<event>
 8    1  0.1022673E+005  0.1043930E+01  0.7957747E-01            NaN
         13   -1    0    0    0    0  0.00000000000E+00  0.00000000000E+00  0.74505805969E-08  0.10566000000E+00  0.10566000000E+00 0. -1.
     999900   -1    0    0    0    0 -0.00000000000E+00 -0.00000000000E+00 -0.74505805969E-08  0.93827000000E+00  0.93827000000E+00 0. -1.
     999902    2    1    2    0    0 -0.22567024258E-02  0.82394284456E-02  0.20650734363E-01  0.10215819863E+01  0.10213375157E+01 0.  0.
     999903    2    3    3    0    0  0.11486823867E+00  0.55466667176E-01 -0.24222157727E-01  0.13143467245E+00  0.20422947214E-01 0.  0.
         14    1    1    2    0    0  0.22567024258E-02 -0.82394284456E-02 -0.20650734363E-01  0.22348013707E-01  0.00000000000E+00 0.  1.
     999901    1    3    3    0    0 -0.11712494110E+00 -0.47227238731E-01  0.44872892090E-01  0.89014731385E+00  0.88000000000E+00 0. -1.
        -11    1    4    4    0    0  0.22984231575E-01  0.97312210127E-02 -0.13106605923E-01  0.28196024601E-01  0.51100000000E-03 0. -1.
         11    1    4    4    0    0  0.91884007096E-01  0.45735446164E-01 -0.11115551804E-01  0.10323864784E+00  0.51100000000E-03 0.  1.
</event>
<event>
 8    1  0.1022673E+005  0.1043930E+01  0.7957747E-01            NaN
         13   -1    0    0    0    0  0.00000000000E+00  0.00000000000E+00  0.74505805969E-08  0.10566000000E+00  0.10566000000E+00 0. -1.
     999900   -1    0    0    0    0 -0.00000000000E+00 -0.00000000000E+00 -0.74505805969E-08  0.93827000000E+00  0.93827000000E+00 0.  1.
     999902    2    1    2    0    0 -0.46378668255E-02  0.24806829387E-01 -0.56127630357E-02  0.10180767274E+01  0.10177484126E+01 0.  0.
     999903    2    3    3    0    0 -0.19867299228E-02 -0.11821945866E+00  0.36665917866E-01  0.12552362849E+00  0.20784712539E-01 0.  0.
         14    1    1    2    0    0  0.46378668255E-02 -0.24806829387E-01  0.56127630357E-02  0.25853272555E-01  0.00000000000E+00 0. -1.
     999901    1    3    3    0    0 -0.26511369027E-02  0.14302628804E+00 -0.42278680901E-01  0.89255309896E+00  0.88000000000E+00 0.  1.
        -11    1    4    4    0    0 -0.10101994579E-01 -0.53851436168E-01  0.21745940022E-01  0.58950610687E-01  0.51100000000E-03 0. -1.
         11    1    4    4    0    0  0.81152646567E-02 -0.64368022487E-01  0.14919977843E-01  0.66573017802E-01  0.51100000000E-03 0.  1.
</event>
<event>
 8    1  0.1022673E+005  0.1043930E+01  0.7957747E-01            NaN
         13   -1    0    0    0    0  0.00000000000E+00  0.00000000000E+00  0.74505805969E-08  0.10566000000E+00  0.10566000000E+00 0.  1.
     999900   -1    0    0    0    0 -0.00000000000E+00 -0.00000000000E+00 -0.74505805969E-08  0.93827000000E+00  0.93827000000E+00 0.  1.
     999902    2    1    2    0    0 -0.19238382408E-01 -0.10136390058E-01 -0.91046206813E-02  0.10203555248E+01  0.10200831541E+01 0.  0.
     999903    2    3    3    0    0  0.74070724780E-01  0.67104817199E-01 -0.79407566131E-01  0.12928016455E+00  0.20451665626E-01 0.  0.
         14    1    1    2    0    0  0.19238382408E-01  0.10136390058E-01  0.91046206813E-02  0.23574475155E-01  0.00000000000E+00 0.  1.
     999901    1    3    3    0    0 -0.93309107188E-01 -0.77241207258E-01  0.70302945450E-01  0.89107536029E+00  0.88000000000E+00 0.  1.
        -11    1    4    4    0    0  0.11103690205E-01  0.17629621760E-01 -0.92007307555E-02  0.22781792445E-01  0.51100000000E-03 0. -1.
         11    1    4    4    0    0  0.62967034575E-01  0.49475195439E-01 -0.70206835376E-01  0.10649837211E+00  0.51100000000E-03 0.  1.
</event>
<event>
 8    1  0.1022673E+005  0.1043930E+01  0.7957747E-01            NaN
         13   -1    0    0    0    0  0.00000000000E+00  0.00000000000E+00  0.74505805969E-08  0.10566000000E+00  0.10566000000E+00 0. -1.
     999900   -1    0    0    0    0 -0.00000000000E+00 -0.00000000000E+00 -0.74505805969E-08  0.93827000000E+00  0.93827000000E+00 0.  1.
     999902    2    1    2    0    0 -0.13731641033E-01 -0.17819365368E-01 -0.51089644861E-02  0.10208607723E+01  0.10206000819E+01 0.  0.
     999903    2    3    3    0    0  0.66889247925E-02 -0.13095346744E+00  0.10770537107E-01  0.13324121241E+00  0.21063329883E-01 0.  0.
         14    1    1    2    0    0  0.13731641033E-01  0.17819365368E-01  0.51089644861E-02  0.23069227679E-01  0.00000000000E+00 0.  1.
     999901    1    3    3    0    0 -0.20420565826E-01  0.11313410207E+00 -0.15879501593E-01  0.88761955991E+00  0.88000000000E+00 0. -1.
        -11    1    4    4    0    0  0.14077568045E-01 -0.70553982793E-01  0.65055642639E-02  0.72240057429E-01  0.51100000000E-03 0. -1.
         11    1    4    4    0    0 -0.73886432528E-02 -0.60399484649E-01  0.42649728434E-02  0.61001154984E-01  0.51100000000E-03 0.  1.
</event>
<event>
 7    1  0.1038422E+005  0.1043930E+01  0.7957747E-01            NaN
         13   -1    0    0    0    0  0.00000000000E+00  0.00000000000E+00  0.74505805969E-08  0.10566000000E+00  0.10566000000E+00 0. -1.
     999900   -1    0    0    0    0 -0.00000000000E+00 -0.00000000000E+00 -0.74505805969E-08  0.93827000000E+00  0.93827000000E+00 0. -1.
     999903    2    1    2    0    0 -0.30803178494E-01  0.43119072956E-01 -0.89535485376E-01  0.10596615767E+00  0.20103063748E-01 0.  0.
         14    1    1    2    0    0  0.48957010032E-01 -0.20817043063E-01  0.61996795444E-02  0.53559071497E-01  0.00000000000E+00 0. -1.
     999901    1    1    2    0    0 -0.18153831538E-01 -0.22302029893E-01  0.83335805832E-01  0.88440477083E+00  0.88000000000E+00 0.  1.
        -11    1    3    3    0    0 -0.18827583774E-01  0.11705502705E-01 -0.26766870633E-01  0.34759505014E-01  0.51100000000E-03 0. -1.
         11    1    3    3    0    0 -0.11975594720E-01  0.31413570251E-01 -0.62768614743E-01  0.71206652657E-01  0.51100000000E-03 0.  1.
</event>
<event>
 8    1  0.1022673E+005  0.1043930E+01  0.7957747E-01            NaN
         13   -1    0    0    0    0  0.00000000000E+00  0.00000000000E+00  0.74505805969E-08  0.10566000000E+00  0.10566000000E+00 0.  1.
     999900   -1    0    0    0    0 -0.00000000000E+00 -0.00000000000E+00 -0.74505805969E-08  0.93827000000E+00  0.93827000000E+00 0.  1.
     999902    2    1    2    0    0 -0.65240442588E-02  0.13586718447E-01 -0.17354761261E-01  0.10209441389E+01  0.10206853506E+01 0.  0.
     999903    2    3    3    0    0  0.77837282714E-01 -0.97753457906E-01  0.24944391388E-01  0.12892245382E+00  0.19606002234E-01 0.  0.
         14    1    1    2    0    0  0.65240442588E-02 -0.13586718447E-01  0.17354761261E-01  0.22985861091E-01  0.00000000000E+00 0.  1.
     999901    1    3    3    0    0 -0.84361326973E-01  0.11134017635E+00 -0.42299152649E-01  0.89202168509E+00  0.88000000000E+00 0.  1.
        -11    1    4    4    0    0  0.34439775145E-01 -0.57134425490E-01  0.17828294849E-01  0.69054687794E-01  0.51100000000E-03 0. -1.
         11    1    4    4    0    0  0.43397507570E-01 -0.40619032416E-01  0.71160965389E-02  0.59867766024E-01  0.51100000000E-03 0.  1.
</event>
<event>
 8    1  0.1022673E+005  0.1043930E+01  0.7957747E-01            NaN
         13   -1    0    0    0    0  0.00000000000E+00  0.00000000000E+00  0.74505805969E-08  0.10566000000E+00  0.10566000000E+00 0.  1.
     999900   -1    0    0    0    0 -0.00000000000E+00 -0.00000000000E+00 -0.74505805969E-08  0.93827000000E+00  0.93827000000E+00 0. -1.
     999902    2    1    2    0    0  0.69307363502E-02  0.22411936344E-01 -0.14515593189E-02  0.10204260212E+01  0.10201552958E+01 0.  0.
     999903    2    3    3    0    0  0.10755696433E+00  0.62493185413E-01  0.42547411227E-01  0.13269404939E+00  0.17986932568E-01 0.  0.
         14    1    1    2    0    0 -0.69307363502E-02 -0.22411936344E-01  0.14515593189E-02  0.23503978844E-01  0.00000000000E+00 0.  1.
     999901    1    3    3    0    0 -0.10062622798E+00 -0.40081249069E-01 -0.43998970546E-01  0.88773197176E+00  0.88000000000E+00 0. -1.
        -11    1    4    4    0    0  0.46606377485E-01  0.37412127372E-01  0.19412457141E-01  0.62840483050E-01  0.51100000000E-03 0.  1.
         11    1    4    4    0    0  0.60950586843E-01  0.25081058041E-01  0.23134954086E-01  0.69853566341E-01  0.51100000000E-03 0. -1.
</event>
<event>
 8    1  0.1022673E+005  0.1043930E+01  0.7957747E-01            NaN
         13   -1    0    0    0    0  0.00000000000E+00  0.00000000000E+00  0.74505805969E-08  0.10566000000E+00  0.10566000000E+00 0. -1.
     999900   -1    0    0    0    0 -0.00000000000E+00 -0.00000000000E+00 -0.74505805969E-08  0.93827000000E+00  0.93827000000E+00 0. -1.
     999902    2    1    2    0    0 -0.10195740666E-01  0.13957596002E-01 -0.18293442333E-01  0.10187622101E+01  0.10184512866E+01 0.  0.
     999903    2    3    3    0    0 -0.10246129187E-01 -0.12508325999E+00 -0.71751311241E-03  0.12767227334E+00  0.23428390080E-01 0.  0.
         14    1    1    2    0    0  0.10195740666E-01 -0.13957596002E-01  0.18293442333E-01  0.25167789857E-01  0.00000000000E+00 0. -1.
     999901    1    3    3    0    0  0.50388520879E-04  0.13904085600E+00 -0.17575929221E-01  0.89108993680E+00  0.88000000000E+00 0.  1.
        -11    1    4    4    0    0  0.29331796035E-02 -0.58932910731E-01 -0.90832858148E-02  0.59703087961E-01  0.51100000000E-03 0.  1.
         11    1    4    4    0    0 -0.13179308791E-01 -0.66150349263E-01  0.83657727024E-02  0.67969185384E-01  0.51100000000E-03 0. -1.
</event>
<event>
 8    1  0.1022673E+005  0.1043930E+01  0.7957747E-01            NaN
         13   -1    0    0    0    0  0.00000000000E+00  0.00000000000E+00  0.74505805969E-08  0.10566000000E+00  0.10566000000E+00 0.  1.
     999900   -1    0    0    0    0 -0.00000000000E+00 -0.00000000000E+00 -0.74505805969E-08  0.93827000000E+00  0.93827000000E+00 0.  1.
     999902    2    1    2    0    0 -0.17108161062E-01  0.61435441365E-02 -0.14906326983E-01  0.10204218973E+01  0.10201510758E+01 0.  0.
     999903    2    3    3    0    0  0.73800416695E-01 -0.56873026424E-01  0.85220701672E-01  0.12786328321E+00  0.20134760027E-01 0.  0.
         14    1    1    2    0    0  0.17108161062E-01 -0.61435441365E-02  0.14906326983E-01  0.23508102722E-01  0.00000000000E+00 0.  1.
     999901    1    3    3    0    0 -0.90908577757E-01  0.63016570561E-01 -0.10012702866E+00  0.89255861407E+00  0.88000000000E+00 0. -1.
        -11    1    4    4    0    0  0.16696070681E-01 -0.24536231140E-01  0.25531848915E-01  0.39152545828E-01  0.51100000000E-03 0. -1.
         11    1    4    4    0    0  0.57104346014E-01 -0.32336795284E-01  0.59688852757E-01  0.88710737385E-01  0.51100000000E-03 0.  1.
</event>
<event>
 8    1  0.1022673E+005  0.1043930E+01  0.7957747E-01            NaN
         13   -1    0    0    0    0  0.00000000000E+00  0.00000000000E+00  0.74505805969E-08  0.10566000000E+00  0.10566000000E+00 0. -1.
     999900   -1    0    0    0    0 -0.00000000000E+00 -0.00000000000E+00 -0.74505805969E-08  0.93827000000E+00  0.93827000000E+00 0.  1.
     999902    2    1    2    0    0 -0.33739594924E-02  0.42738317645E-02  0.23959930041E-01  0.10193591333E+01  0.10190629594E+01 0.  0.
     999903    2    3    3    0    0 -0.98998018387E-01  0.81411978844E-01 -0.11224190224E-01  0.13012790543E+00  0.19462049799E-01 0.  0.
         14    1    1    2    0    0  0.33739594924E-02 -0.42738317645E-02 -0.23959930041E-01  0.24570866655E-01  0.00000000000E+00 0.  1.
     999901    1    3    3    0    0  0.95624058895E-01 -0.77138147079E-01  0.35184120265E-01  0.88923122791E+00  0.88000000000E+00 0.  1.
        -11    1    4    4    0    0 -0.65256987905E-01  0.52980798550E-01 -0.16584396862E-01  0.85678135050E-01  0.51100000000E-03 0. -1.
         11    1    4    4    0    0 -0.33741030482E-01  0.28431180294E-01  0.53602066374E-02  0.44449770383E-01  0.51100000000E-03 0.  1.
</event>
<event>
 8    1  0.1022673E+005  0.1043930E+01  0.7957747E-01            NaN
         13   -1    0    0    0    0  0.00000000000E+00  0.00000000000E+00  0.74505805969E-08  0.10566000000E+00  0.10566000000E+00 0.  1.
     999900   -1    0    0    0    0 -0.00000000000E+00 -0.00000000000E+00 -0.74505805969E-08  0.93827000000E+00  0.93827000000E+00 0. -1.
     999902    2    1    2    0    0 -0.18412271334E-01  0.71826684347E-02 -0.66660922566E-02  0.10230724055E+01  0.10228597693E+01 0.  0.
     999903    2    3    3    0    0 -0.11231606448E-01  0.13157573522E+00  0.11739325814E-01  0.13410448910E+00  0.20196018014E-01 0.  0.
         14    1    1    2    0    0  0.18412271334E-01 -0.71826684347E-02  0.66660922566E-02  0.20857594480E-01  0.00000000000E+00 0.  1.
     999901    1    3    3    0    0 -0.71806648864E-02 -0.12439306679E+00 -0.18405418071E-01  0.88896791642E+00  0.88000000000E+00 0. -1.
        -11    1    4    4    0    0 -0.15602593883E-01  0.64330551543E-01  0.53641677715E-02  0.66414578329E-01  0.51100000000E-03 0. -1.
         11    1    4    4    0    0  0.43709874351E-02  0.67245183677E-01  0.63751580428E-02  0.67689910770E-01  0.51100000000E-03 0.  1.
</event>
<event>
 8    1  0.1022673E+005  0.1043930E+01  0.7957747E-01            NaN
         13   -1    0    0    0    0  0.00000000000E+00  0.00000000000E+00  0.74505805969E-08  0.10566000000E+00  0.10566000000E+00 0.  1.
     999900   -1    0    0    0    0 -0.00000000000E+00 -0.00000000000E+00 -0.74505805969E-08  0.93827000000E+00  0.93827000000E+00 0.  1.
     999902    2    1    2    0    0  0.25486142274E-01  0.31897880396E-02  0.18219027674E-02  0.10181804849E+01  0.10178548337E+01 0.  0.
     999903    2    3    3    0    0 -0.62813383627E-01 -0.10385479234E+00 -0.31002779219E-01  0.12670260625E+00  0.19001027788E-01 0.  0.
         14    1    1    2    0    0 -0.25486142274E-01 -0.31897880396E-02 -0.18219027674E-02  0.25749515053E-01  0.00000000000E+00 0.  1.
     999901    1    3    3    0    0  0.88299525901E-01  0.10704458038E+00  0.32824681986E-01  0.89147787870E+00  0.88000000000E+00 0. -1.
        -11    1    4    4    0    0 -0.42153174081E-01 -0.60502461196E-01 -0.10506437610E-01  0.74485463335E-01  0.51100000000E-03 0. -1.
         11    1    4    4    0    0 -0.20660209546E-01 -0.43352331140E-01 -0.20496341609E-01  0.52217142913E-01  0.51100000000E-03 0.  1.
</event>
<event>
 8    1  0.1022673E+005  0.1043930E+01  0.7957747E-01            NaN
         13   -1    0    0    0    0  0.00000000000E+00  0.00000000000E+00  0.74505805969E-08  0.10566000000E+00  0.10566000000E+00 0.  1.
     999900   -1    0    0    0    0 -0.00000000000E+00 -0.00000000000E+00 -0.74505805969E-08  0.93827000000E+00  0.93827000000E+00 0.  1.
     999902    2    1    2    0    0 -0.11688060427E-01  0.20674612226E-02  0.19786143734E-01  0.10208567116E+01  0.10205959284E+01 0.  0.
     999903    2    3    3    0    0  0.23583653347E-01  0.63514880036E-01 -0.10785970300E+00  0.12882905440E+00  0.19310127810E-01 0.  0.
         14    1    1    2    0    0  0.11688060427E-01 -0.20674612226E-02 -0.19786143734E-01  0.23073288373E-01  0.00000000000E+00 0. -1.
     999901    1    3    3    0    0 -0.35271713774E-01 -0.61447418813E-01  0.12764584673E+00  0.89202765723E+00  0.88000000000E+00 0. -1.
        -11    1    4    4    0    0  0.26020915172E-01  0.49907299391E-01 -0.81299500677E-01  0.98882235464E-01  0.51100000000E-03 0.  1.
         11    1    4    4    0    0 -0.24372618247E-02  0.13607580645E-01 -0.26560202319E-01  0.29946818936E-01  0.51100000000E-03 0. -1.
</event>
<event>
 8    1  0.1022673E+005  0.1043930E+01  0.7957747E-01            NaN
         13   -1    0    0    0    0  0.00000000000E+00  0.00000000000E+00  0.74505805969E-08  0.10566000000E+00  0.10566000000E+00 0.  1.
     999900   -1    0    0    0    0 -0.00000000000E+00 -0.00000000000E+00 -0.74505805969E-08  0.93827000000E+00  0.93827000000E+00 0.  1.
     999902    2    1    2    0    0  0.13761417056E-01  0.54230813727E-03  0.19100559290E-01  0.10203821325E+01  0.10201103834E+01 0.  0.
     999903    2    3    3    0    0  0.12746072060E+00  0.25377431907E-01  0.62267934126E-02  0.13262650801E+00  0.25705414336E-01 0.  0.
         14    1    1    2    0    0 -0.13761417056E-01 -0.54230813727E-03 -0.19100559290E-01  0.23547867476E-01  0.00000000000E+00 0. -1.
     999901    1    3    3    0    0 -0.11369930354E+00 -0.24835123770E-01  0.12873765877E-01  0.88775562451E+00  0.88000000000E+00 0. -1.
        -11    1    4    4    0    0  0.47918776814E-01 -0.19378512852E-03 -0.55720465254E-02  0.48244746321E-01  0.51100000000E-03 0. -1.
         11    1    4    4    0    0  0.79541943785E-01  0.25571217035E-01  0.11798839938E-01  0.84381761694E-01  0.51100000000E-03 0.  1.
</event>
<event>
 8    1  0.1278929E+005  0.1043930E+01  0.7957747E-01            NaN
         13   -1    0    0    0    0  0.00000000000E+00  0.00000000000E+00  0.74505805969E-08  0.10566000000E+00  0.10566000000E+00 0.  1.
     999900   -1    0    0    0    0 -0.00000000000E+00 -0.00000000000E+00 -0.74505805969E-08  0.93827000000E+00  0.93827000000E+00 0. -1.
     999902    2    1    2    0    0  0.22725162202E-01  0.21694075795E-03 -0.10697417110E-01  0.10188119827E+01  0.10185023030E+01 0.  0.
     999903    2    3    3    0    0  0.69924063779E-01  0.26834273055E-01  0.10395409659E+00  0.12972189262E+00  0.20294391353E-01 0.  0.
         14    1    1    2    0    0 -0.22725162202E-01 -0.21694075795E-03  0.10697417110E-01  0.25118017303E-01  0.00000000000E+00 0.  1.
     999901    1    3    3    0    0 -0.47198901577E-01 -0.26617332297E-01 -0.11465151370E+00  0.88909009008E+00  0.88000000000E+00 0. -1.
        -11    1    4    4    0    0  0.30483734822E-01  0.11615312042E-01  0.62545598618E-01  0.70543508489E-01  0.51100000000E-03 0. -1.
         11    1    4    4    0    0  0.39440328957E-01  0.15218961013E-01  0.41408497971E-01  0.59178384126E-01  0.51100000000E-03 0.  1.
</event>
<event>
 8    1  0.1022673E+005  0.1043930E+01  0.7957747E-01            NaN
         13   -1    0    0    0    0  0.00000000000E+00  0.00000000000E+00  0.74505805969E-08  0.10566000000E+00  0.10566000000E+00 0. -1.
     999900   -1    0    0    0    0 -0.00000000000E+00 -0.00000000000E+00 -0.74505805969E-08  0.93827000000E+00  0.93827000000E+00 0. -1.
     999902    2    1    2    0    0  0.17497430021E-01 -0.59271192664E-04  0.30277235170E-01  0.10089603769E+01  0.10083541876E+01 0.  0.
     999903    2    3    3    0    0 -0.30968104460E-01  0.43048368706E-01  0.10934264295E+00  0.12303796756E+00  0.19244281022E-01 0.  0.
         14    1    1    2    0    0 -0.17497430021E-01  0.59271192664E-04 -0.30277235170E-01  0.34969623103E-01  0.00000000000E+00 0. -1.
     999901    1    3    3    0    0  0.48465534481E-01 -0.43107639898E-01 -0.79065407784E-01  0.88592240933E+00  0.88000000000E+00 0.  1.
        -11    1    4    4    0    0 -0.13473727479E-01  0.21971538472E-01  0.32657531660E-01  0.41606073236E-01  0.51100000000E-03 0.  1.
         11    1    4    4    0    0 -0.17494376981E-01  0.21076830234E-01  0.76685111294E-01  0.81431894328E-01  0.51100000000E-03 0. -1.
</event>
<event>
 8    1  0.1022673E+005  0.1043930E+01  0.7957747E-01            NaN
         13   -1    0    0    0    0  0.00000000000E+00  0.00000000000E+00  0.74505805969E-08  0.10566000000E+00  0.10566000000E+00 0. -1.
     999900   -1    0    0    0    0 -0.00000000000E+00 -0.00000000000E+00 -0.74505805969E-08  0.93827000000E+00  0.93827000000E+00 0.  1.
     999902    2    1    2    0    0 -0.12878068805E-02  0.49072854364E-02 -0.23314039785E-01  0.10200703196E+01  0.10197912397E+01 0.  0.
     999903    2    3    3    0    0  0.96690185052E-01  0.80169607414E-01 -0.34674040446E-01  0.13136724568E+00  0.16700488546E-01 0.  0.
         14    1    1    2    0    0  0.12878068805E-02 -0.49072854364E-02  0.23314039785E-01  0.23859680384E-01  0.00000000000E+00 0. -1.
     999901    1    3    3    0    0 -0.97977991933E-01 -0.75262321978E-01  0.11360000661E-01  0.88870307394E+00  0.88000000000E+00 0. -1.
        -11    1    4    4    0    0  0.82798859965E-01  0.60255714924E-01 -0.27140182895E-01  0.10593985577E+00  0.51100000000E-03 0.  1.
         11    1    4    4    0    0  0.13891325088E-01  0.19913892491E-01 -0.75338575513E-02  0.25427389906E-01  0.51100000000E-03 0. -1.
</event>
<event>
 8    1  0.1022673E+005  0.1043930E+01  0.7957747E-01            NaN
         13   -1    0    0    0    0  0.00000000000E+00  0.00000000000E+00  0.74505805969E-08  0.10566000000E+00  0.10566000000E+00 0.  1.
     999900   -1    0    0    0    0 -0.00000000000E+00 -0.00000000000E+00 -0.74505805969E-08  0.93827000000E+00  0.93827000000E+00 0. -1.
     999902    2    1    2    0    0 -0.20785906622E-01  0.87227862595E-03 -0.11963348559E-01  0.10199313231E+01  0.10196489432E+01 0.  0.
     999903    2    3    3    0    0 -0.11295049842E+00  0.43805922527E-01 -0.52087505654E-01  0.13316892102E+00  0.18549375679E-01 0.  0.
         14    1    1    2    0    0  0.20785906622E-01 -0.87227862595E-03  0.11963348559E-01  0.23998676898E-01  0.00000000000E+00 0.  1.
     999901    1    3    3    0    0  0.92164591802E-01 -0.42933643901E-01  0.40124157095E-01  0.88676240208E+00  0.88000000000E+00 0.  1.
        -11    1    4    4    0    0 -0.60330057200E-02  0.74935968158E-02 -0.45301262276E-02  0.10645859096E-01  0.51100000000E-03 0.  1.
         11    1    4    4    0    0 -0.10691749270E+00  0.36312325711E-01 -0.47557379426E-01  0.12252306193E+00  0.51100000000E-03 0. -1.
</event>
<event>
 8    1  0.1022673E+005  0.1043930E+01  0.7957747E-01            NaN
         13   -1    0    0    0    0  0.00000000000E+00  0.00000000000E+00  0.74505805969E-08  0.10566000000E+00  0.10566000000E+00 0. -1.
     999900   -1    0    0    0    0 -0.00000000000E+00 -0.00000000000E+00 -0.74505805969E-08  0.93827000000E+00  0.93827000000E+00 0.  1.
     999902    2    1    2    0    0 -0.17788704972E-01  0.41754143531E-02  0.19152790624E-01  0.10174592331E+01  0.10171148360E+01 0.  0.
     999903    2    3    3    0    0  0.32240233206E-01 -0.10001655044E+00 -0.66194781224E-01  0.12580735701E+00  0.20074835428E-01 0.  0.
         14    1    1    2    0    0  0.17788704972E-01 -0.41754143531E-02 -0.19152790624E-01  0.26470766862E-01  0.00000000000E+00 0. -1.
     999901    1    3    3    0    0 -0.50028938178E-01  0.10419196479E+00  0.85347571848E-01  0.89165187613E+00  0.88000000000E+00 0. -1.
        -11    1    4    4    0    0  0.10499477027E-01 -0.23528628246E-01 -0.26376976990E-01  0.36876027459E-01  0.51100000000E-03 0.  1.
         11    1    4    4    0    0  0.21740756179E-01 -0.76487922194E-01 -0.39817804233E-01  0.88931329551E-01  0.51100000000E-03 0. -1.
</event>
<event>
 8    1  0.1022673E+005  0.1043930E+01  0.7957747E-01            NaN
         13   -1    0    0    0    0  0.00000000000E+00  0.00000000000E+00  0.74505805969E-08  0.10566000000E+00  0.10566000000E+00 0.  1.
     999900   -1    0    0    0    0 -0.00000000000E+00 -0.00000000000E+00 -0.74505805969E-08  0.93827000000E+00  0.93827000000E+00 0.  1.
     999902    2    1    2    0    0 -0.77295575684E-02  0.20311306549E-01 -0.99113490993E-02  0.10200442286E+01  0.10197645308E+01 0.  0.
     999903    2    3    3    0    0 -0.52117006066E-01  0.12114856827E+00 -0.11455393409E-01  0.13317288337E+00  0.14513197835E-01 0.  0.
         14    1    1    2    0    0  0.77295575684E-02 -0.20311306549E-01  0.99113490993E-02  0.23885771390E-01  0.00000000000E+00 0.  1.
     999901    1    3    3    0    0  0.44387448497E-01 -0.10083726172E+00  0.15440443097E-02  0.88687134524E+00  0.88000000000E+00 0.  1.
        -11    1    4    4    0    0 -0.17376629466E-01  0.25152610743E-01 -0.34470175474E-02  0.30769207493E-01  0.51100000000E-03 0. -1.
         11    1    4    4    0    0 -0.34740376600E-01  0.95995957528E-01 -0.80083758617E-02  0.10240367588E+00  0.51100000000E-03 0.  1.
</event>
<event>
 8    1  0.1022673E+005  0.1043930E+01  0.7957747E-01            NaN
         13   -1    0    0    0    0  0.00000000000E+00  0.00000000000E+00  0.74505805969E-08  0.10566000000E+00  0.10566000000E+00 0.  1.
     999900   -1    0    0    0    0 -0.00000000000E+00 -0.00000000000E+00 -0.74505805969E-08  0.93827000000E+00  0.93827000000E+00 0.  1.
     999902    2    1    2    0    0  0.20001509727E-01 -0.46964874951E-02  0.91379282541E-02  0.10214440239E+01  0.10211964918E+01 0.  0.
     999903    2    3    3    0    0  0.51971224847E-01  0.34118580972E-01  0.11625312039E+00  0.13352379295E+00  0.21183236383E-01 0.  0.
         14    1    1    2    0    0 -0.20001509727E-01  0.46964874951E-02 -0.91379282541E-02  0.22485976050E-01  0.00000000000E+00 0.  1.
     999901    1    3    3    0    0 -0.31969715120E-01 -0.38815068467E-01 -0.10711519214E+00  0.88792023100E+00  0.88000000000E+00 0.  1.
        -11    1    4    4    0    0  0.27123521265E-01  0.61122056917E-02  0.57178471226E-01  0.63582097771E-01  0.51100000000E-03 0. -1.
         11    1    4    4    0    0  0.24847703582E-01  0.28006375280E-01  0.59074649169E-01  0.69941695183E-01  0.51100000000E-03 0.  1.
</event>
<event>
 8    1  0.1022673E+005  0.1043930E+01  0.7957747E-01            NaN
         13   -1    0    0    0    0  0.00000000000E+00  0.00000000000E+00  0.74505805969E-08  0.10566000000E+00  0.10566000000E+00 0. -1.
     999900   -1    0    0    0    0 -0.00000000000E+00 -0.00000000000E+00 -0.74505805969E-08  0.93827000000E+00  0.93827000000E+00 0.  1.
     999902    2    1    2    0    0 -0.15661057773E-01  0.12582221693E-01  0.15722133360E-01  0.10184198743E+01  0.10181003261E+01 0.  0.
     999903    2    3    3    0    0 -0.44547567705E-01  0.10743008809E+00  0.58942115721E-01  0.13179790581E+00  0.19256306916E-01 0.  0.
         14    1    1    2    0    0  0.15661057773E-01 -0.12582221693E-01 -0.15722133360E-01  0.25510125650E-01  0.00000000000E+00 0.  1.
     999901    1    3    3    0    0  0.28886509932E-01 -0.94847866396E-01 -0.43219982361E-01  0.88662196854E+00  0.88000000000E+00 0.  1.
        -11    1    4    4    0    0 -0.16979011534E-01  0.20788368090E-01  0.15900099268E-01  0.31201239691E-01  0.51100000000E-03 0.  1.
         11    1    4    4    0    0 -0.27568556171E-01  0.86641719999E-01  0.43042016453E-01  0.10059666612E+00  0.51100000000E-03 0. -1.
</event>
<event>
 8    1  0.1022673E+005  0.1043930E+01  0.7957747E-01            NaN
         13   -1    0    0    0    0  0.00000000000E+00  0.00000000000E+00  0.74505805969E-08  0.10566000000E+00  0.10566000000E+00 0. -1.
     999900   -1    0    0    0    0 -0.00000000000E+00 -0.00000000000E+00 -0.74505805969E-08  0.93827000000E+00  0.93827000000E+00 0.  1.
     999902    2    1    2    0    0 -0.22009750641E-02 -0.25546518683E-01 -0.48638928132E-03  0.10182842307E+01  0.10179612316E+01 0.  0.
     999903    2    3    3    0    0  0.11338488551E+00 -0.43255964382E-01 -0.40487006713E-01  0.12964832944E+00  0.21030475400E-01 0.  0.
         14    1    1    2    0    0  0.22009750641E-02  0.25546518683E-01  0.48638928132E-03  0.25645769292E-01  0.00000000000E+00 0. -1.
     999901    1    3    3    0    0 -0.11558586058E+00  0.17709445699E-01  0.40000617431E-01  0.88863590127E+00  0.88000000000E+00 0.  1.
        -11    1    4    4    0    0  0.51839321455E-01 -0.21408076598E-01 -0.78422690873E-02  0.56633764646E-01  0.51100000000E-03 0. -1.
         11    1    4    4    0    0  0.61545564059E-01 -0.21847887784E-01 -0.32644737625E-01  0.73014564791E-01  0.51100000000E-03 0.  1.
</event>
<event>
 8    1  0.1022673E+005  0.1043930E+01  0.7957747E-01            NaN
         13   -1    0    0    0    0  0.00000000000E+00  0.00000000000E+00  0.74505805969E-08  0.10566000000E+00  0.10566000000E+00 0. -1.
     999900   -1    0    0    0    0 -0.00000000000E+00 -0.00000000000E+00 -0.74505805969E-08  0.93827000000E+00  0.93827000000E+00 0.  1.
     999902    2    1    2    0    0  0.91595311735E-02  0.94072151593E-02  0.17341219325E-01  0.10221788944E+01  0.10219474456E+01 0.  0.
     999903    2    3    3    0    0 -0.26208289890E-01  0.91777008848E-01 -0.87997409022E-01  0.13137482371E+00  0.20147121358E-01 0.  0.
         14    1    1    2    0    0 -0.91595311735E-02 -0.94072151593E-02 -0.17341219325E-01  0.21751105629E-01  0.00000000000E+00 0.  1.
     999901    1    3    3    0    0  0.35367821064E-01 -0.82369793689E-01  0.10533862835E+00  0.89080407066E+00  0.88000000000E+00 0. -1.
        -11    1    4    4    0    0 -0.12844112556E-01  0.20031451678E-01 -0.14893254223E-01  0.28076688302E-01  0.51100000000E-03 0. -1.
         11    1    4    4    0    0 -0.13364177334E-01  0.71745557170E-01 -0.73104154799E-01  0.10329813541E+00  0.51100000000E-03 0.  1.
</event>
<event>
 8    1  0.1022673E+005  0.1043930E+01  0.7957747E-01            NaN
         13   -1    0    0    0    0  0.00000000000E+00  0.00000000000E+00  0.74505805969E-08  0.10566000000E+00  0.10566000000E+00 0.  1.
     999900   -1    0    0    0    0 -0.00000000000E+00 -0.00000000000E+00 -0.74505805969E-08  0.93827000000E+00  0.93827000000E+00 0.  1.
     999902    2    1    2    0    0 -0.15179197121E-02  0.75564646699E-02  0.21857511870E-01  0.10207533940E+01  0.10204902432E+01 0.  0.
     999903    2    3    3    0    0 -0.27746960571E-01  0.95433680855E-01  0.86950745214E-01  0.13359641992E+00  0.20250680465E-01 0.  0.
         14    1    1    2    0    0  0.15179197121E-02 -0.75564646699E-02 -0.21857511870E-01  0.23176605958E-01  0.00000000000E+00 0. -1.
     999901    1    3    3    0    0  0.26229040859E-01 -0.87877216185E-01 -0.65093233344E-01  0.88715697412E+00  0.88000000000E+00 0.  1.
        -11    1    4    4    0    0 -0.27984405272E-01  0.66599770998E-01  0.57031962230E-01  0.92041090129E-01  0.51100000000E-03 0.  1.
         11    1    4    4    0    0  0.23744470075E-03  0.28833909857E-01  0.29918782985E-01  0.41555329789E-01  0.51100000000E-03 0. -1.
</event>
<event>
 8    1  0.1022673E+005  0.1043930E+01  0.7957747E-01            NaN
         13   -1    0    0    0    0  0.00000000000E+00  0.00000000000E+00  0.74505805969E-08  0.10566000000E+00  0.10566000000E+00 0.  1.
     999900   -1    0    0    0    0 -0.00000000000E+00 -0.00000000000E+00 -0.74505805969E-08  0.93827000000E+00  0.93827000000E+00 0. -1.
     999902    2    1    2    0    0 -0.21712958456E-01 -0.76690622934E-02  0.61570419022E-02  0.10200935521E+01  0.10198150219E+01 0.  0.
     999903    2    3    3    0    0  0.96908419172E-01 -0.69840511624E-02  0.82170856013E-01  0.12888672968E+00  0.20487089413E-01 0.  0.
         14    1    1    2    0    0  0.21712958456E-01  0.76690622934E-02 -0.61570419022E-02  0.23836447856E-01  0.00000000000E+00 0. -1.
     999901    1    3    3    0    0 -0.11862137763E+00 -0.68501113099E-03 -0.76013814111E-01  0.89120682246E+00  0.88000000000E+00 0. -1.
        -11    1    4    4    0    0  0.30738295937E-01 -0.90777744263E-02  0.35821859724E-01  0.48069903065E-01  0.51100000000E-03 0. -1.
         11    1    4    4    0    0  0.66170123235E-01  0.20937232640E-02  0.46348996290E-01  0.80816826615E-01  0.51100000000E-03 0.  1.
</event>
<event>
 8    1  0.1022673E+005  0.1043930E+01  0.7957747E-01            NaN
         13   -1    0    0    0    0  0.00000000000E+00  0.00000000000E+00  0.74505805969E-08  0.10566000000E+00  0.10566000000E+00 0. -1.
     999900   -1    0    0    0    0 -0.00000000000E+00 -0.00000000000E+00 -0.74505805969E-08  0.93827000000E+00  0.93827000000E+00 0. -1.
     999902    2    1    2    0    0  0.19928287570E-01 -0.13337902740E-04  0.99132860353E-02  0.10216721910E+01  0.10214297116E+01 0.  0.
     999903    2    3    3    0    0  0.12084110418E-01 -0.21190687455E-01 -0.12696360322E+00  0.13080447122E+00  0.19874158855E-01 0.  0.
         14    1    1    2    0    0 -0.19928287570E-01  0.13337902740E-04 -0.99132860353E-02  0.22257809043E-01  0.00000000000E+00 0.  1.
     999901    1    3    3    0    0  0.78441771518E-02  0.21177349552E-01  0.13687688926E+00  0.89086771973E+00  0.88000000000E+00 0.  1.
        -11    1    4    4    0    0 -0.53569548781E-02 -0.54941986040E-02 -0.24098544214E-01  0.25295931256E-01  0.51100000000E-03 0.  1.
         11    1    4    4    0    0  0.17441065296E-01 -0.15696488851E-01 -0.10286505901E+00  0.10550853997E+00  0.51100000000E-03 0. -1.
</event>
<event>
 8    1  0.1022673E+005  0.1043930E+01  0.7957747E-01            NaN
         13   -1    0    0    0    0  0.00000000000E+00  0.00000000000E+00  0.74505805969E-08  0.10566000000E+00  0.10566000000E+00 0. -1.
     999900   -1    0    0    0    0 -0.00000000000E+00 -0.00000000000E+00 -0.74505805969E-08  0.93827000000E+00  0.93827000000E+00 0.  1.
     999902    2    1    2    0    0 -0.10138278333E-01  0.96096727613E-02  0.25680396194E-01  0.10146962311E+01  0.10142750259E+01 0.  0.
     999903    2    3    3    0    0  0.37512401730E-02  0.12321636172E+00 -0.18067697630E-01  0.12620689841E+00  0.20134445914E-01 0.  0.
         14    1    1    2    0    0  0.10138278333E-01 -0.96096727613E-02 -0.25680396194E-01  0.29233768946E-01  0.00000000000E+00 0.  1.
     999901    1    3    3    0    0 -0.13889518506E-01 -0.11360668896E+00  0.43748093824E-01  0.88848933264E+00  0.88000000000E+00 0. -1.
        -11    1    4    4    0    0  0.90992511072E-02  0.92066920096E-01 -0.72614004454E-02  0.92801418114E-01  0.51100000000E-03 0. -1.
         11    1    4    4    0    0 -0.53480109342E-02  0.31149441621E-01 -0.10806297184E-01  0.33405480300E-01  0.51100000000E-03 0.  1.
</event>
<event>
 8    1  0.1022673E+005  0.1043930E+01  0.7957747E-01            NaN
         13   -1    0    0    0    0  0.00000000000E+00  0.00000000000E+00  0.74505805969E-08  0.10566000000E+00  0.10566000000E+00 0.  1.
     999900   -1    0    0    0    0 -0.00000000000E+00 -0.00000000000E+00 -0.74505805969E-08  0.93827000000E+00  0.93827000000E+00 0. -1.
     999902    2    1    2    0    0  0.19266663731E-01  0.89312963262E-02 -0.10333107190E-01  0.10203133641E+01  0.10200400068E+01 0.  0.
     999903    2    3    3    0    0 -0.68757360498E-01  0.61605859574E-01  0.87716888028E-01  0.12894551638E+00  0.20244436073E-01 0.  0.
         14    1    1    2    0    0 -0.19266663731E-01 -0.89312963262E-02  0.10333107190E-01  0.23616635865E-01  0.00000000000E+00 0.  1.
     999901    1    3    3    0    0  0.88024024228E-01 -0.52674563248E-01 -0.98049995218E-01  0.89136784776E+00  0.88000000000E+00 0. -1.
        -11    1    4    4    0    0 -0.21764113763E-01  0.31390005347E-01  0.29584974155E-01  0.48317087043E-01  0.51100000000E-03 0. -1.
         11    1    4    4    0    0 -0.46993246734E-01  0.30215854227E-01  0.58131913873E-01  0.80628429334E-01  0.51100000000E-03 0.  1.
</event>
<event>
 8    1  0.1022673E+005  0.1043930E+01  0.7957747E-01            NaN
         13   -1    0    0    0    0  0.00000000000E+00  0.00000000000E+00  0.74505805969E-08  0.10566000000E+00  0.10566000000E+00 0. -1.
     999900   -1    0    0    0    0 -0.00000000000E+00 -0.00000000000E+00 -0.74505805969E-08  0.93827000000E+00  0.93827000000E+00 0. -1.
     999902    2    1    2    0    0  0.19328060941E-01  0.63798658336E-02  0.11675549682E-01  0.10204652373E+01  0.10201954251E+01 0.  0.
     999903    2    3    3    0    0 -0.31002636808E-01  0.12382748286E+00  0.22228631685E-01  0.13117423352E+00  0.20448923501E-01 0.  0.
         14    1    1    2    0    0 -0.19328060941E-01 -0.63798658336E-02 -0.11675549682E-01  0.23464762691E-01  0.00000000000E+00 0.  1.
     999901    1    3    3    0    0  0.50330697748E-01 -0.11744761703E+00 -0.10553082003E-01  0.88929100379E+00  0.88000000000E+00 0.  1.
        -11    1    4    4    0    0 -0.46149307608E-02  0.60359185090E-01  0.10008168491E-01  0.61359215838E-01  0.51100000000E-03 0. -1.
         11    1    4    4    0    0 -0.26387706047E-01  0.63468297770E-01  0.12220463194E-01  0.69815017681E-01  0.51100000000E-03 0.  1.
</event>
<event>
 8    1  0.1022673E+005  0.1043930E+01  0.7957747E-01            NaN
         13   -1    0    0    0    0  0.00000000000E+00  0.00000000000E+00  0.74505805969E-08  0.10566000000E+00  0.10566000000E+00 0. -1.
     999900   -1    0    0    0    0 -0.00000000000E+00 -0.00000000000E+00 -0.74505805969E-08  0.93827000000E+00  0.93827000000E+00 0. -1.
     999902    2    1    2    0    0 -0.40535333868E-02  0.17121691353E-01 -0.14906716870E-01  0.10208693483E+01  0.10206088539E+01 0.  0.
     999903    2    3    3    0    0 -0.21648609640E-01 -0.10015904307E+00 -0.79110133232E-01  0.13059611159E+00  0.17217287128E-01 0.  0.
         14    1    1    2    0    0  0.40535333868E-02 -0.17121691353E-01  0.14906716870E-01  0.23060651672E-01  0.00000000000E+00 0. -1.
     999901    1    3    3    0    0  0.17595076254E-01  0.11728073442E+00  0.64203416363E-01  0.89027323674E+00  0.88000000000E+00 0.  1.
        -11    1    4    4    0    0 -0.60884984981E-02 -0.19213812921E-01 -0.78538958960E-02  0.21637588190E-01  0.51100000000E-03 0.  1.
         11    1    4    4    0    0 -0.15560111142E-01 -0.80945230144E-01 -0.71256237336E-01  0.10895852340E+00  0.51100000000E-03 0. -1.
</event>
<event>
 8    1  0.1022673E+005  0.1043930E+01  0.7957747E-01            NaN
         13   -1    0    0    0    0  0.00000000000E+00  0.00000000000E+00  0.74505805969E-08  0.10566000000E+00  0.10566000000E+00 0.  1.
     999900   -1    0    0    0    0 -0.00000000000E+00 -0.00000000000E+00 -0.74505805969E-08  0.93827000000E+00  0.93827000000E+00 0.  1.
     999902    2    1    2    0    0  0.12189883107E-01  0.19434380735E-01 -0.19014474463E-02  0.10209103582E+01  0.10206508000E+01 0.  0.
     999903    2    3    3    0    0  0.45155912974E-01 -0.41947204651E-01  0.11335718851E+00  0.13066375683E+00  0.20604385639E-01 0.  0.
         14    1    1    2    0    0 -0.12189883107E-01 -0.19434380735E-01  0.19014474463E-02  0.23019641767E-01  0.00000000000E+00 0. -1.
     999901    1    3    3    0    0 -0.32966029867E-01  0.61381585386E-01 -0.11525863595E+00  0.89024660140E+00  0.88000000000E+00 0.  1.
        -11    1    4    4    0    0  0.40983113607E-01 -0.34203934991E-01  0.80098399525E-01  0.96257672408E-01  0.51100000000E-03 0. -1.
         11    1    4    4    0    0  0.41727993669E-02 -0.77432696597E-02  0.33258788982E-01  0.34406084421E-01  0.51100000000E-03 0.  1.
</event>
<event>
 8    1  0.1291435E+005  0.1043930E+01  0.7957747E-01            NaN
         13   -1    0    0    0    0  0.00000000000E+00  0.00000000000E+00  0.74505805969E-08  0.10566000000E+00  0.10566000000E+00 0. -1.
     999900   -1    0    0    0    0 -0.00000000000E+00 -0.00000000000E+00 -0.74505805969E-08  0.93827000000E+00  0.93827000000E+00 0.  1.
     999902    2    1    2    0    0  0.22708708530E-02 -0.40110526718E-02 -0.22587352235E-01  0.10208771503E+01  0.10206168341E+01 0.  0.
     999903    2    3    3    0    0 -0.57743187030E-01 -0.12334633775E-01 -0.11807635278E+00  0.13364036209E+00  0.20767822589E-01 0.  0.
         14    1    1    2    0    0 -0.22708708530E-02  0.40110526718E-02  0.22587352235E-01  0.23052849692E-01  0.00000000000E+00 0. -1.
     999901    1    3    3    0    0  0.60014057883E-01  0.83235811035E-02  0.95489000543E-01  0.88723678822E+00  0.88000000000E+00 0. -1.
        -11    1    4    4    0    0 -0.27870666274E-01 -0.15446026863E-01 -0.50894590581E-01  0.60048932179E-01  0.51100000000E-03 0. -1.
         11    1    4    4    0    0 -0.29872520756E-01  0.31113930880E-02 -0.67181762197E-01  0.73591429909E-01  0.51100000000E-03 0.  1.
</event>
<event>
 8    1  0.1022673E+005  0.1043930E+01  0.7957747E-01            NaN
         13   -1    0    0    0    0  0.00000000000E+00  0.00000000000E+00  0.74505805969E-08  0.10566000000E+00  0.10566000000E+00 0. -1.
     999900   -1    0    0    0    0 -0.00000000000E+00 -0.00000000000E+00 -0.74505805969E-08  0.93827000000E+00  0.93827000000E+00 0. -1.
     999902    2    1    2    0    0  0.17598575761E-01 -0.16663976134E-01 -0.73362963666E-02  0.10186076934E+01  0.10182928919E+01 0.  0.
     999903    2    3    3    0    0  0.11121851363E+00 -0.67976613285E-01  0.10304589026E-01  0.13197987948E+00  0.17947877434E-01 0.  0.
         14    1    1    2    0    0 -0.17598575761E-01  0.16663976134E-01  0.73362963666E-02  0.25322306644E-01  0.00000000000E+00 0. -1.
     999901    1    3    3    0    0 -0.93619937872E-01  0.51312637151E-01 -0.17640885392E-01  0.88662781387E+00  0.88000000000E+00 0.  1.
        -11    1    4    4    0    0  0.85282904828E-01 -0.60265317764E-01  0.62525346636E-02  0.10461566657E+00  0.51100000000E-03 0.  1.
         11    1    4    4    0    0  0.25935608805E-01 -0.77112955211E-02  0.40520543623E-02  0.27364212911E-01  0.51100000000E-03 0. -1.
</event>
<event>
 8    1  0.1022673E+005  0.1043930E+01  0.7957747E-01            NaN
         13   -1    0    0    0    0  0.00000000000E+00  0.00000000000E+00  0.74505805969E-08  0.10566000000E+00  0.10566000000E+00 0. -1.
     999900   -1    0    0    0    0 -0.00000000000E+00 -0.00000000000E+00 -0.74505805969E-08  0.93827000000E+00  0.93827000000E+00 0.  1.
     999902    2    1    2    0    0  0.10320818602E-01 -0.13577203327E-01  0.16286311074E-01  0.10203481495E+01  0.10200756062E+01 0.  0.
     999903    2    3    3    0    0  0.12577573949E+00  0.31283638564E-01 -0.72158933348E-02  0.13136294851E+00  0.20148261430E-01 0.  0.
         14    1    1    2    0    0 -0.10320818602E-01  0.13577203327E-01 -0.16286311074E-01  0.23581850547E-01  0.00000000000E+00 0.  1.
     999901    1    3    3    0    0 -0.11545492088E+00 -0.44860841890E-01  0.23502204409E-01  0.88898520095E+00  0.88000000000E+00 0. -1.
        -11    1    4    4    0    0  0.18209864019E-01 -0.69405248905E-03 -0.58127325837E-02  0.19134519528E-01  0.51100000000E-03 0.  1.
         11    1    4    4    0    0  0.10756587547E+00  0.31977691053E-01 -0.14031607511E-02  0.11222842898E+00  0.51100000000E-03 0. -1.
</event>
<event>
 8    1  0.1022673E+005  0.1043930E+01  0.7957747E-01            NaN
         13   -1    0    0    0    0  0.00000000000E+00  0.00000000000E+00  0.74505805969E-08  0.10566000000E+00  0.10566000000E+00 0.  1.
     999900   -1    0    0    0    0 -0.00000000000E+00 -0.00000000000E+00 -0.74505805969E-08  0.93827000000E+00  0.93827000000E+00 0. -1.
     999902    2    1    2    0    0  0.20054642056E-01  0.12008628660E-01 -0.40691048711E-02  0.10202033600E+01  0.10199274201E+01 0.  0.
     999903    2    3    3    0    0  0.49184179370E-02  0.10835207196E+00 -0.72670618033E-01  0.13216207046E+00  0.20528804445E-01 0.  0.
         14    1    1    2    0    0 -0.20054642056E-01 -0.12008628660E-01  0.40691048711E-02  0.23726639980E-01  0.00000000000E+00 0. -1.
     999901    1    3    3    0    0  0.15136224119E-01 -0.96343443297E-01  0.68601513162E-01  0.88804128956E+00  0.88000000000E+00 0.  1.
        -11    1    4    4    0    0  0.85840318457E-02  0.86792024928E-01 -0.65730399304E-01  0.10921212253E+00  0.51100000000E-03 0. -1.
         11    1    4    4    0    0 -0.36656139088E-02  0.21560047029E-01 -0.69402187288E-02  0.22949947935E-01  0.51100000000E-03 0.  1.
</event>
<event>
 8    1  0.1022673E+005  0.1043930E+01  0.7957747E-01            NaN
         13   -1    0    0    0    0  0.00000000000E+00  0.00000000000E+00  0.74505805969E-08  0.10566000000E+00  0.10566000000E+00 0. -1.
     999900   -1    0    0    0    0 -0.00000000000E+00 -0.00000000000E+00 -0.74505805969E-08  0.93827000000E+00  0.93827000000E+00 0.  1.
     999902    2    1    2    0    0 -0.21660185468E-01 -0.67187395480E-02 -0.85513301195E-02  0.10196930377E+01  0.10194049543E+01 0.  0.
     999903    2    3    3    0    0 -0.10581003989E-01  0.10375133533E+00  0.73438996611E-01  0.12893560752E+00  0.18836332881E-01 0.  0.
         14    1    1    2    0    0  0.21660185468E-01  0.67187395480E-02  0.85513301195E-02  0.24236962318E-01  0.00000000000E+00 0. -1.
     999901    1    3    3    0    0 -0.11079181479E-01 -0.11047007488E+00 -0.81990326731E-01  0.89075743016E+00  0.88000000000E+00 0.  1.
        -11    1    4    4    0    0 -0.13206839948E-01  0.84798283713E-01  0.66517125350E-01  0.10858157591E+00  0.51100000000E-03 0. -1.
         11    1    4    4    0    0  0.26258359597E-02  0.18953051615E-01  0.69218712610E-02  0.20354031609E-01  0.51100000000E-03 0.  1.
</event>
<event>
 8    1  0.1022673E+005  0.1043930E+01  0.7957747E-01            NaN
         13   -1    0    0    0    0  0.00000000000E+00  0.00000000000E+00  0.74505805969E-08  0.10566000000E+00  0.10566000000E+00 0. -1.
     999900   -1    0    0    0    0 -0.00000000000E+00 -0.00000000000E+00 -0.74505805969E-08  0.93827000000E+00  0.93827000000E+00 0. -1.
     999902    2    1    2    0    0  0.16773237095E-01 -0.15404948965E-01  0.71440676008E-02  0.10200617861E+01  0.10197825041E+01 0.  0.
     999903    2    3    3    0    0  0.23502712236E-01  0.38452039079E-01 -0.11960992408E+00  0.12932476796E+00  0.19683111447E-01 0.  0.
         14    1    1    2    0    0 -0.16773237095E-01  0.15404948965E-01 -0.71440676008E-02  0.23868213949E-01  0.00000000000E+00 0.  1.
     999901    1    3    3    0    0 -0.67294751414E-02 -0.53856988044E-01  0.12675399168E+00  0.89073701809E+00  0.88000000000E+00 0.  1.
        -11    1    4    4    0    0  0.14872793538E-01  0.20477689361E-01 -0.40673736797E-01  0.47907721040E-01  0.51100000000E-03 0. -1.
         11    1    4    4    0    0  0.86299186988E-02  0.17974349718E-01 -0.78936187285E-01  0.81417046916E-01  0.51100000000E-03 0.  1.
</event>
<event>
 8    1  0.1022673E+005  0.1043930E+01  0.7957747E-01            NaN
         13   -1    0    0    0    0  0.00000000000E+00  0.00000000000E+00  0.74505805969E-08  0.10566000000E+00  0.10566000000E+00 0.  1.
     999900   -1    0    0    0    0 -0.00000000000E+00 -0.00000000000E+00 -0.74505805969E-08  0.93827000000E+00  0.93827000000E+00 0.  1.
     999902    2    1    2    0    0  0.12674590227E-01  0.20999285350E-01 -0.62060767676E-03  0.10193943040E+01  0.10190989877E+01 0.  0.
     999903    2    3    3    0    0  0.35501788561E-01 -0.99920312969E-01  0.69149910100E-01  0.12809718444E+00  0.19563554396E-01 0.  0.
         14    1    1    2    0    0 -0.12674590227E-01 -0.20999285350E-01  0.62060767676E-03  0.24535695966E-01  0.00000000000E+00 0. -1.
     999901    1    3    3    0    0 -0.22827198334E-01  0.12091959832E+00 -0.69770517776E-01  0.89129711959E+00  0.88000000000E+00 0.  1.
        -11    1    4    4    0    0  0.23507651334E-01 -0.48695131501E-01  0.44332493202E-01  0.69924649285E-01  0.51100000000E-03 0.  1.
         11    1    4    4    0    0  0.11994137227E-01 -0.51225181468E-01  0.24817416898E-01  0.58172535158E-01  0.51100000000E-03 0. -1.
</event>
<event>
 8    1  0.1022673E+005  0.1043930E+01  0.7957747E-01            NaN
         13   -1    0    0    0    0  0.00000000000E+00  0.00000000000E+00  0.74505805969E-08  0.10566000000E+00  0.10566000000E+00 0. -1.
     999900   -1    0    0    0    0 -0.00000000000E+00 -0.00000000000E+00 -0.74505805969E-08  0.93827000000E+00  0.93827000000E+00 0. -1.
     999902    2    1    2    0    0 -0.20515563122E-01 -0.52311503466E-02 -0.87521706903E-02  0.10210203131E+01  0.10207632565E+01 0.  0.
     999903    2    3    3    0    0 -0.18453257272E-01  0.11468479986E+00  0.56113902981E-01  0.13051950130E+00  0.19835425122E-01 0.  0.
         14    1    1    2    0    0  0.20515563122E-01  0.52311503466E-02  0.87521706903E-02  0.22909686945E-01  0.00000000000E+00 0. -1.
     999901    1    3    3    0    0 -0.20623058492E-02 -0.11991595021E+00 -0.64866073671E-01  0.89050081175E+00  0.88000000000E+00 0. -1.
        -11    1    4    4    0    0 -0.16932689476E-01  0.87762701905E-01  0.51500297174E-01  0.10315788651E+00  0.51100000000E-03 0.  1.
         11    1    4    4    0    0 -0.15205677961E-02  0.26922097954E-01  0.46136058069E-02  0.27361614795E-01  0.51100000000E-03 0. -1.
</event>
<event>
 8    1  0.1022673E+005  0.1043930E+01  0.7957747E-01            NaN
         13   -1    0    0    0    0  0.00000000000E+00  0.00000000000E+00  0.74505805969E-08  0.10566000000E+00  0.10566000000E+00 0.  1.
     999900   -1    0    0    0    0 -0.00000000000E+00 -0.00000000000E+00 -0.74505805969E-08  0.93827000000E+00  0.93827000000E+00 0.  1.
     999902    2    1    2    0    0  0.11599522172E-01  0.12002787478E-01 -0.18465349533E-01  0.10190385365E+01  0.10187344865E+01 0.  0.
     999903    2    3    3    0    0 -0.11951311911E+00 -0.38346621869E-01  0.90600989220E-02  0.12747629075E+00  0.20353630243E-01 0.  0.
         14    1    1    2    0    0 -0.11599522172E-01 -0.12002787478E-01  0.18465349533E-01  0.24891463501E-01  0.00000000000E+00 0.  1.
     999901    1    3    3    0    0  0.13111264128E+00  0.50349409347E-01 -0.27525448455E-01  0.89156224574E+00  0.88000000000E+00 0.  1.
        -11    1    4    4    0    0 -0.26220317406E-01 -0.11001753645E-01  0.10305874125E-01  0.30249227934E-01  0.51100000000E-03 0.  1.
         11    1    4    4    0    0 -0.93292801702E-01 -0.27344868224E-01 -0.12457752027E-02  0.97227062819E-01  0.51100000000E-03 0. -1.
</event>
<event>
 8    1  0.1022673E+005  0.1043930E+01  0.7957747E-01            NaN
         13   -1    0    0    0    0  0.00000000000E+00  0.00000000000E+00  0.74505805969E-08  0.10566000000E+00  0.10566000000E+00 0. -1.
     999900   -1    0    0    0    0 -0.00000000000E+00 -0.00000000000E+00 -0.74505805969E-08  0.93827000000E+00  0.93827000000E+00 0.  1.
     999902    2    1    2    0    0 -0.19912368905E-01  0.13579941476E-01 -0.64678140333E-02  0.10189750433E+01  0.10186694209E+01 0.  0.
     999903    2    3    3    0    0  0.99538382088E-01 -0.63946992196E-01 -0.40829464677E-01  0.12686539174E+00  0.20752713465E-01 0.  0.
         14    1    1    2    0    0  0.19912368905E-01 -0.13579941476E-01  0.64678140333E-02  0.24954956708E-01  0.00000000000E+00 0.  1.
     999901    1    3    3    0    0 -0.11945075099E+00  0.77526933672E-01  0.34361650643E-01  0.89210965155E+00  0.88000000000E+00 0.  1.
        -11    1    4    4    0    0  0.82325233658E-01 -0.46357726141E-01 -0.38893488111E-01  0.10217361405E+00  0.51100000000E-03 0.  1.
         11    1    4    4    0    0  0.17213148430E-01 -0.17589266055E-01 -0.19359765657E-02  0.24691777690E-01  0.51100000000E-03 0. -1.
</event>
<event>
 8    1  0.1022673E+005  0.1043930E+01  0.7957747E-01            NaN
         13   -1    0    0    0    0  0.00000000000E+00  0.00000000000E+00  0.74505805969E-08  0.10566000000E+00  0.10566000000E+00 0. -1.
     999900   -1    0    0    0    0 -0.00000000000E+00 -0.00000000000E+00 -0.74505805969E-08  0.93827000000E+00  0.93827000000E+00 0. -1.
     999902    2    1    2    0    0  0.90226095897E-02  0.54871429362E-03 -0.21735583949E-01  0.10203897328E+01  0.10201181611E+01 0.  0.
     999903    2    3    3    0    0 -0.10875344058E+00  0.67014382454E-01  0.75197399849E-02  0.12957844131E+00  0.20390872210E-01 0.  0.
         14    1    1    2    0    0 -0.90226095897E-02 -0.54871429362E-03  0.21735583949E-01  0.23540267220E-01  0.00000000000E+00 0. -1.
     999901    1    3    3    0    0  0.11777605017E+00 -0.66465668160E-01 -0.29255323934E-01  0.89081129147E+00  0.88000000000E+00 0.  1.
        -11    1    4    4    0    0 -0.48036480827E-01  0.38163757492E-01  0.10695739786E-01  0.62278694966E-01  0.51100000000E-03 0.  1.
         11    1    4    4    0    0 -0.60716959749E-01  0.28850624962E-01 -0.31759998009E-02  0.67299746341E-01  0.51100000000E-03 0. -1.
</event>
<event>
 8    1  0.1022673E+005  0.1043930E+01  0.7957747E-01            NaN
         13   -1    0    0    0    0  0.00000000000E+00  0.00000000000E+00  0.74505805969E-08  0.10566000000E+00  0.10566000000E+00 0.  1.
     999900   -1    0    0    0    0 -0.00000000000E+00 -0.00000000000E+00 -0.74505805969E-08  0.93827000000E+00  0.93827000000E+00 0. -1.
     999902    2    1    2    0    0  0.70298189536E-02 -0.91385592724E-02 -0.20515437685E-01  0.10203967299E+01  0.10201253215E+01 0.  0.
     999903    2    3    3    0    0 -0.79018300349E-01 -0.95575662347E-01  0.34573530824E-01  0.13027850958E+00  0.19964017667E-01 0.  0.
         14    1    1    2    0    0 -0.70298189536E-02  0.91385592724E-02  0.20515437685E-01  0.23533270140E-01  0.00000000000E+00 0.  1.
     999901    1    3    3    0    0  0.86048119303E-01  0.86437103075E-01 -0.55088968509E-01  0.89011822028E+00  0.88000000000E+00 0. -1.
        -11    1    4    4    0    0  0.38235513128E-03 -0.29445559188E-02  0.30052176955E-02  0.42554740515E-02  0.51100000000E-03 0. -1.
         11    1    4    4    0    0 -0.79400655481E-01 -0.92631106428E-01  0.31568313128E-01  0.12602303553E+00  0.51100000000E-03 0.  1.
</event>
<event>
 8    1  0.1022673E+005  0.1043930E+01  0.7957747E-01            NaN
         13   -1    0    0    0    0  0.00000000000E+00  0.00000000000E+00  0.74505805969E-08  0.10566000000E+00  0.10566000000E+00 0.  1.
     999900   -1    0    0    0    0 -0.00000000000E+00 -0.00000000000E+00 -0.74505805969E-08  0.93827000000E+00  0.93827000000E+00 0.  1.
     999902    2    1    2    0    0 -0.37100201683E-02 -0.24114240446E-02 -0.26565191346E-01  0.10169988172E+01  0.10166421719E+01 0.  0.
     999903    2    3    3    0    0 -0.46222628499E-01 -0.64469064800E-01  0.95515680948E-01  0.12539228289E+00  0.17526768122E-01 0.  0.
         14    1    1    2    0    0  0.37100201683E-02  0.24114240446E-02  0.26565191346E-01  0.26931182797E-01  0.00000000000E+00 0.  1.
     999901    1    3    3    0    0  0.42512608331E-01  0.62057640756E-01 -0.12208087229E+00  0.89160653431E+00  0.88000000000E+00 0.  1.
        -11    1    4    4    0    0 -0.26149653136E-01 -0.23445010981E-01  0.35119478661E-01  0.49670029207E-01  0.51100000000E-03 0. -1.
         11    1    4    4    0    0 -0.20072975363E-01 -0.41024053820E-01  0.60396202287E-01  0.75722253687E-01  0.51100000000E-03 0.  1.
</event>
<event>
 8    1  0.1022673E+005  0.1043930E+01  0.7957747E-01            NaN
         13   -1    0    0    0    0  0.00000000000E+00  0.00000000000E+00  0.74505805969E-08  0.10566000000E+00  0.10566000000E+00 0. -1.
     999900   -1    0    0    0    0 -0.00000000000E+00 -0.00000000000E+00 -0.74505805969E-08  0.93827000000E+00  0.93827000000E+00 0. -1.
     999902    2    1    2    0    0 -0.13318128497E-01  0.12498680517E-01 -0.15473239293E-01  0.10199923582E+01  0.10197114298E+01 0.  0.
     999903    2    3    3    0    0  0.49094189530E-01 -0.35484949944E-01 -0.11418074822E+00  0.13098116672E+00  0.21199095604E-01 0.  0.
         14    1    1    2    0    0  0.13318128497E-01 -0.12498680517E-01  0.15473239293E-01  0.23937641813E-01  0.00000000000E+00 0. -1.
     999901    1    3    3    0    0 -0.62412318027E-01  0.47983630460E-01  0.98707508923E-01  0.88901119147E+00  0.88000000000E+00 0.  1.
        -11    1    4    4    0    0  0.28073038022E-01 -0.17588392315E-01 -0.40679989465E-01  0.52464937548E-01  0.51100000000E-03 0. -1.
         11    1    4    4    0    0  0.21021151508E-01 -0.17896557629E-01 -0.73500758751E-01  0.78516229174E-01  0.51100000000E-03 0.  1.
</event>
<event>
 8    1  0.1022673E+005  0.1043930E+01  0.7957747E-01            NaN
         13   -1    0    0    0    0  0.00000000000E+00  0.00000000000E+00  0.74505805969E-08  0.10566000000E+00  0.10566000000E+00 0. -1.
     999900   -1    0    0    0    0 -0.00000000000E+00 -0.00000000000E+00 -0.74505805969E-08  0.93827000000E+00  0.93827000000E+00 0. -1.
     999902    2    1    2    0    0 -0.89686842830E-02 -0.86910053740E-03  0.21582262280E-01  0.10205422537E+01  0.10202742302E+01 0.  0.
     999903    2    3    3    0    0 -0.97574077044E-01 -0.85881231760E-01  0.11806210017E-01  0.13196274159E+00  0.19454873250E-01 0.  0.
         14    1    1    2    0    0  0.89686842830E-02  0.86910053740E-03 -0.21582262280E-01  0.23387746336E-01  0.00000000000E+00 0.  1.
     999901    1    3    3    0    0  0.88605392761E-01  0.85012131223E-01  0.97760522636E-02  0.88857951207E+00  0.88000000000E+00 0.  1.
        -11    1    4    4    0    0 -0.49554147536E-01 -0.41616304421E-01 -0.37593586429E-02  0.64822251041E-01  0.51100000000E-03 0. -1.
         11    1    4    4    0    0 -0.48019929508E-01 -0.44264927340E-01  0.15565568660E-01  0.67140490548E-01  0.51100000000E-03 0.  1.
</event>
<event>
 8    1  0.1022673E+005  0.1043930E+01  0.7957747E-01            NaN
         13   -1    0    0    0    0  0.00000000000E+00  0.00000000000E+00  0.74505805969E-08  0.10566000000E+00  0.10566000000E+00 0.  1.
     999900   -1    0    0    0    0 -0.00000000000E+00 -0.00000000000E+00 -0.74505805969E-08  0.93827000000E+00  0.93827000000E+00 0. -1.
     999902    2    1    2    0    0 -0.20715626327E-01  0.97286595127E-02  0.64834343924E-03  0.10210344908E+01  0.10207777560E+01 0.  0.
     999903    2    3    3    0    0 -0.73141792389E-01 -0.75527960568E-01 -0.77073236013E-01  0.13195753239E+00  0.20452677645E-01 0.  0.
         14    1    1    2    0    0  0.20715626327E-01 -0.97286595127E-02 -0.64834343924E-03  0.22895509150E-01  0.00000000000E+00 0.  1.
     999901    1    3    3    0    0  0.52426166062E-01  0.85256620081E-01  0.77721579452E-01  0.88907695846E+00  0.88000000000E+00 0.  1.
        -11    1    4    4    0    0 -0.38626938718E-01 -0.25907078640E-01 -0.36993619863E-01  0.59430683573E-01  0.51100000000E-03 0. -1.
         11    1    4    4    0    0 -0.34514853671E-01 -0.49620881928E-01 -0.40079616150E-01  0.72526848815E-01  0.51100000000E-03 0.  1.
</event>
<event>
 8    1  0.1022673E+005  0.1043930E+01  0.7957747E-01            NaN
         13   -1    0    0    0    0  0.00000000000E+00  0.00000000000E+00  0.74505805969E-08  0.10566000000E+00  0.10566000000E+00 0. -1.
     999900   -1    0    0    0    0 -0.00000000000E+00 -0.00000000000E+00 -0.74505805969E-08  0.93827000000E+00  0.93827000000E+00 0. -1.
     999902    2    1    2    0    0  0.16429318442E-02  0.18044977322E-01 -0.12674997251E-01  0.10218171986E+01  0.10215779027E+01 0.  0.
     999903    2    3    3    0    0 -0.53852490367E-01 -0.16036286844E-01 -0.11903184540E+00  0.13302416665E+00  0.19224866152E-01 0.  0.
         14    1    1    2    0    0 -0.16429318442E-02 -0.18044977322E-01  0.12674997251E-01  0.22112801426E-01  0.00000000000E+00 0. -1.
     999901    1    3    3    0    0  0.55495422211E-01  0.34081264166E-01  0.10635684815E+00  0.88879303193E+00  0.88000000000E+00 0.  1.
        -11    1    4    4    0    0 -0.23021873644E-01  0.27209064731E-02 -0.42698965854E-01  0.48588813569E-01  0.51100000000E-03 0. -1.
         11    1    4    4    0    0 -0.30830616724E-01 -0.18757193317E-01 -0.76332879545E-01  0.84435353078E-01  0.51100000000E-03 0.  1.
</event>
<event>
 8    1  0.1022673E+005  0.1043930E+01  0.7957747E-01            NaN
         13   -1    0    0    0    0  0.00000000000E+00  0.00000000000E+00  0.74505805969E-08  0.10566000000E+00  0.10566000000E+00 0. -1.
     999900   -1    0    0    0    0 -0.00000000000E+00 -0.00000000000E+00 -0.74505805969E-08  0.93827000000E+00  0.93827000000E+00 0.  1.
     999902    2    1    2    0    0  0.57577257193E-02 -0.14117883698E-01 -0.21541886682E-01  0.10175383550E+01  0.10171960405E+01 0.  0.
     999903    2    3    3    0    0 -0.78031948911E-01 -0.97859173689E-01 -0.26583848539E-01  0.12958636606E+00  0.20506641375E-01 0.  0.
         14    1    1    2    0    0 -0.57577257193E-02  0.14117883698E-01  0.21541886682E-01  0.26391645030E-01  0.00000000000E+00 0. -1.
     999901    1    3    3    0    0  0.83789674630E-01  0.83741289991E-01  0.50419618573E-02  0.88795198891E+00  0.88000000000E+00 0.  1.
        -11    1    4    4    0    0 -0.65468031746E-02 -0.21490223116E-02  0.10031757256E-02  0.69818630207E-02  0.51100000000E-03 0. -1.
         11    1    4    4    0    0 -0.71485145736E-01 -0.95710151378E-01 -0.27587024264E-01  0.12260450304E+00  0.51100000000E-03 0.  1.
</event>
<event>
 8    1  0.1022673E+005  0.1043930E+01  0.7957747E-01            NaN
         13   -1    0    0    0    0  0.00000000000E+00  0.00000000000E+00  0.74505805969E-08  0.10566000000E+00  0.10566000000E+00 0.  1.
     999900   -1    0    0    0    0 -0.00000000000E+00 -0.00000000000E+00 -0.74505805969E-08  0.93827000000E+00  0.93827000000E+00 0.  1.
     999902    2    1    2    0    0 -0.34533475140E-02 -0.10382986878E-01 -0.20839317385E-01  0.10203926005E+01  0.10201210958E+01 0.  0.
     999903    2    3    3    0    0 -0.10479182381E+00  0.70843410396E-01 -0.26743120016E-01  0.13084098915E+00  0.20101115382E-01 0.  0.
         14    1    1    2    0    0  0.34533475140E-02  0.10382986878E-01  0.20839317385E-01  0.23537399487E-01  0.00000000000E+00 0.  1.
     999901    1    3    3    0    0  0.10133847630E+00 -0.81226397274E-01  0.59038026306E-02  0.88955161136E+00  0.88000000000E+00 0. -1.
        -11    1    4    4    0    0 -0.38923129754E-01  0.31253481917E-01 -0.14788908285E-02  0.49942350775E-01  0.51100000000E-03 0.  1.
         11    1    4    4    0    0 -0.65868694056E-01  0.39589928479E-01 -0.25264229187E-01  0.80898638375E-01  0.51100000000E-03 0. -1.
</event>
<event>
 8    1  0.1022673E+005  0.1043930E+01  0.7957747E-01            NaN
         13   -1    0    0    0    0  0.00000000000E+00  0.00000000000E+00  0.74505805969E-08  0.10566000000E+00  0.10566000000E+00 0. -1.
     999900   -1    0    0    0    0 -0.00000000000E+00 -0.00000000000E+00 -0.74505805969E-08  0.93827000000E+00  0.93827000000E+00 0.  1.
     999902    2    1    2    0    0 -0.14152054678E-01  0.17502247069E-01 -0.77221092287E-02  0.10201341963E+01  0.10198566263E+01 0.  0.
     999903    2    3    3    0    0 -0.81021365246E-01  0.40322731268E-01  0.93411598576E-01  0.13152837475E+00  0.19585768606E-01 0.  0.
         14    1    1    2    0    0  0.14152054678E-01 -0.17502247069E-01  0.77221092287E-02  0.23795803727E-01  0.00000000000E+00 0.  1.
     999901    1    3    3    0    0  0.66869310567E-01 -0.22820484199E-01 -0.10113370781E+00  0.88860582153E+00  0.88000000000E+00 0.  1.
        -11    1    4    4    0    0 -0.75782421078E-01  0.32725321189E-01  0.88646433028E-01  0.12112957195E+00  0.51100000000E-03 0. -1.
         11    1    4    4    0    0 -0.52389441682E-02  0.75974100789E-02  0.47651655482E-02  0.10398802797E-01  0.51100000000E-03 0.  1.
</event>
<event>
 8    1  0.1022673E+005  0.1043930E+01  0.7957747E-01            NaN
         13   -1    0    0    0    0  0.00000000000E+00  0.00000000000E+00  0.74505805969E-08  0.10566000000E+00  0.10566000000E+00 0. -1.
     999900   -1    0    0    0    0 -0.00000000000E+00 -0.00000000000E+00 -0.74505805969E-08  0.93827000000E+00  0.93827000000E+00 0.  1.
     999902    2    1    2    0    0  0.11140788999E-02  0.17291944041E-01  0.73654137914E-02  0.10251017813E+01  0.10249288561E+01 0.  0.
     999903    2    3    3    0    0  0.34473815612E-02 -0.12786273580E+00 -0.27944063054E-01  0.13250888159E+00  0.20419828481E-01 0.  0.
         14    1    1    2    0    0 -0.11140788999E-02 -0.17291944041E-01 -0.73654137914E-02  0.18828218738E-01  0.00000000000E+00 0. -1.
     999901    1    3    3    0    0 -0.23333026614E-02  0.14515467984E+00  0.35309476845E-01  0.89259289967E+00  0.88000000000E+00 0. -1.
        -11    1    4    4    0    0  0.10592885375E-01 -0.53118719967E-01 -0.74595009791E-02  0.54678267230E-01  0.51100000000E-03 0.  1.
         11    1    4    4    0    0 -0.71455038142E-02 -0.74744015835E-01 -0.20484562075E-01  0.77830614364E-01  0.51100000000E-03 0. -1.
</event>
<event>
 8    1  0.1022673E+005  0.1043930E+01  0.7957747E-01            NaN
         13   -1    0    0    0    0  0.00000000000E+00  0.00000000000E+00  0.74505805969E-08  0.10566000000E+00  0.10566000000E+00 0.  1.
     999900   -1    0    0    0    0 -0.00000000000E+00 -0.00000000000E+00 -0.74505805969E-08  0.93827000000E+00  0.93827000000E+00 0.  1.
     999902    2    1    2    0    0  0.16958457412E-01  0.22465821714E-02 -0.15975277787E-01  0.10205238916E+01  0.10202554423E+01 0.  0.
     999903    2    3    3    0    0  0.31991750141E-01 -0.23044620421E-01  0.12160994681E+00  0.12934751242E+00  0.19679258078E-01 0.  0.
         14    1    1    2    0    0 -0.16958457412E-01 -0.22465821714E-02  0.15975277787E-01  0.23406108383E-01  0.00000000000E+00 0.  1.
     999901    1    3    3    0    0 -0.15033292728E-01  0.25291202592E-01 -0.13758522459E+00  0.89117637920E+00  0.88000000000E+00 0.  1.
        -11    1    4    4    0    0  0.26458221600E-01 -0.10202873095E-01  0.96735911295E-01  0.10080790527E+00  0.51100000000E-03 0.  1.
         11    1    4    4    0    0  0.55335285403E-02 -0.12841747325E-01  0.24874035512E-01  0.28539607147E-01  0.51100000000E-03 0. -1.
</event>
<event>
 7    1  0.1022673E+005  0.1043930E+01  0.7957747E-01            NaN
         13   -1    0    0    0    0  0.00000000000E+00  0.00000000000E+00  0.74505805969E-08  0.10566000000E+00  0.10566000000E+00 0.  1.
     999900   -1    0    0    0    0 -0.00000000000E+00 -0.00000000000E+00 -0.74505805969E-08  0.93827000000E+00  0.93827000000E+00 0. -1.
     999903    2    1    2    0    0 -0.80850916222E-01 -0.40967260517E-01 -0.52260779501E-01  0.10662809451E+00  0.20571202613E-01 0.  0.
         14    1    1    2    0    0  0.14156018455E-01 -0.40320906711E-01 -0.21763313056E-01  0.47956336095E-01  0.00000000000E+00 0. -1.
     999901    1    1    2    0    0  0.66694897767E-01  0.81288167228E-01  0.74024092557E-01  0.88934556939E+00  0.88000000000E+00 0.  1.
        -11    1    3    3    0    0 -0.47760384827E-01 -0.13095989575E-01 -0.24870213523E-01  0.55419743264E-01  0.51100000000E-03 0. -1.
         11    1    3    3    0    0 -0.33090531395E-01 -0.27871270942E-01 -0.27390565978E-01  0.51208351248E-01  0.51100000000E-03 0.  1.
</event>
<event>
 8    1  0.1022673E+005  0.1043930E+01  0.7957747E-01            NaN
         13   -1    0    0    0    0  0.00000000000E+00  0.00000000000E+00  0.74505805969E-08  0.10566000000E+00  0.10566000000E+00 0. -1.
     999900   -1    0    0    0    0 -0.00000000000E+00 -0.00000000000E+00 -0.74505805969E-08  0.93827000000E+00  0.93827000000E+00 0.  1.
     999902    2    1    2    0    0 -0.21227611664E-01 -0.99543279748E-02 -0.46669237992E-02  0.10200243454E+01  0.10197441762E+01 0.  0.
     999903    2    3    3    0    0 -0.19480602308E-01  0.83541405566E-01 -0.96063657357E-01  0.13036268664E+00  0.20187706457E-01 0.  0.
         14    1    1    2    0    0  0.21227611664E-01  0.99543279748E-02  0.46669237992E-02  0.23905654564E-01  0.00000000000E+00 0.  1.
     999901    1    3    3    0    0 -0.17470093562E-02 -0.93495733541E-01  0.91396733558E-01  0.88966165880E+00  0.88000000000E+00 0. -1.
        -11    1    4    4    0    0  0.41639090560E-02  0.11980628715E-01 -0.12142962129E-01  0.17566623275E-01  0.51100000000E-03 0. -1.
         11    1    4    4    0    0 -0.23644511364E-01  0.71560776851E-01 -0.83920695228E-01  0.11279606336E+00  0.51100000000E-03 0.  1.
</event>
<event>
 8    1  0.1022673E+005  0.1043930E+01  0.7957747E-01            NaN
         13   -1    0    0    0    0  0.00000000000E+00  0.00000000000E+00  0.74505805969E-08  0.10566000000E+00  0.10566000000E+00 0.  1.
     999900   -1    0    0    0    0 -0.00000000000E+00 -0.00000000000E+00 -0.74505805969E-08  0.93827000000E+00  0.93827000000E+00 0.  1.
     999902    2    1    2    0    0 -0.54366228207E-03 -0.23329481410E-01  0.40473247174E-02  0.10202458047E+01  0.10199708627E+01 0.  0.
     999903    2    3    3    0    0  0.89319146756E-01  0.29411176568E-01  0.87685280049E-01  0.13016029808E+00  0.20250125298E-01 0.  0.
         14    1    1    2    0    0  0.54366228207E-03  0.23329481410E-01 -0.40473247174E-02  0.23684195340E-01  0.00000000000E+00 0. -1.
     999901    1    3    3    0    0 -0.89862809038E-01 -0.52740657979E-01 -0.83637955331E-01  0.89008550658E+00  0.88000000000E+00 0.  1.
        -11    1    4    4    0    0  0.42041455487E-01  0.62304234700E-02  0.48716668258E-01  0.64651968595E-01  0.51100000000E-03 0.  1.
         11    1    4    4    0    0  0.47277691269E-01  0.23180753098E-01  0.38968611791E-01  0.65508329484E-01  0.51100000000E-03 0. -1.
</event>
<event>
 8    1  0.1022673E+005  0.1043930E+01  0.7957747E-01            NaN
         13   -1    0    0    0    0  0.00000000000E+00  0.00000000000E+00  0.74505805969E-08  0.10566000000E+00  0.10566000000E+00 0. -1.
     999900   -1    0    0    0    0 -0.00000000000E+00 -0.00000000000E+00 -0.74505805969E-08  0.93827000000E+00  0.93827000000E+00 0. -1.
     999902    2    1    2    0    0  0.18333828653E-01 -0.13544100737E-01 -0.68780678362E-02  0.10201207632E+01  0.10198428761E+01 0.  0.
     999903    2    3    3    0    0 -0.71130911827E-01  0.78763873761E-01 -0.69217001974E-01  0.12859911760E+00  0.21986024127E-01 0.  0.
         14    1    1    2    0    0 -0.18333828653E-01  0.13544100737E-01  0.68780678362E-02  0.23809236759E-01  0.00000000000E+00 0. -1.
     999901    1    3    3    0    0  0.89464740481E-01 -0.92307974498E-01  0.62338934138E-01  0.89152164565E+00  0.88000000000E+00 0.  1.
        -11    1    4    4    0    0 -0.18684187003E-01  0.16390963752E-01 -0.27418671524E-01  0.37010906579E-01  0.51100000000E-03 0.  1.
         11    1    4    4    0    0 -0.52446724825E-01  0.62372910009E-01 -0.41798330450E-01  0.91588211017E-01  0.51100000000E-03 0. -1.
</event>
<event>
 8    1  0.1022673E+005  0.1043930E+01  0.7957747E-01            NaN
         13   -1    0    0    0    0  0.00000000000E+00  0.00000000000E+00  0.74505805969E-08  0.10566000000E+00  0.10566000000E+00 0.  1.
     999900   -1    0    0    0    0 -0.00000000000E+00 -0.00000000000E+00 -0.74505805969E-08  0.93827000000E+00  0.93827000000E+00 0. -1.
     999902    2    1    2    0    0  0.74043535533E-02 -0.21537464720E-01 -0.10298251487E-01  0.10189351841E+01  0.10186285724E+01 0.  0.
     999903    2    3    3    0    0  0.45420642019E-01  0.87837678284E-01  0.77427605188E-01  0.12702488254E+00  0.19020890944E-01 0.  0.
         14    1    1    2    0    0 -0.74043535533E-02  0.21537464720E-01  0.10298251487E-01  0.24994815898E-01  0.00000000000E+00 0.  1.
     999901    1    3    3    0    0 -0.38016288466E-01 -0.10937514300E+00 -0.87725856675E-01  0.89191030156E+00  0.88000000000E+00 0. -1.
        -11    1    4    4    0    0  0.12847901303E-01  0.44603031645E-01  0.32346989608E-01  0.56578157071E-01  0.51100000000E-03 0. -1.
         11    1    4    4    0    0  0.32572740717E-01  0.43234646639E-01  0.45080615580E-01  0.70446725473E-01  0.51100000000E-03 0.  1.
</event>
<event>
 8    1  0.1022673E+005  0.1043930E+01  0.7957747E-01            NaN
         13   -1    0    0    0    0  0.00000000000E+00  0.00000000000E+00  0.74505805969E-08  0.10566000000E+00  0.10566000000E+00 0. -1.
     999900   -1    0    0    0    0 -0.00000000000E+00 -0.00000000000E+00 -0.74505805969E-08  0.93827000000E+00  0.93827000000E+00 0.  1.
     999902    2    1    2    0    0  0.32552198443E-02 -0.17694306863E-01 -0.88547077314E-02  0.10238777981E+01  0.10236814224E+01 0.  0.
     999903    2    3    3    0    0  0.31733027549E-01  0.18660535524E-01 -0.12800436655E+00  0.13464818699E+00  0.19743752948E-01 0.  0.
         14    1    1    2    0    0 -0.32552198443E-02  0.17694306863E-01  0.88547077314E-02  0.20052201889E-01  0.00000000000E+00 0. -1.
     999901    1    3    3    0    0 -0.28477807705E-01 -0.36354842387E-01  0.11914965882E+00  0.88922961112E+00  0.88000000000E+00 0. -1.
        -11    1    4    4    0    0  0.21469821587E-01  0.22716347578E-02 -0.80746879407E-01  0.83584886304E-01  0.51100000000E-03 0.  1.
         11    1    4    4    0    0  0.10263205963E-01  0.16388900766E-01 -0.47257487143E-01  0.51063300686E-01  0.51100000000E-03 0. -1.
</event>
<event>
 8    1  0.1022673E+005  0.1043930E+01  0.7957747E-01            NaN
         13   -1    0    0    0    0  0.00000000000E+00  0.00000000000E+00  0.74505805969E-08  0.10566000000E+00  0.10566000000E+00 0. -1.
     999900   -1    0    0    0    0 -0.00000000000E+00 -0.00000000000E+00 -0.74505805969E-08  0.93827000000E+00  0.93827000000E+00 0.  1.
     999902    2    1    2    0    0  0.20030122559E-01 -0.37386653535E-03  0.10813865750E-01  0.10211641203E+01  0.10209103170E+01 0.  0.
     999903    2    3    3    0    0  0.98676239151E-02 -0.10683528220E+00 -0.71891089301E-01  0.13083978671E+00  0.20966009171E-01 0.  0.
         14    1    1    2    0    0 -0.20030122559E-01  0.37386653535E-03 -0.10813865750E-01  0.22765879697E-01  0.00000000000E+00 0. -1.
     999901    1    3    3    0    0  0.10162498644E-01  0.10646141566E+00  0.82704955050E-01  0.89032433360E+00  0.88000000000E+00 0. -1.
        -11    1    4    4    0    0  0.15874573259E-01 -0.90927174851E-01 -0.60332927410E-01  0.11027273667E+00  0.51100000000E-03 0.  1.
         11    1    4    4    0    0 -0.60069493441E-02 -0.15908107348E-01 -0.11558161890E-01  0.20567050034E-01  0.51100000000E-03 0. -1.
</event>
<event>
 8    1  0.1022673E+005  0.1043930E+01  0.7957747E-01            NaN
         13   -1    0    0    0    0  0.00000000000E+00  0.00000000000E+00  0.74505805969E-08  0.10566000000E+00  0.10566000000E+00 0.  1.
     999900   -1    0    0    0    0 -0.00000000000E+00 -0.00000000000E+00 -0.74505805969E-08  0.93827000000E+00  0.93827000000E+00 0.  1.
     999902    2    1    2    0    0  0.34344961524E-02  0.19579301499E-01 -0.15326961639E-01  0.10188289928E+01  0.10185197376E+01 0.  0.
     999903    2    3    3    0    0  0.72996027548E-01  0.10622975232E+00  0.15225417969E-01  0.13131529982E+00  0.19967831563E-01 0.  0.
         14    1    1    2    0    0 -0.34344961524E-02 -0.19579301499E-01  0.15326961639E-01  0.25101007233E-01  0.00000000000E+00 0.  1.
     999901    1    3    3    0    0 -0.69561531395E-01 -0.86650450822E-01 -0.30552379608E-01  0.88751369295E+00  0.88000000000E+00 0.  1.
        -11    1    4    4    0    0  0.40641362907E-01  0.74196331617E-01  0.56593981524E-02  0.84788595417E-01  0.51100000000E-03 0.  1.
         11    1    4    4    0    0  0.32354664641E-01  0.32033420704E-01  0.95660198167E-02  0.46526704398E-01  0.51100000000E-03 0. -1.
</event>
<event>
 8    1  0.1022673E+005  0.1043930E+01  0.7957747E-01            NaN
         13   -1    0    0    0    0  0.00000000000E+00  0.00000000000E+00  0.74505805969E-08  0.10566000000E+00  0.10566000000E+00 0.  1.
     999900   -1    0    0    0    0 -0.00000000000E+00 -0.00000000000E+00 -0.74505805969E-08  0.93827000000E+00  0.93827000000E+00 0. -1.
     999902    2    1    2    0    0  0.15670789184E-01 -0.14381838387E-01  0.95580772336E-02  0.10206111718E+01  0.10203447438E+01 0.  0.
     999903    2    3    3    0    0 -0.71948251709E-02 -0.87997582719E-01  0.97221293409E-01  0.13290234925E+00  0.20389077229E-01 0.  0.
         14    1    1    2    0    0 -0.15670789184E-01  0.14381838387E-01 -0.95580772336E-02  0.23318828217E-01  0.00000000000E+00 0. -1.
     999901    1    3    3    0    0  0.22865614355E-01  0.73615744333E-01 -0.87663216175E-01  0.88770882253E+00  0.88000000000E+00 0. -1.
        -11    1    4    4    0    0 -0.36694436152E-02 -0.25512183835E-01  0.15913002555E-01  0.30295562576E-01  0.51100000000E-03 0. -1.
         11    1    4    4    0    0 -0.35253815557E-02 -0.62485398884E-01  0.81308290854E-01  0.10260678667E+00  0.51100000000E-03 0.  1.
</event>
<event>
 8    1  0.1272224E+005  0.1043930E+01  0.7957747E-01            NaN
         13   -1    0    0    0    0  0.00000000000E+00  0.00000000000E+00  0.74505805969E-08  0.10566000000E+00  0.10566000000E+00 0. -1.
     999900   -1    0    0    0    0 -0.00000000000E+00 -0.00000000000E+00 -0.74505805969E-08  0.93827000000E+00  0.93827000000E+00 0. -1.
     999902    2    1    2    0    0 -0.15349077237E-01  0.91952969262E-02 -0.14855063879E-01  0.10206744505E+01  0.10204094832E+01 0.  0.
     999903    2    3    3    0    0 -0.79127864289E-01  0.57978938499E-01 -0.88779270962E-01  0.13393189165E+00  0.20813851928E-01 0.  0.
         14    1    1    2    0    0  0.15349077237E-01 -0.91952969262E-02  0.14855063879E-01  0.23255549454E-01  0.00000000000E+00 0. -1.
     999901    1    3    3    0    0  0.63778787052E-01 -0.48783641573E-01  0.73924207084E-01  0.88674255890E+00  0.88000000000E+00 0.  1.
        -11    1    4    4    0    0 -0.61326939507E-01  0.39176171801E-01 -0.54247172238E-01  0.90767740763E-01  0.51100000000E-03 0.  1.
         11    1    4    4    0    0 -0.17800924782E-01  0.18802766698E-01 -0.34532098724E-01  0.43164150888E-01  0.51100000000E-03 0. -1.
</event>
<event>
 8    1  0.1022673E+005  0.1043930E+01  0.7957747E-01            NaN
         13   -1    0    0    0    0  0.00000000000E+00  0.00000000000E+00  0.74505805969E-08  0.10566000000E+00  0.10566000000E+00 0. -1.
     999900   -1    0    0    0    0 -0.00000000000E+00 -0.00000000000E+00 -0.74505805969E-08  0.93827000000E+00  0.93827000000E+00 0. -1.
     999902    2    1    2    0    0 -0.11949253608E-01  0.18646924993E-01  0.84128026247E-02  0.10202389105E+01  0.10199638066E+01 0.  0.
     999903    2    3    3    0    0 -0.65223211612E-02  0.97451749511E-01 -0.86201225031E-01  0.13164931671E+00  0.19013343690E-01 0.  0.
         14    1    1    2    0    0  0.11949253608E-01 -0.18646924993E-01 -0.84128026247E-02  0.23691089496E-01  0.00000000000E+00 0. -1.
     999901    1    3    3    0    0 -0.54269324468E-02 -0.78804824518E-01  0.94614027656E-01  0.88858959379E+00  0.88000000000E+00 0.  1.
        -11    1    4    4    0    0  0.13312900617E-02  0.33439814682E-01 -0.40828077351E-01  0.52793811762E-01  0.51100000000E-03 0. -1.
         11    1    4    4    0    0 -0.78536112230E-02  0.64011934829E-01 -0.45373147680E-01  0.78855504952E-01  0.51100000000E-03 0.  1.
</event>
<event>
 8    1  0.1022673E+005  0.1043930E+01  0.7957747E-01            NaN
         13   -1    0    0    0    0  0.00000000000E+00  0.00000000000E+00  0.74505805969E-08  0.10566000000E+00  0.10566000000E+00 0.  1.
     999900   -1    0    0    0    0 -0.00000000000E+00 -0.00000000000E+00 -0.74505805969E-08  0.93827000000E+00  0.93827000000E+00 0.  1.
     999902    2    1    2    0    0  0.51973862143E-02  0.23246327675E-01 -0.19991434868E-02  0.10200260014E+01  0.10197458715E+01 0.  0.
     999903    2    3    3    0    0 -0.11571694118E+00  0.55379517768E-01 -0.14399654072E-01  0.13109035181E+00  0.22804140743E-01 0.  0.
         14    1    1    2    0    0 -0.51973862143E-02 -0.23246327675E-01  0.19991434868E-02  0.23903998588E-01  0.00000000000E+00 0.  1.
     999901    1    3    3    0    0  0.12091432740E+00 -0.32133190093E-01  0.12400510585E-01  0.88893564960E+00  0.88000000000E+00 0. -1.
        -11    1    4    4    0    0 -0.61546094761E-01  0.21159219413E-01  0.13849907496E-02  0.65098492048E-01  0.51100000000E-03 0.  1.
         11    1    4    4    0    0 -0.54170846420E-01  0.34220298355E-01 -0.15784644822E-01  0.65991859760E-01  0.51100000000E-03 0. -1.
</event>
<event>
 8    1  0.1022673E+005  0.1043930E+01  0.7957747E-01            NaN
         13   -1    0    0    0    0  0.00000000000E+00  0.00000000000E+00  0.74505805969E-08  0.10566000000E+00  0.10566000000E+00 0.  1.
     999900   -1    0    0    0    0 -0.00000000000E+00 -0.00000000000E+00 -0.74505805969E-08  0.93827000000E+00  0.93827000000E+00 0. -1.
     999902    2    1    2    0    0 -0.94669822018E-02  0.19571610667E-01  0.95562359270E-02  0.10201814560E+01  0.10199050004E+01 0.  0.
     999903    2    3    3    0    0  0.27233241122E-02  0.70594661448E-01 -0.10813328768E+00  0.13079808579E+00  0.20598752897E-01 0.  0.
         14    1    1    2    0    0  0.94669822018E-02 -0.19571610667E-01 -0.95562359270E-02  0.23748543981E-01  0.00000000000E+00 0. -1.
     999901    1    3    3    0    0 -0.12190306314E-01 -0.51023050781E-01  0.11768952361E+00  0.88938337023E+00  0.88000000000E+00 0.  1.
        -11    1    4    4    0    0 -0.86546126841E-02  0.35654814259E-01 -0.49909625852E-01  0.61946751120E-01  0.51100000000E-03 0.  1.
         11    1    4    4    0    0  0.11377936796E-01  0.34939847189E-01 -0.58223661832E-01  0.68851334667E-01  0.51100000000E-03 0. -1.
</event>
<event>
 8    1  0.1022673E+005  0.1043930E+01  0.7957747E-01            NaN
         13   -1    0    0    0    0  0.00000000000E+00  0.00000000000E+00  0.74505805969E-08  0.10566000000E+00  0.10566000000E+00 0.  1.
     999900   -1    0    0    0    0 -0.00000000000E+00 -0.00000000000E+00 -0.74505805969E-08  0.93827000000E+00  0.93827000000E+00 0.  1.
     999902    2    1    2    0    0 -0.19444533697E-02  0.23459184857E-01  0.68250719416E-03  0.10203804762E+01  0.10201086884E+01 0.  0.
     999903    2    3    3    0    0 -0.26430234428E-01 -0.83993641008E-01 -0.91804561784E-01  0.12869694427E+00  0.19527848813E-01 0.  0.
         14    1    1    2    0    0  0.19444533697E-02 -0.23459184857E-01 -0.68250719416E-03  0.23549523756E-01  0.00000000000E+00 0.  1.
     999901    1    3    3    0    0  0.24485781059E-01  0.10745282586E+00  0.92487068978E-01  0.89168353197E+00  0.88000000000E+00 0. -1.
        -11    1    4    4    0    0 -0.82676180791E-02 -0.29957390178E-01 -0.46244307453E-01  0.55718900095E-01  0.51100000000E-03 0.  1.
         11    1    4    4    0    0 -0.18162616349E-01 -0.54036250830E-01 -0.45560254331E-01  0.72978044179E-01  0.51100000000E-03 0. -1.
</event>
<event>
 8    1  0.1022673E+005  0.1043930E+01  0.7957747E-01            NaN
         13   -1    0    0    0    0  0.00000000000E+00  0.00000000000E+00  0.74505805969E-08  0.10566000000E+00  0.10566000000E+00 0. -1.
     999900   -1    0    0    0    0 -0.00000000000E+00 -0.00000000000E+00 -0.74505805969E-08  0.93827000000E+00  0.93827000000E+00 0. -1.
     999902    2    1    2    0    0 -0.19087731597E-01 -0.77078078275E-02  0.20427069890E-01  0.10149297072E+01  0.10145152998E+01 0.  0.
     999903    2    3    3    0    0  0.58221895180E-01 -0.17723157527E-01 -0.10474678625E+00  0.12265980414E+00  0.19225996210E-01 0.  0.
         14    1    1    2    0    0  0.19087731597E-01  0.77078078275E-02 -0.20427069890E-01  0.29000292814E-01  0.00000000000E+00 0.  1.
     999901    1    3    3    0    0 -0.77309626776E-01  0.10015349700E-01  0.12517385614E+00  0.89226990305E+00  0.88000000000E+00 0.  1.
        -11    1    4    4    0    0  0.27471579283E-01 -0.16938058231E-01 -0.44031053307E-01  0.54594690780E-01  0.51100000000E-03 0.  1.
         11    1    4    4    0    0  0.30750315896E-01 -0.78509929610E-03 -0.60715732945E-01  0.68065113360E-01  0.51100000000E-03 0. -1.
</event>
<event>
 8    1  0.1022673E+005  0.1043930E+01  0.7957747E-01            NaN
         13   -1    0    0    0    0  0.00000000000E+00  0.00000000000E+00  0.74505805969E-08  0.10566000000E+00  0.10566000000E+00 0. -1.
     999900   -1    0    0    0    0 -0.00000000000E+00 -0.00000000000E+00 -0.74505805969E-08  0.93827000000E+00  0.93827000000E+00 0. -1.
     999902    2    1    2    0    0 -0.11626856320E-01  0.20147550183E-01 -0.17460764098E-02  0.10206028410E+01  0.10203362204E+01 0.  0.
     999903    2    3    3    0    0  0.20376906417E-01 -0.12291659958E+00  0.21042816422E-01  0.12818425900E+00  0.21556793932E-01 0.  0.
         14    1    1    2    0    0  0.11626856320E-01 -0.20147550183E-01  0.17460764098E-02  0.23327159045E-01  0.00000000000E+00 0. -1.
     999901    1    3    3    0    0 -0.32003762736E-01  0.14306414977E+00 -0.22788892832E-01  0.89241858195E+00  0.88000000000E+00 0. -1.
        -11    1    4    4    0    0  0.13112099389E-01 -0.54795662309E-01  0.19610774486E-01  0.59660165565E-01  0.51100000000E-03 0.  1.
         11    1    4    4    0    0  0.72648070279E-02 -0.68120937275E-01  0.14320419363E-02  0.68524093438E-01  0.51100000000E-03 0. -1.
</event>
<event>
 8    1  0.1022673E+005  0.1043930E+01  0.7957747E-01            NaN
         13   -1    0    0    0    0  0.00000000000E+00  0.00000000000E+00  0.74505805969E-08  0.10566000000E+00  0.10566000000E+00 0.  1.
     999900   -1    0    0    0    0 -0.00000000000E+00 -0.00000000000E+00 -0.74505805969E-08  0.93827000000E+00  0.93827000000E+00 0.  1.
     999902    2    1    2    0    0  0.35204229192E-02  0.14741192471E-01  0.18720004104E-01  0.10198440147E+01  0.10195595518E+01 0.  0.
     999903    2    3    3    0    0  0.95113734978E-01  0.65478390989E-01  0.61898239934E-01  0.13258533870E+00  0.20333166606E-01 0.  0.
         14    1    1    2    0    0 -0.35204229192E-02 -0.14741192471E-01 -0.18720004104E-01  0.24085985275E-01  0.00000000000E+00 0. -1.
     999901    1    3    3    0    0 -0.91593312059E-01 -0.50737198518E-01 -0.43178235830E-01  0.88725867602E+00  0.88000000000E+00 0. -1.
        -11    1    4    4    0    0  0.21025580525E-01  0.88642062166E-02  0.20055479380E-01  0.30383096657E-01  0.51100000000E-03 0.  1.
         11    1    4    4    0    0  0.74088154453E-01  0.56614184772E-01  0.41842760554E-01  0.10220224205E+00  0.51100000000E-03 0. -1.
</event>
<event>
 8    1  0.1022673E+005  0.1043930E+01  0.7957747E-01            NaN
         13   -1    0    0    0    0  0.00000000000E+00  0.00000000000E+00  0.74505805969E-08  0.10566000000E+00  0.10566000000E+00 0. -1.
     999900   -1    0    0    0    0 -0.00000000000E+00 -0.00000000000E+00 -0.74505805969E-08  0.93827000000E+00  0.93827000000E+00 0.  1.
     999902    2    1    2    0    0 -0.23287039508E-01 -0.78708943424E-02  0.55124369641E-03  0.10193425834E+01  0.10190460054E+01 0.  0.
     999903    2    3    3    0    0  0.53575409369E-01 -0.73095337605E-01  0.89824664137E-01  0.12910002786E+00  0.19623813028E-01 0.  0.
         14    1    1    2    0    0  0.23287039508E-01  0.78708943424E-02 -0.55124369641E-03  0.24587416627E-01  0.00000000000E+00 0. -1.
     999901    1    3    3    0    0 -0.76862448877E-01  0.65224443263E-01 -0.89273420441E-01  0.89024255551E+00  0.88000000000E+00 0.  1.
        -11    1    4    4    0    0  0.39470573893E-01 -0.44806102568E-01  0.68960288523E-01  0.91221135407E-01  0.51100000000E-03 0.  1.
         11    1    4    4    0    0  0.14104835476E-01 -0.28289235037E-01  0.20864375614E-01  0.37878892454E-01  0.51100000000E-03 0. -1.
</event>
<event>
 8    1  0.1022673E+005  0.1043930E+01  0.7957747E-01            NaN
         13   -1    0    0    0    0  0.00000000000E+00  0.00000000000E+00  0.74505805969E-08  0.10566000000E+00  0.10566000000E+00 0.  1.
     999900   -1    0    0    0    0 -0.00000000000E+00 -0.00000000000E+00 -0.74505805969E-08  0.93827000000E+00  0.93827000000E+00 0. -1.
     999902    2    1    2    0    0  0.12324342640E-01  0.25509855434E-02 -0.19997067428E-01  0.10203020578E+01  0.10200284356E+01 0.  0.
     999903    2    3    3    0    0 -0.57712438075E-01 -0.10927175532E+00  0.32171280287E-01  0.12893736667E+00  0.17855285728E-01 0.  0.
         14    1    1    2    0    0 -0.12324342640E-01 -0.25509855434E-02  0.19997067428E-01  0.23627942240E-01  0.00000000000E+00 0.  1.
     999901    1    3    3    0    0  0.70036780715E-01  0.11182274086E+00 -0.52168347715E-01  0.89136469109E+00  0.88000000000E+00 0. -1.
        -11    1    4    4    0    0 -0.75163255473E-02 -0.30771753474E-01  0.79789474499E-02  0.32669874273E-01  0.51100000000E-03 0. -1.
         11    1    4    4    0    0 -0.50196112527E-01 -0.78500001844E-01  0.24192332837E-01  0.96267492392E-01  0.51100000000E-03 0.  1.
</event>
<event>
 8    1  0.1022673E+005  0.1043930E+01  0.7957747E-01            NaN
         13   -1    0    0    0    0  0.00000000000E+00  0.00000000000E+00  0.74505805969E-08  0.10566000000E+00  0.10566000000E+00 0. -1.
     999900   -1    0    0    0    0 -0.00000000000E+00 -0.00000000000E+00 -0.74505805969E-08  0.93827000000E+00  0.93827000000E+00 0.  1.
     999902    2    1    2    0    0 -0.21108832932E-01 -0.10869167093E-01  0.19832284704E-02  0.10201044923E+01  0.10198262207E+01 0.  0.
     999903    2    3    3    0    0  0.11912550237E+00  0.38551596284E-01  0.13978092888E-01  0.12755087633E+00  0.19918034012E-01 0.  0.
         14    1    1    2    0    0  0.21108832932E-01  0.10869167093E-01 -0.19832284704E-02  0.23825507680E-01  0.00000000000E+00 0.  1.
     999901    1    3    3    0    0 -0.14023433531E+00 -0.49420763376E-01 -0.11994864418E-01  0.89255361599E+00  0.88000000000E+00 0.  1.
        -11    1    4    4    0    0  0.69665994492E-01  0.30217759898E-01  0.14881830064E-01  0.77383420633E-01  0.51100000000E-03 0.  1.
         11    1    4    4    0    0  0.49459507882E-01  0.83338363852E-02 -0.90373717569E-03  0.50167455693E-01  0.51100000000E-03 0. -1.
</event>
<event>
 8    1  0.1022673E+005  0.1043930E+01  0.7957747E-01            NaN
         13   -1    0    0    0    0  0.00000000000E+00  0.00000000000E+00  0.74505805969E-08  0.10566000000E+00  0.10566000000E+00 0.  1.
     999900   -1    0    0    0    0 -0.00000000000E+00 -0.00000000000E+00 -0.74505805969E-08  0.93827000000E+00  0.93827000000E+00 0. -1.
     999902    2    1    2    0    0  0.97814873685E-02  0.18904251338E-01 -0.86114703765E-02  0.10209690411E+01  0.10207108196E+01 0.  0.
     999903    2    3    3    0    0  0.49357422743E-02 -0.60020655946E-01  0.11325611383E+00  0.12905854649E+00  0.14223937858E-01 0.  0.
         14    1    1    2    0    0 -0.97814873685E-02 -0.18904251338E-01  0.86114703765E-02  0.22960958948E-01  0.00000000000E+00 0. -1.
     999901    1    3    3    0    0  0.48457450942E-02  0.78924907284E-01 -0.12186758421E+00  0.89191049457E+00  0.88000000000E+00 0. -1.
        -11    1    4    4    0    0 -0.12488567955E-02 -0.10085887026E-01  0.10380786237E-01  0.14536388970E-01  0.51100000000E-03 0. -1.
         11    1    4    4    0    0  0.61845990699E-02 -0.49934768920E-01  0.10287532760E+00  0.11452215752E+00  0.51100000000E-03 0.  1.
</event>
<event>
 8    1  0.1022673E+005  0.1043930E+01  0.7957747E-01            NaN
         13   -1    0    0    0    0  0.00000000000E+00  0.00000000000E+00  0.74505805969E-08  0.10566000000E+00  0.10566000000E+00 0.  1.
     999900   -1    0    0    0    0 -0.00000000000E+00 -0.00000000000E+00 -0.74505805969E-08  0.93827000000E+00  0.93827000000E+00 0.  1.
     999902    2    1    2    0    0  0.89489193647E-02 -0.16205690262E-01  0.71265514706E-02  0.10240932843E+01  0.10239011474E+01 0.  0.
     999903    2    3    3    0    0  0.19770559872E-01  0.10512737844E+00  0.76604927513E-01  0.13298943725E+00  0.19370977372E-01 0.  0.
         14    1    1    2    0    0 -0.89489193647E-02  0.16205690262E-01 -0.71265514706E-02  0.19836715719E-01  0.00000000000E+00 0. -1.
     999901    1    3    3    0    0 -0.10821640507E-01 -0.12133306870E+00 -0.69478376043E-01  0.89110384704E+00  0.88000000000E+00 0.  1.
        -11    1    4    4    0    0  0.23074678841E-01  0.95314677404E-01  0.66337034404E-01  0.11839844504E+00  0.51100000000E-03 0.  1.
         11    1    4    4    0    0 -0.33041189693E-02  0.98127010352E-02  0.10267893109E-01  0.14590992210E-01  0.51100000000E-03 0. -1.
</event>
<event>
 8    1  0.1022673E+005  0.1043930E+01  0.7957747E-01            NaN
         13   -1    0    0    0    0  0.00000000000E+00  0.00000000000E+00  0.74505805969E-08  0.10566000000E+00  0.10566000000E+00 0. -1.
     999900   -1    0    0    0    0 -0.00000000000E+00 -0.00000000000E+00 -0.74505805969E-08  0.93827000000E+00  0.93827000000E+00 0. -1.
     999902    2    1    2    0    0  0.10419991844E-01  0.21475787140E-01  0.45413673054E-02  0.10196316527E+01  0.10193420905E+01 0.  0.
     999903    2    3    3    0    0  0.21428793469E-01 -0.20670892705E-01 -0.12394828730E+00  0.12923447861E+00  0.21257787797E-01 0.  0.
         14    1    1    2    0    0 -0.10419991844E-01 -0.21475787140E-01 -0.45413673054E-02  0.24298347275E-01  0.00000000000E+00 0. -1.
     999901    1    3    3    0    0 -0.11008801625E-01  0.42146679844E-01  0.12848965460E+00  0.89039717412E+00  0.88000000000E+00 0.  1.
        -11    1    4    4    0    0 -0.69378392036E-03 -0.12966783785E-01 -0.38637001682E-01  0.40763928145E-01  0.51100000000E-03 0.  1.
         11    1    4    4    0    0  0.22122577389E-01 -0.77041089197E-02 -0.85311285617E-01  0.88470550463E-01  0.51100000000E-03 0. -1.
</event>
<event>
 8    1  0.1022673E+005  0.1043930E+01  0.7957747E-01            NaN
         13   -1    0    0    0    0  0.00000000000E+00  0.00000000000E+00  0.74505805969E-08  0.10566000000E+00  0.10566000000E+00 0.  1.
     999900   -1    0    0    0    0 -0.00000000000E+00 -0.00000000000E+00 -0.74505805969E-08  0.93827000000E+00  0.93827000000E+00 0. -1.
     999902    2    1    2    0    0  0.14647291319E-01  0.57919454435E-02  0.17412316032E-01  0.10204506788E+01  0.10201805278E+01 0.  0.
     999903    2    3    3    0    0  0.65600242851E-01  0.74309993266E-01  0.87271662428E-01  0.13356215455E+00  0.19928349245E-01 0.  0.
         14    1    1    2    0    0 -0.14647291319E-01 -0.57919454435E-02 -0.17412316032E-01  0.23479321212E-01  0.00000000000E+00 0.  1.
     999901    1    3    3    0    0 -0.50952951532E-01 -0.68518047823E-01 -0.69859346396E-01  0.88688852424E+00  0.88000000000E+00 0. -1.
        -11    1    4    4    0    0  0.10416186155E-01  0.14779355392E-01  0.26822763548E-01  0.32351940362E-01  0.51100000000E-03 0.  1.
         11    1    4    4    0    0  0.55184056695E-01  0.59530637874E-01  0.60448898880E-01  0.10121021419E+00  0.51100000000E-03 0. -1.
</event>
<event>
 8    1  0.1022673E+005  0.1043930E+01  0.7957747E-01            NaN
         13   -1    0    0    0    0  0.00000000000E+00  0.00000000000E+00  0.74505805969E-08  0.10566000000E+00  0.10566000000E+00 0.  1.
     999900   -1    0    0    0    0 -0.00000000000E+00 -0.00000000000E+00 -0.74505805969E-08  0.93827000000E+00  0.93827000000E+00 0. -1.
     999902    2    1    2    0    0  0.52714303856E-02 -0.21791316763E-01  0.86706981774E-02  0.10198918954E+01  0.10196085758E+01 0.  0.
     999903    2    3    3    0    0 -0.57691519937E-01  0.54967175383E-01 -0.98207762300E-01  0.12788337274E+00  0.18965510944E-01 0.  0.
         14    1    1    2    0    0 -0.52714303856E-02  0.21791316763E-01 -0.86706981774E-02  0.24038104573E-01  0.00000000000E+00 0. -1.
     999901    1    3    3    0    0  0.62962950323E-01 -0.76758492146E-01  0.10687846048E+00  0.89200852269E+00  0.88000000000E+00 0.  1.
        -11    1    4    4    0    0 -0.87616585224E-02  0.19737283244E-01 -0.26982978586E-01  0.34563987968E-01  0.51100000000E-03 0.  1.
         11    1    4    4    0    0 -0.48929861415E-01  0.35229892139E-01 -0.71224783715E-01  0.93319384773E-01  0.51100000000E-03 0. -1.
</event>
<event>
 8    1  0.1022673E+005  0.1043930E+01  0.7957747E-01            NaN
         13   -1    0    0    0    0  0.00000000000E+00  0.00000000000E+00  0.74505805969E-08  0.10566000000E+00  0.10566000000E+00 0. -1.
     999900   -1    0    0    0    0 -0.00000000000E+00 -0.00000000000E+00 -0.74505805969E-08  0.93827000000E+00  0.93827000000E+00 0. -1.
     999902    2    1    2    0    0 -0.63139032590E-02 -0.21263005291E-01 -0.86977196824E-02  0.10201049901E+01  0.10198267303E+01 0.  0.
     999903    2    3    3    0    0 -0.23346197297E-01 -0.66118105081E-01  0.10875525686E+00  0.13100585013E+00  0.20449404046E-01 0.  0.
         14    1    1    2    0    0  0.63139032590E-02  0.21263005291E-01  0.86977196824E-02  0.23825009885E-01  0.00000000000E+00 0.  1.
     999901    1    3    3    0    0  0.17032294038E-01  0.44855099790E-01 -0.11745297655E+00  0.88909913998E+00  0.88000000000E+00 0. -1.
        -11    1    4    4    0    0 -0.27122208445E-01 -0.57698110675E-01  0.93482117725E-01  0.11315411447E+00  0.51100000000E-03 0. -1.
         11    1    4    4    0    0  0.37760111481E-02 -0.84199944054E-02  0.15273139139E-01  0.17851735662E-01  0.51100000000E-03 0.  1.
</event>
<event>
 7    1  0.1022673E+005  0.1043930E+01  0.7957747E-01            NaN
         13   -1    0    0    0    0  0.00000000000E+00  0.00000000000E+00  0.74505805969E-08  0.10566000000E+00  0.10566000000E+00 0. -1.
     999900   -1    0    0    0    0 -0.00000000000E+00 -0.00000000000E+00 -0.74505805969E-08  0.93827000000E+00  0.93827000000E+00 0.  1.
     999903    2    1    2    0    0 -0.30793610259E-01  0.35292766629E-01 -0.26171482495E-01  0.57304636961E-01  0.20125831962E-01 0.  0.
         14    1    1    2    0    0  0.94033990817E-01  0.33914953886E-01  0.18219945677E-01  0.10160995004E+00  0.00000000000E+00 0. -1.
     999901    1    1    2    0    0 -0.63240380558E-01 -0.69207720515E-01  0.79515368178E-02  0.88501541300E+00  0.88000000000E+00 0.  1.
        -11    1    3    3    0    0 -0.27199006153E-01  0.25951958237E-01 -0.28301994000E-01  0.47059048624E-01  0.51100000000E-03 0. -1.
         11    1    3    3    0    0 -0.35946041057E-02  0.93408083923E-02  0.21305115050E-02  0.10245588337E-01  0.51100000000E-03 0.  1.
</event>
<event>
 8    1  0.1022673E+005  0.1043930E+01  0.7957747E-01            NaN
         13   -1    0    0    0    0  0.00000000000E+00  0.00000000000E+00  0.74505805969E-08  0.10566000000E+00  0.10566000000E+00 0.  1.
     999900   -1    0    0    0    0 -0.00000000000E+00 -0.00000000000E+00 -0.74505805969E-08  0.93827000000E+00  0.93827000000E+00 0. -1.
     999902    2    1    2    0    0 -0.74984983927E-02 -0.76074027549E-02  0.21706617099E-01  0.10197374954E+01  0.10194504805E+01 0.  0.
     999903    2    3    3    0    0  0.87216065243E-01 -0.23196762732E-01  0.93651586904E-01  0.13159901776E+00  0.20073612251E-01 0.  0.
         14    1    1    2    0    0  0.74984983927E-02  0.76074027549E-02 -0.21706617099E-01  0.24192504639E-01  0.00000000000E+00 0. -1.
     999901    1    3    3    0    0 -0.94714563636E-01  0.15589359977E-01 -0.71944969806E-01  0.88813847760E+00  0.88000000000E+00 0. -1.
        -11    1    4    4    0    0  0.39519610679E-01 -0.19073847153E-01  0.52846184688E-01  0.68692005580E-01  0.51100000000E-03 0.  1.
         11    1    4    4    0    0  0.47696454564E-01 -0.41229155782E-02  0.40805402217E-01  0.62907012184E-01  0.51100000000E-03 0. -1.
</event>
<event>
 8    1  0.1022673E+005  0.1043930E+01  0.7957747E-01            NaN
         13   -1    0    0    0    0  0.00000000000E+00  0.00000000000E+00  0.74505805969E-08  0.10566000000E+00  0.10566000000E+00 0.  1.
     999900   -1    0    0    0    0 -0.00000000000E+00 -0.00000000000E+00 -0.74505805969E-08  0.93827000000E+00  0.93827000000E+00 0.  1.
     999902    2    1    2    0    0  0.15877493139E-01  0.12503665309E-01  0.12812049119E-01  0.10200012508E+01  0.10197205336E+01 0.  0.
     999903    2    3    3    0    0 -0.25793354443E-02  0.22693083818E-02  0.13022949142E+00  0.13195156058E+00  0.20968814306E-01 0.  0.
         14    1    1    2    0    0 -0.15877493139E-01 -0.12503665309E-01 -0.12812049119E-01  0.23928749177E-01  0.00000000000E+00 0.  1.
     999901    1    3    3    0    0  0.18456828583E-01  0.10234356927E-01 -0.11741744230E+00  0.88804969024E+00  0.88000000000E+00 0.  1.
        -11    1    4    4    0    0  0.21487413986E-03 -0.88896949476E-02  0.39349060794E-01  0.40344548003E-01  0.51100000000E-03 0.  1.
         11    1    4    4    0    0 -0.27942095841E-02  0.11159003329E-01  0.90880430622E-01  0.91607012578E-01  0.51100000000E-03 0. -1.
</event>
<event>
 8    1  0.1022673E+005  0.1043930E+01  0.7957747E-01            NaN
         13   -1    0    0    0    0  0.00000000000E+00  0.00000000000E+00  0.74505805969E-08  0.10566000000E+00  0.10566000000E+00 0. -1.
     999900   -1    0    0    0    0 -0.00000000000E+00 -0.00000000000E+00 -0.74505805969E-08  0.93827000000E+00  0.93827000000E+00 0.  1.
     999902    2    1    2    0    0 -0.39034281924E-02 -0.18638921198E-01  0.15412827073E-01  0.10194309924E+01  0.10191365693E+01 0.  0.
     999903    2    3    3    0    0 -0.83906822531E-01  0.65139347266E-01  0.72345307654E-01  0.13001508928E+00  0.19661904074E-01 0.  0.
         14    1    1    2    0    0  0.39034281924E-02  0.18638921198E-01 -0.15412827073E-01  0.24499007602E-01  0.00000000000E+00 0. -1.
     999901    1    3    3    0    0  0.80003394338E-01 -0.83778268464E-01 -0.56932480581E-01  0.88941590312E+00  0.88000000000E+00 0.  1.
        -11    1    4    4    0    0 -0.56895532378E-01  0.36958566154E-01  0.36632206424E-01  0.77105232541E-01  0.51100000000E-03 0. -1.
         11    1    4    4    0    0 -0.27011290153E-01  0.28180781112E-01  0.35713101230E-01  0.52909856740E-01  0.51100000000E-03 0.  1.
</event>
<event>
 8    1  0.1022673E+005  0.1043930E+01  0.7957747E-01            NaN
         13   -1    0    0    0    0  0.00000000000E+00  0.00000000000E+00  0.74505805969E-08  0.10566000000E+00  0.10566000000E+00 0. -1.
     999900   -1    0    0    0    0 -0.00000000000E+00 -0.00000000000E+00 -0.74505805969E-08  0.93827000000E+00  0.93827000000E+00 0. -1.
     999902    2    1    2    0    0 -0.69478202263E-02 -0.11986609288E-01 -0.17472600013E-01  0.10216310592E+01  0.10213876729E+01 0.  0.
     999903    2    3    3    0    0  0.38413672953E-01  0.12210708479E+00  0.90954331737E-02  0.12992222545E+00  0.20280713389E-01 0.  0.
         14    1    1    2    0    0  0.69478202263E-02  0.11986609288E-01  0.17472600013E-01  0.22298940767E-01  0.00000000000E+00 0. -1.
     999901    1    3    3    0    0 -0.45361493180E-01 -0.13409369408E+00 -0.26568033187E-01  0.89170883378E+00  0.88000000000E+00 0. -1.
        -11    1    4    4    0    0  0.28863050319E-01  0.58000203050E-01  0.45225074978E-02  0.64944695107E-01  0.51100000000E-03 0.  1.
         11    1    4    4    0    0  0.95506226343E-02  0.64106881742E-01  0.45729256759E-02  0.64977530344E-01  0.51100000000E-03 0. -1.
</event>
<event>
 8    1  0.1022673E+005  0.1043930E+01  0.7957747E-01            NaN
         13   -1    0    0    0    0  0.00000000000E+00  0.00000000000E+00  0.74505805969E-08  0.10566000000E+00  0.10566000000E+00 0.  1.
     999900   -1    0    0    0    0 -0.00000000000E+00 -0.00000000000E+00 -0.74505805969E-08  0.93827000000E+00  0.93827000000E+00 0.  1.
     999902    2    1    2    0    0 -0.54041085363E-02  0.81159854997E-02 -0.22169760776E-01  0.10197107535E+01  0.10194230961E+01 0.  0.
     999903    2    3    3    0    0  0.71981767446E-01 -0.36408865090E-01  0.96357141712E-01  0.12728727623E+00  0.20257631356E-01 0.  0.
         14    1    1    2    0    0  0.54041085363E-02 -0.81159854997E-02  0.22169760776E-01  0.24219246532E-01  0.00000000000E+00 0. -1.
     999901    1    3    3    0    0 -0.77385875982E-01  0.44524850590E-01 -0.11852690249E+00  0.89242347724E+00  0.88000000000E+00 0.  1.
        -11    1    4    4    0    0  0.16585231856E-01 -0.18210593625E-01  0.24467449668E-01  0.34721936152E-01  0.51100000000E-03 0. -1.
         11    1    4    4    0    0  0.55396535589E-01 -0.18198271465E-01  0.71889692044E-01  0.92565340073E-01  0.51100000000E-03 0.  1.
</event>
<event>
 8    1  0.1022673E+005  0.1043930E+01  0.7957747E-01            NaN
         13   -1    0    0    0    0  0.00000000000E+00  0.00000000000E+00  0.74505805969E-08  0.10566000000E+00  0.10566000000E+00 0.  1.
     999900   -1    0    0    0    0 -0.00000000000E+00 -0.00000000000E+00 -0.74505805969E-08  0.93827000000E+00  0.93827000000E+00 0. -1.
     999902    2    1    2    0    0  0.11561087258E-01  0.27525895209E-02  0.20363331245E-01  0.10203524525E+01  0.10200800099E+01 0.  0.
     999903    2    3    3    0    0  0.27266476486E-01  0.10573112689E+00  0.72545036677E-01  0.13267336137E+00  0.20418289319E-01 0.  0.
         14    1    1    2    0    0 -0.11561087258E-01 -0.27525895209E-02 -0.20363331245E-01  0.23577547520E-01  0.00000000000E+00 0. -1.
     999901    1    3    3    0    0 -0.15705389228E-01 -0.10297853736E+00 -0.52181705432E-01  0.88767909111E+00  0.88000000000E+00 0. -1.
        -11    1    4    4    0    0  0.70711068518E-02  0.47694490169E-01  0.21536640832E-01  0.52809591591E-01  0.51100000000E-03 0.  1.
         11    1    4    4    0    0  0.20195369634E-01  0.58036636716E-01  0.51008395845E-01  0.79863769781E-01  0.51100000000E-03 0. -1.
</event>
<event>
 8    1  0.1022673E+005  0.1043930E+01  0.7957747E-01            NaN
         13   -1    0    0    0    0  0.00000000000E+00  0.00000000000E+00  0.74505805969E-08  0.10566000000E+00  0.10566000000E+00 0. -1.
     999900   -1    0    0    0    0 -0.00000000000E+00 -0.00000000000E+00 -0.74505805969E-08  0.93827000000E+00  0.93827000000E+00 0. -1.
     999902    2    1    2    0    0 -0.12008365725E-01  0.13498425445E-01  0.16760560314E-01  0.10192860409E+01  0.10189880806E+01 0.  0.
     999903    2    3    3    0    0 -0.69609752985E-02  0.50739370337E-02 -0.12589785274E+00  0.12774362972E+00  0.19848566582E-01 0.  0.
         14    1    1    2    0    0  0.12008365725E-01 -0.13498425445E-01 -0.16760560314E-01  0.24643959075E-01  0.00000000000E+00 0.  1.
     999901    1    3    3    0    0 -0.50473904266E-02  0.84244884108E-02  0.14265841306E+00  0.89154241120E+00  0.88000000000E+00 0.  1.
        -11    1    4    4    0    0 -0.10141558407E-01  0.10921025748E-01 -0.90827713757E-01  0.92043765230E-01  0.51100000000E-03 0.  1.
         11    1    4    4    0    0  0.31805831085E-02 -0.58470887144E-02 -0.35070138986E-01  0.35699864493E-01  0.51100000000E-03 0. -1.
</event>
<event>
 8    1  0.1022673E+005  0.1043930E+01  0.7957747E-01            NaN
         13   -1    0    0    0    0  0.00000000000E+00  0.00000000000E+00  0.74505805969E-08  0.10566000000E+00  0.10566000000E+00 0. -1.
     999900   -1    0    0    0    0 -0.00000000000E+00 -0.00000000000E+00 -0.74505805969E-08  0.93827000000E+00  0.93827000000E+00 0.  1.
     999902    2    1    2    0    0 -0.10172938842E-01  0.20329805893E-01 -0.84173529589E-02  0.10196886815E+01  0.10194004932E+01 0.  0.
     999903    2    3    3    0    0  0.91191442340E-01 -0.86088673824E-01  0.10254169695E-01  0.12730521215E+00  0.19347612941E-01 0.  0.
         14    1    1    2    0    0  0.10172938842E-01 -0.20329805893E-01  0.84173529589E-02  0.24241318512E-01  0.00000000000E+00 0.  1.
     999901    1    3    3    0    0 -0.10136438118E+00  0.10641847972E+00 -0.18671522654E-01  0.89238346934E+00  0.88000000000E+00 0. -1.
        -11    1    4    4    0    0  0.73433428229E-01 -0.78014818146E-01  0.58467808264E-02  0.10729970270E+00  0.51100000000E-03 0. -1.
         11    1    4    4    0    0  0.17758014111E-01 -0.80738556784E-02  0.44073888683E-02  0.20005509449E-01  0.51100000000E-03 0.  1.
</event>
<event>
 8    1  0.1022673E+005  0.1043930E+01  0.7957747E-01            NaN
         13   -1    0    0    0    0  0.00000000000E+00  0.00000000000E+00  0.74505805969E-08  0.10566000000E+00  0.10566000000E+00 0. -1.
     999900   -1    0    0    0    0 -0.00000000000E+00 -0.00000000000E+00 -0.74505805969E-08  0.93827000000E+00  0.93827000000E+00 0.  1.
     999902    2    1    2    0    0 -0.22395588701E-01  0.59078095579E-02 -0.33392837529E-02  0.10205288158E+01  0.10202604807E+01 0.  0.
     999903    2    3    3    0    0  0.10213002332E+00 -0.65221468415E-01  0.36640893047E-01  0.12802424057E+00  0.19059630737E-01 0.  0.
         14    1    1    2    0    0  0.22395588701E-01 -0.59078095579E-02  0.33392837529E-02  0.23401184223E-01  0.00000000000E+00 0. -1.
     999901    1    3    3    0    0 -0.12452561202E+00  0.71129277973E-01 -0.39980176800E-01  0.89250457521E+00  0.88000000000E+00 0.  1.
        -11    1    4    4    0    0  0.76243157004E-01 -0.57890084700E-01  0.29716521839E-01  0.10023778573E+00  0.51100000000E-03 0.  1.
         11    1    4    4    0    0  0.25886866317E-01 -0.73313837147E-02  0.69243712074E-02  0.27786454839E-01  0.51100000000E-03 0. -1.
</event>
<event>
 8    1  0.1022673E+005  0.1043930E+01  0.7957747E-01            NaN
         13   -1    0    0    0    0  0.00000000000E+00  0.00000000000E+00  0.74505805969E-08  0.10566000000E+00  0.10566000000E+00 0.  1.
     999900   -1    0    0    0    0 -0.00000000000E+00 -0.00000000000E+00 -0.74505805969E-08  0.93827000000E+00  0.93827000000E+00 0. -1.
     999902    2    1    2    0    0 -0.22516706837E-01 -0.83156512362E-02  0.45400644178E-03  0.10199225373E+01  0.10196399482E+01 0.  0.
     999903    2    3    3    0    0 -0.11779834504E+00  0.39963454052E-01  0.41154149747E-01  0.13252974704E+00  0.19923404719E-01 0.  0.
         14    1    1    2    0    0  0.22516706837E-01  0.83156512362E-02 -0.45400644178E-03  0.24007462675E-01  0.00000000000E+00 0.  1.
     999901    1    3    3    0    0  0.95281638201E-01 -0.48279105288E-01 -0.40700143305E-01  0.88739279029E+00  0.88000000000E+00 0. -1.
        -11    1    4    4    0    0 -0.77329182028E-01  0.26058113181E-01  0.36790540469E-01  0.89513309874E-01  0.51100000000E-03 0.  1.
         11    1    4    4    0    0 -0.40469163010E-01  0.13905340871E-01  0.43636092778E-02  0.43016437165E-01  0.51100000000E-03 0. -1.
</event>
<event>
 8    1  0.1022673E+005  0.1043930E+01  0.7957747E-01            NaN
         13   -1    0    0    0    0  0.00000000000E+00  0.00000000000E+00  0.74505805969E-08  0.10566000000E+00  0.10566000000E+00 0.  1.
     999900   -1    0    0    0    0 -0.00000000000E+00 -0.00000000000E+00 -0.74505805969E-08  0.93827000000E+00  0.93827000000E+00 0.  1.
     999902    2    1    2    0    0  0.23026364027E-01  0.81563724081E-02 -0.29047655348E-02  0.10193296440E+01  0.10190327501E+01 0.  0.
     999903    2    3    3    0    0  0.95632551483E-01 -0.45763367445E-02 -0.88906626029E-01  0.13206976082E+00  0.19274485995E-01 0.  0.
         14    1    1    2    0    0 -0.23026364027E-01 -0.81563724081E-02  0.29047655348E-02  0.24600355972E-01  0.00000000000E+00 0. -1.
     999901    1    3    3    0    0 -0.72606187456E-01  0.12732709153E-01  0.86001860494E-01  0.88725988321E+00  0.88000000000E+00 0. -1.
        -11    1    4    4    0    0  0.35203290863E-01  0.55137960456E-04 -0.20767398395E-01  0.40875673510E-01  0.51100000000E-03 0.  1.
         11    1    4    4    0    0  0.60429260620E-01 -0.46314747050E-02 -0.68139227634E-01  0.91194087311E-01  0.51100000000E-03 0. -1.
</event>
<event>
 8    1  0.1022673E+005  0.1043930E+01  0.7957747E-01            NaN
         13   -1    0    0    0    0  0.00000000000E+00  0.00000000000E+00  0.74505805969E-08  0.10566000000E+00  0.10566000000E+00 0. -1.
     999900   -1    0    0    0    0 -0.00000000000E+00 -0.00000000000E+00 -0.74505805969E-08  0.93827000000E+00  0.93827000000E+00 0.  1.
     999902    2    1    2    0    0 -0.62111412694E-02 -0.10403477809E-01 -0.20589947635E-01  0.10200394879E+01  0.10197596777E+01 0.  0.
     999903    2    3    3    0    0  0.66548851964E-01 -0.64449539657E-01 -0.92610582984E-01  0.13245739852E+00  0.19640506145E-01 0.  0.
         14    1    1    2    0    0  0.62111412694E-02  0.10403477809E-01  0.20589947635E-01  0.23890512134E-01  0.00000000000E+00 0.  1.
     999901    1    3    3    0    0 -0.72759993233E-01  0.54046061848E-01  0.72020635349E-01  0.88758208935E+00  0.88000000000E+00 0. -1.
        -11    1    4    4    0    0  0.13802995945E-01 -0.19026958816E-01 -0.13621489083E-01  0.27172669075E-01  0.51100000000E-03 0.  1.
         11    1    4    4    0    0  0.52745856019E-01 -0.45422580842E-01 -0.78989093901E-01  0.10528472944E+00  0.51100000000E-03 0. -1.
</event>
<event>
 8    1  0.1022673E+005  0.1043930E+01  0.7957747E-01            NaN
         13   -1    0    0    0    0  0.00000000000E+00  0.00000000000E+00  0.74505805969E-08  0.10566000000E+00  0.10566000000E+00 0.  1.
     999900   -1    0    0    0    0 -0.00000000000E+00 -0.00000000000E+00 -0.74505805969E-08  0.93827000000E+00  0.93827000000E+00 0.  1.
     999902    2    1    2    0    0  0.11735719758E-01  0.19999210943E-01 -0.11166663696E-02  0.10207148648E+01  0.10204508282E+01 0.  0.
     999903    2    3    3    0    0  0.26319354275E-01 -0.12286252957E+00 -0.20462779685E-01  0.12886485985E+00  0.19987925659E-01 0.  0.
         14    1    1    2    0    0 -0.11735719758E-01 -0.19999210943E-01  0.11166663696E-02  0.23215135157E-01  0.00000000000E+00 0. -1.
     999901    1    3    3    0    0 -0.14583634517E-01  0.14286174051E+00  0.19346113316E-01  0.89185000499E+00  0.88000000000E+00 0.  1.
        -11    1    4    4    0    0  0.58336487341E-02 -0.16879088945E-01  0.37049446051E-02  0.18246173207E-01  0.51100000000E-03 0. -1.
         11    1    4    4    0    0  0.20485705541E-01 -0.10598344062E+00 -0.24167724290E-01  0.11061868665E+00  0.51100000000E-03 0.  1.
</event>
<event>
 8    1  0.1022673E+005  0.1043930E+01  0.7957747E-01            NaN
         13   -1    0    0    0    0  0.00000000000E+00  0.00000000000E+00  0.74505805969E-08  0.10566000000E+00  0.10566000000E+00 0.  1.
     999900   -1    0    0    0    0 -0.00000000000E+00 -0.00000000000E+00 -0.74505805969E-08  0.93827000000E+00  0.93827000000E+00 0. -1.
     999902    2    1    2    0    0  0.69508344268E-02 -0.83257061348E-02 -0.21032421826E-01  0.10202658024E+01  0.10199913300E+01 0.  0.
     999903    2    3    3    0    0 -0.10596508128E-01 -0.75768238708E-01 -0.10740570383E+00  0.13329525704E+00  0.19455805118E-01 0.  0.
         14    1    1    2    0    0 -0.69508344268E-02  0.83257061348E-02  0.21032421826E-01  0.23664197636E-01  0.00000000000E+00 0.  1.
     999901    1    3    3    0    0  0.17547342555E-01  0.67442532573E-01  0.86373282003E-01  0.88697054533E+00  0.88000000000E+00 0.  1.
        -11    1    4    4    0    0 -0.49259148008E-02 -0.60006555803E-01 -0.70166383165E-01  0.92458822313E-01  0.51100000000E-03 0.  1.
         11    1    4    4    0    0 -0.56705933273E-02 -0.15761682904E-01 -0.37239320663E-01  0.40836434726E-01  0.51100000000E-03 0. -1.
</event>
<event>
 8    1  0.1022673E+005  0.1043930E+01  0.7957747E-01            NaN
         13   -1    0    0    0    0  0.00000000000E+00  0.00000000000E+00  0.74505805969E-08  0.10566000000E+00  0.10566000000E+00 0.  1.
     999900   -1    0    0    0    0 -0.00000000000E+00 -0.00000000000E+00 -0.74505805969E-08  0.93827000000E+00  0.93827000000E+00 0. -1.
     999902    2    1    2    0    0  0.20416864292E-01  0.61399389422E-02 -0.12112283652E-01  0.10194095063E+01  0.10191145602E+01 0.  0.
     999903    2    3    3    0    0 -0.16434623845E-02  0.12869651611E+00  0.11153000886E-01  0.13033805465E+00  0.17266291772E-01 0.  0.
         14    1    1    2    0    0 -0.20416864292E-01 -0.61399389422E-02  0.12112283652E-01  0.24520493735E-01  0.00000000000E+00 0.  1.
     999901    1    3    3    0    0  0.22060326677E-01 -0.12255657717E+00 -0.23265284537E-01  0.88907145162E+00  0.88000000000E+00 0. -1.
        -11    1    4    4    0    0  0.23440062107E-02  0.42290168246E-01  0.11294569051E-01  0.43838123893E-01  0.51100000000E-03 0.  1.
         11    1    4    4    0    0 -0.39874685952E-02  0.86406347868E-01 -0.14156816578E-03  0.86499930752E-01  0.51100000000E-03 0. -1.
</event>
<event>
 8    1  0.1022673E+005  0.1043930E+01  0.7957747E-01            NaN
         13   -1    0    0    0    0  0.00000000000E+00  0.00000000000E+00  0.74505805969E-08  0.10566000000E+00  0.10566000000E+00 0. -1.
     999900   -1    0    0    0    0 -0.00000000000E+00 -0.00000000000E+00 -0.74505805969E-08  0.93827000000E+00  0.93827000000E+00 0.  1.
     999902    2    1    2    0    0 -0.17735585883E-01 -0.75938921762E-02 -0.53862308423E-02  0.10238992814E+01  0.10237033304E+01 0.  0.
     999903    2    3    3    0    0 -0.21319712810E-01  0.93193088688E-01 -0.91436750903E-01  0.13396919792E+00  0.21156196305E-01 0.  0.
         14    1    1    2    0    0  0.17735585883E-01  0.75938921762E-02  0.53862308423E-02  0.20030718601E-01  0.00000000000E+00 0.  1.
     999901    1    3    3    0    0  0.35841269269E-02 -0.10078698086E+00  0.86050520061E-01  0.88993008348E+00  0.88000000000E+00 0. -1.
        -11    1    4    4    0    0 -0.19213835635E-01  0.71581892890E-01 -0.58073513752E-01  0.94159083418E-01  0.51100000000E-03 0. -1.
         11    1    4    4    0    0 -0.21058771752E-02  0.21611195798E-01 -0.33363237151E-01  0.39810114502E-01  0.51100000000E-03 0.  1.
</event>
<event>
 8    1  0.1022673E+005  0.1043930E+01  0.7957747E-01            NaN
         13   -1    0    0    0    0  0.00000000000E+00  0.00000000000E+00  0.74505805969E-08  0.10566000000E+00  0.10566000000E+00 0.  1.
     999900   -1    0    0    0    0 -0.00000000000E+00 -0.00000000000E+00 -0.74505805969E-08  0.93827000000E+00  0.93827000000E+00 0. -1.
     999902    2    1    2    0    0  0.20132878746E-01 -0.11597651329E-01  0.43522796869E-02  0.10202914581E+01  0.10200175875E+01 0.  0.
     999903    2    3    3    0    0 -0.52090485655E-01  0.10041921968E+00 -0.56409692068E-01  0.12818383516E+00  0.21250973193E-01 0.  0.
         14    1    1    2    0    0 -0.20132878746E-01  0.11597651329E-01 -0.43522796869E-02  0.23638541863E-01  0.00000000000E+00 0. -1.
     999901    1    3    3    0    0  0.72223364401E-01 -0.11201687101E+00  0.60761971755E-01  0.89210762297E+00  0.88000000000E+00 0.  1.
        -11    1    4    4    0    0 -0.24919450125E-01  0.63282825683E-01 -0.24977424366E-01  0.72455695911E-01  0.51100000000E-03 0.  1.
         11    1    4    4    0    0 -0.27171035530E-01  0.37136393994E-01 -0.31432267702E-01  0.55728139253E-01  0.51100000000E-03 0. -1.
</event>
<event>
 8    1  0.1022673E+005  0.1043930E+01  0.7957747E-01            NaN
         13   -1    0    0    0    0  0.00000000000E+00  0.00000000000E+00  0.74505805969E-08  0.10566000000E+00  0.10566000000E+00 0.  1.
     999900   -1    0    0    0    0 -0.00000000000E+00 -0.00000000000E+00 -0.74505805969E-08  0.93827000000E+00  0.93827000000E+00 0. -1.
     999902    2    1    2    0    0 -0.17549494774E-01  0.15313833198E-01  0.16522712875E-02  0.10205798768E+01  0.10203127249E+01 0.  0.
     999903    2    3    3    0    0  0.44173598521E-01  0.29706895189E-01  0.11764635124E+00  0.13070824162E+00  0.20252753824E-01 0.  0.
         14    1    1    2    0    0  0.17549494774E-01 -0.15313833198E-01 -0.16522712875E-02  0.23350123221E-01  0.00000000000E+00 0.  1.
     999901    1    3    3    0    0 -0.61723093295E-01 -0.14393061991E-01 -0.11599407996E+00  0.88987163516E+00  0.88000000000E+00 0. -1.
        -11    1    4    4    0    0  0.40948528951E-01  0.28628713111E-01  0.90779447364E-01  0.10362217148E+00  0.51100000000E-03 0. -1.
         11    1    4    4    0    0  0.32250695695E-02  0.10781820788E-02  0.26866903881E-01  0.27086070137E-01  0.51100000000E-03 0.  1.
</event>
<event>
 8    1  0.1022673E+005  0.1043930E+01  0.7957747E-01            NaN
         13   -1    0    0    0    0  0.00000000000E+00  0.00000000000E+00  0.74505805969E-08  0.10566000000E+00  0.10566000000E+00 0.  1.
     999900   -1    0    0    0    0 -0.00000000000E+00 -0.00000000000E+00 -0.74505805969E-08  0.93827000000E+00  0.93827000000E+00 0.  1.
     999902    2    1    2    0    0  0.10361535512E-01 -0.20354960795E-01  0.34848219712E-02  0.10208252422E+01  0.10205637390E+01 0.  0.
     999903    2    3    3    0    0  0.26018743700E-01 -0.65009859284E-02 -0.12691080948E+00  0.13097126461E+00  0.18107477736E-01 0.  0.
         14    1    1    2    0    0 -0.10361535512E-01  0.20354960795E-01 -0.34848219712E-02  0.23104757764E-01  0.00000000000E+00 0. -1.
     999901    1    3    3    0    0 -0.15657208188E-01 -0.13853974867E-01  0.13039563145E+00  0.88985397762E+00  0.88000000000E+00 0. -1.
        -11    1    4    4    0    0  0.20471818889E-01 -0.32245530868E-02 -0.55108257686E-01  0.58878470576E-01  0.51100000000E-03 0.  1.
         11    1    4    4    0    0  0.55469248116E-02 -0.32764328416E-02 -0.71802551794E-01  0.72092794038E-01  0.51100000000E-03 0. -1.
</event>
<event>
 8    1  0.1022673E+005  0.1043930E+01  0.7957747E-01            NaN
         13   -1    0    0    0    0  0.00000000000E+00  0.00000000000E+00  0.74505805969E-08  0.10566000000E+00  0.10566000000E+00 0. -1.
     999900   -1    0    0    0    0 -0.00000000000E+00 -0.00000000000E+00 -0.74505805969E-08  0.93827000000E+00  0.93827000000E+00 0.  1.
     999902    2    1    2    0    0 -0.14996820850E-01  0.11368926693E-01  0.86178636054E-02  0.10232315773E+01  0.10230222070E+01 0.  0.
     999903    2    3    3    0    0 -0.39810244127E-01 -0.12267614184E+00 -0.21734428634E-01  0.13221808243E+00  0.19363486702E-01 0.  0.
         14    1    1    2    0    0  0.14996820850E-01 -0.11368926693E-01 -0.86178636054E-02  0.20698422715E-01  0.00000000000E+00 0.  1.
     999901    1    3    3    0    0  0.24813423277E-01  0.13404506854E+00  0.30352292239E-01  0.89101349486E+00  0.88000000000E+00 0. -1.
        -11    1    4    4    0    0 -0.26317705889E-01 -0.53391679513E-01 -0.14441492291E-01  0.61254476612E-01  0.51100000000E-03 0.  1.
         11    1    4    4    0    0 -0.13492538239E-01 -0.69284462332E-01 -0.72929363425E-02  0.70963605815E-01  0.51100000000E-03 0. -1.
</event>
<event>
 8    1  0.1022673E+005  0.1043930E+01  0.7957747E-01            NaN
         13   -1    0    0    0    0  0.00000000000E+00  0.00000000000E+00  0.74505805969E-08  0.10566000000E+00  0.10566000000E+00 0. -1.
     999900   -1    0    0    0    0 -0.00000000000E+00 -0.00000000000E+00 -0.74505805969E-08  0.93827000000E+00  0.93827000000E+00 0. -1.
     999902    2    1    2    0    0  0.14048223510E-02  0.11117890113E-01 -0.20461472311E-01  0.10206007725E+01  0.10203341041E+01 0.  0.
     999903    2    3    3    0    0 -0.92103204160E-02 -0.12568661944E+00  0.18872249919E-01  0.12909906370E+00  0.20699036805E-01 0.  0.
         14    1    1    2    0    0 -0.14048223510E-02 -0.11117890113E-01  0.20461472311E-01  0.23329227496E-01  0.00000000000E+00 0. -1.
     999901    1    3    3    0    0  0.10615142767E-01  0.13680450955E+00 -0.39333722230E-01  0.89150170880E+00  0.88000000000E+00 0. -1.
        -11    1    4    4    0    0 -0.14942985352E-01 -0.62523725645E-01  0.92432300748E-02  0.64947729006E-01  0.51100000000E-03 0.  1.
         11    1    4    4    0    0  0.57326649364E-02 -0.63162893792E-01  0.96290198442E-02  0.64151334698E-01  0.51100000000E-03 0. -1.
</event>
<event>
 8    1  0.1220056E+005  0.1043930E+01  0.7957747E-01            NaN
         13   -1    0    0    0    0  0.00000000000E+00  0.00000000000E+00  0.74505805969E-08  0.10566000000E+00  0.10566000000E+00 0.  1.
     999900   -1    0    0    0    0 -0.00000000000E+00 -0.00000000000E+00 -0.74505805969E-08  0.93827000000E+00  0.93827000000E+00 0. -1.
     999902    2    1    2    0    0 -0.23053545164E-01  0.70570522012E-02 -0.46826593393E-02  0.10193699668E+01  0.10190740572E+01 0.  0.
     999903    2    3    3    0    0  0.54049849185E-01 -0.75224849292E-01 -0.86657152494E-01  0.12839574597E+00  0.19895762253E-01 0.  0.
         14    1    1    2    0    0  0.23053545164E-01 -0.70570522012E-02  0.46826593393E-02  0.24560033161E-01  0.00000000000E+00 0. -1.
     999901    1    3    3    0    0 -0.77103394349E-01  0.82281901493E-01  0.81974493154E-01  0.89097422087E+00  0.88000000000E+00 0.  1.
        -11    1    4    4    0    0  0.81794636303E-02 -0.26597282643E-01 -0.27576218593E-01  0.39179433663E-01  0.51100000000E-03 0. -1.
         11    1    4    4    0    0  0.45870385555E-01 -0.48627566649E-01 -0.59080933900E-01  0.89216312302E-01  0.51100000000E-03 0.  1.
</event>
<event>
 8    1  0.1162185E+005  0.1043930E+01  0.7957747E-01            NaN
         13   -1    0    0    0    0  0.00000000000E+00  0.00000000000E+00  0.74505805969E-08  0.10566000000E+00  0.10566000000E+00 0.  1.
     999900   -1    0    0    0    0 -0.00000000000E+00 -0.00000000000E+00 -0.74505805969E-08  0.93827000000E+00  0.93827000000E+00 0.  1.
     999902    2    1    2    0    0 -0.29715585476E-02  0.21386758226E-01  0.10598249034E-01  0.10198770070E+01  0.10195933322E+01 0.  0.
     999903    2    3    3    0    0  0.95556968418E-02  0.64132291099E-01 -0.11048825333E+00  0.13046930876E+00  0.24704742464E-01 0.  0.
         14    1    1    2    0    0  0.29715585476E-02 -0.21386758226E-01 -0.10598249034E-01  0.24052992957E-01  0.00000000000E+00 0. -1.
     999901    1    3    3    0    0 -0.12527255389E-01 -0.42745532873E-01  0.12108650237E+00  0.88940769828E+00  0.88000000000E+00 0. -1.
        -11    1    4    4    0    0  0.54788825410E-02  0.55538711638E-01 -0.73580105297E-01  0.92351825433E-01  0.51100000000E-03 0. -1.
         11    1    4    4    0    0  0.40768143008E-02  0.85935794610E-02 -0.36908148036E-01  0.38117483327E-01  0.51100000000E-03 0.  1.
</event>
<event>
 8    1  0.1022673E+005  0.1043930E+01  0.7957747E-01            NaN
         13   -1    0    0    0    0  0.00000000000E+00  0.00000000000E+00  0.74505805969E-08  0.10566000000E+00  0.10566000000E+00 0.  1.
     999900   -1    0    0    0    0 -0.00000000000E+00 -0.00000000000E+00 -0.74505805969E-08  0.93827000000E+00  0.93827000000E+00 0.  1.
     999902    2    1    2    0    0  0.14444294290E-01  0.48394285925E-02  0.17604857351E-01  0.10206493490E+01  0.10203838028E+01 0.  0.
     999903    2    3    3    0    0 -0.14455143711E-01 -0.73953090470E-01  0.10663223477E+00  0.13218476758E+00  0.20600206805E-01 0.  0.
         14    1    1    2    0    0 -0.14444294290E-01 -0.48394285925E-02 -0.17604857351E-01  0.23280650957E-01  0.00000000000E+00 0. -1.
     999901    1    3    3    0    0  0.28899438001E-01  0.78792519063E-01 -0.89027377414E-01  0.88846458146E+00  0.88000000000E+00 0. -1.
        -11    1    4    4    0    0 -0.11683448686E-02 -0.52553948033E-01  0.77806768793E-01  0.93901208057E-01  0.51100000000E-03 0.  1.
         11    1    4    4    0    0 -0.13286798842E-01 -0.21399142437E-01  0.28825465973E-01  0.38283559527E-01  0.51100000000E-03 0. -1.
</event>
<event>
 7    1  0.1022673E+005  0.1043930E+01  0.7957747E-01            NaN
         13   -1    0    0    0    0  0.00000000000E+00  0.00000000000E+00  0.74505805969E-08  0.10566000000E+00  0.10566000000E+00 0. -1.
     999900   -1    0    0    0    0 -0.00000000000E+00 -0.00000000000E+00 -0.74505805969E-08  0.93827000000E+00  0.93827000000E+00 0.  1.
     999903    2    1    2    0    0  0.36684362011E-01 -0.86985042716E-01 -0.13491551277E-01  0.97156550821E-01  0.18580455840E-01 0.  0.
         14    1    1    2    0    0  0.20703057986E-01 -0.49542272857E-01  0.86436383613E-02  0.54385346316E-01  0.00000000000E+00 0. -1.
     999901    1    1    2    0    0 -0.57387419996E-01  0.13652731557E+00  0.48479129156E-02  0.89238810286E+00  0.88000000000E+00 0.  1.
        -11    1    3    3    0    0  0.34384137938E-01 -0.61892424544E-01 -0.12748965059E-01  0.71942604823E-01  0.51100000000E-03 0.  1.
         11    1    3    3    0    0  0.23002240726E-02 -0.25092618172E-01 -0.74258621846E-03  0.25213945998E-01  0.51100000000E-03 0. -1.
</event>
<event>
 8    1  0.1022673E+005  0.1043930E+01  0.7957747E-01            NaN
         13   -1    0    0    0    0  0.00000000000E+00  0.00000000000E+00  0.74505805969E-08  0.10566000000E+00  0.10566000000E+00 0. -1.
     999900   -1    0    0    0    0 -0.00000000000E+00 -0.00000000000E+00 -0.74505805969E-08  0.93827000000E+00  0.93827000000E+00 0.  1.
     999902    2    1    2    0    0  0.79386050574E-02 -0.17365703267E-01  0.12375416841E-01  0.10211760983E+01  0.10209225650E+01 0.  0.
     999903    2    3    3    0    0  0.83956198268E-01  0.95604942726E-01 -0.19213338842E-01  0.13014361247E+00  0.19474577680E-01 0.  0.
         14    1    1    2    0    0 -0.79386050574E-02  0.17365703267E-01 -0.12375416841E-01  0.22753901692E-01  0.00000000000E+00 0.  1.
     999901    1    3    3    0    0 -0.76017593210E-01 -0.11297064599E+00  0.31588755683E-01  0.89103248584E+00  0.88000000000E+00 0. -1.
        -11    1    4    4    0    0  0.18774177179E-01  0.15568940464E-01 -0.10486978991E-01  0.26553709445E-01  0.51100000000E-03 0.  1.
         11    1    4    4    0    0  0.65182021089E-01  0.80036002263E-01 -0.87263598508E-02  0.10358990302E+00  0.51100000000E-03 0. -1.
</event>
<event>
 8    1  0.1022673E+005  0.1043930E+01  0.7957747E-01            NaN
         13   -1    0    0    0    0  0.00000000000E+00  0.00000000000E+00  0.74505805969E-08  0.10566000000E+00  0.10566000000E+00 0.  1.
     999900   -1    0    0    0    0 -0.00000000000E+00 -0.00000000000E+00 -0.74505805969E-08  0.93827000000E+00  0.93827000000E+00 0.  1.
     999902    2    1    2    0    0 -0.99748041461E-02  0.11066661967E-01  0.19485910599E-01  0.10194010694E+01  0.10191059179E+01 0.  0.
     999903    2    3    3    0    0 -0.10670355102E+00  0.51344074134E-01 -0.50615324712E-01  0.13041687179E+00  0.20610376046E-01 0.  0.
         14    1    1    2    0    0  0.99748041461E-02 -0.11066661967E-01 -0.19485910599E-01  0.24528930607E-01  0.00000000000E+00 0. -1.
     999901    1    3    3    0    0  0.96728746879E-01 -0.40277412166E-01  0.70101235311E-01  0.88898419761E+00  0.88000000000E+00 0. -1.
        -11    1    4    4    0    0 -0.57575617200E-01  0.30954539394E-01 -0.38482997983E-01  0.75857349412E-01  0.51100000000E-03 0. -1.
         11    1    4    4    0    0 -0.49127933825E-01  0.20389534739E-01 -0.12132326729E-01  0.54559522374E-01  0.51100000000E-03 0.  1.
</event>
<event>
 8    1  0.1022673E+005  0.1043930E+01  0.7957747E-01            NaN
         13   -1    0    0    0    0  0.00000000000E+00  0.00000000000E+00  0.74505805969E-08  0.10566000000E+00  0.10566000000E+00 0. -1.
     999900   -1    0    0    0    0 -0.00000000000E+00 -0.00000000000E+00 -0.74505805969E-08  0.93827000000E+00  0.93827000000E+00 0.  1.
     999902    2    1    2    0    0 -0.95672497665E-02  0.68629172007E-03 -0.21914259313E-01  0.10200085029E+01  0.10197279578E+01 0.  0.
     999903    2    3    3    0    0  0.80775303494E-01  0.97642622769E-01  0.17063056554E-01  0.12923269592E+00  0.18740607285E-01 0.  0.
         14    1    1    2    0    0  0.95672497665E-02 -0.68629172007E-03  0.21914259313E-01  0.23921497145E-01  0.00000000000E+00 0. -1.
     999901    1    3    3    0    0 -0.90342553260E-01 -0.96956331049E-01 -0.38977315867E-01  0.89077580693E+00  0.88000000000E+00 0.  1.
        -11    1    4    4    0    0  0.27715449831E-01  0.24072595130E-01  0.10976824659E-01  0.38319548486E-01  0.51100000000E-03 0.  1.
         11    1    4    4    0    0  0.53059853663E-01  0.73570027639E-01  0.60862318948E-02  0.90913147439E-01  0.51100000000E-03 0. -1.
</event>
<event>
 8    1  0.1022673E+005  0.1043930E+01  0.7957747E-01            NaN
         13   -1    0    0    0    0  0.00000000000E+00  0.00000000000E+00  0.74505805969E-08  0.10566000000E+00  0.10566000000E+00 0.  1.
     999900   -1    0    0    0    0 -0.00000000000E+00 -0.00000000000E+00 -0.74505805969E-08  0.93827000000E+00  0.93827000000E+00 0.  1.
     999902    2    1    2    0    0 -0.10085527710E-01  0.20368581666E-01 -0.43937085371E-02  0.10207804500E+01  0.10205179202E+01 0.  0.
     999903    2    3    3    0    0  0.12787382971E+00  0.30885501276E-04 -0.76759074794E-02  0.12979381770E+00  0.20875782131E-01 0.  0.
         14    1    1    2    0    0  0.10085527710E-01 -0.20368581666E-01  0.43937085371E-02  0.23149549953E-01  0.00000000000E+00 0.  1.
     999901    1    3    3    0    0 -0.13795935742E+00  0.20337696165E-01  0.32821989423E-02  0.89098663234E+00  0.88000000000E+00 0. -1.
        -11    1    4    4    0    0  0.12047632847E+00 -0.42386907388E-02 -0.98856505849E-02  0.12095660143E+00  0.51100000000E-03 0. -1.
         11    1    4    4    0    0  0.73975012373E-02  0.42695762401E-02  0.22097431055E-02  0.88372162709E-02  0.51100000000E-03 0.  1.
</event>
<event>
 8    1  0.1022673E+005  0.1043930E+01  0.7957747E-01            NaN
         13   -1    0    0    0    0  0.00000000000E+00  0.00000000000E+00  0.74505805969E-08  0.10566000000E+00  0.10566000000E+00 0.  1.
     999900   -1    0    0    0    0 -0.00000000000E+00 -0.00000000000E+00 -0.74505805969E-08  0.93827000000E+00  0.93827000000E+00 0.  1.
     999902    2    1    2    0    0 -0.15350340996E-01  0.73452425782E-02 -0.16772943155E-01  0.10200361267E+01  0.10197562369E+01 0.  0.
     999903    2    3    3    0    0  0.63355770660E-01  0.95852933905E-01 -0.59220047810E-01  0.13108729800E+00  0.21797408534E-01 0.  0.
         14    1    1    2    0    0  0.15350340996E-01 -0.73452425782E-02  0.16772943155E-01  0.23893873258E-01  0.00000000000E+00 0.  1.
     999901    1    3    3    0    0 -0.78706111656E-01 -0.88507691327E-01  0.42447104656E-01  0.88894882875E+00  0.88000000000E+00 0. -1.
        -11    1    4    4    0    0  0.80512407345E-02  0.27715571539E-02 -0.26834246197E-02  0.89423651856E-02  0.51100000000E-03 0. -1.
         11    1    4    4    0    0  0.55304529926E-01  0.93081376752E-01 -0.56536623191E-01  0.12214493281E+00  0.51100000000E-03 0.  1.
</event>
<event>
 8    1  0.1022673E+005  0.1043930E+01  0.7957747E-01            NaN
         13   -1    0    0    0    0  0.00000000000E+00  0.00000000000E+00  0.74505805969E-08  0.10566000000E+00  0.10566000000E+00 0.  1.
     999900   -1    0    0    0    0 -0.00000000000E+00 -0.00000000000E+00 -0.74505805969E-08  0.93827000000E+00  0.93827000000E+00 0.  1.
     999902    2    1    2    0    0  0.12804697254E-01 -0.16529311987E-01 -0.11613982948E-01  0.10200121609E+01  0.10197317027E+01 0.  0.
     999903    2    3    3    0    0 -0.84398035445E-01 -0.92008982007E-01  0.32252694733E-01  0.13036625538E+00  0.19142702700E-01 0.  0.
         14    1    1    2    0    0 -0.12804697254E-01  0.16529311987E-01  0.11613982948E-01  0.23917839084E-01  0.00000000000E+00 0.  1.
     999901    1    3    3    0    0  0.97202732699E-01  0.75479670020E-01 -0.43866677682E-01  0.88964590554E+00  0.88000000000E+00 0.  1.
        -11    1    4    4    0    0 -0.60881423085E-01 -0.76027341737E-01  0.20167146948E-01  0.99466975954E-01  0.51100000000E-03 0.  1.
         11    1    4    4    0    0 -0.23516612360E-01 -0.15981640270E-01  0.12085547785E-01  0.30899279423E-01  0.51100000000E-03 0. -1.
</event>
<event>
 8    1  0.1022673E+005  0.1043930E+01  0.7957747E-01            NaN
         13   -1    0    0    0    0  0.00000000000E+00  0.00000000000E+00  0.74505805969E-08  0.10566000000E+00  0.10566000000E+00 0. -1.
     999900   -1    0    0    0    0 -0.00000000000E+00 -0.00000000000E+00 -0.74505805969E-08  0.93827000000E+00  0.93827000000E+00 0.  1.
     999902    2    1    2    0    0 -0.83481160210E-02 -0.19415927817E-01 -0.97958515545E-02  0.10206356230E+01  0.10203697599E+01 0.  0.
     999903    2    3    3    0    0 -0.93097663178E-01  0.80743132728E-01 -0.38237857602E-01  0.13045402864E+00  0.19222160724E-01 0.  0.
         14    1    1    2    0    0  0.83481160210E-02  0.19415927817E-01  0.97958515545E-02  0.23294377042E-01  0.00000000000E+00 0.  1.
     999901    1    3    3    0    0  0.84749547157E-01 -0.10015906054E+00  0.28442006047E-01  0.89018159432E+00  0.88000000000E+00 0.  1.
        -11    1    4    4    0    0 -0.47379248064E-01  0.37620000015E-01 -0.28417283539E-01  0.66842057665E-01  0.51100000000E-03 0. -1.
         11    1    4    4    0    0 -0.45718415114E-01  0.43123132713E-01 -0.98205740631E-02  0.63611970976E-01  0.51100000000E-03 0.  1.
</event>
<event>
 8    1  0.1022673E+005  0.1043930E+01  0.7957747E-01            NaN
         13   -1    0    0    0    0  0.00000000000E+00  0.00000000000E+00  0.74505805969E-08  0.10566000000E+00  0.10566000000E+00 0.  1.
     999900   -1    0    0    0    0 -0.00000000000E+00 -0.00000000000E+00 -0.74505805969E-08  0.93827000000E+00  0.93827000000E+00 0. -1.
     999902    2    1    2    0    0 -0.13868035563E-01  0.17187550206E-01  0.73987575191E-02  0.10206388878E+01  0.10203731001E+01 0.  0.
     999903    2    3    3    0    0  0.13884369239E-02 -0.12351194848E+00  0.30895243334E-01  0.12902170894E+00  0.20855602155E-01 0.  0.
         14    1    1    2    0    0  0.13868035563E-01 -0.17187550206E-01 -0.73987575191E-02  0.23291112152E-01  0.00000000000E+00 0. -1.
     999901    1    3    3    0    0 -0.15256472487E-01  0.14069949869E+00 -0.23496485815E-01  0.89161717891E+00  0.88000000000E+00 0. -1.
        -11    1    4    4    0    0  0.98727694637E-02 -0.37355121555E-01  0.11253455137E-01  0.40246466389E-01  0.51100000000E-03 0.  1.
         11    1    4    4    0    0 -0.84843325398E-02 -0.86156826927E-01  0.19641788197E-01  0.88775242548E-01  0.51100000000E-03 0. -1.
</event>
<event>
 7    1  0.1022673E+005  0.1043930E+01  0.7957747E-01            NaN
         13   -1    0    0    0    0  0.00000000000E+00  0.00000000000E+00  0.74505805969E-08  0.10566000000E+00  0.10566000000E+00 0. -1.
     999900   -1    0    0    0    0 -0.00000000000E+00 -0.00000000000E+00 -0.74505805969E-08  0.93827000000E+00  0.93827000000E+00 0.  1.
     999903    2    1    2    0    0  0.92002852833E-01  0.66335971551E-01  0.22497887879E-01  0.11727985584E+00  0.19581204647E-01 0.  0.
         14    1    1    2    0    0 -0.22568620827E-01  0.13015108103E-01  0.28846572859E-01  0.38869788406E-01  0.00000000000E+00 0. -1.
     999901    1    1    2    0    0 -0.69434232007E-01 -0.79351079655E-01 -0.51344460739E-01  0.88778035576E+00  0.88000000000E+00 0.  1.
        -11    1    3    3    0    0  0.36241502688E-01  0.32349700426E-01  0.12228950389E-02  0.48597389107E-01  0.51100000000E-03 0.  1.
         11    1    3    3    0    0  0.55761350145E-01  0.33986271126E-01  0.21274992841E-01  0.68682466732E-01  0.51100000000E-03 0. -1.
</event>
<event>
 8    1  0.1022673E+005  0.1043930E+01  0.7957747E-01            NaN
         13   -1    0    0    0    0  0.00000000000E+00  0.00000000000E+00  0.74505805969E-08  0.10566000000E+00  0.10566000000E+00 0. -1.
     999900   -1    0    0    0    0 -0.00000000000E+00 -0.00000000000E+00 -0.74505805969E-08  0.93827000000E+00  0.93827000000E+00 0. -1.
     999902    2    1    2    0    0  0.92931034689E-02 -0.32531585689E-02 -0.21499139119E-01  0.10202834824E+01  0.10200094248E+01 0.  0.
     999903    2    3    3    0    0  0.70369308579E-02  0.48083474186E-01 -0.12231319038E+00  0.13303830031E+00  0.19419936172E-01 0.  0.
         14    1    1    2    0    0 -0.92931034689E-02  0.32531585689E-02  0.21499139119E-01  0.23646517621E-01  0.00000000000E+00 0. -1.
     999901    1    3    3    0    0  0.22561726110E-02 -0.51336632755E-01  0.10081405126E+00  0.88724518207E+00  0.88000000000E+00 0.  1.
        -11    1    4    4    0    0 -0.42034277750E-02  0.50082848051E-02 -0.27816569424E-01  0.28579264813E-01  0.51100000000E-03 0. -1.
         11    1    4    4    0    0  0.11240358633E-01  0.43075189381E-01 -0.94496620960E-01  0.10445903549E+00  0.51100000000E-03 0.  1.
</event>
<event>
 8    1  0.1022673E+005  0.1043930E+01  0.7957747E-01            NaN
         13   -1    0    0    0    0  0.00000000000E+00  0.00000000000E+00  0.74505805969E-08  0.10566000000E+00  0.10566000000E+00 0.  1.
     999900   -1    0    0    0    0 -0.00000000000E+00 -0.00000000000E+00 -0.74505805969E-08  0.93827000000E+00  0.93827000000E+00 0.  1.
     999902    2    1    2    0    0  0.15605991695E-01 -0.16463195627E-01 -0.12873706387E-01  0.10178471301E+01  0.10175128815E+01 0.  0.
     999903    2    3    3    0    0  0.11617491202E-01 -0.44270108698E-01  0.11760123096E+00  0.12778373806E+00  0.20095411465E-01 0.  0.
         14    1    1    2    0    0 -0.15605991695E-01  0.16463195627E-01  0.12873706387E-01  0.26082869918E-01  0.00000000000E+00 0.  1.
     999901    1    3    3    0    0  0.39885004925E-02  0.27806913071E-01 -0.13047493735E+00  0.89006339203E+00  0.88000000000E+00 0.  1.
        -11    1    4    4    0    0  0.11733700751E-01 -0.20792605557E-01  0.79665916174E-01  0.83168091838E-01  0.51100000000E-03 0. -1.
         11    1    4    4    0    0 -0.11620954921E-03 -0.23477503141E-01  0.37935314786E-01  0.44615646217E-01  0.51100000000E-03 0.  1.
</event>
<event>
 8    1  0.1022673E+005  0.1043930E+01  0.7957747E-01            NaN
         13   -1    0    0    0    0  0.00000000000E+00  0.00000000000E+00  0.74505805969E-08  0.10566000000E+00  0.10566000000E+00 0. -1.
     999900   -1    0    0    0    0 -0.00000000000E+00 -0.00000000000E+00 -0.74505805969E-08  0.93827000000E+00  0.93827000000E+00 0.  1.
     999902    2    1    2    0    0 -0.11856718917E-01  0.18295572004E-01 -0.74302376128E-02  0.10208970200E+01  0.10206371575E+01 0.  0.
     999903    2    3    3    0    0 -0.30953616409E-01 -0.71791134231E-01 -0.10312200516E+00  0.13093229004E+00  0.19925443598E-01 0.  0.
         14    1    1    2    0    0  0.11856718917E-01 -0.18295572004E-01  0.74302376128E-02  0.23032980038E-01  0.00000000000E+00 0.  1.
     999901    1    3    3    0    0  0.19096897492E-01  0.90086706235E-01  0.95691767550E-01  0.88996472993E+00  0.88000000000E+00 0. -1.
        -11    1    4    4    0    0  0.24676110270E-02 -0.19560600906E-02 -0.31149289412E-02  0.44586072453E-02  0.51100000000E-03 0. -1.
         11    1    4    4    0    0 -0.33421227436E-01 -0.69835074140E-01 -0.10000707622E+00  0.12647368279E+00  0.51100000000E-03 0.  1.
</event>
<event>
 8    1  0.1022673E+005  0.1043930E+01  0.7957747E-01            NaN
         13   -1    0    0    0    0  0.00000000000E+00  0.00000000000E+00  0.74505805969E-08  0.10566000000E+00  0.10566000000E+00 0.  1.
     999900   -1    0    0    0    0 -0.00000000000E+00 -0.00000000000E+00 -0.74505805969E-08  0.93827000000E+00  0.93827000000E+00 0. -1.
     999902    2    1    2    0    0  0.27914054014E-02  0.23752885832E-01 -0.69078472437E-03  0.10200036816E+01  0.10197230221E+01 0.  0.
     999903    2    3    3    0    0 -0.10398360694E+00 -0.37628702675E-01 -0.63605769404E-01  0.12920241420E+00  0.20470958870E-01 0.  0.
         14    1    1    2    0    0 -0.27914054014E-02 -0.23752885832E-01  0.69078472437E-03  0.23926318417E-01  0.00000000000E+00 0.  1.
     999901    1    3    3    0    0  0.10677501234E+00  0.61381588507E-01  0.62914984679E-01  0.89080126738E+00  0.88000000000E+00 0.  1.
        -11    1    4    4    0    0 -0.87850933876E-01 -0.24423560482E-01 -0.55984536439E-01  0.10699918846E+00  0.51100000000E-03 0. -1.
         11    1    4    4    0    0 -0.16132673064E-01 -0.13205142194E-01 -0.76212329648E-02  0.22203225744E-01  0.51100000000E-03 0.  1.
</event>
<event>
 8    1  0.1022673E+005  0.1043930E+01  0.7957747E-01            NaN
         13   -1    0    0    0    0  0.00000000000E+00  0.00000000000E+00  0.74505805969E-08  0.10566000000E+00  0.10566000000E+00 0. -1.
     999900   -1    0    0    0    0 -0.00000000000E+00 -0.00000000000E+00 -0.74505805969E-08  0.93827000000E+00  0.93827000000E+00 0. -1.
     999902    2    1    2    0    0 -0.16440344117E-01 -0.15725694277E-01  0.10333751287E-02  0.10211561062E+01  0.10209021221E+01 0.  0.
     999903    2    3    3    0    0 -0.12546783043E+00 -0.18658133249E-01 -0.36848123054E-01  0.13361421992E+00  0.20116490324E-01 0.  0.
         14    1    1    2    0    0  0.16440344117E-01  0.15725694277E-01 -0.10333751287E-02  0.22773893811E-01  0.00000000000E+00 0. -1.
     999901    1    3    3    0    0  0.10902748632E+00  0.29324389724E-02  0.37881498183E-01  0.88754188627E+00  0.88000000000E+00 0.  1.
        -11    1    4    4    0    0 -0.18594925893E-01 -0.52374805284E-02 -0.13004248913E-01  0.23293219658E-01  0.51100000000E-03 0. -1.
         11    1    4    4    0    0 -0.10687290454E+00 -0.13420652721E-01 -0.23843874142E-01  0.11032100027E+00  0.51100000000E-03 0.  1.
</event>
<event>
 8    1  0.1022673E+005  0.1043930E+01  0.7957747E-01            NaN
         13   -1    0    0    0    0  0.00000000000E+00  0.00000000000E+00  0.74505805969E-08  0.10566000000E+00  0.10566000000E+00 0. -1.
     999900   -1    0    0    0    0 -0.00000000000E+00 -0.00000000000E+00 -0.74505805969E-08  0.93827000000E+00  0.93827000000E+00 0.  1.
     999902    2    1    2    0    0  0.12392266883E-01  0.16176075959E-01  0.11887345419E-01  0.10203388429E+01  0.10200660820E+01 0.  0.
     999903    2    3    3    0    0  0.12386376135E-01 -0.90028596184E-01  0.91415006104E-01  0.13039273148E+00  0.19672077633E-01 0.  0.
         14    1    1    2    0    0 -0.12392266883E-01 -0.16176075959E-01 -0.11887345419E-01  0.23591157094E-01  0.00000000000E+00 0. -1.
     999901    1    3    3    0    0  0.58907480640E-05  0.10620467214E+00 -0.79527660685E-01  0.88994611142E+00  0.88000000000E+00 0.  1.
        -11    1    4    4    0    0  0.93829202084E-02 -0.15732157533E-01  0.14090338501E-01  0.23115768046E-01  0.51100000000E-03 0. -1.
         11    1    4    4    0    0  0.30034559265E-02 -0.74296438651E-01  0.77324667602E-01  0.10727696344E+00  0.51100000000E-03 0.  1.
</event>
<event>
 8    1  0.1022673E+005  0.1043930E+01  0.7957747E-01            NaN
         13   -1    0    0    0    0  0.00000000000E+00  0.00000000000E+00  0.74505805969E-08  0.10566000000E+00  0.10566000000E+00 0. -1.
     999900   -1    0    0    0    0 -0.00000000000E+00 -0.00000000000E+00 -0.74505805969E-08  0.93827000000E+00  0.93827000000E+00 0.  1.
     999902    2    1    2    0    0 -0.22523525019E-01  0.59977799794E-02  0.35794384214E-02  0.10203483350E+01  0.10200757961E+01 0.  0.
     999903    2    3    3    0    0 -0.52755029478E-01  0.55475593494E-01  0.10629479638E+00  0.13247872598E+00  0.19783692520E-01 0.  0.
         14    1    1    2    0    0  0.22523525019E-01 -0.59977799794E-02 -0.35794384214E-02  0.23581664983E-01  0.00000000000E+00 0.  1.
     999901    1    3    3    0    0  0.30231504459E-01 -0.49477813515E-01 -0.10271535796E+00  0.88786960904E+00  0.88000000000E+00 0.  1.
        -11    1    4    4    0    0 -0.74148844912E-02  0.20183225475E-01  0.32017101568E-01  0.38570701529E-01  0.51100000000E-03 0.  1.
         11    1    4    4    0    0 -0.45340144987E-01  0.35292368018E-01  0.74277694817E-01  0.93908024450E-01  0.51100000000E-03 0. -1.
</event>
<event>
 8    1  0.1022673E+005  0.1043930E+01  0.7957747E-01            NaN
         13   -1    0    0    0    0  0.00000000000E+00  0.00000000000E+00  0.74505805969E-08  0.10566000000E+00  0.10566000000E+00 0.  1.
     999900   -1    0    0    0    0 -0.00000000000E+00 -0.00000000000E+00 -0.74505805969E-08  0.93827000000E+00  0.93827000000E+00 0. -1.
     999902    2    1    2    0    0  0.16037581756E-02 -0.15393345187E-01  0.17170937172E-01  0.10208135946E+01  0.10205518246E+01 0.  0.
     999903    2    3    3    0    0  0.68041573119E-02  0.43950105476E-01  0.12312887581E+00  0.13245793717E+00  0.20161268145E-01 0.  0.
         14    1    1    2    0    0 -0.16037581756E-02  0.15393345187E-01 -0.17170937172E-01  0.23116405423E-01  0.00000000000E+00 0. -1.
     999901    1    3    3    0    0 -0.52003991362E-02 -0.59343450663E-01 -0.10595793864E+00  0.88835565741E+00  0.88000000000E+00 0. -1.
        -11    1    4    4    0    0 -0.70879193913E-02  0.13509866234E-01  0.34715527252E-01  0.37923397004E-01  0.51100000000E-03 0.  1.
         11    1    4    4    0    0  0.13892076703E-01  0.30440239241E-01  0.88413348556E-01  0.94534540165E-01  0.51100000000E-03 0. -1.
</event>
<event>
 8    1  0.1022673E+005  0.1043930E+01  0.7957747E-01            NaN
         13   -1    0    0    0    0  0.00000000000E+00  0.00000000000E+00  0.74505805969E-08  0.10566000000E+00  0.10566000000E+00 0.  1.
     999900   -1    0    0    0    0 -0.00000000000E+00 -0.00000000000E+00 -0.74505805969E-08  0.93827000000E+00  0.93827000000E+00 0. -1.
     999902    2    1    2    0    0  0.23399632849E-01 -0.57888861966E-02 -0.29731764305E-02  0.10196422706E+01  0.10193529645E+01 0.  0.
     999903    2    3    3    0    0 -0.13451773739E-01 -0.12710758676E+00 -0.15645319966E-01  0.13046465253E+00  0.20951388815E-01 0.  0.
         14    1    1    2    0    0 -0.23399632849E-01  0.57888861966E-02  0.29731764305E-02  0.24287729391E-01  0.00000000000E+00 0.  1.
     999901    1    3    3    0    0  0.36851406588E-01  0.12131870057E+00  0.12672143536E-01  0.88917761808E+00  0.88000000000E+00 0.  1.
        -11    1    4    4    0    0  0.17800400069E-02 -0.41447526026E-01 -0.12778489179E-01  0.43412174132E-01  0.51100000000E-03 0. -1.
         11    1    4    4    0    0 -0.15231813746E-01 -0.85660060736E-01 -0.28668307869E-02  0.87052478397E-01  0.51100000000E-03 0.  1.
</event>
<event>
 8    1  0.1022673E+005  0.1043930E+01  0.7957747E-01            NaN
         13   -1    0    0    0    0  0.00000000000E+00  0.00000000000E+00  0.74505805969E-08  0.10566000000E+00  0.10566000000E+00 0. -1.
     999900   -1    0    0    0    0 -0.00000000000E+00 -0.00000000000E+00 -0.74505805969E-08  0.93827000000E+00  0.93827000000E+00 0. -1.
     999902    2    1    2    0    0  0.15216266638E-01 -0.17498050000E-01  0.49249400267E-02  0.10202240607E+01  0.10199486078E+01 0.  0.
     999903    2    3    3    0    0 -0.11669019292E-01 -0.49002428014E-01  0.12002424407E+00  0.13176292242E+00  0.20451029266E-01 0.  0.
         14    1    1    2    0    0 -0.15216266638E-01  0.17498050000E-01 -0.49249400267E-02  0.23705939308E-01  0.00000000000E+00 0.  1.
     999901    1    3    3    0    0  0.26885285930E-01  0.31504378014E-01 -0.11509930404E+00  0.88846113827E+00  0.88000000000E+00 0. -1.
        -11    1    4    4    0    0  0.21553630571E-02 -0.32567207701E-01  0.66211185183E-01  0.73820395364E-01  0.51100000000E-03 0.  1.
         11    1    4    4    0    0 -0.13824382350E-01 -0.16435220313E-01  0.53813058883E-01  0.57942527054E-01  0.51100000000E-03 0. -1.
</event>
<event>
 8    1  0.1022673E+005  0.1043930E+01  0.7957747E-01            NaN
         13   -1    0    0    0    0  0.00000000000E+00  0.00000000000E+00  0.74505805969E-08  0.10566000000E+00  0.10566000000E+00 0.  1.
     999900   -1    0    0    0    0 -0.00000000000E+00 -0.00000000000E+00 -0.74505805969E-08  0.93827000000E+00  0.93827000000E+00 0.  1.
     999902    2    1    2    0    0 -0.18529305648E-01  0.60492526694E-03  0.14172504368E-01  0.10205941696E+01  0.10203273484E+01 0.  0.
     999903    2    3    3    0    0 -0.79899011236E-01 -0.23299169177E-02  0.10520831452E+00  0.13376703150E+00  0.20869805047E-01 0.  0.
         14    1    1    2    0    0  0.18529305648E-01 -0.60492526694E-03 -0.14172504368E-01  0.23335830442E-01  0.00000000000E+00 0. -1.
     999901    1    3    3    0    0  0.61369705588E-01  0.29348421847E-02 -0.91035810154E-01  0.88682713806E+00  0.88000000000E+00 0.  1.
        -11    1    4    4    0    0 -0.50171022035E-01  0.86391450761E-02  0.63864330046E-01  0.81674231266E-01  0.51100000000E-03 0. -1.
         11    1    4    4    0    0 -0.29727989201E-01 -0.10969061994E-01  0.41343984476E-01  0.52092800235E-01  0.51100000000E-03 0.  1.
</event>
<event>
 8    1  0.1022673E+005  0.1043930E+01  0.7957747E-01            NaN
         13   -1    0    0    0    0  0.00000000000E+00  0.00000000000E+00  0.74505805969E-08  0.10566000000E+00  0.10566000000E+00 0. -1.
     999900   -1    0    0    0    0 -0.00000000000E+00 -0.00000000000E+00 -0.74505805969E-08  0.93827000000E+00  0.93827000000E+00 0. -1.
     999902    2    1    2    0    0  0.10211101641E-01 -0.19166039761E-01 -0.76323263755E-02  0.10209113970E+01  0.10206518625E+01 0.  0.
     999903    2    3    3    0    0 -0.10072898100E+00  0.57079406013E-01 -0.53574545483E-01  0.12949019612E+00  0.22205692102E-01 0.  0.
         14    1    1    2    0    0 -0.10211101641E-01  0.19166039761E-01  0.76323263755E-02  0.23018602971E-01  0.00000000000E+00 0. -1.
     999901    1    3    3    0    0  0.11094008265E+00 -0.76245445774E-01  0.45942219107E-01  0.89142120091E+00  0.88000000000E+00 0.  1.
        -11    1    4    4    0    0 -0.12562315851E-01  0.16666516229E-01 -0.10448143234E-01  0.23345435545E-01  0.51100000000E-03 0. -1.
         11    1    4    4    0    0 -0.88166665153E-01  0.40412889784E-01 -0.43126402249E-01  0.10614476057E+00  0.51100000000E-03 0.  1.
</event>
<event>
 8    1  0.1022673E+005  0.1043930E+01  0.7957747E-01            NaN
         13   -1    0    0    0    0  0.00000000000E+00  0.00000000000E+00  0.74505805969E-08  0.10566000000E+00  0.10566000000E+00 0. -1.
     999900   -1    0    0    0    0 -0.00000000000E+00 -0.00000000000E+00 -0.74505805969E-08  0.93827000000E+00  0.93827000000E+00 0. -1.
     999902    2    1    2    0    0 -0.72014308032E-02 -0.22398975422E-01  0.27513322565E-02  0.10202415105E+01  0.10199664677E+01 0.  0.
     999903    2    3    3    0    0  0.51280611165E-01 -0.58336979062E-01  0.10430795494E+00  0.13174534453E+00  0.21066137122E-01 0.  0.
         14    1    1    2    0    0  0.72014308032E-02  0.22398975422E-01 -0.27513322565E-02  0.23688489499E-01  0.00000000000E+00 0.  1.
     999901    1    3    3    0    0 -0.58482041968E-01  0.35938003640E-01 -0.10155662268E+00  0.88849616597E+00  0.88000000000E+00 0. -1.
        -11    1    4    4    0    0  0.12532726745E-01 -0.16598453764E-01  0.44687715224E-01  0.49293315166E-01  0.51100000000E-03 0. -1.
         11    1    4    4    0    0  0.38747884421E-01 -0.41738525298E-01  0.59620239715E-01  0.82452029362E-01  0.51100000000E-03 0.  1.
</event>
<event>
 8    1  0.1022673E+005  0.1043930E+01  0.7957747E-01            NaN
         13   -1    0    0    0    0  0.00000000000E+00  0.00000000000E+00  0.74505805969E-08  0.10566000000E+00  0.10566000000E+00 0.  1.
     999900   -1    0    0    0    0 -0.00000000000E+00 -0.00000000000E+00 -0.74505805969E-08  0.93827000000E+00  0.93827000000E+00 0. -1.
     999902    2    1    2    0    0  0.13789957049E-02 -0.21618569594E-01 -0.83202337646E-02  0.10207246026E+01  0.10204607899E+01 0.  0.
     999903    2    3    3    0    0  0.10174148382E+00 -0.26236203279E-01 -0.78062398181E-01  0.13226643187E+00  0.19000081522E-01 0.  0.
         14    1    1    2    0    0 -0.13789957049E-02  0.21618569594E-01  0.83202337646E-02  0.23205397440E-01  0.00000000000E+00 0.  1.
     999901    1    3    3    0    0 -0.10036248812E+00  0.46176336852E-02  0.69742164417E-01  0.88845817069E+00  0.88000000000E+00 0. -1.
        -11    1    4    4    0    0  0.67574812099E-01 -0.23252989634E-01 -0.60987304833E-01  0.93950887324E-01  0.51100000000E-03 0.  1.
         11    1    4    4    0    0  0.34166671723E-01 -0.29832136459E-02 -0.17075093349E-01  0.38315544550E-01  0.51100000000E-03 0. -1.
</event>
<event>
 8    1  0.1022673E+005  0.1043930E+01  0.7957747E-01            NaN
         13   -1    0    0    0    0  0.00000000000E+00  0.00000000000E+00  0.74505805969E-08  0.10566000000E+00  0.10566000000E+00 0.  1.
     999900   -1    0    0    0    0 -0.00000000000E+00 -0.00000000000E+00 -0.74505805969E-08  0.93827000000E+00  0.93827000000E+00 0. -1.
     999902    2    1    2    0    0  0.55132637625E-02  0.21478974611E-01  0.82052273793E-02  0.10202853773E+01  0.10200113641E+01 0.  0.
     999903    2    3    3    0    0 -0.63305700463E-01  0.63491204415E-02  0.11311367608E+00  0.13125739968E+00  0.19643783061E-01 0.  0.
         14    1    1    2    0    0 -0.55132637625E-02 -0.21478974611E-01 -0.82052273793E-02  0.23644622729E-01  0.00000000000E+00 0.  1.
     999901    1    3    3    0    0  0.68818964225E-01  0.15129854170E-01 -0.10490844870E+00  0.88902797759E+00  0.88000000000E+00 0. -1.
        -11    1    4    4    0    0 -0.40007929644E-01  0.69088766601E-02  0.88433301945E-01  0.97309182635E-01  0.51100000000E-03 0. -1.
         11    1    4    4    0    0 -0.23297770819E-01 -0.55975621858E-03  0.24680374138E-01  0.33948217048E-01  0.51100000000E-03 0.  1.
</event>
<event>
 8    1  0.1022673E+005  0.1043930E+01  0.7957747E-01            NaN
         13   -1    0    0    0    0  0.00000000000E+00  0.00000000000E+00  0.74505805969E-08  0.10566000000E+00  0.10566000000E+00 0. -1.
     999900   -1    0    0    0    0 -0.00000000000E+00 -0.00000000000E+00 -0.74505805969E-08  0.93827000000E+00  0.93827000000E+00 0. -1.
     999902    2    1    2    0    0 -0.29334913322E-01 -0.26248872550E-02 -0.10636573264E-01  0.10126160436E+01  0.10121317542E+01 0.  0.
     999903    2    3    3    0    0  0.10495350992E+00  0.45261246523E-01  0.31144344097E-01  0.12016318354E+00  0.20134568007E-01 0.  0.
         14    1    1    2    0    0  0.29334913322E-01  0.26248872550E-02  0.10636573264E-01  0.31313956369E-01  0.00000000000E+00 0.  1.
     999901    1    3    3    0    0 -0.13428842324E+00 -0.47886133778E-01 -0.41780917361E-01  0.89245286009E+00  0.88000000000E+00 0. -1.
        -11    1    4    4    0    0  0.39088789169E-01  0.64975675070E-02  0.10952375385E-01  0.41114078729E-01  0.51100000000E-03 0. -1.
         11    1    4    4    0    0  0.65864720749E-01  0.38763679016E-01  0.20191968712E-01  0.79049104813E-01  0.51100000000E-03 0.  1.
</event>
<event>
 8    1  0.1022673E+005  0.1043930E+01  0.7957747E-01            NaN
         13   -1    0    0    0    0  0.00000000000E+00  0.00000000000E+00  0.74505805969E-08  0.10566000000E+00  0.10566000000E+00 0.  1.
     999900   -1    0    0    0    0 -0.00000000000E+00 -0.00000000000E+00 -0.74505805969E-08  0.93827000000E+00  0.93827000000E+00 0. -1.
     999902    2    1    2    0    0  0.13238857554E-01 -0.18745710370E-01 -0.37971235296E-02  0.10206687199E+01  0.10204036204E+01 0.  0.
     999903    2    3    3    0    0 -0.26403096772E-01  0.28179617437E-01 -0.12288190346E+00  0.13052566633E+00  0.21113337401E-01 0.  0.
         14    1    1    2    0    0 -0.13238857554E-01  0.18745710370E-01  0.37971235296E-02  0.23261280139E-01  0.00000000000E+00 0. -1.
     999901    1    3    3    0    0  0.39641954326E-01 -0.46925327807E-01  0.11908477993E+00  0.89014305353E+00  0.88000000000E+00 0.  1.
        -11    1    4    4    0    0 -0.18146312208E-01  0.30339529145E-01 -0.10235425697E+00  0.10828864537E+00  0.51100000000E-03 0. -1.
         11    1    4    4    0    0 -0.82567845646E-02 -0.21599117074E-02 -0.20527646489E-01  0.22237020963E-01  0.51100000000E-03 0.  1.
</event>
<event>
 8    1  0.1022673E+005  0.1043930E+01  0.7957747E-01            NaN
         13   -1    0    0    0    0  0.00000000000E+00  0.00000000000E+00  0.74505805969E-08  0.10566000000E+00  0.10566000000E+00 0.  1.
     999900   -1    0    0    0    0 -0.00000000000E+00 -0.00000000000E+00 -0.74505805969E-08  0.93827000000E+00  0.93827000000E+00 0.  1.
     999902    2    1    2    0    0  0.48034452566E-02 -0.84491583779E-02 -0.21324256860E-01  0.10204952972E+01  0.10202261839E+01 0.  0.
     999903    2    3    3    0    0  0.43728988559E-01 -0.12192303606E+00  0.11197403661E-01  0.13176070397E+00  0.21402105009E-01 0.  0.
         14    1    1    2    0    0 -0.48034452566E-02  0.84491583779E-02  0.21324256860E-01  0.23434702777E-01  0.00000000000E+00 0.  1.
     999901    1    3    3    0    0 -0.38925543302E-01  0.11347387769E+00 -0.32521660521E-01  0.88873459325E+00  0.88000000000E+00 0.  1.
        -11    1    4    4    0    0  0.24162991282E-01 -0.87481039419E-01  0.62908488781E-03  0.90760339766E-01  0.51100000000E-03 0. -1.
         11    1    4    4    0    0  0.19565997277E-01 -0.34441996645E-01  0.10568318773E-01  0.41000364206E-01  0.51100000000E-03 0.  1.
</event>
<event>
 8    1  0.1022673E+005  0.1043930E+01  0.7957747E-01            NaN
         13   -1    0    0    0    0  0.00000000000E+00  0.00000000000E+00  0.74505805969E-08  0.10566000000E+00  0.10566000000E+00 0. -1.
     999900   -1    0    0    0    0 -0.00000000000E+00 -0.00000000000E+00 -0.74505805969E-08  0.93827000000E+00  0.93827000000E+00 0. -1.
     999902    2    1    2    0    0 -0.27499115926E-02  0.17577928763E-01  0.15858350344E-01  0.10200965599E+01  0.10198181007E+01 0.  0.
     999903    2    3    3    0    0  0.12616887807E+00  0.26818675493E-01  0.12975542138E-02  0.13053629629E+00  0.20005345647E-01 0.  0.
         14    1    1    2    0    0  0.27499115926E-02 -0.17577928763E-01 -0.15858350344E-01  0.23833440141E-01  0.00000000000E+00 0.  1.
     999901    1    3    3    0    0 -0.12891878966E+00 -0.92407467303E-02  0.14560796130E-01  0.88956026356E+00  0.88000000000E+00 0. -1.
        -11    1    4    4    0    0  0.63209805148E-01  0.12228392756E-01  0.10567573274E-01  0.65245289348E-01  0.51100000000E-03 0.  1.
         11    1    4    4    0    0  0.62959072923E-01  0.14590282737E-01 -0.92700190602E-02  0.65291006946E-01  0.51100000000E-03 0. -1.
</event>
<event>
 8    1  0.1022673E+005  0.1043930E+01  0.7957747E-01            NaN
         13   -1    0    0    0    0  0.00000000000E+00  0.00000000000E+00  0.74505805969E-08  0.10566000000E+00  0.10566000000E+00 0. -1.
     999900   -1    0    0    0    0 -0.00000000000E+00 -0.00000000000E+00 -0.74505805969E-08  0.93827000000E+00  0.93827000000E+00 0.  1.
     999902    2    1    2    0    0  0.23039065002E-01 -0.44025484163E-02  0.25978943526E-02  0.10203306355E+01  0.10200576826E+01 0.  0.
     999903    2    3    3    0    0 -0.99171569271E-01  0.57363410092E-01 -0.53207742651E-01  0.12799396034E+00  0.20635625390E-01 0.  0.
         14    1    1    2    0    0 -0.23039065002E-01  0.44025484163E-02 -0.25978943526E-02  0.23599364479E-01  0.00000000000E+00 0.  1.
     999901    1    3    3    0    0  0.12221063427E+00 -0.61765958508E-01  0.55805637004E-01  0.89233667519E+00  0.88000000000E+00 0. -1.
        -11    1    4    4    0    0 -0.32852364376E-01  0.30580070903E-01 -0.20603844330E-01  0.49388238516E-01  0.51100000000E-03 0. -1.
         11    1    4    4    0    0 -0.66319204895E-01  0.26783339189E-01 -0.32603898321E-01  0.78605721820E-01  0.51100000000E-03 0.  1.
</event>
<event>
 8    1  0.1022673E+005  0.1043930E+01  0.7957747E-01            NaN
         13   -1    0    0    0    0  0.00000000000E+00  0.00000000000E+00  0.74505805969E-08  0.10566000000E+00  0.10566000000E+00 0.  1.
     999900   -1    0    0    0    0 -0.00000000000E+00 -0.00000000000E+00 -0.74505805969E-08  0.93827000000E+00  0.93827000000E+00 0.  1.
     999902    2    1    2    0    0  0.12381835402E-01 -0.20347743661E-01  0.12741100048E-02  0.10200770363E+01  0.10197981154E+01 0.  0.
     999903    2    3    3    0    0 -0.46814439279E-01 -0.10669214891E+00  0.58643353338E-01  0.13201691148E+00  0.20362113411E-01 0.  0.
         14    1    1    2    0    0 -0.12381835402E-01  0.20347743661E-01 -0.12741100048E-02  0.23852963680E-01  0.00000000000E+00 0. -1.
     999901    1    3    3    0    0  0.59196274681E-01  0.86344405245E-01 -0.57369243333E-01  0.88806012484E+00  0.88000000000E+00 0.  1.
        -11    1    4    4    0    0 -0.37388158112E-01 -0.92732962862E-01  0.56979411658E-01  0.11508340993E+00  0.51100000000E-03 0.  1.
         11    1    4    4    0    0 -0.94262811672E-02 -0.13959186044E-01  0.16639416795E-02  0.16933501544E-01  0.51100000000E-03 0. -1.
</event>
<event>
 8    1  0.1022673E+005  0.1043930E+01  0.7957747E-01            NaN
         13   -1    0    0    0    0  0.00000000000E+00  0.00000000000E+00  0.74505805969E-08  0.10566000000E+00  0.10566000000E+00 0.  1.
     999900   -1    0    0    0    0 -0.00000000000E+00 -0.00000000000E+00 -0.74505805969E-08  0.93827000000E+00  0.93827000000E+00 0.  1.
     999902    2    1    2    0    0  0.22124550627E-01 -0.72531177035E-02  0.28474928006E-02  0.10204734088E+01  0.10202037867E+01 0.  0.
     999903    2    3    3    0    0  0.12057116771E+00 -0.13141475779E-01 -0.51515714925E-01  0.13329711990E+00  0.20103443032E-01 0.  0.
         14    1    1    2    0    0 -0.22124550627E-01  0.72531177035E-02 -0.28474928006E-02  0.23456591230E-01  0.00000000000E+00 0.  1.
     999901    1    3    3    0    0 -0.98446617081E-01  0.58883580757E-02  0.54363207725E-01  0.88717628887E+00  0.88000000000E+00 0.  1.
        -11    1    4    4    0    0  0.81638563725E-01 -0.16889909529E-01 -0.29649899892E-01  0.88484472172E-01  0.51100000000E-03 0.  1.
         11    1    4    4    0    0  0.38932603984E-01  0.37484337501E-02 -0.21865815033E-01  0.44812647730E-01  0.51100000000E-03 0. -1.
</event>
<event>
 8    1  0.1022673E+005  0.1043930E+01  0.7957747E-01            NaN
         13   -1    0    0    0    0  0.00000000000E+00  0.00000000000E+00  0.74505805969E-08  0.10566000000E+00  0.10566000000E+00 0. -1.
     999900   -1    0    0    0    0 -0.00000000000E+00 -0.00000000000E+00 -0.74505805969E-08  0.93827000000E+00  0.93827000000E+00 0. -1.
     999902    2    1    2    0    0 -0.21943693458E-01  0.30049369653E-02  0.63175654106E-02  0.10208981316E+01  0.10206382945E+01 0.  0.
     999903    2    3    3    0    0 -0.77905163773E-02 -0.73909508142E-01  0.10657898073E+00  0.13175894358E+00  0.21863955277E-01 0.  0.
         14    1    1    2    0    0  0.21943693458E-01 -0.30049369653E-02 -0.63175654106E-02  0.23031868388E-01  0.00000000000E+00 0. -1.
     999901    1    3    3    0    0 -0.14153177081E-01  0.76914445107E-01 -0.10026141532E+00  0.88913918803E+00  0.88000000000E+00 0. -1.
        -11    1    4    4    0    0 -0.84308841930E-02 -0.87189382489E-02  0.19671033129E-01  0.23115154290E-01  0.51100000000E-03 0. -1.
         11    1    4    4    0    0  0.64036781572E-03 -0.65190569893E-01  0.86907947605E-01  0.10864378929E+00  0.51100000000E-03 0.  1.
</event>
<event>
 8    1  0.1022673E+005  0.1043930E+01  0.7957747E-01            NaN
         13   -1    0    0    0    0  0.00000000000E+00  0.00000000000E+00  0.74505805969E-08  0.10566000000E+00  0.10566000000E+00 0.  1.
     999900   -1    0    0    0    0 -0.00000000000E+00 -0.00000000000E+00 -0.74505805969E-08  0.93827000000E+00  0.93827000000E+00 0.  1.
     999902    2    1    2    0    0 -0.80151432822E-02  0.19383579271E-01  0.98391405497E-02  0.10207616087E+01  0.10204986465E+01 0.  0.
     999903    2    3    3    0    0  0.63104816437E-02 -0.12592419841E+00 -0.13598182072E-01  0.12842261380E+00  0.20266505738E-01 0.  0.
         14    1    1    2    0    0  0.80151432822E-02 -0.19383579271E-01 -0.98391405497E-02  0.23168391268E-01  0.00000000000E+00 0. -1.
     999901    1    3    3    0    0 -0.14325624926E-01  0.14530777768E+00  0.23437322622E-01  0.89233899493E+00  0.88000000000E+00 0.  1.
        -11    1    4    4    0    0 -0.66780483903E-02 -0.53273582400E-01 -0.93076005865E-02  0.54493701120E-01  0.51100000000E-03 0. -1.
         11    1    4    4    0    0  0.12988530034E-01 -0.72650616013E-01 -0.42905814855E-02  0.73928912680E-01  0.51100000000E-03 0.  1.
</event>
<event>
 8    1  0.1022673E+005  0.1043930E+01  0.7957747E-01            NaN
         13   -1    0    0    0    0  0.00000000000E+00  0.00000000000E+00  0.74505805969E-08  0.10566000000E+00  0.10566000000E+00 0.  1.
     999900   -1    0    0    0    0 -0.00000000000E+00 -0.00000000000E+00 -0.74505805969E-08  0.93827000000E+00  0.93827000000E+00 0. -1.
     999902    2    1    2    0    0 -0.20597814770E-01  0.24107756203E-02 -0.20807090690E-01  0.10145528518E+01  0.10141274438E+01 0.  0.
     999903    2    3    3    0    0  0.82637355582E-01  0.20849385139E-01 -0.89995132972E-01  0.12562964483E+00  0.20495226372E-01 0.  0.
         14    1    1    2    0    0  0.20597814770E-01 -0.24107756203E-02  0.20807090690E-01  0.29377148184E-01  0.00000000000E+00 0.  1.
     999901    1    3    3    0    0 -0.10323517035E+00 -0.18438609518E-01  0.69188042282E-01  0.88892320698E+00  0.88000000000E+00 0.  1.
        -11    1    4    4    0    0  0.48777801302E-01  0.21559994462E-01 -0.48716815336E-01  0.72233624294E-01  0.51100000000E-03 0.  1.
         11    1    4    4    0    0  0.33859554280E-01 -0.71060932336E-03 -0.41278317636E-01  0.53396020540E-01  0.51100000000E-03 0. -1.
</event>
<event>
 8    1  0.1022673E+005  0.1043930E+01  0.7957747E-01            NaN
         13   -1    0    0    0    0  0.00000000000E+00  0.00000000000E+00  0.74505805969E-08  0.10566000000E+00  0.10566000000E+00 0. -1.
     999900   -1    0    0    0    0 -0.00000000000E+00 -0.00000000000E+00 -0.74505805969E-08  0.93827000000E+00  0.93827000000E+00 0. -1.
     999902    2    1    2    0    0  0.50415367622E-02  0.23521010252E-01 -0.77382308593E-03  0.10198623076E+01  0.10195782817E+01 0.  0.
     999903    2    3    3    0    0  0.58013783987E-01  0.51001925508E-01  0.10442571173E+00  0.13158971327E+00  0.21079085147E-01 0.  0.
         14    1    1    2    0    0 -0.50415367622E-02 -0.23521010252E-01  0.77382308593E-03  0.24067692419E-01  0.00000000000E+00 0.  1.
     999901    1    3    3    0    0 -0.52972247225E-01 -0.27480915257E-01 -0.10519953481E+00  0.88827259431E+00  0.88000000000E+00 0. -1.
        -11    1    4    4    0    0  0.50698414481E-01  0.41606314925E-01  0.98345974622E-01  0.11821001023E+00  0.51100000000E-03 0. -1.
         11    1    4    4    0    0  0.73153695065E-02  0.93956105839E-02  0.60797371058E-02  0.13379703044E-01  0.51100000000E-03 0.  1.
</event>
<event>
 8    1  0.1022673E+005  0.1043930E+01  0.7957747E-01            NaN
         13   -1    0    0    0    0  0.00000000000E+00  0.00000000000E+00  0.74505805969E-08  0.10566000000E+00  0.10566000000E+00 0.  1.
     999900   -1    0    0    0    0 -0.00000000000E+00 -0.00000000000E+00 -0.74505805969E-08  0.93827000000E+00  0.93827000000E+00 0.  1.
     999902    2    1    2    0    0  0.53811266584E-02  0.19869149650E-01  0.13264672083E-01  0.10194414076E+01  0.10191472378E+01 0.  0.
     999903    2    3    3    0    0 -0.10814179182E+00 -0.65346142671E-01  0.29535893948E-02  0.12800693582E+00  0.20304837506E-01 0.  0.
         14    1    1    2    0    0 -0.53811266584E-02 -0.19869149650E-01 -0.13264672083E-01  0.24488592394E-01  0.00000000000E+00 0. -1.
     999901    1    3    3    0    0  0.11352291848E+00  0.85215292322E-01  0.10311082689E-01  0.89143447179E+00  0.88000000000E+00 0.  1.
        -11    1    4    4    0    0 -0.72010398582E-01 -0.32073883398E-01  0.69922129558E-03  0.78835154161E-01  0.51100000000E-03 0. -1.
         11    1    4    4    0    0 -0.36131393242E-01 -0.33272259273E-01  0.22543680992E-02  0.49171781657E-01  0.51100000000E-03 0.  1.
</event>
<event>
 8    1  0.1022673E+005  0.1043930E+01  0.7957747E-01            NaN
         13   -1    0    0    0    0  0.00000000000E+00  0.00000000000E+00  0.74505805969E-08  0.10566000000E+00  0.10566000000E+00 0. -1.
     999900   -1    0    0    0    0 -0.00000000000E+00 -0.00000000000E+00 -0.74505805969E-08  0.93827000000E+00  0.93827000000E+00 0. -1.
     999902    2    1    2    0    0 -0.10072890395E-01 -0.55173613286E-02  0.20692945991E-01  0.10202635171E+01  0.10199889911E+01 0.  0.
     999903    2    3    3    0    0  0.21189342568E-01  0.22894962297E-01 -0.12222986788E+00  0.12773255518E+00  0.20057355569E-01 0.  0.
         14    1    1    2    0    0  0.10072890395E-01  0.55173613286E-02 -0.20692945991E-01  0.23666482855E-01  0.00000000000E+00 0.  1.
     999901    1    3    3    0    0 -0.31262232963E-01 -0.28412323625E-01  0.14292281387E+00  0.89253096197E+00  0.88000000000E+00 0.  1.
        -11    1    4    4    0    0  0.82888669622E-04 -0.23570622691E-02 -0.24291046564E-01  0.24410626318E-01  0.51100000000E-03 0. -1.
         11    1    4    4    0    0  0.21106453898E-01  0.25252024566E-01 -0.97938821320E-01  0.10332192886E+00  0.51100000000E-03 0.  1.
</event>
<event>
 8    1  0.1022673E+005  0.1043930E+01  0.7957747E-01            NaN
         13   -1    0    0    0    0  0.00000000000E+00  0.00000000000E+00  0.74505805969E-08  0.10566000000E+00  0.10566000000E+00 0.  1.
     999900   -1    0    0    0    0 -0.00000000000E+00 -0.00000000000E+00 -0.74505805969E-08  0.93827000000E+00  0.93827000000E+00 0. -1.
     999902    2    1    2    0    0  0.22356675780E-01  0.67013718820E-02 -0.24933297455E-02  0.10204577604E+01  0.10201877743E+01 0.  0.
     999903    2    3    3    0    0  0.69607642824E-01 -0.94006094995E-01 -0.57067107712E-01  0.13177730886E+00  0.20645447716E-01 0.  0.
         14    1    1    2    0    0 -0.22356675780E-01 -0.67013718820E-02  0.24933297455E-02  0.23472239566E-01  0.00000000000E+00 0. -1.
     999901    1    3    3    0    0 -0.47250967045E-01  0.10070746688E+00  0.54573777967E-01  0.88868045158E+00  0.88000000000E+00 0. -1.
        -11    1    4    4    0    0  0.77289384433E-02 -0.24600558385E-01 -0.12030087491E-01  0.28458884173E-01  0.51100000000E-03 0. -1.
         11    1    4    4    0    0  0.61878704381E-01 -0.69405536610E-01 -0.45037020221E-01  0.10331842469E+00  0.51100000000E-03 0.  1.
</event>
<event>
 8    1  0.1022673E+005  0.1043930E+01  0.7957747E-01            NaN
         13   -1    0    0    0    0  0.00000000000E+00  0.00000000000E+00  0.74505805969E-08  0.10566000000E+00  0.10566000000E+00 0.  1.
     999900   -1    0    0    0    0 -0.00000000000E+00 -0.00000000000E+00 -0.74505805969E-08  0.93827000000E+00  0.93827000000E+00 0.  1.
     999902    2    1    2    0    0 -0.10137485056E-01 -0.21696366876E-01  0.24155001252E-02  0.10198606091E+01  0.10195765427E+01 0.  0.
     999903    2    3    3    0    0 -0.14670027693E-01  0.12425500083E+00 -0.15793565400E-01  0.12764207320E+00  0.19711600632E-01 0.  0.
         14    1    1    2    0    0  0.10137485056E-01  0.21696366876E-01 -0.24155001252E-02  0.24069390930E-01  0.00000000000E+00 0.  1.
     999901    1    3    3    0    0  0.45325426372E-02 -0.14595136771E+00  0.18209065525E-01  0.89221853587E+00  0.88000000000E+00 0. -1.
        -11    1    4    4    0    0 -0.21337337777E-02  0.48562612173E-01  0.28112705980E-02  0.48693372078E-01  0.51100000000E-03 0. -1.
         11    1    4    4    0    0 -0.12536293915E-01  0.75692388658E-01 -0.18604835998E-01  0.78948701125E-01  0.51100000000E-03 0.  1.
</event>
<event>
 8    1  0.1022673E+005  0.1043930E+01  0.7957747E-01            NaN
         13   -1    0    0    0    0  0.00000000000E+00  0.00000000000E+00  0.74505805969E-08  0.10566000000E+00  0.10566000000E+00 0. -1.
     999900   -1    0    0    0    0 -0.00000000000E+00 -0.00000000000E+00 -0.74505805969E-08  0.93827000000E+00  0.93827000000E+00 0.  1.
     999902    2    1    2    0    0 -0.90919111630E-02  0.17330668448E-01 -0.13289043144E-01  0.10202738468E+01  0.10199995632E+01 0.  0.
     999903    2    3    3    0    0  0.29943084265E-01 -0.10089592692E+00 -0.72790284050E-01  0.12952042614E+00  0.20013469688E-01 0.  0.
         14    1    1    2    0    0  0.90919111630E-02 -0.17330668448E-01  0.13289043144E-01  0.23656153220E-01  0.00000000000E+00 0. -1.
     999901    1    3    3    0    0 -0.39034995428E-01  0.11822659537E+00  0.59501240906E-01  0.89075342065E+00  0.88000000000E+00 0.  1.
        -11    1    4    4    0    0  0.27574589284E-01 -0.96546169792E-01 -0.73575963408E-01  0.12447973485E+00  0.51100000000E-03 0.  1.
         11    1    4    4    0    0  0.23684949814E-02 -0.43497571328E-02  0.78567935830E-03  0.50406912864E-02  0.51100000000E-03 0. -1.
</event>
<event>
 8    1  0.1022673E+005  0.1043930E+01  0.7957747E-01            NaN
         13   -1    0    0    0    0  0.00000000000E+00  0.00000000000E+00  0.74505805969E-08  0.10566000000E+00  0.10566000000E+00 0. -1.
     999900   -1    0    0    0    0 -0.00000000000E+00 -0.00000000000E+00 -0.74505805969E-08  0.93827000000E+00  0.93827000000E+00 0.  1.
     999902    2    1    2    0    0  0.21860074258E-01  0.75065238361E-04 -0.10523545615E-01  0.10196686420E+01  0.10193799713E+01 0.  0.
     999903    2    3    3    0    0 -0.11904103614E+00 -0.33169314222E-01 -0.24180191276E-01  0.12773545184E+00  0.21463744212E-01 0.  0.
         14    1    1    2    0    0 -0.21860074258E-01 -0.75065238361E-04  0.10523545615E-01  0.24261358034E-01  0.00000000000E+00 0. -1.
     999901    1    3    3    0    0  0.14090111040E+00  0.33244379461E-01  0.13656645661E-01  0.89193319013E+00  0.88000000000E+00 0.  1.
        -11    1    4    4    0    0 -0.16662256928E-01 -0.60958793670E-02  0.39074075326E-02  0.18174694105E-01  0.51100000000E-03 0.  1.
         11    1    4    4    0    0 -0.10237877921E+00 -0.27073434855E-01 -0.28087598808E-01  0.10956075774E+00  0.51100000000E-03 0. -1.
</event>
<event>
 8    1  0.1022673E+005  0.1043930E+01  0.7957747E-01            NaN
         13   -1    0    0    0    0  0.00000000000E+00  0.00000000000E+00  0.74505805969E-08  0.10566000000E+00  0.10566000000E+00 0. -1.
     999900   -1    0    0    0    0 -0.00000000000E+00 -0.00000000000E+00 -0.74505805969E-08  0.93827000000E+00  0.93827000000E+00 0. -1.
     999902    2    1    2    0    0  0.19465050270E-01  0.29712140402E-02  0.19241585264E-02  0.10241456961E+01  0.10239545831E+01 0.  0.
     999903    2    3    3    0    0  0.11036959361E+00  0.67510812897E-01  0.38033550114E-01  0.13637721052E+00  0.20323276418E-01 0.  0.
         14    1    1    2    0    0 -0.19465050270E-01 -0.29712140402E-02 -0.19241585264E-02  0.19784303903E-01  0.00000000000E+00 0.  1.
     999901    1    3    3    0    0 -0.90904543337E-01 -0.64539598857E-01 -0.36109391588E-01  0.88776848558E+00  0.88000000000E+00 0. -1.
        -11    1    4    4    0    0  0.42565732892E-01  0.35753095936E-01  0.22119614919E-01  0.59830293086E-01  0.51100000000E-03 0.  1.
         11    1    4    4    0    0  0.67803860715E-01  0.31757716961E-01  0.15913935195E-01  0.76546917435E-01  0.51100000000E-03 0. -1.
</event>
<event>
 8    1  0.1022673E+005  0.1043930E+01  0.7957747E-01            NaN
         13   -1    0    0    0    0  0.00000000000E+00  0.00000000000E+00  0.74505805969E-08  0.10566000000E+00  0.10566000000E+00 0.  1.
     999900   -1    0    0    0    0 -0.00000000000E+00 -0.00000000000E+00 -0.74505805969E-08  0.93827000000E+00  0.93827000000E+00 0. -1.
     999902    2    1    2    0    0  0.98770644131E-02 -0.20219167113E-01  0.47408615889E-02  0.10209333287E+01  0.10206742942E+01 0.  0.
     999903    2    3    3    0    0  0.42633891087E-02 -0.11247146052E+00  0.69403282159E-01  0.13373367386E+00  0.19996850580E-01 0.  0.
         14    1    1    2    0    0 -0.98770644131E-02  0.20219167113E-01 -0.47408615889E-02  0.22996671254E-01  0.00000000000E+00 0. -1.
     999901    1    3    3    0    0  0.56136753044E-02  0.92252293405E-01 -0.64662420570E-01  0.88719965488E+00  0.88000000000E+00 0. -1.
        -11    1    4    4    0    0 -0.72988369885E-02 -0.24028901427E-01  0.15189404548E-01  0.29353709420E-01  0.51100000000E-03 0. -1.
         11    1    4    4    0    0  0.11562226097E-01 -0.88442559091E-01  0.54213877611E-01  0.10437996444E+00  0.51100000000E-03 0.  1.
</event>
<event>
 8    1  0.1022673E+005  0.1043930E+01  0.7957747E-01            NaN
         13   -1    0    0    0    0  0.00000000000E+00  0.00000000000E+00  0.74505805969E-08  0.10566000000E+00  0.10566000000E+00 0.  1.
     999900   -1    0    0    0    0 -0.00000000000E+00 -0.00000000000E+00 -0.74505805969E-08  0.93827000000E+00  0.93827000000E+00 0.  1.
     999902    2    1    2    0    0 -0.10694665449E-02  0.13581360247E-01  0.19137533205E-01  0.10204386765E+01  0.10201682460E+01 0.  0.
     999903    2    3    3    0    0 -0.66656769242E-01  0.93418230376E-01  0.65568283660E-01  0.13317804130E+00  0.16343200716E-01 0.  0.
         14    1    1    2    0    0  0.10694665449E-02 -0.13581360247E-01 -0.19137533205E-01  0.23491323547E-01  0.00000000000E+00 0. -1.
     999901    1    3    3    0    0  0.65587302697E-01 -0.79836870129E-01 -0.46430750455E-01  0.88726063515E+00  0.88000000000E+00 0.  1.
        -11    1    4    4    0    0 -0.11910431134E-01  0.27789889674E-01  0.20745316183E-01  0.36671045832E-01  0.51100000000E-03 0.  1.
         11    1    4    4    0    0 -0.54746338107E-01  0.65628340702E-01  0.44822967476E-01  0.96506995466E-01  0.51100000000E-03 0. -1.
</event>
<event>
 8    1  0.1022673E+005  0.1043930E+01  0.7957747E-01            NaN
         13   -1    0    0    0    0  0.00000000000E+00  0.00000000000E+00  0.74505805969E-08  0.10566000000E+00  0.10566000000E+00 0.  1.
     999900   -1    0    0    0    0 -0.00000000000E+00 -0.00000000000E+00 -0.74505805969E-08  0.93827000000E+00  0.93827000000E+00 0.  1.
     999902    2    1    2    0    0  0.17734984043E-01  0.11394727609E-01 -0.10419998620E-01  0.10204151994E+01  0.10201442218E+01 0.  0.
     999903    2    3    3    0    0  0.11187843915E+00  0.67873754465E-01  0.15531491104E-01  0.13321378459E+00  0.19520591632E-01 0.  0.
         14    1    1    2    0    0 -0.17734984043E-01 -0.11394727609E-01  0.10419998620E-01  0.23514800606E-01  0.00000000000E+00 0. -1.
     999901    1    3    3    0    0 -0.94143455103E-01 -0.56479026856E-01 -0.25951489724E-01  0.88720141481E+00  0.88000000000E+00 0.  1.
        -11    1    4    4    0    0  0.63698704033E-01  0.29667878064E-01  0.14293028597E-01  0.71709550771E-01  0.51100000000E-03 0.  1.
         11    1    4    4    0    0  0.48179735113E-01  0.38205876401E-01  0.12384625067E-02  0.61504233818E-01  0.51100000000E-03 0. -1.
</event>
<event>
 8    1  0.1022673E+005  0.1043930E+01  0.7957747E-01            NaN
         13   -1    0    0    0    0  0.00000000000E+00  0.00000000000E+00  0.74505805969E-08  0.10566000000E+00  0.10566000000E+00 0. -1.
     999900   -1    0    0    0    0 -0.00000000000E+00 -0.00000000000E+00 -0.74505805969E-08  0.93827000000E+00  0.93827000000E+00 0.  1.
     999902    2    1    2    0    0  0.53951205481E-02 -0.17926024683E-01  0.14136877276E-01  0.10204715050E+01  0.10202018387E+01 0.  0.
     999903    2    3    3    0    0  0.34569688150E-01  0.11816284075E+00 -0.30611042245E-01  0.12841000997E+00  0.19863898926E-01 0.  0.
         14    1    1    2    0    0 -0.53951205481E-02  0.17926024683E-01 -0.14136877276E-01  0.23458494960E-01  0.00000000000E+00 0.  1.
     999901    1    3    3    0    0 -0.29174567602E-01 -0.13608886543E+00  0.44747919522E-01  0.89206149507E+00  0.88000000000E+00 0.  1.
        -11    1    4    4    0    0  0.10798820173E-01  0.67568539372E-01 -0.21804877412E-01  0.71818074536E-01  0.51100000000E-03 0.  1.
         11    1    4    4    0    0  0.23770867977E-01  0.50594301374E-01 -0.88061648332E-02  0.56591935432E-01  0.51100000000E-03 0. -1.
</event>
<event>
 8    1  0.1022673E+005  0.1043930E+01  0.7957747E-01            NaN
         13   -1    0    0    0    0  0.00000000000E+00  0.00000000000E+00  0.74505805969E-08  0.10566000000E+00  0.10566000000E+00 0. -1.
     999900   -1    0    0    0    0 -0.00000000000E+00 -0.00000000000E+00 -0.74505805969E-08  0.93827000000E+00  0.93827000000E+00 0. -1.
     999902    2    1    2    0    0  0.57550980511E-02 -0.12661908573E-01  0.18908834158E-01  0.10204568432E+01  0.10201868357E+01 0.  0.
     999903    2    3    3    0    0  0.48064707898E-01 -0.30447882519E-03  0.12267377693E+00  0.13326465852E+00  0.20007618838E-01 0.  0.
         14    1    1    2    0    0 -0.57550980511E-02  0.12661908573E-01 -0.18908834158E-01  0.23473156829E-01  0.00000000000E+00 0.  1.
     999901    1    3    3    0    0 -0.42309609847E-01 -0.12357429748E-01 -0.10376494277E+00  0.88719218465E+00  0.88000000000E+00 0. -1.
        -11    1    4    4    0    0  0.36214944524E-01  0.75844279566E-02  0.77170543173E-01  0.85583874701E-01  0.51100000000E-03 0.  1.
         11    1    4    4    0    0  0.11849763375E-01 -0.78889067818E-02  0.45503233758E-01  0.47680783820E-01  0.51100000000E-03 0. -1.
</event>
<event>
 8    1  0.1022673E+005  0.1043930E+01  0.7957747E-01            NaN
         13   -1    0    0    0    0  0.00000000000E+00  0.00000000000E+00  0.74505805969E-08  0.10566000000E+00  0.10566000000E+00 0.  1.
     999900   -1    0    0    0    0 -0.00000000000E+00 -0.00000000000E+00 -0.74505805969E-08  0.93827000000E+00  0.93827000000E+00 0. -1.
     999902    2    1    2    0    0  0.74338461999E-02 -0.22016869053E-01  0.23041030816E-02  0.10205780518E+01  0.10203108577E+01 0.  0.
     999903    2    3    3    0    0 -0.31970820290E-01 -0.12734787107E+00 -0.51941905668E-02  0.13338947428E+00  0.22938147675E-01 0.  0.
         14    1    1    2    0    0 -0.74338461999E-02  0.22016869053E-01 -0.23041030816E-02  0.23351948168E-01  0.00000000000E+00 0.  1.
     999901    1    3    3    0    0  0.39404666489E-01  0.10533100201E+00  0.74982936484E-02  0.88718857755E+00  0.88000000000E+00 0. -1.
        -11    1    4    4    0    0 -0.13785859307E-01 -0.48481053056E-01  0.90392227522E-02  0.51209677711E-01  0.51100000000E-03 0. -1.
         11    1    4    4    0    0 -0.18184960983E-01 -0.78866818010E-01 -0.14233413319E-01  0.82179796572E-01  0.51100000000E-03 0.  1.
</event>
<event>
 8    1  0.1022673E+005  0.1043930E+01  0.7957747E-01            NaN
         13   -1    0    0    0    0  0.00000000000E+00  0.00000000000E+00  0.74505805969E-08  0.10566000000E+00  0.10566000000E+00 0. -1.
     999900   -1    0    0    0    0 -0.00000000000E+00 -0.00000000000E+00 -0.74505805969E-08  0.93827000000E+00  0.93827000000E+00 0.  1.
     999902    2    1    2    0    0 -0.11979803445E-01  0.89268575580E-02 -0.18624766336E-01  0.10200535179E+01  0.10197740402E+01 0.  0.
     999903    2    3    3    0    0 -0.13585055482E-01 -0.41758471972E-01  0.11844171008E+00  0.12800038135E+00  0.20672088096E-01 0.  0.
         14    1    1    2    0    0  0.11979803445E-01 -0.89268575580E-02  0.18624766336E-01  0.23876482101E-01  0.00000000000E+00 0. -1.
     999901    1    3    3    0    0  0.16052520375E-02  0.50685329530E-01 -0.13706647642E+00  0.89205313655E+00  0.88000000000E+00 0.  1.
        -11    1    4    4    0    0 -0.65843802974E-02 -0.16065652697E-01  0.75475904555E-01  0.77448902832E-01  0.51100000000E-03 0. -1.
         11    1    4    4    0    0 -0.70006751850E-02 -0.25692819276E-01  0.42965805524E-01  0.50551478521E-01  0.51100000000E-03 0.  1.
</event>
<event>
 8    1  0.1022673E+005  0.1043930E+01  0.7957747E-01            NaN
         13   -1    0    0    0    0  0.00000000000E+00  0.00000000000E+00  0.74505805969E-08  0.10566000000E+00  0.10566000000E+00 0.  1.
     999900   -1    0    0    0    0 -0.00000000000E+00 -0.00000000000E+00 -0.74505805969E-08  0.93827000000E+00  0.93827000000E+00 0.  1.
     999902    2    1    2    0    0 -0.14331389171E-01  0.12377808209E-01  0.86309888891E-02  0.10231191177E+01  0.10229074427E+01 0.  0.
     999903    2    3    3    0    0 -0.10539573869E+00  0.77438702931E-01 -0.27531628035E-01  0.13529403888E+00  0.21011234350E-01 0.  0.
         14    1    1    2    0    0  0.14331389171E-01 -0.12377808209E-01 -0.86309888891E-02  0.20810882269E-01  0.00000000000E+00 0. -1.
     999901    1    3    3    0    0  0.91064349516E-01 -0.65060894722E-01  0.36162616925E-01  0.88782507885E+00  0.88000000000E+00 0. -1.
        -11    1    4    4    0    0 -0.11071976174E-01  0.11361736618E-01  0.29892118248E-02  0.16151601274E-01  0.51100000000E-03 0.  1.
         11    1    4    4    0    0 -0.94323762513E-01  0.66076966313E-01 -0.30520839860E-01  0.11914243760E+00  0.51100000000E-03 0. -1.
</event>
<event>
 8    1  0.1022673E+005  0.1043930E+01  0.7957747E-01            NaN
         13   -1    0    0    0    0  0.00000000000E+00  0.00000000000E+00  0.74505805969E-08  0.10566000000E+00  0.10566000000E+00 0. -1.
     999900   -1    0    0    0    0 -0.00000000000E+00 -0.00000000000E+00 -0.74505805969E-08  0.93827000000E+00  0.93827000000E+00 0. -1.
     999902    2    1    2    0    0  0.30232698536E-02 -0.11950847220E-01  0.19828737010E-01  0.10205817298E+01  0.10203146208E+01 0.  0.
     999903    2    3    3    0    0 -0.10492424262E+00  0.62256622489E-01  0.42048164718E-01  0.13060806897E+00  0.20135436173E-01 0.  0.
         14    1    1    2    0    0 -0.30232698536E-02  0.11950847220E-01 -0.19828737010E-01  0.23348270200E-01  0.00000000000E+00 0.  1.
     999901    1    3    3    0    0  0.10794751247E+00 -0.74207469709E-01 -0.22219427708E-01  0.88997366083E+00  0.88000000000E+00 0.  1.
        -11    1    4    4    0    0 -0.69971350454E-01  0.51684148011E-01  0.32457666263E-01  0.92849352502E-01  0.51100000000E-03 0. -1.
         11    1    4    4    0    0 -0.34952892167E-01  0.10572474478E-01  0.95904984554E-02  0.37758716465E-01  0.51100000000E-03 0.  1.
</event>
<event>
 8    1  0.1022673E+005  0.1043930E+01  0.7957747E-01            NaN
         13   -1    0    0    0    0  0.00000000000E+00  0.00000000000E+00  0.74505805969E-08  0.10566000000E+00  0.10566000000E+00 0. -1.
     999900   -1    0    0    0    0 -0.00000000000E+00 -0.00000000000E+00 -0.74505805969E-08  0.93827000000E+00  0.93827000000E+00 0.  1.
     999902    2    1    2    0    0  0.17107410135E-01  0.15304843848E-02 -0.16504291011E-01  0.10201098932E+01  0.10198317493E+01 0.  0.
     999903    2    3    3    0    0 -0.77977604305E-01  0.54844350236E-03  0.98953443894E-01  0.12748868975E+00  0.19513441343E-01 0.  0.
         14    1    1    2    0    0 -0.17107410135E-01 -0.15304843848E-02  0.16504291011E-01  0.23820106754E-01  0.00000000000E+00 0. -1.
     999901    1    3    3    0    0  0.95085014440E-01  0.98204088246E-03 -0.11545773491E+00  0.89262120349E+00  0.88000000000E+00 0.  1.
        -11    1    4    4    0    0 -0.49672064935E-01  0.58300500000E-02  0.50189672821E-01  0.70855965852E-01  0.51100000000E-03 0.  1.
         11    1    4    4    0    0 -0.28305539370E-01 -0.52816064977E-02  0.48763771073E-01  0.56632723902E-01  0.51100000000E-03 0. -1.
</event>
<event>
 8    1  0.1022673E+005  0.1043930E+01  0.7957747E-01            NaN
         13   -1    0    0    0    0  0.00000000000E+00  0.00000000000E+00  0.74505805969E-08  0.10566000000E+00  0.10566000000E+00 0.  1.
     999900   -1    0    0    0    0 -0.00000000000E+00 -0.00000000000E+00 -0.74505805969E-08  0.93827000000E+00  0.93827000000E+00 0.  1.
     999902    2    1    2    0    0 -0.88229164764E-02  0.15690640999E-01  0.13043570623E-01  0.10216999572E+01  0.10214580890E+01 0.  0.
     999903    2    3    3    0    0 -0.50754103933E-01  0.12174574697E+00  0.14138115741E-01  0.13434032994E+00  0.21199810433E-01 0.  0.
         14    1    1    2    0    0  0.88229164764E-02 -0.15690640999E-01 -0.13043570623E-01  0.22230042841E-01  0.00000000000E+00 0. -1.
     999901    1    3    3    0    0  0.41931187457E-01 -0.10605510597E+00 -0.10945451184E-02  0.88735962722E+00  0.88000000000E+00 0.  1.
        -11    1    4    4    0    0 -0.44627776150E-01  0.84711687629E-01  0.60661121673E-02  0.95941478324E-01  0.51100000000E-03 0.  1.
         11    1    4    4    0    0 -0.61263277827E-02  0.37034059336E-01  0.80720035740E-02  0.38398851620E-01  0.51100000000E-03 0. -1.
</event>
<event>
 8    1  0.1022673E+005  0.1043930E+01  0.7957747E-01            NaN
         13   -1    0    0    0    0  0.00000000000E+00  0.00000000000E+00  0.74505805969E-08  0.10566000000E+00  0.10566000000E+00 0. -1.
     999900   -1    0    0    0    0 -0.00000000000E+00 -0.00000000000E+00 -0.74505805969E-08  0.93827000000E+00  0.93827000000E+00 0.  1.
     999902    2    1    2    0    0 -0.67731150107E-02  0.71330379249E-07  0.20760475096E-01  0.10220925914E+01  0.10218592824E+01 0.  0.
     999903    2    3    3    0    0  0.80697569372E-01 -0.12574983678E-01 -0.98846427207E-01  0.12961566528E+00  0.18957230717E-01 0.  0.
         14    1    1    2    0    0  0.67731150107E-02 -0.71330379250E-07 -0.20760475096E-01  0.21837408572E-01  0.00000000000E+00 0.  1.
     999901    1    3    3    0    0 -0.87470684382E-01  0.12575055008E-01  0.11960690230E+00  0.89247692615E+00  0.88000000000E+00 0.  1.
        -11    1    4    4    0    0  0.36068365735E-01 -0.55547652391E-02 -0.29883791777E-01  0.47170801940E-01  0.51100000000E-03 0. -1.
         11    1    4    4    0    0  0.44629203637E-01 -0.70202184385E-02 -0.68962635430E-01  0.82444863336E-01  0.51100000000E-03 0.  1.
</event>
<event>
 8    1  0.1022673E+005  0.1043930E+01  0.7957747E-01            NaN
         13   -1    0    0    0    0  0.00000000000E+00  0.00000000000E+00  0.74505805969E-08  0.10566000000E+00  0.10566000000E+00 0.  1.
     999900   -1    0    0    0    0 -0.00000000000E+00 -0.00000000000E+00 -0.74505805969E-08  0.93827000000E+00  0.93827000000E+00 0. -1.
     999902    2    1    2    0    0  0.40931185265E-02  0.77585076603E-02  0.23116695819E-01  0.10192049179E+01  0.10189049686E+01 0.  0.
     999903    2    3    3    0    0  0.12522510643E+00  0.17249935921E-01  0.27437533722E-01  0.13084591649E+00  0.19721765566E-01 0.  0.
         14    1    1    2    0    0 -0.40931185265E-02 -0.77585076603E-02 -0.23116695819E-01  0.24725082123E-01  0.00000000000E+00 0. -1.
     999901    1    3    3    0    0 -0.12113198790E+00 -0.94914282604E-02 -0.43208379027E-02  0.88835900139E+00  0.88000000000E+00 0. -1.
        -11    1    4    4    0    0  0.54823953422E-01  0.15987685302E-01  0.17518828595E-01  0.59736441361E-01  0.51100000000E-03 0.  1.
         11    1    4    4    0    0  0.70401153004E-01  0.12622506188E-02  0.99187051274E-02  0.71109475130E-01  0.51100000000E-03 0. -1.
</event>
<event>
 8    1  0.1022673E+005  0.1043930E+01  0.7957747E-01            NaN
         13   -1    0    0    0    0  0.00000000000E+00  0.00000000000E+00  0.74505805969E-08  0.10566000000E+00  0.10566000000E+00 0. -1.
     999900   -1    0    0    0    0 -0.00000000000E+00 -0.00000000000E+00 -0.74505805969E-08  0.93827000000E+00  0.93827000000E+00 0.  1.
     999902    2    1    2    0    0 -0.15962658084E-01 -0.99877056772E-02 -0.14752844372E-01  0.10200091485E+01  0.10197286188E+01 0.  0.
     999903    2    3    3    0    0  0.14197005992E-01  0.49408521867E-01  0.11547961493E+00  0.12793403362E+00  0.19718480739E-01 0.  0.
         14    1    1    2    0    0  0.15962658084E-01  0.99877056772E-02  0.14752844372E-01  0.23920851466E-01  0.00000000000E+00 0. -1.
     999901    1    3    3    0    0 -0.30159664076E-01 -0.59396227544E-01 -0.13023245930E+00  0.89207511491E+00  0.88000000000E+00 0.  1.
        -11    1    4    4    0    0  0.60714258405E-03 -0.97597112058E-03  0.11739667951E-01  0.11806865221E-01  0.51100000000E-03 0. -1.
         11    1    4    4    0    0  0.13589863407E-01  0.50384492988E-01  0.10373994698E+00  0.11612716840E+00  0.51100000000E-03 0.  1.
</event>
<event>
 8    1  0.1022673E+005  0.1043930E+01  0.7957747E-01            NaN
         13   -1    0    0    0    0  0.00000000000E+00  0.00000000000E+00  0.74505805969E-08  0.10566000000E+00  0.10566000000E+00 0. -1.
     999900   -1    0    0    0    0 -0.00000000000E+00 -0.00000000000E+00 -0.74505805969E-08  0.93827000000E+00  0.93827000000E+00 0.  1.
     999902    2    1    2    0    0 -0.40913201858E-02 -0.18029835883E-01  0.15092674825E-01  0.10200636489E+01  0.10197844111E+01 0.  0.
     999903    2    3    3    0    0 -0.71825293607E-01  0.13602342054E-01 -0.10419450829E+00  0.12887460165E+00  0.20205714085E-01 0.  0.
         14    1    1    2    0    0  0.40913201858E-02  0.18029835883E-01 -0.15092674825E-01  0.23866351129E-01  0.00000000000E+00 0.  1.
     999901    1    3    3    0    0  0.67733973421E-01 -0.31632177937E-01  0.11928718311E+00  0.89118904722E+00  0.88000000000E+00 0. -1.
        -11    1    4    4    0    0 -0.26554768100E-01 -0.52843008943E-03 -0.24514118882E-01  0.36147449326E-01  0.51100000000E-03 0.  1.
         11    1    4    4    0    0 -0.45270525507E-01  0.14130772143E-01 -0.79680389405E-01  0.92727152322E-01  0.51100000000E-03 0. -1.
</event>
<event>
 8    1  0.1022673E+005  0.1043930E+01  0.7957747E-01            NaN
         13   -1    0    0    0    0  0.00000000000E+00  0.00000000000E+00  0.74505805969E-08  0.10566000000E+00  0.10566000000E+00 0.  1.
     999900   -1    0    0    0    0 -0.00000000000E+00 -0.00000000000E+00 -0.74505805969E-08  0.93827000000E+00  0.93827000000E+00 0.  1.
     999902    2    1    2    0    0 -0.11597494717E-01  0.23318474342E-01 -0.30660822064E-02  0.10177068425E+01  0.10173689416E+01 0.  0.
     999903    2    3    3    0    0 -0.36148263562E-01  0.12427792449E+00  0.12062914767E-01  0.13146509366E+00  0.19643254943E-01 0.  0.
         14    1    1    2    0    0  0.11597494717E-01 -0.23318474342E-01  0.30660822064E-02  0.26223157503E-01  0.00000000000E+00 0.  1.
     999901    1    3    3    0    0  0.24550768846E-01 -0.10095945015E+00 -0.15128996974E-01  0.88624174883E+00  0.88000000000E+00 0.  1.
        -11    1    4    4    0    0 -0.38209976927E-01  0.11574492623E+00  0.13182572616E-01  0.12260069994E+00  0.51100000000E-03 0.  1.
         11    1    4    4    0    0  0.20617133647E-02  0.85329982630E-02 -0.11196578490E-02  0.88643937217E-02  0.51100000000E-03 0. -1.
</event>
<event>
 8    1  0.1022673E+005  0.1043930E+01  0.7957747E-01            NaN
         13   -1    0    0    0    0  0.00000000000E+00  0.00000000000E+00  0.74505805969E-08  0.10566000000E+00  0.10566000000E+00 0.  1.
     999900   -1    0    0    0    0 -0.00000000000E+00 -0.00000000000E+00 -0.74505805969E-08  0.93827000000E+00  0.93827000000E+00 0. -1.
     999902    2    1    2    0    0  0.72152326744E-02  0.18722086125E-01  0.13484726924E-01  0.10197553448E+01  0.10194687584E+01 0.  0.
     999903    2    3    3    0    0 -0.14041208713E-01  0.11397677466E-01 -0.12564712572E+00  0.12854091741E+00  0.20211497985E-01 0.  0.
         14    1    1    2    0    0 -0.72152326744E-02 -0.18722086125E-01 -0.13484726924E-01  0.24174655150E-01  0.00000000000E+00 0.  1.
     999901    1    3    3    0    0  0.21256441388E-01  0.73244086586E-02  0.13913185265E+00  0.89121442744E+00  0.88000000000E+00 0.  1.
        -11    1    4    4    0    0 -0.16723445052E-01  0.34844178731E-02 -0.60819548828E-01  0.63175101290E-01  0.51100000000E-03 0.  1.
         11    1    4    4    0    0  0.26822363393E-02  0.79132595933E-02 -0.64827576897E-01  0.65365816116E-01  0.51100000000E-03 0. -1.
</event>
<event>
 8    1  0.1022673E+005  0.1043930E+01  0.7957747E-01            NaN
         13   -1    0    0    0    0  0.00000000000E+00  0.00000000000E+00  0.74505805969E-08  0.10566000000E+00  0.10566000000E+00 0.  1.
     999900   -1    0    0    0    0 -0.00000000000E+00 -0.00000000000E+00 -0.74505805969E-08  0.93827000000E+00  0.93827000000E+00 0. -1.
     999902    2    1    2    0    0 -0.77693136763E-02  0.12573590246E-01 -0.18420499594E-01  0.10203127984E+01  0.10200394278E+01 0.  0.
     999903    2    3    3    0    0  0.24945197874E-01 -0.37399600281E-01  0.11798307239E+00  0.12780313822E+00  0.19815240912E-01 0.  0.
         14    1    1    2    0    0  0.77693136763E-02 -0.12573590246E-01  0.18420499594E-01  0.23617201612E-01  0.00000000000E+00 0.  1.
     999901    1    3    3    0    0 -0.32714511550E-01  0.49973190527E-01 -0.13640357198E+00  0.89250966016E+00  0.88000000000E+00 0. -1.
        -11    1    4    4    0    0  0.24086649072E-03 -0.18267584250E-02  0.26670021593E-01  0.26738478561E-01  0.51100000000E-03 0. -1.
         11    1    4    4    0    0  0.24704331383E-01 -0.35572841856E-01  0.91313050792E-01  0.10106465966E+00  0.51100000000E-03 0.  1.
</event>
<event>
 8    1  0.1022673E+005  0.1043930E+01  0.7957747E-01            NaN
         13   -1    0    0    0    0  0.00000000000E+00  0.00000000000E+00  0.74505805969E-08  0.10566000000E+00  0.10566000000E+00 0.  1.
     999900   -1    0    0    0    0 -0.00000000000E+00 -0.00000000000E+00 -0.74505805969E-08  0.93827000000E+00  0.93827000000E+00 0. -1.
     999902    2    1    2    0    0  0.18846995972E-01  0.13613731292E-01  0.16789816215E-02  0.10206198752E+01  0.10203536484E+01 0.  0.
     999903    2    3    3    0    0  0.62289899515E-01  0.94558762486E-02  0.11461712482E+00  0.13232960860E+00  0.20114542802E-01 0.  0.
         14    1    1    2    0    0 -0.18846995972E-01 -0.13613731292E-01 -0.16789816215E-02  0.23310124756E-01  0.00000000000E+00 0.  1.
     999901    1    3    3    0    0 -0.43442903544E-01  0.41578550430E-02 -0.11293814320E+00  0.88829026665E+00  0.88000000000E+00 0. -1.
        -11    1    4    4    0    0  0.48386486812E-01  0.15709665206E-01  0.87337846786E-01  0.10107525063E+00  0.51100000000E-03 0. -1.
         11    1    4    4    0    0  0.13903412704E-01 -0.62537889570E-02  0.27279278036E-01  0.31254357973E-01  0.51100000000E-03 0.  1.
</event>
<event>
 8    1  0.1022673E+005  0.1043930E+01  0.7957747E-01            NaN
         13   -1    0    0    0    0  0.00000000000E+00  0.00000000000E+00  0.74505805969E-08  0.10566000000E+00  0.10566000000E+00 0.  1.
     999900   -1    0    0    0    0 -0.00000000000E+00 -0.00000000000E+00 -0.74505805969E-08  0.93827000000E+00  0.93827000000E+00 0.  1.
     999902    2    1    2    0    0  0.17579658046E-01 -0.14875644390E-01  0.51811984458E-02  0.10203254667E+01  0.10200523928E+01 0.  0.
     999903    2    3    3    0    0  0.76660523394E-01  0.10249876676E+00 -0.52095775700E-02  0.13050791844E+00  0.24946824286E-01 0.  0.
         14    1    1    2    0    0 -0.17579658046E-01  0.14875644390E-01 -0.51811984458E-02  0.23604533259E-01  0.00000000000E+00 0. -1.
     999901    1    3    3    0    0 -0.59080865348E-01 -0.11737441115E+00  0.10390776016E-01  0.88981754830E+00  0.88000000000E+00 0. -1.
        -11    1    4    4    0    0  0.57047767471E-01  0.61066173842E-01  0.43367406170E-02  0.83681502145E-01  0.51100000000E-03 0.  1.
         11    1    4    4    0    0  0.19612755923E-01  0.41432592918E-01 -0.95463181870E-02  0.46826416292E-01  0.51100000000E-03 0. -1.
</event>
<event>
 8    1  0.1022673E+005  0.1043930E+01  0.7957747E-01            NaN
         13   -1    0    0    0    0  0.00000000000E+00  0.00000000000E+00  0.74505805969E-08  0.10566000000E+00  0.10566000000E+00 0.  1.
     999900   -1    0    0    0    0 -0.00000000000E+00 -0.00000000000E+00 -0.74505805969E-08  0.93827000000E+00  0.93827000000E+00 0. -1.
     999902    2    1    2    0    0  0.17949233179E-01 -0.15087224985E-01  0.16790651391E-02  0.10204221590E+01  0.10201513437E+01 0.  0.
     999903    2    3    3    0    0  0.65455571447E-01 -0.11282864707E+00 -0.18956925237E-01  0.13349708782E+00  0.21151170388E-01 0.  0.
         14    1    1    2    0    0 -0.17949233179E-01  0.15087224985E-01 -0.16790651391E-02  0.23507841015E-01  0.00000000000E+00 0.  1.
     999901    1    3    3    0    0 -0.47506338268E-01  0.97741422083E-01  0.20635990376E-01  0.88692507117E+00  0.88000000000E+00 0. -1.
        -11    1    4    4    0    0  0.30461790485E-01 -0.33396789905E-01 -0.94016095537E-02  0.46172693647E-01  0.51100000000E-03 0. -1.
         11    1    4    4    0    0  0.34993780963E-01 -0.79431857162E-01 -0.95553156834E-02  0.87324394170E-01  0.51100000000E-03 0.  1.
</event>
<event>
 8    1  0.1189541E+005  0.1043930E+01  0.7957747E-01            NaN
         13   -1    0    0    0    0  0.00000000000E+00  0.00000000000E+00  0.74505805969E-08  0.10566000000E+00  0.10566000000E+00 0. -1.
     999900   -1    0    0    0    0 -0.00000000000E+00 -0.00000000000E+00 -0.74505805969E-08  0.93827000000E+00  0.93827000000E+00 0.  1.
     999902    2    1    2    0    0  0.13529770586E-01  0.84999212026E-02 -0.17679563754E-01  0.10200999701E+01  0.10198215915E+01 0.  0.
     999903    2    3    3    0    0  0.43966120698E-02  0.17882513027E-01  0.12551383845E+00  0.12842974063E+00  0.20033975282E-01 0.  0.
         14    1    1    2    0    0 -0.13529770586E-01 -0.84999212026E-02  0.17679563754E-01  0.23830029943E-01  0.00000000000E+00 0. -1.
     999901    1    3    3    0    0  0.91331585165E-02 -0.93825918243E-02 -0.14319340220E+00  0.89167022943E+00  0.88000000000E+00 0.  1.
        -11    1    4    4    0    0 -0.73247117521E-02  0.11900580086E-01  0.68847270653E-01  0.70252992862E-01  0.51100000000E-03 0. -1.
         11    1    4    4    0    0  0.11721323822E-01  0.59819329408E-02  0.56666567797E-01  0.58176747767E-01  0.51100000000E-03 0.  1.
</event>
<event>
 8    1  0.1022673E+005  0.1043930E+01  0.7957747E-01            NaN
         13   -1    0    0    0    0  0.00000000000E+00  0.00000000000E+00  0.74505805969E-08  0.10566000000E+00  0.10566000000E+00 0.  1.
     999900   -1    0    0    0    0 -0.00000000000E+00 -0.00000000000E+00 -0.74505805969E-08  0.93827000000E+00  0.93827000000E+00 0. -1.
     999902    2    1    2    0    0  0.81742603141E-02  0.79234235933E-02 -0.21329616322E-01  0.10197524959E+01  0.10194658411E+01 0.  0.
     999903    2    3    3    0    0  0.12880864857E-01 -0.12563705294E+00 -0.20960427931E-01  0.12966222556E+00  0.20551580182E-01 0.  0.
         14    1    1    2    0    0 -0.81742603141E-02 -0.79234235933E-02  0.21329616322E-01  0.24177504122E-01  0.00000000000E+00 0.  1.
     999901    1    3    3    0    0 -0.47066045431E-02  0.13356047653E+00 -0.36918839136E-03  0.89009027032E+00  0.88000000000E+00 0.  1.
        -11    1    4    4    0    0  0.67304788989E-02 -0.85880641392E-01 -0.47176398981E-02  0.86274568439E-01  0.51100000000E-03 0.  1.
         11    1    4    4    0    0  0.61503859583E-02 -0.39756411543E-01 -0.16242788033E-01  0.43387657119E-01  0.51100000000E-03 0. -1.
</event>
<event>
 8    1  0.1022673E+005  0.1043930E+01  0.7957747E-01            NaN
         13   -1    0    0    0    0  0.00000000000E+00  0.00000000000E+00  0.74505805969E-08  0.10566000000E+00  0.10566000000E+00 0. -1.
     999900   -1    0    0    0    0 -0.00000000000E+00 -0.00000000000E+00 -0.74505805969E-08  0.93827000000E+00  0.93827000000E+00 0.  1.
     999902    2    1    2    0    0 -0.19178299854E-01  0.13992899961E-01 -0.21981503786E-01  0.10115757894E+01  0.10110582489E+01 0.  0.
     999903    2    3    3    0    0 -0.39640459204E-01 -0.11329706160E+00  0.15566350750E-02  0.12187051334E+00  0.21033514572E-01 0.  0.
         14    1    1    2    0    0  0.19178299854E-01 -0.13992899961E-01  0.21981503786E-01  0.32354210597E-01  0.00000000000E+00 0. -1.
     999901    1    3    3    0    0  0.20462159349E-01  0.12728996156E+00 -0.23538138861E-01  0.88970527607E+00  0.88000000000E+00 0.  1.
        -11    1    4    4    0    0 -0.14260078772E-01 -0.23638226190E-01  0.71421474994E-02  0.28519939970E-01  0.51100000000E-03 0.  1.
         11    1    4    4    0    0 -0.25380380432E-01 -0.89658835410E-01 -0.55855124245E-02  0.93350573367E-01  0.51100000000E-03 0. -1.
</event>
<event>
 8    1  0.1022673E+005  0.1043930E+01  0.7957747E-01            NaN
         13   -1    0    0    0    0  0.00000000000E+00  0.00000000000E+00  0.74505805969E-08  0.10566000000E+00  0.10566000000E+00 0. -1.
     999900   -1    0    0    0    0 -0.00000000000E+00 -0.00000000000E+00 -0.74505805969E-08  0.93827000000E+00  0.93827000000E+00 0. -1.
     999902    2    1    2    0    0  0.17283127635E-01  0.33563714004E-02 -0.17099521196E-01  0.10193868675E+01  0.10190913699E+01 0.  0.
     999903    2    3    3    0    0  0.10428556423E+00 -0.46532101991E-01 -0.63993729851E-01  0.13244980624E+00  0.20175189966E-01 0.  0.
         14    1    1    2    0    0 -0.17283127635E-01 -0.33563714004E-02  0.17099521196E-01  0.24543132541E-01  0.00000000000E+00 0. -1.
     999901    1    3    3    0    0 -0.87002436600E-01  0.49888473391E-01  0.46894208655E-01  0.88693706122E+00  0.88000000000E+00 0.  1.
        -11    1    4    4    0    0  0.72234160805E-01 -0.38696431123E-01 -0.37449288559E-01  0.90099379040E-01  0.51100000000E-03 0. -1.
         11    1    4    4    0    0  0.32051403430E-01 -0.78356708677E-02 -0.26544441292E-01  0.42350427203E-01  0.51100000000E-03 0.  1.
</event>
<event>
 8    1  0.1022673E+005  0.1043930E+01  0.7957747E-01            NaN
         13   -1    0    0    0    0  0.00000000000E+00  0.00000000000E+00  0.74505805969E-08  0.10566000000E+00  0.10566000000E+00 0. -1.
     999900   -1    0    0    0    0 -0.00000000000E+00 -0.00000000000E+00 -0.74505805969E-08  0.93827000000E+00  0.93827000000E+00 0. -1.
     999902    2    1    2    0    0 -0.53200206188E-02  0.23118298325E-01 -0.26511606890E-02  0.10200597887E+01  0.10197804594E+01 0.  0.
     999903    2    3    3    0    0 -0.61713889443E-01 -0.10206393698E+00  0.42477890822E-01  0.12827086084E+00  0.20576470787E-01 0.  0.
         14    1    1    2    0    0  0.53200206188E-02 -0.23118298325E-01  0.26511606890E-02  0.23870211348E-01  0.00000000000E+00 0. -1.
     999901    1    3    3    0    0  0.56393868824E-01  0.12518223530E+00 -0.45129051511E-01  0.89178892781E+00  0.88000000000E+00 0.  1.
        -11    1    4    4    0    0 -0.27785998612E-01 -0.49869717258E-01  0.96794536785E-02  0.57905123804E-01  0.51100000000E-03 0. -1.
         11    1    4    4    0    0 -0.33927890831E-01 -0.52194219722E-01  0.32798437144E-01  0.70365737036E-01  0.51100000000E-03 0.  1.
</event>
<event>
 8    1  0.1022673E+005  0.1043930E+01  0.7957747E-01            NaN
         13   -1    0    0    0    0  0.00000000000E+00  0.00000000000E+00  0.74505805969E-08  0.10566000000E+00  0.10566000000E+00 0. -1.
     999900   -1    0    0    0    0 -0.00000000000E+00 -0.00000000000E+00 -0.74505805969E-08  0.93827000000E+00  0.93827000000E+00 0.  1.
     999902    2    1    2    0    0  0.16732458577E-01  0.34850601526E-02  0.14238661844E-01  0.10216845442E+01  0.10214423368E+01 0.  0.
     999903    2    3    3    0    0  0.66991344926E-01  0.10089748690E+00  0.53817470633E-01  0.13400125681E+00  0.19795795572E-01 0.  0.
         14    1    1    2    0    0 -0.16732458577E-01 -0.34850601526E-02 -0.14238661844E-01  0.22245455837E-01  0.00000000000E+00 0.  1.
     999901    1    3    3    0    0 -0.50258886349E-01 -0.97412426752E-01 -0.39578808789E-01  0.88768328735E+00  0.88000000000E+00 0. -1.
        -11    1    4    4    0    0  0.22362722046E-01  0.25586371496E-01  0.69009969344E-02  0.34679080486E-01  0.51100000000E-03 0. -1.
         11    1    4    4    0    0  0.44628622880E-01  0.75311115408E-01  0.46916473699E-01  0.99322176323E-01  0.51100000000E-03 0.  1.
</event>
<event>
 8    1  0.1022673E+005  0.1043930E+01  0.7957747E-01            NaN
         13   -1    0    0    0    0  0.00000000000E+00  0.00000000000E+00  0.74505805969E-08  0.10566000000E+00  0.10566000000E+00 0. -1.
     999900   -1    0    0    0    0 -0.00000000000E+00 -0.00000000000E+00 -0.74505805969E-08  0.93827000000E+00  0.93827000000E+00 0.  1.
     999902    2    1    2    0    0 -0.11753997737E-01 -0.20226952555E-01 -0.13739976960E-02  0.10204955394E+01  0.10202264318E+01 0.  0.
     999903    2    3    3    0    0  0.43918452608E-01 -0.72996337259E-01 -0.98770143368E-01  0.13180547035E+00  0.18969582525E-01 0.  0.
         14    1    1    2    0    0  0.11753997737E-01  0.20226952555E-01  0.13739976960E-02  0.23434460568E-01  0.00000000000E+00 0.  1.
     999901    1    3    3    0    0 -0.55672450345E-01  0.52769384704E-01  0.97396145672E-01  0.88869006908E+00  0.88000000000E+00 0. -1.
        -11    1    4    4    0    0  0.10149017906E-01 -0.34539712451E-01 -0.43771180984E-01  0.56676024087E-01  0.51100000000E-03 0. -1.
         11    1    4    4    0    0  0.33769434702E-01 -0.38456624808E-01 -0.54998962384E-01  0.75129446265E-01  0.51100000000E-03 0.  1.
</event>
<event>
 8    1  0.1022673E+005  0.1043930E+01  0.7957747E-01            NaN
         13   -1    0    0    0    0  0.00000000000E+00  0.00000000000E+00  0.74505805969E-08  0.10566000000E+00  0.10566000000E+00 0.  1.
     999900   -1    0    0    0    0 -0.00000000000E+00 -0.00000000000E+00 -0.74505805969E-08  0.93827000000E+00  0.93827000000E+00 0.  1.
     999902    2    1    2    0    0 -0.22233077092E-01  0.84774224437E-02 -0.15140567322E-02  0.10200874167E+01  0.10198087414E+01 0.  0.
     999903    2    3    3    0    0 -0.49213827567E-01  0.12132116185E+00 -0.11061744581E-01  0.13242034585E+00  0.16491229982E-01 0.  0.
         14    1    1    2    0    0  0.22233077092E-01 -0.84774224437E-02  0.15140567322E-02  0.23842583250E-01  0.00000000000E+00 0.  1.
     999901    1    3    3    0    0  0.26980750475E-01 -0.11284373940E+00  0.95476878488E-02  0.88766707090E+00  0.88000000000E+00 0. -1.
        -11    1    4    4    0    0 -0.40921748962E-01  0.99250615802E-01 -0.15357398208E-01  0.10844991967E+00  0.51100000000E-03 0.  1.
         11    1    4    4    0    0 -0.82920786049E-02  0.22070546043E-01  0.42956536269E-02  0.23970426182E-01  0.51100000000E-03 0. -1.
</event>
<event>
 8    1  0.1022673E+005  0.1043930E+01  0.7957747E-01            NaN
         13   -1    0    0    0    0  0.00000000000E+00  0.00000000000E+00  0.74505805969E-08  0.10566000000E+00  0.10566000000E+00 0. -1.
     999900   -1    0    0    0    0 -0.00000000000E+00 -0.00000000000E+00 -0.74505805969E-08  0.93827000000E+00  0.93827000000E+00 0. -1.
     999902    2    1    2    0    0  0.17734291831E-01 -0.15851825363E-01  0.16431504198E-01  0.10150201435E+01  0.10146083539E+01 0.  0.
     999903    2    3    3    0    0  0.10797553180E+00  0.29646045622E-01  0.59014837351E-01  0.12821301793E+00  0.20450512260E-01 0.  0.
         14    1    1    2    0    0 -0.17734291831E-01  0.15851825363E-01 -0.16431504198E-01  0.28909856525E-01  0.00000000000E+00 0.  1.
     999901    1    3    3    0    0 -0.90241239965E-01 -0.45497870985E-01 -0.42583333153E-01  0.88680712554E+00  0.88000000000E+00 0. -1.
        -11    1    4    4    0    0  0.57780115325E-01  0.12544139189E-01  0.41970999137E-01  0.72510158216E-01  0.51100000000E-03 0. -1.
         11    1    4    4    0    0  0.50195416470E-01  0.17101906433E-01  0.17043838215E-01  0.55702859714E-01  0.51100000000E-03 0.  1.
</event>
<event>
 8    1  0.1022673E+005  0.1043930E+01  0.7957747E-01            NaN
         13   -1    0    0    0    0  0.00000000000E+00  0.00000000000E+00  0.74505805969E-08  0.10566000000E+00  0.10566000000E+00 0.  1.
     999900   -1    0    0    0    0 -0.00000000000E+00 -0.00000000000E+00 -0.74505805969E-08  0.93827000000E+00  0.93827000000E+00 0.  1.
     999902    2    1    2    0    0 -0.36683523195E-03 -0.21062195808E-01  0.93759612667E-02  0.10208722614E+01  0.10206118335E+01 0.  0.
     999903    2    3    3    0    0 -0.52781783538E-01 -0.52248500640E-01  0.10875677782E+00  0.13318061497E+00  0.19829699709E-01 0.  0.
         14    1    1    2    0    0  0.36683523195E-03  0.21062195808E-01 -0.93759612667E-02  0.23057738615E-01  0.00000000000E+00 0. -1.
     999901    1    3    3    0    0  0.52414948306E-01  0.31186304832E-01 -0.99380816549E-01  0.88769164641E+00  0.88000000000E+00 0.  1.
        -11    1    4    4    0    0 -0.46352713813E-01 -0.51944214923E-01  0.93162448801E-01  0.11630253019E+00  0.51100000000E-03 0. -1.
         11    1    4    4    0    0 -0.64290697251E-02 -0.30428571696E-03  0.15594329015E-01  0.16878084778E-01  0.51100000000E-03 0.  1.
</event>
<event>
 8    1  0.1022673E+005  0.1043930E+01  0.7957747E-01            NaN
         13   -1    0    0    0    0  0.00000000000E+00  0.00000000000E+00  0.74505805969E-08  0.10566000000E+00  0.10566000000E+00 0. -1.
     999900   -1    0    0    0    0 -0.00000000000E+00 -0.00000000000E+00 -0.74505805969E-08  0.93827000000E+00  0.93827000000E+00 0. -1.
     999902    2    1    2    0    0  0.17728746634E-01  0.67340550467E-02  0.13921683705E-01  0.10204040732E+01  0.10201328361E+01 0.  0.
     999903    2    3    3    0    0 -0.13520948982E-01  0.12692710448E+00  0.25233050429E-01  0.13161227552E+00  0.19793390828E-01 0.  0.
         14    1    1    2    0    0 -0.17728746634E-01 -0.67340550467E-02 -0.13921683705E-01  0.23525926800E-01  0.00000000000E+00 0.  1.
     999901    1    3    3    0    0  0.31249695616E-01 -0.12019304943E+00 -0.11311366724E-01  0.88879179768E+00  0.88000000000E+00 0. -1.
        -11    1    4    4    0    0 -0.14409189094E-03  0.55041172186E-01  0.27511532384E-02  0.55112442907E-01  0.51100000000E-03 0.  1.
         11    1    4    4    0    0 -0.13376857091E-01  0.71885932294E-01  0.22481897190E-01  0.76499832612E-01  0.51100000000E-03 0. -1.
</event>
<event>
 8    1  0.1022673E+005  0.1043930E+01  0.7957747E-01            NaN
         13   -1    0    0    0    0  0.00000000000E+00  0.00000000000E+00  0.74505805969E-08  0.10566000000E+00  0.10566000000E+00 0.  1.
     999900   -1    0    0    0    0 -0.00000000000E+00 -0.00000000000E+00 -0.74505805969E-08  0.93827000000E+00  0.93827000000E+00 0. -1.
     999902    2    1    2    0    0 -0.17782058552E-01 -0.96071134033E-02  0.11892552191E-01  0.10204793917E+01  0.10202099087E+01 0.  0.
     999903    2    3    3    0    0  0.42570324054E-01 -0.78566697440E-01  0.94717329834E-01  0.13185248563E+00  0.20706205803E-01 0.  0.
         14    1    1    2    0    0  0.17782058552E-01  0.96071134033E-02 -0.11892552191E-01  0.23450608348E-01  0.00000000000E+00 0. -1.
     999901    1    3    3    0    0 -0.60352382606E-01  0.68959584037E-01 -0.82824777644E-01  0.88862690602E+00  0.88000000000E+00 0. -1.
        -11    1    4    4    0    0  0.36200638965E-01 -0.46188539831E-01  0.58820535856E-01  0.83090216226E-01  0.51100000000E-03 0.  1.
         11    1    4    4    0    0  0.63696850890E-02 -0.32378157609E-01  0.35896793979E-01  0.48762269402E-01  0.51100000000E-03 0. -1.
</event>
<event>
 8    1  0.1022673E+005  0.1043930E+01  0.7957747E-01            NaN
         13   -1    0    0    0    0  0.00000000000E+00  0.00000000000E+00  0.74505805969E-08  0.10566000000E+00  0.10566000000E+00 0.  1.
     999900   -1    0    0    0    0 -0.00000000000E+00 -0.00000000000E+00 -0.74505805969E-08  0.93827000000E+00  0.93827000000E+00 0. -1.
     999902    2    1    2    0    0  0.16486469200E-01 -0.18606068008E-01 -0.13518300231E-01  0.10156327585E+01  0.10152384776E+01 0.  0.
     999903    2    3    3    0    0  0.94061225284E-01  0.24783447255E-01  0.78565940962E-01  0.12637464061E+00  0.18336012395E-01 0.  0.
         14    1    1    2    0    0 -0.16486469200E-01  0.18606068008E-01  0.13518300231E-01  0.28297241465E-01  0.00000000000E+00 0. -1.
     999901    1    3    3    0    0 -0.77574756085E-01 -0.43389515264E-01 -0.92084241193E-01  0.88925811792E+00  0.88000000000E+00 0. -1.
        -11    1    4    4    0    0  0.34118122238E-01  0.14819267296E-01  0.38795550607E-01  0.53749537822E-01  0.51100000000E-03 0. -1.
         11    1    4    4    0    0  0.59943103047E-01  0.99641799593E-02  0.39770390356E-01  0.72625102789E-01  0.51100000000E-03 0.  1.
</event>
<event>
 8    1  0.1022673E+005  0.1043930E+01  0.7957747E-01            NaN
         13   -1    0    0    0    0  0.00000000000E+00  0.00000000000E+00  0.74505805969E-08  0.10566000000E+00  0.10566000000E+00 0. -1.
     999900   -1    0    0    0    0 -0.00000000000E+00 -0.00000000000E+00 -0.74505805969E-08  0.93827000000E+00  0.93827000000E+00 0. -1.
     999902    2    1    2    0    0  0.10875272069E-01  0.95630194626E-02 -0.18992424052E-01  0.10200462177E+01  0.10197665670E+01 0.  0.
     999903    2    3    3    0    0 -0.84979379461E-01 -0.16184153922E-01  0.91635417282E-01  0.12758358522E+00  0.19927361743E-01 0.  0.
         14    1    1    2    0    0 -0.10875272069E-01 -0.95630194626E-02  0.18992424052E-01  0.23883782263E-01  0.00000000000E+00 0. -1.
     999901    1    3    3    0    0  0.95854651530E-01  0.25747173384E-01 -0.11062784133E+00  0.89246263251E+00  0.88000000000E+00 0. -1.
        -11    1    4    4    0    0 -0.25339656476E-01  0.32484917758E-02  0.32828996950E-01  0.41601142423E-01  0.51100000000E-03 0. -1.
         11    1    4    4    0    0 -0.59639722985E-01 -0.19432645697E-01  0.58806420332E-01  0.85982442799E-01  0.51100000000E-03 0.  1.
</event>
<event>
 8    1  0.1022673E+005  0.1043930E+01  0.7957747E-01            NaN
         13   -1    0    0    0    0  0.00000000000E+00  0.00000000000E+00  0.74505805969E-08  0.10566000000E+00  0.10566000000E+00 0. -1.
     999900   -1    0    0    0    0 -0.00000000000E+00 -0.00000000000E+00 -0.74505805969E-08  0.93827000000E+00  0.93827000000E+00 0.  1.
     999902    2    1    2    0    0 -0.84036426548E-02 -0.21656361394E-01 -0.72692907344E-03  0.10206889238E+01  0.10204242899E+01 0.  0.
     999903    2    3    3    0    0 -0.12028390880E+00  0.40070049764E-01 -0.26104183964E-01  0.13109837253E+00  0.20773234083E-01 0.  0.
         14    1    1    2    0    0  0.84036426548E-02  0.21656361394E-01  0.72692907344E-03  0.23241076235E-01  0.00000000000E+00 0.  1.
     999901    1    3    3    0    0  0.11188026615E+00 -0.61726411158E-01  0.25377254891E-01  0.88959055124E+00  0.88000000000E+00 0. -1.
        -11    1    4    4    0    0 -0.28586796372E-01  0.10848080372E-01 -0.15470063776E-01  0.34270537913E-01  0.51100000000E-03 0. -1.
         11    1    4    4    0    0 -0.91697112428E-01  0.29221969392E-01 -0.10634120188E-01  0.96827834613E-01  0.51100000000E-03 0.  1.
</event>
<event>
 8    1  0.1022673E+005  0.1043930E+01  0.7957747E-01            NaN
         13   -1    0    0    0    0  0.00000000000E+00  0.00000000000E+00  0.74505805969E-08  0.10566000000E+00  0.10566000000E+00 0. -1.
     999900   -1    0    0    0    0 -0.00000000000E+00 -0.00000000000E+00 -0.74505805969E-08  0.93827000000E+00  0.93827000000E+00 0.  1.
     999902    2    1    2    0    0  0.11011170008E-01 -0.10493127532E-01 -0.13759930420E-01  0.10234193375E+01  0.10232137866E+01 0.  0.
     999903    2    3    3    0    0  0.39319316541E-01 -0.57716037693E-01  0.11130754504E+00  0.13287274816E+00  0.19714156350E-01 0.  0.
         14    1    1    2    0    0 -0.11011170008E-01  0.10493127532E-01  0.13759930420E-01  0.20510662484E-01  0.00000000000E+00 0.  1.
     999901    1    3    3    0    0 -0.28308146533E-01  0.47222910160E-01 -0.12506747546E+00  0.89054658936E+00  0.88000000000E+00 0.  1.
        -11    1    4    4    0    0  0.27973851861E-02 -0.19352276903E-01  0.31875424892E-01  0.37398393258E-01  0.51100000000E-03 0. -1.
         11    1    4    4    0    0  0.36521931355E-01 -0.38363760790E-01  0.79432120143E-01  0.95474354898E-01  0.51100000000E-03 0.  1.
</event>
<event>
 8    1  0.1022673E+005  0.1043930E+01  0.7957747E-01            NaN
         13   -1    0    0    0    0  0.00000000000E+00  0.00000000000E+00  0.74505805969E-08  0.10566000000E+00  0.10566000000E+00 0. -1.
     999900   -1    0    0    0    0 -0.00000000000E+00 -0.00000000000E+00 -0.74505805969E-08  0.93827000000E+00  0.93827000000E+00 0. -1.
     999902    2    1    2    0    0  0.22252861517E-01  0.81894290715E-03 -0.40246143142E-02  0.10213013007E+01  0.10210505809E+01 0.  0.
     999903    2    3    3    0    0  0.43647378829E-01 -0.56320490647E-02  0.12269412515E+00  0.13194367878E+00  0.20456597190E-01 0.  0.
         14    1    1    2    0    0 -0.22252861517E-01 -0.81894290715E-03  0.40246143142E-02  0.22628699334E-01  0.00000000000E+00 0. -1.
     999901    1    3    3    0    0 -0.21394517312E-01  0.64509919718E-02 -0.12671873947E+00  0.88935762188E+00  0.88000000000E+00 0. -1.
        -11    1    4    4    0    0  0.48799622222E-02 -0.79664603293E-02  0.30470139019E-01  0.31874268844E-01  0.51100000000E-03 0. -1.
         11    1    4    4    0    0  0.38767416607E-01  0.23344112646E-02  0.92223986134E-01  0.10006940994E+00  0.51100000000E-03 0.  1.
</event>
<event>
 8    1  0.1022673E+005  0.1043930E+01  0.7957747E-01            NaN
         13   -1    0    0    0    0  0.00000000000E+00  0.00000000000E+00  0.74505805969E-08  0.10566000000E+00  0.10566000000E+00 0.  1.
     999900   -1    0    0    0    0 -0.00000000000E+00 -0.00000000000E+00 -0.74505805969E-08  0.93827000000E+00  0.93827000000E+00 0. -1.
     999902    2    1    2    0    0  0.20257094350E-01 -0.24079887036E-01  0.26179999708E-02  0.10123539845E+01  0.10118614259E+01 0.  0.
     999903    2    3    3    0    0  0.29149267430E-01 -0.12091318043E+00 -0.13268665779E-01  0.12685517388E+00  0.21130562136E-01 0.  0.
         14    1    1    2    0    0 -0.20257094350E-01  0.24079887036E-01 -0.26179999708E-02  0.31576015503E-01  0.00000000000E+00 0.  1.
     999901    1    3    3    0    0 -0.88921730796E-02  0.96833293392E-01  0.15886665750E-01  0.88549881061E+00  0.88000000000E+00 0.  1.
        -11    1    4    4    0    0  0.28312365805E-01 -0.75174165873E-01 -0.62905986812E-02  0.80576535201E-01  0.51100000000E-03 0. -1.
         11    1    4    4    0    0  0.83690162499E-03 -0.45739014555E-01 -0.69780670978E-02  0.46278638682E-01  0.51100000000E-03 0.  1.
</event>
<event>
 8    1  0.1022673E+005  0.1043930E+01  0.7957747E-01            NaN
         13   -1    0    0    0    0  0.00000000000E+00  0.00000000000E+00  0.74505805969E-08  0.10566000000E+00  0.10566000000E+00 0. -1.
     999900   -1    0    0    0    0 -0.00000000000E+00 -0.00000000000E+00 -0.74505805969E-08  0.93827000000E+00  0.93827000000E+00 0.  1.
     999902    2    1    2    0    0 -0.16351984305E-01 -0.15635306699E-01  0.72997830803E-02  0.10201573889E+01  0.10198803661E+01 0.  0.
     999903    2    3    3    0    0  0.12587373904E+00  0.72998453919E-02 -0.11387656165E-01  0.12824741699E+00  0.20499642183E-01 0.  0.
         14    1    1    2    0    0  0.16351984305E-01  0.15635306699E-01 -0.72997830803E-02  0.23772611116E-01  0.00000000000E+00 0.  1.
     999901    1    3    3    0    0 -0.14222572334E+00 -0.22935152091E-01  0.18687439245E-01  0.89190997190E+00  0.88000000000E+00 0. -1.
        -11    1    4    4    0    0  0.65433235309E-02  0.17356874498E-02 -0.53327552234E-02  0.86329075650E-02  0.51100000000E-03 0. -1.
         11    1    4    4    0    0  0.11933041550E+00  0.55641579420E-02 -0.60549009417E-02  0.11961450942E+00  0.51100000000E-03 0.  1.
</event>
<event>
 8    1  0.1022673E+005  0.1043930E+01  0.7957747E-01            NaN
         13   -1    0    0    0    0  0.00000000000E+00  0.00000000000E+00  0.74505805969E-08  0.10566000000E+00  0.10566000000E+00 0.  1.
     999900   -1    0    0    0    0 -0.00000000000E+00 -0.00000000000E+00 -0.74505805969E-08  0.93827000000E+00  0.93827000000E+00 0. -1.
     999902    2    1    2    0    0  0.44591813278E-02  0.23008039067E-01  0.93006469064E-03  0.10204753804E+01  0.10202058042E+01 0.  0.
     999903    2    3    3    0    0 -0.87048210987E-01  0.23710070519E-01 -0.92684553867E-01  0.13079128338E+00  0.19400381518E-01 0.  0.
         14    1    1    2    0    0 -0.44591813278E-02 -0.23008039067E-01 -0.93006469064E-03  0.23454619591E-01  0.00000000000E+00 0.  1.
     999901    1    3    3    0    0  0.91507392315E-01 -0.70203145188E-03  0.93614618557E-01  0.88968409703E+00  0.88000000000E+00 0.  1.
        -11    1    4    4    0    0 -0.14890566164E-01  0.93801494806E-02 -0.26606397133E-01  0.31904194934E-01  0.51100000000E-03 0. -1.
         11    1    4    4    0    0 -0.72157644823E-01  0.14329921038E-01 -0.66078156734E-01  0.98887088448E-01  0.51100000000E-03 0.  1.
</event>
<event>
 8    1  0.1022673E+005  0.1043930E+01  0.7957747E-01            NaN
         13   -1    0    0    0    0  0.00000000000E+00  0.00000000000E+00  0.74505805969E-08  0.10566000000E+00  0.10566000000E+00 0. -1.
     999900   -1    0    0    0    0 -0.00000000000E+00 -0.00000000000E+00 -0.74505805969E-08  0.93827000000E+00  0.93827000000E+00 0.  1.
     999902    2    1    2    0    0 -0.20155894643E-01  0.61093618385E-02  0.77246244816E-02  0.10214966718E+01  0.10212503103E+01 0.  0.
     999903    2    3    3    0    0  0.10823045746E+00 -0.44213351406E-01  0.52331093254E-01  0.12964176884E+00  0.19994812864E-01 0.  0.
         14    1    1    2    0    0  0.20155894643E-01 -0.61093618385E-02 -0.77246244816E-02  0.22433328204E-01  0.00000000000E+00 0. -1.
     999901    1    3    3    0    0 -0.12838635210E+00  0.50322713244E-01 -0.44606468772E-01  0.89185490296E+00  0.88000000000E+00 0.  1.
        -11    1    4    4    0    0  0.19028525527E-01 -0.16496601932E-01  0.11849976087E-01  0.27837128323E-01  0.51100000000E-03 0.  1.
         11    1    4    4    0    0  0.89201931934E-01 -0.27716749474E-01  0.40481117167E-01  0.10180464051E+00  0.51100000000E-03 0. -1.
</event>
<event>
 8    1  0.1022673E+005  0.1043930E+01  0.7957747E-01            NaN
         13   -1    0    0    0    0  0.00000000000E+00  0.00000000000E+00  0.74505805969E-08  0.10566000000E+00  0.10566000000E+00 0. -1.
     999900   -1    0    0    0    0 -0.00000000000E+00 -0.00000000000E+00 -0.74505805969E-08  0.93827000000E+00  0.93827000000E+00 0.  1.
     999902    2    1    2    0    0 -0.23315812637E-01 -0.12134992236E-01  0.78432280449E-02  0.10165000641E+01  0.10161299026E+01 0.  0.
     999903    2    3    3    0    0  0.32352422682E-01 -0.11036336339E+00  0.52945015378E-01  0.12814093825E+00  0.19752826858E-01 0.  0.
         14    1    1    2    0    0  0.23315812637E-01  0.12134992236E-01 -0.78432280449E-02  0.27429935867E-01  0.00000000000E+00 0.  1.
     999901    1    3    3    0    0 -0.55668235319E-01  0.98228371156E-01 -0.45101787333E-01  0.88835912589E+00  0.88000000000E+00 0.  1.
        -11    1    4    4    0    0  0.26873753775E-01 -0.70620051707E-01  0.42445024082E-01  0.86667361419E-01  0.51100000000E-03 0. -1.
         11    1    4    4    0    0  0.54786689063E-02 -0.39743311685E-01  0.10499991297E-01  0.41473576828E-01  0.51100000000E-03 0.  1.
</event>
<event>
 8    1  0.1022673E+005  0.1043930E+01  0.7957747E-01            NaN
         13   -1    0    0    0    0  0.00000000000E+00  0.00000000000E+00  0.74505805969E-08  0.10566000000E+00  0.10566000000E+00 0.  1.
     999900   -1    0    0    0    0 -0.00000000000E+00 -0.00000000000E+00 -0.74505805969E-08  0.93827000000E+00  0.93827000000E+00 0. -1.
     999902    2    1    2    0    0 -0.67563452536E-02  0.17964919060E-01 -0.14507777821E-01  0.10198704461E+01  0.10195866146E+01 0.  0.
     999903    2    3    3    0    0 -0.54408293475E-01  0.11052265669E+00  0.42492460526E-01  0.13190272699E+00  0.20425477841E-01 0.  0.
         14    1    1    2    0    0  0.67563452536E-02 -0.17964919060E-01  0.14507777821E-01  0.24059553930E-01  0.00000000000E+00 0.  1.
     999901    1    3    3    0    0  0.47651948221E-01 -0.92557737625E-01 -0.57000238348E-01  0.88796771908E+00  0.88000000000E+00 0. -1.
        -11    1    4    4    0    0 -0.42723949213E-01  0.66714104364E-01  0.22567081607E-01  0.82375007440E-01  0.51100000000E-03 0.  1.
         11    1    4    4    0    0 -0.11684344262E-01  0.43808552321E-01  0.19925378920E-01  0.49527719546E-01  0.51100000000E-03 0. -1.
</event>
<event>
 8    1  0.1022673E+005  0.1043930E+01  0.7957747E-01            NaN
         13   -1    0    0    0    0  0.00000000000E+00  0.00000000000E+00  0.74505805969E-08  0.10566000000E+00  0.10566000000E+00 0.  1.
     999900   -1    0    0    0    0 -0.00000000000E+00 -0.00000000000E+00 -0.74505805969E-08  0.93827000000E+00  0.93827000000E+00 0.  1.
     999902    2    1    2    0    0  0.58374438707E-02  0.21440117585E-01  0.84732086884E-02  0.10201487120E+01  0.10198714845E+01 0.  0.
     999903    2    3    3    0    0 -0.77098827111E-01 -0.69558499693E-01  0.74009816109E-01  0.12916374002E+00  0.20571942912E-01 0.  0.
         14    1    1    2    0    0 -0.58374438707E-02 -0.21440117585E-01 -0.84732086884E-02  0.23781287990E-01  0.00000000000E+00 0.  1.
     999901    1    3    3    0    0  0.82936270982E-01  0.90998617278E-01 -0.65536607421E-01  0.89098497199E+00  0.88000000000E+00 0.  1.
        -11    1    4    4    0    0 -0.46599018202E-01 -0.29851773136E-01  0.32943522311E-01  0.64406006242E-01  0.51100000000E-03 0.  1.
         11    1    4    4    0    0 -0.30499808909E-01 -0.39706726557E-01  0.41066293798E-01  0.64757733783E-01  0.51100000000E-03 0. -1.
</event>
<event>
 8    1  0.1172810E+005  0.1043930E+01  0.7957747E-01            NaN
         13   -1    0    0    0    0  0.00000000000E+00  0.00000000000E+00  0.74505805969E-08  0.10566000000E+00  0.10566000000E+00 0.  1.
     999900   -1    0    0    0    0 -0.00000000000E+00 -0.00000000000E+00 -0.74505805969E-08  0.93827000000E+00  0.93827000000E+00 0.  1.
     999902    2    1    2    0    0 -0.95495783655E-03 -0.15318694160E-01 -0.20715332224E-01  0.10181482366E+01  0.10178217586E+01 0.  0.
     999903    2    3    3    0    0  0.85204999023E-01  0.24874044468E-01 -0.92810575665E-01  0.13009603175E+00  0.20798186806E-01 0.  0.
         14    1    1    2    0    0  0.95495783655E-03  0.15318694160E-01  0.20715332224E-01  0.25781763407E-01  0.00000000000E+00 0.  1.
     999901    1    3    3    0    0 -0.86159956860E-01 -0.40192738628E-01  0.72095243441E-01  0.88805220485E+00  0.88000000000E+00 0.  1.
        -11    1    4    4    0    0  0.25683705154E-01 -0.45164356338E-03 -0.34429943369E-01  0.42959734796E-01  0.51100000000E-03 0. -1.
         11    1    4    4    0    0  0.59521293869E-01  0.25325688032E-01 -0.58380632296E-01  0.87136296951E-01  0.51100000000E-03 0.  1.
</event>
<event>
 8    1  0.1022673E+005  0.1043930E+01  0.7957747E-01            NaN
         13   -1    0    0    0    0  0.00000000000E+00  0.00000000000E+00  0.74505805969E-08  0.10566000000E+00  0.10566000000E+00 0. -1.
     999900   -1    0    0    0    0 -0.00000000000E+00 -0.00000000000E+00 -0.74505805969E-08  0.93827000000E+00  0.93827000000E+00 0. -1.
     999902    2    1    2    0    0  0.31549789641E-02  0.72608054857E-03  0.23446189734E-01  0.10202613520E+01  0.10199867752E+01 0.  0.
     999903    2    3    3    0    0  0.69952829981E-01 -0.10430266374E+00  0.34233158370E-01  0.13143665122E+00  0.18200001812E-01 0.  0.
         14    1    1    2    0    0 -0.31549789641E-02 -0.72608054857E-03 -0.23446189734E-01  0.23668648003E-01  0.00000000000E+00 0.  1.
     999901    1    3    3    0    0 -0.66797851016E-01  0.10502874429E+00 -0.10786968636E-01  0.88882470078E+00  0.88000000000E+00 0.  1.
        -11    1    4    4    0    0  0.31271538442E-01 -0.59829130984E-01  0.12778302203E-01  0.68709389162E-01  0.51100000000E-03 0.  1.
         11    1    4    4    0    0  0.38681291539E-01 -0.44473532753E-01  0.21454856167E-01  0.62727262054E-01  0.51100000000E-03 0. -1.
</event>
<event>
 8    1  0.1022673E+005  0.1043930E+01  0.7957747E-01            NaN
         13   -1    0    0    0    0  0.00000000000E+00  0.00000000000E+00  0.74505805969E-08  0.10566000000E+00  0.10566000000E+00 0. -1.
     999900   -1    0    0    0    0 -0.00000000000E+00 -0.00000000000E+00 -0.74505805969E-08  0.93827000000E+00  0.93827000000E+00 0. -1.
     999902    2    1    2    0    0  0.16200886833E-01 -0.66187495849E-02  0.15679183022E-01  0.10204329074E+01  0.10201623425E+01 0.  0.
     999903    2    3    3    0    0  0.87461458709E-01 -0.28685648555E-02 -0.95282025959E-01  0.13059892126E+00  0.17879550909E-01 0.  0.
         14    1    1    2    0    0 -0.16200886833E-01  0.66187495849E-02 -0.15679183022E-01  0.23497092596E-01  0.00000000000E+00 0.  1.
     999901    1    3    3    0    0 -0.71260571876E-01 -0.37501847294E-02  0.11096120898E+00  0.88983398614E+00  0.88000000000E+00 0.  1.
        -11    1    4    4    0    0  0.20554645880E-01  0.70239438821E-03 -0.34312443872E-01  0.40007396198E-01  0.51100000000E-03 0. -1.
         11    1    4    4    0    0  0.66906812829E-01 -0.35709592437E-02 -0.60969582088E-01  0.90591525066E-01  0.51100000000E-03 0.  1.
</event>
<event>
 8    1  0.1022673E+005  0.1043930E+01  0.7957747E-01            NaN
         13   -1    0    0    0    0  0.00000000000E+00  0.00000000000E+00  0.74505805969E-08  0.10566000000E+00  0.10566000000E+00 0. -1.
     999900   -1    0    0    0    0 -0.00000000000E+00 -0.00000000000E+00 -0.74505805969E-08  0.93827000000E+00  0.93827000000E+00 0.  1.
     999902    2    1    2    0    0 -0.17032931547E-01  0.14521382372E-01 -0.65013602347E-02  0.10206220831E+01  0.10203559073E+01 0.  0.
     999903    2    3    3    0    0  0.47431771188E-01  0.63877469605E-01  0.10129308749E+00  0.13033484624E+00  0.19919300429E-01 0.  0.
         14    1    1    2    0    0  0.17032931547E-01 -0.14521382372E-01  0.65013602347E-02  0.23307916852E-01  0.00000000000E+00 0.  1.
     999901    1    3    3    0    0 -0.64464702734E-01 -0.49356087234E-01 -0.10779444772E+00  0.89028723691E+00  0.88000000000E+00 0.  1.
        -11    1    4    4    0    0  0.30468790342E-01  0.42776437873E-01  0.50961555311E-01  0.73181364177E-01  0.51100000000E-03 0. -1.
         11    1    4    4    0    0  0.16962980845E-01  0.21101031732E-01  0.50331532178E-01  0.57153482061E-01  0.51100000000E-03 0.  1.
</event>
<event>
 8    1  0.1022673E+005  0.1043930E+01  0.7957747E-01            NaN
         13   -1    0    0    0    0  0.00000000000E+00  0.00000000000E+00  0.74505805969E-08  0.10566000000E+00  0.10566000000E+00 0. -1.
     999900   -1    0    0    0    0 -0.00000000000E+00 -0.00000000000E+00 -0.74505805969E-08  0.93827000000E+00  0.93827000000E+00 0. -1.
     999902    2    1    2    0    0  0.63841188199E-02  0.15924498538E-01  0.16257332440E-01  0.10202942752E+01  0.10200204707E+01 0.  0.
     999903    2    3    3    0    0  0.84328713118E-02  0.12514126117E+00  0.40668802212E-01  0.13320441594E+00  0.18921320892E-01 0.  0.
         14    1    1    2    0    0 -0.63841188199E-02 -0.15924498538E-01 -0.16257332440E-01  0.23635724758E-01  0.00000000000E+00 0. -1.
     999901    1    3    3    0    0 -0.20487524918E-02 -0.10921676264E+00 -0.24411469772E-01  0.88708985931E+00  0.88000000000E+00 0. -1.
        -11    1    4    4    0    0  0.13689172069E-01  0.72056471344E-01  0.26738345882E-01  0.78068743784E-01  0.51100000000E-03 0. -1.
         11    1    4    4    0    0 -0.52563007571E-02  0.53084789831E-01  0.13930456330E-01  0.55135672152E-01  0.51100000000E-03 0.  1.
</event>
<event>
 8    1  0.1022673E+005  0.1043930E+01  0.7957747E-01            NaN
         13   -1    0    0    0    0  0.00000000000E+00  0.00000000000E+00  0.74505805969E-08  0.10566000000E+00  0.10566000000E+00 0.  1.
     999900   -1    0    0    0    0 -0.00000000000E+00 -0.00000000000E+00 -0.74505805969E-08  0.93827000000E+00  0.93827000000E+00 0.  1.
     999902    2    1    2    0    0  0.21563914839E-01  0.46506488703E-02  0.10025216317E-01  0.10196991123E+01  0.10194111750E+01 0.  0.
     999903    2    3    3    0    0  0.17633935068E-01 -0.73342816701E-01 -0.10279135334E+00  0.12906675051E+00  0.20050918650E-01 0.  0.
         14    1    1    2    0    0 -0.21563914839E-01 -0.46506488703E-02 -0.10025216317E-01  0.24230887732E-01  0.00000000000E+00 0. -1.
     999901    1    3    3    0    0  0.39299797710E-02  0.77993465571E-01  0.11281656966E+00  0.89063236175E+00  0.88000000000E+00 0. -1.
        -11    1    4    4    0    0  0.19049711060E-01 -0.47975229357E-01 -0.58640075441E-01  0.78124475627E-01  0.51100000000E-03 0. -1.
         11    1    4    4    0    0 -0.14157759919E-02 -0.25367587344E-01 -0.44151277902E-01  0.50942274887E-01  0.51100000000E-03 0.  1.
</event>
<event>
 8    1  0.1022673E+005  0.1043930E+01  0.7957747E-01            NaN
         13   -1    0    0    0    0  0.00000000000E+00  0.00000000000E+00  0.74505805969E-08  0.10566000000E+00  0.10566000000E+00 0.  1.
     999900   -1    0    0    0    0 -0.00000000000E+00 -0.00000000000E+00 -0.74505805969E-08  0.93827000000E+00  0.93827000000E+00 0.  1.
     999902    2    1    2    0    0  0.21312046440E-01 -0.78755180781E-02  0.82695503944E-02  0.10197512372E+01  0.10194645522E+01 0.  0.
     999903    2    3    3    0    0 -0.41108995645E-01  0.96348165670E-01  0.72613549846E-01  0.12907783293E+00  0.20382364473E-01 0.  0.
         14    1    1    2    0    0 -0.21312046440E-01  0.78755180781E-02 -0.82695503944E-02  0.24178762834E-01  0.00000000000E+00 0. -1.
     999901    1    3    3    0    0  0.62421042085E-01 -0.10422368375E+00 -0.64343999452E-01  0.89067340424E+00  0.88000000000E+00 0. -1.
        -11    1    4    4    0    0 -0.92516283393E-02  0.17865305454E-01  0.51040012913E-02  0.20762314805E-01  0.51100000000E-03 0.  1.
         11    1    4    4    0    0 -0.31857367306E-01  0.78482860216E-01  0.67509548555E-01  0.10831551812E+00  0.51100000000E-03 0. -1.
</event>
<event>
 8    1  0.1022673E+005  0.1043930E+01  0.7957747E-01            NaN
         13   -1    0    0    0    0  0.00000000000E+00  0.00000000000E+00  0.74505805969E-08  0.10566000000E+00  0.10566000000E+00 0. -1.
     999900   -1    0    0    0    0 -0.00000000000E+00 -0.00000000000E+00 -0.74505805969E-08  0.93827000000E+00  0.93827000000E+00 0.  1.
     999902    2    1    2    0    0 -0.15777891006E-01 -0.10020902839E-01 -0.12977641956E-01  0.10211752306E+01  0.10209216778E+01 0.  0.
     999903    2    3    3    0    0  0.80104499975E-01  0.11920643417E-01 -0.10138811153E+00  0.13129249932E+00  0.19983457216E-01 0.  0.
         14    1    1    2    0    0  0.15777891006E-01  0.10020902839E-01  0.12977641956E-01  0.22754769369E-01  0.00000000000E+00 0. -1.
     999901    1    3    3    0    0 -0.95882390981E-01 -0.21941546256E-01  0.88410469576E-01  0.88988273131E+00  0.88000000000E+00 0. -1.
        -11    1    4    4    0    0  0.35536692265E-01  0.29204964817E-02 -0.60049826106E-01  0.69840020999E-01  0.51100000000E-03 0.  1.
         11    1    4    4    0    0  0.44567807711E-01  0.90001469352E-02 -0.41338285426E-01  0.61452478322E-01  0.51100000000E-03 0. -1.
</event>
<event>
 8    1  0.1022673E+005  0.1043930E+01  0.7957747E-01            NaN
         13   -1    0    0    0    0  0.00000000000E+00  0.00000000000E+00  0.74505805969E-08  0.10566000000E+00  0.10566000000E+00 0.  1.
     999900   -1    0    0    0    0 -0.00000000000E+00 -0.00000000000E+00 -0.74505805969E-08  0.93827000000E+00  0.93827000000E+00 0.  1.
     999902    2    1    2    0    0  0.20292078120E-01  0.56142417016E-02  0.95446747318E-02  0.10208131455E+01  0.10205513653E+01 0.  0.
     999903    2    3    3    0    0  0.57363167847E-01  0.91794108369E-01 -0.73010258436E-01  0.13198439257E+00  0.19305198507E-01 0.  0.
         14    1    1    2    0    0 -0.20292078120E-01 -0.56142417016E-02 -0.95446747318E-02  0.23116854458E-01  0.00000000000E+00 0. -1.
     999901    1    3    3    0    0 -0.37071089727E-01 -0.86179866667E-01  0.82554933168E-01  0.88882875297E+00  0.88000000000E+00 0. -1.
        -11    1    4    4    0    0  0.50720897921E-01  0.70274586417E-01 -0.63930298835E-01  0.10769619869E+00  0.51100000000E-03 0.  1.
         11    1    4    4    0    0  0.66422699261E-02  0.21519521952E-01 -0.90799596017E-02  0.24288193885E-01  0.51100000000E-03 0. -1.
</event>
<event>
 8    1  0.1022673E+005  0.1043930E+01  0.7957747E-01            NaN
         13   -1    0    0    0    0  0.00000000000E+00  0.00000000000E+00  0.74505805969E-08  0.10566000000E+00  0.10566000000E+00 0. -1.
     999900   -1    0    0    0    0 -0.00000000000E+00 -0.00000000000E+00 -0.74505805969E-08  0.93827000000E+00  0.93827000000E+00 0. -1.
     999902    2    1    2    0    0 -0.21877241216E-02 -0.19974417685E-01 -0.13765326460E-01  0.10195733231E+01  0.10192823521E+01 0.  0.
     999903    2    3    3    0    0  0.83068478686E-01  0.93181509095E-01 -0.24197030454E-01  0.12818019749E+00  0.16170991203E-01 0.  0.
         14    1    1    2    0    0  0.21877241216E-02  0.19974417685E-01  0.13765326460E-01  0.24356676933E-01  0.00000000000E+00 0. -1.
     999901    1    3    3    0    0 -0.85256202808E-01 -0.11315592678E+00  0.10431703994E-01  0.89139312558E+00  0.88000000000E+00 0.  1.
        -11    1    4    4    0    0  0.13673780370E-02  0.53184814866E-02 -0.32009183075E-02  0.63767520754E-02  0.51100000000E-03 0. -1.
         11    1    4    4    0    0  0.81701100649E-01  0.87863027609E-01 -0.20996112146E-01  0.12180344541E+00  0.51100000000E-03 0.  1.
</event>
<event>
 8    1  0.1022673E+005  0.1043930E+01  0.7957747E-01            NaN
         13   -1    0    0    0    0  0.00000000000E+00  0.00000000000E+00  0.74505805969E-08  0.10566000000E+00  0.10566000000E+00 0. -1.
     999900   -1    0    0    0    0 -0.00000000000E+00 -0.00000000000E+00 -0.74505805969E-08  0.93827000000E+00  0.93827000000E+00 0.  1.
     999902    2    1    2    0    0  0.13229852029E-02  0.50076396541E-02 -0.22956506599E-01  0.10203964508E+01  0.10201250359E+01 0.  0.
     999903    2    3    3    0    0 -0.56487963534E-01  0.54493178744E-01  0.99919554979E-01  0.12860642453E+00  0.19882112786E-01 0.  0.
         14    1    1    2    0    0 -0.13229852029E-02 -0.50076396541E-02  0.22956506599E-01  0.23533549243E-01  0.00000000000E+00 0. -1.
     999901    1    3    3    0    0  0.57810948737E-01 -0.49485539089E-01 -0.12287606158E+00  0.89179002623E+00  0.88000000000E+00 0.  1.
        -11    1    4    4    0    0 -0.25693795572E-01  0.31030530586E-01  0.36849074844E-01  0.54600186787E-01  0.51100000000E-03 0.  1.
         11    1    4    4    0    0 -0.30794167962E-01  0.23462648157E-01  0.63070480135E-01  0.74006237741E-01  0.51100000000E-03 0. -1.
</event>
<event>
 8    1  0.1022673E+005  0.1043930E+01  0.7957747E-01            NaN
         13   -1    0    0    0    0  0.00000000000E+00  0.00000000000E+00  0.74505805969E-08  0.10566000000E+00  0.10566000000E+00 0.  1.
     999900   -1    0    0    0    0 -0.00000000000E+00 -0.00000000000E+00 -0.74505805969E-08  0.93827000000E+00  0.93827000000E+00 0. -1.
     999902    2    1    2    0    0 -0.10506317136E-01 -0.20255863314E-01  0.61678615519E-02  0.10202926310E+01  0.10200187879E+01 0.  0.
     999903    2    3    3    0    0  0.66799794584E-01  0.10604668466E+00 -0.14340088629E-01  0.12768457334E+00  0.19738293797E-01 0.  0.
         14    1    1    2    0    0  0.10506317136E-01  0.20255863314E-01 -0.61678615519E-02  0.23637369027E-01  0.00000000000E+00 0. -1.
     999901    1    3    3    0    0 -0.77306111720E-01 -0.12630254798E+00  0.20507950181E-01  0.89260805764E+00  0.88000000000E+00 0. -1.
        -11    1    4    4    0    0  0.45058825482E-01  0.54524020944E-01 -0.11717928851E-01  0.71698937170E-01  0.51100000000E-03 0. -1.
         11    1    4    4    0    0  0.21740969102E-01  0.51522663720E-01 -0.26221597778E-02  0.55985636168E-01  0.51100000000E-03 0.  1.
</event>
<event>
 8    1  0.1022673E+005  0.1043930E+01  0.7957747E-01            NaN
         13   -1    0    0    0    0  0.00000000000E+00  0.00000000000E+00  0.74505805969E-08  0.10566000000E+00  0.10566000000E+00 0. -1.
     999900   -1    0    0    0    0 -0.00000000000E+00 -0.00000000000E+00 -0.74505805969E-08  0.93827000000E+00  0.93827000000E+00 0.  1.
     999902    2    1    2    0    0  0.11329846639E-01  0.18536822835E-01 -0.52898744435E-02  0.10215701700E+01  0.10213254380E+01 0.  0.
     999903    2    3    3    0    0 -0.70762091757E-01 -0.90229483668E-01  0.55536531395E-01  0.12900698041E+00  0.20245032023E-01 0.  0.
         14    1    1    2    0    0 -0.11329846639E-01 -0.18536822835E-01  0.52898744435E-02  0.22359829993E-01  0.00000000000E+00 0.  1.
     999901    1    3    3    0    0  0.82091938397E-01  0.10876630650E+00 -0.60826405838E-01  0.89256318960E+00  0.88000000000E+00 0.  1.
        -11    1    4    4    0    0 -0.82021780147E-02 -0.22269740837E-01  0.15376784557E-01  0.28282922506E-01  0.51100000000E-03 0.  1.
         11    1    4    4    0    0 -0.62559913743E-01 -0.67959742831E-01  0.40159746837E-01  0.10072405790E+00  0.51100000000E-03 0. -1.
</event>
<event>
 8    1  0.1022673E+005  0.1043930E+01  0.7957747E-01            NaN
         13   -1    0    0    0    0  0.00000000000E+00  0.00000000000E+00  0.74505805969E-08  0.10566000000E+00  0.10566000000E+00 0. -1.
     999900   -1    0    0    0    0 -0.00000000000E+00 -0.00000000000E+00 -0.74505805969E-08  0.93827000000E+00  0.93827000000E+00 0.  1.
     999902    2    1    2    0    0  0.95783459197E-02 -0.19869898754E-01  0.10568427262E-01  0.10194708659E+01  0.10191774120E+01 0.  0.
     999903    2    3    3    0    0 -0.38880738327E-01 -0.73433133700E-02 -0.12053136398E+00  0.12835226914E+00  0.19515614941E-01 0.  0.
         14    1    1    2    0    0 -0.95783459197E-02  0.19869898754E-01 -0.10568427262E-01  0.24459134119E-01  0.00000000000E+00 0.  1.
     999901    1    3    3    0    0  0.48459084246E-01 -0.12526585384E-01  0.13109979124E+00  0.89111859674E+00  0.88000000000E+00 0. -1.
        -11    1    4    4    0    0 -0.21056717191E-01 -0.11935849491E-01 -0.51487844310E-01  0.56895598025E-01  0.51100000000E-03 0.  1.
         11    1    4    4    0    0 -0.17824021136E-01  0.45925361210E-02 -0.69043519673E-01  0.71456671118E-01  0.51100000000E-03 0. -1.
</event>
<event>
 8    1  0.1022673E+005  0.1043930E+01  0.7957747E-01            NaN
         13   -1    0    0    0    0  0.00000000000E+00  0.00000000000E+00  0.74505805969E-08  0.10566000000E+00  0.10566000000E+00 0.  1.
     999900   -1    0    0    0    0 -0.00000000000E+00 -0.00000000000E+00 -0.74505805969E-08  0.93827000000E+00  0.93827000000E+00 0. -1.
     999902    2    1    2    0    0  0.87856327901E-03 -0.74999103191E-02 -0.21646435821E-01  0.10210042784E+01  0.10207468578E+01 0.  0.
     999903    2    3    3    0    0 -0.56256187053E-01  0.14311885729E-01  0.11240302236E+00  0.12875465446E+00  0.23952723319E-01 0.  0.
         14    1    1    2    0    0 -0.87856327901E-03  0.74999103191E-02  0.21646435821E-01  0.22925721624E-01  0.00000000000E+00 0.  1.
     999901    1    3    3    0    0  0.57134750332E-01 -0.21811796048E-01 -0.13404945818E+00  0.89224962392E+00  0.88000000000E+00 0. -1.
        -11    1    4    4    0    0 -0.43934581631E-01  0.33322911278E-03  0.73880996111E-01  0.85959416076E-01  0.51100000000E-03 0. -1.
         11    1    4    4    0    0 -0.12321605422E-01  0.13978656616E-01  0.38522026248E-01  0.42795238383E-01  0.51100000000E-03 0.  1.
</event>
<event>
 8    1  0.1022673E+005  0.1043930E+01  0.7957747E-01            NaN
         13   -1    0    0    0    0  0.00000000000E+00  0.00000000000E+00  0.74505805969E-08  0.10566000000E+00  0.10566000000E+00 0.  1.
     999900   -1    0    0    0    0 -0.00000000000E+00 -0.00000000000E+00 -0.74505805969E-08  0.93827000000E+00  0.93827000000E+00 0.  1.
     999902    2    1    2    0    0  0.20729367499E-01  0.35273505380E-03  0.39912905488E-02  0.10228169353E+01  0.10225990034E+01 0.  0.
     999903    2    3    3    0    0  0.40026645069E-01  0.70966728287E-01  0.10462835780E+00  0.13406132199E+00  0.19670687806E-01 0.  0.
         14    1    1    2    0    0 -0.20729367499E-01 -0.35273505380E-03 -0.39912905488E-02  0.21113064657E-01  0.00000000000E+00 0. -1.
     999901    1    3    3    0    0 -0.19297277570E-01 -0.70613993234E-01 -0.10063706725E+00  0.88875561335E+00  0.88000000000E+00 0.  1.
        -11    1    4    4    0    0  0.17319348858E-01  0.31664697338E-01  0.62266748593E-01  0.71972369724E-01  0.51100000000E-03 0.  1.
         11    1    4    4    0    0  0.22707296211E-01  0.39302030950E-01  0.42361609206E-01  0.62088952266E-01  0.51100000000E-03 0. -1.
</event>
<event>
 8    1  0.1022673E+005  0.1043930E+01  0.7957747E-01            NaN
         13   -1    0    0    0    0  0.00000000000E+00  0.00000000000E+00  0.74505805969E-08  0.10566000000E+00  0.10566000000E+00 0. -1.
     999900   -1    0    0    0    0 -0.00000000000E+00 -0.00000000000E+00 -0.74505805969E-08  0.93827000000E+00  0.93827000000E+00 0. -1.
     999902    2    1    2    0    0 -0.14026844717E-01 -0.46485648244E-02  0.15407891877E-01  0.10225813546E+01  0.10223584803E+01 0.  0.
     999903    2    3    3    0    0 -0.47511516372E-01  0.97383560672E-01 -0.72307988807E-01  0.13172454592E+00  0.19545042242E-01 0.  0.
         14    1    1    2    0    0  0.14026844717E-01  0.46485648244E-02 -0.15407891877E-01  0.21348645384E-01  0.00000000000E+00 0.  1.
     999901    1    3    3    0    0  0.33484671655E-01 -0.10203212550E+00  0.87715880685E-01  0.89085680869E+00  0.88000000000E+00 0.  1.
        -11    1    4    4    0    0 -0.15769770281E-02  0.18940398109E-01 -0.15494569691E-01  0.24526890304E-01  0.51100000000E-03 0.  1.
         11    1    4    4    0    0 -0.45934539344E-01  0.78443162563E-01 -0.56813419117E-01  0.10719765562E+00  0.51100000000E-03 0. -1.
</event>
<event>
 8    1  0.1022673E+005  0.1043930E+01  0.7957747E-01            NaN
         13   -1    0    0    0    0  0.00000000000E+00  0.00000000000E+00  0.74505805969E-08  0.10566000000E+00  0.10566000000E+00 0. -1.
     999900   -1    0    0    0    0 -0.00000000000E+00 -0.00000000000E+00 -0.74505805969E-08  0.93827000000E+00  0.93827000000E+00 0.  1.
     999902    2    1    2    0    0  0.10279563528E-01  0.52042412840E-02 -0.19651106571E-01  0.10211501944E+01  0.10208960770E+01 0.  0.
     999903    2    3    3    0    0 -0.94069717201E-01  0.47166885923E-01  0.72159575824E-01  0.12925399117E+00  0.20634025994E-01 0.  0.
         14    1    1    2    0    0 -0.10279563528E-01 -0.52042412840E-02  0.19651106571E-01  0.22779805599E-01  0.00000000000E+00 0. -1.
     999901    1    3    3    0    0  0.10434928073E+00 -0.41962644639E-01 -0.91810682395E-01  0.89189620323E+00  0.88000000000E+00 0.  1.
        -11    1    4    4    0    0 -0.49066099421E-01  0.17934483759E-01  0.25476658789E-01  0.58124427602E-01  0.51100000000E-03 0.  1.
         11    1    4    4    0    0 -0.45003617780E-01  0.29232402165E-01  0.46682917036E-01  0.71129563569E-01  0.51100000000E-03 0. -1.
</event>
<event>
 8    1  0.1022673E+005  0.1043930E+01  0.7957747E-01            NaN
         13   -1    0    0    0    0  0.00000000000E+00  0.00000000000E+00  0.74505805969E-08  0.10566000000E+00  0.10566000000E+00 0.  1.
     999900   -1    0    0    0    0 -0.00000000000E+00 -0.00000000000E+00 -0.74505805969E-08  0.93827000000E+00  0.93827000000E+00 0.  1.
     999902    2    1    2    0    0 -0.41627440222E-02  0.14142410433E-01 -0.19789557497E-01  0.10192528284E+01  0.10189540546E+01 0.  0.
     999903    2    3    3    0    0 -0.11667628146E+00  0.55455737281E-01 -0.95490609066E-02  0.13106875131E+00  0.19978477260E-01 0.  0.
         14    1    1    2    0    0  0.41627440222E-02 -0.14142410433E-01  0.19789557497E-01  0.24677171568E-01  0.00000000000E+00 0.  1.
     999901    1    3    3    0    0  0.11251353744E+00 -0.41313326847E-01 -0.10240496591E-01  0.88818407712E+00  0.88000000000E+00 0.  1.
        -11    1    4    4    0    0 -0.32878014989E-01  0.69907352970E-02 -0.63449634971E-02  0.34210436016E-01  0.51100000000E-03 0.  1.
         11    1    4    4    0    0 -0.83798266469E-01  0.48465001984E-01 -0.32040974095E-02  0.96858315295E-01  0.51100000000E-03 0. -1.
</event>
<event>
 8    1  0.1022673E+005  0.1043930E+01  0.7957747E-01            NaN
         13   -1    0    0    0    0  0.00000000000E+00  0.00000000000E+00  0.74505805969E-08  0.10566000000E+00  0.10566000000E+00 0. -1.
     999900   -1    0    0    0    0 -0.00000000000E+00 -0.00000000000E+00 -0.74505805969E-08  0.93827000000E+00  0.93827000000E+00 0.  1.
     999902    2    1    2    0    0  0.13446430489E-02 -0.18825538277E-01 -0.13308595142E-01  0.10208361120E+01  0.10205748576E+01 0.  0.
     999903    2    3    3    0    0  0.10298634951E+00 -0.80528288253E-01 -0.12038179883E-01  0.13283843198E+00  0.20251860207E-01 0.  0.
         14    1    1    2    0    0 -0.13446430489E-02  0.18825538277E-01  0.13308595142E-01  0.23093887957E-01  0.00000000000E+00 0. -1.
     999901    1    3    3    0    0 -0.10164170646E+00  0.61702749977E-01 -0.12704152587E-02  0.88799768007E+00  0.88000000000E+00 0. -1.
        -11    1    4    4    0    0  0.39724619484E-01 -0.41749900207E-01 -0.10744391733E-01  0.58624249549E-01  0.51100000000E-03 0.  1.
         11    1    4    4    0    0  0.63261730022E-01 -0.38778388046E-01 -0.12937881504E-02  0.74214182429E-01  0.51100000000E-03 0. -1.
</event>
<event>
 8    1  0.1022673E+005  0.1043930E+01  0.7957747E-01            NaN
         13   -1    0    0    0    0  0.00000000000E+00  0.00000000000E+00  0.74505805969E-08  0.10566000000E+00  0.10566000000E+00 0.  1.
     999900   -1    0    0    0    0 -0.00000000000E+00 -0.00000000000E+00 -0.74505805969E-08  0.93827000000E+00  0.93827000000E+00 0. -1.
     999902    2    1    2    0    0 -0.11141206016E-01  0.10336056221E-01  0.14448824173E-01  0.10229602826E+01  0.10227453303E+01 0.  0.
     999903    2    3    3    0    0  0.68985343532E-01 -0.50739552147E-01 -0.96201477305E-01  0.13032710868E+00  0.19923635411E-01 0.  0.
         14    1    1    2    0    0  0.11141206016E-01 -0.10336056221E-01 -0.14448824173E-01  0.20969717444E-01  0.00000000000E+00 0. -1.
     999901    1    3    3    0    0 -0.80126549548E-01  0.61075608368E-01  0.11065030148E+00  0.89263317387E+00  0.88000000000E+00 0. -1.
        -11    1    4    4    0    0  0.21123166116E-01 -0.27475006885E-01 -0.39955462654E-01  0.52893896312E-01  0.51100000000E-03 0. -1.
         11    1    4    4    0    0  0.47862177416E-01 -0.23264545262E-01 -0.56246014650E-01  0.77433212372E-01  0.51100000000E-03 0.  1.
</event>
<event>
 8    1  0.1022673E+005  0.1043930E+01  0.7957747E-01            NaN
         13   -1    0    0    0    0  0.00000000000E+00  0.00000000000E+00  0.74505805969E-08  0.10566000000E+00  0.10566000000E+00 0.  1.
     999900   -1    0    0    0    0 -0.00000000000E+00 -0.00000000000E+00 -0.74505805969E-08  0.93827000000E+00  0.93827000000E+00 0.  1.
     999902    2    1    2    0    0 -0.22635158104E-01 -0.47676617248E-02  0.10677222224E-01  0.10184528719E+01  0.10181341603E+01 0.  0.
     999903    2    3    3    0    0  0.60133984476E-01  0.40312771412E-01  0.10471390973E+00  0.12843833552E+00  0.17034890989E-01 0.  0.
         14    1    1    2    0    0  0.22635158104E-01  0.47676617248E-02 -0.10677222224E-01  0.25477128079E-01  0.00000000000E+00 0. -1.
     999901    1    3    3    0    0 -0.82769142580E-01 -0.45080433137E-01 -0.94036687507E-01  0.89001453641E+00  0.88000000000E+00 0.  1.
        -11    1    4    4    0    0  0.39764247110E-01  0.20414728131E-01  0.52418372785E-01  0.68890517485E-01  0.51100000000E-03 0. -1.
         11    1    4    4    0    0  0.20369737366E-01  0.19898043281E-01  0.52295536946E-01  0.59547818031E-01  0.51100000000E-03 0.  1.
</event>
<event>
 8    1  0.1022673E+005  0.1043930E+01  0.7957747E-01            NaN
         13   -1    0    0    0    0  0.00000000000E+00  0.00000000000E+00  0.74505805969E-08  0.10566000000E+00  0.10566000000E+00 0. -1.
     999900   -1    0    0    0    0 -0.00000000000E+00 -0.00000000000E+00 -0.74505805969E-08  0.93827000000E+00  0.93827000000E+00 0.  1.
     999902    2    1    2    0    0  0.51711909744E-02  0.20072589890E-02  0.22828488699E-01  0.10204372309E+01  0.10201667667E+01 0.  0.
     999903    2    3    3    0    0  0.11119314138E+00  0.35481699482E-01 -0.52191185456E-01  0.13027480545E+00  0.24994787619E-01 0.  0.
         14    1    1    2    0    0 -0.51711909744E-02 -0.20072589890E-02 -0.22828488699E-01  0.23492769122E-01  0.00000000000E+00 0.  1.
     999901    1    3    3    0    0 -0.10602195040E+00 -0.33474440493E-01  0.75019674154E-01  0.89016242543E+00  0.88000000000E+00 0. -1.
        -11    1    4    4    0    0  0.14262823193E-01 -0.10020781335E-02 -0.13625650589E-01  0.19757321707E-01  0.51100000000E-03 0.  1.
         11    1    4    4    0    0  0.96930318185E-01  0.36483777615E-01 -0.38565534866E-01  0.11051748374E+00  0.51100000000E-03 0. -1.
</event>
<event>
 8    1  0.1022673E+005  0.1043930E+01  0.7957747E-01            NaN
         13   -1    0    0    0    0  0.00000000000E+00  0.00000000000E+00  0.74505805969E-08  0.10566000000E+00  0.10566000000E+00 0.  1.
     999900   -1    0    0    0    0 -0.00000000000E+00 -0.00000000000E+00 -0.74505805969E-08  0.93827000000E+00  0.93827000000E+00 0.  1.
     999902    2    1    2    0    0 -0.19680591590E-01 -0.13438547175E-01 -0.68086704864E-02  0.10191453630E+01  0.10188439492E+01 0.  0.
     999903    2    3    3    0    0  0.90718660336E-01 -0.25170945706E-01 -0.86107316431E-01  0.12863207327E+00  0.16379514357E-01 0.  0.
         14    1    1    2    0    0  0.19680591590E-01  0.13438547175E-01  0.68086704864E-02  0.24784636961E-01  0.00000000000E+00 0.  1.
     999901    1    3    3    0    0 -0.11039925193E+00  0.11732398531E-01  0.79298645945E-01  0.89051328977E+00  0.88000000000E+00 0. -1.
        -11    1    4    4    0    0  0.38535049139E-01 -0.43357715284E-02 -0.42256506338E-01  0.57355229717E-01  0.51100000000E-03 0.  1.
         11    1    4    4    0    0  0.52183611197E-01 -0.20835174178E-01 -0.43850810093E-01  0.71276843556E-01  0.51100000000E-03 0. -1.
</event>
<event>
 8    1  0.1022673E+005  0.1043930E+01  0.7957747E-01            NaN
         13   -1    0    0    0    0  0.00000000000E+00  0.00000000000E+00  0.74505805969E-08  0.10566000000E+00  0.10566000000E+00 0. -1.
     999900   -1    0    0    0    0 -0.00000000000E+00 -0.00000000000E+00 -0.74505805969E-08  0.93827000000E+00  0.93827000000E+00 0.  1.
     999902    2    1    2    0    0 -0.11340183559E-01 -0.15178930624E-01 -0.90539964787E-02  0.10229306060E+01  0.10227150385E+01 0.  0.
     999903    2    3    3    0    0  0.12554899288E+00  0.11561270004E-01  0.29495887694E-01  0.13111236297E+00  0.20596886985E-01 0.  0.
         14    1    1    2    0    0  0.11340183559E-01  0.15178930624E-01  0.90539964787E-02  0.20999394045E-01  0.00000000000E+00 0.  1.
     999901    1    3    3    0    0 -0.13688917644E+00 -0.26740200628E-01 -0.38549884172E-01  0.89181824299E+00  0.88000000000E+00 0.  1.
        -11    1    4    4    0    0  0.68582932271E-01  0.10266674742E-01  0.64601493174E-02  0.69649248807E-01  0.51100000000E-03 0. -1.
         11    1    4    4    0    0  0.56966060613E-01  0.12945952624E-02  0.23035738376E-01  0.61463114160E-01  0.51100000000E-03 0.  1.
</event>
<event>
 8    1  0.1022673E+005  0.1043930E+01  0.7957747E-01            NaN
         13   -1    0    0    0    0  0.00000000000E+00  0.00000000000E+00  0.74505805969E-08  0.10566000000E+00  0.10566000000E+00 0.  1.
     999900   -1    0    0    0    0 -0.00000000000E+00 -0.00000000000E+00 -0.74505805969E-08  0.93827000000E+00  0.93827000000E+00 0.  1.
     999902    2    1    2    0    0 -0.14846800015E-01  0.18241738997E-01 -0.86460661889E-02  0.10188712097E+01  0.10185630068E+01 0.  0.
     999903    2    3    3    0    0  0.91494501048E-01  0.48276499005E-01  0.73289013660E-01  0.12818388157E+00  0.18919933764E-01 0.  0.
         14    1    1    2    0    0  0.14846800015E-01 -0.18241738997E-01  0.86460661889E-02  0.25058790331E-01  0.00000000000E+00 0. -1.
     999901    1    3    3    0    0 -0.10634130106E+00 -0.30034760007E-01 -0.81935079849E-01  0.89068732810E+00  0.88000000000E+00 0.  1.
        -11    1    4    4    0    0  0.70789164234E-01  0.30839006428E-01  0.61220775186E-01  0.98541334098E-01  0.51100000000E-03 0.  1.
         11    1    4    4    0    0  0.20705336814E-01  0.17437492576E-01  0.12068238474E-01  0.29642547475E-01  0.51100000000E-03 0. -1.
</event>
<event>
 8    1  0.1022673E+005  0.1043930E+01  0.7957747E-01            NaN
         13   -1    0    0    0    0  0.00000000000E+00  0.00000000000E+00  0.74505805969E-08  0.10566000000E+00  0.10566000000E+00 0.  1.
     999900   -1    0    0    0    0 -0.00000000000E+00 -0.00000000000E+00 -0.74505805969E-08  0.93827000000E+00  0.93827000000E+00 0.  1.
     999902    2    1    2    0    0 -0.12801856283E-01 -0.15444307027E-01  0.13710628796E-01  0.10196319448E+01  0.10193423897E+01 0.  0.
     999903    2    3    3    0    0  0.15568058895E-01  0.72028288476E-01  0.10551587681E+00  0.13009020290E+00  0.18958423757E-01 0.  0.
         14    1    1    2    0    0  0.12801856283E-01  0.15444307027E-01 -0.13710628796E-01  0.24298055186E-01  0.00000000000E+00 0. -1.
     999901    1    3    3    0    0 -0.28369915177E-01 -0.87472595503E-01 -0.91805248017E-01  0.88954174192E+00  0.88000000000E+00 0.  1.
        -11    1    4    4    0    0  0.30911857033E-02  0.38628617009E-01  0.41285106807E-01  0.56625494666E-01  0.51100000000E-03 0.  1.
         11    1    4    4    0    0  0.12476873191E-01  0.33399671466E-01  0.64230770007E-01  0.73464708230E-01  0.51100000000E-03 0. -1.
</event>
<event>
 8    1  0.1022673E+005  0.1043930E+01  0.7957747E-01            NaN
         13   -1    0    0    0    0  0.00000000000E+00  0.00000000000E+00  0.74505805969E-08  0.10566000000E+00  0.10566000000E+00 0. -1.
     999900   -1    0    0    0    0 -0.00000000000E+00 -0.00000000000E+00 -0.74505805969E-08  0.93827000000E+00  0.93827000000E+00 0.  1.
     999902    2    1    2    0    0 -0.19997640835E-01 -0.12724180409E-01  0.12516536530E-03  0.10202271294E+01  0.10199517487E+01 0.  0.
     999903    2    3    3    0    0 -0.11833978756E+00  0.44999491031E-01 -0.32664418700E-01  0.13226409143E+00  0.19939060119E-01 0.  0.
         14    1    1    2    0    0  0.19997640835E-01  0.12724180409E-01 -0.12516536530E-03  0.23702870552E-01  0.00000000000E+00 0. -1.
     999901    1    3    3    0    0  0.98342146728E-01 -0.57723671440E-01  0.32789584066E-01  0.88796303802E+00  0.88000000000E+00 0. -1.
        -11    1    4    4    0    0 -0.34297598139E-01  0.16043906243E-01 -0.18866506645E-01  0.42307663131E-01  0.51100000000E-03 0. -1.
         11    1    4    4    0    0 -0.84042189424E-01  0.28955584788E-01 -0.13797912055E-01  0.89956428296E-01  0.51100000000E-03 0.  1.
</event>
<event>
 8    1  0.1022673E+005  0.1043930E+01  0.7957747E-01            NaN
         13   -1    0    0    0    0  0.00000000000E+00  0.00000000000E+00  0.74505805969E-08  0.10566000000E+00  0.10566000000E+00 0. -1.
     999900   -1    0    0    0    0 -0.00000000000E+00 -0.00000000000E+00 -0.74505805969E-08  0.93827000000E+00  0.93827000000E+00 0.  1.
     999902    2    1    2    0    0  0.56443748718E-02 -0.17081463002E-01 -0.15740021114E-01  0.10200263683E+01  0.10197462470E+01 0.  0.
     999903    2    3    3    0    0  0.11733736001E+00 -0.30688524079E-01 -0.48184956717E-01  0.13226899775E+00  0.21528031637E-01 0.  0.
         14    1    1    2    0    0 -0.56443748718E-02  0.17081463002E-01  0.15740021114E-01  0.23903631746E-01  0.00000000000E+00 0.  1.
     999901    1    3    3    0    0 -0.11169298514E+00  0.13607061077E-01  0.32444935603E-01  0.88775737051E+00  0.88000000000E+00 0. -1.
        -11    1    4    4    0    0  0.89566328961E-01 -0.32640596189E-01 -0.37826269800E-01  0.10256034132E+00  0.51100000000E-03 0.  1.
         11    1    4    4    0    0  0.27771031053E-01  0.19520721093E-02 -0.10358686916E-01  0.29708656431E-01  0.51100000000E-03 0. -1.
</event>
<event>
 8    1  0.1022673E+005  0.1043930E+01  0.7957747E-01            NaN
         13   -1    0    0    0    0  0.00000000000E+00  0.00000000000E+00  0.74505805969E-08  0.10566000000E+00  0.10566000000E+00 0.  1.
     999900   -1    0    0    0    0 -0.00000000000E+00 -0.00000000000E+00 -0.74505805969E-08  0.93827000000E+00  0.93827000000E+00 0.  1.
     999902    2    1    2    0    0 -0.19330644697E-01 -0.94651727999E-02  0.10981384556E-01  0.10197669264E+01  0.10194806178E+01 0.  0.
     999903    2    3    3    0    0  0.41531640404E-01  0.32122906938E-01  0.11754454895E+00  0.13027859360E+00  0.19975801840E-01 0.  0.
         14    1    1    2    0    0  0.19330644697E-01  0.94651727999E-02 -0.10981384556E-01  0.24163073631E-01  0.00000000000E+00 0. -1.
     999901    1    3    3    0    0 -0.60862285101E-01 -0.41588079737E-01 -0.10656316439E+00  0.88948833277E+00  0.88000000000E+00 0.  1.
        -11    1    4    4    0    0  0.22583970889E-01  0.64091223143E-02  0.39546907968E-01  0.45992734653E-01  0.51100000000E-03 0. -1.
         11    1    4    4    0    0  0.18947669514E-01  0.25713784623E-01  0.77997640978E-01  0.84285858949E-01  0.51100000000E-03 0.  1.
</event>
<event>
 8    1  0.1022673E+005  0.1043930E+01  0.7957747E-01            NaN
         13   -1    0    0    0    0  0.00000000000E+00  0.00000000000E+00  0.74505805969E-08  0.10566000000E+00  0.10566000000E+00 0. -1.
     999900   -1    0    0    0    0 -0.00000000000E+00 -0.00000000000E+00 -0.74505805969E-08  0.93827000000E+00  0.93827000000E+00 0. -1.
     999902    2    1    2    0    0  0.19249347082E-02  0.15706682518E-01 -0.16941357747E-01  0.10207477902E+01  0.10204845106E+01 0.  0.
     999903    2    3    3    0    0  0.10230241941E+00  0.75038678530E-01  0.29766823728E-01  0.13182845785E+00  0.19902015284E-01 0.  0.
         14    1    1    2    0    0 -0.19249347082E-02 -0.15706682518E-01  0.16941357747E-01  0.23182209810E-01  0.00000000000E+00 0. -1.
     999901    1    3    3    0    0 -0.10037748470E+00 -0.59331996013E-01 -0.46708181475E-01  0.88891933234E+00  0.88000000000E+00 0.  1.
        -11    1    4    4    0    0  0.28867642736E-01  0.32427618588E-01  0.12563045155E-01  0.45199363591E-01  0.51100000000E-03 0. -1.
         11    1    4    4    0    0  0.73434776674E-01  0.42611059942E-01  0.17203778573E-01  0.86629094263E-01  0.51100000000E-03 0.  1.
</event>
<event>
 8    1  0.1022673E+005  0.1043930E+01  0.7957747E-01            NaN
         13   -1    0    0    0    0  0.00000000000E+00  0.00000000000E+00  0.74505805969E-08  0.10566000000E+00  0.10566000000E+00 0.  1.
     999900   -1    0    0    0    0 -0.00000000000E+00 -0.00000000000E+00 -0.74505805969E-08  0.93827000000E+00  0.93827000000E+00 0.  1.
     999902    2    1    2    0    0 -0.68194489155E-02  0.22414284187E-01  0.56579057488E-04  0.10205012096E+01  0.10202322336E+01 0.  0.
     999903    2    3    3    0    0 -0.64439523450E-01 -0.28261894617E-01  0.10809888404E+00  0.13057914123E+00  0.20355749109E-01 0.  0.
         14    1    1    2    0    0  0.68194489155E-02 -0.22414284187E-01 -0.56579057488E-04  0.23428790415E-01  0.00000000000E+00 0.  1.
     999901    1    3    3    0    0  0.57620074534E-01  0.50676178804E-01 -0.10804230499E+00  0.88992206836E+00  0.88000000000E+00 0. -1.
        -11    1    4    4    0    0 -0.59344477514E-01 -0.18433389445E-01  0.92910168123E-01  0.11177708763E+00  0.51100000000E-03 0. -1.
         11    1    4    4    0    0 -0.50950459364E-02 -0.98285051721E-02  0.15188715921E-01  0.18802053594E-01  0.51100000000E-03 0.  1.
</event>
<event>
 8    1  0.1022673E+005  0.1043930E+01  0.7957747E-01            NaN
         13   -1    0    0    0    0  0.00000000000E+00  0.00000000000E+00  0.74505805969E-08  0.10566000000E+00  0.10566000000E+00 0. -1.
     999900   -1    0    0    0    0 -0.00000000000E+00 -0.00000000000E+00 -0.74505805969E-08  0.93827000000E+00  0.93827000000E+00 0. -1.
     999902    2    1    2    0    0  0.19484375277E-01 -0.64429400495E-02  0.10856339057E-01  0.10207133582E+01  0.10204492870E+01 0.  0.
     999903    2    3    3    0    0  0.74081704898E-02 -0.23824215310E-02  0.12994194613E+00  0.13260091923E+00  0.25249504794E-01 0.  0.
         14    1    1    2    0    0 -0.19484375277E-01  0.64429400495E-02 -0.10856339057E-01  0.23216641750E-01  0.00000000000E+00 0.  1.
     999901    1    3    3    0    0  0.12076204787E-01 -0.40605185184E-02 -0.11908560708E+00  0.88811243902E+00  0.88000000000E+00 0. -1.
        -11    1    4    4    0    0  0.34803583457E-02 -0.81043735512E-02  0.12074492941E+00  0.12106772016E+00  0.51100000000E-03 0.  1.
         11    1    4    4    0    0  0.39278121442E-02  0.57219520202E-02  0.91970167252E-02  0.11533199071E-01  0.51100000000E-03 0. -1.
</event>
<event>
 8    1  0.1022673E+005  0.1043930E+01  0.7957747E-01            NaN
         13   -1    0    0    0    0  0.00000000000E+00  0.00000000000E+00  0.74505805969E-08  0.10566000000E+00  0.10566000000E+00 0.  1.
     999900   -1    0    0    0    0 -0.00000000000E+00 -0.00000000000E+00 -0.74505805969E-08  0.93827000000E+00  0.93827000000E+00 0. -1.
     999902    2    1    2    0    0 -0.67495736308E-02  0.20830977227E-01 -0.11308297217E-02  0.10220036430E+01  0.10217684088E+01 0.  0.
     999903    2    3    3    0    0 -0.69608953667E-01 -0.53102043963E-01  0.95389797086E-01  0.13142314427E+00  0.22529890319E-01 0.  0.
         14    1    1    2    0    0  0.67495736308E-02 -0.20830977227E-01  0.11308297217E-02  0.21926357022E-01  0.00000000000E+00 0.  1.
     999901    1    3    3    0    0  0.62859380036E-01  0.73933021190E-01 -0.96520626807E-01  0.89058049871E+00  0.88000000000E+00 0. -1.
        -11    1    4    4    0    0 -0.68061099209E-01 -0.50358001667E-01  0.82760546705E-01  0.11839683598E+00  0.51100000000E-03 0. -1.
         11    1    4    4    0    0 -0.15478544586E-02 -0.27440422964E-02  0.12629250381E-01  0.13026308293E-01  0.51100000000E-03 0.  1.
</event>
<event>
 8    1  0.1022673E+005  0.1043930E+01  0.7957747E-01            NaN
         13   -1    0    0    0    0  0.00000000000E+00  0.00000000000E+00  0.74505805969E-08  0.10566000000E+00  0.10566000000E+00 0.  1.
     999900   -1    0    0    0    0 -0.00000000000E+00 -0.00000000000E+00 -0.74505805969E-08  0.93827000000E+00  0.93827000000E+00 0. -1.
     999902    2    1    2    0    0  0.23822475984E-01  0.23030386744E-02 -0.20352356793E-02  0.10199100805E+01  0.10196271945E+01 0.  0.
     999903    2    3    3    0    0  0.40197785171E-01 -0.51885662714E-01  0.11074472004E+00  0.13090845815E+00  0.23762311958E-01 0.  0.
         14    1    1    2    0    0 -0.23822475984E-01 -0.23030386744E-02  0.20352356793E-02  0.24019919513E-01  0.00000000000E+00 0. -1.
     999901    1    3    3    0    0 -0.16375309187E-01  0.54188701388E-01 -0.11277995572E+00  0.88900162234E+00  0.88000000000E+00 0. -1.
        -11    1    4    4    0    0  0.70021520909E-02 -0.21273201358E-01  0.22338821954E-01  0.31636423900E-01  0.51100000000E-03 0.  1.
         11    1    4    4    0    0  0.33195633080E-01 -0.30612461355E-01  0.88405898088E-01  0.99272034247E-01  0.51100000000E-03 0. -1.
</event>
<event>
 8    1  0.1022673E+005  0.1043930E+01  0.7957747E-01            NaN
         13   -1    0    0    0    0  0.00000000000E+00  0.00000000000E+00  0.74505805969E-08  0.10566000000E+00  0.10566000000E+00 0.  1.
     999900   -1    0    0    0    0 -0.00000000000E+00 -0.00000000000E+00 -0.74505805969E-08  0.93827000000E+00  0.93827000000E+00 0. -1.
     999902    2    1    2    0    0 -0.20184572790E-01  0.19724000527E-02 -0.11588592685E-01  0.10205718575E+01  0.10203045200E+01 0.  0.
     999903    2    3    3    0    0 -0.28543073731E-01 -0.67116173137E-01 -0.10840740268E+00  0.13253076754E+00  0.22202514159E-01 0.  0.
         14    1    1    2    0    0  0.20184572790E-01 -0.19724000527E-02  0.11588592685E-01  0.23358142501E-01  0.00000000000E+00 0.  1.
     999901    1    3    3    0    0  0.83585009408E-02  0.69088573190E-01  0.96818809995E-01  0.88804108996E+00  0.88000000000E+00 0. -1.
        -11    1    4    4    0    0 -0.16820153560E-02 -0.31818496880E-01 -0.44153412022E-01  0.54452096686E-01  0.51100000000E-03 0. -1.
         11    1    4    4    0    0 -0.26861058375E-01 -0.35297676257E-01 -0.64253990658E-01  0.78078670856E-01  0.51100000000E-03 0.  1.
</event>
<event>
 8    1  0.1022673E+005  0.1043930E+01  0.7957747E-01            NaN
         13   -1    0    0    0    0  0.00000000000E+00  0.00000000000E+00  0.74505805969E-08  0.10566000000E+00  0.10566000000E+00 0.  1.
     999900   -1    0    0    0    0 -0.00000000000E+00 -0.00000000000E+00 -0.74505805969E-08  0.93827000000E+00  0.93827000000E+00 0. -1.
     999902    2    1    2    0    0  0.12863494650E-01 -0.16752308127E-01 -0.11257021498E-01  0.10199961358E+01  0.10197152971E+01 0.  0.
     999903    2    3    3    0    0 -0.54088847802E-02  0.10795468308E+00  0.65132463017E-01  0.12773996920E+00  0.19793745438E-01 0.  0.
         14    1    1    2    0    0 -0.12863494650E-01  0.16752308127E-01  0.11257021498E-01  0.23933864193E-01  0.00000000000E+00 0.  1.
     999901    1    3    3    0    0  0.18272379430E-01 -0.12470699121E+00 -0.76389484515E-01  0.89225616661E+00  0.88000000000E+00 0. -1.
        -11    1    4    4    0    0  0.70650105746E-02  0.34826303679E-01  0.17886857975E-01  0.39786764276E-01  0.51100000000E-03 0.  1.
         11    1    4    4    0    0 -0.12473895355E-01  0.73128379403E-01  0.47245605042E-01  0.87953204923E-01  0.51100000000E-03 0. -1.
</event>
<event>
 8    1  0.1022673E+005  0.1043930E+01  0.7957747E-01            NaN
         13   -1    0    0    0    0  0.00000000000E+00  0.00000000000E+00  0.74505805969E-08  0.10566000000E+00  0.10566000000E+00 0. -1.
     999900   -1    0    0    0    0 -0.00000000000E+00 -0.00000000000E+00 -0.74505805969E-08  0.93827000000E+00  0.93827000000E+00 0.  1.
     999902    2    1    2    0    0  0.14312959880E-02  0.22104361649E-01  0.86193210803E-02  0.10201614471E+01  0.10198845199E+01 0.  0.
     999903    2    3    3    0    0  0.93331906479E-01 -0.84063758484E-01 -0.19196980540E-01  0.12859477062E+00  0.19761849880E-01 0.  0.
         14    1    1    2    0    0 -0.14312959880E-02 -0.22104361649E-01 -0.86193210803E-02  0.23768552922E-01  0.00000000000E+00 0.  1.
     999901    1    3    3    0    0 -0.91900610490E-01  0.10616812013E+00  0.27816301620E-01  0.89156667646E+00  0.88000000000E+00 0. -1.
        -11    1    4    4    0    0  0.66830915167E-01 -0.47499533362E-01 -0.12370010714E-01  0.82920776514E-01  0.51100000000E-03 0. -1.
         11    1    4    4    0    0  0.26500991312E-01 -0.36564225121E-01 -0.68269698257E-02  0.45673994102E-01  0.51100000000E-03 0.  1.
</event>
<event>
 8    1  0.1022673E+005  0.1043930E+01  0.7957747E-01            NaN
         13   -1    0    0    0    0  0.00000000000E+00  0.00000000000E+00  0.74505805969E-08  0.10566000000E+00  0.10566000000E+00 0.  1.
     999900   -1    0    0    0    0 -0.00000000000E+00 -0.00000000000E+00 -0.74505805969E-08  0.93827000000E+00  0.93827000000E+00 0. -1.
     999902    2    1    2    0    0 -0.67077065298E-02  0.70645717836E-03  0.22903419700E-01  0.10200540907E+01  0.10197746266E+01 0.  0.
     999903    2    3    3    0    0 -0.42722669695E-01 -0.23822226704E-01  0.12245427324E+00  0.13336975777E+00  0.19992955353E-01 0.  0.
         14    1    1    2    0    0  0.67077065298E-02 -0.70645717836E-03 -0.22903419700E-01  0.23875909252E-01  0.00000000000E+00 0. -1.
     999901    1    3    3    0    0  0.36014963165E-01  0.24528683882E-01 -0.99550853535E-01  0.88668433298E+00  0.88000000000E+00 0. -1.
        -11    1    4    4    0    0 -0.11599072599E-01 -0.12915121488E-01  0.63325235002E-01  0.65663424806E-01  0.51100000000E-03 0. -1.
         11    1    4    4    0    0 -0.31123597096E-01 -0.10907105216E-01  0.59129038233E-01  0.67706332966E-01  0.51100000000E-03 0.  1.
</event>
<event>
 8    1  0.1022673E+005  0.1043930E+01  0.7957747E-01            NaN
         13   -1    0    0    0    0  0.00000000000E+00  0.00000000000E+00  0.74505805969E-08  0.10566000000E+00  0.10566000000E+00 0. -1.
     999900   -1    0    0    0    0 -0.00000000000E+00 -0.00000000000E+00 -0.74505805969E-08  0.93827000000E+00  0.93827000000E+00 0. -1.
     999902    2    1    2    0    0 -0.11433909462E-01  0.13085328256E-01 -0.15137450723E-01  0.10208843385E+01  0.10206241865E+01 0.  0.
     999903    2    3    3    0    0  0.28825752409E-01  0.12122319679E+00 -0.40838540101E-01  0.13297939706E+00  0.22130211058E-01 0.  0.
         14    1    1    2    0    0  0.11433909462E-01 -0.13085328256E-01  0.15137450723E-01  0.23045661535E-01  0.00000000000E+00 0. -1.
     999901    1    3    3    0    0 -0.40259661872E-01 -0.10813786853E+00  0.25701089378E-01  0.88790494141E+00  0.88000000000E+00 0. -1.
        -11    1    4    4    0    0  0.22964032157E-02  0.28886088044E-01 -0.18369482892E-01  0.34312950513E-01  0.51100000000E-03 0. -1.
         11    1    4    4    0    0  0.26529349194E-01  0.92337108747E-01 -0.22469057209E-01  0.98666446542E-01  0.51100000000E-03 0.  1.
</event>
<event>
 8    1  0.1022673E+005  0.1043930E+01  0.7957747E-01            NaN
         13   -1    0    0    0    0  0.00000000000E+00  0.00000000000E+00  0.74505805969E-08  0.10566000000E+00  0.10566000000E+00 0. -1.
     999900   -1    0    0    0    0 -0.00000000000E+00 -0.00000000000E+00 -0.74505805969E-08  0.93827000000E+00  0.93827000000E+00 0. -1.
     999902    2    1    2    0    0 -0.22070017317E-02  0.18199869465E-01 -0.62481769874E-02  0.10245613186E+01  0.10243782259E+01 0.  0.
     999903    2    3    3    0    0  0.28430246539E-01 -0.26397939952E-01  0.12602139037E+00  0.13303294322E+00  0.17642080351E-01 0.  0.
         14    1    1    2    0    0  0.22070017317E-02 -0.18199869465E-01  0.62481769874E-02  0.19368681443E-01  0.00000000000E+00 0. -1.
     999901    1    3    3    0    0 -0.30637248270E-01  0.44597809417E-01 -0.13226956735E+00  0.89152837534E+00  0.88000000000E+00 0. -1.
        -11    1    4    4    0    0  0.14900881255E-01 -0.35640092994E-02  0.34785181336E-01  0.38013265922E-01  0.51100000000E-03 0.  1.
         11    1    4    4    0    0  0.13529365284E-01 -0.22833930653E-01  0.91236209031E-01  0.95019677296E-01  0.51100000000E-03 0. -1.
</event>
<event>
 8    1  0.1022673E+005  0.1043930E+01  0.7957747E-01            NaN
         13   -1    0    0    0    0  0.00000000000E+00  0.00000000000E+00  0.74505805969E-08  0.10566000000E+00  0.10566000000E+00 0. -1.
     999900   -1    0    0    0    0 -0.00000000000E+00 -0.00000000000E+00 -0.74505805969E-08  0.93827000000E+00  0.93827000000E+00 0. -1.
     999902    2    1    2    0    0  0.13662351690E-02 -0.22579536337E-01  0.12149254201E-01  0.10182530368E+01  0.10179292414E+01 0.  0.
     999903    2    3    3    0    0  0.61790379998E-01 -0.53476755363E-01 -0.97531987747E-01  0.12885116464E+00  0.20305653691E-01 0.  0.
         14    1    1    2    0    0 -0.13662351690E-02  0.22579536337E-01 -0.12149254201E-01  0.25676963165E-01  0.00000000000E+00 0. -1.
     999901    1    3    3    0    0 -0.60424144829E-01  0.30897219026E-01  0.10968124195E+00  0.88940187219E+00  0.88000000000E+00 0.  1.
        -11    1    4    4    0    0  0.84583493117E-02 -0.16182547451E-01 -0.14313806960E-01  0.23206996914E-01  0.51100000000E-03 0.  1.
         11    1    4    4    0    0  0.53332030686E-01 -0.37294207913E-01 -0.83218180786E-01  0.10564416773E+00  0.51100000000E-03 0. -1.
</event>
<event>
 8    1  0.1022673E+005  0.1043930E+01  0.7957747E-01            NaN
         13   -1    0    0    0    0  0.00000000000E+00  0.00000000000E+00  0.74505805969E-08  0.10566000000E+00  0.10566000000E+00 0.  1.
     999900   -1    0    0    0    0 -0.00000000000E+00 -0.00000000000E+00 -0.74505805969E-08  0.93827000000E+00  0.93827000000E+00 0.  1.
     999902    2    1    2    0    0 -0.19917969904E-01  0.56449264787E-02 -0.16241150195E-01  0.10176171575E+01  0.10172769110E+01 0.  0.
     999903    2    3    3    0    0 -0.43874113770E-01  0.10258289483E+00  0.61694917292E-01  0.12854747681E+00  0.16431761991E-01 0.  0.
         14    1    1    2    0    0  0.19917969904E-01 -0.56449264787E-02  0.16241150195E-01  0.26312842486E-01  0.00000000000E+00 0.  1.
     999901    1    3    3    0    0  0.23956143866E-01 -0.96937968355E-01 -0.77936067487E-01  0.88906968071E+00  0.88000000000E+00 0.  1.
        -11    1    4    4    0    0 -0.17341370972E-02  0.13094799405E-01  0.30916217907E-02  0.13575722788E-01  0.51100000000E-03 0.  1.
         11    1    4    4    0    0 -0.42139976673E-01  0.89488095429E-01  0.58603295501E-01  0.11497175402E+00  0.51100000000E-03 0. -1.
</event>
<event>
 8    1  0.1022673E+005  0.1043930E+01  0.7957747E-01            NaN
         13   -1    0    0    0    0  0.00000000000E+00  0.00000000000E+00  0.74505805969E-08  0.10566000000E+00  0.10566000000E+00 0. -1.
     999900   -1    0    0    0    0 -0.00000000000E+00 -0.00000000000E+00 -0.74505805969E-08  0.93827000000E+00  0.93827000000E+00 0.  1.
     999902    2    1    2    0    0 -0.19415581321E-01 -0.12073940099E-01 -0.70040918274E-02  0.10200176156E+01  0.10197372867E+01 0.  0.
     999903    2    3    3    0    0 -0.14035321214E-01 -0.43346782602E-01  0.12043409603E+00  0.13027190492E+00  0.19760159953E-01 0.  0.
         14    1    1    2    0    0  0.19415581321E-01  0.12073940099E-01  0.70040918274E-02  0.23912384446E-01  0.00000000000E+00 0.  1.
     999901    1    3    3    0    0 -0.53802601070E-02  0.31272842503E-01 -0.12743818785E+00  0.88974571064E+00  0.88000000000E+00 0.  1.
        -11    1    4    4    0    0 -0.90340181386E-02 -0.60164749828E-02  0.40087418611E-01  0.41534006631E-01  0.51100000000E-03 0.  1.
         11    1    4    4    0    0 -0.50013030754E-02 -0.37330307620E-01  0.80346677414E-01  0.88737898285E-01  0.51100000000E-03 0. -1.
</event>
<event>
 8    1  0.1022673E+005  0.1043930E+01  0.7957747E-01            NaN
         13   -1    0    0    0    0  0.00000000000E+00  0.00000000000E+00  0.74505805969E-08  0.10566000000E+00  0.10566000000E+00 0.  1.
     999900   -1    0    0    0    0 -0.00000000000E+00 -0.00000000000E+00 -0.74505805969E-08  0.93827000000E+00  0.93827000000E+00 0.  1.
     999902    2    1    2    0    0  0.80537985263E-02  0.18721869986E-01 -0.13008083015E-01  0.10197518630E+01  0.10194651930E+01 0.  0.
     999903    2    3    3    0    0 -0.10573833186E+00 -0.13768831643E-01 -0.71367386626E-01  0.12991474139E+00  0.20355849417E-01 0.  0.
         14    1    1    2    0    0 -0.80537985263E-02 -0.18721869986E-01  0.13008083015E-01  0.24178137029E-01  0.00000000000E+00 0. -1.
     999901    1    3    3    0    0  0.11379213039E+00  0.32490701629E-01  0.58359303611E-01  0.88983712158E+00  0.88000000000E+00 0. -1.
        -11    1    4    4    0    0 -0.32115896250E-01  0.40413344477E-02 -0.16154001031E-01  0.36179773996E-01  0.51100000000E-03 0. -1.
         11    1    4    4    0    0 -0.73622435614E-01 -0.17810166090E-01 -0.55213385595E-01  0.93734967391E-01  0.51100000000E-03 0.  1.
</event>
<event>
 8    1  0.1022673E+005  0.1043930E+01  0.7957747E-01            NaN
         13   -1    0    0    0    0  0.00000000000E+00  0.00000000000E+00  0.74505805969E-08  0.10566000000E+00  0.10566000000E+00 0.  1.
     999900   -1    0    0    0    0 -0.00000000000E+00 -0.00000000000E+00 -0.74505805969E-08  0.93827000000E+00  0.93827000000E+00 0. -1.
     999902    2    1    2    0    0 -0.17679316129E-01 -0.14697262904E-01 -0.50206767047E-02  0.10203975766E+01  0.10201261880E+01 0.  0.
     999903    2    3    3    0    0  0.86960830444E-01 -0.77781051612E-01  0.53915185316E-01  0.13000296719E+00  0.19540886574E-01 0.  0.
         14    1    1    2    0    0  0.17679316129E-01  0.14697262904E-01  0.50206767047E-02  0.23532423382E-01  0.00000000000E+00 0.  1.
     999901    1    3    3    0    0 -0.10464014657E+00  0.63083788708E-01 -0.58935862021E-01  0.89039460943E+00  0.88000000000E+00 0. -1.
        -11    1    4    4    0    0  0.28784926249E-01 -0.15402528698E-01  0.10540075977E-01  0.34309826465E-01  0.51100000000E-03 0.  1.
         11    1    4    4    0    0  0.58175904195E-01 -0.62378522914E-01  0.43375109340E-01  0.95693140721E-01  0.51100000000E-03 0. -1.
</event>
<event>
 8    1  0.1022673E+005  0.1043930E+01  0.7957747E-01            NaN
         13   -1    0    0    0    0  0.00000000000E+00  0.00000000000E+00  0.74505805969E-08  0.10566000000E+00  0.10566000000E+00 0. -1.
     999900   -1    0    0    0    0 -0.00000000000E+00 -0.00000000000E+00 -0.74505805969E-08  0.93827000000E+00  0.93827000000E+00 0.  1.
     999902    2    1    2    0    0  0.11460759978E-01  0.16259097711E-01  0.12314093389E-01  0.10205346121E+01  0.10202664115E+01 0.  0.
     999903    2    3    3    0    0 -0.41531708116E-01 -0.44702559128E-01  0.11417078366E+00  0.13098455135E+00  0.19969558830E-01 0.  0.
         14    1    1    2    0    0 -0.11460759978E-01 -0.16259097711E-01 -0.12314093389E-01  0.23395387871E-01  0.00000000000E+00 0.  1.
     999901    1    3    3    0    0  0.52992468094E-01  0.60961656839E-01 -0.10185669027E+00  0.88955006078E+00  0.88000000000E+00 0.  1.
        -11    1    4    4    0    0 -0.16431049510E-01 -0.32137997794E-01  0.62232964240E-01  0.71944654071E-01  0.51100000000E-03 0. -1.
         11    1    4    4    0    0 -0.25100658606E-01 -0.12564561334E-01  0.51937819417E-01  0.59039897280E-01  0.51100000000E-03 0.  1.
</event>
<event>
 8    1  0.1022673E+005  0.1043930E+01  0.7957747E-01            NaN
         13   -1    0    0    0    0  0.00000000000E+00  0.00000000000E+00  0.74505805969E-08  0.10566000000E+00  0.10566000000E+00 0.  1.
     999900   -1    0    0    0    0 -0.00000000000E+00 -0.00000000000E+00 -0.74505805969E-08  0.93827000000E+00  0.93827000000E+00 0. -1.
     999902    2    1    2    0    0 -0.15087891843E-01  0.13948319856E-01  0.12347074157E-01  0.10199581343E+01  0.10196763924E+01 0.  0.
     999903    2    3    3    0    0 -0.10893130762E+00 -0.33076765012E-01  0.63789467803E-01  0.13222829632E+00  0.21333635014E-01 0.  0.
         14    1    1    2    0    0  0.15087891843E-01 -0.13948319856E-01 -0.12347074157E-01  0.23971865745E-01  0.00000000000E+00 0. -1.
     999901    1    3    3    0    0  0.93843415776E-01  0.47025084867E-01 -0.51442393646E-01  0.88772983793E+00  0.88000000000E+00 0. -1.
        -11    1    4    4    0    0 -0.27757798101E-01 -0.30260540510E-02  0.24578121755E-01  0.37202117528E-01  0.51100000000E-03 0.  1.
         11    1    4    4    0    0 -0.81173509517E-01 -0.30050710961E-01  0.39211346047E-01  0.95026178795E-01  0.51100000000E-03 0. -1.
</event>
<event>
 8    1  0.1022673E+005  0.1043930E+01  0.7957747E-01            NaN
         13   -1    0    0    0    0  0.00000000000E+00  0.00000000000E+00  0.74505805969E-08  0.10566000000E+00  0.10566000000E+00 0. -1.
     999900   -1    0    0    0    0 -0.00000000000E+00 -0.00000000000E+00 -0.74505805969E-08  0.93827000000E+00  0.93827000000E+00 0. -1.
     999902    2    1    2    0    0  0.18928358851E-01  0.13016609911E-02  0.17058657211E-01  0.10184157907E+01  0.10180961388E+01 0.  0.
     999903    2    3    3    0    0  0.80998887109E-01  0.36599067017E-01 -0.91572402940E-01  0.12886569960E+00  0.17903969793E-01 0.  0.
         14    1    1    2    0    0 -0.18928358851E-01 -0.13016609911E-02 -0.17058657211E-01  0.25514209295E-01  0.00000000000E+00 0.  1.
     999901    1    3    3    0    0 -0.62070528258E-01 -0.35297406026E-01  0.10863106015E+00  0.88955009110E+00  0.88000000000E+00 0.  1.
        -11    1    4    4    0    0  0.55767129507E-01  0.26553372802E-01 -0.51321776562E-01  0.80307161642E-01  0.51100000000E-03 0.  1.
         11    1    4    4    0    0  0.25231757602E-01  0.10045694215E-01 -0.40250626378E-01  0.48558537960E-01  0.51100000000E-03 0. -1.
</event>
<event>
 7    1  0.1022673E+005  0.1043930E+01  0.7957747E-01            NaN
         13   -1    0    0    0    0  0.00000000000E+00  0.00000000000E+00  0.74505805969E-08  0.10566000000E+00  0.10566000000E+00 0. -1.
     999900   -1    0    0    0    0 -0.00000000000E+00 -0.00000000000E+00 -0.74505805969E-08  0.93827000000E+00  0.93827000000E+00 0. -1.
     999902    2    1    2    0    0  0.13762776782E-01  0.27390244489E-01  0.13103905194E-01  0.10105930558E+01  0.10100430548E+01 0.  0.
         14    1    1    2    0    0 -0.13762776782E-01 -0.27390244489E-01 -0.13103905194E-01  0.33336944211E-01  0.00000000000E+00 0.  1.
     999901    1    3    3    0    0 -0.20976650366E-02  0.11044273335E+00  0.96061789562E-01  0.89209296879E+00  0.88000000000E+00 0.  1.
        -11    1    3    3    0    0  0.10443721953E-01 -0.58565456182E-01 -0.60053407057E-01  0.84531986882E-01  0.51100000000E-03 0. -1.
         11    1    3    3    0    0  0.54167198663E-02 -0.24487032684E-01 -0.22904477311E-01  0.33968100118E-01  0.51100000000E-03 0.  1.
</event>
<event>
 8    1  0.1022673E+005  0.1043930E+01  0.7957747E-01            NaN
         13   -1    0    0    0    0  0.00000000000E+00  0.00000000000E+00  0.74505805969E-08  0.10566000000E+00  0.10566000000E+00 0.  1.
     999900   -1    0    0    0    0 -0.00000000000E+00 -0.00000000000E+00 -0.74505805969E-08  0.93827000000E+00  0.93827000000E+00 0.  1.
     999902    2    1    2    0    0 -0.11769713760E-01 -0.10281091713E-01 -0.16545508808E-01  0.10211708069E+01  0.10209171543E+01 0.  0.
     999903    2    3    3    0    0 -0.20966771013E-01 -0.45955677262E-01 -0.12252033023E+00  0.13404740810E+00  0.20148115069E-01 0.  0.
         14    1    1    2    0    0  0.11769713760E-01  0.10281091713E-01  0.16545508808E-01  0.22759193100E-01  0.00000000000E+00 0.  1.
     999901    1    3    3    0    0  0.91970572521E-02  0.35674585548E-01  0.10597482142E+00  0.88712339880E+00  0.88000000000E+00 0. -1.
        -11    1    4    4    0    0 -0.20628616888E-01 -0.26285391465E-01 -0.90385831492E-01  0.96365560729E-01  0.51100000000E-03 0. -1.
         11    1    4    4    0    0 -0.33815412426E-03 -0.19670285796E-01 -0.32134498737E-01  0.37681847375E-01  0.51100000000E-03 0.  1.
</event>
<event>
 8    1  0.1022673E+005  0.1043930E+01  0.7957747E-01            NaN
         13   -1    0    0    0    0  0.00000000000E+00  0.00000000000E+00  0.74505805969E-08  0.10566000000E+00  0.10566000000E+00 0. -1.
     999900   -1    0    0    0    0 -0.00000000000E+00 -0.00000000000E+00 -0.74505805969E-08  0.93827000000E+00  0.93827000000E+00 0.  1.
     999902    2    1    2    0    0 -0.23487678307E-01  0.44368846279E-02 -0.83440531903E-02  0.10186124132E+01  0.10182977306E+01 0.  0.
     999903    2    3    3    0    0 -0.67967316351E-01  0.31764439281E-01 -0.10629422309E+00  0.13164033403E+00  0.20054425628E-01 0.  0.
         14    1    1    2    0    0  0.23487678307E-01 -0.44368846279E-02  0.83440531903E-02  0.25317586795E-01  0.00000000000E+00 0. -1.
     999901    1    3    3    0    0  0.44479638044E-01 -0.27327554653E-01  0.97950169902E-01  0.88697207917E+00  0.88000000000E+00 0. -1.
        -11    1    4    4    0    0 -0.63909626572E-01  0.25395860047E-01 -0.10175181253E+00  0.12281320185E+00  0.51100000000E-03 0.  1.
         11    1    4    4    0    0 -0.40576897791E-02  0.63685792340E-02 -0.45424105661E-02  0.88271321817E-02  0.51100000000E-03 0. -1.
</event>
<event>
 8    1  0.1022673E+005  0.1043930E+01  0.7957747E-01            NaN
         13   -1    0    0    0    0  0.00000000000E+00  0.00000000000E+00  0.74505805969E-08  0.10566000000E+00  0.10566000000E+00 0.  1.
     999900   -1    0    0    0    0 -0.00000000000E+00 -0.00000000000E+00 -0.74505805969E-08  0.93827000000E+00  0.93827000000E+00 0.  1.
     999902    2    1    2    0    0 -0.47384522758E-02 -0.18222038588E-01 -0.13147339639E-01  0.10209659376E+01  0.10207076455E+01 0.  0.
     999903    2    3    3    0    0 -0.78207246879E-01 -0.10218840909E+00 -0.30014296452E-01  0.13376105184E+00  0.20792224063E-01 0.  0.
         14    1    1    2    0    0  0.47384522758E-02  0.18222038588E-01  0.13147339639E-01  0.22964062355E-01  0.00000000000E+00 0.  1.
     999901    1    3    3    0    0  0.73468794603E-01  0.83966370506E-01  0.16866956813E-01  0.88720488580E+00  0.88000000000E+00 0. -1.
        -11    1    4    4    0    0 -0.34197040520E-01 -0.51055698002E-01 -0.24196343200E-01  0.66044273212E-01  0.51100000000E-03 0.  1.
         11    1    4    4    0    0 -0.44010206359E-01 -0.51132711091E-01 -0.58179532518E-02  0.67716778632E-01  0.51100000000E-03 0. -1.
</event>
<event>
 8    1  0.1022673E+005  0.1043930E+01  0.7957747E-01            NaN
         13   -1    0    0    0    0  0.00000000000E+00  0.00000000000E+00  0.74505805969E-08  0.10566000000E+00  0.10566000000E+00 0. -1.
     999900   -1    0    0    0    0 -0.00000000000E+00 -0.00000000000E+00 -0.74505805969E-08  0.93827000000E+00  0.93827000000E+00 0.  1.
     999902    2    1    2    0    0  0.22610844536E-01  0.28233308583E-02 -0.61235050493E-02  0.10203351107E+01  0.10200622625E+01 0.  0.
     999903    2    3    3    0    0 -0.10325761494E+00 -0.13483460513E-01 -0.73095840146E-01  0.12871070870E+00  0.19480912148E-01 0.  0.
         14    1    1    2    0    0 -0.22610844536E-01 -0.28233308583E-02  0.61235050493E-02  0.23594889316E-01  0.00000000000E+00 0. -1.
     999901    1    3    3    0    0  0.12586845948E+00  0.16306791371E-01  0.66972335097E-01  0.89162440198E+00  0.88000000000E+00 0. -1.
        -11    1    4    4    0    0 -0.24551455775E-01 -0.64167216646E-02 -0.88971080854E-02  0.26895500569E-01  0.51100000000E-03 0.  1.
         11    1    4    4    0    0 -0.78706159165E-01 -0.70667388482E-02 -0.64198732061E-01  0.10181520814E+00  0.51100000000E-03 0. -1.
</event>
<event>
 8    1  0.1022673E+005  0.1043930E+01  0.7957747E-01            NaN
         13   -1    0    0    0    0  0.00000000000E+00  0.00000000000E+00  0.74505805969E-08  0.10566000000E+00  0.10566000000E+00 0. -1.
     999900   -1    0    0    0    0 -0.00000000000E+00 -0.00000000000E+00 -0.74505805969E-08  0.93827000000E+00  0.93827000000E+00 0.  1.
     999902    2    1    2    0    0  0.11728776071E-02  0.42171490708E-02 -0.23247385460E-01  0.10202741145E+01  0.10199998372E+01 0.  0.
     999903    2    3    3    0    0 -0.88861875949E-01  0.71997474525E-01  0.57675517737E-01  0.12940434532E+00  0.18410592256E-01 0.  0.
         14    1    1    2    0    0 -0.11728776071E-02 -0.42171490708E-02  0.23247385460E-01  0.23655885503E-01  0.00000000000E+00 0. -1.
     999901    1    3    3    0    0  0.90034753556E-01 -0.67780325454E-01 -0.80922903197E-01  0.89086976917E+00  0.88000000000E+00 0. -1.
        -11    1    4    4    0    0 -0.34469125235E-01  0.27258305133E-01  0.12350711754E-01  0.45650158762E-01  0.51100000000E-03 0.  1.
         11    1    4    4    0    0 -0.54392750714E-01  0.44739169392E-01  0.45324805983E-01  0.83754186561E-01  0.51100000000E-03 0. -1.
</event>
<event>
 8    1  0.1022673E+005  0.1043930E+01  0.7957747E-01            NaN
         13   -1    0    0    0    0  0.00000000000E+00  0.00000000000E+00  0.74505805969E-08  0.10566000000E+00  0.10566000000E+00 0. -1.
     999900   -1    0    0    0    0 -0.00000000000E+00 -0.00000000000E+00 -0.74505805969E-08  0.93827000000E+00  0.93827000000E+00 0.  1.
     999902    2    1    2    0    0 -0.66282399027E-02  0.15849713915E-01  0.14283287924E-01  0.10215881265E+01  0.10213437918E+01 0.  0.
     999903    2    3    3    0    0 -0.90737543622E-01  0.41576573511E-01  0.87262483455E-01  0.13419745201E+00  0.20791869082E-01 0.  0.
         14    1    1    2    0    0  0.66282399027E-02 -0.15849713915E-01 -0.14283287924E-01  0.22341873451E-01  0.00000000000E+00 0.  1.
     999901    1    3    3    0    0  0.84109303720E-01 -0.25726859597E-01 -0.72979195531E-01  0.88739067454E+00  0.88000000000E+00 0.  1.
        -11    1    4    4    0    0 -0.33843739481E-01  0.16607863192E-01  0.20190176540E-01  0.42768261264E-01  0.51100000000E-03 0.  1.
         11    1    4    4    0    0 -0.56893804141E-01  0.24968710319E-01  0.67072306915E-01  0.91429190746E-01  0.51100000000E-03 0. -1.
</event>
<event>
 8    1  0.1022673E+005  0.1043930E+01  0.7957747E-01            NaN
         13   -1    0    0    0    0  0.00000000000E+00  0.00000000000E+00  0.74505805969E-08  0.10566000000E+00  0.10566000000E+00 0. -1.
     999900   -1    0    0    0    0 -0.00000000000E+00 -0.00000000000E+00 -0.74505805969E-08  0.93827000000E+00  0.93827000000E+00 0.  1.
     999902    2    1    2    0    0  0.18433129459E-01 -0.14151524129E-01  0.42235158284E-02  0.10203104322E+01  0.10200370062E+01 0.  0.
     999903    2    3    3    0    0  0.83131585142E-01  0.97485852730E-01 -0.15567346127E-01  0.13068103055E+00  0.20514325451E-01 0.  0.
         14    1    1    2    0    0 -0.18433129459E-01  0.14151524129E-01 -0.42235158284E-02  0.23619567794E-01  0.00000000000E+00 0. -1.
     999901    1    3    3    0    0 -0.64698455683E-01 -0.11163737686E+00  0.19790861955E-01  0.88962940166E+00  0.88000000000E+00 0.  1.
        -11    1    4    4    0    0  0.32330372033E-01  0.46900629272E-01 -0.15308397712E-01  0.58987542273E-01  0.51100000000E-03 0. -1.
         11    1    4    4    0    0  0.50801213109E-01  0.50585223457E-01 -0.25894841516E-03  0.71693488273E-01  0.51100000000E-03 0.  1.
</event>
<event>
 8    1  0.1022673E+005  0.1043930E+01  0.7957747E-01            NaN
         13   -1    0    0    0    0  0.00000000000E+00  0.00000000000E+00  0.74505805969E-08  0.10566000000E+00  0.10566000000E+00 0. -1.
     999900   -1    0    0    0    0 -0.00000000000E+00 -0.00000000000E+00 -0.74505805969E-08  0.93827000000E+00  0.93827000000E+00 0. -1.
     999902    2    1    2    0    0  0.14984073857E-01  0.13740652834E-01 -0.78905338317E-02  0.10221220076E+01  0.10218893335E+01 0.  0.
     999903    2    3    3    0    0 -0.37277517563E-01 -0.95441307715E-01  0.77289987147E-01  0.12976126460E+00  0.19120333216E-01 0.  0.
         14    1    1    2    0    0 -0.14984073857E-01 -0.13740652834E-01  0.78905338317E-02  0.21807992429E-01  0.00000000000E+00 0. -1.
     999901    1    3    3    0    0  0.52261591420E-01  0.10918196055E+00 -0.85180520979E-01  0.89236074297E+00  0.88000000000E+00 0. -1.
        -11    1    4    4    0    0 -0.28823524478E-02 -0.26167024299E-01  0.25671356058E-01  0.36773642180E-01  0.51100000000E-03 0.  1.
         11    1    4    4    0    0 -0.34395165116E-01 -0.69274283416E-01  0.51618631090E-01  0.92987622417E-01  0.51100000000E-03 0. -1.
</event>
<event>
 8    1  0.1022673E+005  0.1043930E+01  0.7957747E-01            NaN
         13   -1    0    0    0    0  0.00000000000E+00  0.00000000000E+00  0.74505805969E-08  0.10566000000E+00  0.10566000000E+00 0. -1.
     999900   -1    0    0    0    0 -0.00000000000E+00 -0.00000000000E+00 -0.74505805969E-08  0.93827000000E+00  0.93827000000E+00 0. -1.
     999902    2    1    2    0    0 -0.15282021764E-01  0.15352184826E-01 -0.83037420458E-03  0.10222523781E+01  0.10220225073E+01 0.  0.
     999903    2    3    3    0    0 -0.57836153482E-01  0.12139383247E+00 -0.32755235687E-02  0.13486201087E+00  0.97749531988E-02 0.  0.
         14    1    1    2    0    0  0.15282021764E-01 -0.15352184826E-01  0.83037420458E-03  0.21677621859E-01  0.00000000000E+00 0. -1.
     999901    1    3    3    0    0  0.42554131718E-01 -0.10604164765E+00  0.24451493641E-02  0.88739036727E+00  0.88000000000E+00 0. -1.
        -11    1    4    4    0    0 -0.41649705158E-01  0.91605821790E-01 -0.62592085302E-02  0.10082541018E+00  0.51100000000E-03 0.  1.
         11    1    4    4    0    0 -0.16186448323E-01  0.29788010685E-01  0.29836849615E-02  0.34036600695E-01  0.51100000000E-03 0. -1.
</event>
<event>
 8    1  0.1022673E+005  0.1043930E+01  0.7957747E-01            NaN
         13   -1    0    0    0    0  0.00000000000E+00  0.00000000000E+00  0.74505805969E-08  0.10566000000E+00  0.10566000000E+00 0. -1.
     999900   -1    0    0    0    0 -0.00000000000E+00 -0.00000000000E+00 -0.74505805969E-08  0.93827000000E+00  0.93827000000E+00 0.  1.
     999902    2    1    2    0    0  0.15001633922E-01 -0.17774053623E-01 -0.69414662208E-03  0.10206609682E+01  0.10203956900E+01 0.  0.
     999903    2    3    3    0    0  0.92273182308E-01  0.17322183687E-01 -0.90666787327E-01  0.13201159180E+00  0.19803934546E-01 0.  0.
         14    1    1    2    0    0 -0.15001633922E-01  0.17774053623E-01  0.69414662208E-03  0.23269031825E-01  0.00000000000E+00 0.  1.
     999901    1    3    3    0    0 -0.77271548386E-01 -0.35096237310E-01  0.89972640705E-01  0.88864937638E+00  0.88000000000E+00 0. -1.
        -11    1    4    4    0    0  0.16611887312E-01 -0.43565068353E-02 -0.14457965080E-01  0.22455017861E-01  0.51100000000E-03 0. -1.
         11    1    4    4    0    0  0.75661294995E-01  0.21678690523E-01 -0.76208822247E-01  0.10955657394E+00  0.51100000000E-03 0.  1.
</event>
<event>
 8    1  0.1022673E+005  0.1043930E+01  0.7957747E-01            NaN
         13   -1    0    0    0    0  0.00000000000E+00  0.00000000000E+00  0.74505805969E-08  0.10566000000E+00  0.10566000000E+00 0. -1.
     999900   -1    0    0    0    0 -0.00000000000E+00 -0.00000000000E+00 -0.74505805969E-08  0.93827000000E+00  0.93827000000E+00 0.  1.
     999902    2    1    2    0    0  0.16082931188E-01  0.16214578185E-01 -0.10789724830E-01  0.10186715087E+01  0.10183583118E+01 0.  0.
     999903    2    3    3    0    0 -0.84619562169E-01 -0.91461034778E-01 -0.11136093212E-01  0.12640745037E+00  0.18144964961E-01 0.  0.
         14    1    1    2    0    0 -0.16082931188E-01 -0.16214578185E-01  0.10789724830E-01  0.25258491309E-01  0.00000000000E+00 0.  1.
     999901    1    3    3    0    0  0.10070249336E+00  0.10767561296E+00  0.34636838174E-03  0.89226405832E+00  0.88000000000E+00 0.  1.
        -11    1    4    4    0    0 -0.56452399108E-01 -0.64246717456E-01  0.56157553035E-03  0.85528302666E-01  0.51100000000E-03 0.  1.
         11    1    4    4    0    0 -0.28167163061E-01 -0.27214317322E-01 -0.11697668742E-01  0.40879147707E-01  0.51100000000E-03 0. -1.
</event>
<event>
 8    1  0.1022673E+005  0.1043930E+01  0.7957747E-01            NaN
         13   -1    0    0    0    0  0.00000000000E+00  0.00000000000E+00  0.74505805969E-08  0.10566000000E+00  0.10566000000E+00 0. -1.
     999900   -1    0    0    0    0 -0.00000000000E+00 -0.00000000000E+00 -0.74505805969E-08  0.93827000000E+00  0.93827000000E+00 0. -1.
     999902    2    1    2    0    0  0.12995421198E-01 -0.15706014634E-01 -0.11733792821E-01  0.10204089082E+01  0.10201377839E+01 0.  0.
     999903    2    3    3    0    0  0.52221806801E-01 -0.11511135255E+00  0.35443548819E-01  0.13268945241E+00  0.19300389544E-01 0.  0.
         14    1    1    2    0    0 -0.12995421198E-01  0.15706014634E-01  0.11733792821E-01  0.23521091849E-01  0.00000000000E+00 0. -1.
     999901    1    3    3    0    0 -0.39226385604E-01  0.99405337917E-01 -0.47177341641E-01  0.88771945574E+00  0.88000000000E+00 0. -1.
        -11    1    4    4    0    0  0.74255785358E-02 -0.21243392084E-01 -0.85847749518E-03  0.22525963429E-01  0.51100000000E-03 0.  1.
         11    1    4    4    0    0  0.44796228265E-01 -0.93867960468E-01  0.36302026315E-01  0.11016348898E+00  0.51100000000E-03 0. -1.
</event>
<event>
 8    1  0.1022673E+005  0.1043930E+01  0.7957747E-01            NaN
         13   -1    0    0    0    0  0.00000000000E+00  0.00000000000E+00  0.74505805969E-08  0.10566000000E+00  0.10566000000E+00 0.  1.
     999900   -1    0    0    0    0 -0.00000000000E+00 -0.00000000000E+00 -0.74505805969E-08  0.93827000000E+00  0.93827000000E+00 0. -1.
     999902    2    1    2    0    0 -0.15357433312E-01  0.14754678207E-02 -0.18016616177E-01  0.10202102567E+01  0.10199344791E+01 0.  0.
     999903    2    3    3    0    0 -0.64282397863E-01 -0.79134322419E-01  0.78239515703E-01  0.12995364575E+00  0.19288871564E-01 0.  0.
         14    1    1    2    0    0  0.15357433312E-01 -0.14754678207E-02  0.18016616177E-01  0.23719743289E-01  0.00000000000E+00 0.  1.
     999901    1    3    3    0    0  0.48924964550E-01  0.80609790239E-01 -0.96256131880E-01  0.89025661096E+00  0.88000000000E+00 0. -1.
        -11    1    4    4    0    0 -0.25621409322E-01 -0.17653161206E-01  0.24493325485E-01  0.39601449853E-01  0.51100000000E-03 0.  1.
         11    1    4    4    0    0 -0.38660988541E-01 -0.61481161213E-01  0.53746190218E-01  0.90352195895E-01  0.51100000000E-03 0. -1.
</event>
<event>
 8    1  0.1022673E+005  0.1043930E+01  0.7957747E-01            NaN
         13   -1    0    0    0    0  0.00000000000E+00  0.00000000000E+00  0.74505805969E-08  0.10566000000E+00  0.10566000000E+00 0. -1.
     999900   -1    0    0    0    0 -0.00000000000E+00 -0.00000000000E+00 -0.74505805969E-08  0.93827000000E+00  0.93827000000E+00 0.  1.
     999902    2    1    2    0    0 -0.20999521890E-01 -0.84084630781E-02 -0.21692467243E-02  0.10212058322E+01  0.10209529685E+01 0.  0.
     999903    2    3    3    0    0 -0.11494259689E-01 -0.12915228555E+00 -0.20147287740E-01  0.13272812813E+00  0.19960258647E-01 0.  0.
         14    1    1    2    0    0  0.20999521890E-01  0.84084630781E-02  0.21692467243E-02  0.22724167802E-01  0.00000000000E+00 0. -1.
     999901    1    3    3    0    0 -0.95052622014E-02  0.12074382247E+00  0.17978041016E-01  0.88847770407E+00  0.88000000000E+00 0. -1.
        -11    1    4    4    0    0  0.55259139094E-02 -0.29251192836E-01 -0.64650200489E-02  0.30466795239E-01  0.51100000000E-03 0.  1.
         11    1    4    4    0    0 -0.17020173598E-01 -0.99901092709E-01 -0.13682267691E-01  0.10226133289E+00  0.51100000000E-03 0. -1.
</event>
<event>
 8    1  0.1022673E+005  0.1043930E+01  0.7957747E-01            NaN
         13   -1    0    0    0    0  0.00000000000E+00  0.00000000000E+00  0.74505805969E-08  0.10566000000E+00  0.10566000000E+00 0. -1.
     999900   -1    0    0    0    0 -0.00000000000E+00 -0.00000000000E+00 -0.74505805969E-08  0.93827000000E+00  0.93827000000E+00 0. -1.
     999902    2    1    2    0    0 -0.14489939178E-02 -0.17928532360E-01 -0.14054127414E-01  0.10211034726E+01  0.10208482999E+01 0.  0.
     999903    2    3    3    0    0  0.75748184776E-01  0.85295564957E-01 -0.60250123950E-01  0.13051451648E+00  0.19769690875E-01 0.  0.
         14    1    1    2    0    0  0.14489939178E-02  0.17928532360E-01  0.14054127414E-01  0.22826527404E-01  0.00000000000E+00 0. -1.
     999901    1    3    3    0    0 -0.77197178693E-01 -0.10322409732E+00  0.46195996536E-01  0.89058895612E+00  0.88000000000E+00 0.  1.
        -11    1    4    4    0    0  0.28530687809E-01  0.26393779502E-01 -0.11071659250E-01  0.40416265325E-01  0.51100000000E-03 0. -1.
         11    1    4    4    0    0  0.47217496967E-01  0.58901785455E-01 -0.49178464700E-01  0.90098251153E-01  0.51100000000E-03 0.  1.
</event>
<event>
 8    1  0.1022673E+005  0.1043930E+01  0.7957747E-01            NaN
         13   -1    0    0    0    0  0.00000000000E+00  0.00000000000E+00  0.74505805969E-08  0.10566000000E+00  0.10566000000E+00 0. -1.
     999900   -1    0    0    0    0 -0.00000000000E+00 -0.00000000000E+00 -0.74505805969E-08  0.93827000000E+00  0.93827000000E+00 0. -1.
     999902    2    1    2    0    0 -0.61954386459E-02 -0.96841353977E-02 -0.20886330331E-01  0.10200887598E+01  0.10198101162E+01 0.  0.
     999903    2    3    3    0    0 -0.24028788754E-01 -0.12635216448E+00 -0.21476368554E-01  0.13220937301E+00  0.21813567981E-01 0.  0.
         14    1    1    2    0    0  0.61954386459E-02  0.96841353977E-02  0.20886330331E-01  0.23841240175E-01  0.00000000000E+00 0. -1.
     999901    1    3    3    0    0  0.17833350108E-01  0.11666802908E+00  0.59003822367E-03  0.88787938681E+00  0.88000000000E+00 0. -1.
        -11    1    4    4    0    0 -0.18170202723E-01 -0.44534682851E-01 -0.34613354541E-02  0.48225887319E-01  0.51100000000E-03 0. -1.
         11    1    4    4    0    0 -0.58585860310E-02 -0.81817481628E-01 -0.18015033100E-01  0.83983485691E-01  0.51100000000E-03 0.  1.
</event>
<event>
 8    1  0.1022673E+005  0.1043930E+01  0.7957747E-01            NaN
         13   -1    0    0    0    0  0.00000000000E+00  0.00000000000E+00  0.74505805969E-08  0.10566000000E+00  0.10566000000E+00 0.  1.
     999900   -1    0    0    0    0 -0.00000000000E+00 -0.00000000000E+00 -0.74505805969E-08  0.93827000000E+00  0.93827000000E+00 0. -1.
     999902    2    1    2    0    0  0.14111789045E-01  0.15849319899E-01  0.10506657545E-01  0.10202501904E+01  0.10199753515E+01 0.  0.
     999903    2    3    3    0    0 -0.87855029641E-01 -0.86425884050E-01  0.29651831945E-01  0.12827261938E+00  0.19664538559E-01 0.  0.
         14    1    1    2    0    0 -0.14111789045E-01 -0.15849319899E-01 -0.10506657545E-01  0.23679809629E-01  0.00000000000E+00 0. -1.
     999901    1    3    3    0    0  0.10196681869E+00  0.10227520395E+00 -0.19145174400E-01  0.89197757100E+00  0.88000000000E+00 0.  1.
        -11    1    4    4    0    0 -0.43975099653E-01 -0.52110198289E-01  0.23963886452E-01  0.72275937422E-01  0.51100000000E-03 0.  1.
         11    1    4    4    0    0 -0.43879929988E-01 -0.34315685760E-01  0.56879454937E-02  0.55996681954E-01  0.51100000000E-03 0. -1.
</event>
<event>
 8    1  0.1022673E+005  0.1043930E+01  0.7957747E-01            NaN
         13   -1    0    0    0    0  0.00000000000E+00  0.00000000000E+00  0.74505805969E-08  0.10566000000E+00  0.10566000000E+00 0.  1.
     999900   -1    0    0    0    0 -0.00000000000E+00 -0.00000000000E+00 -0.74505805969E-08  0.93827000000E+00  0.93827000000E+00 0.  1.
     999902    2    1    2    0    0 -0.11220978021E-02 -0.22577752359E-01 -0.54923279948E-02  0.10206667313E+01  0.10204015860E+01 0.  0.
     999903    2    3    3    0    0 -0.11568666732E+00  0.53926294095E-01 -0.14118033597E-01  0.12990732913E+00  0.19625113994E-01 0.  0.
         14    1    1    2    0    0  0.11220978021E-02  0.22577752359E-01  0.54923279948E-02  0.23263268727E-01  0.00000000000E+00 0. -1.
     999901    1    3    3    0    0  0.11456456951E+00 -0.76504046454E-01  0.86257056025E-02  0.89075940214E+00  0.88000000000E+00 0. -1.
        -11    1    4    4    0    0 -0.45521922177E-01  0.14484018631E-01 -0.12572340256E-01  0.49399970191E-01  0.51100000000E-03 0.  1.
         11    1    4    4    0    0 -0.70164745138E-01  0.39442275464E-01 -0.15456933408E-02  0.80507358937E-01  0.51100000000E-03 0. -1.
</event>
<event>
 8    1  0.1022673E+005  0.1043930E+01  0.7957747E-01            NaN
         13   -1    0    0    0    0  0.00000000000E+00  0.00000000000E+00  0.74505805969E-08  0.10566000000E+00  0.10566000000E+00 0. -1.
     999900   -1    0    0    0    0 -0.00000000000E+00 -0.00000000000E+00 -0.74505805969E-08  0.93827000000E+00  0.93827000000E+00 0. -1.
     999902    2    1    2    0    0  0.42052851909E-02  0.22231712825E-01 -0.65310981437E-02  0.10203802925E+01  0.10201085004E+01 0.  0.
     999903    2    3    3    0    0  0.90519982700E-01  0.87583141870E-01 -0.38388045068E-01  0.13317349514E+00  0.19921440584E-01 0.  0.
         14    1    1    2    0    0 -0.42052851909E-02 -0.22231712825E-01  0.65310981437E-02  0.23549707464E-01  0.00000000000E+00 0.  1.
     999901    1    3    3    0    0 -0.86314697509E-01 -0.65351429045E-01  0.31856946925E-01  0.88720679740E+00  0.88000000000E+00 0.  1.
        -11    1    4    4    0    0  0.98368101051E-02  0.18941198432E-01 -0.95338504760E-02  0.23381344209E-01  0.51100000000E-03 0.  1.
         11    1    4    4    0    0  0.80683172595E-01  0.68641943438E-01 -0.28854194592E-01  0.10979215093E+00  0.51100000000E-03 0. -1.
</event>
<event>
 8    1  0.1022673E+005  0.1043930E+01  0.7957747E-01            NaN
         13   -1    0    0    0    0  0.00000000000E+00  0.00000000000E+00  0.74505805969E-08  0.10566000000E+00  0.10566000000E+00 0.  1.
     999900   -1    0    0    0    0 -0.00000000000E+00 -0.00000000000E+00 -0.74505805969E-08  0.93827000000E+00  0.93827000000E+00 0.  1.
     999902    2    1    2    0    0  0.21583175868E-01  0.79347579891E-02 -0.10023777990E-01  0.10188447456E+01  0.10185358833E+01 0.  0.
     999903    2    3    3    0    0  0.11474201510E+00 -0.44007696996E-01 -0.43238437587E-01  0.13178228916E+00  0.19864587261E-01 0.  0.
         14    1    1    2    0    0 -0.21583175868E-01 -0.79347579891E-02  0.10023777990E-01  0.25085254435E-01  0.00000000000E+00 0. -1.
     999901    1    3    3    0    0 -0.93158839230E-01  0.51942454985E-01  0.33214659597E-01  0.88706245641E+00  0.88000000000E+00 0. -1.
        -11    1    4    4    0    0  0.74380343709E-01 -0.38477455842E-01 -0.29158839735E-01  0.88676091445E-01  0.51100000000E-03 0.  1.
         11    1    4    4    0    0  0.40361671388E-01 -0.55302411537E-02 -0.14079597852E-01  0.43106197712E-01  0.51100000000E-03 0. -1.
</event>
<event>
 8    1  0.1022673E+005  0.1043930E+01  0.7957747E-01            NaN
         13   -1    0    0    0    0  0.00000000000E+00  0.00000000000E+00  0.74505805969E-08  0.10566000000E+00  0.10566000000E+00 0. -1.
     999900   -1    0    0    0    0 -0.00000000000E+00 -0.00000000000E+00 -0.74505805969E-08  0.93827000000E+00  0.93827000000E+00 0.  1.
     999902    2    1    2    0    0 -0.92354508408E-02  0.18558485178E-01 -0.59166408356E-02  0.10223726912E+01  0.10221453919E+01 0.  0.
     999903    2    3    3    0    0  0.11695787786E+00 -0.18511304558E-01  0.52672376571E-01  0.13067117248E+00  0.16696181407E-01 0.  0.
         14    1    1    2    0    0  0.92354508408E-02 -0.18558485178E-01  0.59166408356E-02  0.21557308809E-01  0.00000000000E+00 0. -1.
     999901    1    3    3    0    0 -0.12619332870E+00  0.37069789735E-01 -0.58589017407E-01  0.89170151872E+00  0.88000000000E+00 0.  1.
        -11    1    4    4    0    0  0.74509611741E-01 -0.57279190006E-02  0.27117800139E-01  0.79499229576E-01  0.51100000000E-03 0. -1.
         11    1    4    4    0    0  0.42448266115E-01 -0.12783385557E-01  0.25554576432E-01  0.51171942899E-01  0.51100000000E-03 0.  1.
</event>
<event>
 8    1  0.1022673E+005  0.1043930E+01  0.7957747E-01            NaN
         13   -1    0    0    0    0  0.00000000000E+00  0.00000000000E+00  0.74505805969E-08  0.10566000000E+00  0.10566000000E+00 0.  1.
     999900   -1    0    0    0    0 -0.00000000000E+00 -0.00000000000E+00 -0.74505805969E-08  0.93827000000E+00  0.93827000000E+00 0.  1.
     999902    2    1    2    0    0 -0.23608476375E-01  0.12792272702E-02  0.26069636625E-02  0.10201435997E+01  0.10198662516E+01 0.  0.
     999903    2    3    3    0    0  0.65946267694E-01  0.10193510657E+00 -0.38076127171E-01  0.12896080583E+00  0.21010040641E-01 0.  0.
         14    1    1    2    0    0  0.23608476375E-01 -0.12792272702E-02 -0.26069636625E-02  0.23786400289E-01  0.00000000000E+00 0.  1.
     999901    1    3    3    0    0 -0.89554744070E-01 -0.10065587930E+00  0.40683090834E-01  0.89118279388E+00  0.88000000000E+00 0. -1.
        -11    1    4    4    0    0  0.34216945364E-01  0.54927240332E-01 -0.31153732407E-01  0.71823514564E-01  0.51100000000E-03 0.  1.
         11    1    4    4    0    0  0.31729322331E-01  0.47007866234E-01 -0.69223947645E-02  0.57137291270E-01  0.51100000000E-03 0. -1.
</event>
<event>
 8    1  0.1022673E+005  0.1043930E+01  0.7957747E-01            NaN
         13   -1    0    0    0    0  0.00000000000E+00  0.00000000000E+00  0.74505805969E-08  0.10566000000E+00  0.10566000000E+00 0.  1.
     999900   -1    0    0    0    0 -0.00000000000E+00 -0.00000000000E+00 -0.74505805969E-08  0.93827000000E+00  0.93827000000E+00 0.  1.
     999902    2    1    2    0    0 -0.75569767947E-02  0.20980837073E-01 -0.24923896504E-01  0.10104859566E+01  0.10099323564E+01 0.  0.
     999903    2    3    3    0    0  0.98759243745E-01  0.59832117926E-01  0.31616356425E-01  0.12143626114E+00  0.20344556191E-01 0.  0.
         14    1    1    2    0    0  0.75569767947E-02 -0.20980837073E-01  0.24923896504E-01  0.33444043408E-01  0.00000000000E+00 0.  1.
     999901    1    3    3    0    0 -0.10631622054E+00 -0.38851280853E-01 -0.56540252930E-01  0.88904969545E+00  0.88000000000E+00 0. -1.
        -11    1    4    4    0    0  0.83577098570E-01  0.43157437552E-01  0.20423598581E-01  0.96255287239E-01  0.51100000000E-03 0.  1.
         11    1    4    4    0    0  0.15182145175E-01  0.16674680374E-01  0.11192757844E-01  0.25180973905E-01  0.51100000000E-03 0. -1.
</event>
<event>
 8    1  0.1022673E+005  0.1043930E+01  0.7957747E-01            NaN
         13   -1    0    0    0    0  0.00000000000E+00  0.00000000000E+00  0.74505805969E-08  0.10566000000E+00  0.10566000000E+00 0. -1.
     999900   -1    0    0    0    0 -0.00000000000E+00 -0.00000000000E+00 -0.74505805969E-08  0.93827000000E+00  0.93827000000E+00 0.  1.
     999902    2    1    2    0    0  0.97426588247E-02 -0.52961735576E-02 -0.20246450827E-01  0.10208456411E+01  0.10205846047E+01 0.  0.
     999903    2    3    3    0    0  0.11771630648E+00  0.24563154021E-01  0.47984990458E-01  0.13112353975E+00  0.20744782941E-01 0.  0.
         14    1    1    2    0    0 -0.97426588247E-02  0.52961735576E-02  0.20246450827E-01  0.23084358912E-01  0.00000000000E+00 0. -1.
     999901    1    3    3    0    0 -0.10797364766E+00 -0.29859327579E-01 -0.68231441285E-01  0.88972210134E+00  0.88000000000E+00 0.  1.
        -11    1    4    4    0    0  0.95075477622E-01  0.17901776242E-01  0.29511824009E-01  0.10114854875E+00  0.51100000000E-03 0.  1.
         11    1    4    4    0    0  0.22640828861E-01  0.66613777797E-02  0.18473166449E-01  0.29974990994E-01  0.51100000000E-03 0. -1.
</event>
<event>
 8    1  0.1022673E+005  0.1043930E+01  0.7957747E-01            NaN
         13   -1    0    0    0    0  0.00000000000E+00  0.00000000000E+00  0.74505805969E-08  0.10566000000E+00  0.10566000000E+00 0.  1.
     999900   -1    0    0    0    0 -0.00000000000E+00 -0.00000000000E+00 -0.74505805969E-08  0.93827000000E+00  0.93827000000E+00 0.  1.
     999902    2    1    2    0    0 -0.98464058447E-02 -0.75676834863E-02  0.24985083006E-01  0.10160288188E+01  0.10156456492E+01 0.  0.
     999903    2    3    3    0    0 -0.11811225869E+00 -0.14108228102E-01 -0.39950452943E-01  0.12699513130E+00  0.19549346045E-01 0.  0.
         14    1    1    2    0    0  0.98464058447E-02  0.75676834863E-02 -0.24985083006E-01  0.27901181234E-01  0.00000000000E+00 0. -1.
     999901    1    3    3    0    0  0.10826585285E+00  0.65405446155E-02  0.64935535950E-01  0.88903368746E+00  0.88000000000E+00 0.  1.
        -11    1    4    4    0    0 -0.10881828861E+00 -0.82194672544E-02 -0.33161964442E-01  0.11405681297E+00  0.51100000000E-03 0. -1.
         11    1    4    4    0    0 -0.92939700849E-02 -0.58887608474E-02 -0.67884885010E-02  0.12938318337E-01  0.51100000000E-03 0.  1.
</event>
<event>
 8    1  0.1022673E+005  0.1043930E+01  0.7957747E-01            NaN
         13   -1    0    0    0    0  0.00000000000E+00  0.00000000000E+00  0.74505805969E-08  0.10566000000E+00  0.10566000000E+00 0.  1.
     999900   -1    0    0    0    0 -0.00000000000E+00 -0.00000000000E+00 -0.74505805969E-08  0.93827000000E+00  0.93827000000E+00 0. -1.
     999902    2    1    2    0    0  0.91837850158E-02 -0.43667906447E-03  0.21204349544E-01  0.10208181624E+01  0.10205564971E+01 0.  0.
     999903    2    3    3    0    0 -0.85400199718E-01 -0.87975664350E-01  0.43246976425E-01  0.13115806919E+00  0.17298165084E-01 0.  0.
         14    1    1    2    0    0 -0.91837850158E-02  0.43667906447E-03 -0.21204349544E-01  0.23111837560E-01  0.00000000000E+00 0.  1.
     999901    1    3    3    0    0  0.94583984734E-01  0.87538985285E-01 -0.22042626881E-01  0.88966009325E+00  0.88000000000E+00 0. -1.
        -11    1    4    4    0    0 -0.41886952047E-02 -0.25079905864E-02  0.54804246178E-02  0.73574016671E-02  0.51100000000E-03 0. -1.
         11    1    4    4    0    0 -0.81211504514E-01 -0.85467673763E-01  0.37766551807E-01  0.12380066753E+00  0.51100000000E-03 0.  1.
</event>
<event>
 8    1  0.1022673E+005  0.1043930E+01  0.7957747E-01            NaN
         13   -1    0    0    0    0  0.00000000000E+00  0.00000000000E+00  0.74505805969E-08  0.10566000000E+00  0.10566000000E+00 0.  1.
     999900   -1    0    0    0    0 -0.00000000000E+00 -0.00000000000E+00 -0.74505805969E-08  0.93827000000E+00  0.93827000000E+00 0. -1.
     999902    2    1    2    0    0 -0.48320157699E-02  0.84054072387E-02 -0.21605620349E-01  0.10202487399E+01  0.10199738670E+01 0.  0.
     999903    2    3    3    0    0  0.52512484862E-01  0.11770820911E+00 -0.18168130739E-01  0.13162772366E+00  0.19570209558E-01 0.  0.
         14    1    1    2    0    0  0.48320157699E-02 -0.84054072387E-02  0.21605620349E-01  0.23681260058E-01  0.00000000000E+00 0.  1.
     999901    1    3    3    0    0 -0.57344500632E-01 -0.10930280187E+00 -0.34374896105E-02  0.88862101629E+00  0.88000000000E+00 0.  1.
        -11    1    4    4    0    0  0.35733718142E-01  0.98131706097E-01 -0.17017605332E-01  0.10581394221E+00  0.51100000000E-03 0. -1.
         11    1    4    4    0    0  0.16778766720E-01  0.19576503014E-01 -0.11505254071E-02  0.25813781447E-01  0.51100000000E-03 0.  1.
</event>
<event>
 8    1  0.1022673E+005  0.1043930E+01  0.7957747E-01            NaN
         13   -1    0    0    0    0  0.00000000000E+00  0.00000000000E+00  0.74505805969E-08  0.10566000000E+00  0.10566000000E+00 0.  1.
     999900   -1    0    0    0    0 -0.00000000000E+00 -0.00000000000E+00 -0.74505805969E-08  0.93827000000E+00  0.93827000000E+00 0. -1.
     999902    2    1    2    0    0  0.54854207870E-02 -0.21610070618E-02 -0.22976120649E-01  0.10202095044E+01  0.10199337091E+01 0.  0.
     999903    2    3    3    0    0  0.49480060176E-01 -0.18101546070E-01 -0.12110133410E+00  0.13352005107E+00  0.19650155051E-01 0.  0.
         14    1    1    2    0    0 -0.54854207870E-02  0.21610070618E-02  0.22976120649E-01  0.23720495628E-01  0.00000000000E+00 0.  1.
     999901    1    3    3    0    0 -0.43994639389E-01  0.15940539008E-01  0.98125213446E-01  0.88668945330E+00  0.88000000000E+00 0.  1.
        -11    1    4    4    0    0  0.26492173291E-01 -0.18835816830E-01 -0.60178614477E-01  0.68398464915E-01  0.51100000000E-03 0. -1.
         11    1    4    4    0    0  0.22987886885E-01  0.73427075933E-03 -0.60922719619E-01  0.65121586158E-01  0.51100000000E-03 0.  1.
</event>
<event>
 8    1  0.1022673E+005  0.1043930E+01  0.7957747E-01            NaN
         13   -1    0    0    0    0  0.00000000000E+00  0.00000000000E+00  0.74505805969E-08  0.10566000000E+00  0.10566000000E+00 0.  1.
     999900   -1    0    0    0    0 -0.00000000000E+00 -0.00000000000E+00 -0.74505805969E-08  0.93827000000E+00  0.93827000000E+00 0.  1.
     999902    2    1    2    0    0 -0.21151053133E-01  0.12318853987E-01  0.90672788545E-02  0.10178275718E+01  0.10174928153E+01 0.  0.
     999903    2    3    3    0    0 -0.41278953170E-01 -0.92948043571E-01 -0.74377865344E-01  0.12740669144E+00  0.18897285341E-01 0.  0.
         14    1    1    2    0    0  0.21151053133E-01 -0.12318853987E-01 -0.90672788545E-02  0.26102428201E-01  0.00000000000E+00 0. -1.
     999901    1    3    3    0    0  0.20127900037E-01  0.10526689756E+00  0.83445144199E-01  0.89042088035E+00  0.88000000000E+00 0.  1.
        -11    1    4    4    0    0 -0.17195156376E-01 -0.34197573880E-01 -0.17229723485E-01  0.41979422989E-01  0.51100000000E-03 0.  1.
         11    1    4    4    0    0 -0.24083796793E-01 -0.58750469690E-01 -0.57148141859E-01  0.85427268456E-01  0.51100000000E-03 0. -1.
</event>
<event>
 8    1  0.1161282E+005  0.1043930E+01  0.7957747E-01            NaN
         13   -1    0    0    0    0  0.00000000000E+00  0.00000000000E+00  0.74505805969E-08  0.10566000000E+00  0.10566000000E+00 0.  1.
     999900   -1    0    0    0    0 -0.00000000000E+00 -0.00000000000E+00 -0.74505805969E-08  0.93827000000E+00  0.93827000000E+00 0.  1.
     999902    2    1    2    0    0  0.19148781622E-02 -0.23348782283E-01  0.41160570403E-02  0.10201439890E+01  0.10198666501E+01 0.  0.
     999903    2    3    3    0    0 -0.17069505469E-02 -0.11072002485E+00  0.71458731899E-01  0.13324947020E+00  0.19678245883E-01 0.  0.
         14    1    1    2    0    0 -0.19148781622E-02  0.23348782283E-01 -0.41160570403E-02  0.23786010973E-01  0.00000000000E+00 0.  1.
     999901    1    3    3    0    0  0.36218287091E-02  0.87371242566E-01 -0.67342674858E-01  0.88689451883E+00  0.88000000000E+00 0.  1.
        -11    1    4    4    0    0  0.39051513728E-02 -0.52960759178E-01  0.44379512035E-01  0.69209063203E-01  0.51100000000E-03 0.  1.
         11    1    4    4    0    0 -0.56121019198E-02 -0.57759265670E-01  0.27079219863E-01  0.64040406995E-01  0.51100000000E-03 0. -1.
</event>
<event>
 8    1  0.1022673E+005  0.1043930E+01  0.7957747E-01            NaN
         13   -1    0    0    0    0  0.00000000000E+00  0.00000000000E+00  0.74505805969E-08  0.10566000000E+00  0.10566000000E+00 0.  1.
     999900   -1    0    0    0    0 -0.00000000000E+00 -0.00000000000E+00 -0.74505805969E-08  0.93827000000E+00  0.93827000000E+00 0. -1.
     999902    2    1    2    0    0 -0.12684420680E-01 -0.17440666228E-01  0.82486224290E-02  0.10208408004E+01  0.10205796532E+01 0.  0.
     999903    2    3    3    0    0 -0.14148089919E-01  0.84222217333E-01 -0.94566809853E-01  0.12904009545E+00  0.20369446906E-01 0.  0.
         14    1    1    2    0    0  0.12684420680E-01  0.17440666228E-01 -0.82486224290E-02  0.23089199606E-01  0.00000000000E+00 0.  1.
     999901    1    3    3    0    0  0.14636692389E-02 -0.10166288356E+00  0.10281543228E+00  0.89180070494E+00  0.88000000000E+00 0.  1.
        -11    1    4    4    0    0 -0.36471876092E-02  0.15514543213E-01 -0.30944352296E-01  0.34811163275E-01  0.51100000000E-03 0. -1.
         11    1    4    4    0    0 -0.10500902310E-01  0.68707674120E-01 -0.63622457558E-01  0.94228932175E-01  0.51100000000E-03 0.  1.
</event>
<event>
 8    1  0.1022673E+005  0.1043930E+01  0.7957747E-01            NaN
         13   -1    0    0    0    0  0.00000000000E+00  0.00000000000E+00  0.74505805969E-08  0.10566000000E+00  0.10566000000E+00 0. -1.
     999900   -1    0    0    0    0 -0.00000000000E+00 -0.00000000000E+00 -0.74505805969E-08  0.93827000000E+00  0.93827000000E+00 0.  1.
     999902    2    1    2    0    0 -0.15914451748E-01  0.49988070298E-02  0.15357666948E-01  0.10212558786E+01  0.10210041400E+01 0.  0.
     999903    2    3    3    0    0 -0.44867167034E-01 -0.10412536745E+00 -0.61754627469E-01  0.13069838406E+00  0.20329258625E-01 0.  0.
         14    1    1    2    0    0  0.15914451748E-01 -0.49988070298E-02 -0.15357666948E-01  0.22674121378E-01  0.00000000000E+00 0.  1.
     999901    1    3    3    0    0  0.28952715286E-01  0.10912417448E+00  0.77112294417E-01  0.89055749457E+00  0.88000000000E+00 0. -1.
        -11    1    4    4    0    0 -0.22799074788E-01 -0.74103288520E-01 -0.36588260857E-01  0.85732474210E-01  0.51100000000E-03 0. -1.
         11    1    4    4    0    0 -0.22068092246E-01 -0.30022078932E-01 -0.25166366612E-01  0.44965909846E-01  0.51100000000E-03 0.  1.
</event>
<event>
 8    1  0.1022673E+005  0.1043930E+01  0.7957747E-01            NaN
         13   -1    0    0    0    0  0.00000000000E+00  0.00000000000E+00  0.74505805969E-08  0.10566000000E+00  0.10566000000E+00 0. -1.
     999900   -1    0    0    0    0 -0.00000000000E+00 -0.00000000000E+00 -0.74505805969E-08  0.93827000000E+00  0.93827000000E+00 0. -1.
     999902    2    1    2    0    0 -0.44402125068E-02  0.17221654679E-01 -0.15566389731E-01  0.10202949970E+01  0.10200212094E+01 0.  0.
     999903    2    3    3    0    0  0.12193972602E+00  0.41247727742E-01 -0.11932177780E-01  0.13093435669E+00  0.20754687933E-01 0.  0.
         14    1    1    2    0    0  0.44402125068E-02 -0.17221654679E-01  0.15566389731E-01  0.23635002988E-01  0.00000000000E+00 0. -1.
     999901    1    3    3    0    0 -0.12637993853E+00 -0.24026073063E-01 -0.36342119508E-02  0.88936064032E+00  0.88000000000E+00 0. -1.
        -11    1    4    4    0    0  0.10776698118E+00  0.43044928688E-01 -0.95163906956E-02  0.11643629559E+00  0.51100000000E-03 0. -1.
         11    1    4    4    0    0  0.14172744837E-01 -0.17972009459E-02 -0.24157870846E-02  0.14498061102E-01  0.51100000000E-03 0.  1.
</event>
<event>
 8    1  0.1022673E+005  0.1043930E+01  0.7957747E-01            NaN
         13   -1    0    0    0    0  0.00000000000E+00  0.00000000000E+00  0.74505805969E-08  0.10566000000E+00  0.10566000000E+00 0.  1.
     999900   -1    0    0    0    0 -0.00000000000E+00 -0.00000000000E+00 -0.74505805969E-08  0.93827000000E+00  0.93827000000E+00 0. -1.
     999902    2    1    2    0    0 -0.11414331388E-01  0.20308665156E-01 -0.50101836890E-03  0.10206280717E+01  0.10203620343E+01 0.  0.
     999903    2    3    3    0    0  0.28267414460E-01 -0.15748101717E-01  0.12435524203E+00  0.13019906437E+00  0.20988585368E-01 0.  0.
         14    1    1    2    0    0  0.11414331388E-01 -0.20308665156E-01  0.50101836890E-03  0.23301928265E-01  0.00000000000E+00 0.  1.
     999901    1    3    3    0    0 -0.39681745848E-01  0.36056766873E-01 -0.12485626040E+00  0.89042900736E+00  0.88000000000E+00 0. -1.
        -11    1    4    4    0    0  0.30428978163E-01 -0.13256450921E-01  0.94557730386E-01  0.10021517699E+00  0.51100000000E-03 0. -1.
         11    1    4    4    0    0 -0.21615637023E-02 -0.24916507954E-02  0.29797511643E-01  0.29983887380E-01  0.51100000000E-03 0.  1.
</event>
<event>
 8    1  0.1022673E+005  0.1043930E+01  0.7957747E-01            NaN
         13   -1    0    0    0    0  0.00000000000E+00  0.00000000000E+00  0.74505805969E-08  0.10566000000E+00  0.10566000000E+00 0. -1.
     999900   -1    0    0    0    0 -0.00000000000E+00 -0.00000000000E+00 -0.74505805969E-08  0.93827000000E+00  0.93827000000E+00 0.  1.
     999902    2    1    2    0    0 -0.30530836790E-02  0.42151649713E-02 -0.23945380495E-01  0.10194255069E+01  0.10191309503E+01 0.  0.
     999903    2    3    3    0    0 -0.10434279181E+00 -0.69220748805E-01 -0.31451628210E-01  0.13054487252E+00  0.19334646490E-01 0.  0.
         14    1    1    2    0    0  0.30530836790E-02 -0.42151649713E-02  0.23945380495E-01  0.24504493113E-01  0.00000000000E+00 0. -1.
     999901    1    3    3    0    0  0.10128970813E+00  0.73435913776E-01  0.75062477147E-02  0.88888063437E+00  0.88000000000E+00 0. -1.
        -11    1    4    4    0    0 -0.22048017249E-01 -0.10771204085E-01 -0.13528367010E-01  0.28025198251E-01  0.51100000000E-03 0.  1.
         11    1    4    4    0    0 -0.82294774563E-01 -0.58449544720E-01 -0.17923261200E-01  0.10251967426E+00  0.51100000000E-03 0. -1.
</event>
<event>
 8    1  0.1022673E+005  0.1043930E+01  0.7957747E-01            NaN
         13   -1    0    0    0    0  0.00000000000E+00  0.00000000000E+00  0.74505805969E-08  0.10566000000E+00  0.10566000000E+00 0. -1.
     999900   -1    0    0    0    0 -0.00000000000E+00 -0.00000000000E+00 -0.74505805969E-08  0.93827000000E+00  0.93827000000E+00 0.  1.
     999902    2    1    2    0    0  0.34361939573E-02 -0.23382984012E-01  0.31700542989E-02  0.10200842328E+01  0.10198054821E+01 0.  0.
     999903    2    3    3    0    0  0.59844176473E-01  0.85574506107E-01 -0.71970890708E-01  0.12840056871E+00  0.20064281267E-01 0.  0.
         14    1    1    2    0    0 -0.34361939573E-02  0.23382984012E-01 -0.31700542989E-02  0.23845767223E-01  0.00000000000E+00 0. -1.
     999901    1    3    3    0    0 -0.56407982516E-01 -0.10895749012E+00  0.75140945007E-01  0.89168366407E+00  0.88000000000E+00 0. -1.
        -11    1    4    4    0    0  0.18276330766E-01  0.12398137261E-01 -0.12936430894E-01  0.25599813263E-01  0.51100000000E-03 0.  1.
         11    1    4    4    0    0  0.41567845708E-01  0.73176368846E-01 -0.59034459814E-01  0.10280075545E+00  0.51100000000E-03 0. -1.
</event>
<event>
 8    1  0.1022673E+005  0.1043930E+01  0.7957747E-01            NaN
         13   -1    0    0    0    0  0.00000000000E+00  0.00000000000E+00  0.74505805969E-08  0.10566000000E+00  0.10566000000E+00 0.  1.
     999900   -1    0    0    0    0 -0.00000000000E+00 -0.00000000000E+00 -0.74505805969E-08  0.93827000000E+00  0.93827000000E+00 0.  1.
     999902    2    1    2    0    0 -0.64693949073E-02 -0.98822505791E-02  0.20345169637E-01  0.10204047397E+01  0.10201335181E+01 0.  0.
     999903    2    3    3    0    0 -0.12132589386E+00 -0.46834695537E-01 -0.75605885451E-02  0.13173369259E+00  0.19574014378E-01 0.  0.
         14    1    1    2    0    0  0.64693949073E-02  0.98822505791E-02 -0.20345169637E-01  0.23525260350E-01  0.00000000000E+00 0. -1.
     999901    1    3    3    0    0  0.11485649895E+00  0.36952444958E-01  0.27905758182E-01  0.88867104706E+00  0.88000000000E+00 0. -1.
        -11    1    4    4    0    0 -0.11312009480E+00 -0.44126030083E-01 -0.19889237748E-02  0.12143920008E+00  0.51100000000E-03 0. -1.
         11    1    4    4    0    0 -0.82057990596E-02 -0.27086654543E-02 -0.55716647702E-02  0.10294492511E-01  0.51100000000E-03 0.  1.
</event>
<event>
 8    1  0.1022673E+005  0.1043930E+01  0.7957747E-01            NaN
         13   -1    0    0    0    0  0.00000000000E+00  0.00000000000E+00  0.74505805969E-08  0.10566000000E+00  0.10566000000E+00 0.  1.
     999900   -1    0    0    0    0 -0.00000000000E+00 -0.00000000000E+00 -0.74505805969E-08  0.93827000000E+00  0.93827000000E+00 0.  1.
     999902    2    1    2    0    0 -0.35980963957E-02  0.14212254769E-01  0.17651958722E-01  0.10209838428E+01  0.10207259579E+01 0.  0.
     999903    2    3    3    0    0 -0.72222140078E-01  0.20009993591E-01  0.10886452213E+00  0.13359294536E+00  0.19471864593E-01 0.  0.
         14    1    1    2    0    0  0.35980963957E-02 -0.14212254769E-01 -0.17651958722E-01  0.22946157194E-01  0.00000000000E+00 0. -1.
     999901    1    3    3    0    0  0.68624043682E-01 -0.57977388218E-02 -0.91212563407E-01  0.88739089745E+00  0.88000000000E+00 0.  1.
        -11    1    4    4    0    0 -0.10460442047E-01  0.33643295802E-02  0.61894540188E-02  0.12621807454E-01  0.51100000000E-03 0.  1.
         11    1    4    4    0    0 -0.61761698031E-01  0.16645664010E-01  0.10267506811E+00  0.12097113791E+00  0.51100000000E-03 0. -1.
</event>
<event>
 8    1  0.1022673E+005  0.1043930E+01  0.7957747E-01            NaN
         13   -1    0    0    0    0  0.00000000000E+00  0.00000000000E+00  0.74505805969E-08  0.10566000000E+00  0.10566000000E+00 0.  1.
     999900   -1    0    0    0    0 -0.00000000000E+00 -0.00000000000E+00 -0.74505805969E-08  0.93827000000E+00  0.93827000000E+00 0. -1.
     999902    2    1    2    0    0 -0.18187414840E-01  0.27018843014E-02  0.15057127054E-01  0.10201644932E+01  0.10198876379E+01 0.  0.
     999903    2    3    3    0    0 -0.77114811866E-01 -0.99370931326E-01  0.35302150661E-01  0.13207600732E+00  0.19404990765E-01 0.  0.
         14    1    1    2    0    0  0.18187414840E-01 -0.27018843014E-02 -0.15057127054E-01  0.23765506779E-01  0.00000000000E+00 0. -1.
     999901    1    3    3    0    0  0.58927397026E-01  0.10207281563E+00 -0.20245023606E-01  0.88808848590E+00  0.88000000000E+00 0.  1.
        -11    1    4    4    0    0 -0.34081460312E-01 -0.50778036221E-01  0.80822231577E-02  0.61689045637E-01  0.51100000000E-03 0. -1.
         11    1    4    4    0    0 -0.43033351554E-01 -0.48592895105E-01  0.27219927503E-01  0.70386961682E-01  0.51100000000E-03 0.  1.
</event>
<event>
 8    1  0.1022673E+005  0.1043930E+01  0.7957747E-01            NaN
         13   -1    0    0    0    0  0.00000000000E+00  0.00000000000E+00  0.74505805969E-08  0.10566000000E+00  0.10566000000E+00 0. -1.
     999900   -1    0    0    0    0 -0.00000000000E+00 -0.00000000000E+00 -0.74505805969E-08  0.93827000000E+00  0.93827000000E+00 0. -1.
     999902    2    1    2    0    0  0.20792461586E-01 -0.56595387035E-02  0.99351632501E-02  0.10202010239E+01  0.10199250291E+01 0.  0.
     999903    2    3    3    0    0 -0.69275828012E-01 -0.10719606146E+00  0.12727838786E-01  0.12979114005E+00  0.19839511526E-01 0.  0.
         14    1    1    2    0    0 -0.20792461586E-01  0.56595387035E-02 -0.99351632501E-02  0.23728976083E-01  0.00000000000E+00 0.  1.
     999901    1    3    3    0    0  0.90068289597E-01  0.10153652275E+00 -0.27926755362E-02  0.89040988386E+00  0.88000000000E+00 0.  1.
        -11    1    4    4    0    0 -0.19049494982E-01 -0.46025996970E-01  0.14005058908E-02  0.49834708727E-01  0.51100000000E-03 0. -1.
         11    1    4    4    0    0 -0.50226333030E-01 -0.61170064488E-01  0.11327332895E-01  0.79956431327E-01  0.51100000000E-03 0.  1.
</event>
<event>
 8    1  0.1022673E+005  0.1043930E+01  0.7957747E-01            NaN
         13   -1    0    0    0    0  0.00000000000E+00  0.00000000000E+00  0.74505805969E-08  0.10566000000E+00  0.10566000000E+00 0. -1.
     999900   -1    0    0    0    0 -0.00000000000E+00 -0.00000000000E+00 -0.74505805969E-08  0.93827000000E+00  0.93827000000E+00 0.  1.
     999902    2    1    2    0    0  0.82432557567E-02 -0.53325307552E-02 -0.21851314187E-01  0.10199744770E+01  0.10196931238E+01 0.  0.
     999903    2    3    3    0    0 -0.96425778393E-01 -0.69595445654E-01  0.47071154952E-01  0.12877548931E+00  0.15032505554E-01 0.  0.
         14    1    1    2    0    0 -0.82432557567E-02  0.53325307552E-02  0.21851314187E-01  0.23955522984E-01  0.00000000000E+00 0. -1.
     999901    1    3    3    0    0  0.10466903415E+00  0.64262914899E-01 -0.68922469139E-01  0.89119898771E+00  0.88000000000E+00 0.  1.
        -11    1    4    4    0    0 -0.39342197561E-01 -0.20285124358E-01  0.20667955740E-01  0.48854071423E-01  0.51100000000E-03 0.  1.
         11    1    4    4    0    0 -0.57083580832E-01 -0.49310321296E-01  0.26403199212E-01  0.79921417884E-01  0.51100000000E-03 0. -1.
</event>
<event>
 8    1  0.1022673E+005  0.1043930E+01  0.7957747E-01            NaN
         13   -1    0    0    0    0  0.00000000000E+00  0.00000000000E+00  0.74505805969E-08  0.10566000000E+00  0.10566000000E+00 0.  1.
     999900   -1    0    0    0    0 -0.00000000000E+00 -0.00000000000E+00 -0.74505805969E-08  0.93827000000E+00  0.93827000000E+00 0. -1.
     999902    2    1    2    0    0 -0.13914412470E-01 -0.14845607480E-01 -0.12098653177E-01  0.10202576460E+01  0.10199829821E+01 0.  0.
     999903    2    3    3    0    0  0.70509119485E-01 -0.99079565899E-01  0.43166595952E-01  0.13049535174E+00  0.19426412712E-01 0.  0.
         14    1    1    2    0    0  0.13914412470E-01  0.14845607480E-01  0.12098653177E-01  0.23672354013E-01  0.00000000000E+00 0. -1.
     999901    1    3    3    0    0 -0.84423531955E-01  0.84233958419E-01 -0.55265249129E-01  0.88976229424E+00  0.88000000000E+00 0. -1.
        -11    1    4    4    0    0  0.37236904781E-01 -0.37351738833E-01  0.14201739306E-01  0.54623163510E-01  0.51100000000E-03 0. -1.
         11    1    4    4    0    0  0.33272214704E-01 -0.61727827066E-01  0.28964856645E-01  0.75872188232E-01  0.51100000000E-03 0.  1.
</event>
<event>
 8    1  0.1022673E+005  0.1043930E+01  0.7957747E-01            NaN
         13   -1    0    0    0    0  0.00000000000E+00  0.00000000000E+00  0.74505805969E-08  0.10566000000E+00  0.10566000000E+00 0.  1.
     999900   -1    0    0    0    0 -0.00000000000E+00 -0.00000000000E+00 -0.74505805969E-08  0.93827000000E+00  0.93827000000E+00 0. -1.
     999902    2    1    2    0    0 -0.20028518147E-01  0.13057702367E-01 -0.14766220140E-02  0.10199753440E+01  0.10196940114E+01 0.  0.
     999903    2    3    3    0    0  0.30069753365E-01 -0.90777430331E-01 -0.83558252710E-01  0.12866789668E+00  0.20705412717E-01 0.  0.
         14    1    1    2    0    0  0.20028518147E-01 -0.13057702367E-01  0.14766220140E-02  0.23954655974E-01  0.00000000000E+00 0.  1.
     999901    1    3    3    0    0 -0.50098271512E-01  0.10383513270E+00  0.82081630696E-01  0.89130744734E+00  0.88000000000E+00 0. -1.
        -11    1    4    4    0    0  0.11281265744E-01 -0.63646427270E-01 -0.59131149622E-01  0.87606441759E-01  0.51100000000E-03 0. -1.
         11    1    4    4    0    0  0.18788487621E-01 -0.27131003061E-01 -0.24427103089E-01  0.41061454924E-01  0.51100000000E-03 0.  1.
</event>
<event>
 8    1  0.1022673E+005  0.1043930E+01  0.7957747E-01            NaN
         13   -1    0    0    0    0  0.00000000000E+00  0.00000000000E+00  0.74505805969E-08  0.10566000000E+00  0.10566000000E+00 0. -1.
     999900   -1    0    0    0    0 -0.00000000000E+00 -0.00000000000E+00 -0.74505805969E-08  0.93827000000E+00  0.93827000000E+00 0.  1.
     999902    2    1    2    0    0  0.21633114876E-01  0.29222537246E-03  0.43625816771E-02  0.10218594501E+01  0.10216210778E+01 0.  0.
     999903    2    3    3    0    0  0.61550419619E-01 -0.10657393273E+00 -0.46405896615E-01  0.13304495574E+00  0.20024877342E-01 0.  0.
         14    1    1    2    0    0 -0.21633114876E-01 -0.29222537246E-03 -0.43625816771E-02  0.22070549921E-01  0.00000000000E+00 0.  1.
     999901    1    3    3    0    0 -0.39917304743E-01  0.10686615811E+00  0.50768478292E-01  0.88881449434E+00  0.88000000000E+00 0. -1.
        -11    1    4    4    0    0  0.61310548056E-01 -0.10048446399E+00 -0.40345752875E-01  0.12443533140E+00  0.51100000000E-03 0. -1.
         11    1    4    4    0    0  0.23987156338E-03 -0.60894687468E-02 -0.60601437402E-02  0.86096243319E-02  0.51100000000E-03 0.  1.
</event>
<event>
 8    1  0.1022673E+005  0.1043930E+01  0.7957747E-01            NaN
         13   -1    0    0    0    0  0.00000000000E+00  0.00000000000E+00  0.74505805969E-08  0.10566000000E+00  0.10566000000E+00 0.  1.
     999900   -1    0    0    0    0 -0.00000000000E+00 -0.00000000000E+00 -0.74505805969E-08  0.93827000000E+00  0.93827000000E+00 0.  1.
     999902    2    1    2    0    0  0.31172912562E-02 -0.20728069735E-01  0.87365509764E-02  0.10212210215E+01  0.10209684996E+01 0.  0.
     999903    2    3    3    0    0 -0.99390087449E-01  0.40987661205E-01 -0.69677595573E-01  0.12966879508E+00  0.20016274314E-01 0.  0.
         14    1    1    2    0    0 -0.31172912562E-02  0.20728069735E-01 -0.87365509764E-02  0.22708978460E-01  0.00000000000E+00 0. -1.
     999901    1    3    3    0    0  0.10250737871E+00 -0.61715730940E-01  0.78414146549E-01  0.89155222646E+00  0.88000000000E+00 0. -1.
        -11    1    4    4    0    0 -0.71649712584E-01  0.25359392529E-01 -0.38902745846E-01  0.85384219023E-01  0.51100000000E-03 0. -1.
         11    1    4    4    0    0 -0.27740374865E-01  0.15628268676E-01 -0.30774849727E-01  0.44284576053E-01  0.51100000000E-03 0.  1.
</event>
<event>
 8    1  0.1022673E+005  0.1043930E+01  0.7957747E-01            NaN
         13   -1    0    0    0    0  0.00000000000E+00  0.00000000000E+00  0.74505805969E-08  0.10566000000E+00  0.10566000000E+00 0.  1.
     999900   -1    0    0    0    0 -0.00000000000E+00 -0.00000000000E+00 -0.74505805969E-08  0.93827000000E+00  0.93827000000E+00 0. -1.
     999902    2    1    2    0    0 -0.10934395561E-01  0.19066507724E-01 -0.13243074163E-01  0.10182692959E+01  0.10179459156E+01 0.  0.
     999903    2    3    3    0    0  0.51692086596E-01  0.78771081847E-01  0.85181292307E-01  0.12856481215E+00  0.19902341878E-01 0.  0.
         14    1    1    2    0    0  0.10934395561E-01 -0.19066507724E-01  0.13243074163E-01  0.25660704129E-01  0.00000000000E+00 0.  1.
     999901    1    3    3    0    0 -0.62626482157E-01 -0.59704574123E-01 -0.98424366469E-01  0.88970448372E+00  0.88000000000E+00 0.  1.
        -11    1    4    4    0    0  0.26667768460E-01  0.56476418236E-01  0.60337792863E-01  0.86842766308E-01  0.51100000000E-03 0. -1.
         11    1    4    4    0    0  0.25024318135E-01  0.22294663611E-01  0.24843499444E-01  0.41722045843E-01  0.51100000000E-03 0.  1.
</event>
<event>
 8    1  0.1022673E+005  0.1043930E+01  0.7957747E-01            NaN
         13   -1    0    0    0    0  0.00000000000E+00  0.00000000000E+00  0.74505805969E-08  0.10566000000E+00  0.10566000000E+00 0.  1.
     999900   -1    0    0    0    0 -0.00000000000E+00 -0.00000000000E+00 -0.74505805969E-08  0.93827000000E+00  0.93827000000E+00 0.  1.
     999902    2    1    2    0    0  0.72045926181E-02  0.19571168632E-01  0.99009883599E-02  0.10208439357E+01  0.10205828602E+01 0.  0.
     999903    2    3    3    0    0  0.12979233730E+00  0.30293991634E-02 -0.10459239388E-01  0.13195928388E+00  0.21180860045E-01 0.  0.
         14    1    1    2    0    0 -0.72045926181E-02 -0.19571168632E-01 -0.99009883599E-02  0.23086064344E-01  0.00000000000E+00 0. -1.
     999901    1    3    3    0    0 -0.12258774469E+00  0.16541769468E-01  0.20360227748E-01  0.88888465177E+00  0.88000000000E+00 0. -1.
        -11    1    4    4    0    0  0.21941079454E-01  0.76607392305E-02  0.17913104958E-02  0.23314540687E-01  0.51100000000E-03 0.  1.
         11    1    4    4    0    0  0.10785125785E+00 -0.46313400671E-02 -0.12250549884E-01  0.10864474320E+00  0.51100000000E-03 0. -1.
</event>
<event>
 8    1  0.1022673E+005  0.1043930E+01  0.7957747E-01            NaN
         13   -1    0    0    0    0  0.00000000000E+00  0.00000000000E+00  0.74505805969E-08  0.10566000000E+00  0.10566000000E+00 0.  1.
     999900   -1    0    0    0    0 -0.00000000000E+00 -0.00000000000E+00 -0.74505805969E-08  0.93827000000E+00  0.93827000000E+00 0.  1.
     999902    2    1    2    0    0  0.10364318075E-01 -0.23509381413E-01  0.25756568416E-02  0.10181086114E+01  0.10177811162E+01 0.  0.
     999903    2    3    3    0    0  0.14798295609E-01 -0.90073246661E-01 -0.90710119482E-01  0.13066698264E+00  0.22657344452E-01 0.  0.
         14    1    1    2    0    0 -0.10364318075E-01  0.23509381413E-01 -0.25756568416E-02  0.25821388649E-01  0.00000000000E+00 0. -1.
     999901    1    3    3    0    0 -0.44339775344E-02  0.66563865248E-01  0.93285776324E-01  0.88744162872E+00  0.88000000000E+00 0. -1.
        -11    1    4    4    0    0  0.93624529977E-02 -0.82582638776E-01 -0.87920953809E-01  0.12098720177E+00  0.51100000000E-03 0.  1.
         11    1    4    4    0    0  0.54358426115E-02 -0.74906078849E-02 -0.27891656734E-02  0.96797808619E-02  0.51100000000E-03 0. -1.
</event>
<event>
 8    1  0.1022673E+005  0.1043930E+01  0.7957747E-01            NaN
         13   -1    0    0    0    0  0.00000000000E+00  0.00000000000E+00  0.74505805969E-08  0.10566000000E+00  0.10566000000E+00 0.  1.
     999900   -1    0    0    0    0 -0.00000000000E+00 -0.00000000000E+00 -0.74505805969E-08  0.93827000000E+00  0.93827000000E+00 0. -1.
     999902    2    1    2    0    0 -0.37219299922E-02  0.26489482144E-01  0.13734840948E-01  0.10138602264E+01  0.10134142132E+01 0.  0.
     999903    2    3    3    0    0  0.27664639344E-01 -0.93331904008E-01  0.72910084576E-01  0.12321776686E+00  0.19762617791E-01 0.  0.
         14    1    1    2    0    0  0.37219299922E-02 -0.26489482144E-01 -0.13734840948E-01  0.30069773577E-01  0.00000000000E+00 0. -1.
     999901    1    3    3    0    0 -0.31386569336E-01  0.11982138615E+00 -0.59175243628E-01  0.89064245956E+00  0.88000000000E+00 0. -1.
        -11    1    4    4    0    0  0.11191014591E-01 -0.30911986033E-01  0.36395141775E-01  0.49047498957E-01  0.51100000000E-03 0.  1.
         11    1    4    4    0    0  0.16473624753E-01 -0.62419917974E-01  0.36514942801E-01  0.74170267906E-01  0.51100000000E-03 0. -1.
</event>
<event>
 8    1  0.1022673E+005  0.1043930E+01  0.7957747E-01            NaN
         13   -1    0    0    0    0  0.00000000000E+00  0.00000000000E+00  0.74505805969E-08  0.10566000000E+00  0.10566000000E+00 0. -1.
     999900   -1    0    0    0    0 -0.00000000000E+00 -0.00000000000E+00 -0.74505805969E-08  0.93827000000E+00  0.93827000000E+00 0.  1.
     999902    2    1    2    0    0 -0.12144220854E-01  0.56494693490E-02 -0.19807065961E-01  0.10200193650E+01  0.10197390777E+01 0.  0.
     999903    2    3    3    0    0 -0.38814353110E-01  0.15949550947E-01 -0.12527877407E+00  0.13326028337E+00  0.17395105906E-01 0.  0.
         14    1    1    2    0    0  0.12144220854E-01 -0.56494693490E-02  0.19807065961E-01  0.23910635000E-01  0.00000000000E+00 0. -1.
     999901    1    3    3    0    0  0.26670132256E-01 -0.10300081598E-01  0.10547170811E+00  0.88675908163E+00  0.88000000000E+00 0. -1.
        -11    1    4    4    0    0 -0.14362456277E-02  0.37721057312E-02 -0.28684709304E-01  0.28971800980E-01  0.51100000000E-03 0. -1.
         11    1    4    4    0    0 -0.37378107483E-01  0.12177445215E-01 -0.96594064767E-01  0.10428848239E+00  0.51100000000E-03 0.  1.
</event>
<event>
 8    1  0.1022673E+005  0.1043930E+01  0.7957747E-01            NaN
         13   -1    0    0    0    0  0.00000000000E+00  0.00000000000E+00  0.74505805969E-08  0.10566000000E+00  0.10566000000E+00 0.  1.
     999900   -1    0    0    0    0 -0.00000000000E+00 -0.00000000000E+00 -0.74505805969E-08  0.93827000000E+00  0.93827000000E+00 0. -1.
     999902    2    1    2    0    0 -0.21545654192E-01  0.10031603387E-01 -0.12395647512E-02  0.10201311597E+01  0.10198535180E+01 0.  0.
     999903    2    3    3    0    0 -0.95357708693E-01  0.28695859377E-01  0.85416435843E-01  0.13260322416E+00  0.19264023285E-01 0.  0.
         14    1    1    2    0    0  0.21545654192E-01 -0.10031603387E-01  0.12395647512E-02  0.23798840346E-01  0.00000000000E+00 0. -1.
     999901    1    3    3    0    0  0.73812054501E-01 -0.18664255990E-01 -0.86656000594E-01  0.88752793549E+00  0.88000000000E+00 0. -1.
        -11    1    4    4    0    0 -0.77794369333E-01  0.27691098147E-01  0.77702672454E-01  0.11338750921E+00  0.51100000000E-03 0. -1.
         11    1    4    4    0    0 -0.17563339359E-01  0.10047612304E-02  0.77137633895E-02  0.19215714954E-01  0.51100000000E-03 0.  1.
</event>
<event>
 8    1  0.1022673E+005  0.1043930E+01  0.7957747E-01            NaN
         13   -1    0    0    0    0  0.00000000000E+00  0.00000000000E+00  0.74505805969E-08  0.10566000000E+00  0.10566000000E+00 0.  1.
     999900   -1    0    0    0    0 -0.00000000000E+00 -0.00000000000E+00 -0.74505805969E-08  0.93827000000E+00  0.93827000000E+00 0. -1.
     999902    2    1    2    0    0 -0.16007884768E-01  0.11793481988E-01  0.11262481549E-01  0.10210786963E+01  0.10208229630E+01 0.  0.
     999903    2    3    3    0    0 -0.17129616547E-01 -0.11663385841E+00  0.51788641928E-01  0.13083310670E+00  0.23202536177E-01 0.  0.
         14    1    1    2    0    0  0.16007884768E-01 -0.11793481988E-01 -0.11262481549E-01  0.22851303744E-01  0.00000000000E+00 0. -1.
     999901    1    3    3    0    0  0.11217317790E-02  0.12842734040E+00 -0.40526160379E-01  0.89024558955E+00  0.88000000000E+00 0. -1.
        -11    1    4    4    0    0 -0.79967532046E-02 -0.10512752523E+00  0.46126364647E-01  0.11508104648E+00  0.51100000000E-03 0.  1.
         11    1    4    4    0    0 -0.91328633425E-02 -0.11506333182E-01  0.56622772808E-02  0.15752060219E-01  0.51100000000E-03 0. -1.
</event>
<event>
 8    1  0.1022673E+005  0.1043930E+01  0.7957747E-01            NaN
         13   -1    0    0    0    0  0.00000000000E+00  0.00000000000E+00  0.74505805969E-08  0.10566000000E+00  0.10566000000E+00 0.  1.
     999900   -1    0    0    0    0 -0.00000000000E+00 -0.00000000000E+00 -0.74505805969E-08  0.93827000000E+00  0.93827000000E+00 0. -1.
     999902    2    1    2    0    0  0.85394433411E-02  0.75610573506E-02  0.20277232932E-01  0.10206650509E+01  0.10203998669E+01 0.  0.
     999903    2    3    3    0    0  0.76128149851E-02 -0.65066822639E-01  0.11360614868E+00  0.13275404517E+00  0.20630878101E-01 0.  0.
         14    1    1    2    0    0 -0.85394433411E-02 -0.75610573506E-02 -0.20277232932E-01  0.23264949091E-01  0.00000000000E+00 0. -1.
     999901    1    3    3    0    0  0.92662835600E-03  0.72627879990E-01 -0.93328915749E-01  0.88791100574E+00  0.88000000000E+00 0.  1.
        -11    1    4    4    0    0  0.45317727168E-02 -0.57332527570E-01  0.82635896228E-01  0.10068022719E+00  0.51100000000E-03 0.  1.
         11    1    4    4    0    0  0.30810422683E-02 -0.77342950686E-02  0.30970252454E-01  0.32073817978E-01  0.51100000000E-03 0. -1.
</event>
<event>
 8    1  0.1022673E+005  0.1043930E+01  0.7957747E-01            NaN
         13   -1    0    0    0    0  0.00000000000E+00  0.00000000000E+00  0.74505805969E-08  0.10566000000E+00  0.10566000000E+00 0.  1.
     999900   -1    0    0    0    0 -0.00000000000E+00 -0.00000000000E+00 -0.74505805969E-08  0.93827000000E+00  0.93827000000E+00 0. -1.
     999902    2    1    2    0    0 -0.18195466777E-01  0.17242212864E-01 -0.10441056845E-02  0.10188409771E+01  0.10185320208E+01 0.  0.
     999903    2    3    3    0    0 -0.88582447489E-01 -0.44171259025E-01 -0.82169631980E-01  0.13018621135E+00  0.19966248522E-01 0.  0.
         14    1    1    2    0    0  0.18195466777E-01 -0.17242212864E-01  0.10441056845E-02  0.25089022946E-01  0.00000000000E+00 0. -1.
     999901    1    3    3    0    0  0.70386980712E-01  0.61413471890E-01  0.81125526296E-01  0.88865476570E+00  0.88000000000E+00 0.  1.
        -11    1    4    4    0    0 -0.63950854966E-01 -0.37525172652E-01 -0.69778495166E-01  0.10181920223E+00  0.51100000000E-03 0.  1.
         11    1    4    4    0    0 -0.24631592524E-01 -0.66460863732E-02 -0.12391136815E-01  0.28367009129E-01  0.51100000000E-03 0. -1.
</event>
<event>
 8    1  0.1022673E+005  0.1043930E+01  0.7957747E-01            NaN
         13   -1    0    0    0    0  0.00000000000E+00  0.00000000000E+00  0.74505805969E-08  0.10566000000E+00  0.10566000000E+00 0.  1.
     999900   -1    0    0    0    0 -0.00000000000E+00 -0.00000000000E+00 -0.74505805969E-08  0.93827000000E+00  0.93827000000E+00 0.  1.
     999902    2    1    2    0    0 -0.11347469942E-01 -0.14981373165E-01  0.69423608597E-02  0.10238949559E+01  0.10236989195E+01 0.  0.
     999903    2    3    3    0    0 -0.87498021219E-02  0.55052206421E-01 -0.11840880790E+00  0.13225356746E+00  0.19054024490E-01 0.  0.
         14    1    1    2    0    0  0.11347469942E-01  0.14981373165E-01 -0.69423608597E-02  0.20035044056E-01  0.00000000000E+00 0. -1.
     999901    1    3    3    0    0 -0.25976678202E-02 -0.70033579586E-01  0.12535116876E+00  0.89164138848E+00  0.88000000000E+00 0. -1.
        -11    1    4    4    0    0  0.16668044435E-02  0.36852820711E-01 -0.86829808426E-01  0.94342913797E-01  0.51100000000E-03 0.  1.
         11    1    4    4    0    0 -0.10416606565E-01  0.18199385711E-01 -0.31578999472E-01  0.37910653664E-01  0.51100000000E-03 0. -1.
</event>
<event>
 8    1  0.1022673E+005  0.1043930E+01  0.7957747E-01            NaN
         13   -1    0    0    0    0  0.00000000000E+00  0.00000000000E+00  0.74505805969E-08  0.10566000000E+00  0.10566000000E+00 0. -1.
     999900   -1    0    0    0    0 -0.00000000000E+00 -0.00000000000E+00 -0.74505805969E-08  0.93827000000E+00  0.93827000000E+00 0.  1.
     999902    2    1    2    0    0 -0.18598146433E-01  0.16512481015E-01  0.10565733628E-03  0.10190590482E+01  0.10187555052E+01 0.  0.
     999903    2    3    3    0    0 -0.10449066622E-01  0.95743981021E-01  0.86936851145E-01  0.13120562881E+00  0.19514303742E-01 0.  0.
         14    1    1    2    0    0  0.18598146433E-01 -0.16512481015E-01 -0.10565733628E-03  0.24870951801E-01  0.00000000000E+00 0.  1.
     999901    1    3    3    0    0 -0.81490798111E-02 -0.79231500006E-01 -0.86831193809E-01  0.88785341938E+00  0.88000000000E+00 0.  1.
        -11    1    4    4    0    0  0.40597111047E-02  0.38358567030E-01  0.27932744978E-01  0.47627306053E-01  0.51100000000E-03 0. -1.
         11    1    4    4    0    0 -0.14508777727E-01  0.57385413991E-01  0.59004106168E-01  0.83578322761E-01  0.51100000000E-03 0.  1.
</event>
<event>
 8    1  0.1022673E+005  0.1043930E+01  0.7957747E-01            NaN
         13   -1    0    0    0    0  0.00000000000E+00  0.00000000000E+00  0.74505805969E-08  0.10566000000E+00  0.10566000000E+00 0. -1.
     999900   -1    0    0    0    0 -0.00000000000E+00 -0.00000000000E+00 -0.74505805969E-08  0.93827000000E+00  0.93827000000E+00 0. -1.
     999902    2    1    2    0    0  0.33968162405E-02 -0.86539118063E-02  0.21221747292E-01  0.10207612472E+01  0.10204982766E+01 0.  0.
     999903    2    3    3    0    0 -0.68765157002E-01 -0.37625451186E-01  0.10599450338E+00  0.13327427787E+00  0.19567243058E-01 0.  0.
         14    1    1    2    0    0 -0.33968162405E-02  0.86539118063E-02 -0.21221747292E-01  0.23168752842E-01  0.00000000000E+00 0.  1.
     999901    1    3    3    0    0  0.72161973243E-01  0.28971539380E-01 -0.84772756090E-01  0.88748696929E+00  0.88000000000E+00 0. -1.
        -11    1    4    4    0    0 -0.34603102263E-01 -0.96304963956E-02  0.38933497211E-01  0.52973573347E-01  0.51100000000E-03 0. -1.
         11    1    4    4    0    0 -0.34162054739E-01 -0.27994954791E-01  0.67061006171E-01  0.80300704526E-01  0.51100000000E-03 0.  1.
</event>
<event>
 8    1  0.1022673E+005  0.1043930E+01  0.7957747E-01            NaN
         13   -1    0    0    0    0  0.00000000000E+00  0.00000000000E+00  0.74505805969E-08  0.10566000000E+00  0.10566000000E+00 0. -1.
     999900   -1    0    0    0    0 -0.00000000000E+00 -0.00000000000E+00 -0.74505805969E-08  0.93827000000E+00  0.93827000000E+00 0. -1.
     999902    2    1    2    0    0 -0.17351104270E-02  0.22966884454E-01  0.23790776480E-02  0.10207751215E+01  0.10205124694E+01 0.  0.
     999903    2    3    3    0    0 -0.10297047276E+00  0.75451724592E-01 -0.22297669700E-01  0.13307460953E+00  0.30261933552E-01 0.  0.
         14    1    1    2    0    0  0.17351104270E-02 -0.22966884454E-01 -0.23790776480E-02  0.23154878539E-01  0.00000000000E+00 0. -1.
     999901    1    3    3    0    0  0.10123536233E+00 -0.52484840138E-01  0.24676747348E-01  0.88770051194E+00  0.88000000000E+00 0. -1.
        -11    1    4    4    0    0 -0.42206895210E-01  0.17072748886E-01  0.13579464587E-02  0.45552232628E-01  0.51100000000E-03 0. -1.
         11    1    4    4    0    0 -0.60763577548E-01  0.58378975706E-01 -0.23655616158E-01  0.87522376897E-01  0.51100000000E-03 0.  1.
</event>
<event>
 8    1  0.1022673E+005  0.1043930E+01  0.7957747E-01            NaN
         13   -1    0    0    0    0  0.00000000000E+00  0.00000000000E+00  0.74505805969E-08  0.10566000000E+00  0.10566000000E+00 0.  1.
     999900   -1    0    0    0    0 -0.00000000000E+00 -0.00000000000E+00 -0.74505805969E-08  0.93827000000E+00  0.93827000000E+00 0. -1.
     999902    2    1    2    0    0 -0.83354015231E-02  0.15737500462E-01 -0.16163334899E-01  0.10198800263E+01  0.10195964235E+01 0.  0.
     999903    2    3    3    0    0  0.81229759522E-02  0.83265867276E-01 -0.10143643833E+00  0.13303028668E+00  0.20211847090E-01 0.  0.
         14    1    1    2    0    0  0.83354015231E-02 -0.15737500462E-01  0.16163334899E-01  0.24049973688E-01  0.00000000000E+00 0.  1.
     999901    1    3    3    0    0 -0.16458377475E-01 -0.67528366814E-01  0.85273103427E-01  0.88684973963E+00  0.88000000000E+00 0.  1.
        -11    1    4    4    0    0  0.75116264959E-03  0.25878513011E-01 -0.46606279606E-01  0.53316677510E-01  0.51100000000E-03 0. -1.
         11    1    4    4    0    0  0.73718133026E-02  0.57387354265E-01 -0.54830158721E-01  0.79713609172E-01  0.51100000000E-03 0.  1.
</event>
<event>
 8    1  0.1022673E+005  0.1043930E+01  0.7957747E-01            NaN
         13   -1    0    0    0    0  0.00000000000E+00  0.00000000000E+00  0.74505805969E-08  0.10566000000E+00  0.10566000000E+00 0.  1.
     999900   -1    0    0    0    0 -0.00000000000E+00 -0.00000000000E+00 -0.74505805969E-08  0.93827000000E+00  0.93827000000E+00 0.  1.
     999902    2    1    2    0    0  0.35864310917E-02  0.20876735331E-01 -0.99123445316E-02  0.10205429279E+01  0.10202749201E+01 0.  0.
     999903    2    3    3    0    0  0.61045556096E-02  0.12067245680E+00  0.51647668407E-01  0.13276189515E+00  0.18950771010E-01 0.  0.
         14    1    1    2    0    0 -0.35864310917E-02 -0.20876735331E-01  0.99123445316E-02  0.23387072073E-01  0.00000000000E+00 0. -1.
     999901    1    3    3    0    0 -0.25181245179E-02 -0.99795721467E-01 -0.61560012939E-01  0.88778103278E+00  0.88000000000E+00 0. -1.
        -11    1    4    4    0    0 -0.64312334951E-02  0.37187933750E-01  0.13060044005E-01  0.39939066730E-01  0.51100000000E-03 0.  1.
         11    1    4    4    0    0  0.12535789105E-01  0.83484523047E-01  0.38587624403E-01  0.92822828415E-01  0.51100000000E-03 0. -1.
</event>
<event>
 8    1  0.1022673E+005  0.1043930E+01  0.7957747E-01            NaN
         13   -1    0    0    0    0  0.00000000000E+00  0.00000000000E+00  0.74505805969E-08  0.10566000000E+00  0.10566000000E+00 0.  1.
     999900   -1    0    0    0    0 -0.00000000000E+00 -0.00000000000E+00 -0.74505805969E-08  0.93827000000E+00  0.93827000000E+00 0.  1.
     999902    2    1    2    0    0 -0.48986693874E-02 -0.21867863982E-01 -0.59745688670E-02  0.10207374169E+01  0.10204738989E+01 0.  0.
     999903    2    3    3    0    0  0.23944605748E-01 -0.11322498634E-01  0.12601135899E+00  0.13036478459E+00  0.20361025160E-01 0.  0.
         14    1    1    2    0    0  0.48986693874E-02  0.21867863982E-01  0.59745688670E-02  0.23192583083E-01  0.00000000000E+00 0. -1.
     999901    1    3    3    0    0 -0.28843275136E-01 -0.10545365347E-01 -0.13198592786E+00  0.89037263233E+00  0.88000000000E+00 0.  1.
        -11    1    4    4    0    0 -0.10950427155E-02  0.33646960512E-02  0.25319484683E-01  0.25570641832E-01  0.51100000000E-03 0.  1.
         11    1    4    4    0    0  0.25039648464E-01 -0.14687194686E-01  0.10069187431E+00  0.10479414275E+00  0.51100000000E-03 0. -1.
</event>
<event>
 8    1  0.1022673E+005  0.1043930E+01  0.7957747E-01            NaN
         13   -1    0    0    0    0  0.00000000000E+00  0.00000000000E+00  0.74505805969E-08  0.10566000000E+00  0.10566000000E+00 0.  1.
     999900   -1    0    0    0    0 -0.00000000000E+00 -0.00000000000E+00 -0.74505805969E-08  0.93827000000E+00  0.93827000000E+00 0.  1.
     999902    2    1    2    0    0  0.17535390290E-02  0.22460248827E-01  0.83069698961E-02  0.10199186813E+01  0.10196360003E+01 0.  0.
     999903    2    3    3    0    0  0.10826058548E+00  0.70109159816E-01  0.19172524256E-01  0.13215056410E+00  0.21460131547E-01 0.  0.
         14    1    1    2    0    0 -0.17535390290E-02 -0.22460248827E-01 -0.83069698961E-02  0.24011318693E-01  0.00000000000E+00 0. -1.
     999901    1    3    3    0    0 -0.10650704645E+00 -0.47648910989E-01 -0.10865554360E-01  0.88776811721E+00  0.88000000000E+00 0. -1.
        -11    1    4    4    0    0  0.65368819230E-01  0.50389744040E-01  0.20026316470E-01  0.84932463194E-01  0.51100000000E-03 0.  1.
         11    1    4    4    0    0  0.42891766252E-01  0.19719415777E-01 -0.85379221446E-03  0.47218100903E-01  0.51100000000E-03 0. -1.
</event>
<event>
 8    1  0.1022673E+005  0.1043930E+01  0.7957747E-01            NaN
         13   -1    0    0    0    0  0.00000000000E+00  0.00000000000E+00  0.74505805969E-08  0.10566000000E+00  0.10566000000E+00 0.  1.
     999900   -1    0    0    0    0 -0.00000000000E+00 -0.00000000000E+00 -0.74505805969E-08  0.93827000000E+00  0.93827000000E+00 0. -1.
     999902    2    1    2    0    0 -0.90538472435E-02  0.26567240581E-02 -0.24375140116E-01  0.10177923301E+01  0.10174566573E+01 0.  0.
     999903    2    3    3    0    0  0.17972427806E-01 -0.11477964864E+00  0.46397051451E-01  0.12676459524E+00  0.20474382020E-01 0.  0.
         14    1    1    2    0    0  0.90538472435E-02 -0.26567240581E-02  0.24375140116E-01  0.26137669909E-01  0.00000000000E+00 0.  1.
     999901    1    3    3    0    0 -0.27026275049E-01  0.11743637270E+00 -0.70772191567E-01  0.89102773485E+00  0.88000000000E+00 0. -1.
        -11    1    4    4    0    0  0.16316816086E-01 -0.74871073312E-01  0.39554866386E-01  0.86236678286E-01  0.51100000000E-03 0. -1.
         11    1    4    4    0    0  0.16556117204E-02 -0.39908575330E-01  0.68421850653E-02  0.40527916952E-01  0.51100000000E-03 0.  1.
</event>
<event>
 8    1  0.1022673E+005  0.1043930E+01  0.7957747E-01            NaN
         13   -1    0    0    0    0  0.00000000000E+00  0.00000000000E+00  0.74505805969E-08  0.10566000000E+00  0.10566000000E+00 0. -1.
     999900   -1    0    0    0    0 -0.00000000000E+00 -0.00000000000E+00 -0.74505805969E-08  0.93827000000E+00  0.93827000000E+00 0.  1.
     999902    2    1    2    0    0 -0.79102638723E-02 -0.12298114493E-01 -0.18319316461E-01  0.10204904341E+01  0.10202212078E+01 0.  0.
     999903    2    3    3    0    0  0.12006183304E+00  0.32257782726E-01 -0.32354558690E-01  0.13000793926E+00  0.19995962166E-01 0.  0.
         14    1    1    2    0    0  0.79102638723E-02  0.12298114493E-01  0.18319316461E-01  0.23439565913E-01  0.00000000000E+00 0. -1.
     999901    1    3    3    0    0 -0.12797209692E+00 -0.44555897219E-01  0.14035242229E-01  0.89048249483E+00  0.88000000000E+00 0.  1.
        -11    1    4    4    0    0  0.78253919556E-01  0.25105712211E-01 -0.30123745089E-01  0.87530987945E-01  0.51100000000E-03 0. -1.
         11    1    4    4    0    0  0.41807913487E-01  0.71520705148E-02 -0.22308136009E-02  0.42476951316E-01  0.51100000000E-03 0.  1.
</event>
<event>
 8    1  0.1022673E+005  0.1043930E+01  0.7957747E-01            NaN
         13   -1    0    0    0    0  0.00000000000E+00  0.00000000000E+00  0.74505805969E-08  0.10566000000E+00  0.10566000000E+00 0.  1.
     999900   -1    0    0    0    0 -0.00000000000E+00 -0.00000000000E+00 -0.74505805969E-08  0.93827000000E+00  0.93827000000E+00 0. -1.
     999902    2    1    2    0    0  0.21575149861E-01  0.73581304297E-02  0.62411948393E-02  0.10202956672E+01  0.10200218952E+01 0.  0.
     999903    2    3    3    0    0 -0.13673632223E-01  0.82614681177E-01  0.99394686691E-01  0.13148545228E+00  0.19924022028E-01 0.  0.
         14    1    1    2    0    0 -0.21575149861E-01 -0.73581304297E-02 -0.62411948393E-02  0.23634332822E-01  0.00000000000E+00 0.  1.
     999901    1    3    3    0    0  0.35248782083E-01 -0.75256550747E-01 -0.93153491852E-01  0.88881021490E+00  0.88000000000E+00 0. -1.
        -11    1    4    4    0    0 -0.11642969013E-01  0.21377836866E-01  0.34592515503E-01  0.42302173542E-01  0.51100000000E-03 0.  1.
         11    1    4    4    0    0 -0.20306632099E-02  0.61236844311E-01  0.64802171188E-01  0.89183278735E-01  0.51100000000E-03 0. -1.
</event>
<event>
 8    1  0.1022673E+005  0.1043930E+01  0.7957747E-01            NaN
         13   -1    0    0    0    0  0.00000000000E+00  0.00000000000E+00  0.74505805969E-08  0.10566000000E+00  0.10566000000E+00 0.  1.
     999900   -1    0    0    0    0 -0.00000000000E+00 -0.00000000000E+00 -0.74505805969E-08  0.93827000000E+00  0.93827000000E+00 0. -1.
     999902    2    1    2    0    0  0.17888076272E-01 -0.13169391873E-01 -0.81885283540E-02  0.10202557914E+01  0.10199810840E+01 0.  0.
     999903    2    3    3    0    0  0.67856614575E-01  0.37254381519E-01 -0.10516906896E+00  0.13208652997E+00  0.19847147107E-01 0.  0.
         14    1    1    2    0    0 -0.17888076272E-01  0.13169391873E-01  0.81885283540E-02  0.23674208574E-01  0.00000000000E+00 0.  1.
     999901    1    3    3    0    0 -0.49968538303E-01 -0.50423773392E-01  0.96980540609E-01  0.88816926146E+00  0.88000000000E+00 0.  1.
        -11    1    4    4    0    0  0.50833957634E-01  0.24310200086E-01 -0.88717760094E-01  0.10510080473E+00  0.51100000000E-03 0. -1.
         11    1    4    4    0    0  0.17022656940E-01  0.12944181433E-01 -0.16451308869E-01  0.26985725241E-01  0.51100000000E-03 0.  1.
</event>
<event>
 8    1  0.1022673E+005  0.1043930E+01  0.7957747E-01            NaN
         13   -1    0    0    0    0  0.00000000000E+00  0.00000000000E+00  0.74505805969E-08  0.10566000000E+00  0.10566000000E+00 0.  1.
     999900   -1    0    0    0    0 -0.00000000000E+00 -0.00000000000E+00 -0.74505805969E-08  0.93827000000E+00  0.93827000000E+00 0.  1.
     999902    2    1    2    0    0  0.58636592094E-02 -0.18881534071E-01  0.11418953864E-01  0.10210982822E+01  0.10208429922E+01 0.  0.
     999903    2    3    3    0    0 -0.10281368847E+00 -0.47190395822E-01 -0.62826839832E-01  0.13085977744E+00  0.19480286297E-01 0.  0.
         14    1    1    2    0    0 -0.58636592094E-02  0.18881534071E-01 -0.11418953864E-01  0.22831717753E-01  0.00000000000E+00 0. -1.
     999901    1    3    3    0    0  0.10867734768E+00  0.28308861751E-01  0.74245793696E-01  0.89023850480E+00  0.88000000000E+00 0. -1.
        -11    1    4    4    0    0 -0.71315633987E-01 -0.24017728187E-01 -0.46645846089E-01  0.88537376269E-01  0.51100000000E-03 0. -1.
         11    1    4    4    0    0 -0.31498054485E-01 -0.23172667635E-01 -0.16180993743E-01  0.42322401175E-01  0.51100000000E-03 0.  1.
</event>
<event>
 8    1  0.1022673E+005  0.1043930E+01  0.7957747E-01            NaN
         13   -1    0    0    0    0  0.00000000000E+00  0.00000000000E+00  0.74505805969E-08  0.10566000000E+00  0.10566000000E+00 0.  1.
     999900   -1    0    0    0    0 -0.00000000000E+00 -0.00000000000E+00 -0.74505805969E-08  0.93827000000E+00  0.93827000000E+00 0. -1.
     999902    2    1    2    0    0 -0.19757910683E-01 -0.22397724012E-02  0.81204727947E-02  0.10224513200E+01  0.10222256933E+01 0.  0.
     999903    2    3    3    0    0  0.75104894027E-01  0.66461706712E-01  0.79565272685E-01  0.13182052987E+00  0.31434311052E-01 0.  0.
         14    1    1    2    0    0  0.19757910683E-01  0.22397724012E-02 -0.81204727947E-02  0.21478679973E-01  0.00000000000E+00 0.  1.
     999901    1    3    3    0    0 -0.94862804709E-01 -0.68701479113E-01 -0.71444799890E-01  0.89063079016E+00  0.88000000000E+00 0. -1.
        -11    1    4    4    0    0  0.26114294514E-01  0.29782664579E-01  0.50173984076E-01  0.63926937096E-01  0.51100000000E-03 0. -1.
         11    1    4    4    0    0  0.48990599512E-01  0.36679042132E-01  0.29391288609E-01  0.67893592772E-01  0.51100000000E-03 0.  1.
</event>
<event>
 8    1  0.1022673E+005  0.1043930E+01  0.7957747E-01            NaN
         13   -1    0    0    0    0  0.00000000000E+00  0.00000000000E+00  0.74505805969E-08  0.10566000000E+00  0.10566000000E+00 0.  1.
     999900   -1    0    0    0    0 -0.00000000000E+00 -0.00000000000E+00 -0.74505805969E-08  0.93827000000E+00  0.93827000000E+00 0. -1.
     999902    2    1    2    0    0  0.42292033906E-02  0.21419436775E-01 -0.80013389090E-02  0.10206770463E+01  0.10204121388E+01 0.  0.
     999903    2    3    3    0    0  0.74154896110E-01 -0.94291423548E-01  0.41881494180E-01  0.12895573176E+00  0.22038603135E-01 0.  0.
         14    1    1    2    0    0 -0.42292033906E-02 -0.21419436775E-01  0.80013389090E-02  0.23252953735E-01  0.00000000000E+00 0. -1.
     999901    1    3    3    0    0 -0.69925692720E-01  0.11571086032E+00 -0.49882833089E-01  0.89172131450E+00  0.88000000000E+00 0. -1.
        -11    1    4    4    0    0  0.49185342753E-01 -0.59822692004E-01  0.15825899522E-01  0.79048546078E-01  0.51100000000E-03 0. -1.
         11    1    4    4    0    0  0.24969553357E-01 -0.34468731544E-01  0.26055594658E-01  0.49907185686E-01  0.51100000000E-03 0.  1.
</event>
<event>
 8    1  0.1022673E+005  0.1043930E+01  0.7957747E-01            NaN
         13   -1    0    0    0    0  0.00000000000E+00  0.00000000000E+00  0.74505805969E-08  0.10566000000E+00  0.10566000000E+00 0. -1.
     999900   -1    0    0    0    0 -0.00000000000E+00 -0.00000000000E+00 -0.74505805969E-08  0.93827000000E+00  0.93827000000E+00 0.  1.
     999902    2    1    2    0    0  0.19556151787E-01  0.10932279789E-01  0.74996363799E-02  0.10203036935E+01  0.10200301096E+01 0.  0.
     999903    2    3    3    0    0 -0.78544771902E-01  0.26666392317E-02 -0.99713817083E-01  0.12834694753E+00  0.18806952547E-01 0.  0.
         14    1    1    2    0    0 -0.19556151787E-01 -0.10932279789E-01 -0.74996363799E-02  0.23626306524E-01  0.00000000000E+00 0.  1.
     999901    1    3    3    0    0  0.98100923690E-01  0.82656405576E-02  0.10721345346E+00  0.89195674595E+00  0.88000000000E+00 0. -1.
        -11    1    4    4    0    0 -0.61455285913E-01 -0.31125145315E-02 -0.66897850197E-01  0.90895673138E-01  0.51100000000E-03 0.  1.
         11    1    4    4    0    0 -0.17089485989E-01  0.57791537632E-02 -0.32815966886E-01  0.37451274388E-01  0.51100000000E-03 0. -1.
</event>
<event>
 8    1  0.1022673E+005  0.1043930E+01  0.7957747E-01            NaN
         13   -1    0    0    0    0  0.00000000000E+00  0.00000000000E+00  0.74505805969E-08  0.10566000000E+00  0.10566000000E+00 0.  1.
     999900   -1    0    0    0    0 -0.00000000000E+00 -0.00000000000E+00 -0.74505805969E-08  0.93827000000E+00  0.93827000000E+00 0.  1.
     999902    2    1    2    0    0  0.16291870015E-01 -0.18787920630E-01 -0.69738051453E-03  0.10190523528E+01  0.10187486444E+01 0.  0.
     999903    2    3    3    0    0  0.10236331971E-01 -0.14300014001E-01 -0.12715632551E+00  0.12998054715E+00  0.20419075090E-01 0.  0.
         14    1    1    2    0    0 -0.16291870015E-01  0.18787920630E-01  0.69738051453E-03  0.24877647191E-01  0.00000000000E+00 0. -1.
     999901    1    3    3    0    0  0.60555380442E-02 -0.44879066289E-02  0.12645894500E+00  0.88907180566E+00  0.88000000000E+00 0. -1.
        -11    1    4    4    0    0 -0.97972285355E-03 -0.14879310490E-01 -0.87432151247E-01  0.88696087457E-01  0.51100000000E-03 0.  1.
         11    1    4    4    0    0  0.11216054824E-01  0.57929648920E-03 -0.39724174264E-01  0.41284459694E-01  0.51100000000E-03 0. -1.
</event>
<event>
 8    1  0.1022673E+005  0.1043930E+01  0.7957747E-01            NaN
         13   -1    0    0    0    0  0.00000000000E+00  0.00000000000E+00  0.74505805969E-08  0.10566000000E+00  0.10566000000E+00 0.  1.
     999900   -1    0    0    0    0 -0.00000000000E+00 -0.00000000000E+00 -0.74505805969E-08  0.93827000000E+00  0.93827000000E+00 0. -1.
     999902    2    1    2    0    0 -0.89647176659E-02 -0.11039347618E-01 -0.27703487912E-01  0.10127897270E+01  0.10123108784E+01 0.  0.
     999903    2    3    3    0    0 -0.41094590858E-01  0.69168066425E-01  0.88192929765E-01  0.12099516680E+00  0.19719298078E-01 0.  0.
         14    1    1    2    0    0  0.89647176659E-02  0.11039347618E-01  0.27703487912E-01  0.31140272978E-01  0.00000000000E+00 0.  1.
     999901    1    3    3    0    0  0.32129873192E-01 -0.80207414043E-01 -0.11589641768E+00  0.89179456023E+00  0.88000000000E+00 0. -1.
        -11    1    4    4    0    0 -0.21853606268E-01  0.40795403298E-01  0.64219521550E-01  0.79159668432E-01  0.51100000000E-03 0. -1.
         11    1    4    4    0    0 -0.19240984590E-01  0.28372663127E-01  0.23973408214E-01  0.41835498363E-01  0.51100000000E-03 0.  1.
</event>
<event>
 8    1  0.1022673E+005  0.1043930E+01  0.7957747E-01            NaN
         13   -1    0    0    0    0  0.00000000000E+00  0.00000000000E+00  0.74505805969E-08  0.10566000000E+00  0.10566000000E+00 0.  1.
     999900   -1    0    0    0    0 -0.00000000000E+00 -0.00000000000E+00 -0.74505805969E-08  0.93827000000E+00  0.93827000000E+00 0.  1.
     999902    2    1    2    0    0  0.69991271818E-02 -0.98855175573E-02  0.19389955862E-01  0.10210677685E+01  0.10208117879E+01 0.  0.
     999903    2    3    3    0    0  0.47207973979E-01 -0.92080852728E-01  0.82792033916E-01  0.13405443833E+00  0.20213740602E-01 0.  0.
         14    1    1    2    0    0 -0.69991271818E-02  0.98855175573E-02 -0.19389955862E-01  0.22862231453E-01  0.00000000000E+00 0. -1.
     999901    1    3    3    0    0 -0.40208846797E-01  0.82195335171E-01 -0.63402078053E-01  0.88701333022E+00  0.88000000000E+00 0.  1.
        -11    1    4    4    0    0  0.68391371687E-02 -0.33920125828E-01  0.25771236926E-01  0.43148192396E-01  0.51100000000E-03 0. -1.
         11    1    4    4    0    0  0.40368836810E-01 -0.58160726901E-01  0.57020796989E-01  0.90906245931E-01  0.51100000000E-03 0.  1.
</event>
<event>
 8    1  0.1022673E+005  0.1043930E+01  0.7957747E-01            NaN
         13   -1    0    0    0    0  0.00000000000E+00  0.00000000000E+00  0.74505805969E-08  0.10566000000E+00  0.10566000000E+00 0. -1.
     999900   -1    0    0    0    0 -0.00000000000E+00 -0.00000000000E+00 -0.74505805969E-08  0.93827000000E+00  0.93827000000E+00 0.  1.
     999902    2    1    2    0    0  0.88786868401E-02 -0.20956291140E-01 -0.85066163382E-02  0.10196326804E+01  0.10193431430E+01 0.  0.
     999903    2    3    3    0    0  0.15324520760E-01 -0.12236993462E+00 -0.45614457530E-01  0.13300803167E+00  0.20030374872E-01 0.  0.
         14    1    1    2    0    0 -0.88786868401E-02  0.20956291140E-01  0.85066163382E-02  0.24297319602E-01  0.00000000000E+00 0. -1.
     999901    1    3    3    0    0 -0.64458339203E-02  0.10141364348E+00  0.37107841192E-01  0.88662464873E+00  0.88000000000E+00 0.  1.
        -11    1    4    4    0    0 -0.44179001125E-02 -0.34907578377E-01 -0.15113203882E-01  0.38297870987E-01  0.51100000000E-03 0. -1.
         11    1    4    4    0    0  0.19742420873E-01 -0.87462356240E-01 -0.30501253648E-01  0.94710160680E-01  0.51100000000E-03 0.  1.
</event>
<event>
 8    1  0.1022673E+005  0.1043930E+01  0.7957747E-01            NaN
         13   -1    0    0    0    0  0.00000000000E+00  0.00000000000E+00  0.74505805969E-08  0.10566000000E+00  0.10566000000E+00 0.  1.
     999900   -1    0    0    0    0 -0.00000000000E+00 -0.00000000000E+00 -0.74505805969E-08  0.93827000000E+00  0.93827000000E+00 0.  1.
     999902    2    1    2    0    0 -0.18856559575E-01  0.13081030013E-01  0.71474535843E-02  0.10198931683E+01  0.10196098791E+01 0.  0.
     999903    2    3    3    0    0 -0.33458448233E-01 -0.43983698447E-01  0.11755819370E+00  0.13103990149E+00  0.17247996739E-01 0.  0.
         14    1    1    2    0    0  0.18856559575E-01 -0.13081030013E-01 -0.71474535843E-02  0.24036831696E-01  0.00000000000E+00 0. -1.
     999901    1    3    3    0    0  0.14601888657E-01  0.57064728461E-01 -0.11041074011E+00  0.88885326681E+00  0.88000000000E+00 0. -1.
        -11    1    4    4    0    0 -0.11957477938E-01 -0.26672155855E-01  0.72812770737E-01  0.78462385128E-01  0.51100000000E-03 0. -1.
         11    1    4    4    0    0 -0.21500970295E-01 -0.17311542592E-01  0.44745422959E-01  0.52577516366E-01  0.51100000000E-03 0.  1.
</event>
<event>
 8    1  0.1022673E+005  0.1043930E+01  0.7957747E-01            NaN
         13   -1    0    0    0    0  0.00000000000E+00  0.00000000000E+00  0.74505805969E-08  0.10566000000E+00  0.10566000000E+00 0. -1.
     999900   -1    0    0    0    0 -0.00000000000E+00 -0.00000000000E+00 -0.74505805969E-08  0.93827000000E+00  0.93827000000E+00 0.  1.
     999902    2    1    2    0    0 -0.14339360657E-01  0.15701642833E-01 -0.94771330195E-02  0.10206496456E+01  0.10203841062E+01 0.  0.
     999903    2    3    3    0    0 -0.11271793659E+00 -0.13966639617E-01 -0.65769690854E-01  0.13288424681E+00  0.20788712419E-01 0.  0.
         14    1    1    2    0    0  0.14339360657E-01 -0.15701642833E-01  0.94771330195E-02  0.23280354422E-01  0.00000000000E+00 0.  1.
     999901    1    3    3    0    0  0.98378575930E-01  0.29668282450E-01  0.56292557835E-01  0.88776539877E+00  0.88000000000E+00 0. -1.
        -11    1    4    4    0    0 -0.53644524598E-01 -0.46275710315E-02 -0.19506417895E-01  0.57270506311E-01  0.51100000000E-03 0. -1.
         11    1    4    4    0    0 -0.59073411989E-01 -0.93390685853E-02 -0.46263272960E-01  0.75613740498E-01  0.51100000000E-03 0.  1.
</event>
<event>
 8    1  0.1022673E+005  0.1043930E+01  0.7957747E-01            NaN
         13   -1    0    0    0    0  0.00000000000E+00  0.00000000000E+00  0.74505805969E-08  0.10566000000E+00  0.10566000000E+00 0.  1.
     999900   -1    0    0    0    0 -0.00000000000E+00 -0.00000000000E+00 -0.74505805969E-08  0.93827000000E+00  0.93827000000E+00 0. -1.
     999902    2    1    2    0    0  0.20543177743E-01 -0.33110648754E-02  0.29816021002E-02  0.10229091710E+01  0.10226931587E+01 0.  0.
     999903    2    3    3    0    0  0.28879757801E-02  0.43475421694E-01 -0.12353072279E+00  0.13245644912E+00  0.19657536632E-01 0.  0.
         14    1    1    2    0    0 -0.20543177743E-01  0.33110648754E-02 -0.29816021002E-02  0.21020829039E-01  0.00000000000E+00 0.  1.
     999901    1    3    3    0    0  0.17655201963E-01 -0.46786486569E-01  0.12651232489E+00  0.89045272184E+00  0.88000000000E+00 0.  1.
        -11    1    4    4    0    0  0.94745229710E-02  0.17306589725E-01 -0.66399811432E-01  0.69271066923E-01  0.51100000000E-03 0.  1.
         11    1    4    4    0    0 -0.65865471909E-02  0.26168831969E-01 -0.57130911355E-01  0.63185382200E-01  0.51100000000E-03 0. -1.
</event>
<event>
 8    1  0.1022673E+005  0.1043930E+01  0.7957747E-01            NaN
         13   -1    0    0    0    0  0.00000000000E+00  0.00000000000E+00  0.74505805969E-08  0.10566000000E+00  0.10566000000E+00 0. -1.
     999900   -1    0    0    0    0 -0.00000000000E+00 -0.00000000000E+00 -0.74505805969E-08  0.93827000000E+00  0.93827000000E+00 0. -1.
     999902    2    1    2    0    0 -0.12512185029E-01  0.18583781541E-01  0.54439025969E-02  0.10208746799E+01  0.10206143073E+01 0.  0.
     999903    2    3    3    0    0  0.10177200909E+00 -0.40252837786E-01 -0.64757963510E-01  0.12876990643E+00  0.20254929743E-01 0.  0.
         14    1    1    2    0    0  0.12512185029E-01 -0.18583781541E-01 -0.54439025969E-02  0.23055320125E-01  0.00000000000E+00 0. -1.
     999901    1    3    3    0    0 -0.11428419412E+00  0.58836619327E-01  0.70201866107E-01  0.89210477345E+00  0.88000000000E+00 0. -1.
        -11    1    4    4    0    0  0.72224373388E-01 -0.20350948387E-01 -0.37358011209E-01  0.83823644242E-01  0.51100000000E-03 0. -1.
         11    1    4    4    0    0  0.29547635707E-01 -0.19901889399E-01 -0.27399952301E-01  0.44946262187E-01  0.51100000000E-03 0.  1.
</event>
<event>
 8    1  0.1097507E+005  0.1043930E+01  0.7957747E-01            NaN
         13   -1    0    0    0    0  0.00000000000E+00  0.00000000000E+00  0.74505805969E-08  0.10566000000E+00  0.10566000000E+00 0.  1.
     999900   -1    0    0    0    0 -0.00000000000E+00 -0.00000000000E+00 -0.74505805969E-08  0.93827000000E+00  0.93827000000E+00 0. -1.
     999902    2    1    2    0    0 -0.17250160851E-01  0.11633828644E-01 -0.11243073423E-01  0.10202800377E+01  0.10200058993E+01 0.  0.
     999903    2    3    3    0    0  0.86304536947E-01  0.16136598489E-01  0.91353170952E-01  0.12827676428E+00  0.20016580710E-01 0.  0.
         14    1    1    2    0    0  0.17250160851E-01 -0.11633828644E-01  0.11243073423E-01  0.23649962332E-01  0.00000000000E+00 0. -1.
     999901    1    3    3    0    0 -0.10355469780E+00 -0.45027698447E-02 -0.10259624437E+00  0.89200327339E+00  0.88000000000E+00 0. -1.
        -11    1    4    4    0    0  0.47116012047E-01  0.17998056510E-01  0.45512606793E-01  0.67937523707E-01  0.51100000000E-03 0. -1.
         11    1    4    4    0    0  0.39188524899E-01 -0.18614580208E-02  0.45840564158E-01  0.60339240575E-01  0.51100000000E-03 0.  1.
</event>
<event>
 8    1  0.1022673E+005  0.1043930E+01  0.7957747E-01            NaN
         13   -1    0    0    0    0  0.00000000000E+00  0.00000000000E+00  0.74505805969E-08  0.10566000000E+00  0.10566000000E+00 0.  1.
     999900   -1    0    0    0    0 -0.00000000000E+00 -0.00000000000E+00 -0.74505805969E-08  0.93827000000E+00  0.93827000000E+00 0.  1.
     999902    2    1    2    0    0  0.61234559528E-02  0.18830236233E-01 -0.13186233335E-01  0.10201402699E+01  0.10198628432E+01 0.  0.
     999903    2    3    3    0    0  0.40642099224E-01  0.35845991776E-01  0.11603473143E+00  0.12987113619E+00  0.21580958314E-01 0.  0.
         14    1    1    2    0    0 -0.61234559528E-02 -0.18830236233E-01  0.13186233335E-01  0.23789730115E-01  0.00000000000E+00 0. -1.
     999901    1    3    3    0    0 -0.34518643271E-01 -0.17015755543E-01 -0.12922096477E+00  0.89026913369E+00  0.88000000000E+00 0.  1.
        -11    1    4    4    0    0  0.16188731461E-01  0.21227776879E-01  0.77321944446E-01  0.81802431207E-01  0.51100000000E-03 0.  1.
         11    1    4    4    0    0  0.24453367763E-01  0.14618214897E-01  0.38712786986E-01  0.48068704985E-01  0.51100000000E-03 0. -1.
</event>
<event>
 8    1  0.1022673E+005  0.1043930E+01  0.7957747E-01            NaN
         13   -1    0    0    0    0  0.00000000000E+00  0.00000000000E+00  0.74505805969E-08  0.10566000000E+00  0.10566000000E+00 0. -1.
     999900   -1    0    0    0    0 -0.00000000000E+00 -0.00000000000E+00 -0.74505805969E-08  0.93827000000E+00  0.93827000000E+00 0. -1.
     999902    2    1    2    0    0  0.14356336424E-01  0.10531843981E-01 -0.15511385495E-01  0.10203158684E+01  0.10200425697E+01 0.  0.
     999903    2    3    3    0    0  0.81269072473E-01  0.10309898833E+00  0.79627397315E-03  0.13278449978E+00  0.19925506106E-01 0.  0.
         14    1    1    2    0    0 -0.14356336424E-01 -0.10531843981E-01  0.15511385495E-01  0.23614131640E-01  0.00000000000E+00 0. -1.
     999901    1    3    3    0    0 -0.66912736049E-01 -0.92567144350E-01 -0.16307659468E-01  0.88753136858E+00  0.88000000000E+00 0. -1.
        -11    1    4    4    0    0  0.14535047033E-01  0.32488140632E-01  0.14543462122E-02  0.35624754285E-01  0.51100000000E-03 0. -1.
         11    1    4    4    0    0  0.66734025440E-01  0.70610847699E-01 -0.65807223910E-03  0.97159745493E-01  0.51100000000E-03 0.  1.
</event>
<event>
 8    1  0.1022673E+005  0.1043930E+01  0.7957747E-01            NaN
         13   -1    0    0    0    0  0.00000000000E+00  0.00000000000E+00  0.74505805969E-08  0.10566000000E+00  0.10566000000E+00 0.  1.
     999900   -1    0    0    0    0 -0.00000000000E+00 -0.00000000000E+00 -0.74505805969E-08  0.93827000000E+00  0.93827000000E+00 0. -1.
     999902    2    1    2    0    0 -0.17996085380E-01  0.27514213515E-02  0.15541499864E-01  0.10199932578E+01  0.10197123508E+01 0.  0.
     999903    2    3    3    0    0 -0.65483627755E-01  0.82197494355E-01 -0.74769977583E-01  0.13054235520E+00  0.20154983807E-01 0.  0.
         14    1    1    2    0    0  0.17996085380E-01 -0.27514213515E-02 -0.15541499864E-01  0.23936742186E-01  0.00000000000E+00 0. -1.
     999901    1    3    3    0    0  0.47487542375E-01 -0.79446073003E-01  0.90311477446E-01  0.88945090261E+00  0.88000000000E+00 0.  1.
        -11    1    4    4    0    0 -0.65729254764E-01  0.74827205219E-01 -0.68978351841E-01  0.12115163935E+00  0.51100000000E-03 0. -1.
         11    1    4    4    0    0  0.24562700915E-03  0.73702891355E-02 -0.57916257416E-02  0.93907158566E-02  0.51100000000E-03 0.  1.
</event>
<event>
 8    1  0.1022673E+005  0.1043930E+01  0.7957747E-01            NaN
         13   -1    0    0    0    0  0.00000000000E+00  0.00000000000E+00  0.74505805969E-08  0.10566000000E+00  0.10566000000E+00 0. -1.
     999900   -1    0    0    0    0 -0.00000000000E+00 -0.00000000000E+00 -0.74505805969E-08  0.93827000000E+00  0.93827000000E+00 0. -1.
     999902    2    1    2    0    0 -0.55677120829E-02  0.10598062562E-01  0.21072061278E-01  0.10196946928E+01  0.10194066492E+01 0.  0.
     999903    2    3    3    0    0 -0.12797949691E+00 -0.16773753935E-01  0.19247147877E-02  0.13059375238E+00  0.19771524544E-01 0.  0.
         14    1    1    2    0    0  0.55677120829E-02 -0.10598062562E-01 -0.21072061278E-01  0.24235307186E-01  0.00000000000E+00 0.  1.
     999901    1    3    3    0    0  0.12241178483E+00  0.27371816497E-01  0.19147346490E-01  0.88910094043E+00  0.88000000000E+00 0. -1.
        -11    1    4    4    0    0 -0.17996079724E-01 -0.53384217368E-02  0.66353162851E-02  0.19915977889E-01  0.51100000000E-03 0. -1.
         11    1    4    4    0    0 -0.10998341719E+00 -0.11435332198E-01 -0.47106014974E-02  0.11067777449E+00  0.51100000000E-03 0.  1.
</event>
<event>
 8    1  0.1022673E+005  0.1043930E+01  0.7957747E-01            NaN
         13   -1    0    0    0    0  0.00000000000E+00  0.00000000000E+00  0.74505805969E-08  0.10566000000E+00  0.10566000000E+00 0. -1.
     999900   -1    0    0    0    0 -0.00000000000E+00 -0.00000000000E+00 -0.74505805969E-08  0.93827000000E+00  0.93827000000E+00 0. -1.
     999902    2    1    2    0    0  0.17190698216E-01 -0.14003234073E-01 -0.10131478844E-01  0.10195526020E+01  0.10192611298E+01 0.  0.
     999903    2    3    3    0    0 -0.11073558244E+00 -0.53134540386E-02  0.59543823957E-01  0.12753506104E+00  0.20715279636E-01 0.  0.
         14    1    1    2    0    0 -0.17190698216E-01  0.14003234073E-01  0.10131478844E-01  0.24377398000E-01  0.00000000000E+00 0. -1.
     999901    1    3    3    0    0  0.12792628066E+00 -0.86897800349E-02 -0.69675302801E-01  0.89201754096E+00  0.88000000000E+00 0. -1.
        -11    1    4    4    0    0 -0.44831253822E-01 -0.10524827247E-01  0.31059392267E-01  0.55547819730E-01  0.51100000000E-03 0. -1.
         11    1    4    4    0    0 -0.65904328621E-01  0.52113732088E-02  0.28484431690E-01  0.71987241310E-01  0.51100000000E-03 0.  1.
</event>
<event>
 8    1  0.1022673E+005  0.1043930E+01  0.7957747E-01            NaN
         13   -1    0    0    0    0  0.00000000000E+00  0.00000000000E+00  0.74505805969E-08  0.10566000000E+00  0.10566000000E+00 0.  1.
     999900   -1    0    0    0    0 -0.00000000000E+00 -0.00000000000E+00 -0.74505805969E-08  0.93827000000E+00  0.93827000000E+00 0.  1.
     999902    2    1    2    0    0 -0.15175984962E-01  0.14991440115E-01 -0.94535114348E-02  0.10205971332E+01  0.10203303806E+01 0.  0.
     999903    2    3    3    0    0  0.84435099760E-01 -0.73011082508E-02 -0.96850218812E-01  0.13039630730E+00  0.20991422533E-01 0.  0.
         14    1    1    2    0    0  0.15175984962E-01 -0.14991440115E-01  0.94535114348E-02  0.23332866835E-01  0.00000000000E+00 0. -1.
     999901    1    3    3    0    0 -0.99611084723E-01  0.22292548366E-01  0.87396707378E-01  0.89020082587E+00  0.88000000000E+00 0. -1.
        -11    1    4    4    0    0  0.32012729773E-01  0.36754222261E-02 -0.25044071310E-01  0.40814093458E-01  0.51100000000E-03 0.  1.
         11    1    4    4    0    0  0.52422369987E-01 -0.10976530477E-01 -0.71806147503E-01  0.89582213841E-01  0.51100000000E-03 0. -1.
</event>
<event>
 8    1  0.1022673E+005  0.1043930E+01  0.7957747E-01            NaN
         13   -1    0    0    0    0  0.00000000000E+00  0.00000000000E+00  0.74505805969E-08  0.10566000000E+00  0.10566000000E+00 0. -1.
     999900   -1    0    0    0    0 -0.00000000000E+00 -0.00000000000E+00 -0.74505805969E-08  0.93827000000E+00  0.93827000000E+00 0. -1.
     999902    2    1    2    0    0  0.17368109182E-02 -0.21446175105E-01 -0.80047387047E-02  0.10209728490E+01  0.10207147141E+01 0.  0.
     999903    2    3    3    0    0 -0.91005997763E-01 -0.93505854318E-01 -0.16842624330E-01  0.13312605248E+00  0.20333111752E-01 0.  0.
         14    1    1    2    0    0 -0.17368109182E-02  0.21446175105E-01  0.80047387047E-02  0.22957150967E-01  0.00000000000E+00 0. -1.
     999901    1    3    3    0    0  0.92742808681E-01  0.72059679212E-01  0.88378856254E-02  0.88784679655E+00  0.88000000000E+00 0. -1.
        -11    1    4    4    0    0 -0.70672325240E-01 -0.63381498333E-01 -0.56767287564E-02  0.95101410380E-01  0.51100000000E-03 0.  1.
         11    1    4    4    0    0 -0.20333672522E-01 -0.30124355984E-01 -0.11165895574E-01  0.38024642098E-01  0.51100000000E-03 0. -1.
</event>
<event>
 8    1  0.1022673E+005  0.1043930E+01  0.7957747E-01            NaN
         13   -1    0    0    0    0  0.00000000000E+00  0.00000000000E+00  0.74505805969E-08  0.10566000000E+00  0.10566000000E+00 0.  1.
     999900   -1    0    0    0    0 -0.00000000000E+00 -0.00000000000E+00 -0.74505805969E-08  0.93827000000E+00  0.93827000000E+00 0. -1.
     999902    2    1    2    0    0 -0.13011481242E-01 -0.19057050970E-01 -0.40773411513E-02  0.10204972335E+01  0.10202281652E+01 0.  0.
     999903    2    3    3    0    0  0.91423533616E-01  0.29339427653E-01 -0.84330768446E-01  0.12938023552E+00  0.20211440378E-01 0.  0.
         14    1    1    2    0    0  0.13011481242E-01  0.19057050970E-01  0.40773411513E-02  0.23432766517E-01  0.00000000000E+00 0.  1.
     999901    1    3    3    0    0 -0.10443501486E+00 -0.48396478622E-01  0.80253427294E-01  0.89111699797E+00  0.88000000000E+00 0.  1.
        -11    1    4    4    0    0  0.44342283761E-01  0.24128283510E-01 -0.48241616466E-01  0.69827837390E-01  0.51100000000E-03 0. -1.
         11    1    4    4    0    0  0.47081249854E-01  0.52111441428E-02 -0.36089151980E-01  0.59552398127E-01  0.51100000000E-03 0.  1.
</event>
<event>
 8    1  0.1022673E+005  0.1043930E+01  0.7957747E-01            NaN
         13   -1    0    0    0    0  0.00000000000E+00  0.00000000000E+00  0.74505805969E-08  0.10566000000E+00  0.10566000000E+00 0. -1.
     999900   -1    0    0    0    0 -0.00000000000E+00 -0.00000000000E+00 -0.74505805969E-08  0.93827000000E+00  0.93827000000E+00 0.  1.
     999902    2    1    2    0    0 -0.10965299960E-01 -0.73890668830E-02  0.19063498335E-01  0.10207297181E+01  0.10204660231E+01 0.  0.
     999903    2    3    3    0    0 -0.12328398978E+00 -0.17290210980E-01  0.42880492483E-01  0.13321590413E+00  0.20244676928E-01 0.  0.
         14    1    1    2    0    0  0.10965299960E-01  0.73890668830E-02 -0.19063498335E-01  0.23200281925E-01  0.00000000000E+00 0.  1.
     999901    1    3    3    0    0  0.11231868982E+00  0.99011440969E-02 -0.23816994148E-01  0.88751381395E+00  0.88000000000E+00 0. -1.
        -11    1    4    4    0    0 -0.67219955420E-01 -0.15313806074E-01  0.14949746733E-01  0.70546375609E-01  0.51100000000E-03 0.  1.
         11    1    4    4    0    0 -0.56064034365E-01 -0.19764049057E-02  0.27930745750E-01  0.62669528519E-01  0.51100000000E-03 0. -1.
</event>
<event>
 8    1  0.1022673E+005  0.1043930E+01  0.7957747E-01            NaN
         13   -1    0    0    0    0  0.00000000000E+00  0.00000000000E+00  0.74505805969E-08  0.10566000000E+00  0.10566000000E+00 0.  1.
     999900   -1    0    0    0    0 -0.00000000000E+00 -0.00000000000E+00 -0.74505805969E-08  0.93827000000E+00  0.93827000000E+00 0.  1.
     999902    2    1    2    0    0  0.24644259077E-01 -0.39184180432E-02  0.16195130483E-02  0.10189236742E+01  0.10186167766E+01 0.  0.
     999903    2    3    3    0    0  0.11506889912E+00 -0.47748419636E-01 -0.39652844756E-01  0.13224386051E+00  0.19882842414E-01 0.  0.
         14    1    1    2    0    0 -0.24644259077E-01  0.39184180432E-02 -0.16195130483E-02  0.25006325759E-01  0.00000000000E+00 0. -1.
     999901    1    3    3    0    0 -0.90424640041E-01  0.43830001593E-01  0.41272357805E-01  0.88667981373E+00  0.88000000000E+00 0. -1.
        -11    1    4    4    0    0  0.59766553727E-01 -0.34682678057E-01 -0.17787964498E-01  0.71355461624E-01  0.51100000000E-03 0. -1.
         11    1    4    4    0    0  0.55302345392E-01 -0.13065741579E-01 -0.21864880258E-01  0.60888398883E-01  0.51100000000E-03 0.  1.
</event>
<event>
 8    1  0.1022673E+005  0.1043930E+01  0.7957747E-01            NaN
         13   -1    0    0    0    0  0.00000000000E+00  0.00000000000E+00  0.74505805969E-08  0.10566000000E+00  0.10566000000E+00 0.  1.
     999900   -1    0    0    0    0 -0.00000000000E+00 -0.00000000000E+00 -0.74505805969E-08  0.93827000000E+00  0.93827000000E+00 0.  1.
     999902    2    1    2    0    0 -0.16795049417E-01  0.16615947773E-01 -0.37742471192E-03  0.10203015033E+01  0.10200278682E+01 0.  0.
     999903    2    3    3    0    0 -0.10011398793E-01  0.13092289926E+00  0.29396455014E-02  0.13287652057E+00  0.20161709934E-01 0.  0.
         14    1    1    2    0    0  0.16795049417E-01 -0.16615947773E-01  0.37742471192E-03  0.23628496667E-01  0.00000000000E+00 0.  1.
     999901    1    3    3    0    0 -0.67836506238E-02 -0.11430695149E+00 -0.33170702133E-02  0.88742498276E+00  0.88000000000E+00 0. -1.
        -11    1    4    4    0    0 -0.50863284863E-02  0.19444329941E-01  0.67926417737E-02  0.21221541122E-01  0.51100000000E-03 0.  1.
         11    1    4    4    0    0 -0.49250703070E-02  0.11147856932E+00 -0.38529962723E-02  0.11165497945E+00  0.51100000000E-03 0. -1.
</event>
<event>
 8    1  0.1022673E+005  0.1043930E+01  0.7957747E-01            NaN
         13   -1    0    0    0    0  0.00000000000E+00  0.00000000000E+00  0.74505805969E-08  0.10566000000E+00  0.10566000000E+00 0.  1.
     999900   -1    0    0    0    0 -0.00000000000E+00 -0.00000000000E+00 -0.74505805969E-08  0.93827000000E+00  0.93827000000E+00 0. -1.
     999902    2    1    2    0    0  0.20091789868E-02 -0.25211714129E-01 -0.61856371071E-02  0.10178929219E+01  0.10175598611E+01 0.  0.
     999903    2    3    3    0    0 -0.50428846588E-01 -0.99403554194E-01  0.64526393390E-01  0.13039398279E+00  0.20366643084E-01 0.  0.
         14    1    1    2    0    0 -0.20091789868E-02  0.25211714129E-01  0.61856371071E-02  0.26037078099E-01  0.00000000000E+00 0.  1.
     999901    1    3    3    0    0  0.52438025575E-01  0.74191840065E-01 -0.70712030497E-01  0.88749893911E+00  0.88000000000E+00 0.  1.
        -11    1    4    4    0    0 -0.20638636797E-01 -0.62328378626E-01  0.34889836766E-01  0.74352820670E-01  0.51100000000E-03 0. -1.
         11    1    4    4    0    0 -0.29790209791E-01 -0.37075175568E-01  0.29636556623E-01  0.56041162125E-01  0.51100000000E-03 0.  1.
</event>
<event>
 8    1  0.1022673E+005  0.1043930E+01  0.7957747E-01            NaN
         13   -1    0    0    0    0  0.00000000000E+00  0.00000000000E+00  0.74505805969E-08  0.10566000000E+00  0.10566000000E+00 0.  1.
     999900   -1    0    0    0    0 -0.00000000000E+00 -0.00000000000E+00 -0.74505805969E-08  0.93827000000E+00  0.93827000000E+00 0.  1.
     999902    2    1    2    0    0  0.65683285891E-02  0.27031842414E-02 -0.21852155494E-01  0.10209524709E+01  0.10206938723E+01 0.  0.
     999903    2    3    3    0    0 -0.56230638503E-01  0.16693778356E-01 -0.11826578790E+00  0.13335175235E+00  0.18850101482E-01 0.  0.
         14    1    1    2    0    0 -0.65683285891E-02 -0.27031842414E-02  0.21852155494E-01  0.22977529136E-01  0.00000000000E+00 0.  1.
     999901    1    3    3    0    0  0.62798967092E-01 -0.13990594115E-01  0.96413632403E-01  0.88760071851E+00  0.88000000000E+00 0. -1.
        -11    1    4    4    0    0 -0.18145418593E-01  0.34692785218E-02 -0.57745309042E-01  0.60630635381E-01  0.51100000000E-03 0.  1.
         11    1    4    4    0    0 -0.38085219910E-01  0.13224499834E-01 -0.60520478856E-01  0.72721116970E-01  0.51100000000E-03 0. -1.
</event>
<event>
 8    1  0.1022673E+005  0.1043930E+01  0.7957747E-01            NaN
         13   -1    0    0    0    0  0.00000000000E+00  0.00000000000E+00  0.74505805969E-08  0.10566000000E+00  0.10566000000E+00 0. -1.
     999900   -1    0    0    0    0 -0.00000000000E+00 -0.00000000000E+00 -0.74505805969E-08  0.93827000000E+00  0.93827000000E+00 0.  1.
     999902    2    1    2    0    0 -0.85319397956E-02  0.14107136192E-01 -0.16612019699E-01  0.10205256310E+01  0.10202572220E+01 0.  0.
     999903    2    3    3    0    0  0.93732153431E-01 -0.80539028201E-01 -0.33191229411E-01  0.12940795564E+00  0.19300508382E-01 0.  0.
         14    1    1    2    0    0  0.85319397956E-02 -0.14107136192E-01  0.16612019699E-01  0.23404368966E-01  0.00000000000E+00 0. -1.
     999901    1    3    3    0    0 -0.10226409323E+00  0.94646164393E-01  0.16579209712E-01  0.89111767539E+00  0.88000000000E+00 0. -1.
        -11    1    4    4    0    0  0.65970396742E-01 -0.66374900408E-01 -0.20819075520E-01  0.95871871146E-01  0.51100000000E-03 0. -1.
         11    1    4    4    0    0  0.27761756689E-01 -0.14164127793E-01 -0.12372153890E-01  0.33536084498E-01  0.51100000000E-03 0.  1.
</event>
<event>
 8    1  0.1022673E+005  0.1043930E+01  0.7957747E-01            NaN
         13   -1    0    0    0    0  0.00000000000E+00  0.00000000000E+00  0.74505805969E-08  0.10566000000E+00  0.10566000000E+00 0.  1.
     999900   -1    0    0    0    0 -0.00000000000E+00 -0.00000000000E+00 -0.74505805969E-08  0.93827000000E+00  0.93827000000E+00 0. -1.
     999902    2    1    2    0    0 -0.21046801397E-01  0.11390376624E-01 -0.21229384422E-02  0.10199046926E+01  0.10196216782E+01 0.  0.
     999903    2    3    3    0    0  0.14425433330E-01 -0.11313206365E+00 -0.53238651037E-01  0.12896309313E+00  0.28109935499E-01 0.  0.
         14    1    1    2    0    0  0.21046801397E-01 -0.11390376624E-01  0.21229384422E-02  0.24025307413E-01  0.00000000000E+00 0.  1.
     999901    1    3    3    0    0 -0.35472234728E-01  0.12452244027E+00  0.51115712595E-01  0.89094159946E+00  0.88000000000E+00 0.  1.
        -11    1    4    4    0    0  0.14982535566E-02 -0.66411390726E-01 -0.17387733473E-01  0.68668129276E-01  0.51100000000E-03 0. -1.
         11    1    4    4    0    0  0.12927179774E-01 -0.46720672921E-01 -0.35850917563E-01  0.60294963854E-01  0.51100000000E-03 0.  1.
</event>
<event>
 8    1  0.1022673E+005  0.1043930E+01  0.7957747E-01            NaN
         13   -1    0    0    0    0  0.00000000000E+00  0.00000000000E+00  0.74505805969E-08  0.10566000000E+00  0.10566000000E+00 0.  1.
     999900   -1    0    0    0    0 -0.00000000000E+00 -0.00000000000E+00 -0.74505805969E-08  0.93827000000E+00  0.93827000000E+00 0. -1.
     999902    2    1    2    0    0  0.80799751606E-02 -0.23201500482E-02  0.23046581832E-01  0.10193981018E+01  0.10191028780E+01 0.  0.
     999903    2    3    3    0    0  0.14843887798E-01  0.11117832099E+00 -0.59066537068E-01  0.12829192534E+00  0.19723139820E-01 0.  0.
         14    1    1    2    0    0 -0.80799751606E-02  0.23201500482E-02 -0.23046581832E-01  0.24531898193E-01  0.00000000000E+00 0. -1.
     999901    1    3    3    0    0 -0.67639126374E-02 -0.11349847103E+00  0.82113118899E-01  0.89110617647E+00  0.88000000000E+00 0. -1.
        -11    1    4    4    0    0  0.31257408875E-02  0.18495218452E-02 -0.35947522775E-02  0.51355965659E-02  0.51100000000E-03 0.  1.
         11    1    4    4    0    0  0.11718146910E-01  0.10932879914E+00 -0.55471784790E-01  0.12315632877E+00  0.51100000000E-03 0. -1.
</event>
<event>
 8    1  0.1022673E+005  0.1043930E+01  0.7957747E-01            NaN
         13   -1    0    0    0    0  0.00000000000E+00  0.00000000000E+00  0.74505805969E-08  0.10566000000E+00  0.10566000000E+00 0. -1.
     999900   -1    0    0    0    0 -0.00000000000E+00 -0.00000000000E+00 -0.74505805969E-08  0.93827000000E+00  0.93827000000E+00 0. -1.
     999902    2    1    2    0    0  0.99065391746E-02 -0.18383845265E-01 -0.88280402896E-02  0.10212575590E+01  0.10210058581E+01 0.  0.
     999903    2    3    3    0    0 -0.12049812125E+00  0.40156615978E-01 -0.22188133829E-01  0.12962374787E+00  0.13328604514E-01 0.  0.
         14    1    1    2    0    0 -0.99065391746E-02  0.18383845265E-01  0.88280402896E-02  0.22672440991E-01  0.00000000000E+00 0.  1.
     999901    1    3    3    0    0  0.13040466042E+00 -0.58540461243E-01  0.13360093540E-01  0.89163381114E+00  0.88000000000E+00 0. -1.
        -11    1    4    4    0    0 -0.85044556386E-01  0.32504691181E-01 -0.20415490176E-01  0.93306939076E-01  0.51100000000E-03 0. -1.
         11    1    4    4    0    0 -0.35453564863E-01  0.76519247968E-02 -0.17726436531E-02  0.36316808796E-01  0.51100000000E-03 0.  1.
</event>
<event>
 8    1  0.1022673E+005  0.1043930E+01  0.7957747E-01            NaN
         13   -1    0    0    0    0  0.00000000000E+00  0.00000000000E+00  0.74505805969E-08  0.10566000000E+00  0.10566000000E+00 0. -1.
     999900   -1    0    0    0    0 -0.00000000000E+00 -0.00000000000E+00 -0.74505805969E-08  0.93827000000E+00  0.93827000000E+00 0. -1.
     999902    2    1    2    0    0 -0.52580964843E-02 -0.24569739872E-04 -0.22885879904E-01  0.10204478433E+01  0.10201776263E+01 0.  0.
     999903    2    3    3    0    0 -0.53180069678E-01 -0.52475514125E-01  0.10250662055E+00  0.12872428963E+00  0.21921133417E-01 0.  0.
         14    1    1    2    0    0  0.52580964843E-02  0.24569739872E-04  0.22885879904E-01  0.23482156658E-01  0.00000000000E+00 0. -1.
     999901    1    3    3    0    0  0.47921973193E-01  0.52450944386E-01 -0.12539250045E+00  0.89172355372E+00  0.88000000000E+00 0. -1.
        -11    1    4    4    0    0 -0.34828286665E-01 -0.30693507428E-01  0.45543385328E-01  0.65035082981E-01  0.51100000000E-03 0.  1.
         11    1    4    4    0    0 -0.18351783012E-01 -0.21782006698E-01  0.56963235219E-01  0.63689206646E-01  0.51100000000E-03 0. -1.
</event>
<event>
 8    1  0.1022673E+005  0.1043930E+01  0.7957747E-01            NaN
         13   -1    0    0    0    0  0.00000000000E+00  0.00000000000E+00  0.74505805969E-08  0.10566000000E+00  0.10566000000E+00 0.  1.
     999900   -1    0    0    0    0 -0.00000000000E+00 -0.00000000000E+00 -0.74505805969E-08  0.93827000000E+00  0.93827000000E+00 0.  1.
     999902    2    1    2    0    0  0.18956539929E-01 -0.11312859038E-01  0.63043891371E-02  0.10209718531E+01  0.10207136956E+01 0.  0.
     999903    2    3    3    0    0 -0.58697359227E-01 -0.11577515229E+00  0.16253635230E-02  0.13138521201E+00  0.20252561840E-01 0.  0.
         14    1    1    2    0    0 -0.18956539929E-01  0.11312859038E-01 -0.63043891371E-02  0.22958146878E-01  0.00000000000E+00 0.  1.
     999901    1    3    3    0    0  0.77653899155E-01  0.10446229325E+00  0.46790256141E-02  0.88958664111E+00  0.88000000000E+00 0. -1.
        -11    1    4    4    0    0 -0.27256843501E-02 -0.13659306996E-01  0.52089199575E-02  0.14879515816E-01  0.51100000000E-03 0.  1.
         11    1    4    4    0    0 -0.55971674876E-01 -0.10211584529E+00 -0.35835564345E-02  0.11650569619E+00  0.51100000000E-03 0. -1.
</event>
<event>
 7    1  0.1022673E+005  0.1043930E+01  0.7957747E-01            NaN
         13   -1    0    0    0    0  0.00000000000E+00  0.00000000000E+00  0.74505805969E-08  0.10566000000E+00  0.10566000000E+00 0.  1.
     999900   -1    0    0    0    0 -0.00000000000E+00 -0.00000000000E+00 -0.74505805969E-08  0.93827000000E+00  0.93827000000E+00 0.  1.
     999903    2    1    2    0    0  0.59267079654E-01 -0.41761574845E-01  0.88132748772E-01  0.11578623090E+00  0.19556431044E-01 0.  0.
         14    1    1    2    0    0  0.81348945438E-02  0.68884872657E-02 -0.42372773433E-01  0.43693016541E-01  0.00000000000E+00 0. -1.
     999901    1    1    2    0    0 -0.67401974198E-01  0.34873087580E-01 -0.45759975339E-01  0.88445075256E+00  0.88000000000E+00 0.  1.
        -11    1    3    3    0    0  0.17876626016E-01 -0.21759332543E-01  0.24808247827E-01  0.37533353057E-01  0.51100000000E-03 0.  1.
         11    1    3    3    0    0  0.41390453638E-01 -0.20002242302E-01  0.63324500945E-01  0.78252877841E-01  0.51100000000E-03 0. -1.
</event>
<event>
 8    1  0.1022673E+005  0.1043930E+01  0.7957747E-01            NaN
         13   -1    0    0    0    0  0.00000000000E+00  0.00000000000E+00  0.74505805969E-08  0.10566000000E+00  0.10566000000E+00 0.  1.
     999900   -1    0    0    0    0 -0.00000000000E+00 -0.00000000000E+00 -0.74505805969E-08  0.93827000000E+00  0.93827000000E+00 0.  1.
     999902    2    1    2    0    0 -0.72455806627E-02 -0.17808463355E-01  0.13635797379E-01  0.10203593662E+01  0.10200870852E+01 0.  0.
     999903    2    3    3    0    0 -0.17003749005E-01 -0.13038454878E+00  0.54089768308E-02  0.13309600204E+00  0.19900519796E-01 0.  0.
         14    1    1    2    0    0  0.72455806627E-02  0.17808463355E-01 -0.13635797379E-01  0.23570633771E-01  0.00000000000E+00 0. -1.
     999901    1    3    3    0    0  0.97581683424E-02  0.11257608542E+00  0.82268205479E-02  0.88726336419E+00  0.88000000000E+00 0.  1.
        -11    1    4    4    0    0  0.36919967821E-02 -0.37476716579E-01  0.42695211382E-02  0.37902837064E-01  0.51100000000E-03 0. -1.
         11    1    4    4    0    0 -0.20695745787E-01 -0.92907832198E-01  0.11394556926E-02  0.95193164974E-01  0.51100000000E-03 0.  1.
</event>
<event>
 8    1  0.1022673E+005  0.1043930E+01  0.7957747E-01            NaN
         13   -1    0    0    0    0  0.00000000000E+00  0.00000000000E+00  0.74505805969E-08  0.10566000000E+00  0.10566000000E+00 0. -1.
     999900   -1    0    0    0    0 -0.00000000000E+00 -0.00000000000E+00 -0.74505805969E-08  0.93827000000E+00  0.93827000000E+00 0.  1.
     999902    2    1    2    0    0 -0.12716277282E-01 -0.13997121581E-01  0.14247633108E-01  0.10202526233E+01  0.10199778415E+01 0.  0.
     999903    2    3    3    0    0 -0.90257264528E-01 -0.85262855695E-01 -0.41432563751E-01  0.13222576899E+00  0.18731478470E-01 0.  0.
         14    1    1    2    0    0  0.12716277282E-01  0.13997121581E-01 -0.14247633108E-01  0.23677376748E-01  0.00000000000E+00 0.  1.
     999901    1    3    3    0    0  0.77540987246E-01  0.71265734113E-01  0.55680196859E-01  0.88802685426E+00  0.88000000000E+00 0. -1.
        -11    1    4    4    0    0 -0.31354212444E-01 -0.23839654938E-01 -0.21266639640E-01  0.44765465128E-01  0.51100000000E-03 0. -1.
         11    1    4    4    0    0 -0.58903052085E-01 -0.61423200757E-01 -0.20165924111E-01  0.87460303866E-01  0.51100000000E-03 0.  1.
</event>
<event>
 8    1  0.1022673E+005  0.1043930E+01  0.7957747E-01            NaN
         13   -1    0    0    0    0  0.00000000000E+00  0.00000000000E+00  0.74505805969E-08  0.10566000000E+00  0.10566000000E+00 0. -1.
     999900   -1    0    0    0    0 -0.00000000000E+00 -0.00000000000E+00 -0.74505805969E-08  0.93827000000E+00  0.93827000000E+00 0. -1.
     999902    2    1    2    0    0 -0.17215943985E-01 -0.16369666545E-01  0.14062753591E-02  0.10201322623E+01  0.10198546466E+01 0.  0.
     999903    2    3    3    0    0 -0.11239047530E+00  0.56826949219E-01 -0.31403970561E-01  0.13137332522E+00  0.20293351548E-01 0.  0.
         14    1    1    2    0    0  0.17215943985E-01  0.16369666545E-01 -0.14062753591E-02  0.23797737717E-01  0.00000000000E+00 0.  1.
     999901    1    3    3    0    0  0.95174531314E-01 -0.73196615764E-01  0.32810245920E-01  0.88875893706E+00  0.88000000000E+00 0.  1.
        -11    1    4    4    0    0 -0.37365869934E-01  0.85940980009E-02 -0.10683194962E-01  0.39805257592E-01  0.51100000000E-03 0.  1.
         11    1    4    4    0    0 -0.75024605365E-01  0.48232851218E-01 -0.20720775599E-01  0.91568067629E-01  0.51100000000E-03 0. -1.
</event>
<event>
 8    1  0.1022673E+005  0.1043930E+01  0.7957747E-01            NaN
         13   -1    0    0    0    0  0.00000000000E+00  0.00000000000E+00  0.74505805969E-08  0.10566000000E+00  0.10566000000E+00 0. -1.
     999900   -1    0    0    0    0 -0.00000000000E+00 -0.00000000000E+00 -0.74505805969E-08  0.93827000000E+00  0.93827000000E+00 0.  1.
     999902    2    1    2    0    0 -0.15408833161E-01  0.18546509301E-01  0.26076604579E-02  0.10196770612E+01  0.10193885933E+01 0.  0.
     999903    2    3    3    0    0  0.56445572002E-01  0.69180952998E-01 -0.92379633214E-01  0.13021121680E+00  0.21186257111E-01 0.  0.
         14    1    1    2    0    0  0.15408833161E-01 -0.18546509301E-01 -0.26076604579E-02  0.24252938785E-01  0.00000000000E+00 0. -1.
     999901    1    3    3    0    0 -0.71854405163E-01 -0.50634443697E-01  0.94987293672E-01  0.88946584442E+00  0.88000000000E+00 0. -1.
        -11    1    4    4    0    0  0.56311685704E-01  0.60603430131E-01 -0.79557927439E-01  0.11477589743E+00  0.51100000000E-03 0.  1.
         11    1    4    4    0    0  0.13388629740E-03  0.85775228668E-02 -0.12821705775E-01  0.15435319370E-01  0.51100000000E-03 0. -1.
</event>
<event>
 8    1  0.1022673E+005  0.1043930E+01  0.7957747E-01            NaN
         13   -1    0    0    0    0  0.00000000000E+00  0.00000000000E+00  0.74505805969E-08  0.10566000000E+00  0.10566000000E+00 0.  1.
     999900   -1    0    0    0    0 -0.00000000000E+00 -0.00000000000E+00 -0.74505805969E-08  0.93827000000E+00  0.93827000000E+00 0.  1.
     999902    2    1    2    0    0  0.11274121739E-01  0.12219645074E-01 -0.16404533643E-01  0.10205733249E+01  0.10203060214E+01 0.  0.
     999903    2    3    3    0    0  0.90723963874E-01  0.36311185088E-02 -0.95552501539E-01  0.13341469140E+00  0.20619813021E-01 0.  0.
         14    1    1    2    0    0 -0.11274121739E-01 -0.12219645074E-01  0.16404533643E-01  0.23356675080E-01  0.00000000000E+00 0.  1.
     999901    1    3    3    0    0 -0.79449842135E-01  0.85885265651E-02  0.79147967895E-01  0.88715863352E+00  0.88000000000E+00 0. -1.
        -11    1    4    4    0    0  0.33255614473E-01  0.73347717154E-02 -0.24506355747E-01  0.41958996212E-01  0.51100000000E-03 0. -1.
         11    1    4    4    0    0  0.57468349401E-01 -0.37036532066E-02 -0.71046145791E-01  0.91455695190E-01  0.51100000000E-03 0.  1.
</event>
<event>
 8    1  0.1022673E+005  0.1043930E+01  0.7957747E-01            NaN
         13   -1    0    0    0    0  0.00000000000E+00  0.00000000000E+00  0.74505805969E-08  0.10566000000E+00  0.10566000000E+00 0.  1.
     999900   -1    0    0    0    0 -0.00000000000E+00 -0.00000000000E+00 -0.74505805969E-08  0.93827000000E+00  0.93827000000E+00 0. -1.
     999902    2    1    2    0    0  0.21967876056E-01  0.12041916727E-01 -0.31668701730E-02  0.10186787742E+01  0.10183657598E+01 0.  0.
     999903    2    3    3    0    0 -0.31633539401E-01 -0.87599645718E-01 -0.85032324954E-01  0.12766614502E+00  0.19843627482E-01 0.  0.
         14    1    1    2    0    0 -0.21967876056E-01 -0.12041916727E-01  0.31668701730E-02  0.25251225783E-01  0.00000000000E+00 0.  1.
     999901    1    3    3    0    0  0.53601415457E-01  0.99641562445E-01  0.81865454781E-01  0.89101262920E+00  0.88000000000E+00 0.  1.
        -11    1    4    4    0    0 -0.18437273854E-01 -0.24195992681E-01 -0.28874490943E-01  0.41944921948E-01  0.51100000000E-03 0.  1.
         11    1    4    4    0    0 -0.13196265548E-01 -0.63403653037E-01 -0.56157834011E-01  0.85721223070E-01  0.51100000000E-03 0. -1.
</event>
<event>
 8    1  0.1022673E+005  0.1043930E+01  0.7957747E-01            NaN
         13   -1    0    0    0    0  0.00000000000E+00  0.00000000000E+00  0.74505805969E-08  0.10566000000E+00  0.10566000000E+00 0.  1.
     999900   -1    0    0    0    0 -0.00000000000E+00 -0.00000000000E+00 -0.74505805969E-08  0.93827000000E+00  0.93827000000E+00 0.  1.
     999902    2    1    2    0    0  0.30407175174E-02 -0.17553429792E-01  0.16017167369E-01  0.10199734036E+01  0.10196920249E+01 0.  0.
     999903    2    3    3    0    0 -0.74637387864E-01  0.94838125432E-01  0.41175192472E-01  0.12907572375E+00  0.20003406791E-01 0.  0.
         14    1    1    2    0    0 -0.30407175174E-02  0.17553429792E-01 -0.16017167369E-01  0.23956596399E-01  0.00000000000E+00 0. -1.
     999901    1    3    3    0    0  0.77678105381E-01 -0.11239155522E+00 -0.25158025103E-01  0.89089767985E+00  0.88000000000E+00 0.  1.
        -11    1    4    4    0    0 -0.69937215808E-01  0.79848400910E-01  0.39543113677E-01  0.11327356374E+00  0.51100000000E-03 0.  1.
         11    1    4    4    0    0 -0.47001720563E-02  0.14989724523E-01  0.16320787947E-02  0.15802160005E-01  0.51100000000E-03 0. -1.
</event>
<event>
 8    1  0.1022673E+005  0.1043930E+01  0.7957747E-01            NaN
         13   -1    0    0    0    0  0.00000000000E+00  0.00000000000E+00  0.74505805969E-08  0.10566000000E+00  0.10566000000E+00 0. -1.
     999900   -1    0    0    0    0 -0.00000000000E+00 -0.00000000000E+00 -0.74505805969E-08  0.93827000000E+00  0.93827000000E+00 0.  1.
     999902    2    1    2    0    0  0.59626255774E-02 -0.20058540368E-01 -0.25505794894E-02  0.10228491224E+01  0.10226318613E+01 0.  0.
     999903    2    3    3    0    0 -0.36199074579E-01  0.12239196819E+00 -0.16683173324E-01  0.13028568679E+00  0.20146092237E-01 0.  0.
         14    1    1    2    0    0 -0.59626255774E-02  0.20058540368E-01  0.25505794894E-02  0.21080877619E-01  0.00000000000E+00 0. -1.
     999901    1    3    3    0    0  0.42161700156E-01 -0.14245050856E+00  0.14132593835E-01  0.89256343559E+00  0.88000000000E+00 0.  1.
        -11    1    4    4    0    0 -0.12264046531E-01  0.30790506033E-01  0.39611390524E-02  0.33382837547E-01  0.51100000000E-03 0.  1.
         11    1    4    4    0    0 -0.23935028047E-01  0.91601462155E-01 -0.20644312377E-01  0.96902849241E-01  0.51100000000E-03 0. -1.
</event>
<event>
 8    1  0.1022673E+005  0.1043930E+01  0.7957747E-01            NaN
         13   -1    0    0    0    0  0.00000000000E+00  0.00000000000E+00  0.74505805969E-08  0.10566000000E+00  0.10566000000E+00 0.  1.
     999900   -1    0    0    0    0 -0.00000000000E+00 -0.00000000000E+00 -0.74505805969E-08  0.93827000000E+00  0.93827000000E+00 0.  1.
     999902    2    1    2    0    0  0.52546795483E-02 -0.15967802807E-01  0.16416521319E-01  0.10204335204E+01  0.10201629698E+01 0.  0.
     999903    2    3    3    0    0  0.97572209825E-01 -0.69502148218E-01 -0.50118254810E-01  0.13149295486E+00  0.20680255720E-01 0.  0.
         14    1    1    2    0    0 -0.52546795483E-02  0.15967802807E-01 -0.16416521319E-01  0.23496479648E-01  0.00000000000E+00 0. -1.
     999901    1    3    3    0    0 -0.92317530277E-01  0.53534345411E-01  0.66534776129E-01  0.88894056549E+00  0.88000000000E+00 0. -1.
        -11    1    4    4    0    0  0.17525509506E-01 -0.12175217493E-01 -0.77012613605E-03  0.21359625927E-01  0.51100000000E-03 0. -1.
         11    1    4    4    0    0  0.80046700319E-01 -0.57326930725E-01 -0.49348128674E-01  0.11013332894E+00  0.51100000000E-03 0.  1.
</event>
<event>
 8    1  0.1022673E+005  0.1043930E+01  0.7957747E-01            NaN
         13   -1    0    0    0    0  0.00000000000E+00  0.00000000000E+00  0.74505805969E-08  0.10566000000E+00  0.10566000000E+00 0. -1.
     999900   -1    0    0    0    0 -0.00000000000E+00 -0.00000000000E+00 -0.74505805969E-08  0.93827000000E+00  0.93827000000E+00 0.  1.
     999902    2    1    2    0    0 -0.20947375548E-01 -0.98949142493E-02  0.10287300950E-01  0.10185818160E+01  0.10182663627E+01 0.  0.
     999903    2    3    3    0    0  0.68325808847E-01 -0.51089788153E-01  0.94878675336E-01  0.12907497529E+00  0.19488550575E-01 0.  0.
         14    1    1    2    0    0  0.20947375548E-01  0.98949142493E-02 -0.10287300950E-01  0.25348183982E-01  0.00000000000E+00 0. -1.
     999901    1    3    3    0    0 -0.89273184395E-01  0.41194873904E-01 -0.84591374386E-01  0.88950684073E+00  0.88000000000E+00 0. -1.
        -11    1    4    4    0    0  0.61963697081E-01 -0.41628732371E-01  0.73067953207E-01  0.10445878624E+00  0.51100000000E-03 0. -1.
         11    1    4    4    0    0  0.63621117658E-02 -0.94610557822E-02  0.21810722128E-01  0.24616189051E-01  0.51100000000E-03 0.  1.
</event>
<event>
 8    1  0.1022673E+005  0.1043930E+01  0.7957747E-01            NaN
         13   -1    0    0    0    0  0.00000000000E+00  0.00000000000E+00  0.74505805969E-08  0.10566000000E+00  0.10566000000E+00 0. -1.
     999900   -1    0    0    0    0 -0.00000000000E+00 -0.00000000000E+00 -0.74505805969E-08  0.93827000000E+00  0.93827000000E+00 0.  1.
     999902    2    1    2    0    0  0.10392331246E-01 -0.20233036965E-01 -0.46241691149E-02  0.10207188115E+01  0.10204548656E+01 0.  0.
     999903    2    3    3    0    0  0.55433851030E-01 -0.10409770206E+00  0.59233332796E-01  0.13328441889E+00  0.18625391024E-01 0.  0.
         14    1    1    2    0    0 -0.10392331246E-01  0.20233036965E-01  0.46241691149E-02  0.23211188542E-01  0.00000000000E+00 0. -1.
     999901    1    3    3    0    0 -0.45041519784E-01  0.83864665097E-01 -0.63857501911E-01  0.88743439256E+00  0.88000000000E+00 0.  1.
        -11    1    4    4    0    0  0.38634230867E-01 -0.55023921675E-01  0.38039366685E-01  0.77249532619E-01  0.51100000000E-03 0.  1.
         11    1    4    4    0    0  0.16799620163E-01 -0.49073780387E-01  0.21193966111E-01  0.56034886273E-01  0.51100000000E-03 0. -1.
</event>
<event>
 8    1  0.1022673E+005  0.1043930E+01  0.7957747E-01            NaN
         13   -1    0    0    0    0  0.00000000000E+00  0.00000000000E+00  0.74505805969E-08  0.10566000000E+00  0.10566000000E+00 0. -1.
     999900   -1    0    0    0    0 -0.00000000000E+00 -0.00000000000E+00 -0.74505805969E-08  0.93827000000E+00  0.93827000000E+00 0. -1.
     999902    2    1    2    0    0  0.12568247288E-02 -0.22435120946E-01 -0.68597673362E-02  0.10204359440E+01  0.10201654499E+01 0.  0.
     999903    2    3    3    0    0 -0.10540461435E+00 -0.18819450770E-01  0.71828731189E-01  0.13050245464E+00  0.20179682596E-01 0.  0.
         14    1    1    2    0    0 -0.12568247288E-02  0.22435120946E-01  0.68597673362E-02  0.23494056018E-01  0.00000000000E+00 0. -1.
     999901    1    3    3    0    0  0.10666143907E+00 -0.36156701761E-02 -0.78688498525E-01  0.88993348934E+00  0.88000000000E+00 0. -1.
        -11    1    4    4    0    0 -0.88807532330E-01 -0.11500958702E-01  0.66651556313E-01  0.11163216799E+00  0.51100000000E-03 0.  1.
         11    1    4    4    0    0 -0.16597082015E-01 -0.73184920682E-02  0.51771748763E-02  0.18870286651E-01  0.51100000000E-03 0. -1.
</event>
<event>
 8    1  0.1022673E+005  0.1043930E+01  0.7957747E-01            NaN
         13   -1    0    0    0    0  0.00000000000E+00  0.00000000000E+00  0.74505805969E-08  0.10566000000E+00  0.10566000000E+00 0. -1.
     999900   -1    0    0    0    0 -0.00000000000E+00 -0.00000000000E+00 -0.74505805969E-08  0.93827000000E+00  0.93827000000E+00 0. -1.
     999902    2    1    2    0    0  0.18851204126E-01 -0.14627935437E-01  0.17764562944E-02  0.10200030238E+01  0.10197223487E+01 0.  0.
     999903    2    3    3    0    0 -0.10163861699E+00 -0.38747222094E-01 -0.65994667918E-01  0.12888436603E+00  0.20594366453E-01 0.  0.
         14    1    1    2    0    0 -0.18851204126E-01  0.14627935437E-01 -0.17764562944E-02  0.23926976181E-01  0.00000000000E+00 0.  1.
     999901    1    3    3    0    0  0.12048982112E+00  0.24119286656E-01  0.67771124213E-01  0.89111865779E+00  0.88000000000E+00 0.  1.
        -11    1    4    4    0    0 -0.92204245961E-01 -0.28586711830E-01 -0.54435284155E-01  0.11082546796E+00  0.51100000000E-03 0.  1.
         11    1    4    4    0    0 -0.94343710309E-02 -0.10160510263E-01 -0.11559383763E-01  0.18058898071E-01  0.51100000000E-03 0. -1.
</event>
<event>
 8    1  0.1022673E+005  0.1043930E+01  0.7957747E-01            NaN
         13   -1    0    0    0    0  0.00000000000E+00  0.00000000000E+00  0.74505805969E-08  0.10566000000E+00  0.10566000000E+00 0.  1.
     999900   -1    0    0    0    0 -0.00000000000E+00 -0.00000000000E+00 -0.74505805969E-08  0.93827000000E+00  0.93827000000E+00 0.  1.
     999902    2    1    2    0    0  0.21380804438E-01 -0.10536166270E-01 -0.47917568754E-02  0.10196172352E+01  0.10193273251E+01 0.  0.
     999903    2    3    3    0    0 -0.91483942667E-01  0.79653590524E-01 -0.35372124305E-01  0.12731246538E+00  0.15597128429E-01 0.  0.
         14    1    1    2    0    0 -0.21380804438E-01  0.10536166270E-01  0.47917568754E-02  0.24312764796E-01  0.00000000000E+00 0. -1.
     999901    1    3    3    0    0  0.11286474710E+00 -0.90189756795E-01  0.30580367429E-01  0.89230476982E+00  0.88000000000E+00 0. -1.
        -11    1    4    4    0    0 -0.13797600420E-01  0.61183855133E-02 -0.18680522635E-02  0.15217068012E-01  0.51100000000E-03 0.  1.
         11    1    4    4    0    0 -0.77686342247E-01  0.73535205011E-01 -0.33504072041E-01  0.11209539737E+00  0.51100000000E-03 0. -1.
</event>
<event>
 8    1  0.1022673E+005  0.1043930E+01  0.7957747E-01            NaN
         13   -1    0    0    0    0  0.00000000000E+00  0.00000000000E+00  0.74505805969E-08  0.10566000000E+00  0.10566000000E+00 0. -1.
     999900   -1    0    0    0    0 -0.00000000000E+00 -0.00000000000E+00 -0.74505805969E-08  0.93827000000E+00  0.93827000000E+00 0. -1.
     999902    2    1    2    0    0 -0.74589536333E-02  0.19943304176E-01 -0.15476236494E-01  0.10176072861E+01  0.10172667809E+01 0.  0.
     999903    2    3    3    0    0  0.11226135962E-01  0.95363505928E-01  0.82912389619E-01  0.12872165727E+00  0.21784772336E-01 0.  0.
         14    1    1    2    0    0  0.74589536333E-02 -0.19943304176E-01  0.15476236494E-01  0.26322713895E-01  0.00000000000E+00 0. -1.
     999901    1    3    3    0    0 -0.18685089595E-01 -0.75420201752E-01 -0.98388626113E-01  0.88888562884E+00  0.88000000000E+00 0. -1.
        -11    1    4    4    0    0 -0.40710788837E-02  0.48661907203E-01  0.34966334924E-01  0.60062139447E-01  0.51100000000E-03 0.  1.
         11    1    4    4    0    0  0.15297214845E-01  0.46701598725E-01  0.47946054695E-01  0.68659517820E-01  0.51100000000E-03 0. -1.
</event>
<event>
 8    1  0.1022673E+005  0.1043930E+01  0.7957747E-01            NaN
         13   -1    0    0    0    0  0.00000000000E+00  0.00000000000E+00  0.74505805969E-08  0.10566000000E+00  0.10566000000E+00 0. -1.
     999900   -1    0    0    0    0 -0.00000000000E+00 -0.00000000000E+00 -0.74505805969E-08  0.93827000000E+00  0.93827000000E+00 0. -1.
     999902    2    1    2    0    0 -0.75103131325E-02 -0.18200338888E-01  0.98580161748E-02  0.10219109714E+01  0.10216737228E+01 0.  0.
     999903    2    3    3    0    0 -0.96954513613E-01  0.10642696650E-01 -0.85894166264E-01  0.13174207383E+00  0.21557400530E-01 0.  0.
         14    1    1    2    0    0  0.75103131325E-02  0.18200338888E-01 -0.98580161748E-02  0.22019028631E-01  0.00000000000E+00 0.  1.
     999901    1    3    3    0    0  0.89444200481E-01 -0.28843035538E-01  0.95752182438E-01  0.89016889754E+00  0.88000000000E+00 0.  1.
        -11    1    4    4    0    0 -0.36793018481E-01  0.13828759040E-01 -0.39233364758E-01  0.55538084381E-01  0.51100000000E-03 0. -1.
         11    1    4    4    0    0 -0.60161495133E-01 -0.31860623902E-02 -0.46660801506E-01  0.76203989451E-01  0.51100000000E-03 0.  1.
</event>
<event>
 8    1  0.1022673E+005  0.1043930E+01  0.7957747E-01            NaN
         13   -1    0    0    0    0  0.00000000000E+00  0.00000000000E+00  0.74505805969E-08  0.10566000000E+00  0.10566000000E+00 0.  1.
     999900   -1    0    0    0    0 -0.00000000000E+00 -0.00000000000E+00 -0.74505805969E-08  0.93827000000E+00  0.93827000000E+00 0.  1.
     999902    2    1    2    0    0 -0.16606873590E-01  0.70590285609E-02 -0.27447300037E-01  0.10110822845E+01  0.10105485706E+01 0.  0.
     999903    2    3    3    0    0  0.54775728754E-01  0.69782720656E-01  0.77911799585E-01  0.11971800579E+00  0.19802621902E-01 0.  0.
         14    1    1    2    0    0  0.16606873590E-01 -0.70590285609E-02  0.27447300037E-01  0.32847715506E-01  0.00000000000E+00 0.  1.
     999901    1    3    3    0    0 -0.71382602343E-01 -0.62723692095E-01 -0.10535909962E+00  0.89136427870E+00  0.88000000000E+00 0. -1.
        -11    1    4    4    0    0  0.47795719006E-01  0.46920716883E-01  0.56728000176E-01  0.87774207790E-01  0.51100000000E-03 0. -1.
         11    1    4    4    0    0  0.69800097481E-02  0.22862003773E-01  0.21183799408E-01  0.31943798005E-01  0.51100000000E-03 0.  1.
</event>
<event>
 8    1  0.1022673E+005  0.1043930E+01  0.7957747E-01            NaN
         13   -1    0    0    0    0  0.00000000000E+00  0.00000000000E+00  0.74505805969E-08  0.10566000000E+00  0.10566000000E+00 0.  1.
     999900   -1    0    0    0    0 -0.00000000000E+00 -0.00000000000E+00 -0.74505805969E-08  0.93827000000E+00  0.93827000000E+00 0.  1.
     999902    2    1    2    0    0 -0.15448573957E-01 -0.40841188817E-02 -0.17045114345E-01  0.10205660451E+01  0.10202985730E+01 0.  0.
     999903    2    3    3    0    0  0.74927521706E-01 -0.99244432368E-01 -0.34620374601E-01  0.13066031208E+00  0.20247368987E-01 0.  0.
         14    1    1    2    0    0  0.15448573957E-01  0.40841188817E-02  0.17045114345E-01  0.23363954874E-01  0.00000000000E+00 0. -1.
     999901    1    3    3    0    0 -0.90376095663E-01  0.95160313486E-01  0.17575260256E-01  0.88990573304E+00  0.88000000000E+00 0.  1.
        -11    1    4    4    0    0  0.34802858465E-01 -0.33968999899E-01 -0.66324295568E-02  0.49085457666E-01  0.51100000000E-03 0. -1.
         11    1    4    4    0    0  0.40124663241E-01 -0.65275432469E-01 -0.27987945044E-01  0.81574854416E-01  0.51100000000E-03 0.  1.
</event>
<event>
 8    1  0.1022673E+005  0.1043930E+01  0.7957747E-01            NaN
         13   -1    0    0    0    0  0.00000000000E+00  0.00000000000E+00  0.74505805969E-08  0.10566000000E+00  0.10566000000E+00 0.  1.
     999900   -1    0    0    0    0 -0.00000000000E+00 -0.00000000000E+00 -0.74505805969E-08  0.93827000000E+00  0.93827000000E+00 0.  1.
     999902    2    1    2    0    0  0.67297575582E-02  0.22291024076E-01  0.38163209800E-02  0.10203345831E+01  0.10200617226E+01 0.  0.
     999903    2    3    3    0    0 -0.55627705537E-01 -0.10338756978E+00  0.47251909505E-01  0.12816295587E+00  0.20237813540E-01 0.  0.
         14    1    1    2    0    0 -0.67297575582E-02 -0.22291024076E-01 -0.38163209800E-02  0.23595416864E-01  0.00000000000E+00 0.  1.
     999901    1    3    3    0    0  0.62357463096E-01  0.12567859385E+00 -0.43435588525E-01  0.89217162727E+00  0.88000000000E+00 0. -1.
        -11    1    4    4    0    0 -0.58096229630E-02 -0.25043158474E-01  0.15583499774E-01  0.30066893613E-01  0.51100000000E-03 0.  1.
         11    1    4    4    0    0 -0.49818082574E-01 -0.78344411302E-01  0.31668409731E-01  0.98096062252E-01  0.51100000000E-03 0. -1.
</event>
<event>
 8    1  0.1022673E+005  0.1043930E+01  0.7957747E-01            NaN
         13   -1    0    0    0    0  0.00000000000E+00  0.00000000000E+00  0.74505805969E-08  0.10566000000E+00  0.10566000000E+00 0.  1.
     999900   -1    0    0    0    0 -0.00000000000E+00 -0.00000000000E+00 -0.74505805969E-08  0.93827000000E+00  0.93827000000E+00 0.  1.
     999902    2    1    2    0    0  0.11708629687E-01  0.67086012045E-02 -0.18964354933E-01  0.10206546032E+01  0.10203891782E+01 0.  0.
     999903    2    3    3    0    0  0.54582540107E-01 -0.32454724713E-02 -0.12007020837E+00  0.13377262153E+00  0.22101415252E-01 0.  0.
         14    1    1    2    0    0 -0.11708629687E-01 -0.67086012045E-02  0.18964354933E-01  0.23275396824E-01  0.00000000000E+00 0.  1.
     999901    1    3    3    0    0 -0.42873910420E-01  0.99540736758E-02  0.10110585344E+00  0.88688198165E+00  0.88000000000E+00 0. -1.
        -11    1    4    4    0    0  0.19328055063E-01 -0.11854542000E-01 -0.45506359458E-01  0.50844800626E-01  0.51100000000E-03 0. -1.
         11    1    4    4    0    0  0.35254485044E-01  0.86090695291E-02 -0.74563848911E-01  0.82927820900E-01  0.51100000000E-03 0.  1.
</event>
<event>
 8    1  0.1022673E+005  0.1043930E+01  0.7957747E-01            NaN
         13   -1    0    0    0    0  0.00000000000E+00  0.00000000000E+00  0.74505805969E-08  0.10566000000E+00  0.10566000000E+00 0.  1.
     999900   -1    0    0    0    0 -0.00000000000E+00 -0.00000000000E+00 -0.74505805969E-08  0.93827000000E+00  0.93827000000E+00 0. -1.
     999902    2    1    2    0    0 -0.81518492241E-02 -0.21139366119E-02  0.22472878608E-01  0.10199310074E+01  0.10196486200E+01 0.  0.
     999903    2    3    3    0    0 -0.81348900209E-01  0.44926842447E-01  0.93532037742E-01  0.13278950386E+00  0.15771668101E-01 0.  0.
         14    1    1    2    0    0  0.81518492241E-02  0.21139366119E-02 -0.22472878608E-01  0.23998992618E-01  0.00000000000E+00 0. -1.
     999901    1    3    3    0    0  0.73197050985E-01 -0.47040779059E-01 -0.71059159134E-01  0.88714150352E+00  0.88000000000E+00 0. -1.
        -11    1    4    4    0    0 -0.45369306524E-01  0.33645813075E-01  0.53695488218E-01  0.77935109469E-01  0.51100000000E-03 0. -1.
         11    1    4    4    0    0 -0.35979593685E-01  0.11281029372E-01  0.39836549523E-01  0.54854394394E-01  0.51100000000E-03 0.  1.
</event>
<event>
 8    1  0.1022673E+005  0.1043930E+01  0.7957747E-01            NaN
         13   -1    0    0    0    0  0.00000000000E+00  0.00000000000E+00  0.74505805969E-08  0.10566000000E+00  0.10566000000E+00 0.  1.
     999900   -1    0    0    0    0 -0.00000000000E+00 -0.00000000000E+00 -0.74505805969E-08  0.93827000000E+00  0.93827000000E+00 0.  1.
     999902    2    1    2    0    0 -0.38564345648E-02  0.33419935991E-02 -0.23612323473E-01  0.10197725409E+01  0.10194863670E+01 0.  0.
     999903    2    3    3    0    0  0.59362123343E-01  0.37876241681E-01  0.10450480301E+00  0.12758242753E+00  0.19938670753E-01 0.  0.
         14    1    1    2    0    0  0.38564345648E-02 -0.33419935991E-02  0.23612323473E-01  0.24157459066E-01  0.00000000000E+00 0.  1.
     999901    1    3    3    0    0 -0.63218557908E-01 -0.34534248082E-01 -0.12811712648E+00  0.89219011340E+00  0.88000000000E+00 0.  1.
        -11    1    4    4    0    0  0.33730414003E-01  0.28629020040E-01  0.50861669747E-01  0.67413145512E-01  0.51100000000E-03 0. -1.
         11    1    4    4    0    0  0.25631709340E-01  0.92472216406E-02  0.53643133261E-01  0.60169282020E-01  0.51100000000E-03 0.  1.
</event>
<event>
 8    1  0.1022673E+005  0.1043930E+01  0.7957747E-01            NaN
         13   -1    0    0    0    0  0.00000000000E+00  0.00000000000E+00  0.74505805969E-08  0.10566000000E+00  0.10566000000E+00 0. -1.
     999900   -1    0    0    0    0 -0.00000000000E+00 -0.00000000000E+00 -0.74505805969E-08  0.93827000000E+00  0.93827000000E+00 0. -1.
     999902    2    1    2    0    0  0.27072116815E-02  0.11002441161E-01  0.19673660190E-01  0.10212267929E+01  0.10209744007E+01 0.  0.
     999903    2    3    3    0    0 -0.36804310736E-01 -0.52618219257E-01  0.11488203388E+00  0.13292876677E+00  0.18679963623E-01 0.  0.
         14    1    1    2    0    0 -0.27072116815E-02 -0.11002441161E-01 -0.19673660190E-01  0.22703207083E-01  0.00000000000E+00 0.  1.
     999901    1    3    3    0    0  0.39511522417E-01  0.63620660418E-01 -0.95208373687E-01  0.88829802615E+00  0.88000000000E+00 0.  1.
        -11    1    4    4    0    0 -0.84615708915E-02 -0.25276162733E-01  0.36399657661E-01  0.45118497130E-01  0.51100000000E-03 0.  1.
         11    1    4    4    0    0 -0.28342739844E-01 -0.27342056524E-01  0.78482376216E-01  0.87810269640E-01  0.51100000000E-03 0. -1.
</event>
<event>
 8    1  0.1022673E+005  0.1043930E+01  0.7957747E-01            NaN
         13   -1    0    0    0    0  0.00000000000E+00  0.00000000000E+00  0.74505805969E-08  0.10566000000E+00  0.10566000000E+00 0. -1.
     999900   -1    0    0    0    0 -0.00000000000E+00 -0.00000000000E+00 -0.74505805969E-08  0.93827000000E+00  0.93827000000E+00 0.  1.
     999902    2    1    2    0    0 -0.17553055140E-01 -0.10822399178E-01 -0.12500312372E-01  0.10198158573E+01  0.10195307209E+01 0.  0.
     999903    2    3    3    0    0 -0.95552447715E-01 -0.89378096828E-01 -0.12533133101E-01  0.13288017533E+00  0.19528110858E-01 0.  0.
         14    1    1    2    0    0  0.17553055140E-01  0.10822399178E-01  0.12500312372E-01  0.24114142699E-01  0.00000000000E+00 0. -1.
     999901    1    3    3    0    0  0.77999392575E-01  0.78555697650E-01  0.32820729542E-04  0.88693568197E+00  0.88000000000E+00 0. -1.
        -11    1    4    4    0    0 -0.44969909508E-01 -0.47187704018E-01 -0.15278770835E-01  0.66952775379E-01  0.51100000000E-03 0.  1.
         11    1    4    4    0    0 -0.50582538207E-01 -0.42190392810E-01  0.27456377331E-02  0.65927399952E-01  0.51100000000E-03 0. -1.
</event>
<event>
 8    1  0.1022673E+005  0.1043930E+01  0.7957747E-01            NaN
         13   -1    0    0    0    0  0.00000000000E+00  0.00000000000E+00  0.74505805969E-08  0.10566000000E+00  0.10566000000E+00 0.  1.
     999900   -1    0    0    0    0 -0.00000000000E+00 -0.00000000000E+00 -0.74505805969E-08  0.93827000000E+00  0.93827000000E+00 0. -1.
     999902    2    1    2    0    0  0.47383907429E-02  0.97936534629E-02 -0.21899653691E-01  0.10194767216E+01  0.10191834099E+01 0.  0.
     999903    2    3    3    0    0 -0.18394992144E-01  0.12662195041E+00 -0.22381982598E-01  0.13145406587E+00  0.20192182340E-01 0.  0.
         14    1    1    2    0    0 -0.47383907429E-02 -0.97936534629E-02  0.21899653691E-01  0.24453278446E-01  0.00000000000E+00 0.  1.
     999901    1    3    3    0    0  0.23133382887E-01 -0.11682829694E+00  0.48232890742E-03  0.88802265569E+00  0.88000000000E+00 0.  1.
        -11    1    4    4    0    0  0.30640421175E-02  0.11269243819E-01  0.12789498946E-02  0.11759296075E-01  0.51100000000E-03 0.  1.
         11    1    4    4    0    0 -0.21459034261E-01  0.11535270659E+00 -0.23660932493E-01  0.11969476979E+00  0.51100000000E-03 0. -1.
</event>
<event>
 8    1  0.1022673E+005  0.1043930E+01  0.7957747E-01            NaN
         13   -1    0    0    0    0  0.00000000000E+00  0.00000000000E+00  0.74505805969E-08  0.10566000000E+00  0.10566000000E+00 0. -1.
     999900   -1    0    0    0    0 -0.00000000000E+00 -0.00000000000E+00 -0.74505805969E-08  0.93827000000E+00  0.93827000000E+00 0. -1.
     999902    2    1    2    0    0  0.15536987267E-01 -0.91713414742E-02  0.14879882586E-01  0.10205436283E+01  0.10202756367E+01 0.  0.
     999903    2    3    3    0    0 -0.43900699522E-01  0.69380563377E-01 -0.95990482252E-01  0.12813370105E+00  0.21520656798E-01 0.  0.
         14    1    1    2    0    0 -0.15536987267E-01  0.91713414742E-02 -0.14879882586E-01  0.23386371748E-01  0.00000000000E+00 0.  1.
     999901    1    3    3    0    0  0.59437686789E-01 -0.78551904852E-01  0.11087036484E+00  0.89240992720E+00  0.88000000000E+00 0. -1.
        -11    1    4    4    0    0 -0.16719264259E-01  0.37200113539E-01 -0.60949908688E-01  0.73338494222E-01  0.51100000000E-03 0.  1.
         11    1    4    4    0    0 -0.27181435263E-01  0.32180449839E-01 -0.35040573564E-01  0.54795206829E-01  0.51100000000E-03 0. -1.
</event>
<event>
 7    1  0.1022673E+005  0.1043930E+01  0.7957747E-01            NaN
         13   -1    0    0    0    0  0.00000000000E+00  0.00000000000E+00  0.74505805969E-08  0.10566000000E+00  0.10566000000E+00 0. -1.
     999900   -1    0    0    0    0 -0.00000000000E+00 -0.00000000000E+00 -0.74505805969E-08  0.93827000000E+00  0.93827000000E+00 0. -1.
     999903    2    1    2    0    0  0.17355736818E-01  0.29957541963E-01 -0.36486012834E-01  0.53526253395E-01  0.18307232152E-01 0.  0.
         14    1    1    2    0    0  0.19528523982E-01 -0.61881733576E-01 -0.78206224869E-01  0.10162148300E+00  0.00000000000E+00 0.  1.
     999901    1    1    2    0    0 -0.36884260800E-01  0.31924191613E-01  0.11469223770E+00  0.88878226360E+00  0.88000000000E+00 0.  1.
        -11    1    3    3    0    0  0.69859317204E-02  0.26641382246E-01 -0.21237438085E-01  0.34782989915E-01  0.51100000000E-03 0. -1.
         11    1    3    3    0    0  0.10369805098E-01  0.33161597169E-02 -0.15248574749E-01  0.18743263480E-01  0.51100000000E-03 0.  1.
</event>
<event>
 8    1  0.1022673E+005  0.1043930E+01  0.7957747E-01            NaN
         13   -1    0    0    0    0  0.00000000000E+00  0.00000000000E+00  0.74505805969E-08  0.10566000000E+00  0.10566000000E+00 0.  1.
     999900   -1    0    0    0    0 -0.00000000000E+00 -0.00000000000E+00 -0.74505805969E-08  0.93827000000E+00  0.93827000000E+00 0. -1.
     999902    2    1    2    0    0  0.16381360973E-01 -0.34114403014E-02  0.15048620215E-01  0.10214256030E+01  0.10211776607E+01 0.  0.
     999903    2    3    3    0    0  0.66659387030E-01 -0.10804116464E-01 -0.11052128249E+00  0.13106032293E+00  0.20041246249E-01 0.  0.
         14    1    1    2    0    0 -0.16381360973E-01  0.34114403014E-02 -0.15048620215E-01  0.22504396962E-01  0.00000000000E+00 0. -1.
     999901    1    3    3    0    0 -0.50278026057E-01  0.73926761626E-02  0.12556990270E+00  0.89036528011E+00  0.88000000000E+00 0.  1.
        -11    1    4    4    0    0 -0.77009646579E-03 -0.21865303588E-02 -0.50397241119E-02  0.55708081730E-02  0.51100000000E-03 0.  1.
         11    1    4    4    0    0  0.67429483495E-01 -0.86175861051E-02 -0.10548155837E+00  0.12548951475E+00  0.51100000000E-03 0. -1.
</event>
<event>
 8    1  0.1022673E+005  0.1043930E+01  0.7957747E-01            NaN
         13   -1    0    0    0    0  0.00000000000E+00  0.00000000000E+00  0.74505805969E-08  0.10566000000E+00  0.10566000000E+00 0. -1.
     999900   -1    0    0    0    0 -0.00000000000E+00 -0.00000000000E+00 -0.74505805969E-08  0.93827000000E+00  0.93827000000E+00 0. -1.
     999902    2    1    2    0    0  0.11921253627E-01 -0.10986594436E-01  0.15616920637E-01  0.10214197855E+01  0.10211717135E+01 0.  0.
     999903    2    3    3    0    0  0.12037102444E-01  0.91639447583E-01 -0.88238213623E-01  0.12938951315E+00  0.20321997493E-01 0.  0.
         14    1    1    2    0    0 -0.11921253627E-01  0.10986594436E-01 -0.15616920637E-01  0.22510214471E-01  0.00000000000E+00 0.  1.
     999901    1    3    3    0    0 -0.11584881664E-03 -0.10262604202E+00  0.10385513426E+00  0.89203027238E+00  0.88000000000E+00 0. -1.
        -11    1    4    4    0    0  0.16617337286E-01  0.58783257591E-01 -0.51638273604E-01  0.79989872442E-01  0.51100000000E-03 0. -1.
         11    1    4    4    0    0 -0.45802348424E-02  0.32856189992E-01 -0.36599940019E-01  0.49399640711E-01  0.51100000000E-03 0.  1.
</event>
<event>
 8    1  0.1022673E+005  0.1043930E+01  0.7957747E-01            NaN
         13   -1    0    0    0    0  0.00000000000E+00  0.00000000000E+00  0.74505805969E-08  0.10566000000E+00  0.10566000000E+00 0. -1.
     999900   -1    0    0    0    0 -0.00000000000E+00 -0.00000000000E+00 -0.74505805969E-08  0.93827000000E+00  0.93827000000E+00 0. -1.
     999902    2    1    2    0    0  0.12095110536E-01  0.19505728357E-01 -0.54115791304E-02  0.10203492806E+01  0.10200767638E+01 0.  0.
     999903    2    3    3    0    0  0.11038684200E+00  0.67032095004E-01  0.25090278132E-01  0.13307796738E+00  0.20041624146E-01 0.  0.
         14    1    1    2    0    0 -0.12095110536E-01 -0.19505728357E-01  0.54115791304E-02  0.23580719376E-01  0.00000000000E+00 0.  1.
     999901    1    3    3    0    0 -0.98291731467E-01 -0.47526366646E-01 -0.30501857263E-01  0.88727131324E+00  0.88000000000E+00 0. -1.
        -11    1    4    4    0    0  0.36734842280E-01  0.11673762999E-01  0.68828622777E-02  0.39158144670E-01  0.51100000000E-03 0. -1.
         11    1    4    4    0    0  0.73651999723E-01  0.55358332004E-01  0.18207415855E-01  0.93919822714E-01  0.51100000000E-03 0.  1.
</event>
<event>
 8    1  0.1022673E+005  0.1043930E+01  0.7957747E-01            NaN
         13   -1    0    0    0    0  0.00000000000E+00  0.00000000000E+00  0.74505805969E-08  0.10566000000E+00  0.10566000000E+00 0. -1.
     999900   -1    0    0    0    0 -0.00000000000E+00 -0.00000000000E+00 -0.74505805969E-08  0.93827000000E+00  0.93827000000E+00 0. -1.
     999902    2    1    2    0    0 -0.40731708642E-02 -0.12039016058E-01 -0.24856622410E-01  0.10160126164E+01  0.10156289955E+01 0.  0.
     999903    2    3    3    0    0  0.58963948016E-01 -0.62673049766E-01  0.88550899131E-01  0.12505877380E+00  0.19843811005E-01 0.  0.
         14    1    1    2    0    0  0.40731708642E-02  0.12039016058E-01  0.24856622410E-01  0.27917383584E-01  0.00000000000E+00 0. -1.
     999901    1    3    3    0    0 -0.63037118880E-01  0.50634033708E-01 -0.11340752154E+00  0.89095384261E+00  0.88000000000E+00 0. -1.
        -11    1    4    4    0    0  0.25833513753E-01 -0.17674131812E-01  0.22567402701E-01  0.38591374085E-01  0.51100000000E-03 0. -1.
         11    1    4    4    0    0  0.33130434263E-01 -0.44998917955E-01  0.65983496431E-01  0.86467399717E-01  0.51100000000E-03 0.  1.
</event>
<event>
 8    1  0.1022673E+005  0.1043930E+01  0.7957747E-01            NaN
         13   -1    0    0    0    0  0.00000000000E+00  0.00000000000E+00  0.74505805969E-08  0.10566000000E+00  0.10566000000E+00 0.  1.
     999900   -1    0    0    0    0 -0.00000000000E+00 -0.00000000000E+00 -0.74505805969E-08  0.93827000000E+00  0.93827000000E+00 0. -1.
     999902    2    1    2    0    0  0.11795094767E-02  0.11544290672E-01  0.19399610853E-01  0.10213245407E+01  0.10210743414E+01 0.  0.
     999903    2    3    3    0    0 -0.12032066856E+00  0.27682977471E-01  0.43705745823E-01  0.13249748288E+00  0.20049444577E-01 0.  0.
         14    1    1    2    0    0 -0.11795094767E-02 -0.11544290672E-01 -0.19399610853E-01  0.22605459318E-01  0.00000000000E+00 0. -1.
     999901    1    3    3    0    0  0.12150017804E+00 -0.16138686799E-01 -0.24306134969E-01  0.88882705780E+00  0.88000000000E+00 0.  1.
        -11    1    4    4    0    0 -0.31115647529E-01  0.15113710427E-01  0.16921980291E-01  0.38512625229E-01  0.51100000000E-03 0.  1.
         11    1    4    4    0    0 -0.89205021033E-01  0.12569267044E-01  0.26783765532E-01  0.93984857656E-01  0.51100000000E-03 0. -1.
</event>
<event>
 8    1  0.1033967E+005  0.1043930E+01  0.7957747E-01            NaN
         13   -1    0    0    0    0  0.00000000000E+00  0.00000000000E+00  0.74505805969E-08  0.10566000000E+00  0.10566000000E+00 0. -1.
     999900   -1    0    0    0    0 -0.00000000000E+00 -0.00000000000E+00 -0.74505805969E-08  0.93827000000E+00  0.93827000000E+00 0. -1.
     999902    2    1    2    0    0 -0.18875562853E-01  0.48816859122E-02 -0.15342426657E-01  0.10191205706E+01  0.10188185460E+01 0.  0.
     999903    2    3    3    0    0  0.70954261750E-01 -0.10170599915E+00 -0.24861397851E-01  0.12809815631E+00  0.20308397858E-01 0.  0.
         14    1    1    2    0    0  0.18875562853E-01 -0.48816859122E-02  0.15342426657E-01  0.24809429379E-01  0.00000000000E+00 0. -1.
     999901    1    3    3    0    0 -0.89829824604E-01  0.10658768506E+00  0.95189711937E-02  0.89102241431E+00  0.88000000000E+00 0.  1.
        -11    1    4    4    0    0  0.40526080491E-01 -0.47019542239E-01 -0.43076047282E-02  0.62225534404E-01  0.51100000000E-03 0. -1.
         11    1    4    4    0    0  0.30428181259E-01 -0.54686456908E-01 -0.20553793123E-01  0.65872621905E-01  0.51100000000E-03 0.  1.
</event>
<event>
 8    1  0.1022673E+005  0.1043930E+01  0.7957747E-01            NaN
         13   -1    0    0    0    0  0.00000000000E+00  0.00000000000E+00  0.74505805969E-08  0.10566000000E+00  0.10566000000E+00 0. -1.
     999900   -1    0    0    0    0 -0.00000000000E+00 -0.00000000000E+00 -0.74505805969E-08  0.93827000000E+00  0.93827000000E+00 0. -1.
     999902    2    1    2    0    0  0.15491641128E-01  0.17484298998E-01  0.71157114908E-02  0.10195102333E+01  0.10192177347E+01 0.  0.
     999903    2    3    3    0    0  0.60394059168E-02  0.12113898804E+00  0.49086873615E-01  0.13238272398E+00  0.20113070378E-01 0.  0.
         14    1    1    2    0    0 -0.15491641128E-01 -0.17484298998E-01 -0.71157114908E-02  0.24419766713E-01  0.00000000000E+00 0.  1.
     999901    1    3    3    0    0  0.94522352107E-02 -0.10365468905E+00 -0.41971162124E-01  0.88712750930E+00  0.88000000000E+00 0. -1.
        -11    1    4    4    0    0  0.70408323112E-02  0.29010180574E-01  0.51137567328E-02  0.30291509132E-01  0.51100000000E-03 0.  1.
         11    1    4    4    0    0 -0.10014263944E-02  0.92128807470E-01  0.43973116883E-01  0.10209121485E+00  0.51100000000E-03 0. -1.
</event>
<event>
 8    1  0.1022673E+005  0.1043930E+01  0.7957747E-01            NaN
         13   -1    0    0    0    0  0.00000000000E+00  0.00000000000E+00  0.74505805969E-08  0.10566000000E+00  0.10566000000E+00 0.  1.
     999900   -1    0    0    0    0 -0.00000000000E+00 -0.00000000000E+00 -0.74505805969E-08  0.93827000000E+00  0.93827000000E+00 0.  1.
     999902    2    1    2    0    0 -0.10772604629E-01 -0.12523590849E-01  0.17097714686E-01  0.10201556191E+01  0.10198785546E+01 0.  0.
     999903    2    3    3    0    0  0.12097408763E+00 -0.41685064756E-01 -0.37599151512E-02  0.12962621299E+00  0.20406950514E-01 0.  0.
         14    1    1    2    0    0  0.10772604629E-01  0.12523590849E-01 -0.17097714686E-01  0.23774380870E-01  0.00000000000E+00 0. -1.
     999901    1    3    3    0    0 -0.13174669226E+00  0.29161473907E-01  0.20857629838E-01  0.89052940614E+00  0.88000000000E+00 0. -1.
        -11    1    4    4    0    0  0.26017937322E-01 -0.11083457040E-01 -0.91110480731E-02  0.29716130308E-01  0.51100000000E-03 0. -1.
         11    1    4    4    0    0  0.94956150310E-01 -0.30601607715E-01  0.53511329220E-02  0.99910082680E-01  0.51100000000E-03 0.  1.
</event>
<event>
 8    1  0.1022673E+005  0.1043930E+01  0.7957747E-01            NaN
         13   -1    0    0    0    0  0.00000000000E+00  0.00000000000E+00  0.74505805969E-08  0.10566000000E+00  0.10566000000E+00 0. -1.
     999900   -1    0    0    0    0 -0.00000000000E+00 -0.00000000000E+00 -0.74505805969E-08  0.93827000000E+00  0.93827000000E+00 0.  1.
     999902    2    1    2    0    0  0.84775488306E-02 -0.21491859167E-01  0.96171432401E-02  0.10189048469E+01  0.10185974812E+01 0.  0.
     999903    2    3    3    0    0 -0.22426562356E-01 -0.10134277950E+00  0.78886391436E-01  0.13203988404E+00  0.20932237544E-01 0.  0.
         14    1    1    2    0    0 -0.84775488306E-02  0.21491859167E-01 -0.96171432401E-02  0.25025153121E-01  0.00000000000E+00 0.  1.
     999901    1    3    3    0    0  0.30904111186E-01  0.79850920328E-01 -0.69269248196E-01  0.88686496284E+00  0.88000000000E+00 0. -1.
        -11    1    4    4    0    0 -0.96224606869E-02 -0.74445863696E-01  0.47865591294E-01  0.89028952156E-01  0.51100000000E-03 0.  1.
         11    1    4    4    0    0 -0.12804101669E-01 -0.26896915799E-01  0.31020800142E-01  0.43010931884E-01  0.51100000000E-03 0. -1.
</event>
<event>
 8    1  0.1022673E+005  0.1043930E+01  0.7957747E-01            NaN
         13   -1    0    0    0    0  0.00000000000E+00  0.00000000000E+00  0.74505805969E-08  0.10566000000E+00  0.10566000000E+00 0.  1.
     999900   -1    0    0    0    0 -0.00000000000E+00 -0.00000000000E+00 -0.74505805969E-08  0.93827000000E+00  0.93827000000E+00 0. -1.
     999902    2    1    2    0    0  0.16390900002E-01 -0.34630869072E-02  0.16437947300E-01  0.10204595785E+01  0.10201896347E+01 0.  0.
     999903    2    3    3    0    0 -0.12554236945E+00 -0.19100770672E-01  0.32478288842E-02  0.12885228302E+00  0.21601770331E-01 0.  0.
         14    1    1    2    0    0 -0.16390900002E-01  0.34630869072E-02 -0.16437947300E-01  0.23470421497E-01  0.00000000000E+00 0. -1.
     999901    1    3    3    0    0  0.14193326945E+00  0.15637683765E-01  0.13190118416E-01  0.89160729548E+00  0.88000000000E+00 0. -1.
        -11    1    4    4    0    0 -0.10430291722E+00 -0.23564297182E-01  0.51713159958E-02  0.10705782677E+00  0.51100000000E-03 0.  1.
         11    1    4    4    0    0 -0.21239452221E-01  0.44635265097E-02 -0.19234871116E-02  0.21794456250E-01  0.51100000000E-03 0. -1.
</event>
<event>
 8    1  0.1022673E+005  0.1043930E+01  0.7957747E-01            NaN
         13   -1    0    0    0    0  0.00000000000E+00  0.00000000000E+00  0.74505805969E-08  0.10566000000E+00  0.10566000000E+00 0. -1.
     999900   -1    0    0    0    0 -0.00000000000E+00 -0.00000000000E+00 -0.74505805969E-08  0.93827000000E+00  0.93827000000E+00 0.  1.
     999902    2    1    2    0    0 -0.14268074496E-01  0.37401880061E-02  0.17690517646E-01  0.10208969505E+01  0.10206370864E+01 0.  0.
     999903    2    3    3    0    0  0.75899258451E-01 -0.99214123795E-01 -0.26472878450E-01  0.12922428418E+00  0.19848489483E-01 0.  0.
         14    1    1    2    0    0  0.14268074496E-01 -0.37401880061E-02 -0.17690517646E-01  0.23033049532E-01  0.00000000000E+00 0.  1.
     999901    1    3    3    0    0 -0.90167332947E-01  0.10295431180E+00  0.44163396097E-01  0.89167266629E+00  0.88000000000E+00 0. -1.
        -11    1    4    4    0    0  0.45450658400E-01 -0.49266638295E-01 -0.22021660946E-01  0.70556209292E-01  0.51100000000E-03 0. -1.
         11    1    4    4    0    0  0.30448600052E-01 -0.49947485500E-01 -0.44512175040E-02  0.58668074888E-01  0.51100000000E-03 0.  1.
</event>
<event>
 8    1  0.1022673E+005  0.1043930E+01  0.7957747E-01            NaN
         13   -1    0    0    0    0  0.00000000000E+00  0.00000000000E+00  0.74505805969E-08  0.10566000000E+00  0.10566000000E+00 0. -1.
     999900   -1    0    0    0    0 -0.00000000000E+00 -0.00000000000E+00 -0.74505805969E-08  0.93827000000E+00  0.93827000000E+00 0.  1.
     999902    2    1    2    0    0  0.82767085711E-02 -0.18775723029E-01 -0.11312093765E-01  0.10204993546E+01  0.10202303355E+01 0.  0.
     999903    2    3    3    0    0  0.48424930184E-01  0.11741691876E+00  0.11845901236E-01  0.12881745607E+00  0.17941709429E-01 0.  0.
         14    1    1    2    0    0 -0.82767085711E-02  0.18775723029E-01  0.11312093765E-01  0.23430645432E-01  0.00000000000E+00 0.  1.
     999901    1    3    3    0    0 -0.40148221613E-01 -0.13619264179E+00 -0.23157995001E-01  0.89168189850E+00  0.88000000000E+00 0.  1.
        -11    1    4    4    0    0  0.46871451874E-01  0.98669692529E-01  0.74446741017E-02  0.10949121206E+00  0.51100000000E-03 0. -1.
         11    1    4    4    0    0  0.15534783104E-02  0.18747226233E-01  0.44012271344E-02  0.19326244011E-01  0.51100000000E-03 0.  1.
</event>
<event>
 8    1  0.1022673E+005  0.1043930E+01  0.7957747E-01            NaN
         13   -1    0    0    0    0  0.00000000000E+00  0.00000000000E+00  0.74505805969E-08  0.10566000000E+00  0.10566000000E+00 0. -1.
     999900   -1    0    0    0    0 -0.00000000000E+00 -0.00000000000E+00 -0.74505805969E-08  0.93827000000E+00  0.93827000000E+00 0. -1.
     999902    2    1    2    0    0  0.14948378340E-01 -0.23617782851E-01  0.12339980140E-01  0.10133762966E+01  0.10129155886E+01 0.  0.
     999903    2    3    3    0    0  0.10883803006E+00  0.14673105347E-01  0.57975246071E-01  0.12637909462E+00  0.23442047526E-01 0.  0.
         14    1    1    2    0    0 -0.14948378340E-01  0.23617782851E-01 -0.12339980140E-01  0.30553703403E-01  0.00000000000E+00 0.  1.
     999901    1    3    3    0    0 -0.93889651719E-01 -0.38290888199E-01 -0.45635265930E-01  0.88699720198E+00  0.88000000000E+00 0. -1.
        -11    1    4    4    0    0  0.45435748044E-01  0.17488874710E-01  0.28324173947E-01  0.56327505623E-01  0.51100000000E-03 0. -1.
         11    1    4    4    0    0  0.63402282015E-01 -0.28157693630E-02  0.29651072124E-01  0.70051588996E-01  0.51100000000E-03 0.  1.
</event>
<event>
 8    1  0.1022673E+005  0.1043930E+01  0.7957747E-01            NaN
         13   -1    0    0    0    0  0.00000000000E+00  0.00000000000E+00  0.74505805969E-08  0.10566000000E+00  0.10566000000E+00 0. -1.
     999900   -1    0    0    0    0 -0.00000000000E+00 -0.00000000000E+00 -0.74505805969E-08  0.93827000000E+00  0.93827000000E+00 0.  1.
     999902    2    1    2    0    0 -0.12781458116E-01 -0.52752512989E-02 -0.20719142460E-01  0.10190206280E+01  0.10187161349E+01 0.  0.
     999903    2    3    3    0    0 -0.53775862461E-01  0.18113634520E-01  0.11264148983E+00  0.12772233934E+00  0.20123210407E-01 0.  0.
         14    1    1    2    0    0  0.12781458116E-01  0.52752512989E-02  0.20719142460E-01  0.24909371973E-01  0.00000000000E+00 0. -1.
     999901    1    3    3    0    0  0.40994404345E-01 -0.23388885819E-01 -0.13336063229E+00  0.89129828868E+00  0.88000000000E+00 0.  1.
        -11    1    4    4    0    0 -0.46306574193E-01  0.12155002067E-01  0.75767605393E-01  0.89627194739E-01  0.51100000000E-03 0. -1.
         11    1    4    4    0    0 -0.74692882685E-02  0.59586324529E-02  0.36873884436E-01  0.38095144604E-01  0.51100000000E-03 0.  1.
</event>
<event>
 8    1  0.1022673E+005  0.1043930E+01  0.7957747E-01            NaN
         13   -1    0    0    0    0  0.00000000000E+00  0.00000000000E+00  0.74505805969E-08  0.10566000000E+00  0.10566000000E+00 0. -1.
     999900   -1    0    0    0    0 -0.00000000000E+00 -0.00000000000E+00 -0.74505805969E-08  0.93827000000E+00  0.93827000000E+00 0. -1.
     999902    2    1    2    0    0  0.84954175615E-02  0.13162591128E-01 -0.17558259245E-01  0.10203987783E+01  0.10201274178E+01 0.  0.
     999903    2    3    3    0    0  0.25780948656E-01  0.11756286270E+00  0.49318688674E-01  0.13153954739E+00  0.19612125739E-01 0.  0.
         14    1    1    2    0    0 -0.84954175615E-02 -0.13162591128E-01  0.17558259245E-01  0.23531221653E-01  0.00000000000E+00 0. -1.
     999901    1    3    3    0    0 -0.17285531094E-01 -0.10440027157E+00 -0.66876947919E-01  0.88885923095E+00  0.88000000000E+00 0.  1.
        -11    1    4    4    0    0  0.92148072500E-02  0.84048448002E-01  0.34508007137E-01  0.91324246298E-01  0.51100000000E-03 0. -1.
         11    1    4    4    0    0  0.16566141406E-01  0.33514414698E-01  0.14810681537E-01  0.40215301095E-01  0.51100000000E-03 0.  1.
</event>
<event>
 8    1  0.1022673E+005  0.1043930E+01  0.7957747E-01            NaN
         13   -1    0    0    0    0  0.00000000000E+00  0.00000000000E+00  0.74505805969E-08  0.10566000000E+00  0.10566000000E+00 0.  1.
     999900   -1    0    0    0    0 -0.00000000000E+00 -0.00000000000E+00 -0.74505805969E-08  0.93827000000E+00  0.93827000000E+00 0.  1.
     999902    2    1    2    0    0  0.13086275799E-01  0.68169422794E-02  0.18285601547E-01  0.10204335207E+01  0.10201629701E+01 0.  0.
     999903    2    3    3    0    0 -0.10413987007E+00  0.27181306855E-01 -0.67604593669E-01  0.12828229905E+00  0.17379044422E-01 0.  0.
         14    1    1    2    0    0 -0.13086275799E-01 -0.68169422794E-02 -0.18285601547E-01  0.23496479316E-01  0.00000000000E+00 0. -1.
     999901    1    3    3    0    0  0.11722614587E+00 -0.20364364576E-01  0.85890195217E-01  0.89215122163E+00  0.88000000000E+00 0.  1.
        -11    1    4    4    0    0 -0.71986556997E-01  0.10988733862E-01 -0.41574570124E-01  0.83854174983E-01  0.51100000000E-03 0. -1.
         11    1    4    4    0    0 -0.32153313073E-01  0.16192572994E-01 -0.26030023545E-01  0.44428124071E-01  0.51100000000E-03 0.  1.
</event>
<event>
 8    1  0.1022673E+005  0.1043930E+01  0.7957747E-01            NaN
         13   -1    0    0    0    0  0.00000000000E+00  0.00000000000E+00  0.74505805969E-08  0.10566000000E+00  0.10566000000E+00 0.  1.
     999900   -1    0    0    0    0 -0.00000000000E+00 -0.00000000000E+00 -0.74505805969E-08  0.93827000000E+00  0.93827000000E+00 0. -1.
     999902    2    1    2    0    0  0.58290884206E-02 -0.82973250533E-02  0.20527190133E-01  0.10210348169E+01  0.10207780894E+01 0.  0.
     999903    2    3    3    0    0 -0.11584725928E+00 -0.10295427307E-01 -0.52854708781E-01  0.12963477814E+00  0.22022083400E-01 0.  0.
         14    1    1    2    0    0 -0.58290884206E-02  0.82973250533E-02 -0.20527190133E-01  0.22895183109E-01  0.00000000000E+00 0. -1.
     999901    1    3    3    0    0  0.12167634770E+00  0.19981022538E-02  0.73381898914E-01  0.89140003875E+00  0.88000000000E+00 0.  1.
        -11    1    4    4    0    0 -0.78278862976E-01 -0.13450608684E-01 -0.44396959400E-01  0.90993683230E-01  0.51100000000E-03 0. -1.
         11    1    4    4    0    0 -0.37568396299E-01  0.31551813770E-02 -0.84577493809E-02  0.38641094907E-01  0.51100000000E-03 0.  1.
</event>
<event>
 8    1  0.1022673E+005  0.1043930E+01  0.7957747E-01            NaN
         13   -1    0    0    0    0  0.00000000000E+00  0.00000000000E+00  0.74505805969E-08  0.10566000000E+00  0.10566000000E+00 0. -1.
     999900   -1    0    0    0    0 -0.00000000000E+00 -0.00000000000E+00 -0.74505805969E-08  0.93827000000E+00  0.93827000000E+00 0. -1.
     999902    2    1    2    0    0 -0.63467519458E-02 -0.13709449508E-01  0.19638734074E-01  0.10191527899E+01  0.10188515588E+01 0.  0.
     999903    2    3    3    0    0  0.34891317799E-01  0.11229531178E+00  0.48066423838E-01  0.12876752954E+00  0.21048858821E-01 0.  0.
         14    1    1    2    0    0  0.63467519458E-02  0.13709449508E-01 -0.19638734074E-01  0.24777210135E-01  0.00000000000E+00 0. -1.
     999901    1    3    3    0    0 -0.41238069745E-01 -0.12600476129E+00 -0.28427689764E-01  0.89038526033E+00  0.88000000000E+00 0.  1.
        -11    1    4    4    0    0  0.58922726809E-02  0.54038095643E-01  0.20660754870E-01  0.58154643588E-01  0.51100000000E-03 0.  1.
         11    1    4    4    0    0  0.28999045118E-01  0.58257216134E-01  0.27405668968E-01  0.70612885949E-01  0.51100000000E-03 0. -1.
</event>
<event>
 8    1  0.1022673E+005  0.1043930E+01  0.7957747E-01            NaN
         13   -1    0    0    0    0  0.00000000000E+00  0.00000000000E+00  0.74505805969E-08  0.10566000000E+00  0.10566000000E+00 0.  1.
     999900   -1    0    0    0    0 -0.00000000000E+00 -0.00000000000E+00 -0.74505805969E-08  0.93827000000E+00  0.93827000000E+00 0.  1.
     999902    2    1    2    0    0  0.27490170051E-02 -0.83543138595E-02 -0.21043618974E-01  0.10211224233E+01  0.10208676789E+01 0.  0.
     999903    2    3    3    0    0 -0.88350420260E-01  0.48515924140E-02  0.91919811206E-01  0.12913910510E+00  0.19958007508E-01 0.  0.
         14    1    1    2    0    0 -0.27490170051E-02  0.83543138595E-02  0.21043618974E-01  0.22807576682E-01  0.00000000000E+00 0.  1.
     999901    1    3    3    0    0  0.91099437265E-01 -0.13205906274E-01 -0.11296343018E+00  0.89198331822E+00  0.88000000000E+00 0.  1.
        -11    1    4    4    0    0 -0.32557049294E-01  0.74796377969E-02  0.45868421784E-01  0.56745745905E-01  0.51100000000E-03 0. -1.
         11    1    4    4    0    0 -0.55793370966E-01 -0.26280453829E-02  0.46051389422E-01  0.72393359191E-01  0.51100000000E-03 0.  1.
</event>
<event>
 8    1  0.1022673E+005  0.1043930E+01  0.7957747E-01            NaN
         13   -1    0    0    0    0  0.00000000000E+00  0.00000000000E+00  0.74505805969E-08  0.10566000000E+00  0.10566000000E+00 0. -1.
     999900   -1    0    0    0    0 -0.00000000000E+00 -0.00000000000E+00 -0.74505805969E-08  0.93827000000E+00  0.93827000000E+00 0. -1.
     999902    2    1    2    0    0 -0.13200720564E-01 -0.51853060837E-02 -0.16590882288E-01  0.10221033237E+01  0.10218702464E+01 0.  0.
     999903    2    3    3    0    0 -0.26524532500E-01 -0.67122344832E-01 -0.11200673384E+00  0.13468126772E+00  0.19610595325E-01 0.  0.
         14    1    1    2    0    0  0.13200720564E-01  0.51853060837E-02  0.16590882288E-01  0.21826676286E-01  0.00000000000E+00 0. -1.
     999901    1    3    3    0    0  0.13323811936E-01  0.61937038748E-01  0.95415851555E-01  0.88742205599E+00  0.88000000000E+00 0.  1.
        -11    1    4    4    0    0 -0.84626285127E-02 -0.11399624074E-01 -0.11202119308E-01  0.18091879625E-01  0.51100000000E-03 0.  1.
         11    1    4    4    0    0 -0.18061903987E-01 -0.55722720758E-01 -0.10080461454E+00  0.11658938810E+00  0.51100000000E-03 0. -1.
</event>
<event>
 8    1  0.1022673E+005  0.1043930E+01  0.7957747E-01            NaN
         13   -1    0    0    0    0  0.00000000000E+00  0.00000000000E+00  0.74505805969E-08  0.10566000000E+00  0.10566000000E+00 0.  1.
     999900   -1    0    0    0    0 -0.00000000000E+00 -0.00000000000E+00 -0.74505805969E-08  0.93827000000E+00  0.93827000000E+00 0. -1.
     999902    2    1    2    0    0  0.19874232064E-01 -0.98648276729E-02 -0.90723742158E-02  0.10199590196E+01  0.10196772989E+01 0.  0.
     999903    2    3    3    0    0  0.45889515575E-01  0.26621169127E-01  0.11683169600E+00  0.12986921640E+00  0.20045794895E-01 0.  0.
         14    1    1    2    0    0 -0.19874232064E-01  0.98648276729E-02  0.90723742158E-02  0.23970980352E-01  0.00000000000E+00 0. -1.
     999901    1    3    3    0    0 -0.26015283511E-01 -0.36485996799E-01 -0.12590407022E+00  0.89008980324E+00  0.88000000000E+00 0. -1.
        -11    1    4    4    0    0  0.32707832905E-01  0.28160656472E-01  0.94413161688E-01  0.10381199896E+00  0.51100000000E-03 0. -1.
         11    1    4    4    0    0  0.13181682670E-01 -0.15394873449E-02  0.22418534317E-01  0.26057217450E-01  0.51100000000E-03 0.  1.
</event>
<event>
 8    1  0.1022673E+005  0.1043930E+01  0.7957747E-01            NaN
         13   -1    0    0    0    0  0.00000000000E+00  0.00000000000E+00  0.74505805969E-08  0.10566000000E+00  0.10566000000E+00 0.  1.
     999900   -1    0    0    0    0 -0.00000000000E+00 -0.00000000000E+00 -0.74505805969E-08  0.93827000000E+00  0.93827000000E+00 0. -1.
     999902    2    1    2    0    0 -0.12031566350E-01 -0.12132106972E-01  0.15484885220E-01  0.10208707659E+01  0.10206103039E+01 0.  0.
     999903    2    3    3    0    0 -0.85386876790E-01  0.26889020879E-01 -0.92219861584E-01  0.13041921611E+00  0.22152446537E-01 0.  0.
         14    1    1    2    0    0  0.12031566350E-01  0.12132106972E-01 -0.15484885220E-01  0.23059234131E-01  0.00000000000E+00 0. -1.
     999901    1    3    3    0    0  0.73355310440E-01 -0.39021127851E-01  0.10770474680E+00  0.89045154976E+00  0.88000000000E+00 0.  1.
        -11    1    4    4    0    0 -0.35701694782E-01  0.13293119756E-02 -0.28771738207E-01  0.45874307854E-01  0.51100000000E-03 0.  1.
         11    1    4    4    0    0 -0.49685182008E-01  0.25559708903E-01 -0.63448123378E-01  0.84544908253E-01  0.51100000000E-03 0. -1.
</event>
<event>
 8    1  0.1022673E+005  0.1043930E+01  0.7957747E-01            NaN
         13   -1    0    0    0    0  0.00000000000E+00  0.00000000000E+00  0.74505805969E-08  0.10566000000E+00  0.10566000000E+00 0. -1.
     999900   -1    0    0    0    0 -0.00000000000E+00 -0.00000000000E+00 -0.74505805969E-08  0.93827000000E+00  0.93827000000E+00 0. -1.
     999902    2    1    2    0    0  0.16672798915E-01  0.10555251569E-01 -0.17411648806E-01  0.10176134449E+01  0.10172731011E+01 0.  0.
     999903    2    3    3    0    0 -0.10159915678E+00  0.18789335634E-01 -0.72608732001E-01  0.12794902857E+00  0.20579070871E-01 0.  0.
         14    1    1    2    0    0 -0.16672798915E-01 -0.10555251569E-01  0.17411648806E-01  0.26316555122E-01  0.00000000000E+00 0. -1.
     999901    1    3    3    0    0  0.11827195570E+00 -0.82340840654E-02  0.55197083195E-01  0.88966441630E+00  0.88000000000E+00 0.  1.
        -11    1    4    4    0    0 -0.69774052863E-01  0.38309541145E-02 -0.52798685764E-01  0.87584570568E-01  0.51100000000E-03 0.  1.
         11    1    4    4    0    0 -0.31825103918E-01  0.14958381520E-01 -0.19810046237E-01  0.40364458005E-01  0.51100000000E-03 0. -1.
</event>
<event>
 8    1  0.1022673E+005  0.1043930E+01  0.7957747E-01            NaN
         13   -1    0    0    0    0  0.00000000000E+00  0.00000000000E+00  0.74505805969E-08  0.10566000000E+00  0.10566000000E+00 0.  1.
     999900   -1    0    0    0    0 -0.00000000000E+00 -0.00000000000E+00 -0.74505805969E-08  0.93827000000E+00  0.93827000000E+00 0. -1.
     999902    2    1    2    0    0  0.79747945723E-02  0.22184250450E-01 -0.27931031424E-02  0.10201910080E+01  0.10199147773E+01 0.  0.
     999903    2    3    3    0    0  0.11560407143E+00 -0.37681481751E-01  0.42107315276E-01  0.13048093459E+00  0.21634530117E-01 0.  0.
         14    1    1    2    0    0 -0.79747945723E-02 -0.22184250450E-01  0.27931031424E-02  0.23738992011E-01  0.00000000000E+00 0.  1.
     999901    1    3    3    0    0 -0.10762927686E+00  0.59865732201E-01 -0.44900418419E-01  0.88971007340E+00  0.88000000000E+00 0.  1.
        -11    1    4    4    0    0  0.10905315428E+00 -0.29610518782E-01  0.39914709762E-01  0.11984497678E+00  0.51100000000E-03 0.  1.
         11    1    4    4    0    0  0.65509171493E-02 -0.80709629695E-02  0.21926055144E-02  0.10635957817E-01  0.51100000000E-03 0. -1.
</event>
<event>
 8    1  0.1022673E+005  0.1043930E+01  0.7957747E-01            NaN
         13   -1    0    0    0    0  0.00000000000E+00  0.00000000000E+00  0.74505805969E-08  0.10566000000E+00  0.10566000000E+00 0. -1.
     999900   -1    0    0    0    0 -0.00000000000E+00 -0.00000000000E+00 -0.74505805969E-08  0.93827000000E+00  0.93827000000E+00 0.  1.
     999902    2    1    2    0    0  0.13538522510E-01  0.66563044437E-02  0.18889918621E-01  0.10197550748E+01  0.10194684819E+01 0.  0.
     999903    2    3    3    0    0 -0.42979360723E-01 -0.15317269460E-01  0.12189529645E+00  0.13167443834E+00  0.19946183214E-01 0.  0.
         14    1    1    2    0    0 -0.13538522510E-01 -0.66563044437E-02 -0.18889918621E-01  0.24174925152E-01  0.00000000000E+00 0.  1.
     999901    1    3    3    0    0  0.56517883233E-01  0.21973573904E-01 -0.10300537783E+00  0.88808063651E+00  0.88000000000E+00 0.  1.
        -11    1    4    4    0    0 -0.32511963748E-01 -0.15089709737E-01  0.69058420703E-01  0.77807799852E-01  0.51100000000E-03 0. -1.
         11    1    4    4    0    0 -0.10467396974E-01 -0.22755972358E-03  0.52836875744E-01  0.53866638490E-01  0.51100000000E-03 0.  1.
</event>
<event>
 8    1  0.1022673E+005  0.1043930E+01  0.7957747E-01            NaN
         13   -1    0    0    0    0  0.00000000000E+00  0.00000000000E+00  0.74505805969E-08  0.10566000000E+00  0.10566000000E+00 0. -1.
     999900   -1    0    0    0    0 -0.00000000000E+00 -0.00000000000E+00 -0.74505805969E-08  0.93827000000E+00  0.93827000000E+00 0. -1.
     999902    2    1    2    0    0  0.18341223528E-01  0.63136760547E-02  0.13453094298E-01  0.10203238836E+01  0.10200507726E+01 0.  0.
     999903    2    3    3    0    0 -0.10687112143E+00 -0.51495801823E-01  0.45745081078E-01  0.12899743415E+00  0.21782363820E-01 0.  0.
         14    1    1    2    0    0 -0.18341223528E-01 -0.63136760547E-02 -0.13453094298E-01  0.23606116411E-01  0.00000000000E+00 0.  1.
     999901    1    3    3    0    0  0.12521234495E+00  0.57809477878E-01 -0.32291986780E-01  0.89132644944E+00  0.88000000000E+00 0.  1.
        -11    1    4    4    0    0 -0.52634669447E-01 -0.13487947997E-01  0.22388481305E-01  0.58769366043E-01  0.51100000000E-03 0. -1.
         11    1    4    4    0    0 -0.54236451980E-01 -0.38007853826E-01  0.23356599773E-01  0.70228068105E-01  0.51100000000E-03 0.  1.
</event>
<event>
 8    1  0.1022673E+005  0.1043930E+01  0.7957747E-01            NaN
         13   -1    0    0    0    0  0.00000000000E+00  0.00000000000E+00  0.74505805969E-08  0.10566000000E+00  0.10566000000E+00 0.  1.
     999900   -1    0    0    0    0 -0.00000000000E+00 -0.00000000000E+00 -0.74505805969E-08  0.93827000000E+00  0.93827000000E+00 0. -1.
     999902    2    1    2    0    0 -0.12810386961E-01  0.36067406697E-02  0.17680613426E-01  0.10218004116E+01  0.10215607483E+01 0.  0.
     999903    2    3    3    0    0  0.75185588156E-01 -0.94619539156E-01  0.47840710981E-01  0.13146265255E+00  0.19696840628E-01 0.  0.
         14    1    1    2    0    0  0.12810386961E-01 -0.36067406697E-02 -0.17680613426E-01  0.22129588416E-01  0.00000000000E+00 0.  1.
     999901    1    3    3    0    0 -0.87995975117E-01  0.98226279825E-01 -0.30160097555E-01  0.89033775904E+00  0.88000000000E+00 0.  1.
        -11    1    4    4    0    0  0.42724890257E-01 -0.62381593772E-01  0.38169129172E-01  0.84699604673E-01  0.51100000000E-03 0.  1.
         11    1    4    4    0    0  0.32460697899E-01 -0.32237945383E-01  0.96715818094E-02  0.46763047872E-01  0.51100000000E-03 0. -1.
</event>
<event>
 7    1  0.1022673E+005  0.1043930E+01  0.7957747E-01            NaN
         13   -1    0    0    0    0  0.00000000000E+00  0.00000000000E+00  0.74505805969E-08  0.10566000000E+00  0.10566000000E+00 0. -1.
     999900   -1    0    0    0    0 -0.00000000000E+00 -0.00000000000E+00 -0.74505805969E-08  0.93827000000E+00  0.93827000000E+00 0. -1.
     999902    2    1    2    0    0 -0.20234776809E-01 -0.11640253709E-02  0.97529073793E-02  0.10214373267E+01  0.10211896455E+01 0.  0.
         14    1    1    2    0    0  0.20234776809E-01  0.11640253709E-02 -0.97529073793E-02  0.22492673250E-01  0.00000000000E+00 0.  1.
     999901    1    3    3    0    0 -0.10944118836E+00 -0.47045507013E-01 -0.73453566084E-01  0.89105896540E+00  0.88000000000E+00 0. -1.
        -11    1    3    3    0    0  0.56966239569E-01  0.29391553985E-01  0.51072826225E-01  0.81961641003E-01  0.51100000000E-03 0.  1.
         11    1    3    3    0    0  0.32240171986E-01  0.16489927657E-01  0.32133647238E-01  0.48416720352E-01  0.51100000000E-03 0. -1.
</event>
