<event>
 8    1  0.1122848E+005  0.1043930E+01  0.7957747E-01            NaN
         13   -1    0    0    0    0  0.00000000000E+00  0.00000000000E+00  0.74505805969E-08  0.10566000000E+00  0.10566000000E+00 0.  1.
     999900   -1    0    0    0    0 -0.00000000000E+00 -0.00000000000E+00 -0.74505805969E-08  0.93827000000E+00  0.93827000000E+00 0. -1.
     999902    2    1    2    0    0 -0.51623491439E-02  0.15399181564E-01 -0.17111117940E-01  0.10203381582E+01  0.10200653813E+01 0.  0.
     999903    2    3    3    0    0 -0.12078653533E-01  0.12405485828E+00 -0.42294439592E-01  0.13327102939E+00  0.20900859346E-01 0.  0.
         14    1    1    2    0    0  0.51623491439E-02 -0.15399181564E-01  0.17111117940E-01  0.23591841782E-01  0.00000000000E+00 0.  1.
     999901    1    3    3    0    0  0.69163043889E-02 -0.10865567672E+00  0.25183321652E-01  0.88706712882E+00  0.88000000000E+00 0. -1.
        -11    1    4    4    0    0 -0.15031070350E-01  0.51159005342E-01 -0.15240612763E-01  0.55459122801E-01  0.51100000000E-03 0. -1.
         11    1    4    4    0    0  0.29524168172E-02  0.72895852938E-01 -0.27053826829E-01  0.77811906594E-01  0.51100000000E-03 0.  1.
</event>
<event>
 8    1  0.1122848E+005  0.1043930E+01  0.7957747E-01            NaN
         13   -1    0    0    0    0  0.00000000000E+00  0.00000000000E+00  0.74505805969E-08  0.10566000000E+00  0.10566000000E+00 0. -1.
     999900   -1    0    0    0    0 -0.00000000000E+00 -0.00000000000E+00 -0.74505805969E-08  0.93827000000E+00  0.93827000000E+00 0. -1.
     999902    2    1    2    0    0  0.49598308720E-02 -0.22804496718E-01 -0.17326399554E-03  0.10205917264E+01  0.10203248488E+01 0.  0.
     999903    2    3    3    0    0 -0.12659124976E+00  0.12456749389E-01  0.17342451572E-01  0.12994261338E+00  0.20094950166E-01 0.  0.
         14    1    1    2    0    0 -0.49598308720E-02  0.22804496718E-01  0.17326399554E-03  0.23338273570E-01  0.00000000000E+00 0. -1.
     999901    1    3    3    0    0  0.13155108064E+00 -0.35261246107E-01 -0.17515715568E-01  0.89064911305E+00  0.88000000000E+00 0. -1.
        -11    1    4    4    0    0 -0.14131800477E-01 -0.68747457318E-03 -0.40231739528E-02  0.14718269452E-01  0.51100000000E-03 0. -1.
         11    1    4    4    0    0 -0.11245944929E+00  0.13144223963E-01  0.21365625525E-01  0.11522434392E+00  0.51100000000E-03 0.  1.
</event>
<event>
 8    1  0.1122848E+005  0.1043930E+01  0.7957747E-01            NaN
         13   -1    0    0    0    0  0.00000000000E+00  0.00000000000E+00  0.74505805969E-08  0.10566000000E+00  0.10566000000E+00 0. -1.
     999900   -1    0    0    0    0 -0.00000000000E+00 -0.00000000000E+00 -0.74505805969E-08  0.93827000000E+00  0.93827000000E+00 0. -1.
     999902    2    1    2    0    0  0.13942392670E-01  0.15764294317E-01 -0.11618090991E-01  0.10198907960E+01  0.10196074502E+01 0.  0.
     999903    2    3    3    0    0  0.50435848761E-01 -0.11482405926E+00 -0.24801469067E-01  0.12940840324E+00  0.20076915485E-01 0.  0.
         14    1    1    2    0    0 -0.13942392670E-01 -0.15764294317E-01  0.11618090991E-01  0.24039203959E-01  0.00000000000E+00 0. -1.
     999901    1    3    3    0    0 -0.36493456090E-01  0.13058835358E+00  0.13183378076E-01  0.89048239280E+00  0.88000000000E+00 0. -1.
        -11    1    4    4    0    0  0.40172112192E-01 -0.67617236288E-01 -0.13688899077E-01  0.79834430669E-01  0.51100000000E-03 0.  1.
         11    1    4    4    0    0  0.10263736569E-01 -0.47206822976E-01 -0.11112569991E-01  0.49573972573E-01  0.51100000000E-03 0. -1.
</event>
<event>
 8    1  0.1122848E+005  0.1043930E+01  0.7957747E-01            NaN
         13   -1    0    0    0    0  0.00000000000E+00  0.00000000000E+00  0.74505805969E-08  0.10566000000E+00  0.10566000000E+00 0. -1.
     999900   -1    0    0    0    0 -0.00000000000E+00 -0.00000000000E+00 -0.74505805969E-08  0.93827000000E+00  0.93827000000E+00 0.  1.
     999902    2    1    2    0    0  0.10474279429E-01 -0.16170337079E-01  0.13891006022E-01  0.10201781500E+01  0.10199016165E+01 0.  0.
     999903    2    3    3    0    0  0.11535437761E+00 -0.51893608120E-01  0.35463391756E-01  0.13296827915E+00  0.20575035987E-01 0.  0.
         14    1    1    2    0    0 -0.10474279429E-01  0.16170337079E-01 -0.13891006022E-01  0.23751850015E-01  0.00000000000E+00 0. -1.
     999901    1    3    3    0    0 -0.10488009818E+00  0.35723271041E-01 -0.21572385733E-01  0.88720987084E+00  0.88000000000E+00 0.  1.
        -11    1    4    4    0    0  0.44980790738E-01 -0.31378163493E-01  0.15411569834E-01  0.56970503643E-01  0.51100000000E-03 0.  1.
         11    1    4    4    0    0  0.70373586875E-01 -0.20515444627E-01  0.20051821922E-01  0.75997775503E-01  0.51100000000E-03 0. -1.
</event>
<event>
 8    1  0.1122848E+005  0.1043930E+01  0.7957747E-01            NaN
         13   -1    0    0    0    0  0.00000000000E+00  0.00000000000E+00  0.74505805969E-08  0.10566000000E+00  0.10566000000E+00 0. -1.
     999900   -1    0    0    0    0 -0.00000000000E+00 -0.00000000000E+00 -0.74505805969E-08  0.93827000000E+00  0.93827000000E+00 0. -1.
     999902    2    1    2    0    0 -0.95999715597E-02 -0.13578011871E-01 -0.19700097126E-01  0.10181498587E+01  0.10178234223E+01 0.  0.
     999903    2    3    3    0    0 -0.58653639538E-01 -0.92501646603E-01  0.65611637953E-01  0.12915419242E+00  0.19470858482E-01 0.  0.
         14    1    1    2    0    0  0.95999715597E-02  0.13578011871E-01  0.19700097126E-01  0.25780141332E-01  0.00000000000E+00 0. -1.
     999901    1    3    3    0    0  0.49053667978E-01  0.78923634732E-01 -0.85311735079E-01  0.88899566625E+00  0.88000000000E+00 0. -1.
        -11    1    4    4    0    0 -0.38275122161E-01 -0.45689743615E-01  0.41901556208E-01  0.72859722630E-01  0.51100000000E-03 0. -1.
         11    1    4    4    0    0 -0.20378517377E-01 -0.46811902988E-01  0.23710081745E-01  0.56294469792E-01  0.51100000000E-03 0.  1.
</event>
<event>
 8    1  0.1122848E+005  0.1043930E+01  0.7957747E-01            NaN
         13   -1    0    0    0    0  0.00000000000E+00  0.00000000000E+00  0.74505805969E-08  0.10566000000E+00  0.10566000000E+00 0.  1.
     999900   -1    0    0    0    0 -0.00000000000E+00 -0.00000000000E+00 -0.74505805969E-08  0.93827000000E+00  0.93827000000E+00 0. -1.
     999902    2    1    2    0    0 -0.29408440249E-02 -0.20737377607E-01 -0.10493043193E-01  0.10205037039E+01  0.10202347859E+01 0.  0.
     999903    2    3    3    0    0  0.73360668188E-01  0.55842305832E-01 -0.90052329200E-01  0.13032616617E+00  0.19373611881E-01 0.  0.
         14    1    1    2    0    0  0.29408440249E-02  0.20737377607E-01  0.10493043193E-01  0.23426296101E-01  0.00000000000E+00 0. -1.
     999901    1    3    3    0    0 -0.76301512213E-01 -0.76579683439E-01  0.79559286007E-01  0.89017753773E+00  0.88000000000E+00 0.  1.
        -11    1    4    4    0    0  0.42337821995E-01  0.25587489883E-01 -0.59089731447E-01  0.77065350795E-01  0.51100000000E-03 0. -1.
         11    1    4    4    0    0  0.31022846193E-01  0.30254815949E-01 -0.30962597753E-01  0.53260815377E-01  0.51100000000E-03 0.  1.
</event>
<event>
 8    1  0.1122848E+005  0.1043930E+01  0.7957747E-01            NaN
         13   -1    0    0    0    0  0.00000000000E+00  0.00000000000E+00  0.74505805969E-08  0.10566000000E+00  0.10566000000E+00 0.  1.
     999900   -1    0    0    0    0 -0.00000000000E+00 -0.00000000000E+00 -0.74505805969E-08  0.93827000000E+00  0.93827000000E+00 0. -1.
     999902    2    1    2    0    0 -0.16172646591E-01 -0.15311696575E-01 -0.34013559342E-02  0.10214006464E+01  0.10211521477E+01 0.  0.
     999903    2    3    3    0    0 -0.27319373721E-01 -0.54793824256E-02  0.12711339561E+00  0.13165066790E+00  0.19942697997E-01 0.  0.
         14    1    1    2    0    0  0.16172646591E-01  0.15311696575E-01  0.34013559342E-02  0.22529353563E-01  0.00000000000E+00 0. -1.
     999901    1    3    3    0    0  0.11146727129E-01 -0.98323141491E-02 -0.13051475155E+00  0.88974997853E+00  0.88000000000E+00 0. -1.
        -11    1    4    4    0    0 -0.14653812536E-01 -0.33258824901E-02  0.10500032274E+00  0.10607131852E+00  0.51100000000E-03 0.  1.
         11    1    4    4    0    0 -0.12665561184E-01 -0.21534999356E-02  0.22113072877E-01  0.25579349389E-01  0.51100000000E-03 0. -1.
</event>
<event>
 8    1  0.1122848E+005  0.1043930E+01  0.7957747E-01            NaN
         13   -1    0    0    0    0  0.00000000000E+00  0.00000000000E+00  0.74505805969E-08  0.10566000000E+00  0.10566000000E+00 0. -1.
     999900   -1    0    0    0    0 -0.00000000000E+00 -0.00000000000E+00 -0.74505805969E-08  0.93827000000E+00  0.93827000000E+00 0. -1.
     999902    2    1    2    0    0  0.20102266601E-01  0.78849628291E-02  0.68099164348E-02  0.10212882526E+01  0.10210372404E+01 0.  0.
     999903    2    3    3    0    0 -0.25908315624E-01  0.60116435010E-01  0.11290452229E+00  0.13218692785E+00  0.20993479073E-01 0.  0.
         14    1    1    2    0    0 -0.20102266601E-01 -0.78849628291E-02 -0.68099164348E-02  0.22641747352E-01  0.00000000000E+00 0.  1.
     999901    1    3    3    0    0  0.46010582225E-01 -0.52231472181E-01 -0.10609460586E+00  0.88910132480E+00  0.88000000000E+00 0. -1.
        -11    1    4    4    0    0 -0.14444968825E-01  0.47987381272E-01  0.69528803617E-01  0.85708584979E-01  0.51100000000E-03 0.  1.
         11    1    4    4    0    0 -0.11463346799E-01  0.12129053738E-01  0.43375718677E-01  0.46478342872E-01  0.51100000000E-03 0. -1.
</event>
<event>
 8    1  0.1122848E+005  0.1043930E+01  0.7957747E-01            NaN
         13   -1    0    0    0    0  0.00000000000E+00  0.00000000000E+00  0.74505805969E-08  0.10566000000E+00  0.10566000000E+00 0.  1.
     999900   -1    0    0    0    0 -0.00000000000E+00 -0.00000000000E+00 -0.74505805969E-08  0.93827000000E+00  0.93827000000E+00 0. -1.
     999902    2    1    2    0    0  0.91900047570E-02  0.20633632889E-01 -0.16406763835E-01  0.10160125343E+01  0.10156289110E+01 0.  0.
     999903    2    3    3    0    0 -0.97442471276E-02  0.12508721188E+00 -0.25298278538E-01  0.12958819170E+00  0.20281410251E-01 0.  0.
         14    1    1    2    0    0 -0.91900047570E-02 -0.20633632889E-01  0.16406763835E-01  0.27917465737E-01  0.00000000000E+00 0. -1.
     999901    1    3    3    0    0  0.18934251885E-01 -0.10445357899E+00  0.88915147025E-02  0.88642434257E+00  0.88000000000E+00 0.  1.
        -11    1    4    4    0    0  0.45340089512E-02  0.49015867902E-01 -0.44519411208E-02  0.49428670265E-01  0.51100000000E-03 0. -1.
         11    1    4    4    0    0 -0.14278256079E-01  0.76071343981E-01 -0.20846337417E-01  0.80159521433E-01  0.51100000000E-03 0.  1.
</event>
<event>
 8    1  0.1122848E+005  0.1043930E+01  0.7957747E-01            NaN
         13   -1    0    0    0    0  0.00000000000E+00  0.00000000000E+00  0.74505805969E-08  0.10566000000E+00  0.10566000000E+00 0.  1.
     999900   -1    0    0    0    0 -0.00000000000E+00 -0.00000000000E+00 -0.74505805969E-08  0.93827000000E+00  0.93827000000E+00 0. -1.
     999902    2    1    2    0    0  0.21251066458E-01 -0.91892456321E-02 -0.48998752870E-02  0.10202644377E+01  0.10199899333E+01 0.  0.
     999903    2    3    3    0    0  0.56197419705E-01 -0.44757436034E-01 -0.11035918660E+00  0.13256628511E+00  0.15273893437E-01 0.  0.
         14    1    1    2    0    0 -0.21251066458E-01  0.91892456321E-02  0.48998752870E-02  0.23665562294E-01  0.00000000000E+00 0. -1.
     999901    1    3    3    0    0 -0.34946353248E-01  0.35568190402E-01  0.10545931131E+00  0.88769815259E+00  0.88000000000E+00 0.  1.
        -11    1    4    4    0    0  0.41649455100E-01 -0.23942063138E-01 -0.71482116139E-01  0.86126961784E-01  0.51100000000E-03 0.  1.
         11    1    4    4    0    0  0.14547964605E-01 -0.20815372896E-01 -0.38877070457E-01  0.46439323329E-01  0.51100000000E-03 0. -1.
</event>
<event>
 8    1  0.1122848E+005  0.1043930E+01  0.7957747E-01            NaN
         13   -1    0    0    0    0  0.00000000000E+00  0.00000000000E+00  0.74505805969E-08  0.10566000000E+00  0.10566000000E+00 0. -1.
     999900   -1    0    0    0    0 -0.00000000000E+00 -0.00000000000E+00 -0.74505805969E-08  0.93827000000E+00  0.93827000000E+00 0.  1.
     999902    2    1    2    0    0  0.74498557591E-02 -0.14389481297E-01  0.17557711633E-01  0.10200379352E+01  0.10197580882E+01 0.  0.
     999903    2    3    3    0    0  0.93513796366E-01 -0.48901730890E-01  0.78511217454E-01  0.13306926206E+00  0.20179391598E-01 0.  0.
         14    1    1    2    0    0 -0.74498557591E-02  0.14389481297E-01 -0.17557711633E-01  0.23892064805E-01  0.00000000000E+00 0.  1.
     999901    1    3    3    0    0 -0.86063940607E-01  0.34512249594E-01 -0.60953505820E-01  0.88696867313E+00  0.88000000000E+00 0.  1.
        -11    1    4    4    0    0  0.53128100412E-01 -0.16534004665E-01  0.42445089589E-01  0.69984391938E-01  0.51100000000E-03 0.  1.
         11    1    4    4    0    0  0.40385695955E-01 -0.32367726225E-01  0.36066127864E-01  0.63084870126E-01  0.51100000000E-03 0. -1.
</event>
<event>
 8    1  0.1122848E+005  0.1043930E+01  0.7957747E-01            NaN
         13   -1    0    0    0    0  0.00000000000E+00  0.00000000000E+00  0.74505805969E-08  0.10566000000E+00  0.10566000000E+00 0.  1.
     999900   -1    0    0    0    0 -0.00000000000E+00 -0.00000000000E+00 -0.74505805969E-08  0.93827000000E+00  0.93827000000E+00 0. -1.
     999902    2    1    2    0    0 -0.22505610521E-01  0.23307817128E-01  0.11205850547E-01  0.10096469440E+01  0.10090647271E+01 0.  0.
     999903    2    3    3    0    0 -0.98565041229E-01  0.60783309583E-01  0.42424484535E-01  0.12502043937E+00  0.20508420124E-01 0.  0.
         14    1    1    2    0    0  0.22505610521E-01 -0.23307817128E-01 -0.11205850547E-01  0.34283056028E-01  0.00000000000E+00 0.  1.
     999901    1    3    3    0    0  0.76059430708E-01 -0.37475492455E-01 -0.31218633988E-01  0.88462650460E+00  0.88000000000E+00 0. -1.
        -11    1    4    4    0    0 -0.33880798547E-01  0.13380893322E-01  0.59251276868E-02  0.36909688096E-01  0.51100000000E-03 0. -1.
         11    1    4    4    0    0 -0.64684242682E-01  0.47402416261E-01  0.36499356848E-01  0.88110751274E-01  0.51100000000E-03 0.  1.
</event>
<event>
 8    1  0.1122848E+005  0.1043930E+01  0.7957747E-01            NaN
         13   -1    0    0    0    0  0.00000000000E+00  0.00000000000E+00  0.74505805969E-08  0.10566000000E+00  0.10566000000E+00 0.  1.
     999900   -1    0    0    0    0 -0.00000000000E+00 -0.00000000000E+00 -0.74505805969E-08  0.93827000000E+00  0.93827000000E+00 0. -1.
     999902    2    1    2    0    0  0.18786896543E-01 -0.63564979824E-02  0.12170705948E-01  0.10206603066E+01  0.10203950131E+01 0.  0.
     999903    2    3    3    0    0 -0.37131757523E-01  0.79902547138E-01  0.94636164959E-01  0.13084680328E+00  0.20042398914E-01 0.  0.
         14    1    1    2    0    0 -0.18786896543E-01  0.63564979824E-02 -0.12170705948E-01  0.23269693414E-01  0.00000000000E+00 0. -1.
     999901    1    3    3    0    0  0.55918654066E-01 -0.86259045121E-01 -0.82465459012E-01  0.88981350331E+00  0.88000000000E+00 0. -1.
        -11    1    4    4    0    0 -0.27368763308E-01  0.70217844645E-01  0.71255110285E-01  0.10371666585E+00  0.51100000000E-03 0. -1.
         11    1    4    4    0    0 -0.97629942154E-02  0.96847024935E-02  0.23381054675E-01  0.27130137433E-01  0.51100000000E-03 0.  1.
</event>
<event>
 8    1  0.1122848E+005  0.1043930E+01  0.7957747E-01            NaN
         13   -1    0    0    0    0  0.00000000000E+00  0.00000000000E+00  0.74505805969E-08  0.10566000000E+00  0.10566000000E+00 0.  1.
     999900   -1    0    0    0    0 -0.00000000000E+00 -0.00000000000E+00 -0.74505805969E-08  0.93827000000E+00  0.93827000000E+00 0.  1.
     999902    2    1    2    0    0  0.10316887381E-01  0.87465291911E-02  0.19156983857E-01  0.10204794143E+01  0.10202099319E+01 0.  0.
     999903    2    3    3    0    0 -0.57369856877E-01  0.97194459194E-01  0.66010084568E-01  0.13222283837E+00  0.19684622092E-01 0.  0.
         14    1    1    2    0    0 -0.10316887381E-01 -0.87465291911E-02 -0.19156983857E-01  0.23450585677E-01  0.00000000000E+00 0. -1.
     999901    1    3    3    0    0  0.67686744258E-01 -0.88447930003E-01 -0.46853100711E-01  0.88825657595E+00  0.88000000000E+00 0.  1.
        -11    1    4    4    0    0 -0.24611155987E-01  0.60813171730E-01  0.38101206264E-01  0.75867739485E-01  0.51100000000E-03 0. -1.
         11    1    4    4    0    0 -0.32758700890E-01  0.36381287464E-01  0.27908878304E-01  0.56355098889E-01  0.51100000000E-03 0.  1.
</event>
<event>
 8    1  0.1122848E+005  0.1043930E+01  0.7957747E-01            NaN
         13   -1    0    0    0    0  0.00000000000E+00  0.00000000000E+00  0.74505805969E-08  0.10566000000E+00  0.10566000000E+00 0. -1.
     999900   -1    0    0    0    0 -0.00000000000E+00 -0.00000000000E+00 -0.74505805969E-08  0.93827000000E+00  0.93827000000E+00 0. -1.
     999902    2    1    2    0    0 -0.18433448769E-01 -0.75738649449E-03  0.14710177301E-01  0.10203343440E+01  0.10200614778E+01 0.  0.
     999903    2    3    3    0    0 -0.75818044466E-01 -0.47624406573E-01 -0.93128177936E-01  0.13066102175E+00  0.19570005369E-01 0.  0.
         14    1    1    2    0    0  0.18433448769E-01  0.75738649449E-03 -0.14710177301E-01  0.23595656042E-01  0.00000000000E+00 0.  1.
     999901    1    3    3    0    0  0.57384595697E-01  0.46867020079E-01  0.10783835524E+00  0.88967332221E+00  0.88000000000E+00 0.  1.
        -11    1    4    4    0    0 -0.39013929215E-01 -0.17860064939E-01 -0.55718271360E-01  0.70326776386E-01  0.51100000000E-03 0. -1.
         11    1    4    4    0    0 -0.36804115251E-01 -0.29764341634E-01 -0.37409906576E-01  0.60334245361E-01  0.51100000000E-03 0.  1.
</event>
<event>
 8    1  0.1122848E+005  0.1043930E+01  0.7957747E-01            NaN
         13   -1    0    0    0    0  0.00000000000E+00  0.00000000000E+00  0.74505805969E-08  0.10566000000E+00  0.10566000000E+00 0.  1.
     999900   -1    0    0    0    0 -0.00000000000E+00 -0.00000000000E+00 -0.74505805969E-08  0.93827000000E+00  0.93827000000E+00 0. -1.
     999902    2    1    2    0    0 -0.18090551268E-01  0.14100920406E-01 -0.33412992668E-02  0.10207509517E+01  0.10204877447E+01 0.  0.
     999903    2    3    3    0    0  0.66703100017E-01 -0.89360696515E-01  0.60429134678E-01  0.12836037701E+00  0.19750150220E-01 0.  0.
         14    1    1    2    0    0  0.18090551268E-01 -0.14100920406E-01  0.33412992668E-02  0.23179048346E-01  0.00000000000E+00 0. -1.
     999901    1    3    3    0    0 -0.84793651285E-01  0.10346161692E+00 -0.63770433945E-01  0.89239057465E+00  0.88000000000E+00 0.  1.
        -11    1    4    4    0    0  0.55854956073E-01 -0.67177350100E-01  0.39059575916E-01  0.95699969050E-01  0.51100000000E-03 0.  1.
         11    1    4    4    0    0  0.10848143944E-01 -0.22183346414E-01  0.21369558762E-01  0.32660407956E-01  0.51100000000E-03 0. -1.
</event>
<event>
 8    1  0.1122848E+005  0.1043930E+01  0.7957747E-01            NaN
         13   -1    0    0    0    0  0.00000000000E+00  0.00000000000E+00  0.74505805969E-08  0.10566000000E+00  0.10566000000E+00 0.  1.
     999900   -1    0    0    0    0 -0.00000000000E+00 -0.00000000000E+00 -0.74505805969E-08  0.93827000000E+00  0.93827000000E+00 0. -1.
     999902    2    1    2    0    0  0.17815815722E-01  0.97571601769E-02 -0.17252232819E-01  0.10172795778E+01  0.10169304275E+01 0.  0.
     999903    2    3    3    0    0 -0.10653608999E+00  0.62536836615E-01  0.16991242309E-01  0.12631285214E+00  0.20135538163E-01 0.  0.
         14    1    1    2    0    0 -0.17815815722E-01 -0.97571601769E-02  0.17252232819E-01  0.26650422170E-01  0.00000000000E+00 0.  1.
     999901    1    3    3    0    0  0.12435190571E+00 -0.52779676438E-01 -0.34243475129E-01  0.89096672569E+00  0.88000000000E+00 0.  1.
        -11    1    4    4    0    0 -0.16887333897E-01  0.17136192534E-01  0.82645370395E-02  0.25443954767E-01  0.51100000000E-03 0. -1.
         11    1    4    4    0    0 -0.89648756090E-01  0.45400644081E-01  0.87267052699E-02  0.10086889737E+00  0.51100000000E-03 0.  1.
</event>
<event>
 8    1  0.1122848E+005  0.1043930E+01  0.7957747E-01            NaN
         13   -1    0    0    0    0  0.00000000000E+00  0.00000000000E+00  0.74505805969E-08  0.10566000000E+00  0.10566000000E+00 0.  1.
     999900   -1    0    0    0    0 -0.00000000000E+00 -0.00000000000E+00 -0.74505805969E-08  0.93827000000E+00  0.93827000000E+00 0.  1.
     999902    2    1    2    0    0 -0.69803728980E-02 -0.54390409493E-03  0.23032190901E-01  0.10198571262E+01  0.10195729766E+01 0.  0.
     999903    2    3    3    0    0  0.11381289874E+00  0.46511159364E-01 -0.31785686858E-01  0.12867241287E+00  0.20726699679E-01 0.  0.
         14    1    1    2    0    0  0.69803728980E-02  0.54390409493E-03 -0.23032190901E-01  0.24072873845E-01  0.00000000000E+00 0. -1.
     999901    1    3    3    0    0 -0.12079327164E+00 -0.47055063459E-01  0.54817877760E-01  0.89118471328E+00  0.88000000000E+00 0.  1.
        -11    1    4    4    0    0  0.53027344830E-01  0.32586603635E-01 -0.18191106318E-01  0.64845689959E-01  0.51100000000E-03 0.  1.
         11    1    4    4    0    0  0.60785553911E-01  0.13924555729E-01 -0.13594580540E-01  0.63826722911E-01  0.51100000000E-03 0. -1.
</event>
<event>
 8    1  0.1122848E+005  0.1043930E+01  0.7957747E-01            NaN
         13   -1    0    0    0    0  0.00000000000E+00  0.00000000000E+00  0.74505805969E-08  0.10566000000E+00  0.10566000000E+00 0. -1.
     999900   -1    0    0    0    0 -0.00000000000E+00 -0.00000000000E+00 -0.74505805969E-08  0.93827000000E+00  0.93827000000E+00 0. -1.
     999902    2    1    2    0    0  0.66766097222E-02  0.12785402463E-02 -0.20187209986E-01  0.10226289383E+01  0.10224070668E+01 0.  0.
     999903    2    3    3    0    0 -0.59663252346E-01  0.11493054256E+00  0.16205042354E-01  0.13209979731E+00  0.20469972088E-01 0.  0.
         14    1    1    2    0    0 -0.66766097222E-02 -0.12785402463E-02  0.20187209986E-01  0.21301061701E-01  0.00000000000E+00 0. -1.
     999901    1    3    3    0    0  0.66339862068E-01 -0.11365200231E+00 -0.36392252340E-01  0.89052914099E+00  0.88000000000E+00 0. -1.
        -11    1    4    4    0    0 -0.60836817233E-01  0.10797897619E+00  0.16458184952E-01  0.12502683953E+00  0.51100000000E-03 0. -1.
         11    1    4    4    0    0  0.11735648868E-02  0.69515663688E-02 -0.25314259750E-03  0.70729577757E-02  0.51100000000E-03 0.  1.
</event>
<event>
 8    1  0.1122848E+005  0.1043930E+01  0.7957747E-01            NaN
         13   -1    0    0    0    0  0.00000000000E+00  0.00000000000E+00  0.74505805969E-08  0.10566000000E+00  0.10566000000E+00 0.  1.
     999900   -1    0    0    0    0 -0.00000000000E+00 -0.00000000000E+00 -0.74505805969E-08  0.93827000000E+00  0.93827000000E+00 0. -1.
     999902    2    1    2    0    0  0.11824000246E-01  0.20487377123E-01  0.33688310912E-02  0.10200367242E+01  0.10197568486E+01 0.  0.
     999903    2    3    3    0    0 -0.55639664272E-01  0.42370423521E-01 -0.10693420669E+00  0.13031936807E+00  0.25635680287E-01 0.  0.
         14    1    1    2    0    0 -0.11824000246E-01 -0.20487377123E-01 -0.33688310912E-02  0.23893275751E-01  0.00000000000E+00 0.  1.
     999901    1    3    3    0    0  0.67463664517E-01 -0.21883046397E-01  0.11030303778E+00  0.88971735618E+00  0.88000000000E+00 0.  1.
        -11    1    4    4    0    0 -0.55687174644E-01  0.38632359584E-01 -0.88334240515E-01  0.11134055773E+00  0.51100000000E-03 0. -1.
         11    1    4    4    0    0  0.47510372783E-04  0.37380639365E-02 -0.18599966172E-01  0.18978810337E-01  0.51100000000E-03 0.  1.
</event>
<event>
 8    1  0.1122848E+005  0.1043930E+01  0.7957747E-01            NaN
         13   -1    0    0    0    0  0.00000000000E+00  0.00000000000E+00  0.74505805969E-08  0.10566000000E+00  0.10566000000E+00 0. -1.
     999900   -1    0    0    0    0 -0.00000000000E+00 -0.00000000000E+00 -0.74505805969E-08  0.93827000000E+00  0.93827000000E+00 0.  1.
     999902    2    1    2    0    0 -0.18015287277E-01  0.15519717497E-01  0.21733529342E-02  0.10200524861E+01  0.10197729839E+01 0.  0.
     999903    2    3    3    0    0 -0.16189360437E-01  0.12021809903E+00 -0.49087939644E-01  0.13236289778E+00  0.19895330234E-01 0.  0.
         14    1    1    2    0    0  0.18015287277E-01 -0.15519717497E-01 -0.21733529342E-02  0.23877513896E-01  0.00000000000E+00 0. -1.
     999901    1    3    3    0    0 -0.18259268393E-02 -0.10469838153E+00  0.51261292578E-01  0.88768958832E+00  0.88000000000E+00 0. -1.
        -11    1    4    4    0    0  0.68259669978E-03  0.31601077957E-01 -0.20718241918E-01  0.37796834993E-01  0.51100000000E-03 0. -1.
         11    1    4    4    0    0 -0.16871957137E-01  0.88617021069E-01 -0.28369697726E-01  0.94566062786E-01  0.51100000000E-03 0.  1.
</event>
<event>
 8    1  0.1122848E+005  0.1043930E+01  0.7957747E-01            NaN
         13   -1    0    0    0    0  0.00000000000E+00  0.00000000000E+00  0.74505805969E-08  0.10566000000E+00  0.10566000000E+00 0. -1.
     999900   -1    0    0    0    0 -0.00000000000E+00 -0.00000000000E+00 -0.74505805969E-08  0.93827000000E+00  0.93827000000E+00 0.  1.
     999902    2    1    2    0    0 -0.17545027971E-01  0.91499458433E-02 -0.15895577243E-01  0.10185485325E+01  0.10182322398E+01 0.  0.
     999903    2    3    3    0    0 -0.87208070191E-01 -0.93246625858E-01 -0.13339738853E-01  0.12987281571E+00  0.19718490976E-01 0.  0.
         14    1    1    2    0    0  0.17545027971E-01 -0.91499458433E-02  0.15895577243E-01  0.25381467478E-01  0.00000000000E+00 0. -1.
     999901    1    3    3    0    0  0.69663042220E-01  0.10239657170E+00 -0.25558383907E-02  0.88867571682E+00  0.88000000000E+00 0. -1.
        -11    1    4    4    0    0 -0.30560681369E-01 -0.32000387651E-01 -0.14090201089E-01  0.46441091107E-01  0.51100000000E-03 0.  1.
         11    1    4    4    0    0 -0.56647388822E-01 -0.61246238208E-01  0.75046223599E-03  0.83431724599E-01  0.51100000000E-03 0. -1.
</event>
<event>
 8    1  0.1122848E+005  0.1043930E+01  0.7957747E-01            NaN
         13   -1    0    0    0    0  0.00000000000E+00  0.00000000000E+00  0.74505805969E-08  0.10566000000E+00  0.10566000000E+00 0. -1.
     999900   -1    0    0    0    0 -0.00000000000E+00 -0.00000000000E+00 -0.74505805969E-08  0.93827000000E+00  0.93827000000E+00 0. -1.
     999902    2    1    2    0    0 -0.18099668716E-01 -0.57337251397E-02 -0.16346515331E-01  0.10188764139E+01  0.10185683407E+01 0.  0.
     999903    2    3    3    0    0  0.28736347056E-03 -0.42332678115E-01  0.11760665973E+00  0.12779784308E+00  0.26623750110E-01 0.  0.
         14    1    1    2    0    0  0.18099668716E-01  0.57337251397E-02  0.16346515331E-01  0.25053586072E-01  0.00000000000E+00 0. -1.
     999901    1    3    3    0    0 -0.18387032186E-01  0.36598952975E-01 -0.13395317506E+00  0.89107857085E+00  0.88000000000E+00 0. -1.
        -11    1    4    4    0    0 -0.11827085396E-02 -0.17333930365E-02  0.41234449871E-01  0.41290972719E-01  0.51100000000E-03 0. -1.
         11    1    4    4    0    0  0.14700720102E-02 -0.40599285079E-01  0.76372209858E-01  0.86506870364E-01  0.51100000000E-03 0.  1.
</event>
<event>
 8    1  0.1122848E+005  0.1043930E+01  0.7957747E-01            NaN
         13   -1    0    0    0    0  0.00000000000E+00  0.00000000000E+00  0.74505805969E-08  0.10566000000E+00  0.10566000000E+00 0. -1.
     999900   -1    0    0    0    0 -0.00000000000E+00 -0.00000000000E+00 -0.74505805969E-08  0.93827000000E+00  0.93827000000E+00 0.  1.
     999902    2    1    2    0    0 -0.15488728737E-02 -0.21562441392E-01 -0.80190408142E-03  0.10222971330E+01  0.10220682204E+01 0.  0.
     999903    2    3    3    0    0 -0.10669993259E+00  0.66456403006E-01 -0.31681588279E-01  0.13114191796E+00  0.19828022984E-01 0.  0.
         14    1    1    2    0    0  0.15488728737E-02  0.21562441392E-01  0.80190408142E-03  0.21632867034E-01  0.00000000000E+00 0. -1.
     999901    1    3    3    0    0  0.10515105972E+00 -0.88018844398E-01  0.30879684197E-01  0.89115521500E+00  0.88000000000E+00 0.  1.
        -11    1    4    4    0    0 -0.74135461292E-01  0.53458926622E-01 -0.16268193135E-01  0.92837700776E-01  0.51100000000E-03 0.  1.
         11    1    4    4    0    0 -0.32564471301E-01  0.12997476384E-01 -0.15413395144E-01  0.38304217187E-01  0.51100000000E-03 0. -1.
</event>
<event>
 8    1  0.1122848E+005  0.1043930E+01  0.7957747E-01            NaN
         13   -1    0    0    0    0  0.00000000000E+00  0.00000000000E+00  0.74505805969E-08  0.10566000000E+00  0.10566000000E+00 0. -1.
     999900   -1    0    0    0    0 -0.00000000000E+00 -0.00000000000E+00 -0.74505805969E-08  0.93827000000E+00  0.93827000000E+00 0.  1.
     999902    2    1    2    0    0  0.13796453779E-01  0.32613654042E-02 -0.10043406763E-01  0.10265562077E+01  0.10264091771E+01 0.  0.
     999903    2    3    3    0    0 -0.10665413190E+00 -0.79123601003E-01  0.58014012793E-02  0.13439776644E+00  0.19835707204E-01 0.  0.
         14    1    1    2    0    0 -0.13796453779E-01 -0.32613654042E-02  0.10043406763E-01  0.17373792349E-01  0.00000000000E+00 0. -1.
     999901    1    3    3    0    0  0.12045058568E+00  0.82384966408E-01 -0.15844808043E-01  0.89215844121E+00  0.88000000000E+00 0.  1.
        -11    1    4    4    0    0 -0.36567939939E-01 -0.23192690410E-01 -0.68372948869E-02  0.43842044229E-01  0.51100000000E-03 0. -1.
         11    1    4    4    0    0 -0.70086191961E-01 -0.55930910593E-01  0.12638696166E-01  0.90555722212E-01  0.51100000000E-03 0.  1.
</event>
<event>
 8    1  0.1122848E+005  0.1043930E+01  0.7957747E-01            NaN
         13   -1    0    0    0    0  0.00000000000E+00  0.00000000000E+00  0.74505805969E-08  0.10566000000E+00  0.10566000000E+00 0.  1.
     999900   -1    0    0    0    0 -0.00000000000E+00 -0.00000000000E+00 -0.74505805969E-08  0.93827000000E+00  0.93827000000E+00 0.  1.
     999902    2    1    2    0    0 -0.10957097190E-02 -0.12216566549E-01 -0.15867221202E-01  0.10238747317E+01  0.10236782954E+01 0.  0.
     999903    2    3    3    0    0 -0.71830873132E-01  0.52316118163E-01 -0.98206450044E-01  0.13485972657E+00  0.25416303134E-01 0.  0.
         14    1    1    2    0    0  0.10957097190E-02  0.12216566549E-01  0.15867221202E-01  0.20055268303E-01  0.00000000000E+00 0.  1.
     999901    1    3    3    0    0  0.70735163413E-01 -0.64532684713E-01  0.82339228842E-01  0.88901500513E+00  0.88000000000E+00 0. -1.
        -11    1    4    4    0    0 -0.13729740675E-01  0.17767580500E-01 -0.38969336822E-01  0.44978472953E-01  0.51100000000E-03 0.  1.
         11    1    4    4    0    0 -0.58101132457E-01  0.34548537663E-01 -0.59237113221E-01  0.89881253614E-01  0.51100000000E-03 0. -1.
</event>
<event>
 8    1  0.1122848E+005  0.1043930E+01  0.7957747E-01            NaN
         13   -1    0    0    0    0  0.00000000000E+00  0.00000000000E+00  0.74505805969E-08  0.10566000000E+00  0.10566000000E+00 0. -1.
     999900   -1    0    0    0    0 -0.00000000000E+00 -0.00000000000E+00 -0.74505805969E-08  0.93827000000E+00  0.93827000000E+00 0.  1.
     999902    2    1    2    0    0  0.19715202593E-02  0.19195284422E-01 -0.13498863562E-01  0.10203807929E+01  0.10201090125E+01 0.  0.
     999903    2    3    3    0    0  0.26930940278E-01  0.10638441510E+00  0.70170810766E-01  0.13177203112E+00  0.19925013978E-01 0.  0.
         14    1    1    2    0    0 -0.19715202593E-02 -0.19195284422E-01  0.13498863562E-01  0.23549207070E-01  0.00000000000E+00 0. -1.
     999901    1    3    3    0    0 -0.24959420018E-01 -0.87189130680E-01 -0.83669674328E-01  0.88860876181E+00  0.88000000000E+00 0.  1.
        -11    1    4    4    0    0  0.10820630739E-01  0.52121452477E-01  0.45471484400E-01  0.70011776670E-01  0.51100000000E-03 0.  1.
         11    1    4    4    0    0  0.16110309539E-01  0.54262962626E-01  0.24699326366E-01  0.61760254454E-01  0.51100000000E-03 0. -1.
</event>
<event>
 8    1  0.1122848E+005  0.1043930E+01  0.7957747E-01            NaN
         13   -1    0    0    0    0  0.00000000000E+00  0.00000000000E+00  0.74505805969E-08  0.10566000000E+00  0.10566000000E+00 0.  1.
     999900   -1    0    0    0    0 -0.00000000000E+00 -0.00000000000E+00 -0.74505805969E-08  0.93827000000E+00  0.93827000000E+00 0.  1.
     999902    2    1    2    0    0 -0.20979422844E-01  0.12715405106E-01  0.46638375563E-02  0.10189586346E+01  0.10186526051E+01 0.  0.
     999903    2    3    3    0    0 -0.12404120295E+00 -0.33996547227E-01 -0.18435447851E-01  0.13141296590E+00  0.19685441742E-01 0.  0.
         14    1    1    2    0    0  0.20979422844E-01 -0.12715405106E-01 -0.46638375563E-02  0.24971365414E-01  0.00000000000E+00 0. -1.
     999901    1    3    3    0    0  0.10306178011E+00  0.46711952333E-01  0.23099285408E-01  0.88754566868E+00  0.88000000000E+00 0.  1.
        -11    1    4    4    0    0 -0.71370525938E-01 -0.94719784481E-02 -0.11113097024E-01  0.72850754251E-01  0.51100000000E-03 0. -1.
         11    1    4    4    0    0 -0.52670677016E-01 -0.24524568779E-01 -0.73223508272E-02  0.58562211653E-01  0.51100000000E-03 0.  1.
</event>
<event>
 8    1  0.1122848E+005  0.1043930E+01  0.7957747E-01            NaN
         13   -1    0    0    0    0  0.00000000000E+00  0.00000000000E+00  0.74505805969E-08  0.10566000000E+00  0.10566000000E+00 0.  1.
     999900   -1    0    0    0    0 -0.00000000000E+00 -0.00000000000E+00 -0.74505805969E-08  0.93827000000E+00  0.93827000000E+00 0. -1.
     999902    2    1    2    0    0  0.13795800293E-01  0.17676459125E-01 -0.53763713560E-02  0.10208716678E+01  0.10206112264E+01 0.  0.
     999903    2    3    3    0    0  0.86030638692E-01 -0.10579636810E-01  0.96948128214E-01  0.13155362459E+00  0.19854900417E-01 0.  0.
         14    1    1    2    0    0 -0.13795800293E-01 -0.17676459125E-01  0.53763713560E-02  0.23058332157E-01  0.00000000000E+00 0.  1.
     999901    1    3    3    0    0 -0.72234838400E-01  0.28256095935E-01 -0.10232449957E+00  0.88931804325E+00  0.88000000000E+00 0. -1.
        -11    1    4    4    0    0  0.51678965913E-01  0.21769376680E-02  0.63835697964E-01  0.82162716794E-01  0.51100000000E-03 0. -1.
         11    1    4    4    0    0  0.34351672779E-01 -0.12756574478E-01  0.33112430250E-01  0.49390907799E-01  0.51100000000E-03 0.  1.
</event>
<event>
 8    1  0.1122848E+005  0.1043930E+01  0.7957747E-01            NaN
         13   -1    0    0    0    0  0.00000000000E+00  0.00000000000E+00  0.74505805969E-08  0.10566000000E+00  0.10566000000E+00 0. -1.
     999900   -1    0    0    0    0 -0.00000000000E+00 -0.00000000000E+00 -0.74505805969E-08  0.93827000000E+00  0.93827000000E+00 0.  1.
     999902    2    1    2    0    0  0.12426308235E-01 -0.20357571897E-01 -0.70670521884E-02  0.10190545684E+01  0.10187509148E+01 0.  0.
     999903    2    3    3    0    0 -0.49049759963E-02 -0.49036235922E-01  0.11843642742E+00  0.12951875543E+00  0.17869231835E-01 0.  0.
         14    1    1    2    0    0 -0.12426308235E-01  0.20357571897E-01  0.70670521884E-02  0.24875431585E-01  0.00000000000E+00 0. -1.
     999901    1    3    3    0    0  0.17331284232E-01  0.28678664025E-01 -0.12550347961E+00  0.88953581298E+00  0.88000000000E+00 0.  1.
        -11    1    4    4    0    0 -0.11001687468E-01 -0.26753995620E-01  0.73501082711E-01  0.78990402515E-01  0.51100000000E-03 0.  1.
         11    1    4    4    0    0  0.60967114719E-02 -0.22282240301E-01  0.44935344708E-01  0.50528352918E-01  0.51100000000E-03 0. -1.
</event>
<event>
 8    1  0.1122848E+005  0.1043930E+01  0.7957747E-01            NaN
         13   -1    0    0    0    0  0.00000000000E+00  0.00000000000E+00  0.74505805969E-08  0.10566000000E+00  0.10566000000E+00 0. -1.
     999900   -1    0    0    0    0 -0.00000000000E+00 -0.00000000000E+00 -0.74505805969E-08  0.93827000000E+00  0.93827000000E+00 0.  1.
     999902    2    1    2    0    0 -0.82346547593E-02  0.18691315133E-01 -0.14790515804E-01  0.10187122650E+01  0.10184000907E+01 0.  0.
     999903    2    3    3    0    0  0.66425202519E-01 -0.55470775612E-01 -0.93309774599E-01  0.12897107568E+00  0.20916736082E-01 0.  0.
         14    1    1    2    0    0  0.82346547593E-02 -0.18691315133E-01  0.14790515804E-01  0.25217734993E-01  0.00000000000E+00 0. -1.
     999901    1    3    3    0    0 -0.74659857278E-01  0.74162090745E-01  0.78519258795E-01  0.88974118933E+00  0.88000000000E+00 0. -1.
        -11    1    4    4    0    0  0.53490380819E-01 -0.41098890767E-01 -0.59162670007E-01  0.89726374639E-01  0.51100000000E-03 0.  1.
         11    1    4    4    0    0  0.12934821700E-01 -0.14371884845E-01 -0.34147104592E-01  0.39244701037E-01  0.51100000000E-03 0. -1.
</event>
<event>
 8    1  0.1122848E+005  0.1043930E+01  0.7957747E-01            NaN
         13   -1    0    0    0    0  0.00000000000E+00  0.00000000000E+00  0.74505805969E-08  0.10566000000E+00  0.10566000000E+00 0. -1.
     999900   -1    0    0    0    0 -0.00000000000E+00 -0.00000000000E+00 -0.74505805969E-08  0.93827000000E+00  0.93827000000E+00 0.  1.
     999902    2    1    2    0    0 -0.11747681507E-01  0.20352599414E-01 -0.34606312635E-02  0.10201768467E+01  0.10199002825E+01 0.  0.
     999903    2    3    3    0    0  0.10385797887E+00 -0.41885189299E-01  0.59308630586E-01  0.12822494703E+00  0.19577398227E-01 0.  0.
         14    1    1    2    0    0  0.11747681507E-01 -0.20352599414E-01  0.34606312635E-02  0.23753153316E-01  0.00000000000E+00 0.  1.
     999901    1    3    3    0    0 -0.11560566038E+00  0.62237788713E-01 -0.62769261849E-01  0.89195189965E+00  0.88000000000E+00 0.  1.
        -11    1    4    4    0    0  0.91258482805E-01 -0.29476849554E-01  0.51899322039E-01  0.10904492695E+00  0.51100000000E-03 0. -1.
         11    1    4    4    0    0  0.12599496070E-01 -0.12408339745E-01  0.74093085472E-02  0.19180020089E-01  0.51100000000E-03 0.  1.
</event>
<event>
 8    1  0.1122848E+005  0.1043930E+01  0.7957747E-01            NaN
         13   -1    0    0    0    0  0.00000000000E+00  0.00000000000E+00  0.74505805969E-08  0.10566000000E+00  0.10566000000E+00 0. -1.
     999900   -1    0    0    0    0 -0.00000000000E+00 -0.00000000000E+00 -0.74505805969E-08  0.93827000000E+00  0.93827000000E+00 0. -1.
     999902    2    1    2    0    0  0.14683197897E-01 -0.14991522256E-01  0.10994901050E-01  0.10202397090E+01  0.10199646238E+01 0.  0.
     999903    2    3    3    0    0 -0.82618592084E-01 -0.88647175670E-01 -0.38972553542E-01  0.13041414172E+00  0.28369612589E-01 0.  0.
         14    1    1    2    0    0 -0.14683197897E-01  0.14991522256E-01 -0.10994901050E-01  0.23690291032E-01  0.00000000000E+00 0. -1.
     999901    1    3    3    0    0  0.97301789981E-01  0.73655653414E-01  0.49967454592E-01  0.88982556725E+00  0.88000000000E+00 0.  1.
        -11    1    4    4    0    0 -0.14375773273E-01 -0.25468121830E-01  0.81437918608E-03  0.29261107655E-01  0.51100000000E-03 0. -1.
         11    1    4    4    0    0 -0.68242818810E-01 -0.63179053840E-01 -0.39786932728E-01  0.10115303406E+00  0.51100000000E-03 0.  1.
</event>
<event>
 8    1  0.1122848E+005  0.1043930E+01  0.7957747E-01            NaN
         13   -1    0    0    0    0  0.00000000000E+00  0.00000000000E+00  0.74505805969E-08  0.10566000000E+00  0.10566000000E+00 0.  1.
     999900   -1    0    0    0    0 -0.00000000000E+00 -0.00000000000E+00 -0.74505805969E-08  0.93827000000E+00  0.93827000000E+00 0. -1.
     999902    2    1    2    0    0  0.36659156042E-02  0.22879185631E-01 -0.48496379397E-02  0.10202569127E+01  0.10199822317E+01 0.  0.
     999903    2    3    3    0    0  0.65016856931E-01 -0.60805907856E-01  0.90570899276E-01  0.12903740454E+00  0.22869496257E-01 0.  0.
         14    1    1    2    0    0 -0.36659156042E-02 -0.22879185631E-01  0.48496379397E-02  0.23673087262E-01  0.00000000000E+00 0.  1.
     999901    1    3    3    0    0 -0.61350941326E-01  0.83685093487E-01 -0.95420537216E-01  0.89121950820E+00  0.88000000000E+00 0.  1.
        -11    1    4    4    0    0  0.27883276562E-01 -0.15078892138E-01  0.42397196086E-01  0.52939904202E-01  0.51100000000E-03 0.  1.
         11    1    4    4    0    0  0.37133580369E-01 -0.45727015718E-01  0.48173703190E-01  0.76097500337E-01  0.51100000000E-03 0. -1.
</event>
<event>
 8    1  0.1122848E+005  0.1043930E+01  0.7957747E-01            NaN
         13   -1    0    0    0    0  0.00000000000E+00  0.00000000000E+00  0.74505805969E-08  0.10566000000E+00  0.10566000000E+00 0.  1.
     999900   -1    0    0    0    0 -0.00000000000E+00 -0.00000000000E+00 -0.74505805969E-08  0.93827000000E+00  0.93827000000E+00 0.  1.
     999902    2    1    2    0    0  0.22082736923E-01 -0.14883367771E-03 -0.87165942392E-02  0.10201887187E+01  0.10199124342E+01 0.  0.
     999903    2    3    3    0    0  0.14388905313E-01 -0.65337601491E-01 -0.11182010045E+00  0.13174113812E+00  0.19389426074E-01 0.  0.
         14    1    1    2    0    0 -0.22082736923E-01  0.14883367771E-03  0.87165942392E-02  0.23741281275E-01  0.00000000000E+00 0.  1.
     999901    1    3    3    0    0  0.76938316096E-02  0.65188767813E-01  0.10310350621E+00  0.88844758061E+00  0.88000000000E+00 0. -1.
        -11    1    4    4    0    0  0.12809214015E-02 -0.47234181954E-01 -0.78102444991E-01  0.91285057589E-01  0.51100000000E-03 0.  1.
         11    1    4    4    0    0  0.13107983912E-01 -0.18103419537E-01 -0.33717655458E-01  0.40456080528E-01  0.51100000000E-03 0. -1.
</event>
<event>
 8    1  0.1122848E+005  0.1043930E+01  0.7957747E-01            NaN
         13   -1    0    0    0    0  0.00000000000E+00  0.00000000000E+00  0.74505805969E-08  0.10566000000E+00  0.10566000000E+00 0.  1.
     999900   -1    0    0    0    0 -0.00000000000E+00 -0.00000000000E+00 -0.74505805969E-08  0.93827000000E+00  0.93827000000E+00 0. -1.
     999902    2    1    2    0    0 -0.13306609131E-01  0.69155897435E-02 -0.17465445944E-01  0.10209097257E+01  0.10206501531E+01 0.  0.
     999903    2    3    3    0    0 -0.70188358804E-01 -0.10702847392E+00 -0.24293609243E-01  0.13171604210E+00  0.19427721304E-01 0.  0.
         14    1    1    2    0    0  0.13306609131E-01 -0.69155897435E-02  0.17465445944E-01  0.23020274327E-01  0.00000000000E+00 0.  1.
     999901    1    3    3    0    0  0.56881749673E-01  0.11394406367E+00  0.68281632985E-02  0.88919368357E+00  0.88000000000E+00 0. -1.
        -11    1    4    4    0    0 -0.26279272445E-01 -0.25739395531E-01 -0.30552860245E-02  0.36914936492E-01  0.51100000000E-03 0.  1.
         11    1    4    4    0    0 -0.43909086359E-01 -0.81289078391E-01 -0.21238323218E-01  0.94801105609E-01  0.51100000000E-03 0. -1.
</event>
<event>
 8    1  0.1122848E+005  0.1043930E+01  0.7957747E-01            NaN
         13   -1    0    0    0    0  0.00000000000E+00  0.00000000000E+00  0.74505805969E-08  0.10566000000E+00  0.10566000000E+00 0.  1.
     999900   -1    0    0    0    0 -0.00000000000E+00 -0.00000000000E+00 -0.74505805969E-08  0.93827000000E+00  0.93827000000E+00 0.  1.
     999902    2    1    2    0    0 -0.37144504312E-02 -0.21407342992E-01  0.10878010416E-01  0.10196317987E+01  0.10193422400E+01 0.  0.
     999903    2    3    3    0    0  0.11950378235E+00  0.27948232881E-01  0.35124510455E-01  0.12934723828E+00  0.20849918425E-01 0.  0.
         14    1    1    2    0    0  0.37144504312E-02  0.21407342992E-01 -0.10878010416E-01  0.24298201304E-01  0.00000000000E+00 0.  1.
     999901    1    3    3    0    0 -0.12321823278E+00 -0.49355575873E-01 -0.24246500038E-01  0.89028456042E+00  0.88000000000E+00 0. -1.
        -11    1    4    4    0    0  0.10423959472E-01  0.58949151375E-02  0.91201201161E-02  0.15061429795E-01  0.51100000000E-03 0.  1.
         11    1    4    4    0    0  0.10907982288E+00  0.22053317743E-01  0.26004390339E-01  0.11428580848E+00  0.51100000000E-03 0. -1.
</event>
<event>
 8    1  0.1122848E+005  0.1043930E+01  0.7957747E-01            NaN
         13   -1    0    0    0    0  0.00000000000E+00  0.00000000000E+00  0.74505805969E-08  0.10566000000E+00  0.10566000000E+00 0.  1.
     999900   -1    0    0    0    0 -0.00000000000E+00 -0.00000000000E+00 -0.74505805969E-08  0.93827000000E+00  0.93827000000E+00 0. -1.
     999902    2    1    2    0    0  0.92202487727E-02 -0.11552775256E-01 -0.18326043544E-01  0.10203859248E+01  0.10201142642E+01 0.  0.
     999903    2    3    3    0    0 -0.12122597446E+00  0.39288831494E-01  0.61986346698E-02  0.12898110884E+00  0.18930245703E-01 0.  0.
         14    1    1    2    0    0 -0.92202487727E-02  0.11552775256E-01  0.18326043544E-01  0.23544075168E-01  0.00000000000E+00 0. -1.
     999901    1    3    3    0    0  0.13044622323E+00 -0.50841606750E-01 -0.24524678214E-01  0.89140481599E+00  0.88000000000E+00 0. -1.
        -11    1    4    4    0    0 -0.15976300320E-01  0.12303498669E-01  0.53473052789E-03  0.20178337621E-01  0.51100000000E-03 0.  1.
         11    1    4    4    0    0 -0.10524967414E+00  0.26985332826E-01  0.56639041419E-02  0.10880277122E+00  0.51100000000E-03 0. -1.
</event>
<event>
 8    1  0.1122848E+005  0.1043930E+01  0.7957747E-01            NaN
         13   -1    0    0    0    0  0.00000000000E+00  0.00000000000E+00  0.74505805969E-08  0.10566000000E+00  0.10566000000E+00 0. -1.
     999900   -1    0    0    0    0 -0.00000000000E+00 -0.00000000000E+00 -0.74505805969E-08  0.93827000000E+00  0.93827000000E+00 0.  1.
     999902    2    1    2    0    0  0.22088749554E-01 -0.10796394205E-02  0.73693809283E-02  0.10206193532E+01  0.10203531143E+01 0.  0.
     999903    2    3    3    0    0  0.31599373295E-01  0.46073508039E-01  0.11820896830E+00  0.13236303581E+00  0.20623397605E-01 0.  0.
         14    1    1    2    0    0 -0.22088749554E-01  0.10796394205E-02 -0.73693809283E-02  0.23310646782E-01  0.00000000000E+00 0. -1.
     999901    1    3    3    0    0 -0.95106237414E-02 -0.47153147459E-01 -0.11083958737E+00  0.88825631740E+00  0.88000000000E+00 0.  1.
        -11    1    4    4    0    0  0.12173160609E-01  0.98759578799E-02  0.53168058524E-01  0.55433058290E-01  0.51100000000E-03 0. -1.
         11    1    4    4    0    0  0.19426212686E-01  0.36197550159E-01  0.65040909773E-01  0.76929977524E-01  0.51100000000E-03 0.  1.
</event>
<event>
 8    1  0.1122848E+005  0.1043930E+01  0.7957747E-01            NaN
         13   -1    0    0    0    0  0.00000000000E+00  0.00000000000E+00  0.74505805969E-08  0.10566000000E+00  0.10566000000E+00 0. -1.
     999900   -1    0    0    0    0 -0.00000000000E+00 -0.00000000000E+00 -0.74505805969E-08  0.93827000000E+00  0.93827000000E+00 0. -1.
     999902    2    1    2    0    0 -0.41118493402E-03 -0.20795418747E-01 -0.98731848839E-02  0.10209061364E+01  0.10206464819E+01 0.  0.
     999903    2    3    3    0    0 -0.12801861565E-01  0.35454717117E-01  0.12199477060E+00  0.12921854297E+00  0.19843970560E-01 0.  0.
         14    1    1    2    0    0  0.41118493402E-03  0.20795418747E-01  0.98731848839E-02  0.23023863569E-01  0.00000000000E+00 0. -1.
     999901    1    3    3    0    0  0.12390676631E-01 -0.56250135864E-01 -0.13186795548E+00  0.89168759346E+00  0.88000000000E+00 0. -1.
        -11    1    4    4    0    0 -0.14154917036E-01  0.32721186829E-01  0.86098858278E-01  0.93189657482E-01  0.51100000000E-03 0.  1.
         11    1    4    4    0    0  0.13530554708E-02  0.27335302886E-02  0.35895912322E-01  0.36028885486E-01  0.51100000000E-03 0. -1.
</event>
<event>
 8    1  0.1211912E+005  0.1043930E+01  0.7957747E-01            NaN
         13   -1    0    0    0    0  0.00000000000E+00  0.00000000000E+00  0.74505805969E-08  0.10566000000E+00  0.10566000000E+00 0.  1.
     999900   -1    0    0    0    0 -0.00000000000E+00 -0.00000000000E+00 -0.74505805969E-08  0.93827000000E+00  0.93827000000E+00 0.  1.
     999902    2    1    2    0    0  0.18646954837E-01 -0.27863702084E-02  0.14284571658E-01  0.10202757875E+01  0.10200015494E+01 0.  0.
     999903    2    3    3    0    0  0.82788128486E-01  0.86398530713E-01  0.53387986238E-01  0.13258377232E+00  0.20238559232E-01 0.  0.
         14    1    1    2    0    0 -0.18646954837E-01  0.27863702084E-02 -0.14284571658E-01  0.23654212544E-01  0.00000000000E+00 0.  1.
     999901    1    3    3    0    0 -0.64141173649E-01 -0.89184900921E-01 -0.39103414581E-01  0.88769201514E+00  0.88000000000E+00 0.  1.
        -11    1    4    4    0    0  0.16046788582E-01  0.29385713683E-01  0.17110483761E-01  0.37603847781E-01  0.51100000000E-03 0. -1.
         11    1    4    4    0    0  0.66741339904E-01  0.57012817031E-01  0.36277502478E-01  0.94979924536E-01  0.51100000000E-03 0.  1.
</event>
<event>
 8    1  0.1122848E+005  0.1043930E+01  0.7957747E-01            NaN
         13   -1    0    0    0    0  0.00000000000E+00  0.00000000000E+00  0.74505805969E-08  0.10566000000E+00  0.10566000000E+00 0.  1.
     999900   -1    0    0    0    0 -0.00000000000E+00 -0.00000000000E+00 -0.74505805969E-08  0.93827000000E+00  0.93827000000E+00 0. -1.
     999902    2    1    2    0    0  0.90805928851E-02 -0.22643595599E-01 -0.11326424724E-01  0.10170324632E+01  0.10166767204E+01 0.  0.
     999903    2    3    3    0    0 -0.10718635333E+00 -0.61344068062E-01  0.26007177422E-01  0.12775774344E+00  0.19840834314E-01 0.  0.
         14    1    1    2    0    0 -0.90805928851E-02  0.22643595599E-01  0.11326424724E-01  0.26897536798E-01  0.00000000000E+00 0. -1.
     999901    1    3    3    0    0  0.11626694621E+00  0.38700472463E-01 -0.37333602146E-01  0.88927471976E+00  0.88000000000E+00 0.  1.
        -11    1    4    4    0    0 -0.36914546759E-01 -0.32222787232E-01  0.93469653551E-02  0.49886056787E-01  0.51100000000E-03 0. -1.
         11    1    4    4    0    0 -0.70271806569E-01 -0.29121280830E-01  0.16660212067E-01  0.77871686657E-01  0.51100000000E-03 0.  1.
</event>
<event>
 8    1  0.1122848E+005  0.1043930E+01  0.7957747E-01            NaN
         13   -1    0    0    0    0  0.00000000000E+00  0.00000000000E+00  0.74505805969E-08  0.10566000000E+00  0.10566000000E+00 0.  1.
     999900   -1    0    0    0    0 -0.00000000000E+00 -0.00000000000E+00 -0.74505805969E-08  0.93827000000E+00  0.93827000000E+00 0. -1.
     999902    2    1    2    0    0  0.12030942828E-01  0.13980144208E-01  0.15945341301E-01  0.10195488202E+01  0.10192572565E+01 0.  0.
     999903    2    3    3    0    0 -0.14411566884E-02 -0.41101581199E-02 -0.12618209522E+00  0.12785999295E+00  0.20181335706E-01 0.  0.
         14    1    1    2    0    0 -0.12030942828E-01 -0.13980144208E-01 -0.15945341301E-01  0.24381179763E-01  0.00000000000E+00 0. -1.
     999901    1    3    3    0    0  0.13472099517E-01  0.18090302328E-01  0.14212743652E+00  0.89168882729E+00  0.88000000000E+00 0.  1.
        -11    1    4    4    0    0  0.37145908183E-02  0.68970251841E-02 -0.65633687722E-01  0.66101506990E-01  0.51100000000E-03 0.  1.
         11    1    4    4    0    0 -0.51557475068E-02 -0.11007183304E-01 -0.60548407493E-01  0.61758485957E-01  0.51100000000E-03 0. -1.
</event>
<event>
 8    1  0.1122848E+005  0.1043930E+01  0.7957747E-01            NaN
         13   -1    0    0    0    0  0.00000000000E+00  0.00000000000E+00  0.74505805969E-08  0.10566000000E+00  0.10566000000E+00 0.  1.
     999900   -1    0    0    0    0 -0.00000000000E+00 -0.00000000000E+00 -0.74505805969E-08  0.93827000000E+00  0.93827000000E+00 0. -1.
     999902    2    1    2    0    0  0.24383056879E-02  0.20173269191E-01 -0.11494231660E-01  0.10205842619E+01  0.10203172116E+01 0.  0.
     999903    2    3    3    0    0 -0.68694124014E-01 -0.58119046789E-01  0.89419318174E-01  0.12852313519E+00  0.20631905968E-01 0.  0.
         14    1    1    2    0    0 -0.24383056879E-02 -0.20173269191E-01  0.11494231660E-01  0.23345738068E-01  0.00000000000E+00 0.  1.
     999901    1    3    3    0    0  0.71132429702E-01  0.78292315980E-01 -0.10091354983E+00  0.89206112674E+00  0.88000000000E+00 0.  1.
        -11    1    4    4    0    0 -0.54200990966E-01 -0.42987852539E-01  0.79344401263E-01  0.10526869440E+00  0.51100000000E-03 0. -1.
         11    1    4    4    0    0 -0.14493133048E-01 -0.15131194250E-01  0.10074916911E-01  0.23254440796E-01  0.51100000000E-03 0.  1.
</event>
<event>
 8    1  0.1122848E+005  0.1043930E+01  0.7957747E-01            NaN
         13   -1    0    0    0    0  0.00000000000E+00  0.00000000000E+00  0.74505805969E-08  0.10566000000E+00  0.10566000000E+00 0.  1.
     999900   -1    0    0    0    0 -0.00000000000E+00 -0.00000000000E+00 -0.74505805969E-08  0.93827000000E+00  0.93827000000E+00 0. -1.
     999902    2    1    2    0    0 -0.51052375858E-02 -0.69998544910E-03 -0.23336888768E-01  0.10200309664E+01  0.10197509542E+01 0.  0.
     999903    2    3    3    0    0  0.90370187160E-02 -0.70598200709E-01  0.10448305174E+00  0.12794145232E+00  0.19660454467E-01 0.  0.
         14    1    1    2    0    0  0.51052375858E-02  0.69998544910E-03  0.23336888768E-01  0.23899033616E-01  0.00000000000E+00 0.  1.
     999901    1    3    3    0    0 -0.14142256302E-01  0.69898215260E-01 -0.12781994051E+00  0.89208951406E+00  0.88000000000E+00 0. -1.
        -11    1    4    4    0    0  0.10465679328E-01 -0.25972629241E-01  0.29547969775E-01  0.40711810968E-01  0.51100000000E-03 0.  1.
         11    1    4    4    0    0 -0.14286606117E-02 -0.44625571468E-01  0.74935081968E-01  0.87229641353E-01  0.51100000000E-03 0. -1.
</event>
<event>
 8    1  0.1122848E+005  0.1043930E+01  0.7957747E-01            NaN
         13   -1    0    0    0    0  0.00000000000E+00  0.00000000000E+00  0.74505805969E-08  0.10566000000E+00  0.10566000000E+00 0.  1.
     999900   -1    0    0    0    0 -0.00000000000E+00 -0.00000000000E+00 -0.74505805969E-08  0.93827000000E+00  0.93827000000E+00 0.  1.
     999902    2    1    2    0    0  0.20749732220E-01  0.73623626410E-02  0.20944142558E-02  0.10218134374E+01  0.10215740592E+01 0.  0.
     999903    2    3    3    0    0 -0.41610859289E-01 -0.56961118558E-01  0.10840696495E+00  0.13089890049E+00  0.20159847784E-01 0.  0.
         14    1    1    2    0    0 -0.20749732220E-01 -0.73623626410E-02 -0.20944142558E-02  0.22116562615E-01  0.00000000000E+00 0.  1.
     999901    1    3    3    0    0  0.62360591509E-01  0.64323481199E-01 -0.10631255069E+00  0.89091453689E+00  0.88000000000E+00 0.  1.
        -11    1    4    4    0    0 -0.22845713399E-01 -0.44977576423E-01  0.82831961687E-01  0.96986102094E-01  0.51100000000E-03 0. -1.
         11    1    4    4    0    0 -0.18765145890E-01 -0.11983542135E-01  0.25575003264E-01  0.33912798400E-01  0.51100000000E-03 0.  1.
</event>
<event>
 8    1  0.1122848E+005  0.1043930E+01  0.7957747E-01            NaN
         13   -1    0    0    0    0  0.00000000000E+00  0.00000000000E+00  0.74505805969E-08  0.10566000000E+00  0.10566000000E+00 0.  1.
     999900   -1    0    0    0    0 -0.00000000000E+00 -0.00000000000E+00 -0.74505805969E-08  0.93827000000E+00  0.93827000000E+00 0.  1.
     999902    2    1    2    0    0  0.15456532325E-01 -0.17478441440E-01  0.21243447873E-02  0.10205011044E+01  0.10202321260E+01 0.  0.
     999903    2    3    3    0    0  0.52360558883E-01 -0.11384505315E+00  0.41885715318E-01  0.13357980149E+00  0.19667891732E-01 0.  0.
         14    1    1    2    0    0 -0.15456532325E-01  0.17478441440E-01 -0.21243447873E-02  0.23428895566E-01  0.00000000000E+00 0.  1.
     999901    1    3    3    0    0 -0.36904026558E-01  0.96366611710E-01 -0.39761370531E-01  0.88692130294E+00  0.88000000000E+00 0. -1.
        -11    1    4    4    0    0  0.22571612256E-01 -0.68671691434E-01  0.29443942078E-01  0.78054376753E-01  0.51100000000E-03 0.  1.
         11    1    4    4    0    0  0.29788946627E-01 -0.45173361716E-01  0.12441773241E-01  0.55525424737E-01  0.51100000000E-03 0. -1.
</event>
<event>
 8    1  0.1122848E+005  0.1043930E+01  0.7957747E-01            NaN
         13   -1    0    0    0    0  0.00000000000E+00  0.00000000000E+00  0.74505805969E-08  0.10566000000E+00  0.10566000000E+00 0.  1.
     999900   -1    0    0    0    0 -0.00000000000E+00 -0.00000000000E+00 -0.74505805969E-08  0.93827000000E+00  0.93827000000E+00 0.  1.
     999902    2    1    2    0    0 -0.21017954940E-01  0.87369227865E-02  0.63742558908E-02  0.10202927542E+01  0.10200189140E+01 0.  0.
     999903    2    3    3    0    0  0.59915350783E-01  0.44100245363E-01 -0.10354813535E+00  0.12906680271E+00  0.20033530054E-01 0.  0.
         14    1    1    2    0    0  0.21017954940E-01 -0.87369227865E-02 -0.63742558908E-02  0.23637245774E-01  0.00000000000E+00 0.  1.
     999901    1    3    3    0    0 -0.80933305723E-01 -0.35363322576E-01  0.10992239124E+00  0.89122595152E+00  0.88000000000E+00 0. -1.
        -11    1    4    4    0    0  0.87642828834E-02  0.16684835878E-01 -0.21973550799E-01  0.28953315155E-01  0.51100000000E-03 0. -1.
         11    1    4    4    0    0  0.51151067900E-01  0.27415409485E-01 -0.81574584553E-01  0.10011348756E+00  0.51100000000E-03 0.  1.
</event>
<event>
 8    1  0.1122848E+005  0.1043930E+01  0.7957747E-01            NaN
         13   -1    0    0    0    0  0.00000000000E+00  0.00000000000E+00  0.74505805969E-08  0.10566000000E+00  0.10566000000E+00 0.  1.
     999900   -1    0    0    0    0 -0.00000000000E+00 -0.00000000000E+00 -0.74505805969E-08  0.93827000000E+00  0.93827000000E+00 0. -1.
     999902    2    1    2    0    0  0.18956476455E-01  0.13085558036E-01 -0.58668550249E-02  0.10201602752E+01  0.10198833204E+01 0.  0.
     999903    2    3    3    0    0  0.73428033527E-01 -0.93120818735E-01 -0.51699718926E-01  0.13092037709E+00  0.20102766242E-01 0.  0.
         14    1    1    2    0    0 -0.18956476455E-01 -0.13085558036E-01  0.58668550249E-02  0.23769724790E-01  0.00000000000E+00 0.  1.
     999901    1    3    3    0    0 -0.54471557072E-01  0.10620637677E+00  0.45832863901E-01  0.88923989812E+00  0.88000000000E+00 0. -1.
        -11    1    4    4    0    0  0.58867004328E-01 -0.70591254923E-01 -0.48419962773E-01  0.10389034308E+00  0.51100000000E-03 0. -1.
         11    1    4    4    0    0  0.14561029199E-01 -0.22529563812E-01 -0.32797561530E-02  0.27030034005E-01  0.51100000000E-03 0.  1.
</event>
<event>
 8    1  0.1122848E+005  0.1043930E+01  0.7957747E-01            NaN
         13   -1    0    0    0    0  0.00000000000E+00  0.00000000000E+00  0.74505805969E-08  0.10566000000E+00  0.10566000000E+00 0.  1.
     999900   -1    0    0    0    0 -0.00000000000E+00 -0.00000000000E+00 -0.74505805969E-08  0.93827000000E+00  0.93827000000E+00 0. -1.
     999902    2    1    2    0    0 -0.14948598217E-01  0.13232562015E-01  0.13245866592E-01  0.10199714051E+01  0.10196899789E+01 0.  0.
     999903    2    3    3    0    0  0.47389358700E-01 -0.24666407423E-01  0.11865053980E+00  0.13068377006E+00  0.12087770213E-01 0.  0.
         14    1    1    2    0    0  0.14948598217E-01 -0.13232562015E-01 -0.13245866592E-01  0.23958594865E-01  0.00000000000E+00 0. -1.
     999901    1    3    3    0    0 -0.62337956917E-01  0.37898969438E-01 -0.10540467321E+00  0.88928763507E+00  0.88000000000E+00 0. -1.
        -11    1    4    4    0    0  0.34763622989E-01 -0.12289270061E-01  0.74652211326E-01  0.83263133611E-01  0.51100000000E-03 0.  1.
         11    1    4    4    0    0  0.12625735711E-01 -0.12377137362E-01  0.43998328479E-01  0.47420636451E-01  0.51100000000E-03 0. -1.
</event>
<event>
 8    1  0.1122848E+005  0.1043930E+01  0.7957747E-01            NaN
         13   -1    0    0    0    0  0.00000000000E+00  0.00000000000E+00  0.74505805969E-08  0.10566000000E+00  0.10566000000E+00 0. -1.
     999900   -1    0    0    0    0 -0.00000000000E+00 -0.00000000000E+00 -0.74505805969E-08  0.93827000000E+00  0.93827000000E+00 0. -1.
     999902    2    1    2    0    0 -0.98198477845E-02  0.42176145817E-02  0.20753665220E-01  0.10205862149E+01  0.10203192097E+01 0.  0.
     999903    2    3    3    0    0  0.30810147369E-01  0.28646741503E-01 -0.11899357775E+00  0.12829877764E+00  0.23047859346E-01 0.  0.
         14    1    1    2    0    0  0.98198477845E-02 -0.42176145817E-02 -0.20753665220E-01  0.23343785112E-01  0.00000000000E+00 0.  1.
     999901    1    3    3    0    0 -0.40629995154E-01 -0.24429126921E-01  0.13974724297E+00  0.89228743724E+00  0.88000000000E+00 0.  1.
        -11    1    4    4    0    0  0.23199415460E-01  0.66090103427E-02 -0.51055391260E-01  0.56469513838E-01  0.51100000000E-03 0. -1.
         11    1    4    4    0    0  0.76107319095E-02  0.22037731160E-01 -0.67938186485E-01  0.71829263805E-01  0.51100000000E-03 0.  1.
</event>
<event>
 8    1  0.1122848E+005  0.1043930E+01  0.7957747E-01            NaN
         13   -1    0    0    0    0  0.00000000000E+00  0.00000000000E+00  0.74505805969E-08  0.10566000000E+00  0.10566000000E+00 0.  1.
     999900   -1    0    0    0    0 -0.00000000000E+00 -0.00000000000E+00 -0.74505805969E-08  0.93827000000E+00  0.93827000000E+00 0. -1.
     999902    2    1    2    0    0 -0.19980788352E-01 -0.12008059432E-01  0.65374821386E-02  0.10197191746E+01  0.10194317196E+01 0.  0.
     999903    2    3    3    0    0 -0.10213104294E+00  0.49112715857E-01 -0.62694573415E-01  0.13108117685E+00  0.20220202743E-01 0.  0.
         14    1    1    2    0    0  0.19980788352E-01  0.12008059432E-01 -0.65374821386E-02  0.24210825413E-01  0.00000000000E+00 0. -1.
     999901    1    3    3    0    0  0.82150254586E-01 -0.61120775288E-01  0.69232055554E-01  0.88863799773E+00  0.88000000000E+00 0.  1.
        -11    1    4    4    0    0 -0.65236313035E-01  0.22195725283E-01 -0.43812084575E-01  0.81658965430E-01  0.51100000000E-03 0.  1.
         11    1    4    4    0    0 -0.36894729903E-01  0.26916990573E-01 -0.18882488840E-01  0.49422211423E-01  0.51100000000E-03 0. -1.
</event>
<event>
 8    1  0.1122848E+005  0.1043930E+01  0.7957747E-01            NaN
         13   -1    0    0    0    0  0.00000000000E+00  0.00000000000E+00  0.74505805969E-08  0.10566000000E+00  0.10566000000E+00 0. -1.
     999900   -1    0    0    0    0 -0.00000000000E+00 -0.00000000000E+00 -0.74505805969E-08  0.93827000000E+00  0.93827000000E+00 0.  1.
     999902    2    1    2    0    0  0.20407161771E-01 -0.85957919936E-02  0.14680003937E-02  0.10217377735E+01  0.10214967366E+01 0.  0.
     999903    2    3    3    0    0  0.12227809369E+00 -0.30303515651E-01  0.42728928666E-01  0.13463497437E+00  0.20750414986E-01 0.  0.
         14    1    1    2    0    0 -0.20407161771E-01  0.85957919936E-02 -0.14680003937E-02  0.22192226492E-01  0.00000000000E+00 0.  1.
     999901    1    3    3    0    0 -0.10187093192E+00  0.21707723657E-01 -0.41260928272E-01  0.88710279914E+00  0.88000000000E+00 0.  1.
        -11    1    4    4    0    0  0.55441027909E-02 -0.62960157815E-02  0.15724604564E-02  0.85504762068E-02  0.51100000000E-03 0. -1.
         11    1    4    4    0    0  0.11673399090E+00 -0.24007499869E-01  0.41156468209E-01  0.12608449816E+00  0.51100000000E-03 0.  1.
</event>
<event>
 8    1  0.1122848E+005  0.1043930E+01  0.7957747E-01            NaN
         13   -1    0    0    0    0  0.00000000000E+00  0.00000000000E+00  0.74505805969E-08  0.10566000000E+00  0.10566000000E+00 0. -1.
     999900   -1    0    0    0    0 -0.00000000000E+00 -0.00000000000E+00 -0.74505805969E-08  0.93827000000E+00  0.93827000000E+00 0.  1.
     999902    2    1    2    0    0 -0.81478283053E-02 -0.16557985761E-01 -0.14002441676E-01  0.10207648889E+01  0.10205020020E+01 0.  0.
     999903    2    3    3    0    0  0.10181861280E+00 -0.80690215552E-01  0.10869857598E-02  0.13147682991E+00  0.20175095211E-01 0.  0.
         14    1    1    2    0    0  0.81478283053E-02  0.16557985761E-01  0.14002441676E-01  0.23165111083E-01  0.00000000000E+00 0. -1.
     999901    1    3    3    0    0 -0.10996644111E+00  0.64132229791E-01 -0.15089427436E-01  0.88928805900E+00  0.88000000000E+00 0.  1.
        -11    1    4    4    0    0  0.33951423352E-01 -0.16876396063E-01  0.49442642300E-02  0.38238969148E-01  0.51100000000E-03 0.  1.
         11    1    4    4    0    0  0.67867189451E-01 -0.63813819489E-01 -0.38572784703E-02  0.93237860765E-01  0.51100000000E-03 0. -1.
</event>
<event>
 8    1  0.1122848E+005  0.1043930E+01  0.7957747E-01            NaN
         13   -1    0    0    0    0  0.00000000000E+00  0.00000000000E+00  0.74505805969E-08  0.10566000000E+00  0.10566000000E+00 0.  1.
     999900   -1    0    0    0    0 -0.00000000000E+00 -0.00000000000E+00 -0.74505805969E-08  0.93827000000E+00  0.93827000000E+00 0. -1.
     999902    2    1    2    0    0 -0.15881683819E-01  0.11387144930E-01 -0.12697264643E-01  0.10206251619E+01  0.10203590572E+01 0.  0.
     999903    2    3    3    0    0  0.48838317701E-01  0.23371166406E-01 -0.11834195645E+00  0.13186586022E+00  0.21269549600E-01 0.  0.
         14    1    1    2    0    0  0.15881683819E-01 -0.11387144930E-01  0.12697264643E-01  0.23304838124E-01  0.00000000000E+00 0. -1.
     999901    1    3    3    0    0 -0.64720001519E-01 -0.11984021475E-01  0.10564469181E+00  0.88875930165E+00  0.88000000000E+00 0.  1.
        -11    1    4    4    0    0  0.24381731572E-01  0.11145422659E-01 -0.82720877378E-01  0.86958001103E-01  0.51100000000E-03 0. -1.
         11    1    4    4    0    0  0.24456586129E-01  0.12225743747E-01 -0.35621079075E-01  0.44907859119E-01  0.51100000000E-03 0.  1.
</event>
<event>
 8    1  0.1122848E+005  0.1043930E+01  0.7957747E-01            NaN
         13   -1    0    0    0    0  0.00000000000E+00  0.00000000000E+00  0.74505805969E-08  0.10566000000E+00  0.10566000000E+00 0. -1.
     999900   -1    0    0    0    0 -0.00000000000E+00 -0.00000000000E+00 -0.74505805969E-08  0.93827000000E+00  0.93827000000E+00 0.  1.
     999902    2    1    2    0    0  0.94997413318E-02  0.16029582160E-01 -0.67784385264E-02  0.10241022463E+01  0.10239102846E+01 0.  0.
     999903    2    3    3    0    0  0.44147729899E-01  0.35074178791E-01 -0.12212816695E+00  0.13569426587E+00  0.17844454438E-01 0.  0.
         14    1    1    2    0    0 -0.94997413318E-02 -0.16029582160E-01  0.67784385264E-02  0.19827753742E-01  0.00000000000E+00 0.  1.
     999901    1    3    3    0    0 -0.34647988567E-01 -0.19044596631E-01  0.11534972842E+00  0.88840798039E+00  0.88000000000E+00 0. -1.
        -11    1    4    4    0    0  0.24924990229E-01  0.97604463502E-02 -0.65369856146E-01  0.70639936752E-01  0.51100000000E-03 0. -1.
         11    1    4    4    0    0  0.19222739670E-01  0.25313732441E-01 -0.56758310803E-01  0.65054329116E-01  0.51100000000E-03 0.  1.
</event>
<event>
 8    1  0.1122848E+005  0.1043930E+01  0.7957747E-01            NaN
         13   -1    0    0    0    0  0.00000000000E+00  0.00000000000E+00  0.74505805969E-08  0.10566000000E+00  0.10566000000E+00 0. -1.
     999900   -1    0    0    0    0 -0.00000000000E+00 -0.00000000000E+00 -0.74505805969E-08  0.93827000000E+00  0.93827000000E+00 0.  1.
     999902    2    1    2    0    0  0.10392378763E-01 -0.18559825971E-01  0.10249387696E-01  0.10203181677E+01  0.10200449229E+01 0.  0.
     999903    2    3    3    0    0 -0.35986361398E-01 -0.42488369540E-01 -0.11574466865E+00  0.12981377974E+00  0.18828418325E-01 0.  0.
         14    1    1    2    0    0 -0.10392378763E-01  0.18559825971E-01 -0.10249387696E-01  0.23611832300E-01  0.00000000000E+00 0. -1.
     999901    1    3    3    0    0  0.46378740161E-01  0.23928543569E-01  0.12599405635E+00  0.89050438796E+00  0.88000000000E+00 0. -1.
        -11    1    4    4    0    0 -0.12996940815E-01 -0.28109917204E-01 -0.71471924746E-01  0.77894704978E-01  0.51100000000E-03 0. -1.
         11    1    4    4    0    0 -0.22989420583E-01 -0.14378452336E-01 -0.44272743907E-01  0.51919074764E-01  0.51100000000E-03 0.  1.
</event>
<event>
 8    1  0.1122848E+005  0.1043930E+01  0.7957747E-01            NaN
         13   -1    0    0    0    0  0.00000000000E+00  0.00000000000E+00  0.74505805969E-08  0.10566000000E+00  0.10566000000E+00 0.  1.
     999900   -1    0    0    0    0 -0.00000000000E+00 -0.00000000000E+00 -0.74505805969E-08  0.93827000000E+00  0.93827000000E+00 0. -1.
     999902    2    1    2    0    0 -0.99197293528E-02 -0.26112071024E-01 -0.11202414623E-02  0.10159747460E+01  0.10155900690E+01 0.  0.
     999903    2    3    3    0    0  0.47437734741E-01 -0.14278105132E-01  0.11481436450E+00  0.12644073640E+00  0.18727481443E-01 0.  0.
         14    1    1    2    0    0  0.99197293528E-02  0.26112071024E-01  0.11202414623E-02  0.27955253970E-01  0.00000000000E+00 0.  1.
     999901    1    3    3    0    0 -0.57357464094E-01 -0.11833965892E-01 -0.11593460596E+00  0.88953400963E+00  0.88000000000E+00 0. -1.
        -11    1    4    4    0    0  0.18196773092E-01  0.32367132227E-02  0.33367770813E-01  0.38147976532E-01  0.51100000000E-03 0. -1.
         11    1    4    4    0    0  0.29240961650E-01 -0.17514818354E-01  0.81446593688E-01  0.88292759865E-01  0.51100000000E-03 0.  1.
</event>
<event>
 8    1  0.1122848E+005  0.1043930E+01  0.7957747E-01            NaN
         13   -1    0    0    0    0  0.00000000000E+00  0.00000000000E+00  0.74505805969E-08  0.10566000000E+00  0.10566000000E+00 0. -1.
     999900   -1    0    0    0    0 -0.00000000000E+00 -0.00000000000E+00 -0.74505805969E-08  0.93827000000E+00  0.93827000000E+00 0. -1.
     999902    2    1    2    0    0  0.14755957027E-01  0.10441737285E-01 -0.13613749606E-01  0.10213003221E+01  0.10210495803E+01 0.  0.
     999903    2    3    3    0    0  0.10314989188E-01 -0.81011282079E-01 -0.10202410078E+00  0.13214354897E+00  0.19590139545E-01 0.  0.
         14    1    1    2    0    0 -0.14755957027E-01 -0.10441737285E-01  0.13613749606E-01  0.22629677939E-01  0.00000000000E+00 0.  1.
     999901    1    3    3    0    0  0.44409678387E-02  0.91453019364E-01  0.88410351173E-01  0.88915677309E+00  0.88000000000E+00 0.  1.
        -11    1    4    4    0    0  0.15677358616E-01 -0.47049147798E-01 -0.60471548020E-01  0.78207871231E-01  0.51100000000E-03 0.  1.
         11    1    4    4    0    0 -0.53623694277E-02 -0.33962134281E-01 -0.41552552760E-01  0.53935677734E-01  0.51100000000E-03 0. -1.
</event>
<event>
 8    1  0.1122848E+005  0.1043930E+01  0.7957747E-01            NaN
         13   -1    0    0    0    0  0.00000000000E+00  0.00000000000E+00  0.74505805969E-08  0.10566000000E+00  0.10566000000E+00 0. -1.
     999900   -1    0    0    0    0 -0.00000000000E+00 -0.00000000000E+00 -0.74505805969E-08  0.93827000000E+00  0.93827000000E+00 0. -1.
     999902    2    1    2    0    0 -0.35290523694E-02  0.20088679374E-01 -0.15660093047E-01  0.10182152617E+01  0.10178905007E+01 0.  0.
     999903    2    3    3    0    0  0.59748563203E-01 -0.68948184142E-01  0.83925393485E-01  0.12588746949E+00  0.21918950722E-01 0.  0.
         14    1    1    2    0    0  0.35290523694E-02 -0.20088679374E-01  0.15660093047E-01  0.25714738262E-01  0.00000000000E+00 0.  1.
     999901    1    3    3    0    0 -0.63277615572E-01  0.89036863516E-01 -0.99585486533E-01  0.89232779225E+00  0.88000000000E+00 0. -1.
        -11    1    4    4    0    0  0.26659050439E-01 -0.39255638320E-01  0.55916785941E-01  0.73339335838E-01  0.51100000000E-03 0.  1.
         11    1    4    4    0    0  0.33089512764E-01 -0.29692545822E-01  0.28008607545E-01  0.52548133649E-01  0.51100000000E-03 0. -1.
</event>
<event>
 8    1  0.1122848E+005  0.1043930E+01  0.7957747E-01            NaN
         13   -1    0    0    0    0  0.00000000000E+00  0.00000000000E+00  0.74505805969E-08  0.10566000000E+00  0.10566000000E+00 0. -1.
     999900   -1    0    0    0    0 -0.00000000000E+00 -0.00000000000E+00 -0.74505805969E-08  0.93827000000E+00  0.93827000000E+00 0.  1.
     999902    2    1    2    0    0 -0.40149647137E-02  0.20113733922E-01  0.11949185532E-01  0.10201925766E+01  0.10199163829E+01 0.  0.
     999903    2    3    3    0    0  0.11268257605E-01 -0.15434903469E-01  0.12874556104E+00  0.13163268790E+00  0.19660497515E-01 0.  0.
         14    1    1    2    0    0  0.40149647137E-02 -0.20113733922E-01 -0.11949185532E-01  0.23737423382E-01  0.00000000000E+00 0.  1.
     999901    1    3    3    0    0 -0.15283222319E-01  0.35548637391E-01 -0.11679637551E+00  0.88855988872E+00  0.88000000000E+00 0.  1.
        -11    1    4    4    0    0  0.15828496935E-01 -0.16324033628E-01  0.10664488001E+00  0.10904314258E+00  0.51100000000E-03 0. -1.
         11    1    4    4    0    0 -0.45602393291E-02  0.88913015915E-03  0.22100681026E-01  0.22589545325E-01  0.51100000000E-03 0.  1.
</event>
<event>
 8    1  0.1221009E+005  0.1043930E+01  0.7957747E-01            NaN
         13   -1    0    0    0    0  0.00000000000E+00  0.00000000000E+00  0.74505805969E-08  0.10566000000E+00  0.10566000000E+00 0.  1.
     999900   -1    0    0    0    0 -0.00000000000E+00 -0.00000000000E+00 -0.74505805969E-08  0.93827000000E+00  0.93827000000E+00 0.  1.
     999902    2    1    2    0    0  0.18236456360E-01 -0.49176552709E-02  0.13228831375E-01  0.10208702157E+01  0.10206097411E+01 0.  0.
     999903    2    3    3    0    0  0.34731572980E-01  0.11019148039E-02 -0.12375581254E+00  0.13009913578E+00  0.20069569372E-01 0.  0.
         14    1    1    2    0    0 -0.18236456360E-01  0.49176552709E-02 -0.13228831375E-01  0.23059784333E-01  0.00000000000E+00 0. -1.
     999901    1    3    3    0    0 -0.16495116620E-01 -0.60195700748E-02  0.13698464392E+00  0.89077107989E+00  0.88000000000E+00 0. -1.
        -11    1    4    4    0    0  0.21084347123E-01 -0.92118275817E-02 -0.70883049151E-01  0.74525668322E-01  0.51100000000E-03 0.  1.
         11    1    4    4    0    0  0.13647225857E-01  0.10313742386E-01 -0.52872763390E-01  0.55573467456E-01  0.51100000000E-03 0. -1.
</event>
<event>
 8    1  0.1122848E+005  0.1043930E+01  0.7957747E-01            NaN
         13   -1    0    0    0    0  0.00000000000E+00  0.00000000000E+00  0.74505805969E-08  0.10566000000E+00  0.10566000000E+00 0. -1.
     999900   -1    0    0    0    0 -0.00000000000E+00 -0.00000000000E+00 -0.74505805969E-08  0.93827000000E+00  0.93827000000E+00 0.  1.
     999902    2    1    2    0    0 -0.18469708852E-04  0.13159385394E-01 -0.12244241271E-01  0.10259552619E+01  0.10257977911E+01 0.  0.
     999903    2    3    3    0    0 -0.49876425121E-01 -0.21178089130E-01 -0.12393658525E+00  0.13683206596E+00  0.20653519506E-01 0.  0.
         14    1    1    2    0    0  0.18469708852E-04 -0.13159385394E-01  0.12244241271E-01  0.17974738090E-01  0.00000000000E+00 0. -1.
     999901    1    3    3    0    0  0.49857955412E-01  0.34337474524E-01  0.11169234398E+00  0.88912319595E+00  0.88000000000E+00 0. -1.
        -11    1    4    4    0    0 -0.26691195450E-01 -0.12593933353E-01 -0.42656786585E-01  0.51873785621E-01  0.51100000000E-03 0.  1.
         11    1    4    4    0    0 -0.23185229671E-01 -0.85841557775E-02 -0.81279798669E-01  0.84958280338E-01  0.51100000000E-03 0. -1.
</event>
<event>
 8    1  0.1122848E+005  0.1043930E+01  0.7957747E-01            NaN
         13   -1    0    0    0    0  0.00000000000E+00  0.00000000000E+00  0.74505805969E-08  0.10566000000E+00  0.10566000000E+00 0.  1.
     999900   -1    0    0    0    0 -0.00000000000E+00 -0.00000000000E+00 -0.74505805969E-08  0.93827000000E+00  0.93827000000E+00 0. -1.
     999902    2    1    2    0    0 -0.11928679055E-01  0.80129820182E-02  0.18662664253E-01  0.10203758857E+01  0.10201039907E+01 0.  0.
     999903    2    3    3    0    0  0.70532152957E-01 -0.89652015499E-01 -0.54821696791E-01  0.12811012264E+00  0.19862441952E-01 0.  0.
         14    1    1    2    0    0  0.11928679055E-01 -0.80129820182E-02 -0.18662664253E-01  0.23554114329E-01  0.00000000000E+00 0. -1.
     999901    1    3    3    0    0 -0.82460832012E-01  0.97664997517E-01  0.73484361044E-01  0.89226576303E+00  0.88000000000E+00 0.  1.
        -11    1    4    4    0    0  0.10650083046E-01 -0.67856261832E-02 -0.12906565699E-02  0.12704168881E-01  0.51100000000E-03 0. -1.
         11    1    4    4    0    0  0.59882069911E-01 -0.82866389316E-01 -0.53531040221E-01  0.11540595376E+00  0.51100000000E-03 0.  1.
</event>
<event>
 8    1  0.1122848E+005  0.1043930E+01  0.7957747E-01            NaN
         13   -1    0    0    0    0  0.00000000000E+00  0.00000000000E+00  0.74505805969E-08  0.10566000000E+00  0.10566000000E+00 0.  1.
     999900   -1    0    0    0    0 -0.00000000000E+00 -0.00000000000E+00 -0.74505805969E-08  0.93827000000E+00  0.93827000000E+00 0.  1.
     999902    2    1    2    0    0 -0.28722745777E-02 -0.21701095998E-01 -0.88929351701E-02  0.10203022234E+01  0.10200286052E+01 0.  0.
     999903    2    3    3    0    0 -0.11179125400E+00  0.49678386761E-02  0.63281701528E-01  0.13025517169E+00  0.20973128332E-01 0.  0.
         14    1    1    2    0    0  0.28722745777E-02  0.21701095998E-01  0.88929351701E-02  0.23627776550E-01  0.00000000000E+00 0.  1.
     999901    1    3    3    0    0  0.10891897943E+00 -0.26668934674E-01 -0.72174636698E-01  0.89004705176E+00  0.88000000000E+00 0.  1.
        -11    1    4    4    0    0 -0.62727020588E-01  0.23870635907E-02  0.23478928401E-01  0.67021626243E-01  0.51100000000E-03 0.  1.
         11    1    4    4    0    0 -0.49064233416E-01  0.25807750854E-02  0.39802773127E-01  0.63233545451E-01  0.51100000000E-03 0. -1.
</event>
<event>
 8    1  0.1122848E+005  0.1043930E+01  0.7957747E-01            NaN
         13   -1    0    0    0    0  0.00000000000E+00  0.00000000000E+00  0.74505805969E-08  0.10566000000E+00  0.10566000000E+00 0. -1.
     999900   -1    0    0    0    0 -0.00000000000E+00 -0.00000000000E+00 -0.74505805969E-08  0.93827000000E+00  0.93827000000E+00 0. -1.
     999902    2    1    2    0    0  0.11259451170E-02 -0.12645709274E-01 -0.19207224139E-01  0.10209061173E+01  0.10206464624E+01 0.  0.
     999903    2    3    3    0    0 -0.19750135507E-01 -0.12926371561E+00 -0.12648291447E-01  0.13294294816E+00  0.20363500804E-01 0.  0.
         14    1    1    2    0    0 -0.11259451170E-02  0.12645709274E-01  0.19207224139E-01  0.23023882700E-01  0.00000000000E+00 0. -1.
     999901    1    3    3    0    0  0.20876080624E-01  0.11661800633E+00 -0.65589326919E-02  0.88796316914E+00  0.88000000000E+00 0.  1.
        -11    1    4    4    0    0 -0.21946480692E-01 -0.78110205975E-01 -0.78968093008E-02  0.81519770672E-01  0.51100000000E-03 0.  1.
         11    1    4    4    0    0  0.21963451850E-02 -0.51153509633E-01 -0.47514821460E-02  0.51423177493E-01  0.51100000000E-03 0. -1.
</event>
<event>
 8    1  0.1122848E+005  0.1043930E+01  0.7957747E-01            NaN
         13   -1    0    0    0    0  0.00000000000E+00  0.00000000000E+00  0.74505805969E-08  0.10566000000E+00  0.10566000000E+00 0.  1.
     999900   -1    0    0    0    0 -0.00000000000E+00 -0.00000000000E+00 -0.74505805969E-08  0.93827000000E+00  0.93827000000E+00 0. -1.
     999902    2    1    2    0    0  0.16259742062E-01  0.15508944710E-01  0.70804364065E-02  0.10203707310E+01  0.10200987155E+01 0.  0.
     999903    2    3    3    0    0  0.88796563887E-01  0.90453444845E-01 -0.35636702151E-01  0.13318246315E+00  0.20023448935E-01 0.  0.
         14    1    1    2    0    0 -0.16259742062E-01 -0.15508944710E-01 -0.70804364065E-02  0.23559269039E-01  0.00000000000E+00 0. -1.
     999901    1    3    3    0    0 -0.72536821825E-01 -0.74944500135E-01  0.42717138557E-01  0.88718826781E+00  0.88000000000E+00 0.  1.
        -11    1    4    4    0    0  0.45528098637E-01  0.36880889536E-01 -0.87004762210E-02  0.59236535904E-01  0.51100000000E-03 0. -1.
         11    1    4    4    0    0  0.43268465249E-01  0.53572555309E-01 -0.26936225930E-01  0.73945927242E-01  0.51100000000E-03 0.  1.
</event>
<event>
 8    1  0.1122848E+005  0.1043930E+01  0.7957747E-01            NaN
         13   -1    0    0    0    0  0.00000000000E+00  0.00000000000E+00  0.74505805969E-08  0.10566000000E+00  0.10566000000E+00 0. -1.
     999900   -1    0    0    0    0 -0.00000000000E+00 -0.00000000000E+00 -0.74505805969E-08  0.93827000000E+00  0.93827000000E+00 0. -1.
     999902    2    1    2    0    0 -0.12381163217E-01  0.18178811192E-01  0.86807327038E-02  0.10202843345E+01  0.10200102968E+01 0.  0.
     999903    2    3    3    0    0  0.58675093185E-02  0.62136380270E-01  0.11532608863E+00  0.13256900065E+00  0.19469868921E-01 0.  0.
         14    1    1    2    0    0  0.12381163217E-01 -0.18178811192E-01 -0.86807327038E-02  0.23645665548E-01  0.00000000000E+00 0. -1.
     999901    1    3    3    0    0 -0.18248672535E-01 -0.43957569078E-01 -0.10664535593E+00  0.88771533380E+00  0.88000000000E+00 0. -1.
        -11    1    4    4    0    0  0.72630935213E-02  0.88893748205E-02  0.28175837197E-01  0.30428809292E-01  0.51100000000E-03 0.  1.
         11    1    4    4    0    0 -0.13955842028E-02  0.53247005450E-01  0.87150251432E-01  0.10214019136E+00  0.51100000000E-03 0. -1.
</event>
<event>
 8    1  0.1122848E+005  0.1043930E+01  0.7957747E-01            NaN
         13   -1    0    0    0    0  0.00000000000E+00  0.00000000000E+00  0.74505805969E-08  0.10566000000E+00  0.10566000000E+00 0. -1.
     999900   -1    0    0    0    0 -0.00000000000E+00 -0.00000000000E+00 -0.74505805969E-08  0.93827000000E+00  0.93827000000E+00 0.  1.
     999902    2    1    2    0    0  0.67731107518E-02 -0.19069961839E-01  0.16155969344E-01  0.10180349460E+01  0.10177055554E+01 0.  0.
     999903    2    3    3    0    0  0.11172061461E+00 -0.43716498029E-01 -0.44190529188E-01  0.12940502859E+00  0.20005764801E-01 0.  0.
         14    1    1    2    0    0 -0.67731107518E-02  0.19069961839E-01 -0.16155969344E-01  0.25895053953E-01  0.00000000000E+00 0.  1.
     999901    1    3    3    0    0 -0.10494750386E+00  0.24646536191E-01  0.60346498532E-01  0.88862991746E+00  0.88000000000E+00 0. -1.
        -11    1    4    4    0    0  0.62670364481E-01 -0.17772947714E-01 -0.15617518076E-01  0.66989702541E-01  0.51100000000E-03 0. -1.
         11    1    4    4    0    0  0.49050250132E-01 -0.25943550316E-01 -0.28573011112E-01  0.62415326050E-01  0.51100000000E-03 0.  1.
</event>
<event>
 8    1  0.1122848E+005  0.1043930E+01  0.7957747E-01            NaN
         13   -1    0    0    0    0  0.00000000000E+00  0.00000000000E+00  0.74505805969E-08  0.10566000000E+00  0.10566000000E+00 0. -1.
     999900   -1    0    0    0    0 -0.00000000000E+00 -0.00000000000E+00 -0.74505805969E-08  0.93827000000E+00  0.93827000000E+00 0. -1.
     999902    2    1    2    0    0 -0.15767565724E-02  0.27236988812E-02 -0.23438610460E-01  0.10202810432E+01  0.10200069284E+01 0.  0.
     999903    2    3    3    0    0  0.71018936097E-01 -0.62692762238E-01 -0.90120550309E-01  0.13236442039E+00  0.20604719746E-01 0.  0.
         14    1    1    2    0    0  0.15767565724E-02 -0.27236988812E-02  0.23438610460E-01  0.23648956789E-01  0.00000000000E+00 0. -1.
     999901    1    3    3    0    0 -0.72595692669E-01  0.65416461120E-01  0.66681939849E-01  0.88791662282E+00  0.88000000000E+00 0. -1.
        -11    1    4    4    0    0  0.22398915124E-01 -0.80735365618E-02 -0.21540572720E-01  0.32111536641E-01  0.51100000000E-03 0.  1.
         11    1    4    4    0    0  0.48620020973E-01 -0.54619225677E-01 -0.68579977589E-01  0.10025288375E+00  0.51100000000E-03 0. -1.
</event>
<event>
 7    1  0.1122848E+005  0.1043930E+01  0.7957747E-01            NaN
         13   -1    0    0    0    0  0.00000000000E+00  0.00000000000E+00  0.74505805969E-08  0.10566000000E+00  0.10566000000E+00 0. -1.
     999900   -1    0    0    0    0 -0.00000000000E+00 -0.00000000000E+00 -0.74505805969E-08  0.93827000000E+00  0.93827000000E+00 0.  1.
     999903    2    1    2    0    0  0.40449640829E-01 -0.88993399782E-01  0.29962042650E-01  0.10420023480E+00  0.20098912535E-01 0.  0.
         14    1    1    2    0    0 -0.26156371739E-01  0.26858197007E-01  0.39790776441E-01  0.54670141931E-01  0.00000000000E+00 0. -1.
     999901    1    1    2    0    0 -0.14293269090E-01  0.62135202776E-01 -0.69752819091E-01  0.88505962327E+00  0.88000000000E+00 0.  1.
        -11    1    3    3    0    0  0.15864877176E-01 -0.18722269264E-01  0.13268872235E-01  0.27902361649E-01  0.51100000000E-03 0. -1.
         11    1    3    3    0    0  0.24584763653E-01 -0.70271130519E-01  0.16693170415E-01  0.76297873154E-01  0.51100000000E-03 0.  1.
</event>
<event>
 8    1  0.1122848E+005  0.1043930E+01  0.7957747E-01            NaN
         13   -1    0    0    0    0  0.00000000000E+00  0.00000000000E+00  0.74505805969E-08  0.10566000000E+00  0.10566000000E+00 0.  1.
     999900   -1    0    0    0    0 -0.00000000000E+00 -0.00000000000E+00 -0.74505805969E-08  0.93827000000E+00  0.93827000000E+00 0. -1.
     999902    2    1    2    0    0  0.23387928069E-01  0.31924865629E-02 -0.56410290524E-03  0.10203184485E+01  0.10200452103E+01 0.  0.
     999903    2    3    3    0    0 -0.48581159647E-01 -0.11800022059E+00  0.56390092029E-02  0.12908015244E+00  0.18593176087E-01 0.  0.
         14    1    1    2    0    0 -0.23387928069E-01 -0.31924865629E-02  0.56410290524E-03  0.23611551451E-01  0.00000000000E+00 0.  1.
     999901    1    3    3    0    0  0.71969087717E-01  0.12119270715E+00 -0.62031121081E-02  0.89123829611E+00  0.88000000000E+00 0. -1.
        -11    1    4    4    0    0 -0.32511863421E-01 -0.80406184578E-01 -0.48537085252E-02  0.86867688981E-01  0.51100000000E-03 0.  1.
         11    1    4    4    0    0 -0.16069296227E-01 -0.37594036011E-01  0.10492717728E-01  0.42212463458E-01  0.51100000000E-03 0. -1.
</event>
<event>
 8    1  0.1122848E+005  0.1043930E+01  0.7957747E-01            NaN
         13   -1    0    0    0    0  0.00000000000E+00  0.00000000000E+00  0.74505805969E-08  0.10566000000E+00  0.10566000000E+00 0.  1.
     999900   -1    0    0    0    0 -0.00000000000E+00 -0.00000000000E+00 -0.74505805969E-08  0.93827000000E+00  0.93827000000E+00 0. -1.
     999902    2    1    2    0    0 -0.25536047223E-02 -0.16493927605E-01 -0.15456494722E-01  0.10211819501E+01  0.10209285486E+01 0.  0.
     999903    2    3    3    0    0 -0.30733268116E-01  0.83344843576E-01 -0.95560176839E-01  0.13147499074E+00  0.16218171041E-01 0.  0.
         14    1    1    2    0    0  0.25536047223E-02  0.16493927605E-01  0.15456494722E-01  0.22748049894E-01  0.00000000000E+00 0.  1.
     999901    1    3    3    0    0  0.28179663394E-01 -0.99838771182E-01  0.80103682118E-01  0.88970695937E+00  0.88000000000E+00 0. -1.
        -11    1    4    4    0    0 -0.19930600931E-01  0.43881049730E-01 -0.41012493494E-01  0.63285552242E-01  0.51100000000E-03 0.  1.
         11    1    4    4    0    0 -0.10802667185E-01  0.39463793846E-01 -0.54547683345E-01  0.68189438495E-01  0.51100000000E-03 0. -1.
</event>
<event>
 8    1  0.1122848E+005  0.1043930E+01  0.7957747E-01            NaN
         13   -1    0    0    0    0  0.00000000000E+00  0.00000000000E+00  0.74505805969E-08  0.10566000000E+00  0.10566000000E+00 0. -1.
     999900   -1    0    0    0    0 -0.00000000000E+00 -0.00000000000E+00 -0.74505805969E-08  0.93827000000E+00  0.93827000000E+00 0. -1.
     999902    2    1    2    0    0 -0.19653526288E-01 -0.20527733885E-02 -0.95263995126E-02  0.10219931073E+01  0.10217576445E+01 0.  0.
     999903    2    3    3    0    0 -0.12972059720E+00 -0.19635847813E-01  0.21159788192E-01  0.13443152254E+00  0.20275545851E-01 0.  0.
         14    1    1    2    0    0  0.19653526288E-01  0.20527733885E-02  0.95263995126E-02  0.21936892711E-01  0.00000000000E+00 0. -1.
     999901    1    3    3    0    0  0.11006707091E+00  0.17583074424E-01 -0.30686187704E-01  0.88756158475E+00  0.88000000000E+00 0. -1.
        -11    1    4    4    0    0 -0.26791955709E-01 -0.12527189530E-01  0.48304887695E-02  0.29972222323E-01  0.51100000000E-03 0. -1.
         11    1    4    4    0    0 -0.10292864149E+00 -0.71086582831E-02  0.16329299422E-01  0.10445930022E+00  0.51100000000E-03 0.  1.
</event>
<event>
 8    1  0.1122848E+005  0.1043930E+01  0.7957747E-01            NaN
         13   -1    0    0    0    0  0.00000000000E+00  0.00000000000E+00  0.74505805969E-08  0.10566000000E+00  0.10566000000E+00 0. -1.
     999900   -1    0    0    0    0 -0.00000000000E+00 -0.00000000000E+00 -0.74505805969E-08  0.93827000000E+00  0.93827000000E+00 0.  1.
     999902    2    1    2    0    0 -0.20397974996E-01  0.61364239784E-02 -0.67982830975E-02  0.10215704442E+01  0.10213257182E+01 0.  0.
     999903    2    3    3    0    0 -0.78770170770E-01 -0.28914352957E-01 -0.10229693286E+00  0.13378901708E+00  0.19850919622E-01 0.  0.
         14    1    1    2    0    0  0.20397974996E-01 -0.61364239784E-02  0.67982830975E-02  0.22359555816E-01  0.00000000000E+00 0.  1.
     999901    1    3    3    0    0  0.58372195774E-01  0.35050776936E-01  0.95498649758E-01  0.88778142710E+00  0.88000000000E+00 0. -1.
        -11    1    4    4    0    0 -0.66823551329E-01 -0.20356236087E-01 -0.73180849464E-01  0.10117045621E+00  0.51100000000E-03 0.  1.
         11    1    4    4    0    0 -0.11946619441E-01 -0.85581168703E-02 -0.29116083392E-01  0.32618560875E-01  0.51100000000E-03 0. -1.
</event>
<event>
 8    1  0.1122848E+005  0.1043930E+01  0.7957747E-01            NaN
         13   -1    0    0    0    0  0.00000000000E+00  0.00000000000E+00  0.74505805969E-08  0.10566000000E+00  0.10566000000E+00 0.  1.
     999900   -1    0    0    0    0 -0.00000000000E+00 -0.00000000000E+00 -0.74505805969E-08  0.93827000000E+00  0.93827000000E+00 0.  1.
     999902    2    1    2    0    0  0.13179631642E-01 -0.64313909048E-02  0.18649343951E-01  0.10202052553E+01  0.10199293601E+01 0.  0.
     999903    2    3    3    0    0 -0.79980470443E-01  0.92028755494E-01 -0.34264850788E-01  0.12825620015E+00  0.20233768516E-01 0.  0.
         14    1    1    2    0    0 -0.13179631642E-01  0.64313909048E-02 -0.18649343951E-01  0.23724744656E-01  0.00000000000E+00 0. -1.
     999901    1    3    3    0    0  0.93160102086E-01 -0.98460146398E-01  0.52914194739E-01  0.89194905519E+00  0.88000000000E+00 0.  1.
        -11    1    4    4    0    0 -0.24496850955E-01  0.26577003323E-01 -0.19876377994E-01  0.41252446419E-01  0.51100000000E-03 0.  1.
         11    1    4    4    0    0 -0.55483619488E-01  0.65451752170E-01 -0.14388472794E-01  0.87003753735E-01  0.51100000000E-03 0. -1.
</event>
<event>
 8    1  0.1122848E+005  0.1043930E+01  0.7957747E-01            NaN
         13   -1    0    0    0    0  0.00000000000E+00  0.00000000000E+00  0.74505805969E-08  0.10566000000E+00  0.10566000000E+00 0. -1.
     999900   -1    0    0    0    0 -0.00000000000E+00 -0.00000000000E+00 -0.74505805969E-08  0.93827000000E+00  0.93827000000E+00 0.  1.
     999902    2    1    2    0    0 -0.38384673108E-02 -0.21667423166E-01 -0.90006700149E-02  0.10201555785E+01  0.10198785130E+01 0.  0.
     999903    2    3    3    0    0 -0.54294895109E-01 -0.11881421697E+00 -0.19454430748E-01  0.13331138034E+00  0.18129960430E-01 0.  0.
         14    1    1    2    0    0  0.38384673108E-02  0.21667423166E-01  0.90006700149E-02  0.23774421521E-01  0.00000000000E+00 0. -1.
     999901    1    3    3    0    0  0.50456427798E-01  0.97146793800E-01  0.10453760733E-01  0.88684419813E+00  0.88000000000E+00 0. -1.
        -11    1    4    4    0    0 -0.42280761795E-01 -0.10683807943E+00 -0.17540814564E-01  0.11623243666E+00  0.51100000000E-03 0. -1.
         11    1    4    4    0    0 -0.12014133315E-01 -0.11976137532E-01 -0.19136161842E-02  0.17078943685E-01  0.51100000000E-03 0.  1.
</event>
<event>
 8    1  0.1122848E+005  0.1043930E+01  0.7957747E-01            NaN
         13   -1    0    0    0    0  0.00000000000E+00  0.00000000000E+00  0.74505805969E-08  0.10566000000E+00  0.10566000000E+00 0.  1.
     999900   -1    0    0    0    0 -0.00000000000E+00 -0.00000000000E+00 -0.74505805969E-08  0.93827000000E+00  0.93827000000E+00 0.  1.
     999902    2    1    2    0    0 -0.54685963099E-02 -0.10086234799E-01 -0.20398189151E-01  0.10205265003E+01  0.10202581115E+01 0.  0.
     999903    2    3    3    0    0  0.55179838586E-01 -0.10025985670E+00  0.58959717230E-01  0.13029777011E+00  0.20109877851E-01 0.  0.
         14    1    1    2    0    0  0.54685963099E-02  0.10086234799E-01  0.20398189151E-01  0.23403499709E-01  0.00000000000E+00 0.  1.
     999901    1    3    3    0    0 -0.60648434896E-01  0.90173621899E-01 -0.79357906380E-01  0.89022873018E+00  0.88000000000E+00 0.  1.
        -11    1    4    4    0    0  0.16345837319E-01 -0.50443745192E-01  0.26815180152E-01  0.59422830918E-01  0.51100000000E-03 0.  1.
         11    1    4    4    0    0  0.38834001267E-01 -0.49816111506E-01  0.32144537077E-01  0.70874939188E-01  0.51100000000E-03 0. -1.
</event>
<event>
 8    1  0.1122848E+005  0.1043930E+01  0.7957747E-01            NaN
         13   -1    0    0    0    0  0.00000000000E+00  0.00000000000E+00  0.74505805969E-08  0.10566000000E+00  0.10566000000E+00 0.  1.
     999900   -1    0    0    0    0 -0.00000000000E+00 -0.00000000000E+00 -0.74505805969E-08  0.93827000000E+00  0.93827000000E+00 0. -1.
     999902    2    1    2    0    0  0.11500692809E-01 -0.15251543529E-01 -0.14863423876E-01  0.10197267588E+01  0.10194394861E+01 0.  0.
     999903    2    3    3    0    0  0.10090659442E+00  0.65682416738E-01 -0.47211065466E-01  0.13091289129E+00  0.20321902910E-01 0.  0.
         14    1    1    2    0    0 -0.11500692809E-01  0.15251543529E-01  0.14863423876E-01  0.24203241197E-01  0.00000000000E+00 0.  1.
     999901    1    3    3    0    0 -0.89405901609E-01 -0.80933960267E-01  0.32347641590E-01  0.88881386751E+00  0.88000000000E+00 0. -1.
        -11    1    4    4    0    0  0.45993393858E-01  0.22661527354E-01 -0.11526285094E-01  0.52555242076E-01  0.51100000000E-03 0. -1.
         11    1    4    4    0    0  0.54913200560E-01  0.43020889384E-01 -0.35684780372E-01  0.78357649214E-01  0.51100000000E-03 0.  1.
</event>
<event>
 8    1  0.1122848E+005  0.1043930E+01  0.7957747E-01            NaN
         13   -1    0    0    0    0  0.00000000000E+00  0.00000000000E+00  0.74505805969E-08  0.10566000000E+00  0.10566000000E+00 0. -1.
     999900   -1    0    0    0    0 -0.00000000000E+00 -0.00000000000E+00 -0.74505805969E-08  0.93827000000E+00  0.93827000000E+00 0. -1.
     999902    2    1    2    0    0 -0.17199274802E-01 -0.15996216496E-01  0.25728838252E-02  0.10203013367E+01  0.10200276977E+01 0.  0.
     999903    2    3    3    0    0 -0.73728990073E-01 -0.93625887334E-01 -0.56039502103E-01  0.13313878891E+00  0.19589297074E-01 0.  0.
         14    1    1    2    0    0  0.17199274802E-01  0.15996216496E-01 -0.25728838252E-02  0.23628663252E-01  0.00000000000E+00 0. -1.
     999901    1    3    3    0    0  0.56529715271E-01  0.77629670838E-01  0.58612385929E-01  0.88716254784E+00  0.88000000000E+00 0.  1.
        -11    1    4    4    0    0 -0.24463402316E-01 -0.39609549053E-01 -0.13161718816E-01  0.48382500888E-01  0.51100000000E-03 0.  1.
         11    1    4    4    0    0 -0.49265587758E-01 -0.54016338282E-01 -0.42877783287E-01  0.84756288021E-01  0.51100000000E-03 0. -1.
</event>
<event>
 7    1  0.1122848E+005  0.1043930E+01  0.7957747E-01            NaN
         13   -1    0    0    0    0  0.00000000000E+00  0.00000000000E+00  0.74505805969E-08  0.10566000000E+00  0.10566000000E+00 0.  1.
     999900   -1    0    0    0    0 -0.00000000000E+00 -0.00000000000E+00 -0.74505805969E-08  0.93827000000E+00  0.93827000000E+00 0. -1.
     999903    2    1    2    0    0 -0.76693764281E-01 -0.22300419258E-01  0.19325985531E-01  0.84598123750E-01  0.20102403997E-01 0.  0.
         14    1    1    2    0    0 -0.25479921606E-01  0.66612724794E-01 -0.11745629855E-01  0.72280296971E-01  0.00000000000E+00 0.  1.
     999901    1    1    2    0    0  0.10217368589E+00 -0.44312305536E-01 -0.75803556761E-02  0.88705157928E+00  0.88000000000E+00 0. -1.
        -11    1    3    3    0    0 -0.21406893291E-01  0.28603104809E-02  0.57287977116E-02  0.22349870260E-01  0.51100000000E-03 0. -1.
         11    1    3    3    0    0 -0.55286870990E-01 -0.25160729739E-01  0.13597187820E-01  0.62248253489E-01  0.51100000000E-03 0.  1.
</event>
<event>
 8    1  0.1122848E+005  0.1043930E+01  0.7957747E-01            NaN
         13   -1    0    0    0    0  0.00000000000E+00  0.00000000000E+00  0.74505805969E-08  0.10566000000E+00  0.10566000000E+00 0. -1.
     999900   -1    0    0    0    0 -0.00000000000E+00 -0.00000000000E+00 -0.74505805969E-08  0.93827000000E+00  0.93827000000E+00 0.  1.
     999902    2    1    2    0    0  0.20285424481E-01 -0.62384495615E-02 -0.11219563332E-01  0.10199238487E+01  0.10196412908E+01 0.  0.
     999903    2    3    3    0    0  0.89380293781E-01  0.42711898579E-01  0.83009405550E-01  0.13085167157E+00  0.20456181156E-01 0.  0.
         14    1    1    2    0    0 -0.20285424481E-01  0.62384495615E-02  0.11219563332E-01  0.24006151309E-01  0.00000000000E+00 0. -1.
     999901    1    3    3    0    0 -0.69094869300E-01 -0.48950348140E-01 -0.94228968882E-01  0.88907217712E+00  0.88000000000E+00 0.  1.
        -11    1    4    4    0    0  0.49116820824E-01  0.22091732144E-01  0.31901948538E-01  0.62597940529E-01  0.51100000000E-03 0.  1.
         11    1    4    4    0    0  0.40263472957E-01  0.20620166434E-01  0.51107457012E-01  0.68253731045E-01  0.51100000000E-03 0. -1.
</event>
<event>
 8    1  0.1122848E+005  0.1043930E+01  0.7957747E-01            NaN
         13   -1    0    0    0    0  0.00000000000E+00  0.00000000000E+00  0.74505805969E-08  0.10566000000E+00  0.10566000000E+00 0.  1.
     999900   -1    0    0    0    0 -0.00000000000E+00 -0.00000000000E+00 -0.74505805969E-08  0.93827000000E+00  0.93827000000E+00 0.  1.
     999902    2    1    2    0    0  0.11329602370E-01 -0.78691083385E-02  0.23044804295E-01  0.10170721192E+01  0.10167174386E+01 0.  0.
     999903    2    3    3    0    0  0.70087339855E-01  0.10241377904E+00  0.25214180176E-01  0.12824171178E+00  0.20232755964E-01 0.  0.
         14    1    1    2    0    0 -0.11329602370E-01  0.78691083385E-02 -0.23044804295E-01  0.26857880797E-01  0.00000000000E+00 0. -1.
     999901    1    3    3    0    0 -0.58757737484E-01 -0.11028288738E+00 -0.21693758814E-02  0.88883040742E+00  0.88000000000E+00 0.  1.
        -11    1    4    4    0    0  0.26623406264E-01  0.54912600168E-01  0.76812194403E-02  0.61509850198E-01  0.51100000000E-03 0.  1.
         11    1    4    4    0    0  0.43463933591E-01  0.47501178873E-01  0.17532960736E-01  0.66731861585E-01  0.51100000000E-03 0. -1.
</event>
<event>
 8    1  0.1122848E+005  0.1043930E+01  0.7957747E-01            NaN
         13   -1    0    0    0    0  0.00000000000E+00  0.00000000000E+00  0.74505805969E-08  0.10566000000E+00  0.10566000000E+00 0.  1.
     999900   -1    0    0    0    0 -0.00000000000E+00 -0.00000000000E+00 -0.74505805969E-08  0.93827000000E+00  0.93827000000E+00 0.  1.
     999902    2    1    2    0    0  0.20168488110E-01 -0.73928897488E-02  0.53976849288E-02  0.10217814620E+01  0.10215413836E+01 0.  0.
     999903    2    3    3    0    0 -0.34718512455E-01  0.40610311288E-01  0.11825868127E+00  0.13158233002E+00  0.21776624786E-01 0.  0.
         14    1    1    2    0    0 -0.20168488110E-01  0.73928897488E-02 -0.53976849288E-02  0.22148537967E-01  0.00000000000E+00 0.  1.
     999901    1    3    3    0    0  0.54887000565E-01 -0.48003201037E-01 -0.11286099634E+00  0.89019913201E+00  0.88000000000E+00 0.  1.
        -11    1    4    4    0    0 -0.81644717578E-02  0.16188353733E-01  0.20469621875E-01  0.27349368117E-01  0.51100000000E-03 0. -1.
         11    1    4    4    0    0 -0.26554040697E-01  0.24421957554E-01  0.97789059398E-01  0.10423296190E+00  0.51100000000E-03 0.  1.
</event>
<event>
 8    1  0.1122848E+005  0.1043930E+01  0.7957747E-01            NaN
         13   -1    0    0    0    0  0.00000000000E+00  0.00000000000E+00  0.74505805969E-08  0.10566000000E+00  0.10566000000E+00 0. -1.
     999900   -1    0    0    0    0 -0.00000000000E+00 -0.00000000000E+00 -0.74505805969E-08  0.93827000000E+00  0.93827000000E+00 0. -1.
     999902    2    1    2    0    0  0.41443348373E-02  0.17561260608E-01  0.81945555387E-02  0.10241127316E+01  0.10239209750E+01 0.  0.
     999903    2    3    3    0    0  0.73077486917E-01  0.28638320351E-01 -0.10668615477E+00  0.13390373464E+00  0.19692690163E-01 0.  0.
         14    1    1    2    0    0 -0.41443348373E-02 -0.17561260608E-01 -0.81945555387E-02  0.19817268376E-01  0.00000000000E+00 0.  1.
     999901    1    3    3    0    0 -0.68933152079E-01 -0.11077059743E-01  0.11488071030E+00  0.89020899698E+00  0.88000000000E+00 0.  1.
        -11    1    4    4    0    0  0.57617129622E-01  0.23821168524E-01 -0.69658019156E-01  0.93486268775E-01  0.51100000000E-03 0. -1.
         11    1    4    4    0    0  0.15460357295E-01  0.48171518268E-02 -0.37028135610E-01  0.40417465867E-01  0.51100000000E-03 0.  1.
</event>
<event>
 8    1  0.1122848E+005  0.1043930E+01  0.7957747E-01            NaN
         13   -1    0    0    0    0  0.00000000000E+00  0.00000000000E+00  0.74505805969E-08  0.10566000000E+00  0.10566000000E+00 0. -1.
     999900   -1    0    0    0    0 -0.00000000000E+00 -0.00000000000E+00 -0.74505805969E-08  0.93827000000E+00  0.93827000000E+00 0. -1.
     999902    2    1    2    0    0 -0.19794259185E-01 -0.18453478348E-01 -0.61351556694E-02  0.10161814199E+01  0.10158024880E+01 0.  0.
     999903    2    3    3    0    0 -0.12261276070E+00  0.12421444193E-01  0.32414398281E-01  0.12881961482E+00  0.18857852014E-01 0.  0.
         14    1    1    2    0    0  0.19794259185E-01  0.18453478348E-01  0.61351556694E-02  0.27748580052E-01  0.00000000000E+00 0. -1.
     999901    1    3    3    0    0  0.10281850152E+00 -0.30874922541E-01 -0.38549553951E-01  0.88736180513E+00  0.88000000000E+00 0.  1.
        -11    1    4    4    0    0 -0.24597864908E-01  0.40797642069E-02  0.14447617099E-01  0.28821765991E-01  0.51100000000E-03 0. -1.
         11    1    4    4    0    0 -0.98014895795E-01  0.83416799857E-02  0.17966781183E-01  0.99997848826E-01  0.51100000000E-03 0.  1.
</event>
<event>
 8    1  0.1122848E+005  0.1043930E+01  0.7957747E-01            NaN
         13   -1    0    0    0    0  0.00000000000E+00  0.00000000000E+00  0.74505805969E-08  0.10566000000E+00  0.10566000000E+00 0. -1.
     999900   -1    0    0    0    0 -0.00000000000E+00 -0.00000000000E+00 -0.74505805969E-08  0.93827000000E+00  0.93827000000E+00 0.  1.
     999902    2    1    2    0    0 -0.16195307758E-01 -0.12719038249E-01  0.11912036072E-01  0.10201401171E+01  0.10198626868E+01 0.  0.
     999903    2    3    3    0    0  0.94259655612E-01 -0.74878088755E-01  0.45992143366E-01  0.13040672990E+00  0.19975662714E-01 0.  0.
         14    1    1    2    0    0  0.16195307758E-01  0.12719038249E-01 -0.11912036072E-01  0.23789882949E-01  0.00000000000E+00 0.  1.
     999901    1    3    3    0    0 -0.11045496337E+00  0.62159050506E-01 -0.34080107295E-01  0.88973338715E+00  0.88000000000E+00 0.  1.
        -11    1    4    4    0    0  0.34311471040E-01 -0.21853057472E-01  0.66445016246E-02  0.41221883614E-01  0.51100000000E-03 0.  1.
         11    1    4    4    0    0  0.59948184572E-01 -0.53025031283E-01  0.39347641742E-01  0.89184846289E-01  0.51100000000E-03 0. -1.
</event>
<event>
 8    1  0.1122848E+005  0.1043930E+01  0.7957747E-01            NaN
         13   -1    0    0    0    0  0.00000000000E+00  0.00000000000E+00  0.74505805969E-08  0.10566000000E+00  0.10566000000E+00 0. -1.
     999900   -1    0    0    0    0 -0.00000000000E+00 -0.00000000000E+00 -0.74505805969E-08  0.93827000000E+00  0.93827000000E+00 0.  1.
     999902    2    1    2    0    0  0.18941806274E-01 -0.11146260692E-01 -0.86009728366E-02  0.10203289855E+01  0.10200559939E+01 0.  0.
     999903    2    3    3    0    0 -0.14860827199E-01 -0.93144467912E-01 -0.90276562795E-01  0.13210760204E+00  0.20145089697E-01 0.  0.
         14    1    1    2    0    0 -0.18941806274E-01  0.11146260692E-01  0.86009728366E-02  0.23601014514E-01  0.00000000000E+00 0. -1.
     999901    1    3    3    0    0  0.33802633473E-01  0.81998207220E-01  0.81675589958E-01  0.88822138345E+00  0.88000000000E+00 0. -1.
        -11    1    4    4    0    0 -0.36920531279E-02 -0.68010157111E-01 -0.71814741773E-01  0.98977931801E-01  0.51100000000E-03 0.  1.
         11    1    4    4    0    0 -0.11168774072E-01 -0.25134310801E-01 -0.18461821021E-01  0.33129670239E-01  0.51100000000E-03 0. -1.
</event>
<event>
 8    1  0.1122848E+005  0.1043930E+01  0.7957747E-01            NaN
         13   -1    0    0    0    0  0.00000000000E+00  0.00000000000E+00  0.74505805969E-08  0.10566000000E+00  0.10566000000E+00 0.  1.
     999900   -1    0    0    0    0 -0.00000000000E+00 -0.00000000000E+00 -0.74505805969E-08  0.93827000000E+00  0.93827000000E+00 0.  1.
     999902    2    1    2    0    0  0.22142910261E-01  0.45018533738E-02  0.74615717899E-02  0.10201339875E+01  0.10198564125E+01 0.  0.
     999903    2    3    3    0    0  0.82090252181E-01  0.76481195321E-02 -0.10039077557E+00  0.13151949759E+00  0.20536971348E-01 0.  0.
         14    1    1    2    0    0 -0.22142910261E-01 -0.45018533738E-02 -0.74615717899E-02  0.23796012527E-01  0.00000000000E+00 0. -1.
     999901    1    3    3    0    0 -0.59947341921E-01 -0.31462661583E-02  0.10785234736E+00  0.88861448988E+00  0.88000000000E+00 0. -1.
        -11    1    4    4    0    0  0.57797856272E-01 -0.32879259973E-02 -0.62446656108E-01  0.85154263704E-01  0.51100000000E-03 0. -1.
         11    1    4    4    0    0  0.24292395910E-01  0.10936045529E-01 -0.37944119461E-01  0.46365233888E-01  0.51100000000E-03 0.  1.
</event>
<event>
 8    1  0.1122848E+005  0.1043930E+01  0.7957747E-01            NaN
         13   -1    0    0    0    0  0.00000000000E+00  0.00000000000E+00  0.74505805969E-08  0.10566000000E+00  0.10566000000E+00 0. -1.
     999900   -1    0    0    0    0 -0.00000000000E+00 -0.00000000000E+00 -0.74505805969E-08  0.93827000000E+00  0.93827000000E+00 0. -1.
     999902    2    1    2    0    0 -0.22393255684E-02  0.25303467376E-01  0.57620452213E-02  0.10178823282E+01  0.10175489929E+01 0.  0.
     999903    2    3    3    0    0 -0.78898217667E-01 -0.81331300006E-01  0.53361537225E-01  0.12686421898E+00  0.20183341888E-01 0.  0.
         14    1    1    2    0    0  0.22393255684E-02 -0.25303467376E-01 -0.57620452213E-02  0.26047671785E-01  0.00000000000E+00 0. -1.
     999901    1    3    3    0    0  0.76658892099E-01  0.10663476738E+00 -0.47599492004E-01  0.89101810924E+00  0.88000000000E+00 0. -1.
        -11    1    4    4    0    0 -0.42275139890E-01 -0.31346442897E-01  0.18656786478E-01  0.55840162408E-01  0.51100000000E-03 0. -1.
         11    1    4    4    0    0 -0.36623077777E-01 -0.49984857109E-01  0.34704750747E-01  0.71024056569E-01  0.51100000000E-03 0.  1.
</event>
<event>
 8    1  0.1122848E+005  0.1043930E+01  0.7957747E-01            NaN
         13   -1    0    0    0    0  0.00000000000E+00  0.00000000000E+00  0.74505805969E-08  0.10566000000E+00  0.10566000000E+00 0. -1.
     999900   -1    0    0    0    0 -0.00000000000E+00 -0.00000000000E+00 -0.74505805969E-08  0.93827000000E+00  0.93827000000E+00 0.  1.
     999902    2    1    2    0    0  0.21230333969E-02  0.73107174971E-02 -0.23768838487E-01  0.10189718041E+01  0.10186661013E+01 0.  0.
     999903    2    3    3    0    0 -0.12047524908E+00  0.40267214678E-01  0.12208592066E-01  0.12913426548E+00  0.19770548366E-01 0.  0.
         14    1    1    2    0    0 -0.21230333969E-02 -0.73107174971E-02  0.23768838487E-01  0.24958195932E-01  0.00000000000E+00 0. -1.
     999901    1    3    3    0    0  0.12259828247E+00 -0.32956497181E-01 -0.35977430553E-01  0.88983753859E+00  0.88000000000E+00 0.  1.
        -11    1    4    4    0    0 -0.40861525479E-01  0.46059561957E-02  0.59816392510E-03  0.41127825351E-01  0.51100000000E-03 0.  1.
         11    1    4    4    0    0 -0.79613723598E-01  0.35661258482E-01  0.11610428141E-01  0.88006440129E-01  0.51100000000E-03 0. -1.
</event>
<event>
 8    1  0.1122848E+005  0.1043930E+01  0.7957747E-01            NaN
         13   -1    0    0    0    0  0.00000000000E+00  0.00000000000E+00  0.74505805969E-08  0.10566000000E+00  0.10566000000E+00 0.  1.
     999900   -1    0    0    0    0 -0.00000000000E+00 -0.00000000000E+00 -0.74505805969E-08  0.93827000000E+00  0.93827000000E+00 0. -1.
     999902    2    1    2    0    0  0.13577692951E-01 -0.74177741037E-02 -0.16699251513E-01  0.10211650682E+01  0.10209112863E+01 0.  0.
     999903    2    3    3    0    0 -0.11198800424E+00 -0.61492041592E-01 -0.19986518125E-01  0.13060256235E+00  0.18302571225E-01 0.  0.
         14    1    1    2    0    0 -0.13577692951E-01  0.74177741037E-02  0.16699251513E-01  0.22764931794E-01  0.00000000000E+00 0.  1.
     999901    1    3    3    0    0  0.12556569719E+00  0.54074267489E-01  0.32872666128E-02  0.89056250586E+00  0.88000000000E+00 0.  1.
        -11    1    4    4    0    0 -0.50398089245E-01 -0.17937443267E-01 -0.54001491584E-02  0.53769340729E-01  0.51100000000E-03 0. -1.
         11    1    4    4    0    0 -0.61589914992E-01 -0.43554598326E-01 -0.14586368967E-01  0.76833221621E-01  0.51100000000E-03 0.  1.
</event>
<event>
 8    1  0.1122848E+005  0.1043930E+01  0.7957747E-01            NaN
         13   -1    0    0    0    0  0.00000000000E+00  0.00000000000E+00  0.74505805969E-08  0.10566000000E+00  0.10566000000E+00 0. -1.
     999900   -1    0    0    0    0 -0.00000000000E+00 -0.00000000000E+00 -0.74505805969E-08  0.93827000000E+00  0.93827000000E+00 0. -1.
     999902    2    1    2    0    0 -0.98013373484E-02  0.59612026832E-02 -0.20809352501E-01  0.10201680282E+01  0.10198912562E+01 0.  0.
     999903    2    3    3    0    0  0.11524095143E+00 -0.33018335920E-01 -0.46428230231E-01  0.13010549935E+00  0.20029303670E-01 0.  0.
         14    1    1    2    0    0  0.98013373484E-02 -0.59612026832E-02  0.20809352501E-01  0.23761971778E-01  0.00000000000E+00 0. -1.
     999901    1    3    3    0    0 -0.12504228877E+00  0.38979538603E-01  0.25618877729E-01  0.89006252888E+00  0.88000000000E+00 0.  1.
        -11    1    4    4    0    0  0.20820714844E-01 -0.13521732941E-01 -0.13233401243E-01  0.28137580880E-01  0.51100000000E-03 0.  1.
         11    1    4    4    0    0  0.94420236582E-01 -0.19496602980E-01 -0.33194828988E-01  0.10196791847E+00  0.51100000000E-03 0. -1.
</event>
<event>
 8    1  0.1122848E+005  0.1043930E+01  0.7957747E-01            NaN
         13   -1    0    0    0    0  0.00000000000E+00  0.00000000000E+00  0.74505805969E-08  0.10566000000E+00  0.10566000000E+00 0. -1.
     999900   -1    0    0    0    0 -0.00000000000E+00 -0.00000000000E+00 -0.74505805969E-08  0.93827000000E+00  0.93827000000E+00 0. -1.
     999902    2    1    2    0    0  0.11064742915E-01 -0.17913141206E-01  0.12615578989E-01  0.10193848987E+01  0.10190893532E+01 0.  0.
     999903    2    3    3    0    0  0.91262567755E-01 -0.69354516128E-01  0.64060040945E-01  0.13274831092E+00  0.19481273701E-01 0.  0.
         14    1    1    2    0    0 -0.11064742915E-01  0.17913141206E-01 -0.12615578989E-01  0.24545101280E-01  0.00000000000E+00 0. -1.
     999901    1    3    3    0    0 -0.80197824841E-01  0.51441374922E-01 -0.51444461956E-01  0.88663658780E+00  0.88000000000E+00 0.  1.
        -11    1    4    4    0    0  0.35560986081E-01 -0.27622807822E-01  0.36197217377E-01  0.57776317898E-01  0.51100000000E-03 0.  1.
         11    1    4    4    0    0  0.55701581674E-01 -0.41731708306E-01  0.27862823567E-01  0.74971993019E-01  0.51100000000E-03 0. -1.
</event>
<event>
 8    1  0.1122848E+005  0.1043930E+01  0.7957747E-01            NaN
         13   -1    0    0    0    0  0.00000000000E+00  0.00000000000E+00  0.74505805969E-08  0.10566000000E+00  0.10566000000E+00 0. -1.
     999900   -1    0    0    0    0 -0.00000000000E+00 -0.00000000000E+00 -0.74505805969E-08  0.93827000000E+00  0.93827000000E+00 0. -1.
     999902    2    1    2    0    0 -0.80492819372E-02 -0.81808632297E-02 -0.19692803037E-01  0.10211369319E+01  0.10208825151E+01 0.  0.
     999903    2    3    3    0    0 -0.38521143928E-01 -0.11972852183E+00 -0.39446970508E-01  0.13335224985E+00  0.20198059044E-01 0.  0.
         14    1    1    2    0    0  0.80492819372E-02  0.81808632297E-02  0.19692803037E-01  0.22793068120E-01  0.00000000000E+00 0. -1.
     999901    1    3    3    0    0  0.30471861991E-01  0.11154765860E+00  0.19754167471E-01  0.88778468203E+00  0.88000000000E+00 0.  1.
        -11    1    4    4    0    0 -0.23645726783E-01 -0.79209863837E-01 -0.35632394436E-01  0.90018062512E-01  0.51100000000E-03 0.  1.
         11    1    4    4    0    0 -0.14875417145E-01 -0.40518657992E-01 -0.38145760722E-02  0.43334187339E-01  0.51100000000E-03 0. -1.
</event>
<event>
 8    1  0.1122848E+005  0.1043930E+01  0.7957747E-01            NaN
         13   -1    0    0    0    0  0.00000000000E+00  0.00000000000E+00  0.74505805969E-08  0.10566000000E+00  0.10566000000E+00 0.  1.
     999900   -1    0    0    0    0 -0.00000000000E+00 -0.00000000000E+00 -0.74505805969E-08  0.93827000000E+00  0.93827000000E+00 0.  1.
     999902    2    1    2    0    0  0.34855166464E-02  0.84471556707E-02  0.21513564970E-01  0.10205561526E+01  0.10202884513E+01 0.  0.
     999903    2    3    3    0    0 -0.10611048339E+00 -0.23043041864E-01  0.71933377337E-01  0.13176761011E+00  0.19946825166E-01 0.  0.
         14    1    1    2    0    0 -0.34855166464E-02 -0.84471556707E-02 -0.21513564970E-01  0.23373847414E-01  0.00000000000E+00 0. -1.
     999901    1    3    3    0    0  0.10959600004E+00  0.31490197535E-01 -0.50419812366E-01  0.88878854248E+00  0.88000000000E+00 0.  1.
        -11    1    4    4    0    0 -0.26399885445E-01  0.23039962339E-03  0.25096081829E-01  0.36429129548E-01  0.51100000000E-03 0. -1.
         11    1    4    4    0    0 -0.79710597945E-01 -0.23273441487E-01  0.46837295508E-01  0.95338480557E-01  0.51100000000E-03 0.  1.
</event>
<event>
 8    1  0.1122848E+005  0.1043930E+01  0.7957747E-01            NaN
         13   -1    0    0    0    0  0.00000000000E+00  0.00000000000E+00  0.74505805969E-08  0.10566000000E+00  0.10566000000E+00 0.  1.
     999900   -1    0    0    0    0 -0.00000000000E+00 -0.00000000000E+00 -0.74505805969E-08  0.93827000000E+00  0.93827000000E+00 0. -1.
     999902    2    1    2    0    0  0.19855785452E-01  0.37654356037E-02  0.12248429088E-01  0.10202983531E+01  0.10200246441E+01 0.  0.
     999903    2    3    3    0    0 -0.59027792176E-01  0.85039231070E-01 -0.74306210073E-01  0.12882779596E+00  0.18953550741E-01 0.  0.
         14    1    1    2    0    0 -0.19855785452E-01 -0.37654356037E-02 -0.12248429088E-01  0.23631646924E-01  0.00000000000E+00 0. -1.
     999901    1    3    3    0    0  0.78883577628E-01 -0.81273795467E-01  0.86554639161E-01  0.89147055712E+00  0.88000000000E+00 0. -1.
        -11    1    4    4    0    0 -0.21676103971E-01  0.43015585803E-01 -0.26227277316E-01  0.54848202357E-01  0.51100000000E-03 0.  1.
         11    1    4    4    0    0 -0.37351688206E-01  0.42023645267E-01 -0.48078932757E-01  0.73979593601E-01  0.51100000000E-03 0. -1.
</event>
<event>
 8    1  0.1122848E+005  0.1043930E+01  0.7957747E-01            NaN
         13   -1    0    0    0    0  0.00000000000E+00  0.00000000000E+00  0.74505805969E-08  0.10566000000E+00  0.10566000000E+00 0. -1.
     999900   -1    0    0    0    0 -0.00000000000E+00 -0.00000000000E+00 -0.74505805969E-08  0.93827000000E+00  0.93827000000E+00 0.  1.
     999902    2    1    2    0    0 -0.17136322384E-01  0.14516777679E-01  0.73233378728E-02  0.10203075180E+01  0.10200340237E+01 0.  0.
     999903    2    3    3    0    0  0.95912511610E-01 -0.31340037228E-01 -0.76344632913E-01  0.12796049150E+00  0.19078170592E-01 0.  0.
         14    1    1    2    0    0  0.17136322384E-01 -0.14516777679E-01 -0.73233378728E-02  0.23622482017E-01  0.00000000000E+00 0.  1.
     999901    1    3    3    0    0 -0.11304883399E+00  0.45856814907E-01  0.83667970786E-01  0.89234702648E+00  0.88000000000E+00 0. -1.
        -11    1    4    4    0    0  0.15789638216E-01 -0.12803329955E-01 -0.12768336819E-01  0.24011028280E-01  0.51100000000E-03 0. -1.
         11    1    4    4    0    0  0.80122873394E-01 -0.18536707273E-01 -0.63576296094E-01  0.10394946322E+00  0.51100000000E-03 0.  1.
</event>
<event>
 8    1  0.1122848E+005  0.1043930E+01  0.7957747E-01            NaN
         13   -1    0    0    0    0  0.00000000000E+00  0.00000000000E+00  0.74505805969E-08  0.10566000000E+00  0.10566000000E+00 0.  1.
     999900   -1    0    0    0    0 -0.00000000000E+00 -0.00000000000E+00 -0.74505805969E-08  0.93827000000E+00  0.93827000000E+00 0.  1.
     999902    2    1    2    0    0  0.10571310495E-01 -0.56119874035E-02 -0.19865825386E-01  0.10207373713E+01  0.10204738522E+01 0.  0.
     999903    2    3    3    0    0  0.50659162949E-01  0.24620367608E-01 -0.11956279370E+00  0.13368578503E+00  0.20102591598E-01 0.  0.
         14    1    1    2    0    0 -0.10571310495E-01  0.56119874035E-02  0.19865825386E-01  0.23192628710E-01  0.00000000000E+00 0.  1.
     999901    1    3    3    0    0 -0.40087852454E-01 -0.30232355011E-01  0.99696968312E-01  0.88705158626E+00  0.88000000000E+00 0. -1.
        -11    1    4    4    0    0  0.27757552727E-01  0.23616812950E-02 -0.56238076819E-01  0.62761785166E-01  0.51100000000E-03 0.  1.
         11    1    4    4    0    0  0.22901610222E-01  0.22258686313E-01 -0.63324716880E-01  0.70923999859E-01  0.51100000000E-03 0. -1.
</event>
<event>
 8    1  0.1122848E+005  0.1043930E+01  0.7957747E-01            NaN
         13   -1    0    0    0    0  0.00000000000E+00  0.00000000000E+00  0.74505805969E-08  0.10566000000E+00  0.10566000000E+00 0.  1.
     999900   -1    0    0    0    0 -0.00000000000E+00 -0.00000000000E+00 -0.74505805969E-08  0.93827000000E+00  0.93827000000E+00 0.  1.
     999902    2    1    2    0    0  0.11430556005E-01  0.47141211073E-02  0.19529847921E-01  0.10208151669E+01  0.10205534330E+01 0.  0.
     999903    2    3    3    0    0  0.71913332325E-01  0.10789653003E-01 -0.10576989026E+00  0.12986337097E+00  0.19730216850E-01 0.  0.
         14    1    1    2    0    0 -0.11430556005E-01 -0.47141211073E-02 -0.19529847921E-01  0.23114833078E-01  0.00000000000E+00 0. -1.
     999901    1    3    3    0    0 -0.60482776319E-01 -0.60755318953E-02  0.12529973818E+00  0.89095179595E+00  0.88000000000E+00 0. -1.
        -11    1    4    4    0    0  0.51883863066E-01  0.12326690778E-01 -0.88695383010E-01  0.10349403191E+00  0.51100000000E-03 0.  1.
         11    1    4    4    0    0  0.20029469259E-01 -0.15370377758E-02 -0.17074507248E-01  0.26369339064E-01  0.51100000000E-03 0. -1.
</event>
<event>
 8    1  0.1122848E+005  0.1043930E+01  0.7957747E-01            NaN
         13   -1    0    0    0    0  0.00000000000E+00  0.00000000000E+00  0.74505805969E-08  0.10566000000E+00  0.10566000000E+00 0.  1.
     999900   -1    0    0    0    0 -0.00000000000E+00 -0.00000000000E+00 -0.74505805969E-08  0.93827000000E+00  0.93827000000E+00 0.  1.
     999902    2    1    2    0    0 -0.16331658299E-01  0.15203863642E-01  0.83058849190E-02  0.10201210047E+01  0.10198431232E+01 0.  0.
     999903    2    3    3    0    0 -0.21382532026E-01  0.49065440964E-01  0.11959987868E+00  0.13245075580E+00  0.19350492510E-01 0.  0.
         14    1    1    2    0    0  0.16331658299E-01 -0.15203863642E-01 -0.83058849190E-02  0.23808995290E-01  0.00000000000E+00 0. -1.
     999901    1    3    3    0    0  0.50508737267E-02 -0.33861577322E-01 -0.11129399376E+00  0.88767024891E+00  0.88000000000E+00 0.  1.
        -11    1    4    4    0    0 -0.27155857904E-02  0.27232250267E-01  0.47257230404E-01  0.54612057342E-01  0.51100000000E-03 0. -1.
         11    1    4    4    0    0 -0.18666946236E-01  0.21833190698E-01  0.72342648275E-01  0.77838698462E-01  0.51100000000E-03 0.  1.
</event>
<event>
 8    1  0.1122848E+005  0.1043930E+01  0.7957747E-01            NaN
         13   -1    0    0    0    0  0.00000000000E+00  0.00000000000E+00  0.74505805969E-08  0.10566000000E+00  0.10566000000E+00 0. -1.
     999900   -1    0    0    0    0 -0.00000000000E+00 -0.00000000000E+00 -0.74505805969E-08  0.93827000000E+00  0.93827000000E+00 0. -1.
     999902    2    1    2    0    0  0.22771333008E-01 -0.26550474542E-03  0.72507630277E-02  0.10200306765E+01  0.10197506574E+01 0.  0.
     999903    2    3    3    0    0 -0.70218486699E-01 -0.42948389643E-01 -0.96797190889E-01  0.12801334933E+00  0.15573098488E-01 0.  0.
         14    1    1    2    0    0 -0.22771333008E-01  0.26550474542E-03 -0.72507630277E-02  0.23899323510E-01  0.00000000000E+00 0.  1.
     999901    1    3    3    0    0  0.92989819707E-01  0.42682884898E-01  0.10404795392E+00  0.89201732716E+00  0.88000000000E+00 0.  1.
        -11    1    4    4    0    0 -0.56141949187E-01 -0.29783931135E-01 -0.65589013970E-01  0.91330065624E-01  0.51100000000E-03 0.  1.
         11    1    4    4    0    0 -0.14076537512E-01 -0.13164458509E-01 -0.31208176919E-01  0.36683283710E-01  0.51100000000E-03 0. -1.
</event>
<event>
 8    1  0.1122848E+005  0.1043930E+01  0.7957747E-01            NaN
         13   -1    0    0    0    0  0.00000000000E+00  0.00000000000E+00  0.74505805969E-08  0.10566000000E+00  0.10566000000E+00 0. -1.
     999900   -1    0    0    0    0 -0.00000000000E+00 -0.00000000000E+00 -0.74505805969E-08  0.93827000000E+00  0.93827000000E+00 0.  1.
     999902    2    1    2    0    0  0.23168704063E-01  0.53371846435E-02 -0.37651202797E-02  0.10198582215E+01  0.10195740981E+01 0.  0.
     999903    2    3    3    0    0 -0.19895679253E-01  0.73644186628E-01  0.10314218552E+00  0.12971803051E+00  0.19213347689E-01 0.  0.
         14    1    1    2    0    0 -0.23168704063E-01 -0.53371846435E-02  0.37651202797E-02  0.24071778468E-01  0.00000000000E+00 0.  1.
     999901    1    3    3    0    0  0.43064383316E-01 -0.68307001984E-01 -0.10690730580E+00  0.89014019102E+00  0.88000000000E+00 0.  1.
        -11    1    4    4    0    0  0.14198257606E-02  0.30448353344E-01  0.40962575391E-01  0.51061843192E-01  0.51100000000E-03 0. -1.
         11    1    4    4    0    0 -0.21315505013E-01  0.43195833284E-01  0.62179610131E-01  0.78656187323E-01  0.51100000000E-03 0.  1.
</event>
<event>
 8    1  0.1122848E+005  0.1043930E+01  0.7957747E-01            NaN
         13   -1    0    0    0    0  0.00000000000E+00  0.00000000000E+00  0.74505805969E-08  0.10566000000E+00  0.10566000000E+00 0. -1.
     999900   -1    0    0    0    0 -0.00000000000E+00 -0.00000000000E+00 -0.74505805969E-08  0.93827000000E+00  0.93827000000E+00 0.  1.
     999902    2    1    2    0    0  0.16650678391E-01  0.14132532394E-01  0.71703894277E-02  0.10209433072E+01  0.10206844999E+01 0.  0.
     999903    2    3    3    0    0  0.76127234835E-02 -0.99020022159E-01  0.82398417525E-01  0.13046902824E+00  0.19228878573E-01 0.  0.
         14    1    1    2    0    0 -0.16650678391E-01 -0.14132532394E-01 -0.71703894277E-02  0.22986692830E-01  0.00000000000E+00 0.  1.
     999901    1    3    3    0    0  0.90379549072E-02  0.11315255455E+00 -0.75228028097E-01  0.89047427893E+00  0.88000000000E+00 0. -1.
        -11    1    4    4    0    0  0.69483593497E-02 -0.10328666916E-01  0.98478418520E-02  0.15880874285E-01  0.51100000000E-03 0. -1.
         11    1    4    4    0    0  0.66436413383E-03 -0.88691355243E-01  0.72550575673E-01  0.11458815395E+00  0.51100000000E-03 0.  1.
</event>
<event>
 8    1  0.1122848E+005  0.1043930E+01  0.7957747E-01            NaN
         13   -1    0    0    0    0  0.00000000000E+00  0.00000000000E+00  0.74505805969E-08  0.10566000000E+00  0.10566000000E+00 0.  1.
     999900   -1    0    0    0    0 -0.00000000000E+00 -0.00000000000E+00 -0.74505805969E-08  0.93827000000E+00  0.93827000000E+00 0.  1.
     999902    2    1    2    0    0 -0.21706240400E-01  0.76550887257E-02  0.59442355202E-02  0.10201582691E+01  0.10198812670E+01 0.  0.
     999903    2    3    3    0    0 -0.81204699836E-01 -0.81711187561E-01  0.61053538958E-01  0.13192213304E+00  0.20124440833E-01 0.  0.
         14    1    1    2    0    0  0.21706240400E-01 -0.76550887257E-02 -0.59442355202E-02  0.23771730935E-01  0.00000000000E+00 0. -1.
     999901    1    3    3    0    0  0.59498459436E-01  0.89366276287E-01 -0.55109303438E-01  0.88823613602E+00  0.88000000000E+00 0.  1.
        -11    1    4    4    0    0 -0.49530132103E-01 -0.42225674206E-01  0.24783020930E-01  0.69646972624E-01  0.51100000000E-03 0. -1.
         11    1    4    4    0    0 -0.31674567733E-01 -0.39485513355E-01  0.36270518028E-01  0.62275160417E-01  0.51100000000E-03 0.  1.
</event>
<event>
 8    1  0.1122848E+005  0.1043930E+01  0.7957747E-01            NaN
         13   -1    0    0    0    0  0.00000000000E+00  0.00000000000E+00  0.74505805969E-08  0.10566000000E+00  0.10566000000E+00 0. -1.
     999900   -1    0    0    0    0 -0.00000000000E+00 -0.00000000000E+00 -0.74505805969E-08  0.93827000000E+00  0.93827000000E+00 0. -1.
     999902    2    1    2    0    0  0.57880999643E-02  0.12455885655E-01 -0.18917127727E-01  0.10205524700E+01  0.10202846833E+01 0.  0.
     999903    2    3    3    0    0  0.11610867957E+00  0.58912422372E-01 -0.14638962362E-01  0.13243809514E+00  0.19330050277E-01 0.  0.
         14    1    1    2    0    0 -0.57880999643E-02 -0.12455885655E-01  0.18917127727E-01  0.23377530025E-01  0.00000000000E+00 0. -1.
     999901    1    3    3    0    0 -0.11032057961E+00 -0.46456536716E-01 -0.42781653648E-02  0.88811437483E+00  0.88000000000E+00 0. -1.
        -11    1    4    4    0    0  0.39302480527E-01  0.28657791717E-01 -0.26631919340E-03  0.48644486312E-01  0.51100000000E-03 0. -1.
         11    1    4    4    0    0  0.76806199044E-01  0.30254630655E-01 -0.14372643169E-01  0.83793608828E-01  0.51100000000E-03 0.  1.
</event>
<event>
 8    1  0.1122848E+005  0.1043930E+01  0.7957747E-01            NaN
         13   -1    0    0    0    0  0.00000000000E+00  0.00000000000E+00  0.74505805969E-08  0.10566000000E+00  0.10566000000E+00 0. -1.
     999900   -1    0    0    0    0 -0.00000000000E+00 -0.00000000000E+00 -0.74505805969E-08  0.93827000000E+00  0.93827000000E+00 0. -1.
     999902    2    1    2    0    0 -0.15917795251E-01  0.12934233351E-01  0.12181091694E-01  0.10200752396E+01  0.10197962762E+01 0.  0.
     999903    2    3    3    0    0 -0.86615521956E-02 -0.73194828112E-01  0.10627549393E+00  0.13084825801E+00  0.19856501810E-01 0.  0.
         14    1    1    2    0    0  0.15917795251E-01 -0.12934233351E-01 -0.12181091694E-01  0.23854760382E-01  0.00000000000E+00 0.  1.
     999901    1    3    3    0    0 -0.72562430558E-02  0.86129061462E-01 -0.94094402238E-01  0.88922698161E+00  0.88000000000E+00 0. -1.
        -11    1    4    4    0    0 -0.13176272930E-01 -0.42283755514E-01  0.52829617389E-01  0.68940262134E-01  0.51100000000E-03 0.  1.
         11    1    4    4    0    0  0.45147207343E-02 -0.30911072597E-01  0.53445876544E-01  0.61907995873E-01  0.51100000000E-03 0. -1.
</event>
<event>
 8    1  0.1122848E+005  0.1043930E+01  0.7957747E-01            NaN
         13   -1    0    0    0    0  0.00000000000E+00  0.00000000000E+00  0.74505805969E-08  0.10566000000E+00  0.10566000000E+00 0.  1.
     999900   -1    0    0    0    0 -0.00000000000E+00 -0.00000000000E+00 -0.74505805969E-08  0.93827000000E+00  0.93827000000E+00 0.  1.
     999902    2    1    2    0    0 -0.96973953734E-02 -0.26263659779E-03  0.21191579526E-01  0.10206235310E+01  0.10203573886E+01 0.  0.
     999903    2    3    3    0    0  0.86568571571E-01  0.89327185167E-01 -0.29948337131E-01  0.12938351638E+00  0.19228307816E-01 0.  0.
         14    1    1    2    0    0  0.96973953734E-02  0.26263659779E-03 -0.21191579526E-01  0.23306469012E-01  0.00000000000E+00 0. -1.
     999901    1    3    3    0    0 -0.96265966944E-01 -0.89589821764E-01  0.51139916656E-01  0.89124001460E+00  0.88000000000E+00 0. -1.
        -11    1    4    4    0    0  0.53740727305E-01  0.48923101970E-01 -0.25944565708E-01  0.77168110567E-01  0.51100000000E-03 0.  1.
         11    1    4    4    0    0  0.32827844266E-01  0.40404083196E-01 -0.40037714225E-02  0.52215405817E-01  0.51100000000E-03 0. -1.
</event>
<event>
 8    1  0.1122848E+005  0.1043930E+01  0.7957747E-01            NaN
         13   -1    0    0    0    0  0.00000000000E+00  0.00000000000E+00  0.74505805969E-08  0.10566000000E+00  0.10566000000E+00 0. -1.
     999900   -1    0    0    0    0 -0.00000000000E+00 -0.00000000000E+00 -0.74505805969E-08  0.93827000000E+00  0.93827000000E+00 0. -1.
     999902    2    1    2    0    0 -0.72622353415E-02  0.78692510673E-02 -0.20515835252E-01  0.10207877298E+01  0.10205253670E+01 0.  0.
     999903    2    3    3    0    0 -0.41637807048E-01 -0.10114226390E+00  0.65851545769E-01  0.12920233577E+00  0.19833127943E-01 0.  0.
         14    1    1    2    0    0  0.72622353415E-02 -0.78692510673E-02  0.20515835252E-01  0.23142270213E-01  0.00000000000E+00 0. -1.
     999901    1    3    3    0    0  0.34375571706E-01  0.10901151497E+00 -0.86367381022E-01  0.89158539402E+00  0.88000000000E+00 0. -1.
        -11    1    4    4    0    0 -0.25812533052E-01 -0.48142581062E-01  0.42264026322E-01  0.69068835345E-01  0.51100000000E-03 0. -1.
         11    1    4    4    0    0 -0.15825273995E-01 -0.52999682841E-01  0.23587519447E-01  0.60133500422E-01  0.51100000000E-03 0.  1.
</event>
<event>
 8    1  0.1122848E+005  0.1043930E+01  0.7957747E-01            NaN
         13   -1    0    0    0    0  0.00000000000E+00  0.00000000000E+00  0.74505805969E-08  0.10566000000E+00  0.10566000000E+00 0. -1.
     999900   -1    0    0    0    0 -0.00000000000E+00 -0.00000000000E+00 -0.74505805969E-08  0.93827000000E+00  0.93827000000E+00 0. -1.
     999902    2    1    2    0    0  0.48623535479E-02  0.22878459969E-01 -0.71748996021E-02  0.10194648085E+01  0.10191712075E+01 0.  0.
     999903    2    3    3    0    0 -0.92545623777E-01  0.58785473099E-01 -0.69614954999E-01  0.13116509094E+00  0.18374297089E-01 0.  0.
         14    1    1    2    0    0 -0.48623535479E-02 -0.22878459969E-01  0.71748996021E-02  0.24465191536E-01  0.00000000000E+00 0. -1.
     999901    1    3    3    0    0  0.97407977325E-01 -0.35907013130E-01  0.62440055397E-01  0.88829971753E+00  0.88000000000E+00 0. -1.
        -11    1    4    4    0    0 -0.24641562187E-01  0.25117319976E-01 -0.25609812186E-01  0.43522522342E-01  0.51100000000E-03 0.  1.
         11    1    4    4    0    0 -0.67904061590E-01  0.33668153124E-01 -0.44005142813E-01  0.87642568596E-01  0.51100000000E-03 0. -1.
</event>
<event>
 8    1  0.1122848E+005  0.1043930E+01  0.7957747E-01            NaN
         13   -1    0    0    0    0  0.00000000000E+00  0.00000000000E+00  0.74505805969E-08  0.10566000000E+00  0.10566000000E+00 0. -1.
     999900   -1    0    0    0    0 -0.00000000000E+00 -0.00000000000E+00 -0.74505805969E-08  0.93827000000E+00  0.93827000000E+00 0.  1.
     999902    2    1    2    0    0 -0.21667140722E-01 -0.34934353778E-02 -0.95394514143E-02  0.10199994711E+01  0.10197187117E+01 0.  0.
     999903    2    3    3    0    0 -0.62447337951E-01 -0.31060077697E-01  0.10859910050E+00  0.13074154360E+00  0.20861163711E-01 0.  0.
         14    1    1    2    0    0  0.21667140722E-01  0.34934353778E-02  0.95394514143E-02  0.23930528851E-01  0.00000000000E+00 0. -1.
     999901    1    3    3    0    0  0.40780197229E-01  0.27566642319E-01 -0.11813855191E+00  0.88925792755E+00  0.88000000000E+00 0.  1.
        -11    1    4    4    0    0 -0.28455341943E-01 -0.16545445591E-01  0.33122517150E-01  0.46699256078E-01  0.51100000000E-03 0.  1.
         11    1    4    4    0    0 -0.33991996008E-01 -0.14514632106E-01  0.75476583348E-01  0.84042287526E-01  0.51100000000E-03 0. -1.
</event>
<event>
 8    1  0.1122848E+005  0.1043930E+01  0.7957747E-01            NaN
         13   -1    0    0    0    0  0.00000000000E+00  0.00000000000E+00  0.74505805969E-08  0.10566000000E+00  0.10566000000E+00 0. -1.
     999900   -1    0    0    0    0 -0.00000000000E+00 -0.00000000000E+00 -0.74505805969E-08  0.93827000000E+00  0.93827000000E+00 0.  1.
     999902    2    1    2    0    0  0.13955140601E-01  0.19023931595E-01  0.56228746113E-02  0.10196756676E+01  0.10193871661E+01 0.  0.
     999903    2    3    3    0    0 -0.34000283241E-01  0.59169318037E-01  0.11031551229E+00  0.13126589550E+00  0.20104616720E-01 0.  0.
         14    1    1    2    0    0 -0.13955140601E-01 -0.19023931595E-01 -0.56228746113E-02  0.24254332426E-01  0.00000000000E+00 0.  1.
     999901    1    3    3    0    0  0.47955423842E-01 -0.40145386441E-01 -0.10469263768E+00  0.88840977207E+00  0.88000000000E+00 0.  1.
        -11    1    4    4    0    0 -0.19734899546E-01  0.15940968439E-01  0.34379418037E-01  0.42729219984E-01  0.51100000000E-03 0. -1.
         11    1    4    4    0    0 -0.14265383696E-01  0.43228349598E-01  0.75936094250E-01  0.88536675519E-01  0.51100000000E-03 0.  1.
</event>
<event>
 8    1  0.1122848E+005  0.1043930E+01  0.7957747E-01            NaN
         13   -1    0    0    0    0  0.00000000000E+00  0.00000000000E+00  0.74505805969E-08  0.10566000000E+00  0.10566000000E+00 0.  1.
     999900   -1    0    0    0    0 -0.00000000000E+00 -0.00000000000E+00 -0.74505805969E-08  0.93827000000E+00  0.93827000000E+00 0.  1.
     999902    2    1    2    0    0 -0.20592049996E-02  0.20640188890E-01 -0.83441922670E-02  0.10215719306E+01  0.10213272375E+01 0.  0.
     999903    2    3    3    0    0 -0.24799434940E-01 -0.12386443276E+00 -0.20065220030E-01  0.12941942894E+00  0.19732355550E-01 0.  0.
         14    1    1    2    0    0  0.20592049996E-02 -0.20640188890E-01  0.83441922670E-02  0.22358069399E-01  0.00000000000E+00 0.  1.
     999901    1    3    3    0    0  0.22740229941E-01  0.14450462165E+00  0.11721027763E-01  0.89215250167E+00  0.88000000000E+00 0.  1.
        -11    1    4    4    0    0 -0.13874979387E-01 -0.52831160652E-01  0.63039575089E-03  0.54628793769E-01  0.51100000000E-03 0.  1.
         11    1    4    4    0    0 -0.10924455553E-01 -0.71033272105E-01 -0.20695615781E-01  0.74790635167E-01  0.51100000000E-03 0. -1.
</event>
<event>
 8    1  0.1122848E+005  0.1043930E+01  0.7957747E-01            NaN
         13   -1    0    0    0    0  0.00000000000E+00  0.00000000000E+00  0.74505805969E-08  0.10566000000E+00  0.10566000000E+00 0.  1.
     999900   -1    0    0    0    0 -0.00000000000E+00 -0.00000000000E+00 -0.74505805969E-08  0.93827000000E+00  0.93827000000E+00 0.  1.
     999902    2    1    2    0    0  0.22198633610E-01 -0.30848009178E-03  0.12020606202E-02  0.10216967042E+01  0.10214547645E+01 0.  0.
     999903    2    3    3    0    0  0.10416235375E+00  0.68217259977E-01  0.45625684464E-01  0.13412288367E+00  0.20096127562E-01 0.  0.
         14    1    1    2    0    0 -0.22198633610E-01  0.30848009178E-03 -0.12020606202E-02  0.22233295838E-01  0.00000000000E+00 0.  1.
     999901    1    3    3    0    0 -0.81963720140E-01 -0.68525740069E-01 -0.44423623844E-01  0.88757382049E+00  0.88000000000E+00 0.  1.
        -11    1    4    4    0    0  0.31639990293E-01  0.12109307369E-01  0.68532581132E-02  0.34568086127E-01  0.51100000000E-03 0. -1.
         11    1    4    4    0    0  0.72522363457E-01  0.56107952608E-01  0.38772426351E-01  0.99554797541E-01  0.51100000000E-03 0.  1.
</event>
<event>
 8    1  0.1122848E+005  0.1043930E+01  0.7957747E-01            NaN
         13   -1    0    0    0    0  0.00000000000E+00  0.00000000000E+00  0.74505805969E-08  0.10566000000E+00  0.10566000000E+00 0. -1.
     999900   -1    0    0    0    0 -0.00000000000E+00 -0.00000000000E+00 -0.74505805969E-08  0.93827000000E+00  0.93827000000E+00 0.  1.
     999902    2    1    2    0    0  0.18529068179E-01 -0.11914561592E-01  0.98005124153E-02  0.10198191479E+01  0.10195340903E+01 0.  0.
     999903    2    3    3    0    0  0.50005352194E-02 -0.12991932805E+00  0.91000543716E-02  0.13183905986E+00  0.19866795434E-01 0.  0.
         14    1    1    2    0    0 -0.18529068179E-01  0.11914561592E-01 -0.98005124153E-02  0.24110852103E-01  0.00000000000E+00 0. -1.
     999901    1    3    3    0    0  0.13528532960E-01  0.11800476646E+00  0.70045804369E-03  0.88798008804E+00  0.88000000000E+00 0.  1.
        -11    1    4    4    0    0 -0.52958894796E-02 -0.92146659179E-01  0.83586018844E-02  0.92677832245E-01  0.51100000000E-03 0. -1.
         11    1    4    4    0    0  0.10296424699E-01 -0.37772668873E-01  0.74145248718E-03  0.39161227613E-01  0.51100000000E-03 0.  1.
</event>
<event>
 8    1  0.1122848E+005  0.1043930E+01  0.7957747E-01            NaN
         13   -1    0    0    0    0  0.00000000000E+00  0.00000000000E+00  0.74505805969E-08  0.10566000000E+00  0.10566000000E+00 0. -1.
     999900   -1    0    0    0    0 -0.00000000000E+00 -0.00000000000E+00 -0.74505805969E-08  0.93827000000E+00  0.93827000000E+00 0. -1.
     999902    2    1    2    0    0  0.13635075978E-01  0.12783633807E-01  0.14385530290E-01  0.10203444097E+01  0.10200717790E+01 0.  0.
     999903    2    3    3    0    0 -0.70582908139E-01 -0.10515399258E+00  0.68929676508E-02  0.12845983693E+00  0.20374190135E-01 0.  0.
         14    1    1    2    0    0 -0.13635075978E-01 -0.12783633807E-01 -0.14385530290E-01  0.23585590346E-01  0.00000000000E+00 0.  1.
     999901    1    3    3    0    0  0.84217984117E-01  0.11793762639E+00  0.74925626388E-02  0.89188457272E+00  0.88000000000E+00 0. -1.
        -11    1    4    4    0    0 -0.13618871438E-01 -0.18169520830E-01  0.90754940672E-02  0.24458758349E-01  0.51100000000E-03 0. -1.
         11    1    4    4    0    0 -0.56964036701E-01 -0.86984471754E-01 -0.21825264164E-02  0.10400107858E+00  0.51100000000E-03 0.  1.
</event>
<event>
 8    1  0.1122848E+005  0.1043930E+01  0.7957747E-01            NaN
         13   -1    0    0    0    0  0.00000000000E+00  0.00000000000E+00  0.74505805969E-08  0.10566000000E+00  0.10566000000E+00 0.  1.
     999900   -1    0    0    0    0 -0.00000000000E+00 -0.00000000000E+00 -0.74505805969E-08  0.93827000000E+00  0.93827000000E+00 0. -1.
     999902    2    1    2    0    0  0.12803593401E-01 -0.19458797222E-01  0.55251111943E-02  0.10199904167E+01  0.10197094422E+01 0.  0.
     999903    2    3    3    0    0  0.78296842841E-01  0.94608471325E-01  0.36444984932E-01  0.12967769298E+00  0.20171977732E-01 0.  0.
         14    1    1    2    0    0 -0.12803593401E-01  0.19458797222E-01 -0.55251111943E-02  0.23939583268E-01  0.00000000000E+00 0.  1.
     999901    1    3    3    0    0 -0.65493249439E-01 -0.11406726855E+00 -0.30919873738E-01  0.89031272375E+00  0.88000000000E+00 0. -1.
        -11    1    4    4    0    0  0.17005095299E-01  0.21562575378E-01  0.17177738599E-01  0.32395273536E-01  0.51100000000E-03 0.  1.
         11    1    4    4    0    0  0.61291747542E-01  0.73045895947E-01  0.19267246332E-01  0.97282419448E-01  0.51100000000E-03 0. -1.
</event>
<event>
 8    1  0.1122848E+005  0.1043930E+01  0.7957747E-01            NaN
         13   -1    0    0    0    0  0.00000000000E+00  0.00000000000E+00  0.74505805969E-08  0.10566000000E+00  0.10566000000E+00 0.  1.
     999900   -1    0    0    0    0 -0.00000000000E+00 -0.00000000000E+00 -0.74505805969E-08  0.93827000000E+00  0.93827000000E+00 0.  1.
     999902    2    1    2    0    0 -0.91415677211E-02 -0.21130631593E-01 -0.19281920698E-02  0.10208261091E+01  0.10205646257E+01 0.  0.
     999903    2    3    3    0    0  0.92510563989E-01  0.83187856799E-01  0.24296525313E-01  0.12846786334E+00  0.20862569365E-01 0.  0.
         14    1    1    2    0    0  0.91415677211E-02  0.21130631593E-01  0.19281920698E-02  0.23103890941E-01  0.00000000000E+00 0.  1.
     999901    1    3    3    0    0 -0.10165213171E+00 -0.10431848839E+00 -0.26224717383E-01  0.89235824572E+00  0.88000000000E+00 0. -1.
        -11    1    4    4    0    0  0.49445089775E-02  0.10395962023E-01 -0.17500045159E-02  0.11655377824E-01  0.51100000000E-03 0. -1.
         11    1    4    4    0    0  0.87566055012E-01  0.72791894776E-01  0.26046529829E-01  0.11681248552E+00  0.51100000000E-03 0.  1.
</event>
<event>
 8    1  0.1122848E+005  0.1043930E+01  0.7957747E-01            NaN
         13   -1    0    0    0    0  0.00000000000E+00  0.00000000000E+00  0.74505805969E-08  0.10566000000E+00  0.10566000000E+00 0. -1.
     999900   -1    0    0    0    0 -0.00000000000E+00 -0.00000000000E+00 -0.74505805969E-08  0.93827000000E+00  0.93827000000E+00 0.  1.
     999902    2    1    2    0    0 -0.17889175070E-01  0.89250408962E-02  0.12067220143E-01  0.10205784103E+01  0.10203112245E+01 0.  0.
     999903    2    3    3    0    0 -0.39578766826E-01 -0.11004790389E+00  0.55531411050E-01  0.13124487564E+00  0.21551330193E-01 0.  0.
         14    1    1    2    0    0  0.17889175070E-01 -0.89250408962E-02 -0.12067220143E-01  0.23351589703E-01  0.00000000000E+00 0.  1.
     999901    1    3    3    0    0  0.21689591756E-01  0.11897294479E+00 -0.43464190906E-01  0.88933353466E+00  0.88000000000E+00 0.  1.
        -11    1    4    4    0    0 -0.25010945303E-01 -0.74852676565E-01  0.48122946040E-01  0.92436733123E-01  0.51100000000E-03 0. -1.
         11    1    4    4    0    0 -0.14567821524E-01 -0.35195227326E-01  0.74084650101E-02  0.38808142513E-01  0.51100000000E-03 0.  1.
</event>
<event>
 8    1  0.1122848E+005  0.1043930E+01  0.7957747E-01            NaN
         13   -1    0    0    0    0  0.00000000000E+00  0.00000000000E+00  0.74505805969E-08  0.10566000000E+00  0.10566000000E+00 0. -1.
     999900   -1    0    0    0    0 -0.00000000000E+00 -0.00000000000E+00 -0.74505805969E-08  0.93827000000E+00  0.93827000000E+00 0.  1.
     999902    2    1    2    0    0  0.21132753272E-01  0.21892991578E-02 -0.12187396153E-01  0.10194367577E+01  0.10191424749E+01 0.  0.
     999903    2    3    3    0    0  0.12077394789E+00  0.39379939595E-01 -0.33094804032E-01  0.13278652731E+00  0.19996740985E-01 0.  0.
         14    1    1    2    0    0 -0.21132753272E-01 -0.21892991578E-02  0.12187396153E-01  0.24493242265E-01  0.00000000000E+00 0. -1.
     999901    1    3    3    0    0 -0.99641194621E-01 -0.37190640437E-01  0.20907407879E-01  0.88665023042E+00  0.88000000000E+00 0. -1.
        -11    1    4    4    0    0  0.85566614844E-01  0.23384981113E-01 -0.14531714699E-01  0.89888457383E-01  0.51100000000E-03 0. -1.
         11    1    4    4    0    0  0.35207333049E-01  0.15994958481E-01 -0.18563089333E-01  0.42898069931E-01  0.51100000000E-03 0.  1.
</event>
<event>
 8    1  0.1122848E+005  0.1043930E+01  0.7957747E-01            NaN
         13   -1    0    0    0    0  0.00000000000E+00  0.00000000000E+00  0.74505805969E-08  0.10566000000E+00  0.10566000000E+00 0. -1.
     999900   -1    0    0    0    0 -0.00000000000E+00 -0.00000000000E+00 -0.74505805969E-08  0.93827000000E+00  0.93827000000E+00 0. -1.
     999902    2    1    2    0    0  0.97979675507E-02  0.11195539271E-01 -0.18328271190E-01  0.10203235222E+01  0.10200504028E+01 0.  0.
     999903    2    3    3    0    0 -0.18716538368E-01 -0.67340512177E-01  0.10519131977E+00  0.12777768152E+00  0.19413107693E-01 0.  0.
         14    1    1    2    0    0 -0.97979675507E-02 -0.11195539271E-01  0.18328271190E-01  0.23606477766E-01  0.00000000000E+00 0.  1.
     999901    1    3    3    0    0  0.28514505919E-01  0.78536051448E-01 -0.12351959096E+00  0.89254584071E+00  0.88000000000E+00 0. -1.
        -11    1    4    4    0    0 -0.76655089317E-02 -0.13707219252E-01  0.37838504044E-01  0.40971470514E-01  0.51100000000E-03 0.  1.
         11    1    4    4    0    0 -0.11051029436E-01 -0.53633292925E-01  0.67352815729E-01  0.86806211006E-01  0.51100000000E-03 0. -1.
</event>
<event>
 8    1  0.1122848E+005  0.1043930E+01  0.7957747E-01            NaN
         13   -1    0    0    0    0  0.00000000000E+00  0.00000000000E+00  0.74505805969E-08  0.10566000000E+00  0.10566000000E+00 0. -1.
     999900   -1    0    0    0    0 -0.00000000000E+00 -0.00000000000E+00 -0.74505805969E-08  0.93827000000E+00  0.93827000000E+00 0. -1.
     999902    2    1    2    0    0 -0.22262977905E-01 -0.18746065313E-02  0.22533380511E-02  0.10214748922E+01  0.10212280468E+01 0.  0.
     999903    2    3    3    0    0  0.10174719921E+00 -0.63467783744E-01  0.45454942892E-01  0.12960123399E+00  0.18699622923E-01 0.  0.
         14    1    1    2    0    0  0.22262977905E-01  0.18746065313E-02 -0.22533380511E-02  0.22455107821E-01  0.00000000000E+00 0.  1.
     999901    1    3    3    0    0 -0.12401017712E+00  0.61593177213E-01 -0.43201604841E-01  0.89187365819E+00  0.88000000000E+00 0. -1.
        -11    1    4    4    0    0  0.84324124871E-01 -0.51264269496E-01  0.29482588513E-01  0.10299547324E+00  0.51100000000E-03 0. -1.
         11    1    4    4    0    0  0.17423074343E-01 -0.12203514248E-01  0.15972354379E-01  0.26605760748E-01  0.51100000000E-03 0.  1.
</event>
<event>
 8    1  0.1122848E+005  0.1043930E+01  0.7957747E-01            NaN
         13   -1    0    0    0    0  0.00000000000E+00  0.00000000000E+00  0.74505805969E-08  0.10566000000E+00  0.10566000000E+00 0.  1.
     999900   -1    0    0    0    0 -0.00000000000E+00 -0.00000000000E+00 -0.74505805969E-08  0.93827000000E+00  0.93827000000E+00 0. -1.
     999902    2    1    2    0    0  0.14693242954E-01 -0.99282718708E-02  0.15476942594E-01  0.10203928438E+01  0.10201213447E+01 0.  0.
     999903    2    3    3    0    0  0.30551561567E-01  0.51429629802E-01  0.11602194455E+00  0.13240321784E+00  0.22161131322E-01 0.  0.
         14    1    1    2    0    0 -0.14693242954E-01  0.99282718708E-02 -0.15476942594E-01  0.23537156220E-01  0.00000000000E+00 0. -1.
     999901    1    3    3    0    0 -0.15858318613E-01 -0.61357901673E-01 -0.10054500195E+00  0.88798962594E+00  0.88000000000E+00 0. -1.
        -11    1    4    4    0    0  0.11696373500E-01  0.39908348183E-01  0.79235452484E-01  0.89487426263E-01  0.51100000000E-03 0.  1.
         11    1    4    4    0    0  0.18855188067E-01  0.11521281619E-01  0.36786492062E-01  0.42915791574E-01  0.51100000000E-03 0. -1.
</event>
<event>
 7    1  0.1122848E+005  0.1043930E+01  0.7957747E-01            NaN
         13   -1    0    0    0    0  0.00000000000E+00  0.00000000000E+00  0.74505805969E-08  0.10566000000E+00  0.10566000000E+00 0.  1.
     999900   -1    0    0    0    0 -0.00000000000E+00 -0.00000000000E+00 -0.74505805969E-08  0.93827000000E+00  0.93827000000E+00 0. -1.
     999903    2    1    2    0    0  0.67655376398E-02  0.98642983204E-01  0.78611462797E-03  0.10066063995E+00  0.18860960312E-01 0.  0.
         14    1    1    2    0    0  0.46762554195E-01  0.24981607036E-01 -0.13148880908E-03  0.53017303348E-01  0.00000000000E+00 0. -1.
     999901    1    1    2    0    0 -0.53528091835E-01 -0.12362459024E+00 -0.65462581889E-03  0.89025205670E+00  0.88000000000E+00 0. -1.
        -11    1    3    3    0    0  0.62336934821E-02  0.44377396562E-01  0.91749340479E-02  0.45745522140E-01  0.51100000000E-03 0.  1.
         11    1    3    3    0    0  0.53184415777E-03  0.54265586642E-01 -0.83888194200E-02  0.54915117810E-01  0.51100000000E-03 0. -1.
</event>
<event>
 8    1  0.1172816E+005  0.1043930E+01  0.7957747E-01            NaN
         13   -1    0    0    0    0  0.00000000000E+00  0.00000000000E+00  0.74505805969E-08  0.10566000000E+00  0.10566000000E+00 0. -1.
     999900   -1    0    0    0    0 -0.00000000000E+00 -0.00000000000E+00 -0.74505805969E-08  0.93827000000E+00  0.93827000000E+00 0.  1.
     999902    2    1    2    0    0  0.16348165724E-01  0.17115110056E-01 -0.74145806703E-03  0.10202500660E+01  0.10199752241E+01 0.  0.
     999903    2    3    3    0    0  0.28410712127E-01 -0.61363372535E-01  0.10905896198E+00  0.12987907056E+00  0.20052025548E-01 0.  0.
         14    1    1    2    0    0 -0.16348165724E-01 -0.17115110056E-01  0.74145806703E-03  0.23679934013E-01  0.00000000000E+00 0. -1.
     999901    1    3    3    0    0 -0.12062546403E-01  0.78478482591E-01 -0.10980042005E+00  0.89037099543E+00  0.88000000000E+00 0.  1.
        -11    1    4    4    0    0  0.60007234315E-02 -0.28576501601E-01  0.60230676250E-01  0.66937438015E-01  0.51100000000E-03 0.  1.
         11    1    4    4    0    0  0.22409988695E-01 -0.32786870933E-01  0.48828285732E-01  0.62941632545E-01  0.51100000000E-03 0. -1.
</event>
<event>
 8    1  0.1122848E+005  0.1043930E+01  0.7957747E-01            NaN
         13   -1    0    0    0    0  0.00000000000E+00  0.00000000000E+00  0.74505805969E-08  0.10566000000E+00  0.10566000000E+00 0. -1.
     999900   -1    0    0    0    0 -0.00000000000E+00 -0.00000000000E+00 -0.74505805969E-08  0.93827000000E+00  0.93827000000E+00 0.  1.
     999902    2    1    2    0    0  0.22164145016E-01 -0.47849800833E-02  0.50458625460E-02  0.10207005771E+01  0.10204362116E+01 0.  0.
     999903    2    3    3    0    0 -0.10402250849E+00  0.71851202994E-01 -0.11248996272E-02  0.12838098505E+00  0.22296508222E-01 0.  0.
         14    1    1    2    0    0 -0.22164145016E-01  0.47849800833E-02 -0.50458625460E-02  0.23229422884E-01  0.00000000000E+00 0. -1.
     999901    1    3    3    0    0  0.12618665351E+00 -0.76636183077E-01  0.61707621733E-02  0.89231959207E+00  0.88000000000E+00 0.  1.
        -11    1    4    4    0    0 -0.51772537354E-01  0.48975588502E-01  0.14303968909E-02  0.71283315365E-01  0.51100000000E-03 0. -1.
         11    1    4    4    0    0 -0.52249971136E-01  0.22875614492E-01 -0.25552965181E-02  0.57097669684E-01  0.51100000000E-03 0.  1.
</event>
<event>
 8    1  0.1122848E+005  0.1043930E+01  0.7957747E-01            NaN
         13   -1    0    0    0    0  0.00000000000E+00  0.00000000000E+00  0.74505805969E-08  0.10566000000E+00  0.10566000000E+00 0.  1.
     999900   -1    0    0    0    0 -0.00000000000E+00 -0.00000000000E+00 -0.74505805969E-08  0.93827000000E+00  0.93827000000E+00 0. -1.
     999902    2    1    2    0    0 -0.31701231880E-03 -0.79254569727E-02 -0.22724298759E-01  0.10198612003E+01  0.10195771480E+01 0.  0.
     999903    2    3    3    0    0 -0.45107165626E-01 -0.22308532748E-01 -0.12160261966E+00  0.13307489399E+00  0.19733303799E-01 0.  0.
         14    1    1    2    0    0  0.31701231880E-03  0.79254569727E-02  0.22724298759E-01  0.24068799703E-01  0.00000000000E+00 0.  1.
     999901    1    3    3    0    0  0.44790153307E-01  0.14383075775E-01  0.98878320903E-01  0.88678630630E+00  0.88000000000E+00 0.  1.
        -11    1    4    4    0    0 -0.10586682288E-01  0.31850772286E-02 -0.27737333347E-01  0.29863746266E-01  0.51100000000E-03 0.  1.
         11    1    4    4    0    0 -0.34520483337E-01 -0.25493609977E-01 -0.93865286315E-01  0.10321114773E+00  0.51100000000E-03 0. -1.
</event>
<event>
 8    1  0.1122848E+005  0.1043930E+01  0.7957747E-01            NaN
         13   -1    0    0    0    0  0.00000000000E+00  0.00000000000E+00  0.74505805969E-08  0.10566000000E+00  0.10566000000E+00 0. -1.
     999900   -1    0    0    0    0 -0.00000000000E+00 -0.00000000000E+00 -0.74505805969E-08  0.93827000000E+00  0.93827000000E+00 0. -1.
     999902    2    1    2    0    0 -0.55538498394E-02  0.20091619767E-01  0.10196574450E-01  0.10207246436E+01  0.10204608320E+01 0.  0.
     999903    2    3    3    0    0 -0.47524553628E-01 -0.24435106585E-01  0.11889351141E+00  0.13192815770E+00  0.20339963249E-01 0.  0.
         14    1    1    2    0    0  0.55538498394E-02 -0.20091619767E-01 -0.10196574450E-01  0.23205356352E-01  0.00000000000E+00 0. -1.
     999901    1    3    3    0    0  0.41970703788E-01  0.44526726353E-01 -0.10869693697E+00  0.88879648595E+00  0.88000000000E+00 0. -1.
        -11    1    4    4    0    0 -0.20284354002E-01 -0.19703819715E-01  0.46414214883E-01  0.54352883943E-01  0.51100000000E-03 0. -1.
         11    1    4    4    0    0 -0.27240199625E-01 -0.47312868702E-02  0.72479296532E-01  0.77575273753E-01  0.51100000000E-03 0.  1.
</event>
<event>
 8    1  0.1122848E+005  0.1043930E+01  0.7957747E-01            NaN
         13   -1    0    0    0    0  0.00000000000E+00  0.00000000000E+00  0.74505805969E-08  0.10566000000E+00  0.10566000000E+00 0. -1.
     999900   -1    0    0    0    0 -0.00000000000E+00 -0.00000000000E+00 -0.74505805969E-08  0.93827000000E+00  0.93827000000E+00 0.  1.
     999902    2    1    2    0    0 -0.11295906418E-01  0.20735162353E-01 -0.13813030060E-02  0.10202772526E+01  0.10200030489E+01 0.  0.
     999903    2    3    3    0    0  0.13702380960E-01  0.97593254647E-01  0.85802361875E-01  0.13228340573E+00  0.20607171882E-01 0.  0.
         14    1    1    2    0    0  0.11295906418E-01 -0.20735162353E-01  0.13813030060E-02  0.23652747358E-01  0.00000000000E+00 0. -1.
     999901    1    3    3    0    0 -0.24998287378E-01 -0.76858092294E-01 -0.87183664881E-01  0.88799384691E+00  0.88000000000E+00 0. -1.
        -11    1    4    4    0    0  0.14184442058E-01  0.47571506215E-01  0.52091393686E-01  0.71958467307E-01  0.51100000000E-03 0. -1.
         11    1    4    4    0    0 -0.48206109786E-03  0.50021748432E-01  0.33710968189E-01  0.60324938428E-01  0.51100000000E-03 0.  1.
</event>
<event>
 8    1  0.1122848E+005  0.1043930E+01  0.7957747E-01            NaN
         13   -1    0    0    0    0  0.00000000000E+00  0.00000000000E+00  0.74505805969E-08  0.10566000000E+00  0.10566000000E+00 0.  1.
     999900   -1    0    0    0    0 -0.00000000000E+00 -0.00000000000E+00 -0.74505805969E-08  0.93827000000E+00  0.93827000000E+00 0.  1.
     999902    2    1    2    0    0  0.41275591994E-02  0.17859031065E-01 -0.13831847554E-01  0.10209669483E+01  0.10207086792E+01 0.  0.
     999903    2    3    3    0    0  0.83861687771E-01 -0.26118413587E-01  0.93547696730E-01  0.12977565941E+00  0.19380299500E-01 0.  0.
         14    1    1    2    0    0 -0.41275591994E-02 -0.17859031065E-01  0.13831847554E-01  0.22963051677E-01  0.00000000000E+00 0.  1.
     999901    1    3    3    0    0 -0.79734128572E-01  0.43977444653E-01 -0.10737954428E+00  0.89119128891E+00  0.88000000000E+00 0.  1.
        -11    1    4    4    0    0  0.29578839729E-01 -0.18813695664E-01  0.39722370775E-01  0.52981041564E-01  0.51100000000E-03 0. -1.
         11    1    4    4    0    0  0.54282848042E-01 -0.73047179231E-02  0.53825325955E-01  0.76794617850E-01  0.51100000000E-03 0.  1.
</event>
<event>
 8    1  0.1122848E+005  0.1043930E+01  0.7957747E-01            NaN
         13   -1    0    0    0    0  0.00000000000E+00  0.00000000000E+00  0.74505805969E-08  0.10566000000E+00  0.10566000000E+00 0.  1.
     999900   -1    0    0    0    0 -0.00000000000E+00 -0.00000000000E+00 -0.74505805969E-08  0.93827000000E+00  0.93827000000E+00 0.  1.
     999902    2    1    2    0    0  0.11156771519E-01 -0.18122213661E-01 -0.10303338322E-01  0.10202858261E+01  0.10200118235E+01 0.  0.
     999903    2    3    3    0    0  0.38205902908E-01  0.32214592833E-01  0.11686470317E+00  0.12931042780E+00  0.23798253796E-01 0.  0.
         14    1    1    2    0    0 -0.11156771519E-01  0.18122213661E-01  0.10303338322E-01  0.23644173897E-01  0.00000000000E+00 0.  1.
     999901    1    3    3    0    0 -0.27049131389E-01 -0.50336806494E-01 -0.12716804149E+00  0.89097539830E+00  0.88000000000E+00 0.  1.
        -11    1    4    4    0    0  0.31885474360E-01  0.24794798459E-01  0.11051622701E+00  0.11766717069E+00  0.51100000000E-03 0. -1.
         11    1    4    4    0    0  0.63204285473E-02  0.74197943747E-02  0.63484761597E-02  0.11643257110E-01  0.51100000000E-03 0.  1.
</event>
<event>
 8    1  0.1122848E+005  0.1043930E+01  0.7957747E-01            NaN
         13   -1    0    0    0    0  0.00000000000E+00  0.00000000000E+00  0.74505805969E-08  0.10566000000E+00  0.10566000000E+00 0.  1.
     999900   -1    0    0    0    0 -0.00000000000E+00 -0.00000000000E+00 -0.74505805969E-08  0.93827000000E+00  0.93827000000E+00 0.  1.
     999902    2    1    2    0    0 -0.41681140815E-02  0.15117947931E-01  0.17618870455E-01  0.10203429247E+01  0.10200702593E+01 0.  0.
     999903    2    3    3    0    0  0.12281544013E+00 -0.34383222671E-01  0.14250265678E-01  0.12984500982E+00  0.19769121577E-01 0.  0.
         14    1    1    2    0    0  0.41681140815E-02 -0.15117947931E-01 -0.17618870455E-01  0.23587075291E-01  0.00000000000E+00 0. -1.
     999901    1    3    3    0    0 -0.12698355421E+00  0.49501170602E-01  0.33686047779E-02  0.89049791489E+00  0.88000000000E+00 0.  1.
        -11    1    4    4    0    0  0.40175911172E-01 -0.71044930531E-02 -0.37556258107E-02  0.40974913133E-01  0.51100000000E-03 0.  1.
         11    1    4    4    0    0  0.82639528953E-01 -0.27278729618E-01  0.18005891488E-01  0.88870096683E-01  0.51100000000E-03 0. -1.
</event>
<event>
 8    1  0.1122848E+005  0.1043930E+01  0.7957747E-01            NaN
         13   -1    0    0    0    0  0.00000000000E+00  0.00000000000E+00  0.74505805969E-08  0.10566000000E+00  0.10566000000E+00 0. -1.
     999900   -1    0    0    0    0 -0.00000000000E+00 -0.00000000000E+00 -0.74505805969E-08  0.93827000000E+00  0.93827000000E+00 0. -1.
     999902    2    1    2    0    0 -0.43420051171E-02  0.14303037918E-01 -0.17727160236E-01  0.10207420266E+01  0.10204786145E+01 0.  0.
     999903    2    3    3    0    0 -0.44746915258E-01 -0.11405832652E+00  0.33471361445E-01  0.12904113205E+00  0.22796785976E-01 0.  0.
         14    1    1    2    0    0  0.43420051171E-02 -0.14303037918E-01  0.17727160236E-01  0.23187973438E-01  0.00000000000E+00 0. -1.
     999901    1    3    3    0    0  0.40404910141E-01  0.12836136444E+00 -0.51198521681E-01  0.89170089451E+00  0.88000000000E+00 0.  1.
        -11    1    4    4    0    0 -0.41271328950E-01 -0.77167021898E-01  0.21763909838E-01  0.90177606723E-01  0.51100000000E-03 0. -1.
         11    1    4    4    0    0 -0.34755863080E-02 -0.36891304624E-01  0.11707451607E-01  0.38863525331E-01  0.51100000000E-03 0.  1.
</event>
<event>
 8    1  0.1122848E+005  0.1043930E+01  0.7957747E-01            NaN
         13   -1    0    0    0    0  0.00000000000E+00  0.00000000000E+00  0.74505805969E-08  0.10566000000E+00  0.10566000000E+00 0.  1.
     999900   -1    0    0    0    0 -0.00000000000E+00 -0.00000000000E+00 -0.74505805969E-08  0.93827000000E+00  0.93827000000E+00 0. -1.
     999902    2    1    2    0    0  0.18254412281E-03  0.21156736123E-01 -0.10124236322E-01  0.10204749160E+01  0.10202053289E+01 0.  0.
     999903    2    3    3    0    0 -0.11698148053E+00  0.57711498603E-01 -0.33530879915E-02  0.13193144051E+00  0.19477626601E-01 0.  0.
         14    1    1    2    0    0 -0.18254412281E-03 -0.21156736123E-01  0.10124236322E-01  0.23455084030E-01  0.00000000000E+00 0.  1.
     999901    1    3    3    0    0  0.11716402465E+00 -0.36554762480E-01 -0.67711483302E-02  0.88854347546E+00  0.88000000000E+00 0. -1.
        -11    1    4    4    0    0 -0.90964367209E-01  0.45369111324E-01 -0.10684977997E-01  0.10221204547E+00  0.51100000000E-03 0.  1.
         11    1    4    4    0    0 -0.26017113321E-01  0.12342387280E-01  0.73318900052E-02  0.29719395037E-01  0.51100000000E-03 0. -1.
</event>
<event>
 8    1  0.1122848E+005  0.1043930E+01  0.7957747E-01            NaN
         13   -1    0    0    0    0  0.00000000000E+00  0.00000000000E+00  0.74505805969E-08  0.10566000000E+00  0.10566000000E+00 0. -1.
     999900   -1    0    0    0    0 -0.00000000000E+00 -0.00000000000E+00 -0.74505805969E-08  0.93827000000E+00  0.93827000000E+00 0.  1.
     999902    2    1    2    0    0 -0.28851643970E-02 -0.19831394552E-01  0.12175374941E-01  0.10204811591E+01  0.10202117172E+01 0.  0.
     999903    2    3    3    0    0 -0.66523792803E-01  0.12981108872E-01  0.11144330229E+00  0.13201019347E+00  0.20326272623E-01 0.  0.
         14    1    1    2    0    0  0.28851643970E-02  0.19831394552E-01 -0.12175374941E-01  0.23448840876E-01  0.00000000000E+00 0. -1.
     999901    1    3    3    0    0  0.63638628406E-01 -0.32812503424E-01 -0.99267927349E-01  0.88847096565E+00  0.88000000000E+00 0.  1.
        -11    1    4    4    0    0 -0.42702541250E-01  0.49578878659E-02  0.52015278709E-01  0.67482872060E-01  0.51100000000E-03 0. -1.
         11    1    4    4    0    0 -0.23821251553E-01  0.80232210061E-02  0.59428023580E-01  0.64527321412E-01  0.51100000000E-03 0.  1.
</event>
<event>
 8    1  0.1122848E+005  0.1043930E+01  0.7957747E-01            NaN
         13   -1    0    0    0    0  0.00000000000E+00  0.00000000000E+00  0.74505805969E-08  0.10566000000E+00  0.10566000000E+00 0. -1.
     999900   -1    0    0    0    0 -0.00000000000E+00 -0.00000000000E+00 -0.74505805969E-08  0.93827000000E+00  0.93827000000E+00 0. -1.
     999902    2    1    2    0    0 -0.13320328292E-01  0.19245398438E-01 -0.13459641071E-01  0.10169303992E+01  0.10165719150E+01 0.  0.
     999903    2    3    3    0    0 -0.32548054884E-01 -0.10052499019E-01 -0.12318596541E+00  0.12942381412E+00  0.20379229018E-01 0.  0.
         14    1    1    2    0    0  0.13320328292E-01 -0.19245398438E-01  0.13459641071E-01  0.26999600823E-01  0.00000000000E+00 0. -1.
     999901    1    3    3    0    0  0.19227726592E-01  0.29297897457E-01  0.10972632434E+00  0.88750658506E+00  0.88000000000E+00 0.  1.
        -11    1    4    4    0    0 -0.23098591600E-01 -0.14780276553E-01 -0.69710355821E-01  0.74911923875E-01  0.51100000000E-03 0. -1.
         11    1    4    4    0    0 -0.94494632833E-02  0.47277775333E-02 -0.53475609585E-01  0.54511890246E-01  0.51100000000E-03 0.  1.
</event>
<event>
 8    1  0.1122848E+005  0.1043930E+01  0.7957747E-01            NaN
         13   -1    0    0    0    0  0.00000000000E+00  0.00000000000E+00  0.74505805969E-08  0.10566000000E+00  0.10566000000E+00 0. -1.
     999900   -1    0    0    0    0 -0.00000000000E+00 -0.00000000000E+00 -0.74505805969E-08  0.93827000000E+00  0.93827000000E+00 0.  1.
     999902    2    1    2    0    0  0.15231161252E-01  0.15965506418E-01 -0.77074634569E-02  0.10205571384E+01  0.10202894599E+01 0.  0.
     999903    2    3    3    0    0  0.10106375672E-02  0.84461247116E-01 -0.10062134683E+00  0.13290468412E+00  0.20106615130E-01 0.  0.
         14    1    1    2    0    0 -0.15231161252E-01 -0.15965506418E-01  0.77074634569E-02  0.23372861639E-01  0.00000000000E+00 0. -1.
     999901    1    3    3    0    0  0.14220523685E-01 -0.68495740698E-01  0.92913883372E-01  0.88765245424E+00  0.88000000000E+00 0. -1.
        -11    1    4    4    0    0 -0.70203442101E-02  0.35086769215E-01 -0.52152822525E-01  0.63249858696E-01  0.51100000000E-03 0. -1.
         11    1    4    4    0    0  0.80309817773E-02  0.49374477901E-01 -0.48468524304E-01  0.69654825429E-01  0.51100000000E-03 0.  1.
</event>
<event>
 8    1  0.1122848E+005  0.1043930E+01  0.7957747E-01            NaN
         13   -1    0    0    0    0  0.00000000000E+00  0.00000000000E+00  0.74505805969E-08  0.10566000000E+00  0.10566000000E+00 0.  1.
     999900   -1    0    0    0    0 -0.00000000000E+00 -0.00000000000E+00 -0.74505805969E-08  0.93827000000E+00  0.93827000000E+00 0. -1.
     999902    2    1    2    0    0  0.16143886972E-01  0.23445908661E-02  0.17549057193E-01  0.10199697913E+01  0.10196883267E+01 0.  0.
     999903    2    3    3    0    0  0.56553415176E-01 -0.62506725027E-01  0.10060654629E+00  0.13276227913E+00  0.19969130210E-01 0.  0.
         14    1    1    2    0    0 -0.16143886972E-01 -0.23445908661E-02 -0.17549057193E-01  0.23960208706E-01  0.00000000000E+00 0. -1.
     999901    1    3    3    0    0 -0.40409528204E-01  0.64851315893E-01 -0.83057489100E-01  0.88720751216E+00  0.88000000000E+00 0. -1.
        -11    1    4    4    0    0  0.38755499551E-01 -0.37789316815E-01  0.77473883919E-01  0.94511824770E-01  0.51100000000E-03 0. -1.
         11    1    4    4    0    0  0.17797915625E-01 -0.24717408212E-01  0.23132662373E-01  0.38250454361E-01  0.51100000000E-03 0.  1.
</event>
<event>
 8    1  0.1122848E+005  0.1043930E+01  0.7957747E-01            NaN
         13   -1    0    0    0    0  0.00000000000E+00  0.00000000000E+00  0.74505805969E-08  0.10566000000E+00  0.10566000000E+00 0. -1.
     999900   -1    0    0    0    0 -0.00000000000E+00 -0.00000000000E+00 -0.74505805969E-08  0.93827000000E+00  0.93827000000E+00 0. -1.
     999902    2    1    2    0    0 -0.17365112388E-01 -0.13778701628E-01  0.72045592957E-02  0.10206210871E+01  0.10203548882E+01 0.  0.
     999903    2    3    3    0    0  0.26992672079E-02  0.37628684078E-03  0.13004322282E+00  0.13174973515E+00  0.20960087677E-01 0.  0.
         14    1    1    2    0    0  0.17365112388E-01  0.13778701628E-01 -0.72045592957E-02  0.23308912918E-01  0.00000000000E+00 0.  1.
     999901    1    3    3    0    0 -0.20064379596E-01 -0.14154988469E-01 -0.12283866352E+00  0.88887135193E+00  0.88000000000E+00 0. -1.
        -11    1    4    4    0    0  0.94564793865E-02 -0.36656945954E-02  0.10507131053E+00  0.10556090061E+00  0.51100000000E-03 0.  1.
         11    1    4    4    0    0 -0.67572121785E-02  0.40419814361E-02  0.24971912291E-01  0.26188834545E-01  0.51100000000E-03 0. -1.
</event>
<event>
 8    1  0.1122848E+005  0.1043930E+01  0.7957747E-01            NaN
         13   -1    0    0    0    0  0.00000000000E+00  0.00000000000E+00  0.74505805969E-08  0.10566000000E+00  0.10566000000E+00 0.  1.
     999900   -1    0    0    0    0 -0.00000000000E+00 -0.00000000000E+00 -0.74505805969E-08  0.93827000000E+00  0.93827000000E+00 0.  1.
     999902    2    1    2    0    0 -0.17771988842E-01 -0.14952010501E-01  0.67286552497E-02  0.10197498220E+01  0.10194631031E+01 0.  0.
     999903    2    3    3    0    0  0.35167673066E-01  0.12076847565E+00 -0.10069644667E-01  0.12761483166E+00  0.19035692159E-01 0.  0.
         14    1    1    2    0    0  0.17771988842E-01  0.14952010501E-01 -0.67286552497E-02  0.24180177975E-01  0.00000000000E+00 0.  1.
     999901    1    3    3    0    0 -0.52939661908E-01 -0.13572048615E+00  0.16798299917E-01  0.89213499037E+00  0.88000000000E+00 0. -1.
        -11    1    4    4    0    0  0.85789770987E-02  0.56155078466E-01 -0.10339703893E-01  0.57742205389E-01  0.51100000000E-03 0. -1.
         11    1    4    4    0    0  0.26588695967E-01  0.64613397180E-01  0.27005922620E-03  0.69872626266E-01  0.51100000000E-03 0.  1.
</event>
<event>
 8    1  0.1122848E+005  0.1043930E+01  0.7957747E-01            NaN
         13   -1    0    0    0    0  0.00000000000E+00  0.00000000000E+00  0.74505805969E-08  0.10566000000E+00  0.10566000000E+00 0.  1.
     999900   -1    0    0    0    0 -0.00000000000E+00 -0.00000000000E+00 -0.74505805969E-08  0.93827000000E+00  0.93827000000E+00 0. -1.
     999902    2    1    2    0    0 -0.15146178800E-01  0.10159772669E-01  0.13420156428E-01  0.10212864952E+01  0.10210354435E+01 0.  0.
     999903    2    3    3    0    0  0.59185662153E-01  0.11612800328E+00  0.54145710191E-02  0.13178181396E+00  0.18667435817E-01 0.  0.
         14    1    1    2    0    0  0.15146178800E-01 -0.10159772669E-01 -0.13420156428E-01  0.22643504841E-01  0.00000000000E+00 0. -1.
     999901    1    3    3    0    0 -0.74331840953E-01 -0.10596823061E+00  0.80055854094E-02  0.88950468120E+00  0.88000000000E+00 0. -1.
        -11    1    4    4    0    0  0.49023879263E-01  0.82344643788E-01 -0.14136797228E-02  0.95844878370E-01  0.51100000000E-03 0. -1.
         11    1    4    4    0    0  0.10161782890E-01  0.33783359495E-01  0.68282507419E-02  0.35936935588E-01  0.51100000000E-03 0.  1.
</event>
<event>
 8    1  0.1122848E+005  0.1043930E+01  0.7957747E-01            NaN
         13   -1    0    0    0    0  0.00000000000E+00  0.00000000000E+00  0.74505805969E-08  0.10566000000E+00  0.10566000000E+00 0.  1.
     999900   -1    0    0    0    0 -0.00000000000E+00 -0.00000000000E+00 -0.74505805969E-08  0.93827000000E+00  0.93827000000E+00 0. -1.
     999902    2    1    2    0    0 -0.61790876570E-02 -0.31737745638E-02  0.23313359743E-01  0.10196037444E+01  0.10193135086E+01 0.  0.
     999903    2    3    3    0    0 -0.10175168738E-01  0.12489719004E+00 -0.23220301884E-01  0.12910752189E+00  0.20657387260E-01 0.  0.
         14    1    1    2    0    0  0.61790876570E-02  0.31737745638E-02 -0.23313359743E-01  0.24326255605E-01  0.00000000000E+00 0. -1.
     999901    1    3    3    0    0  0.39960810811E-02 -0.12807096461E+00  0.46533661628E-01  0.89049622251E+00  0.88000000000E+00 0. -1.
        -11    1    4    4    0    0 -0.13953417283E-01  0.74034178765E-01 -0.73860700554E-02  0.75700545779E-01  0.51100000000E-03 0.  1.
         11    1    4    4    0    0  0.37782485446E-02  0.50863011277E-01 -0.15834231829E-01  0.53406976107E-01  0.51100000000E-03 0. -1.
</event>
<event>
 8    1  0.1122848E+005  0.1043930E+01  0.7957747E-01            NaN
         13   -1    0    0    0    0  0.00000000000E+00  0.00000000000E+00  0.74505805969E-08  0.10566000000E+00  0.10566000000E+00 0.  1.
     999900   -1    0    0    0    0 -0.00000000000E+00 -0.00000000000E+00 -0.74505805969E-08  0.93827000000E+00  0.93827000000E+00 0. -1.
     999902    2    1    2    0    0  0.60699552114E-02 -0.17571644665E-01 -0.17509635340E-01  0.10183919033E+01  0.10180716450E+01 0.  0.
     999903    2    3    3    0    0 -0.16700730907E-02  0.37930221914E-01  0.11865144906E+00  0.12615863441E+00  0.19908385054E-01 0.  0.
         14    1    1    2    0    0 -0.60699552114E-02  0.17571644665E-01  0.17509635340E-01  0.25538096684E-01  0.00000000000E+00 0.  1.
     999901    1    3    3    0    0  0.77400283021E-02 -0.55501866579E-01 -0.13616108440E+00  0.89223326890E+00  0.88000000000E+00 0. -1.
        -11    1    4    4    0    0 -0.28323268319E-02  0.12801791131E-01  0.17198536917E-01  0.21632353652E-01  0.51100000000E-03 0.  1.
         11    1    4    4    0    0  0.11622537412E-02  0.25128430783E-01  0.10145291214E+00  0.10452628076E+00  0.51100000000E-03 0. -1.
</event>
<event>
 8    1  0.1122848E+005  0.1043930E+01  0.7957747E-01            NaN
         13   -1    0    0    0    0  0.00000000000E+00  0.00000000000E+00  0.74505805969E-08  0.10566000000E+00  0.10566000000E+00 0. -1.
     999900   -1    0    0    0    0 -0.00000000000E+00 -0.00000000000E+00 -0.74505805969E-08  0.93827000000E+00  0.93827000000E+00 0.  1.
     999902    2    1    2    0    0 -0.11714477163E-01 -0.20827757136E-01 -0.14565574712E-02  0.10199895321E+01  0.10197085366E+01 0.  0.
     999903    2    3    3    0    0 -0.33708447004E-01 -0.12400764678E-01  0.12378366202E+00  0.13081021304E+00  0.22335587932E-01 0.  0.
         14    1    1    2    0    0  0.11714477163E-01  0.20827757136E-01  0.14565574712E-02  0.23940467878E-01  0.00000000000E+00 0. -1.
     999901    1    3    3    0    0  0.21993969840E-01 -0.84269924578E-02 -0.12524021949E+00  0.88917931909E+00  0.88000000000E+00 0.  1.
        -11    1    4    4    0    0 -0.10790852824E-01  0.53092174983E-02  0.23178314919E-01  0.26117536227E-01  0.51100000000E-03 0.  1.
         11    1    4    4    0    0 -0.22917594180E-01 -0.17709982176E-01  0.10060534710E+00  0.10469267681E+00  0.51100000000E-03 0. -1.
</event>
<event>
 8    1  0.1122848E+005  0.1043930E+01  0.7957747E-01            NaN
         13   -1    0    0    0    0  0.00000000000E+00  0.00000000000E+00  0.74505805969E-08  0.10566000000E+00  0.10566000000E+00 0.  1.
     999900   -1    0    0    0    0 -0.00000000000E+00 -0.00000000000E+00 -0.74505805969E-08  0.93827000000E+00  0.93827000000E+00 0. -1.
     999902    2    1    2    0    0 -0.62115262748E-02  0.21900940607E-01  0.42494210017E-02  0.10207720243E+01  0.10205093012E+01 0.  0.
     999903    2    3    3    0    0 -0.75088540712E-01 -0.79995365524E-01 -0.66253808388E-01  0.12942607260E+00  0.17999824736E-01 0.  0.
         14    1    1    2    0    0  0.62115262748E-02 -0.21900940607E-01 -0.42494210017E-02  0.23157975667E-01  0.00000000000E+00 0. -1.
     999901    1    3    3    0    0  0.68877014438E-01  0.10189630613E+00  0.70503229389E-01  0.89134595174E+00  0.88000000000E+00 0.  1.
        -11    1    4    4    0    0 -0.18477860003E-01 -0.10642091010E-01 -0.16784343519E-01  0.27141494427E-01  0.51100000000E-03 0. -1.
         11    1    4    4    0    0 -0.56610680709E-01 -0.69353274514E-01 -0.49469464868E-01  0.10228457817E+00  0.51100000000E-03 0.  1.
</event>
<event>
 8    1  0.1122848E+005  0.1043930E+01  0.7957747E-01            NaN
         13   -1    0    0    0    0  0.00000000000E+00  0.00000000000E+00  0.74505805969E-08  0.10566000000E+00  0.10566000000E+00 0.  1.
     999900   -1    0    0    0    0 -0.00000000000E+00 -0.00000000000E+00 -0.74505805969E-08  0.93827000000E+00  0.93827000000E+00 0. -1.
     999902    2    1    2    0    0 -0.10727902194E-02 -0.16041965611E-02 -0.29296503984E-01  0.10145700022E+01  0.10141450980E+01 0.  0.
     999903    2    3    3    0    0 -0.41713429030E-01  0.76747285784E-01  0.83956559817E-01  0.12293281546E+00  0.20823475782E-01 0.  0.
         14    1    1    2    0    0  0.10727902194E-02  0.16041965611E-02  0.29296503984E-01  0.29359997805E-01  0.00000000000E+00 0.  1.
     999901    1    3    3    0    0  0.40640638811E-01 -0.78351482345E-01 -0.11325306380E+00  0.89163718674E+00  0.88000000000E+00 0.  1.
        -11    1    4    4    0    0 -0.32690417662E-01  0.59532344099E-01  0.52054335426E-01  0.85572649594E-01  0.51100000000E-03 0.  1.
         11    1    4    4    0    0 -0.90230113687E-02  0.17214941685E-01  0.31902224391E-01  0.37360165865E-01  0.51100000000E-03 0. -1.
</event>
<event>
 8    1  0.1122848E+005  0.1043930E+01  0.7957747E-01            NaN
         13   -1    0    0    0    0  0.00000000000E+00  0.00000000000E+00  0.74505805969E-08  0.10566000000E+00  0.10566000000E+00 0. -1.
     999900   -1    0    0    0    0 -0.00000000000E+00 -0.00000000000E+00 -0.74505805969E-08  0.93827000000E+00  0.93827000000E+00 0. -1.
     999902    2    1    2    0    0  0.67470010706E-02  0.21531983618E-01  0.95082699734E-02  0.10194441768E+01  0.10191500743E+01 0.  0.
     999903    2    3    3    0    0  0.34129291892E-01 -0.10994058310E+00  0.52993927408E-01  0.12819458879E+00  0.19332766916E-01 0.  0.
         14    1    1    2    0    0 -0.67470010706E-02 -0.21531983618E-01 -0.95082699734E-02  0.24485823243E-01  0.00000000000E+00 0.  1.
     999901    1    3    3    0    0 -0.27382290821E-01  0.13147256671E+00 -0.43485657435E-01  0.89124958797E+00  0.88000000000E+00 0. -1.
        -11    1    4    4    0    0  0.31080271063E-01 -0.79674152837E-01  0.45447178576E-01  0.96848650177E-01  0.51100000000E-03 0. -1.
         11    1    4    4    0    0  0.30490208283E-02 -0.30266430259E-01  0.75467488320E-02  0.31345938613E-01  0.51100000000E-03 0.  1.
</event>
<event>
 8    1  0.1122848E+005  0.1043930E+01  0.7957747E-01            NaN
         13   -1    0    0    0    0  0.00000000000E+00  0.00000000000E+00  0.74505805969E-08  0.10566000000E+00  0.10566000000E+00 0. -1.
     999900   -1    0    0    0    0 -0.00000000000E+00 -0.00000000000E+00 -0.74505805969E-08  0.93827000000E+00  0.93827000000E+00 0.  1.
     999902    2    1    2    0    0  0.74766312846E-02  0.20446300457E-01 -0.79881534478E-02  0.10207403080E+01  0.10204768565E+01 0.  0.
     999903    2    3    3    0    0 -0.12439606005E-01  0.54741960476E-01  0.11684333613E+00  0.13104611923E+00  0.19217027170E-01 0.  0.
         14    1    1    2    0    0 -0.74766312846E-02 -0.20446300457E-01  0.79881534478E-02  0.23189691961E-01  0.00000000000E+00 0.  1.
     999901    1    3    3    0    0  0.19916237289E-01 -0.34295660019E-01 -0.12483148958E+00  0.88969418881E+00  0.88000000000E+00 0.  1.
        -11    1    4    4    0    0 -0.58552201253E-02  0.21036722716E-02  0.10850666251E-01  0.12518271399E-01  0.51100000000E-03 0. -1.
         11    1    4    4    0    0 -0.65843858794E-02  0.52638288205E-01  0.10599266988E+00  0.11852784783E+00  0.51100000000E-03 0.  1.
</event>
<event>
 8    1  0.1122848E+005  0.1043930E+01  0.7957747E-01            NaN
         13   -1    0    0    0    0  0.00000000000E+00  0.00000000000E+00  0.74505805969E-08  0.10566000000E+00  0.10566000000E+00 0. -1.
     999900   -1    0    0    0    0 -0.00000000000E+00 -0.00000000000E+00 -0.74505805969E-08  0.93827000000E+00  0.93827000000E+00 0. -1.
     999902    2    1    2    0    0 -0.15114105313E-01 -0.17917345737E-01  0.50653808904E-02  0.10199482248E+01  0.10196662472E+01 0.  0.
     999903    2    3    3    0    0 -0.24920396995E-01 -0.15245641712E-01  0.12666073592E+00  0.13152899285E+00  0.20086765726E-01 0.  0.
         14    1    1    2    0    0  0.15114105313E-01  0.17917345737E-01 -0.50653808904E-02  0.23981775189E-01  0.00000000000E+00 0. -1.
     999901    1    3    3    0    0  0.98062916816E-02 -0.26717040250E-02 -0.12159535503E+00  0.88841923196E+00  0.88000000000E+00 0. -1.
        -11    1    4    4    0    0 -0.61239171254E-02 -0.15346724963E-01  0.53929685495E-01  0.56406528227E-01  0.51100000000E-03 0. -1.
         11    1    4    4    0    0 -0.18796479869E-01  0.10108325066E-03  0.72731050427E-01  0.75122464619E-01  0.51100000000E-03 0.  1.
</event>
<event>
 8    1  0.1122848E+005  0.1043930E+01  0.7957747E-01            NaN
         13   -1    0    0    0    0  0.00000000000E+00  0.00000000000E+00  0.74505805969E-08  0.10566000000E+00  0.10566000000E+00 0.  1.
     999900   -1    0    0    0    0 -0.00000000000E+00 -0.00000000000E+00 -0.74505805969E-08  0.93827000000E+00  0.93827000000E+00 0.  1.
     999902    2    1    2    0    0  0.22899684995E-01  0.77253401915E-02 -0.59949646213E-02  0.10190298784E+01  0.10187256142E+01 0.  0.
     999903    2    3    3    0    0  0.54557754790E-01  0.34188746806E-01 -0.11349322014E+00  0.13152865577E+00  0.16542589099E-01 0.  0.
         14    1    1    2    0    0 -0.22899684995E-01 -0.77253401915E-02  0.59949646213E-02  0.24900121581E-01  0.00000000000E+00 0.  1.
     999901    1    3    3    0    0 -0.31658069795E-01 -0.26463406615E-01  0.10749825552E+00  0.88750122265E+00  0.88000000000E+00 0. -1.
        -11    1    4    4    0    0  0.26390403016E-01  0.81154877450E-02 -0.39869827762E-01  0.48499265968E-01  0.51100000000E-03 0. -1.
         11    1    4    4    0    0  0.28167351774E-01  0.26073259061E-01 -0.73623392377E-01  0.83029389798E-01  0.51100000000E-03 0.  1.
</event>
<event>
 8    1  0.1122848E+005  0.1043930E+01  0.7957747E-01            NaN
         13   -1    0    0    0    0  0.00000000000E+00  0.00000000000E+00  0.74505805969E-08  0.10566000000E+00  0.10566000000E+00 0. -1.
     999900   -1    0    0    0    0 -0.00000000000E+00 -0.00000000000E+00 -0.74505805969E-08  0.93827000000E+00  0.93827000000E+00 0.  1.
     999902    2    1    2    0    0 -0.12363171176E-01 -0.66078862818E-02  0.19063804788E-01  0.10202669314E+01  0.10199924855E+01 0.  0.
     999903    2    3    3    0    0 -0.10730054442E-01 -0.12089691749E+00  0.49046872322E-01  0.13236849460E+00  0.19611831963E-01 0.  0.
         14    1    1    2    0    0  0.12363171176E-01  0.66078862818E-02 -0.19063804788E-01  0.23663068602E-01  0.00000000000E+00 0.  1.
     999901    1    3    3    0    0 -0.16331167346E-02  0.11428903120E+00 -0.29983067533E-01  0.88789843679E+00  0.88000000000E+00 0. -1.
        -11    1    4    4    0    0 -0.12252917921E-01 -0.36688561043E-01  0.13897848758E-01  0.41104693529E-01  0.51100000000E-03 0. -1.
         11    1    4    4    0    0  0.15228634797E-02 -0.84208356444E-01  0.35149023564E-01  0.91263801075E-01  0.51100000000E-03 0.  1.
</event>
<event>
 8    1  0.1122848E+005  0.1043930E+01  0.7957747E-01            NaN
         13   -1    0    0    0    0  0.00000000000E+00  0.00000000000E+00  0.74505805969E-08  0.10566000000E+00  0.10566000000E+00 0. -1.
     999900   -1    0    0    0    0 -0.00000000000E+00 -0.00000000000E+00 -0.74505805969E-08  0.93827000000E+00  0.93827000000E+00 0.  1.
     999902    2    1    2    0    0 -0.72375480778E-02 -0.67067279097E-02 -0.21650843062E-01  0.10201366962E+01  0.10198591852E+01 0.  0.
     999903    2    3    3    0    0 -0.43388737575E-01 -0.80627163834E-01 -0.94692959151E-01  0.13328479757E+00  0.20365624305E-01 0.  0.
         14    1    1    2    0    0  0.72375480778E-02  0.67067279097E-02  0.21650843062E-01  0.23793303821E-01  0.00000000000E+00 0. -1.
     999901    1    3    3    0    0  0.36151189497E-01  0.73920435924E-01  0.73042116089E-01  0.88685189861E+00  0.88000000000E+00 0. -1.
        -11    1    4    4    0    0 -0.40971609299E-01 -0.66839976698E-01 -0.71051912307E-01  0.10580591012E+00  0.51100000000E-03 0. -1.
         11    1    4    4    0    0 -0.24171282754E-02 -0.13787187136E-01 -0.23641046844E-01  0.27478887443E-01  0.51100000000E-03 0.  1.
</event>
<event>
 8    1  0.1122848E+005  0.1043930E+01  0.7957747E-01            NaN
         13   -1    0    0    0    0  0.00000000000E+00  0.00000000000E+00  0.74505805969E-08  0.10566000000E+00  0.10566000000E+00 0. -1.
     999900   -1    0    0    0    0 -0.00000000000E+00 -0.00000000000E+00 -0.74505805969E-08  0.93827000000E+00  0.93827000000E+00 0. -1.
     999902    2    1    2    0    0  0.19857947072E-01  0.11884214197E-01 -0.60696034018E-02  0.10200048523E+01  0.10197242205E+01 0.  0.
     999903    2    3    3    0    0 -0.22678507468E-01  0.71428327608E-02 -0.12695341357E+00  0.13071034186E+00  0.20067124666E-01 0.  0.
         14    1    1    2    0    0 -0.19857947072E-01 -0.11884214197E-01  0.60696034018E-02  0.23925147742E-01  0.00000000000E+00 0.  1.
     999901    1    3    3    0    0  0.42536454540E-01  0.47413814361E-02  0.12088381017E+00  0.88929451040E+00  0.88000000000E+00 0.  1.
        -11    1    4    4    0    0 -0.12375398867E-01  0.89891270993E-03 -0.23711883296E-01  0.26767014620E-01  0.51100000000E-03 0.  1.
         11    1    4    4    0    0 -0.10303108600E-01  0.62439200508E-02 -0.10324153027E+00  0.10394332724E+00  0.51100000000E-03 0. -1.
</event>
<event>
 8    1  0.1122848E+005  0.1043930E+01  0.7957747E-01            NaN
         13   -1    0    0    0    0  0.00000000000E+00  0.00000000000E+00  0.74505805969E-08  0.10566000000E+00  0.10566000000E+00 0. -1.
     999900   -1    0    0    0    0 -0.00000000000E+00 -0.00000000000E+00 -0.74505805969E-08  0.93827000000E+00  0.93827000000E+00 0. -1.
     999902    2    1    2    0    0 -0.16124828906E-01 -0.18110494886E-02  0.18847727806E-01  0.10190597999E+01  0.10187562756E+01 0.  0.
     999903    2    3    3    0    0  0.41541474509E-01  0.10352683558E+00 -0.57859332467E-01  0.12759726810E+00  0.22132796569E-01 0.  0.
         14    1    1    2    0    0  0.16124828906E-01  0.18110494886E-02 -0.18847727806E-01  0.24870200058E-01  0.00000000000E+00 0. -1.
     999901    1    3    3    0    0 -0.57666303414E-01 -0.10533788507E+00  0.76707060273E-01  0.89146253184E+00  0.88000000000E+00 0.  1.
        -11    1    4    4    0    0  0.29279162319E-01  0.43512290920E-01 -0.25502913072E-01  0.58320223794E-01  0.51100000000E-03 0. -1.
         11    1    4    4    0    0  0.12262312189E-01  0.60014544659E-01 -0.32356419395E-01  0.69277044307E-01  0.51100000000E-03 0.  1.
</event>
<event>
 8    1  0.1122848E+005  0.1043930E+01  0.7957747E-01            NaN
         13   -1    0    0    0    0  0.00000000000E+00  0.00000000000E+00  0.74505805969E-08  0.10566000000E+00  0.10566000000E+00 0. -1.
     999900   -1    0    0    0    0 -0.00000000000E+00 -0.00000000000E+00 -0.74505805969E-08  0.93827000000E+00  0.93827000000E+00 0.  1.
     999902    2    1    2    0    0 -0.21831454167E-01  0.21612541810E-02 -0.87665110838E-02  0.10203051164E+01  0.10200315659E+01 0.  0.
     999903    2    3    3    0    0  0.10538637418E-01  0.85483927680E-01 -0.96941952236E-01  0.13139263519E+00  0.21159340927E-01 0.  0.
         14    1    1    2    0    0  0.21831454167E-01 -0.21612541810E-02  0.87665110838E-02  0.23624883646E-01  0.00000000000E+00 0. -1.
     999901    1    3    3    0    0 -0.32370091586E-01 -0.83322673499E-01  0.88175441152E-01  0.88891248116E+00  0.88000000000E+00 0. -1.
        -11    1    4    4    0    0  0.92903980743E-02  0.49576304645E-01 -0.70911242488E-01  0.87021761133E-01  0.51100000000E-03 0. -1.
         11    1    4    4    0    0  0.12482393439E-02  0.35907623035E-01 -0.26030709748E-01  0.44370874056E-01  0.51100000000E-03 0.  1.
</event>
<event>
 8    1  0.1122848E+005  0.1043930E+01  0.7957747E-01            NaN
         13   -1    0    0    0    0  0.00000000000E+00  0.00000000000E+00  0.74505805969E-08  0.10566000000E+00  0.10566000000E+00 0. -1.
     999900   -1    0    0    0    0 -0.00000000000E+00 -0.00000000000E+00 -0.74505805969E-08  0.93827000000E+00  0.93827000000E+00 0. -1.
     999902    2    1    2    0    0  0.16075480330E-01  0.12102563162E-01  0.12002724339E-01  0.10205001367E+01  0.10202311358E+01 0.  0.
     999903    2    3    3    0    0  0.11819779270E-01  0.12840053865E+00 -0.21341433966E-01  0.13221236633E+00  0.19956139328E-01 0.  0.
         14    1    1    2    0    0 -0.16075480330E-01 -0.12102563162E-01 -0.12002724339E-01  0.23429863305E-01  0.00000000000E+00 0.  1.
     999901    1    3    3    0    0  0.42557010602E-02 -0.11629797549E+00  0.33344158305E-01  0.88828777037E+00  0.88000000000E+00 0.  1.
        -11    1    4    4    0    0 -0.19293948997E-02  0.80355121645E-01 -0.15934433014E-01  0.81944099335E-01  0.51100000000E-03 0.  1.
         11    1    4    4    0    0  0.13749174170E-01  0.48045417009E-01 -0.54070009514E-02  0.50268266991E-01  0.51100000000E-03 0. -1.
</event>
<event>
 8    1  0.1122848E+005  0.1043930E+01  0.7957747E-01            NaN
         13   -1    0    0    0    0  0.00000000000E+00  0.00000000000E+00  0.74505805969E-08  0.10566000000E+00  0.10566000000E+00 0. -1.
     999900   -1    0    0    0    0 -0.00000000000E+00 -0.00000000000E+00 -0.74505805969E-08  0.93827000000E+00  0.93827000000E+00 0. -1.
     999902    2    1    2    0    0 -0.24393547390E-01 -0.25721825091E-02 -0.10249447872E-01  0.10173459360E+01  0.10169985452E+01 0.  0.
     999903    2    3    3    0    0 -0.82220054372E-01 -0.40275464680E-01 -0.90533104796E-01  0.13099899040E+00  0.24129691807E-01 0.  0.
         14    1    1    2    0    0  0.24393547390E-01  0.25721825091E-02  0.10249447872E-01  0.26584064001E-01  0.00000000000E+00 0. -1.
     999901    1    3    3    0    0  0.57826506981E-01  0.37703282171E-01  0.80283656924E-01  0.88634694559E+00  0.88000000000E+00 0.  1.
        -11    1    4    4    0    0 -0.66077051314E-01 -0.41532905305E-01 -0.69959924892E-01  0.10481322028E+00  0.51100000000E-03 0. -1.
         11    1    4    4    0    0 -0.16143003057E-01  0.12574406246E-02 -0.20573179904E-01  0.26185770125E-01  0.51100000000E-03 0.  1.
</event>
<event>
 8    1  0.1122848E+005  0.1043930E+01  0.7957747E-01            NaN
         13   -1    0    0    0    0  0.00000000000E+00  0.00000000000E+00  0.74505805969E-08  0.10566000000E+00  0.10566000000E+00 0.  1.
     999900   -1    0    0    0    0 -0.00000000000E+00 -0.00000000000E+00 -0.74505805969E-08  0.93827000000E+00  0.93827000000E+00 0. -1.
     999902    2    1    2    0    0 -0.21739493765E-01 -0.67536388602E-02 -0.34956665757E-02  0.10208987840E+01  0.10206389617E+01 0.  0.
     999903    2    3    3    0    0  0.90413292898E-01  0.81379019843E-01  0.36523651636E-01  0.12851592952E+00  0.19628005713E-01 0.  0.
         14    1    1    2    0    0  0.21739493765E-01  0.67536388602E-02  0.34956665757E-02  0.23031216030E-01  0.00000000000E+00 0.  1.
     999901    1    3    3    0    0 -0.11215278666E+00 -0.88132658704E-01 -0.40019318211E-01  0.89238285445E+00  0.88000000000E+00 0. -1.
        -11    1    4    4    0    0  0.30780934255E-01  0.19088614672E-01  0.43853998913E-02  0.36487449581E-01  0.51100000000E-03 0.  1.
         11    1    4    4    0    0  0.59632358643E-01  0.62290405171E-01  0.32138251744E-01  0.92028479939E-01  0.51100000000E-03 0. -1.
</event>
<event>
 8    1  0.1122848E+005  0.1043930E+01  0.7957747E-01            NaN
         13   -1    0    0    0    0  0.00000000000E+00  0.00000000000E+00  0.74505805969E-08  0.10566000000E+00  0.10566000000E+00 0. -1.
     999900   -1    0    0    0    0 -0.00000000000E+00 -0.00000000000E+00 -0.74505805969E-08  0.93827000000E+00  0.93827000000E+00 0. -1.
     999902    2    1    2    0    0  0.15766127278E-02 -0.81424383485E-03  0.21402435942E-01  0.10224541306E+01  0.10222285636E+01 0.  0.
     999903    2    3    3    0    0  0.11325565318E+00  0.46216795271E-01  0.49823035831E-01  0.13369552606E+00  0.20720126610E-01 0.  0.
         14    1    1    2    0    0 -0.15766127278E-02  0.81424383485E-03 -0.21402435942E-01  0.21475869365E-01  0.00000000000E+00 0.  1.
     999901    1    3    3    0    0 -0.11167904045E+00 -0.47031039106E-01 -0.28420599889E-01  0.88875860458E+00  0.88000000000E+00 0.  1.
        -11    1    4    4    0    0  0.20822940180E-01  0.12143316514E-02  0.12504657959E-01  0.24324823345E-01  0.51100000000E-03 0. -1.
         11    1    4    4    0    0  0.92432712995E-01  0.45002463620E-01  0.37318377872E-01  0.10937070271E+00  0.51100000000E-03 0.  1.
</event>
<event>
 8    1  0.1122848E+005  0.1043930E+01  0.7957747E-01            NaN
         13   -1    0    0    0    0  0.00000000000E+00  0.00000000000E+00  0.74505805969E-08  0.10566000000E+00  0.10566000000E+00 0. -1.
     999900   -1    0    0    0    0 -0.00000000000E+00 -0.00000000000E+00 -0.74505805969E-08  0.93827000000E+00  0.93827000000E+00 0. -1.
     999902    2    1    2    0    0  0.78524296713E-02  0.20949076807E-01 -0.67625414532E-02  0.10205578705E+01  0.10202902090E+01 0.  0.
     999903    2    3    3    0    0 -0.72803795908E-01  0.10890488119E+00  0.59848220877E-02  0.13241140423E+00  0.18338375898E-01 0.  0.
         14    1    1    2    0    0 -0.78524296713E-02 -0.20949076807E-01  0.67625414532E-02  0.23372129508E-01  0.00000000000E+00 0. -1.
     999901    1    3    3    0    0  0.80656225579E-01 -0.87955804382E-01 -0.12747363541E-01  0.88814646626E+00  0.88000000000E+00 0.  1.
        -11    1    4    4    0    0 -0.33310138629E-01  0.61139019231E-01  0.98052912112E-02  0.70313226812E-01  0.51100000000E-03 0. -1.
         11    1    4    4    0    0 -0.39493657279E-01  0.47765861958E-01 -0.38204691234E-02  0.62098177423E-01  0.51100000000E-03 0.  1.
</event>
<event>
 8    1  0.1122848E+005  0.1043930E+01  0.7957747E-01            NaN
         13   -1    0    0    0    0  0.00000000000E+00  0.00000000000E+00  0.74505805969E-08  0.10566000000E+00  0.10566000000E+00 0. -1.
     999900   -1    0    0    0    0 -0.00000000000E+00 -0.00000000000E+00 -0.74505805969E-08  0.93827000000E+00  0.93827000000E+00 0.  1.
     999902    2    1    2    0    0 -0.15150407179E-01  0.17656852038E-01  0.51161044589E-02  0.10201082917E+01  0.10198301099E+01 0.  0.
     999903    2    3    3    0    0  0.13570959387E-01  0.13025116166E+00  0.37869030111E-02  0.13246863382E+00  0.19597506499E-01 0.  0.
         14    1    1    2    0    0  0.15150407179E-01 -0.17656852038E-01 -0.51161044589E-02  0.23821708302E-01  0.00000000000E+00 0.  1.
     999901    1    3    3    0    0 -0.28721366566E-01 -0.11259430962E+00  0.13292014478E-02  0.88763965787E+00  0.88000000000E+00 0.  1.
        -11    1    4    4    0    0  0.13421077818E-01  0.73645812774E-01 -0.56757330590E-02  0.75075336401E-01  0.51100000000E-03 0.  1.
         11    1    4    4    0    0  0.14988156862E-03  0.56605348882E-01  0.94626360702E-02  0.57393297422E-01  0.51100000000E-03 0. -1.
</event>
<event>
 8    1  0.1122848E+005  0.1043930E+01  0.7957747E-01            NaN
         13   -1    0    0    0    0  0.00000000000E+00  0.00000000000E+00  0.74505805969E-08  0.10566000000E+00  0.10566000000E+00 0. -1.
     999900   -1    0    0    0    0 -0.00000000000E+00 -0.00000000000E+00 -0.74505805969E-08  0.93827000000E+00  0.93827000000E+00 0.  1.
     999902    2    1    2    0    0  0.19693820635E-01  0.11588026101E-01 -0.33245285487E-02  0.10208392787E+01  0.10205780967E+01 0.  0.
     999903    2    3    3    0    0  0.84906215245E-02 -0.10444482205E+00  0.74189687862E-01  0.12977385615E+00  0.18876770017E-01 0.  0.
         14    1    1    2    0    0 -0.19693820635E-01 -0.11588026101E-01  0.33245285487E-02  0.23090721301E-01  0.00000000000E+00 0. -1.
     999901    1    3    3    0    0  0.11203199111E-01  0.11603284816E+00 -0.77514216411E-01  0.89106542255E+00  0.88000000000E+00 0. -1.
        -11    1    4    4    0    0 -0.58916679750E-02 -0.23454628333E-01  0.15611876051E-01  0.28789288574E-01  0.51100000000E-03 0.  1.
         11    1    4    4    0    0  0.14382289499E-01 -0.80990193722E-01  0.58577811811E-01  0.10098456757E+00  0.51100000000E-03 0. -1.
</event>
<event>
 8    1  0.1122848E+005  0.1043930E+01  0.7957747E-01            NaN
         13   -1    0    0    0    0  0.00000000000E+00  0.00000000000E+00  0.74505805969E-08  0.10566000000E+00  0.10566000000E+00 0. -1.
     999900   -1    0    0    0    0 -0.00000000000E+00 -0.00000000000E+00 -0.74505805969E-08  0.93827000000E+00  0.93827000000E+00 0.  1.
     999902    2    1    2    0    0 -0.17220799616E-01  0.16325823138E-01 -0.34886101573E-02  0.10199454458E+01  0.10196634021E+01 0.  0.
     999903    2    3    3    0    0 -0.10749071644E+00 -0.68320186114E-01  0.22239918290E-01  0.13091475905E+00  0.20546489207E-01 0.  0.
         14    1    1    2    0    0  0.17220799616E-01 -0.16325823138E-01  0.34886101573E-02  0.23984554225E-01  0.00000000000E+00 0.  1.
     999901    1    3    3    0    0  0.90269916828E-01  0.84646009252E-01 -0.25728528447E-01  0.88903068673E+00  0.88000000000E+00 0.  1.
        -11    1    4    4    0    0 -0.48885960863E-01 -0.39367809475E-01  0.18505396735E-01  0.65439838185E-01  0.51100000000E-03 0. -1.
         11    1    4    4    0    0 -0.58604755580E-01 -0.28952376639E-01  0.37345215547E-02  0.65474920862E-01  0.51100000000E-03 0.  1.
</event>
<event>
 8    1  0.1122848E+005  0.1043930E+01  0.7957747E-01            NaN
         13   -1    0    0    0    0  0.00000000000E+00  0.00000000000E+00  0.74505805969E-08  0.10566000000E+00  0.10566000000E+00 0. -1.
     999900   -1    0    0    0    0 -0.00000000000E+00 -0.00000000000E+00 -0.74505805969E-08  0.93827000000E+00  0.93827000000E+00 0.  1.
     999902    2    1    2    0    0  0.58516937935E-02 -0.11229685702E-01 -0.19665565805E-01  0.10205402022E+01  0.10202721312E+01 0.  0.
     999903    2    3    3    0    0  0.19431712441E-01 -0.11931860927E+00  0.46637911013E-01  0.13134743160E+00  0.21506535671E-01 0.  0.
         14    1    1    2    0    0 -0.58516937935E-02  0.11229685702E-01  0.19665565805E-01  0.23389797768E-01  0.00000000000E+00 0. -1.
     999901    1    3    3    0    0 -0.13580018648E-01  0.10808892357E+00 -0.66303476817E-01  0.88919277063E+00  0.88000000000E+00 0. -1.
        -11    1    4    4    0    0  0.10572170250E-01 -0.27870633284E-01  0.40754219316E-02  0.30090084219E-01  0.51100000000E-03 0.  1.
         11    1    4    4    0    0  0.88595421917E-02 -0.91447975991E-01  0.42562489081E-01  0.10125734738E+00  0.51100000000E-03 0. -1.
</event>
<event>
 8    1  0.1122848E+005  0.1043930E+01  0.7957747E-01            NaN
         13   -1    0    0    0    0  0.00000000000E+00  0.00000000000E+00  0.74505805969E-08  0.10566000000E+00  0.10566000000E+00 0.  1.
     999900   -1    0    0    0    0 -0.00000000000E+00 -0.00000000000E+00 -0.74505805969E-08  0.93827000000E+00  0.93827000000E+00 0.  1.
     999902    2    1    2    0    0 -0.10103887374E-01  0.20649833036E-01 -0.61648484552E-02  0.10201285399E+01  0.10198508364E+01 0.  0.
     999903    2    3    3    0    0 -0.15268954916E-01 -0.11270915289E+00  0.53346151580E-01  0.12807873406E+00  0.24937042715E-01 0.  0.
         14    1    1    2    0    0  0.10103887374E-01 -0.20649833036E-01  0.61648484552E-02  0.23801460059E-01  0.00000000000E+00 0.  1.
     999901    1    3    3    0    0  0.51650675425E-02  0.13335898593E+00 -0.59511000035E-01  0.89204980588E+00  0.88000000000E+00 0. -1.
        -11    1    4    4    0    0 -0.10873719304E-01 -0.70792852599E-01  0.46452369771E-01  0.85369488278E-01  0.51100000000E-03 0.  1.
         11    1    4    4    0    0 -0.43952356127E-02 -0.41916300294E-01  0.68937818095E-02  0.42709245779E-01  0.51100000000E-03 0. -1.
</event>
<event>
 8    1  0.1122848E+005  0.1043930E+01  0.7957747E-01            NaN
         13   -1    0    0    0    0  0.00000000000E+00  0.00000000000E+00  0.74505805969E-08  0.10566000000E+00  0.10566000000E+00 0. -1.
     999900   -1    0    0    0    0 -0.00000000000E+00 -0.00000000000E+00 -0.74505805969E-08  0.93827000000E+00  0.93827000000E+00 0.  1.
     999902    2    1    2    0    0 -0.21528702502E-01  0.39855261299E-02  0.15267241630E-01  0.10172380889E+01  0.10168878362E+01 0.  0.
     999903    2    3    3    0    0 -0.31400306774E-01 -0.11942168507E+00  0.28136105956E-01  0.12847918122E+00  0.21627330370E-01 0.  0.
         14    1    1    2    0    0  0.21528702502E-01 -0.39855261299E-02 -0.15267241630E-01  0.26691911077E-01  0.00000000000E+00 0.  1.
     999901    1    3    3    0    0  0.98716042713E-02  0.12340721120E+00 -0.12868864327E-01  0.88875890770E+00  0.88000000000E+00 0.  1.
        -11    1    4    4    0    0 -0.43404643884E-03 -0.41558062721E-01  0.92245158246E-02  0.42574802250E-01  0.51100000000E-03 0. -1.
         11    1    4    4    0    0 -0.30966260335E-01 -0.77863622349E-01  0.18911590132E-01  0.85904378973E-01  0.51100000000E-03 0.  1.
</event>
<event>
 8    1  0.1122848E+005  0.1043930E+01  0.7957747E-01            NaN
         13   -1    0    0    0    0  0.00000000000E+00  0.00000000000E+00  0.74505805969E-08  0.10566000000E+00  0.10566000000E+00 0. -1.
     999900   -1    0    0    0    0 -0.00000000000E+00 -0.00000000000E+00 -0.74505805969E-08  0.93827000000E+00  0.93827000000E+00 0.  1.
     999902    2    1    2    0    0 -0.52761350764E-02  0.12147011187E-01  0.19638459430E-01  0.10202433673E+01  0.10199683681E+01 0.  0.
     999903    2    3    3    0    0 -0.65134766682E-01  0.81753916574E-01  0.80371012081E-01  0.13338564473E+00  0.20149191792E-01 0.  0.
         14    1    1    2    0    0  0.52761350764E-02 -0.12147011187E-01 -0.19638459430E-01  0.23686632747E-01  0.00000000000E+00 0.  1.
     999901    1    3    3    0    0  0.59858631606E-01 -0.69606905387E-01 -0.60732552651E-01  0.88685772253E+00  0.88000000000E+00 0.  1.
        -11    1    4    4    0    0 -0.17119700083E-01  0.13751512893E-01  0.25625480256E-01  0.33750771800E-01  0.51100000000E-03 0.  1.
         11    1    4    4    0    0 -0.48015066599E-01  0.68002403681E-01  0.54745531825E-01  0.99634872925E-01  0.51100000000E-03 0. -1.
</event>
<event>
 8    1  0.1122848E+005  0.1043930E+01  0.7957747E-01            NaN
         13   -1    0    0    0    0  0.00000000000E+00  0.00000000000E+00  0.74505805969E-08  0.10566000000E+00  0.10566000000E+00 0.  1.
     999900   -1    0    0    0    0 -0.00000000000E+00 -0.00000000000E+00 -0.74505805969E-08  0.93827000000E+00  0.93827000000E+00 0. -1.
     999902    2    1    2    0    0 -0.43003331534E-02  0.13216663757E-01  0.19095793930E-01  0.10203117356E+01  0.10200383402E+01 0.  0.
     999903    2    3    3    0    0 -0.96160011576E-02 -0.12481391326E-01 -0.12555329212E+00  0.12811668719E+00  0.20050031623E-01 0.  0.
         14    1    1    2    0    0  0.43003331534E-02 -0.13216663757E-01 -0.19095793930E-01  0.23618264371E-01  0.00000000000E+00 0. -1.
     999901    1    3    3    0    0  0.53156680043E-02  0.25698055083E-01  0.14464908605E+00  0.89219504844E+00  0.88000000000E+00 0.  1.
        -11    1    4    4    0    0 -0.60023867320E-02  0.46068880519E-02 -0.27897615339E-01  0.28910035050E-01  0.51100000000E-03 0. -1.
         11    1    4    4    0    0 -0.36136144257E-02 -0.17088279378E-01 -0.97655676777E-01  0.99206652142E-01  0.51100000000E-03 0.  1.
</event>
<event>
 8    1  0.1122848E+005  0.1043930E+01  0.7957747E-01            NaN
         13   -1    0    0    0    0  0.00000000000E+00  0.00000000000E+00  0.74505805969E-08  0.10566000000E+00  0.10566000000E+00 0. -1.
     999900   -1    0    0    0    0 -0.00000000000E+00 -0.00000000000E+00 -0.74505805969E-08  0.93827000000E+00  0.93827000000E+00 0. -1.
     999902    2    1    2    0    0  0.18710988198E-01  0.23428994726E-02 -0.13657676948E-01  0.10206464780E+01  0.10203808655E+01 0.  0.
     999903    2    3    3    0    0  0.30457991011E-01 -0.76345719309E-01  0.98599227869E-01  0.12995489081E+00  0.20251119384E-01 0.  0.
         14    1    1    2    0    0 -0.18710988198E-01 -0.23428994726E-02  0.13657676948E-01  0.23283522004E-01  0.00000000000E+00 0. -1.
     999901    1    3    3    0    0 -0.11747002813E-01  0.78688618782E-01 -0.11225690482E+00  0.89069158718E+00  0.88000000000E+00 0. -1.
        -11    1    4    4    0    0  0.26466735623E-01 -0.61215336618E-01  0.90227030602E-01  0.11220064039E+00  0.51100000000E-03 0.  1.
         11    1    4    4    0    0  0.39912553884E-02 -0.15130382691E-01  0.83721972671E-02  0.17754250421E-01  0.51100000000E-03 0. -1.
</event>
<event>
 8    1  0.1122848E+005  0.1043930E+01  0.7957747E-01            NaN
         13   -1    0    0    0    0  0.00000000000E+00  0.00000000000E+00  0.74505805969E-08  0.10566000000E+00  0.10566000000E+00 0. -1.
     999900   -1    0    0    0    0 -0.00000000000E+00 -0.00000000000E+00 -0.74505805969E-08  0.93827000000E+00  0.93827000000E+00 0. -1.
     999902    2    1    2    0    0  0.33728396228E-02 -0.16320752920E-01  0.16170011327E-01  0.10207090549E+01  0.10204448846E+01 0.  0.
     999903    2    3    3    0    0  0.11437992863E+00  0.58946129995E-01  0.25575541909E-02  0.13044337748E+00  0.21248984245E-01 0.  0.
         14    1    1    2    0    0 -0.33728396228E-02  0.16320752920E-01 -0.16170011327E-01  0.23220945057E-01  0.00000000000E+00 0.  1.
     999901    1    3    3    0    0 -0.11100708901E+00 -0.75266882915E-01  0.13612457136E-01  0.89026567746E+00  0.88000000000E+00 0.  1.
        -11    1    4    4    0    0  0.26384755427E-01  0.49544398081E-02 -0.32121184752E-02  0.27042200702E-01  0.51100000000E-03 0. -1.
         11    1    4    4    0    0  0.87995173202E-01  0.53991690187E-01  0.57696726661E-02  0.10340117678E+00  0.51100000000E-03 0.  1.
</event>
<event>
 7    1  0.1122848E+005  0.1043930E+01  0.7957747E-01            NaN
         13   -1    0    0    0    0  0.00000000000E+00  0.00000000000E+00  0.74505805969E-08  0.10566000000E+00  0.10566000000E+00 0. -1.
     999900   -1    0    0    0    0 -0.00000000000E+00 -0.00000000000E+00 -0.74505805969E-08  0.93827000000E+00  0.93827000000E+00 0. -1.
     999903    2    1    2    0    0 -0.85613260113E-01  0.15675300628E-01  0.71257330050E-01  0.11465099725E+00  0.22178790040E-01 0.  0.
         14    1    1    2    0    0  0.45774365933E-02  0.38647954776E-01 -0.16269083214E-01  0.42181754382E-01  0.00000000000E+00 0.  1.
     999901    1    1    2    0    0  0.81035823519E-01 -0.54323255405E-01 -0.54988246836E-01  0.88709724837E+00  0.88000000000E+00 0.  1.
        -11    1    3    3    0    0 -0.38221396492E-01  0.11745100985E-01  0.19935694186E-01  0.44682385463E-01  0.51100000000E-03 0.  1.
         11    1    3    3    0    0 -0.47391863620E-01  0.39301996435E-02  0.51321635864E-01  0.69968611787E-01  0.51100000000E-03 0. -1.
</event>
<event>
 8    1  0.1122848E+005  0.1043930E+01  0.7957747E-01            NaN
         13   -1    0    0    0    0  0.00000000000E+00  0.00000000000E+00  0.74505805969E-08  0.10566000000E+00  0.10566000000E+00 0.  1.
     999900   -1    0    0    0    0 -0.00000000000E+00 -0.00000000000E+00 -0.74505805969E-08  0.93827000000E+00  0.93827000000E+00 0. -1.
     999902    2    1    2    0    0  0.18351897963E-01 -0.14132954113E-01 -0.37295543463E-02  0.10204684969E+01  0.10201987606E+01 0.  0.
     999903    2    3    3    0    0 -0.84412233168E-01 -0.95074703915E-01  0.20999967894E-01  0.13045524827E+00  0.20321139677E-01 0.  0.
         14    1    1    2    0    0 -0.18351897963E-01  0.14132954113E-01  0.37295543463E-02  0.23461503073E-01  0.00000000000E+00 0.  1.
     999901    1    3    3    0    0  0.10276413113E+00  0.80941749801E-01 -0.24729522241E-01  0.89001324865E+00  0.88000000000E+00 0.  1.
        -11    1    4    4    0    0 -0.25460881111E-01 -0.18665179967E-01 -0.51224863351E-03  0.31577981725E-01  0.51100000000E-03 0. -1.
         11    1    4    4    0    0 -0.58951352056E-01 -0.76409523947E-01  0.21512216528E-01  0.98877266548E-01  0.51100000000E-03 0.  1.
</event>
<event>
 8    1  0.1122848E+005  0.1043930E+01  0.7957747E-01            NaN
         13   -1    0    0    0    0  0.00000000000E+00  0.00000000000E+00  0.74505805969E-08  0.10566000000E+00  0.10566000000E+00 0. -1.
     999900   -1    0    0    0    0 -0.00000000000E+00 -0.00000000000E+00 -0.74505805969E-08  0.93827000000E+00  0.93827000000E+00 0.  1.
     999902    2    1    2    0    0  0.15715932079E-02 -0.45409381498E-02 -0.25259092548E-01  0.10182179059E+01  0.10178932126E+01 0.  0.
     999903    2    3    3    0    0  0.68497729867E-02 -0.85396596446E-01  0.91056468525E-01  0.12687352445E+00  0.21589642718E-01 0.  0.
         14    1    1    2    0    0 -0.15715932079E-02  0.45409381498E-02  0.25259092548E-01  0.25712094058E-01  0.00000000000E+00 0. -1.
     999901    1    3    3    0    0 -0.52781797788E-02  0.80855658297E-01 -0.11631556107E+00  0.89134438149E+00  0.88000000000E+00 0.  1.
        -11    1    4    4    0    0  0.91133398235E-02 -0.36898501125E-01  0.52801971150E-01  0.65060445944E-01  0.51100000000E-03 0.  1.
         11    1    4    4    0    0 -0.22635668367E-02 -0.48498095321E-01  0.38254497375E-01  0.61813078511E-01  0.51100000000E-03 0. -1.
</event>
<event>
 8    1  0.1122848E+005  0.1043930E+01  0.7957747E-01            NaN
         13   -1    0    0    0    0  0.00000000000E+00  0.00000000000E+00  0.74505805969E-08  0.10566000000E+00  0.10566000000E+00 0. -1.
     999900   -1    0    0    0    0 -0.00000000000E+00 -0.00000000000E+00 -0.74505805969E-08  0.93827000000E+00  0.93827000000E+00 0. -1.
     999902    2    1    2    0    0 -0.49055443556E-02  0.43547967222E-02  0.24459828543E-01  0.10186058646E+01  0.10182910172E+01 0.  0.
     999903    2    3    3    0    0 -0.75109372211E-01 -0.87823032012E-02  0.10620832523E+00  0.13193570186E+00  0.20205801986E-01 0.  0.
         14    1    1    2    0    0  0.49055443556E-02 -0.43547967222E-02 -0.24459828543E-01  0.25324135371E-01  0.00000000000E+00 0.  1.
     999901    1    3    3    0    0  0.70203827855E-01  0.13137099923E-01 -0.81748496683E-01  0.88667016277E+00  0.88000000000E+00 0. -1.
        -11    1    4    4    0    0 -0.47315657603E-01 -0.58475036372E-02  0.82483193830E-01  0.95271733156E-01  0.51100000000E-03 0.  1.
         11    1    4    4    0    0 -0.27793714608E-01 -0.29347995640E-02  0.23725131396E-01  0.36663968701E-01  0.51100000000E-03 0. -1.
</event>
<event>
 8    1  0.1122848E+005  0.1043930E+01  0.7957747E-01            NaN
         13   -1    0    0    0    0  0.00000000000E+00  0.00000000000E+00  0.74505805969E-08  0.10566000000E+00  0.10566000000E+00 0.  1.
     999900   -1    0    0    0    0 -0.00000000000E+00 -0.00000000000E+00 -0.74505805969E-08  0.93827000000E+00  0.93827000000E+00 0.  1.
     999902    2    1    2    0    0 -0.42367990351E-02 -0.10566914246E-01  0.21517355725E-01  0.10195864846E+01  0.10192958319E+01 0.  0.
     999903    2    3    3    0    0 -0.13030535336E-01 -0.55550681257E-01 -0.11302857833E+00  0.12818114616E+00  0.19981833574E-01 0.  0.
         14    1    1    2    0    0  0.42367990351E-02  0.10566914246E-01 -0.21517355725E-01  0.24343515361E-01  0.00000000000E+00 0. -1.
     999901    1    3    3    0    0  0.87937363005E-02  0.44983767012E-01  0.13454593406E+00  0.89140533848E+00  0.88000000000E+00 0. -1.
        -11    1    4    4    0    0  0.26640009903E-02 -0.32207824476E-01 -0.60018005034E-01  0.68167902330E-01  0.51100000000E-03 0. -1.
         11    1    4    4    0    0 -0.15694536326E-01 -0.23342856782E-01 -0.53010573296E-01  0.60013243833E-01  0.51100000000E-03 0.  1.
</event>
<event>
 8    1  0.1122848E+005  0.1043930E+01  0.7957747E-01            NaN
         13   -1    0    0    0    0  0.00000000000E+00  0.00000000000E+00  0.74505805969E-08  0.10566000000E+00  0.10566000000E+00 0.  1.
     999900   -1    0    0    0    0 -0.00000000000E+00 -0.00000000000E+00 -0.74505805969E-08  0.93827000000E+00  0.93827000000E+00 0. -1.
     999902    2    1    2    0    0 -0.19205968073E-01 -0.22828643452E-02 -0.15699380718E-01  0.10190191342E+01  0.10187146041E+01 0.  0.
     999903    2    3    3    0    0  0.70184972668E-01 -0.10493882763E+00 -0.14409221488E-01  0.12855259829E+00  0.19495048867E-01 0.  0.
         14    1    1    2    0    0  0.19205968073E-01  0.22828643452E-02  0.15699380718E-01  0.24910865785E-01  0.00000000000E+00 0. -1.
     999901    1    3    3    0    0 -0.89390940741E-01  0.10265596329E+00 -0.12901592297E-02  0.89046653592E+00  0.88000000000E+00 0. -1.
        -11    1    4    4    0    0  0.40411892837E-02 -0.16549816085E-01 -0.49571078537E-02  0.17749976410E-01  0.51100000000E-03 0. -1.
         11    1    4    4    0    0  0.66143783384E-01 -0.88389011550E-01 -0.94521136344E-02  0.11080262188E+00  0.51100000000E-03 0.  1.
</event>
<event>
 8    1  0.1122848E+005  0.1043930E+01  0.7957747E-01            NaN
         13   -1    0    0    0    0  0.00000000000E+00  0.00000000000E+00  0.74505805969E-08  0.10566000000E+00  0.10566000000E+00 0. -1.
     999900   -1    0    0    0    0 -0.00000000000E+00 -0.00000000000E+00 -0.74505805969E-08  0.93827000000E+00  0.93827000000E+00 0. -1.
     999902    2    1    2    0    0  0.14397790403E-01 -0.80064562936E-02 -0.11547401933E-01  0.10238117943E+01  0.10236141108E+01 0.  0.
     999903    2    3    3    0    0  0.11342469378E+00 -0.31130259056E-01  0.62794164361E-01  0.13484176871E+00  0.20123153913E-01 0.  0.
         14    1    1    2    0    0 -0.14397790403E-01  0.80064562936E-02  0.11547401933E-01  0.20118205742E-01  0.00000000000E+00 0. -1.
     999901    1    3    3    0    0 -0.99026903374E-01  0.23123802762E-01 -0.74341566294E-01  0.88897002555E+00  0.88000000000E+00 0. -1.
        -11    1    4    4    0    0  0.96421911056E-01 -0.24648085050E-01  0.60561180624E-01  0.11650163410E+00  0.51100000000E-03 0.  1.
         11    1    4    4    0    0  0.17002782721E-01 -0.64821740060E-02  0.22329837364E-02  0.18340134609E-01  0.51100000000E-03 0. -1.
</event>
<event>
 8    1  0.1122848E+005  0.1043930E+01  0.7957747E-01            NaN
         13   -1    0    0    0    0  0.00000000000E+00  0.00000000000E+00  0.74505805969E-08  0.10566000000E+00  0.10566000000E+00 0. -1.
     999900   -1    0    0    0    0 -0.00000000000E+00 -0.00000000000E+00 -0.74505805969E-08  0.93827000000E+00  0.93827000000E+00 0.  1.
     999902    2    1    2    0    0 -0.49955364045E-02  0.49831034913E-04  0.23244676714E-01  0.10201545323E+01  0.10198774421E+01 0.  0.
     999903    2    3    3    0    0  0.14164030224E-01 -0.21510922198E-01 -0.12367025403E+00  0.12750905290E+00  0.17346103709E-01 0.  0.
         14    1    1    2    0    0  0.49955364045E-02 -0.49831034913E-04 -0.23244676714E-01  0.23775467664E-01  0.00000000000E+00 0.  1.
     999901    1    3    3    0    0 -0.19159566628E-01  0.21560753233E-01  0.14691493075E+00  0.89264547943E+00  0.88000000000E+00 0. -1.
        -11    1    4    4    0    0  0.49308571854E-02 -0.16660537061E-01 -0.10180537279E+00  0.10327866139E+00  0.51100000000E-03 0.  1.
         11    1    4    4    0    0  0.92331730384E-02 -0.48503851375E-02 -0.21864881239E-01  0.24230391515E-01  0.51100000000E-03 0. -1.
</event>
<event>
 8    1  0.1122848E+005  0.1043930E+01  0.7957747E-01            NaN
         13   -1    0    0    0    0  0.00000000000E+00  0.00000000000E+00  0.74505805969E-08  0.10566000000E+00  0.10566000000E+00 0.  1.
     999900   -1    0    0    0    0 -0.00000000000E+00 -0.00000000000E+00 -0.74505805969E-08  0.93827000000E+00  0.93827000000E+00 0. -1.
     999902    2    1    2    0    0 -0.10475267795E-01  0.75090652235E-02 -0.19583084704E-01  0.10204861415E+01  0.10202168154E+01 0.  0.
     999903    2    3    3    0    0  0.13467429707E-01  0.16089728532E-01  0.12487210339E+00  0.12834591600E+00  0.20961415063E-01 0.  0.
         14    1    1    2    0    0  0.10475267795E-01 -0.75090652235E-02  0.19583084704E-01  0.23443858523E-01  0.00000000000E+00 0.  1.
     999901    1    3    3    0    0 -0.23942697502E-01 -0.85806633087E-02 -0.14445518810E+00  0.89214022548E+00  0.88000000000E+00 0. -1.
        -11    1    4    4    0    0  0.35896520174E-02  0.49783981062E-02  0.61787777644E-02  0.87240165618E-02  0.51100000000E-03 0. -1.
         11    1    4    4    0    0  0.98777776898E-02  0.11111330426E-01  0.11869332563E+00  0.11962189944E+00  0.51100000000E-03 0.  1.
</event>
<event>
 8    1  0.1122848E+005  0.1043930E+01  0.7957747E-01            NaN
         13   -1    0    0    0    0  0.00000000000E+00  0.00000000000E+00  0.74505805969E-08  0.10566000000E+00  0.10566000000E+00 0. -1.
     999900   -1    0    0    0    0 -0.00000000000E+00 -0.00000000000E+00 -0.74505805969E-08  0.93827000000E+00  0.93827000000E+00 0. -1.
     999902    2    1    2    0    0  0.14604361347E-01 -0.12323767687E-02  0.18502924933E-01  0.10203256709E+01  0.10200526017E+01 0.  0.
     999903    2    3    3    0    0 -0.36627057965E-01  0.91052599781E-01 -0.80641143610E-01  0.12849007977E+00  0.19354308399E-01 0.  0.
         14    1    1    2    0    0 -0.14604361347E-01  0.12323767687E-02 -0.18502924933E-01  0.23604329136E-01  0.00000000000E+00 0. -1.
     999901    1    3    3    0    0  0.51231419312E-01 -0.92284976549E-01  0.99144068544E-01  0.89183559110E+00  0.88000000000E+00 0. -1.
        -11    1    4    4    0    0 -0.12001980042E-01  0.37117226648E-01 -0.20645968037E-01  0.44139020788E-01  0.51100000000E-03 0.  1.
         11    1    4    4    0    0 -0.24625077923E-01  0.53935373133E-01 -0.59995175573E-01  0.84351058978E-01  0.51100000000E-03 0. -1.
</event>
<event>
 8    1  0.1122848E+005  0.1043930E+01  0.7957747E-01            NaN
         13   -1    0    0    0    0  0.00000000000E+00  0.00000000000E+00  0.74505805969E-08  0.10566000000E+00  0.10566000000E+00 0.  1.
     999900   -1    0    0    0    0 -0.00000000000E+00 -0.00000000000E+00 -0.74505805969E-08  0.93827000000E+00  0.93827000000E+00 0. -1.
     999902    2    1    2    0    0 -0.30214718209E-02 -0.22505325011E-02 -0.22854205156E-01  0.10207673386E+01  0.10205045079E+01 0.  0.
     999903    2    3    3    0    0  0.99910870411E-01 -0.21603957725E-01  0.76210377348E-01  0.12903676628E+00  0.19838155713E-01 0.  0.
         14    1    1    2    0    0  0.30214718209E-02  0.22505325011E-02  0.22854205156E-01  0.23162661372E-01  0.00000000000E+00 0.  1.
     999901    1    3    3    0    0 -0.10293234223E+00  0.19353425224E-01 -0.99064582504E-01  0.89173057234E+00  0.88000000000E+00 0. -1.
        -11    1    4    4    0    0  0.42132659088E-01 -0.16030843811E-01  0.24571261909E-01  0.51343519044E-01  0.51100000000E-03 0. -1.
         11    1    4    4    0    0  0.57778211323E-01 -0.55731139147E-02  0.51639115439E-01  0.77693247240E-01  0.51100000000E-03 0.  1.
</event>
<event>
 8    1  0.1122848E+005  0.1043930E+01  0.7957747E-01            NaN
         13   -1    0    0    0    0  0.00000000000E+00  0.00000000000E+00  0.74505805969E-08  0.10566000000E+00  0.10566000000E+00 0.  1.
     999900   -1    0    0    0    0 -0.00000000000E+00 -0.00000000000E+00 -0.74505805969E-08  0.93827000000E+00  0.93827000000E+00 0. -1.
     999902    2    1    2    0    0  0.20529769737E-01 -0.37379817637E-02  0.86898362869E-02  0.10213256374E+01  0.10210754627E+01 0.  0.
     999903    2    3    3    0    0 -0.84787559254E-01  0.84372954481E-01 -0.45837752508E-01  0.12900925025E+00  0.15315398854E-01 0.  0.
         14    1    1    2    0    0 -0.20529769737E-01  0.37379817637E-02 -0.86898362869E-02  0.22604362584E-01  0.00000000000E+00 0.  1.
     999901    1    3    3    0    0  0.10531732899E+00 -0.88110936245E-01  0.54527588795E-01  0.89231638717E+00  0.88000000000E+00 0.  1.
        -11    1    4    4    0    0 -0.43496244229E-01  0.52393582978E-01 -0.21695625689E-01  0.71470078315E-01  0.51100000000E-03 0. -1.
         11    1    4    4    0    0 -0.41291315025E-01  0.31979371503E-01 -0.24142126819E-01  0.57539171931E-01  0.51100000000E-03 0.  1.
</event>
<event>
 8    1  0.1122848E+005  0.1043930E+01  0.7957747E-01            NaN
         13   -1    0    0    0    0  0.00000000000E+00  0.00000000000E+00  0.74505805969E-08  0.10566000000E+00  0.10566000000E+00 0.  1.
     999900   -1    0    0    0    0 -0.00000000000E+00 -0.00000000000E+00 -0.74505805969E-08  0.93827000000E+00  0.93827000000E+00 0.  1.
     999902    2    1    2    0    0 -0.21189742053E-01 -0.90316084672E-02 -0.35133320139E-02  0.10206293858E+01  0.10203633787E+01 0.  0.
     999903    2    3    3    0    0  0.81839851256E-01 -0.66392847852E-02  0.96754218277E-01  0.12895993924E+00  0.22966188573E-01 0.  0.
         14    1    1    2    0    0  0.21189742053E-01  0.90316084672E-02  0.35133320139E-02  0.23300614190E-01  0.00000000000E+00 0.  1.
     999901    1    3    3    0    0 -0.10302959331E+00 -0.23923236820E-02 -0.10026755029E+00  0.89166944657E+00  0.88000000000E+00 0.  1.
        -11    1    4    4    0    0  0.62628713545E-01 -0.38263846938E-02  0.57253984647E-01  0.84942785797E-01  0.51100000000E-03 0. -1.
         11    1    4    4    0    0  0.19211137711E-01 -0.28129000913E-02  0.39500233631E-01  0.44017153440E-01  0.51100000000E-03 0.  1.
</event>
<event>
 8    1  0.1122848E+005  0.1043930E+01  0.7957747E-01            NaN
         13   -1    0    0    0    0  0.00000000000E+00  0.00000000000E+00  0.74505805969E-08  0.10566000000E+00  0.10566000000E+00 0. -1.
     999900   -1    0    0    0    0 -0.00000000000E+00 -0.00000000000E+00 -0.74505805969E-08  0.93827000000E+00  0.93827000000E+00 0. -1.
     999902    2    1    2    0    0  0.19881440792E-01  0.19118621561E-02 -0.13233504987E-01  0.10199706060E+01  0.10196891608E+01 0.  0.
     999903    2    3    3    0    0  0.24592010865E-01  0.12527045097E+00  0.18164823341E-01  0.13079942683E+00  0.21933453183E-01 0.  0.
         14    1    1    2    0    0 -0.19881440792E-01 -0.19118621561E-02  0.13233504987E-01  0.23959393963E-01  0.00000000000E+00 0. -1.
     999901    1    3    3    0    0 -0.47105700731E-02 -0.12335858881E+00 -0.31398328328E-01  0.88917117920E+00  0.88000000000E+00 0.  1.
        -11    1    4    4    0    0  0.78306237391E-02  0.72039789524E-01  0.12274172405E-02  0.72476324527E-01  0.51100000000E-03 0.  1.
         11    1    4    4    0    0  0.16761387126E-01  0.53230661445E-01  0.16937406100E-01  0.58323102306E-01  0.51100000000E-03 0. -1.
</event>
<event>
 8    1  0.1122848E+005  0.1043930E+01  0.7957747E-01            NaN
         13   -1    0    0    0    0  0.00000000000E+00  0.00000000000E+00  0.74505805969E-08  0.10566000000E+00  0.10566000000E+00 0.  1.
     999900   -1    0    0    0    0 -0.00000000000E+00 -0.00000000000E+00 -0.74505805969E-08  0.93827000000E+00  0.93827000000E+00 0.  1.
     999902    2    1    2    0    0 -0.50163799870E-02 -0.21445735804E-03 -0.35230044040E-01  0.10083439625E+01  0.10077158234E+01 0.  0.
     999903    2    3    3    0    0 -0.30831934586E-02  0.97324257624E-01 -0.71182517088E-01  0.12222313642E+00  0.19749104648E-01 0.  0.
         14    1    1    2    0    0  0.50163799870E-02  0.21445735804E-03  0.35230044040E-01  0.35586037475E-01  0.00000000000E+00 0.  1.
     999901    1    3    3    0    0 -0.19331865285E-02 -0.97538714982E-01  0.35952473048E-01  0.88612082610E+00  0.88000000000E+00 0.  1.
        -11    1    4    4    0    0  0.37860575838E-02  0.50402039900E-01 -0.46853143958E-01  0.68921535661E-01  0.51100000000E-03 0. -1.
         11    1    4    4    0    0 -0.68692510423E-02  0.46922217724E-01 -0.24329373130E-01  0.53301600763E-01  0.51100000000E-03 0.  1.
</event>
<event>
 8    1  0.1122848E+005  0.1043930E+01  0.7957747E-01            NaN
         13   -1    0    0    0    0  0.00000000000E+00  0.00000000000E+00  0.74505805969E-08  0.10566000000E+00  0.10566000000E+00 0.  1.
     999900   -1    0    0    0    0 -0.00000000000E+00 -0.00000000000E+00 -0.74505805969E-08  0.93827000000E+00  0.93827000000E+00 0. -1.
     999902    2    1    2    0    0  0.10735569382E-01 -0.24170945786E-01 -0.71737704016E-02  0.10165265321E+01  0.10161570944E+01 0.  0.
     999903    2    3    3    0    0 -0.69053373712E-01 -0.37149944159E-01  0.98256030397E-01  0.12655452540E+00  0.14605259970E-01 0.  0.
         14    1    1    2    0    0 -0.10735569382E-01  0.24170945786E-01  0.71737704016E-02  0.27403467881E-01  0.00000000000E+00 0.  1.
     999901    1    3    3    0    0  0.79788943094E-01  0.12978998373E-01 -0.10542980080E+00  0.88997200671E+00  0.88000000000E+00 0. -1.
        -11    1    4    4    0    0 -0.31561635150E-01 -0.23086544438E-01  0.40758917124E-01  0.56486067251E-01  0.51100000000E-03 0. -1.
         11    1    4    4    0    0 -0.37491738562E-01 -0.14063399722E-01  0.57497113273E-01  0.70068458153E-01  0.51100000000E-03 0.  1.
</event>
<event>
 8    1  0.1122848E+005  0.1043930E+01  0.7957747E-01            NaN
         13   -1    0    0    0    0  0.00000000000E+00  0.00000000000E+00  0.74505805969E-08  0.10566000000E+00  0.10566000000E+00 0.  1.
     999900   -1    0    0    0    0 -0.00000000000E+00 -0.00000000000E+00 -0.74505805969E-08  0.93827000000E+00  0.93827000000E+00 0.  1.
     999902    2    1    2    0    0 -0.44510578432E-03 -0.22492760217E-01 -0.40426541674E-02  0.10210724972E+01  0.10208166236E+01 0.  0.
     999903    2    3    3    0    0  0.10593300405E+00 -0.60475981998E-01 -0.48469565708E-01  0.13274104000E+00  0.19792401427E-01 0.  0.
         14    1    1    2    0    0  0.44510578432E-03  0.22492760217E-01  0.40426541674E-02  0.22857502795E-01  0.00000000000E+00 0.  1.
     999901    1    3    3    0    0 -0.10637810984E+00  0.37983221781E-01  0.44426911541E-01  0.88833145720E+00  0.88000000000E+00 0. -1.
        -11    1    4    4    0    0  0.10819611804E-01 -0.76385401839E-02 -0.12297857415E-01  0.18080644726E-01  0.51100000000E-03 0.  1.
         11    1    4    4    0    0  0.95113392249E-01 -0.52837441814E-01 -0.36171708293E-01  0.11466039527E+00  0.51100000000E-03 0. -1.
</event>
<event>
 8    1  0.1122848E+005  0.1043930E+01  0.7957747E-01            NaN
         13   -1    0    0    0    0  0.00000000000E+00  0.00000000000E+00  0.74505805969E-08  0.10566000000E+00  0.10566000000E+00 0.  1.
     999900   -1    0    0    0    0 -0.00000000000E+00 -0.00000000000E+00 -0.74505805969E-08  0.93827000000E+00  0.93827000000E+00 0. -1.
     999902    2    1    2    0    0  0.32424787306E-02  0.17591993025E-01 -0.16579728502E-01  0.10195398527E+01  0.10192480719E+01 0.  0.
     999903    2    3    3    0    0 -0.54720497778E-01  0.44464612192E-01  0.10591802341E+00  0.12876067497E+00  0.19729397355E-01 0.  0.
         14    1    1    2    0    0 -0.32424787306E-02 -0.17591993025E-01  0.16579728502E-01  0.24390147275E-01  0.00000000000E+00 0.  1.
     999901    1    3    3    0    0  0.57962976508E-01 -0.26872619168E-01 -0.12249775191E+00  0.89077917776E+00  0.88000000000E+00 0. -1.
        -11    1    4    4    0    0 -0.40798741396E-01  0.33390364162E-01  0.62074842593E-01  0.81443237426E-01  0.51100000000E-03 0. -1.
         11    1    4    4    0    0 -0.13921756381E-01  0.11074248030E-01  0.43843180817E-01  0.47317437540E-01  0.51100000000E-03 0.  1.
</event>
<event>
 8    1  0.1122848E+005  0.1043930E+01  0.7957747E-01            NaN
         13   -1    0    0    0    0  0.00000000000E+00  0.00000000000E+00  0.74505805969E-08  0.10566000000E+00  0.10566000000E+00 0. -1.
     999900   -1    0    0    0    0 -0.00000000000E+00 -0.00000000000E+00 -0.74505805969E-08  0.93827000000E+00  0.93827000000E+00 0. -1.
     999902    2    1    2    0    0  0.11281890561E-01  0.15245271084E-01  0.13960667259E-01  0.10203800621E+01  0.10201082646E+01 0.  0.
     999903    2    3    3    0    0 -0.25689067380E-01 -0.94792846199E-01  0.82509339598E-01  0.13011372022E+00  0.21821484745E-01 0.  0.
         14    1    1    2    0    0 -0.11281890561E-01 -0.15245271084E-01 -0.13960667259E-01  0.23549937906E-01  0.00000000000E+00 0.  1.
     999901    1    3    3    0    0  0.36970957940E-01  0.11003811728E+00 -0.68548672339E-01  0.89026634187E+00  0.88000000000E+00 0.  1.
        -11    1    4    4    0    0 -0.25517532167E-01 -0.81496657044E-01  0.79036320958E-01  0.11636086416E+00  0.51100000000E-03 0.  1.
         11    1    4    4    0    0 -0.17153521265E-03 -0.13296189155E-01  0.34730186397E-02  0.13752856061E-01  0.51100000000E-03 0. -1.
</event>
<event>
 8    1  0.1122848E+005  0.1043930E+01  0.7957747E-01            NaN
         13   -1    0    0    0    0  0.00000000000E+00  0.00000000000E+00  0.74505805969E-08  0.10566000000E+00  0.10566000000E+00 0.  1.
     999900   -1    0    0    0    0 -0.00000000000E+00 -0.00000000000E+00 -0.74505805969E-08  0.93827000000E+00  0.93827000000E+00 0. -1.
     999902    2    1    2    0    0 -0.12743233190E-01  0.24640450176E-02  0.21561555214E-01  0.10187633122E+01  0.10184524163E+01 0.  0.
     999903    2    3    3    0    0  0.15428645888E-01 -0.12590405060E+00 -0.57843284672E-02  0.12858365615E+00  0.20258951169E-01 0.  0.
         14    1    1    2    0    0  0.12743233190E-01 -0.24640450176E-02 -0.21561555214E-01  0.25166687769E-01  0.00000000000E+00 0. -1.
     999901    1    3    3    0    0 -0.28171879078E-01  0.12836809562E+00  0.27345883682E-01  0.89017965608E+00  0.88000000000E+00 0. -1.
        -11    1    4    4    0    0 -0.29673195962E-02 -0.27096855532E-01 -0.66930208823E-02  0.28073158263E-01  0.51100000000E-03 0. -1.
         11    1    4    4    0    0  0.18395965484E-01 -0.98807195067E-01  0.90869241512E-03  0.10051049789E+00  0.51100000000E-03 0.  1.
</event>
<event>
 8    1  0.1122848E+005  0.1043930E+01  0.7957747E-01            NaN
         13   -1    0    0    0    0  0.00000000000E+00  0.00000000000E+00  0.74505805969E-08  0.10566000000E+00  0.10566000000E+00 0.  1.
     999900   -1    0    0    0    0 -0.00000000000E+00 -0.00000000000E+00 -0.74505805969E-08  0.93827000000E+00  0.93827000000E+00 0. -1.
     999902    2    1    2    0    0 -0.20758469689E-01 -0.11110918033E-01  0.52299334184E-02  0.10198111533E+01  0.10195259043E+01 0.  0.
     999903    2    3    3    0    0  0.88264558590E-01  0.89093570972E-01 -0.95649210918E-02  0.12731698074E+00  0.19744092197E-01 0.  0.
         14    1    1    2    0    0  0.20758469689E-01  0.11110918033E-01 -0.52299334184E-02  0.24118846716E-01  0.00000000000E+00 0. -1.
     999901    1    3    3    0    0 -0.10902302828E+00 -0.10020448901E+00  0.14794854510E-01  0.89249417255E+00  0.88000000000E+00 0.  1.
        -11    1    4    4    0    0  0.45445201233E-01  0.37875080232E-01 -0.12593998058E-01  0.60486840931E-01  0.51100000000E-03 0. -1.
         11    1    4    4    0    0  0.42819357357E-01  0.51218490740E-01  0.30290769664E-02  0.66830139805E-01  0.51100000000E-03 0.  1.
</event>
<event>
 8    1  0.1122848E+005  0.1043930E+01  0.7957747E-01            NaN
         13   -1    0    0    0    0  0.00000000000E+00  0.00000000000E+00  0.74505805969E-08  0.10566000000E+00  0.10566000000E+00 0.  1.
     999900   -1    0    0    0    0 -0.00000000000E+00 -0.00000000000E+00 -0.74505805969E-08  0.93827000000E+00  0.93827000000E+00 0.  1.
     999902    2    1    2    0    0 -0.59935526905E-02  0.15403785674E-01  0.17683701722E-01  0.10197243686E+01  0.10194370384E+01 0.  0.
     999903    2    3    3    0    0  0.12309523412E+00  0.17816414352E-01  0.33002442408E-01  0.13017144744E+00  0.19636273598E-01 0.  0.
         14    1    1    2    0    0  0.59935526905E-02 -0.15403785674E-01 -0.17683701722E-01  0.24205631442E-01  0.00000000000E+00 0. -1.
     999901    1    3    3    0    0 -0.12908878681E+00 -0.24126286782E-02 -0.15318740687E-01  0.88955292112E+00  0.88000000000E+00 0. -1.
        -11    1    4    4    0    0  0.95812782613E-01  0.21891119402E-01  0.27209732591E-01  0.10198010144E+00  0.51100000000E-03 0.  1.
         11    1    4    4    0    0  0.27282451503E-01 -0.40747050498E-02  0.57927098177E-02  0.28191346000E-01  0.51100000000E-03 0. -1.
</event>
<event>
 8    1  0.1122848E+005  0.1043930E+01  0.7957747E-01            NaN
         13   -1    0    0    0    0  0.00000000000E+00  0.00000000000E+00  0.74505805969E-08  0.10566000000E+00  0.10566000000E+00 0.  1.
     999900   -1    0    0    0    0 -0.00000000000E+00 -0.00000000000E+00 -0.74505805969E-08  0.93827000000E+00  0.93827000000E+00 0.  1.
     999902    2    1    2    0    0  0.19442531192E-01 -0.39459636316E-02 -0.10342992693E-01  0.10215567985E+01  0.10213117704E+01 0.  0.
     999903    2    3    3    0    0 -0.10984420130E+00  0.36693169047E-01 -0.55407465070E-01  0.13004269037E+00  0.20711757994E-01 0.  0.
         14    1    1    2    0    0 -0.19442531192E-01  0.39459636316E-02  0.10342992693E-01  0.22373201514E-01  0.00000000000E+00 0. -1.
     999901    1    3    3    0    0  0.12928673249E+00 -0.40639132679E-01  0.45064472378E-01  0.89151410812E+00  0.88000000000E+00 0.  1.
        -11    1    4    4    0    0 -0.54518394934E-01  0.19816586153E-01 -0.16433692216E-01  0.60293281830E-01  0.51100000000E-03 0.  1.
         11    1    4    4    0    0 -0.55325806364E-01  0.16876582894E-01 -0.38973772854E-01  0.69749408538E-01  0.51100000000E-03 0. -1.
</event>
<event>
 8    1  0.1122848E+005  0.1043930E+01  0.7957747E-01            NaN
         13   -1    0    0    0    0  0.00000000000E+00  0.00000000000E+00  0.74505805969E-08  0.10566000000E+00  0.10566000000E+00 0. -1.
     999900   -1    0    0    0    0 -0.00000000000E+00 -0.00000000000E+00 -0.74505805969E-08  0.93827000000E+00  0.93827000000E+00 0.  1.
     999902    2    1    2    0    0 -0.65132092820E-03  0.27099243589E-03 -0.24279701768E-01  0.10196400520E+01  0.10193506924E+01 0.  0.
     999903    2    3    3    0    0 -0.33062200192E-02 -0.89094536089E-01  0.88549493704E-01  0.12794297702E+00  0.24075404083E-01 0.  0.
         14    1    1    2    0    0  0.65132092820E-03 -0.27099243589E-03  0.24279701768E-01  0.24289947999E-01  0.00000000000E+00 0. -1.
     999901    1    3    3    0    0  0.26548990910E-02  0.89365528525E-01 -0.11282919547E+00  0.89169707498E+00  0.88000000000E+00 0.  1.
        -11    1    4    4    0    0 -0.11784406684E-01 -0.36030775112E-01  0.44476716439E-01  0.58442522381E-01  0.51100000000E-03 0.  1.
         11    1    4    4    0    0  0.84781866646E-02 -0.53063760977E-01  0.44072777265E-01  0.69500454639E-01  0.51100000000E-03 0. -1.
</event>
<event>
 8    1  0.1122848E+005  0.1043930E+01  0.7957747E-01            NaN
         13   -1    0    0    0    0  0.00000000000E+00  0.00000000000E+00  0.74505805969E-08  0.10566000000E+00  0.10566000000E+00 0. -1.
     999900   -1    0    0    0    0 -0.00000000000E+00 -0.00000000000E+00 -0.74505805969E-08  0.93827000000E+00  0.93827000000E+00 0. -1.
     999902    2    1    2    0    0 -0.20491044785E-01  0.84821120004E-02  0.82278350296E-02  0.10202756894E+01  0.10200014490E+01 0.  0.
     999903    2    3    3    0    0 -0.55091592781E-02  0.88053204568E-01 -0.94393296181E-01  0.13062007501E+00  0.19177902904E-01 0.  0.
         14    1    1    2    0    0  0.20491044785E-01 -0.84821120004E-02 -0.82278350296E-02  0.23654310593E-01  0.00000000000E+00 0.  1.
     999901    1    3    3    0    0 -0.14981885507E-01 -0.79571092567E-01  0.10262113121E+00  0.88965561440E+00  0.88000000000E+00 0.  1.
        -11    1    4    4    0    0 -0.28157405341E-02  0.29189833114E-01 -0.19065868448E-01  0.34982041287E-01  0.51100000000E-03 0.  1.
         11    1    4    4    0    0 -0.26934187440E-02  0.58863371454E-01 -0.75327427734E-01  0.95638033718E-01  0.51100000000E-03 0. -1.
</event>
<event>
 8    1  0.1122848E+005  0.1043930E+01  0.7957747E-01            NaN
         13   -1    0    0    0    0  0.00000000000E+00  0.00000000000E+00  0.74505805969E-08  0.10566000000E+00  0.10566000000E+00 0.  1.
     999900   -1    0    0    0    0 -0.00000000000E+00 -0.00000000000E+00 -0.74505805969E-08  0.93827000000E+00  0.93827000000E+00 0.  1.
     999902    2    1    2    0    0  0.15926772570E-02  0.16881255784E-01  0.14896254568E-01  0.10213598467E+01  0.10211104371E+01 0.  0.
     999903    2    3    3    0    0  0.10934200407E+00 -0.32325266119E-01  0.63483141219E-01  0.13209504660E+00  0.20454716655E-01 0.  0.
         14    1    1    2    0    0 -0.15926772570E-02 -0.16881255784E-01 -0.14896254568E-01  0.22570153252E-01  0.00000000000E+00 0. -1.
     999901    1    3    3    0    0 -0.10774932681E+00  0.49206521903E-01 -0.48586886651E-01  0.88926480015E+00  0.88000000000E+00 0.  1.
        -11    1    4    4    0    0  0.61729548145E-01 -0.28723197266E-01  0.37720155422E-01  0.77837204609E-01  0.51100000000E-03 0. -1.
         11    1    4    4    0    0  0.47612455926E-01 -0.36020688528E-02  0.25762985797E-01  0.54257841991E-01  0.51100000000E-03 0.  1.
</event>
<event>
 8    1  0.1122848E+005  0.1043930E+01  0.7957747E-01            NaN
         13   -1    0    0    0    0  0.00000000000E+00  0.00000000000E+00  0.74505805969E-08  0.10566000000E+00  0.10566000000E+00 0. -1.
     999900   -1    0    0    0    0 -0.00000000000E+00 -0.00000000000E+00 -0.74505805969E-08  0.93827000000E+00  0.93827000000E+00 0. -1.
     999902    2    1    2    0    0  0.15713130927E-02 -0.19717188513E-01 -0.12435406705E-01  0.10205660130E+01  0.10202985402E+01 0.  0.
     999903    2    3    3    0    0  0.10592422070E+00  0.15199481859E-02  0.72643106946E-01  0.13007238655E+00  0.20483016898E-01 0.  0.
         14    1    1    2    0    0 -0.15713130927E-02  0.19717188513E-01  0.12435406705E-01  0.23363986980E-01  0.00000000000E+00 0. -1.
     999901    1    3    3    0    0 -0.10435290761E+00 -0.21237136699E-01 -0.85078513652E-01  0.89049362647E+00  0.88000000000E+00 0. -1.
        -11    1    4    4    0    0  0.69193759161E-01 -0.29618828685E-02  0.57767383734E-01  0.90188030256E-01  0.51100000000E-03 0. -1.
         11    1    4    4    0    0  0.36730461543E-01  0.44818310544E-02  0.14875723213E-01  0.39884356292E-01  0.51100000000E-03 0.  1.
</event>
<event>
 8    1  0.1122848E+005  0.1043930E+01  0.7957747E-01            NaN
         13   -1    0    0    0    0  0.00000000000E+00  0.00000000000E+00  0.74505805969E-08  0.10566000000E+00  0.10566000000E+00 0. -1.
     999900   -1    0    0    0    0 -0.00000000000E+00 -0.00000000000E+00 -0.74505805969E-08  0.93827000000E+00  0.93827000000E+00 0.  1.
     999902    2    1    2    0    0  0.72861274534E-02  0.13012791491E-01  0.17162596211E-01  0.10211929135E+01  0.10209397589E+01 0.  0.
     999903    2    3    3    0    0  0.84179728185E-01 -0.92063093948E-01 -0.32229747744E-01  0.13024220148E+00  0.19037712630E-01 0.  0.
         14    1    1    2    0    0 -0.72861274534E-02 -0.13012791491E-01 -0.17162596211E-01  0.22737086541E-01  0.00000000000E+00 0.  1.
     999901    1    3    3    0    0 -0.76893600732E-01  0.10507588544E+00  0.49392343955E-01  0.89095071198E+00  0.88000000000E+00 0. -1.
        -11    1    4    4    0    0  0.43674122073E-01 -0.45808629653E-01 -0.26057480678E-01  0.68447884626E-01  0.51100000000E-03 0.  1.
         11    1    4    4    0    0  0.40505606112E-01 -0.46254464294E-01 -0.61722670661E-02  0.61794316854E-01  0.51100000000E-03 0. -1.
</event>
<event>
 8    1  0.1122848E+005  0.1043930E+01  0.7957747E-01            NaN
         13   -1    0    0    0    0  0.00000000000E+00  0.00000000000E+00  0.74505805969E-08  0.10566000000E+00  0.10566000000E+00 0. -1.
     999900   -1    0    0    0    0 -0.00000000000E+00 -0.00000000000E+00 -0.74505805969E-08  0.93827000000E+00  0.93827000000E+00 0.  1.
     999902    2    1    2    0    0  0.78179392311E-02  0.15863134070E-01  0.18166797529E-01  0.10185766624E+01  0.10182610792E+01 0.  0.
     999903    2    3    3    0    0  0.53824296601E-02 -0.36694064864E-01 -0.11899561630E+00  0.12639858674E+00  0.21005263326E-01 0.  0.
         14    1    1    2    0    0 -0.78179392311E-02 -0.15863134070E-01 -0.18166797529E-01  0.25353337627E-01  0.00000000000E+00 0.  1.
     999901    1    3    3    0    0  0.24355095711E-02  0.52557198933E-01  0.13716241383E+00  0.89217807563E+00  0.88000000000E+00 0. -1.
        -11    1    4    4    0    0  0.11389815434E-01 -0.27271361626E-01 -0.10075150062E+00  0.10499800502E+00  0.51100000000E-03 0. -1.
         11    1    4    4    0    0 -0.60073857741E-02 -0.94227032374E-02 -0.18244115682E-01  0.21400581725E-01  0.51100000000E-03 0.  1.
</event>
<event>
 8    1  0.1122848E+005  0.1043930E+01  0.7957747E-01            NaN
         13   -1    0    0    0    0  0.00000000000E+00  0.00000000000E+00  0.74505805969E-08  0.10566000000E+00  0.10566000000E+00 0. -1.
     999900   -1    0    0    0    0 -0.00000000000E+00 -0.00000000000E+00 -0.74505805969E-08  0.93827000000E+00  0.93827000000E+00 0. -1.
     999902    2    1    2    0    0  0.18565179968E-02 -0.19884515089E-01 -0.12902426450E-01  0.10201536839E+01  0.10198765737E+01 0.  0.
     999903    2    3    3    0    0  0.10106326194E+00 -0.80355467559E-01  0.19224587486E-01  0.13193588450E+00  0.19149641581E-01 0.  0.
         14    1    1    2    0    0 -0.18565179968E-02  0.19884515089E-01  0.12902426450E-01  0.23776316109E-01  0.00000000000E+00 0.  1.
     999901    1    3    3    0    0 -0.99206743946E-01  0.60470952469E-01 -0.32127013936E-01  0.88821779939E+00  0.88000000000E+00 0.  1.
        -11    1    4    4    0    0  0.77775592699E-01 -0.58299313909E-01  0.22247598045E-01  0.99714941516E-01  0.51100000000E-03 0.  1.
         11    1    4    4    0    0  0.23287669244E-01 -0.22056153650E-01 -0.30230105594E-02  0.32220942980E-01  0.51100000000E-03 0. -1.
</event>
<event>
 8    1  0.1122848E+005  0.1043930E+01  0.7957747E-01            NaN
         13   -1    0    0    0    0  0.00000000000E+00  0.00000000000E+00  0.74505805969E-08  0.10566000000E+00  0.10566000000E+00 0. -1.
     999900   -1    0    0    0    0 -0.00000000000E+00 -0.00000000000E+00 -0.74505805969E-08  0.93827000000E+00  0.93827000000E+00 0. -1.
     999902    2    1    2    0    0  0.87016567116E-02  0.30483541989E-02  0.15952448692E-01  0.10255046937E+01  0.10253391560E+01 0.  0.
     999903    2    3    3    0    0 -0.50459527123E-02 -0.23687525404E-01  0.13347632722E+00  0.13718286799E+00  0.20411977887E-01 0.  0.
         14    1    1    2    0    0 -0.87016567116E-02 -0.30483541989E-02 -0.15952448692E-01  0.18425306296E-01  0.00000000000E+00 0.  1.
     999901    1    3    3    0    0  0.13747609424E-01  0.26735879603E-01 -0.11752387853E+00  0.88832182572E+00  0.88000000000E+00 0. -1.
        -11    1    4    4    0    0 -0.93638178230E-02 -0.45166842759E-02  0.68869193804E-01  0.69651335215E-01  0.51100000000E-03 0.  1.
         11    1    4    4    0    0  0.43178651107E-02 -0.19170841128E-01  0.64607133419E-01  0.67531532770E-01  0.51100000000E-03 0. -1.
</event>
<event>
 8    1  0.1122848E+005  0.1043930E+01  0.7957747E-01            NaN
         13   -1    0    0    0    0  0.00000000000E+00  0.00000000000E+00  0.74505805969E-08  0.10566000000E+00  0.10566000000E+00 0. -1.
     999900   -1    0    0    0    0 -0.00000000000E+00 -0.00000000000E+00 -0.74505805969E-08  0.93827000000E+00  0.93827000000E+00 0.  1.
     999902    2    1    2    0    0  0.30245599654E-02 -0.21722014500E-01 -0.93285603373E-02  0.10200969155E+01  0.10198184648E+01 0.  0.
     999903    2    3    3    0    0  0.74508137772E-01  0.80201931675E-01  0.64545329840E-01  0.12826972132E+00  0.17412907988E-01 0.  0.
         14    1    1    2    0    0 -0.30245599654E-02  0.21722014500E-01  0.93285603373E-02  0.23833084460E-01  0.00000000000E+00 0.  1.
     999901    1    3    3    0    0 -0.71483577807E-01 -0.10192394618E+00 -0.73873890177E-01  0.89182719422E+00  0.88000000000E+00 0.  1.
        -11    1    4    4    0    0  0.45581304748E-01  0.56474258792E-01  0.34894474156E-01  0.80528769370E-01  0.51100000000E-03 0. -1.
         11    1    4    4    0    0  0.28926833024E-01  0.23727672883E-01  0.29650855684E-01  0.47740951949E-01  0.51100000000E-03 0.  1.
</event>
<event>
 8    1  0.1122848E+005  0.1043930E+01  0.7957747E-01            NaN
         13   -1    0    0    0    0  0.00000000000E+00  0.00000000000E+00  0.74505805969E-08  0.10566000000E+00  0.10566000000E+00 0. -1.
     999900   -1    0    0    0    0 -0.00000000000E+00 -0.00000000000E+00 -0.74505805969E-08  0.93827000000E+00  0.93827000000E+00 0.  1.
     999902    2    1    2    0    0 -0.10424641263E-02 -0.26795654882E-01  0.74609055364E-02  0.10160955077E+01  0.10157141929E+01 0.  0.
     999903    2    3    3    0    0  0.68478170038E-01  0.91097460259E-01  0.46029489553E-01  0.12468121518E+00  0.20944795858E-01 0.  0.
         14    1    1    2    0    0  0.10424641263E-02  0.26795654882E-01 -0.74609055364E-02  0.27834492333E-01  0.00000000000E+00 0.  1.
     999901    1    3    3    0    0 -0.69520634164E-01 -0.11789311514E+00 -0.38568584016E-01  0.89141429248E+00  0.88000000000E+00 0. -1.
        -11    1    4    4    0    0 -0.62500071175E-03  0.68903463615E-02  0.29822709116E-02  0.75513283376E-02  0.51100000000E-03 0. -1.
         11    1    4    4    0    0  0.69103170749E-01  0.84207113898E-01  0.43047218641E-01  0.11712988685E+00  0.51100000000E-03 0.  1.
</event>
<event>
 8    1  0.1122848E+005  0.1043930E+01  0.7957747E-01            NaN
         13   -1    0    0    0    0  0.00000000000E+00  0.00000000000E+00  0.74505805969E-08  0.10566000000E+00  0.10566000000E+00 0.  1.
     999900   -1    0    0    0    0 -0.00000000000E+00 -0.00000000000E+00 -0.74505805969E-08  0.93827000000E+00  0.93827000000E+00 0.  1.
     999902    2    1    2    0    0  0.16323498627E-02 -0.19722797550E-01 -0.11264032882E-01  0.10211587079E+01  0.10209047825E+01 0.  0.
     999903    2    3    3    0    0  0.10202505699E+00  0.33623130862E-01  0.70282158050E-01  0.13010637214E+00  0.21176854062E-01 0.  0.
         14    1    1    2    0    0 -0.16323498627E-02  0.19722797550E-01  0.11264032882E-01  0.22771292147E-01  0.00000000000E+00 0.  1.
     999901    1    3    3    0    0 -0.10039270713E+00 -0.53345928411E-01 -0.81546190932E-01  0.89105233571E+00  0.88000000000E+00 0.  1.
        -11    1    4    4    0    0  0.41446751532E-01  0.12748778927E-01  0.16321376992E-01  0.46335872114E-01  0.51100000000E-03 0. -1.
         11    1    4    4    0    0  0.60578305462E-01  0.20874351935E-01  0.53960781058E-01  0.83770500027E-01  0.51100000000E-03 0.  1.
</event>
<event>
 8    1  0.1122848E+005  0.1043930E+01  0.7957747E-01            NaN
         13   -1    0    0    0    0  0.00000000000E+00  0.00000000000E+00  0.74505805969E-08  0.10566000000E+00  0.10566000000E+00 0.  1.
     999900   -1    0    0    0    0 -0.00000000000E+00 -0.00000000000E+00 -0.74505805969E-08  0.93827000000E+00  0.93827000000E+00 0. -1.
     999902    2    1    2    0    0 -0.22851206925E-01 -0.34757590203E-02 -0.30887044776E-02  0.10206105091E+01  0.10203440658E+01 0.  0.
     999903    2    3    3    0    0 -0.26946920723E-01 -0.12352269683E+00  0.31337246161E-01  0.13178364848E+00  0.20022832970E-01 0.  0.
         14    1    1    2    0    0  0.22851206925E-01  0.34757590203E-02  0.30887044776E-02  0.23319490862E-01  0.00000000000E+00 0. -1.
     999901    1    3    3    0    0  0.40957137982E-02  0.12004693781E+00 -0.34425950639E-01  0.88882686066E+00  0.88000000000E+00 0.  1.
        -11    1    4    4    0    0 -0.33975869890E-02 -0.60077542591E-01  0.17948311513E-01  0.62795363908E-01  0.51100000000E-03 0. -1.
         11    1    4    4    0    0 -0.23549333734E-01 -0.63445154243E-01  0.13388934648E-01  0.68988284572E-01  0.51100000000E-03 0.  1.
</event>
<event>
 8    1  0.1122848E+005  0.1043930E+01  0.7957747E-01            NaN
         13   -1    0    0    0    0  0.00000000000E+00  0.00000000000E+00  0.74505805969E-08  0.10566000000E+00  0.10566000000E+00 0.  1.
     999900   -1    0    0    0    0 -0.00000000000E+00 -0.00000000000E+00 -0.74505805969E-08  0.93827000000E+00  0.93827000000E+00 0.  1.
     999902    2    1    2    0    0  0.15724612940E-02 -0.23501481777E-01 -0.34383071981E-02  0.10201263398E+01  0.10198485844E+01 0.  0.
     999903    2    3    3    0    0  0.25366649534E-02  0.11962577656E+00  0.38178419390E-01  0.12759158215E+00  0.22477967939E-01 0.  0.
         14    1    1    2    0    0 -0.15724612940E-02  0.23501481777E-01  0.34383071981E-02  0.23803660152E-01  0.00000000000E+00 0.  1.
     999901    1    3    3    0    0 -0.96420365944E-03 -0.14312725833E+00 -0.41616726588E-01  0.89253475770E+00  0.88000000000E+00 0.  1.
        -11    1    4    4    0    0 -0.51747050185E-02  0.23219219541E-01  0.15031127755E-01  0.28144371564E-01  0.51100000000E-03 0. -1.
         11    1    4    4    0    0  0.77113699719E-02  0.96406557015E-01  0.23147291635E-01  0.99447210586E-01  0.51100000000E-03 0.  1.
</event>
<event>
 8    1  0.1122848E+005  0.1043930E+01  0.7957747E-01            NaN
         13   -1    0    0    0    0  0.00000000000E+00  0.00000000000E+00  0.74505805969E-08  0.10566000000E+00  0.10566000000E+00 0. -1.
     999900   -1    0    0    0    0 -0.00000000000E+00 -0.00000000000E+00 -0.74505805969E-08  0.93827000000E+00  0.93827000000E+00 0.  1.
     999902    2    1    2    0    0  0.40889559429E-02  0.22129954027E-01  0.58301455353E-02  0.10206825265E+01  0.10204177453E+01 0.  0.
     999903    2    3    3    0    0 -0.21273816274E-02 -0.12380504200E+00  0.30612987503E-01  0.12829816137E+00  0.13822048707E-01 0.  0.
         14    1    1    2    0    0 -0.40889559429E-02 -0.22129954027E-01 -0.58301455353E-02  0.23247473474E-01  0.00000000000E+00 0.  1.
     999901    1    3    3    0    0  0.62163375703E-02  0.14593499603E+00 -0.24782841968E-01  0.89238436516E+00  0.88000000000E+00 0.  1.
        -11    1    4    4    0    0 -0.57461467420E-03 -0.94024631427E-01  0.17166720856E-01  0.95582001041E-01  0.51100000000E-03 0.  1.
         11    1    4    4    0    0 -0.15527669532E-02 -0.29780410572E-01  0.13446266646E-01  0.32716160330E-01  0.51100000000E-03 0. -1.
</event>
<event>
 8    1  0.1257028E+005  0.1043930E+01  0.7957747E-01            NaN
         13   -1    0    0    0    0  0.00000000000E+00  0.00000000000E+00  0.74505805969E-08  0.10566000000E+00  0.10566000000E+00 0. -1.
     999900   -1    0    0    0    0 -0.00000000000E+00 -0.00000000000E+00 -0.74505805969E-08  0.93827000000E+00  0.93827000000E+00 0.  1.
     999902    2    1    2    0    0 -0.12217791802E-01 -0.14785740335E-01  0.14237071619E-01  0.10200430420E+01  0.10197633161E+01 0.  0.
     999903    2    3    3    0    0  0.12364713330E+00  0.38792897563E-02 -0.27539245691E-01  0.12844171748E+00  0.20861502157E-01 0.  0.
         14    1    1    2    0    0  0.12217791802E-01  0.14785740335E-01 -0.14237071619E-01  0.23886957991E-01  0.00000000000E+00 0.  1.
     999901    1    3    3    0    0 -0.13586492510E+00 -0.18665030091E-01  0.41776317310E-01  0.89160132453E+00  0.88000000000E+00 0. -1.
        -11    1    4    4    0    0  0.82435653240E-01  0.11934056940E-01 -0.15200177977E-01  0.84672103857E-01  0.51100000000E-03 0.  1.
         11    1    4    4    0    0  0.41211480062E-01 -0.80547671840E-02 -0.12339067713E-01  0.43769613618E-01  0.51100000000E-03 0. -1.
</event>
<event>
 8    1  0.1122848E+005  0.1043930E+01  0.7957747E-01            NaN
         13   -1    0    0    0    0  0.00000000000E+00  0.00000000000E+00  0.74505805969E-08  0.10566000000E+00  0.10566000000E+00 0. -1.
     999900   -1    0    0    0    0 -0.00000000000E+00 -0.00000000000E+00 -0.74505805969E-08  0.93827000000E+00  0.93827000000E+00 0.  1.
     999902    2    1    2    0    0  0.13552495053E-01 -0.19575115306E-01  0.41856979709E-02  0.10197561437E+01  0.10194695764E+01 0.  0.
     999903    2    3    3    0    0 -0.70490540576E-01  0.84187940575E-01 -0.61221144690E-01  0.12728314204E+00  0.19910902589E-01 0.  0.
         14    1    1    2    0    0 -0.13552495053E-01  0.19575115306E-01 -0.41856979709E-02  0.24173856310E-01  0.00000000000E+00 0. -1.
     999901    1    3    3    0    0  0.84043035629E-01 -0.10376305588E+00  0.65406842661E-01  0.89247300165E+00  0.88000000000E+00 0. -1.
        -11    1    4    4    0    0 -0.12776506501E-01  0.11523244287E-01 -0.18028879050E-01  0.24926409249E-01  0.51100000000E-03 0. -1.
         11    1    4    4    0    0 -0.57714034076E-01  0.72664696288E-01 -0.43192265640E-01  0.10235673279E+00  0.51100000000E-03 0.  1.
</event>
<event>
 8    1  0.1122848E+005  0.1043930E+01  0.7957747E-01            NaN
         13   -1    0    0    0    0  0.00000000000E+00  0.00000000000E+00  0.74505805969E-08  0.10566000000E+00  0.10566000000E+00 0.  1.
     999900   -1    0    0    0    0 -0.00000000000E+00 -0.00000000000E+00 -0.74505805969E-08  0.93827000000E+00  0.93827000000E+00 0.  1.
     999902    2    1    2    0    0  0.19756052491E-01  0.97387230214E-02 -0.89346011952E-02  0.10201608722E+01  0.10198839315E+01 0.  0.
     999903    2    3    3    0    0  0.43541169996E-01  0.31567646016E-01 -0.11963840964E+00  0.13263759542E+00  0.19673151700E-01 0.  0.
         14    1    1    2    0    0 -0.19756052491E-01 -0.97387230214E-02  0.89346011952E-02  0.23769127763E-01  0.00000000000E+00 0.  1.
     999901    1    3    3    0    0 -0.23785117505E-01 -0.21828922995E-01  0.11070380844E+00  0.88752327682E+00  0.88000000000E+00 0. -1.
        -11    1    4    4    0    0  0.30561368512E-01  0.10680192927E-01 -0.61291830943E-01  0.69318204157E-01  0.51100000000E-03 0. -1.
         11    1    4    4    0    0  0.12979801483E-01  0.20887453089E-01 -0.58346578694E-01  0.63319391259E-01  0.51100000000E-03 0.  1.
</event>
<event>
 8    1  0.1122848E+005  0.1043930E+01  0.7957747E-01            NaN
         13   -1    0    0    0    0  0.00000000000E+00  0.00000000000E+00  0.74505805969E-08  0.10566000000E+00  0.10566000000E+00 0. -1.
     999900   -1    0    0    0    0 -0.00000000000E+00 -0.00000000000E+00 -0.74505805969E-08  0.93827000000E+00  0.93827000000E+00 0. -1.
     999902    2    1    2    0    0  0.65950597101E-02  0.15062148749E-01  0.16568474883E-01  0.10205873888E+01  0.10203204108E+01 0.  0.
     999903    2    3    3    0    0  0.17385987322E-01 -0.12346136254E+00 -0.14717847680E-01  0.12913686226E+00  0.30244562450E-01 0.  0.
         14    1    1    2    0    0 -0.65950597101E-02 -0.15062148749E-01 -0.16568474883E-01  0.23342611197E-01  0.00000000000E+00 0.  1.
     999901    1    3    3    0    0 -0.10790927612E-01  0.13852351129E+00  0.31286322563E-01  0.89145052655E+00  0.88000000000E+00 0. -1.
        -11    1    4    4    0    0  0.18086682647E-01 -0.10975878639E+00 -0.33155510284E-02  0.11128959196E+00  0.51100000000E-03 0.  1.
         11    1    4    4    0    0 -0.70069532520E-03 -0.13702576147E-01 -0.11402296652E-01  0.17847270294E-01  0.51100000000E-03 0. -1.
</event>
<event>
 8    1  0.1122848E+005  0.1043930E+01  0.7957747E-01            NaN
         13   -1    0    0    0    0  0.00000000000E+00  0.00000000000E+00  0.74505805969E-08  0.10566000000E+00  0.10566000000E+00 0.  1.
     999900   -1    0    0    0    0 -0.00000000000E+00 -0.00000000000E+00 -0.74505805969E-08  0.93827000000E+00  0.93827000000E+00 0.  1.
     999902    2    1    2    0    0  0.13327362325E-01 -0.12625976832E-01  0.15395297089E-01  0.10199706793E+01  0.10196892358E+01 0.  0.
     999903    2    3    3    0    0  0.96806535116E-01 -0.81126437455E-01  0.36214464350E-01  0.13312541479E+00  0.21398236849E-01 0.  0.
         14    1    1    2    0    0 -0.13327362325E-01  0.12625976832E-01 -0.15395297089E-01  0.23959320733E-01  0.00000000000E+00 0. -1.
     999901    1    3    3    0    0 -0.83479172790E-01  0.68500460623E-01 -0.20819167260E-01  0.88684526447E+00  0.88000000000E+00 0. -1.
        -11    1    4    4    0    0  0.64230432999E-01 -0.64378816070E-01  0.31232253799E-01  0.96155578518E-01  0.51100000000E-03 0.  1.
         11    1    4    4    0    0  0.32576102116E-01 -0.16747621386E-01  0.49822105506E-02  0.36969836274E-01  0.51100000000E-03 0. -1.
</event>
<event>
 8    1  0.1122848E+005  0.1043930E+01  0.7957747E-01            NaN
         13   -1    0    0    0    0  0.00000000000E+00  0.00000000000E+00  0.74505805969E-08  0.10566000000E+00  0.10566000000E+00 0. -1.
     999900   -1    0    0    0    0 -0.00000000000E+00 -0.00000000000E+00 -0.74505805969E-08  0.93827000000E+00  0.93827000000E+00 0.  1.
     999902    2    1    2    0    0 -0.25910048521E-01  0.88317491094E-02 -0.53218627346E-02  0.10160435762E+01  0.10156608175E+01 0.  0.
     999903    2    3    3    0    0  0.21227264430E-01  0.69148723734E-01 -0.10301704992E+00  0.12733416744E+00  0.19218087187E-01 0.  0.
         14    1    1    2    0    0  0.25910048521E-01 -0.88317491094E-02  0.53218627346E-02  0.27886423752E-01  0.00000000000E+00 0. -1.
     999901    1    3    3    0    0 -0.47137312951E-01 -0.60316974625E-01  0.97695187184E-01  0.88870940881E+00  0.88000000000E+00 0. -1.
        -11    1    4    4    0    0  0.19292210876E-01  0.62987881438E-01 -0.81128527349E-01  0.10450723267E+00  0.51100000000E-03 0. -1.
         11    1    4    4    0    0  0.19350535543E-02  0.61608422965E-02 -0.21888522570E-01  0.22826934778E-01  0.51100000000E-03 0.  1.
</event>
<event>
 8    1  0.1122848E+005  0.1043930E+01  0.7957747E-01            NaN
         13   -1    0    0    0    0  0.00000000000E+00  0.00000000000E+00  0.74505805969E-08  0.10566000000E+00  0.10566000000E+00 0.  1.
     999900   -1    0    0    0    0 -0.00000000000E+00 -0.00000000000E+00 -0.74505805969E-08  0.93827000000E+00  0.93827000000E+00 0.  1.
     999902    2    1    2    0    0  0.11139482955E-01  0.12280245531E-02  0.22206965874E-01  0.10190554054E+01  0.10187517724E+01 0.  0.
     999903    2    3    3    0    0 -0.89243157620E-02 -0.12728522325E+00  0.86175561501E-02  0.12939092764E+00  0.19661597341E-01 0.  0.
         14    1    1    2    0    0 -0.11139482955E-01 -0.12280245531E-02 -0.22206965874E-01  0.24874594633E-01  0.00000000000E+00 0. -1.
     999901    1    3    3    0    0  0.20063798717E-01  0.12851324781E+00  0.13589409724E-01  0.88966447773E+00  0.88000000000E+00 0. -1.
        -11    1    4    4    0    0 -0.35960064650E-02 -0.45446814257E-02 -0.18078061746E-02  0.60921815405E-02  0.51100000000E-03 0. -1.
         11    1    4    4    0    0 -0.53283092970E-02 -0.12274054183E+00  0.10425362325E-01  0.12329874610E+00  0.51100000000E-03 0.  1.
</event>
<event>
 8    1  0.1122848E+005  0.1043930E+01  0.7957747E-01            NaN
         13   -1    0    0    0    0  0.00000000000E+00  0.00000000000E+00  0.74505805969E-08  0.10566000000E+00  0.10566000000E+00 0. -1.
     999900   -1    0    0    0    0 -0.00000000000E+00 -0.00000000000E+00 -0.74505805969E-08  0.93827000000E+00  0.93827000000E+00 0. -1.
     999902    2    1    2    0    0 -0.18053188049E-01 -0.17347651003E-01 -0.53668034403E-03  0.10188871044E+01  0.10185792973E+01 0.  0.
     999903    2    3    3    0    0 -0.12580056520E+00  0.49598215543E-02 -0.31455530732E-01  0.13149593027E+00  0.21244934252E-01 0.  0.
         14    1    1    2    0    0  0.18053188049E-01  0.17347651003E-01  0.53668034403E-03  0.25042895597E-01  0.00000000000E+00 0. -1.
     999901    1    3    3    0    0  0.10774737715E+00 -0.22307472558E-01  0.30918850388E-01  0.88739117413E+00  0.88000000000E+00 0. -1.
        -11    1    4    4    0    0 -0.72325508332E-01  0.11695026882E-01 -0.23915327361E-01  0.77071115296E-01  0.51100000000E-03 0.  1.
         11    1    4    4    0    0 -0.53475056864E-01 -0.67352053275E-02 -0.75402033710E-02  0.54424814977E-01  0.51100000000E-03 0. -1.
</event>
<event>
 8    1  0.1122848E+005  0.1043930E+01  0.7957747E-01            NaN
         13   -1    0    0    0    0  0.00000000000E+00  0.00000000000E+00  0.74505805969E-08  0.10566000000E+00  0.10566000000E+00 0. -1.
     999900   -1    0    0    0    0 -0.00000000000E+00 -0.00000000000E+00 -0.74505805969E-08  0.93827000000E+00  0.93827000000E+00 0.  1.
     999902    2    1    2    0    0 -0.75310573731E-03  0.34547382794E-02  0.19633003975E-01  0.10239811346E+01  0.10237867975E+01 0.  0.
     999903    2    3    3    0    0 -0.37615296468E-01  0.11091219123E+00 -0.59907129148E-01  0.13312056300E+00  0.20391063646E-01 0.  0.
         14    1    1    2    0    0  0.75310573731E-03 -0.34547382794E-02 -0.19633003975E-01  0.19948865379E-01  0.00000000000E+00 0.  1.
     999901    1    3    3    0    0  0.36862190731E-01 -0.10745745295E+00  0.79540133123E-01  0.89086057163E+00  0.88000000000E+00 0. -1.
        -11    1    4    4    0    0 -0.15442805822E-01  0.33008714508E-01 -0.93072989878E-02  0.37615720391E-01  0.51100000000E-03 0. -1.
         11    1    4    4    0    0 -0.22172490646E-01  0.77903476726E-01 -0.50599830161E-01  0.95504842604E-01  0.51100000000E-03 0.  1.
</event>
<event>
 8    1  0.1122848E+005  0.1043930E+01  0.7957747E-01            NaN
         13   -1    0    0    0    0  0.00000000000E+00  0.00000000000E+00  0.74505805969E-08  0.10566000000E+00  0.10566000000E+00 0.  1.
     999900   -1    0    0    0    0 -0.00000000000E+00 -0.00000000000E+00 -0.74505805969E-08  0.93827000000E+00  0.93827000000E+00 0.  1.
     999902    2    1    2    0    0  0.20200783082E-01 -0.69484419197E-02 -0.73918218938E-02  0.10213248786E+01  0.10210746869E+01 0.  0.
     999903    2    3    3    0    0 -0.33356854461E-01 -0.20050717489E-01  0.12245971870E+00  0.13008893187E+00  0.20298681712E-01 0.  0.
         14    1    1    2    0    0 -0.20200783082E-01  0.69484419197E-02  0.73918218938E-02  0.22605121392E-01  0.00000000000E+00 0. -1.
     999901    1    3    3    0    0  0.53557637543E-01  0.13102275570E-01 -0.12985154059E+00  0.89123594674E+00  0.88000000000E+00 0.  1.
        -11    1    4    4    0    0 -0.10107936783E-01 -0.17871244415E-01  0.57099676288E-01  0.60681017758E-01  0.51100000000E-03 0. -1.
         11    1    4    4    0    0 -0.23248917678E-01 -0.21794730741E-02  0.65360042413E-01  0.69407914112E-01  0.51100000000E-03 0.  1.
</event>
<event>
 8    1  0.1122848E+005  0.1043930E+01  0.7957747E-01            NaN
         13   -1    0    0    0    0  0.00000000000E+00  0.00000000000E+00  0.74505805969E-08  0.10566000000E+00  0.10566000000E+00 0. -1.
     999900   -1    0    0    0    0 -0.00000000000E+00 -0.00000000000E+00 -0.74505805969E-08  0.93827000000E+00  0.93827000000E+00 0. -1.
     999902    2    1    2    0    0 -0.19943552664E-01 -0.10398128565E-01  0.88847634399E-02  0.10197472501E+01  0.10194604694E+01 0.  0.
     999903    2    3    3    0    0  0.95673497271E-01 -0.57920996171E-01 -0.59610090373E-01  0.12827808622E+00  0.19840480140E-01 0.  0.
         14    1    1    2    0    0  0.19943552664E-01  0.10398128565E-01 -0.88847634399E-02  0.24182749883E-01  0.00000000000E+00 0.  1.
     999901    1    3    3    0    0 -0.11561704994E+00  0.47522867606E-01  0.68494853813E-01  0.89146916390E+00  0.88000000000E+00 0.  1.
        -11    1    4    4    0    0  0.65080075855E-01 -0.32336167259E-01 -0.46578137769E-01  0.86318178997E-01  0.51100000000E-03 0. -1.
         11    1    4    4    0    0  0.30593421416E-01 -0.25584828913E-01 -0.13031952604E-01  0.41959907223E-01  0.51100000000E-03 0.  1.
</event>
<event>
 8    1  0.1122848E+005  0.1043930E+01  0.7957747E-01            NaN
         13   -1    0    0    0    0  0.00000000000E+00  0.00000000000E+00  0.74505805969E-08  0.10566000000E+00  0.10566000000E+00 0. -1.
     999900   -1    0    0    0    0 -0.00000000000E+00 -0.00000000000E+00 -0.74505805969E-08  0.93827000000E+00  0.93827000000E+00 0.  1.
     999902    2    1    2    0    0 -0.49436934712E-02 -0.82064354156E-02 -0.83256896843E-02  0.10312373724E+01  0.10311592580E+01 0.  0.
     999903    2    3    3    0    0 -0.77279899137E-01  0.10472369973E+00 -0.48153399346E-01  0.14018631405E+00  0.19854890693E-01 0.  0.
         14    1    1    2    0    0  0.49436934712E-02  0.82064354156E-02  0.83256896843E-02  0.12692627627E-01  0.00000000000E+00 0. -1.
     999901    1    3    3    0    0  0.72336205666E-01 -0.11293013514E+00  0.39827709661E-01  0.89105105832E+00  0.88000000000E+00 0.  1.
        -11    1    4    4    0    0 -0.40948255023E-01  0.62917010009E-01 -0.18321940557E-01  0.77273956574E-01  0.51100000000E-03 0.  1.
         11    1    4    4    0    0 -0.36331644114E-01  0.41806689718E-01 -0.29831458788E-01  0.62912357480E-01  0.51100000000E-03 0. -1.
</event>
<event>
 8    1  0.1122848E+005  0.1043930E+01  0.7957747E-01            NaN
         13   -1    0    0    0    0  0.00000000000E+00  0.00000000000E+00  0.74505805969E-08  0.10566000000E+00  0.10566000000E+00 0.  1.
     999900   -1    0    0    0    0 -0.00000000000E+00 -0.00000000000E+00 -0.74505805969E-08  0.93827000000E+00  0.93827000000E+00 0. -1.
     999902    2    1    2    0    0 -0.15870587798E-01 -0.17062408400E-01 -0.52482785121E-02  0.10200439002E+01  0.10197641946E+01 0.  0.
     999903    2    3    3    0    0  0.12044508047E+00 -0.35403457551E-03  0.39541522126E-01  0.12826631725E+00  0.19533904304E-01 0.  0.
         14    1    1    2    0    0  0.15870587798E-01  0.17062408400E-01  0.52482785121E-02  0.23886099824E-01  0.00000000000E+00 0. -1.
     999901    1    3    3    0    0 -0.13631566827E+00 -0.16708373825E-01 -0.44789800638E-01  0.89177758293E+00  0.88000000000E+00 0.  1.
        -11    1    4    4    0    0  0.55800731625E-01 -0.26796648158E-02  0.28236811682E-01  0.62597770794E-01  0.51100000000E-03 0.  1.
         11    1    4    4    0    0  0.64644348849E-01  0.23256302403E-02  0.11304710444E-01  0.65668546453E-01  0.51100000000E-03 0. -1.
</event>
<event>
 8    1  0.1122848E+005  0.1043930E+01  0.7957747E-01            NaN
         13   -1    0    0    0    0  0.00000000000E+00  0.00000000000E+00  0.74505805969E-08  0.10566000000E+00  0.10566000000E+00 0. -1.
     999900   -1    0    0    0    0 -0.00000000000E+00 -0.00000000000E+00 -0.74505805969E-08  0.93827000000E+00  0.93827000000E+00 0. -1.
     999902    2    1    2    0    0  0.13286500763E-01 -0.13003058493E-01  0.18888510628E-01  0.10174274253E+01  0.10170821890E+01 0.  0.
     999903    2    3    3    0    0 -0.53536708327E-01  0.37758794792E-01  0.10936881129E+00  0.12881682900E+00  0.18448111778E-01 0.  0.
         14    1    1    2    0    0 -0.13286500763E-01  0.13003058493E-01 -0.18888510628E-01  0.26502574714E-01  0.00000000000E+00 0.  1.
     999901    1    3    3    0    0  0.66823209090E-01 -0.50761853285E-01 -0.90480300662E-01  0.88861059628E+00  0.88000000000E+00 0. -1.
        -11    1    4    4    0    0 -0.52629842366E-01  0.34728961495E-01  0.94500213389E-01  0.11360700914E+00  0.51100000000E-03 0. -1.
         11    1    4    4    0    0 -0.90686596153E-03  0.30298332969E-02  0.14868597901E-01  0.15209819862E-01  0.51100000000E-03 0.  1.
</event>
<event>
 8    1  0.1122848E+005  0.1043930E+01  0.7957747E-01            NaN
         13   -1    0    0    0    0  0.00000000000E+00  0.00000000000E+00  0.74505805969E-08  0.10566000000E+00  0.10566000000E+00 0. -1.
     999900   -1    0    0    0    0 -0.00000000000E+00 -0.00000000000E+00 -0.74505805969E-08  0.93827000000E+00  0.93827000000E+00 0.  1.
     999902    2    1    2    0    0  0.32823993421E-02 -0.16177927064E-01  0.16639952473E-01  0.10204909836E+01  0.10202217701E+01 0.  0.
     999903    2    3    3    0    0  0.21439444860E-01  0.63042280344E-01  0.11161871804E+00  0.13165664279E+00  0.20994153164E-01 0.  0.
         14    1    1    2    0    0 -0.32823993421E-02  0.16177927064E-01 -0.16639952473E-01  0.23439016358E-01  0.00000000000E+00 0.  1.
     999901    1    3    3    0    0 -0.18157045518E-01 -0.79220207408E-01 -0.94978765570E-01  0.88883434085E+00  0.88000000000E+00 0.  1.
        -11    1    4    4    0    0  0.89491850367E-02  0.39179243909E-01  0.83757826195E-01  0.92901752599E-01  0.51100000000E-03 0. -1.
         11    1    4    4    0    0  0.12490259823E-01  0.23863036435E-01  0.27860891848E-01  0.38754890194E-01  0.51100000000E-03 0.  1.
</event>
<event>
 8    1  0.1122848E+005  0.1043930E+01  0.7957747E-01            NaN
         13   -1    0    0    0    0  0.00000000000E+00  0.00000000000E+00  0.74505805969E-08  0.10566000000E+00  0.10566000000E+00 0.  1.
     999900   -1    0    0    0    0 -0.00000000000E+00 -0.00000000000E+00 -0.74505805969E-08  0.93827000000E+00  0.93827000000E+00 0.  1.
     999902    2    1    2    0    0  0.11290229759E-01  0.12969340709E-01 -0.20529838021E-01  0.10171503933E+01  0.10167978045E+01 0.  0.
     999903    2    3    3    0    0 -0.12218260401E+00 -0.53974969868E-02  0.22125280605E-01  0.12587501652E+00  0.19931634292E-01 0.  0.
         14    1    1    2    0    0 -0.11290229759E-01 -0.12969340709E-01  0.20529838021E-01  0.26779606712E-01  0.00000000000E+00 0.  1.
     999901    1    3    3    0    0  0.13347283377E+00  0.18366837696E-01 -0.42655118626E-01  0.89127537676E+00  0.88000000000E+00 0.  1.
        -11    1    4    4    0    0 -0.10646218873E+00  0.17877364551E-02  0.16904999735E-01  0.10781202979E+00  0.51100000000E-03 0. -1.
         11    1    4    4    0    0 -0.15720415288E-01 -0.71852334419E-02  0.52202808704E-02  0.18062986736E-01  0.51100000000E-03 0.  1.
</event>
<event>
 8    1  0.1122848E+005  0.1043930E+01  0.7957747E-01            NaN
         13   -1    0    0    0    0  0.00000000000E+00  0.00000000000E+00  0.74505805969E-08  0.10566000000E+00  0.10566000000E+00 0.  1.
     999900   -1    0    0    0    0 -0.00000000000E+00 -0.00000000000E+00 -0.74505805969E-08  0.93827000000E+00  0.93827000000E+00 0. -1.
     999902    2    1    2    0    0  0.10147234556E-01  0.21286014913E-01  0.41908806800E-02  0.10199795453E+01  0.10196983125E+01 0.  0.
     999903    2    3    3    0    0  0.14563726549E-01  0.86782702106E-01  0.97278831636E-01  0.13263818592E+00  0.19656494187E-01 0.  0.
         14    1    1    2    0    0 -0.10147234556E-01 -0.21286014913E-01 -0.41908806800E-02  0.23950454711E-01  0.00000000000E+00 0. -1.
     999901    1    3    3    0    0 -0.44164919934E-02 -0.65496687193E-01 -0.93087950956E-01  0.88734135937E+00  0.88000000000E+00 0. -1.
        -11    1    4    4    0    0  0.16457864934E-01  0.42708923545E-01  0.54699473296E-01  0.71324658909E-01  0.51100000000E-03 0. -1.
         11    1    4    4    0    0 -0.18941383849E-02  0.44073778561E-01  0.42579358339E-01  0.61313527010E-01  0.51100000000E-03 0.  1.
</event>
<event>
 8    1  0.1122848E+005  0.1043930E+01  0.7957747E-01            NaN
         13   -1    0    0    0    0  0.00000000000E+00  0.00000000000E+00  0.74505805969E-08  0.10566000000E+00  0.10566000000E+00 0.  1.
     999900   -1    0    0    0    0 -0.00000000000E+00 -0.00000000000E+00 -0.74505805969E-08  0.93827000000E+00  0.93827000000E+00 0.  1.
     999902    2    1    2    0    0  0.14834810046E-01  0.17487720102E-01  0.15798531502E-01  0.10160824590E+01  0.10157007817E+01 0.  0.
     999903    2    3    3    0    0  0.56732214992E-01 -0.65389286971E-01 -0.88083465411E-01  0.12511923857E+00  0.20045545933E-01 0.  0.
         14    1    1    2    0    0 -0.14834810046E-01 -0.17487720102E-01 -0.15798531502E-01  0.27847541024E-01  0.00000000000E+00 0. -1.
     999901    1    3    3    0    0 -0.41897404945E-01  0.82877007073E-01  0.10388199691E+00  0.89096322041E+00  0.88000000000E+00 0. -1.
        -11    1    4    4    0    0  0.34718236069E-01 -0.28172963597E-01 -0.35866028127E-01  0.57321068449E-01  0.51100000000E-03 0. -1.
         11    1    4    4    0    0  0.22013978923E-01 -0.37216323374E-01 -0.52217437284E-01  0.67798170116E-01  0.51100000000E-03 0.  1.
</event>
<event>
 8    1  0.1122848E+005  0.1043930E+01  0.7957747E-01            NaN
         13   -1    0    0    0    0  0.00000000000E+00  0.00000000000E+00  0.74505805969E-08  0.10566000000E+00  0.10566000000E+00 0.  1.
     999900   -1    0    0    0    0 -0.00000000000E+00 -0.00000000000E+00 -0.74505805969E-08  0.93827000000E+00  0.93827000000E+00 0. -1.
     999902    2    1    2    0    0  0.19926335446E-01  0.11297369823E-01  0.18081734046E-02  0.10209526437E+01  0.10206940491E+01 0.  0.
     999903    2    3    3    0    0 -0.10725470512E-01  0.11353310773E+00 -0.63581834040E-01  0.13209521289E+00  0.20042289841E-01 0.  0.
         14    1    1    2    0    0 -0.19926335446E-01 -0.11297369823E-01 -0.18081734046E-02  0.22977356251E-01  0.00000000000E+00 0. -1.
     999901    1    3    3    0    0  0.30651805958E-01 -0.10223573790E+00  0.65390007445E-01  0.88885743086E+00  0.88000000000E+00 0.  1.
        -11    1    4    4    0    0 -0.57680001439E-02  0.29264503148E-01 -0.75388202945E-02  0.30769723798E-01  0.51100000000E-03 0. -1.
         11    1    4    4    0    0 -0.49574703681E-02  0.84268604578E-01 -0.56043013745E-01  0.10132548910E+00  0.51100000000E-03 0.  1.
</event>
<event>
 8    1  0.1122848E+005  0.1043930E+01  0.7957747E-01            NaN
         13   -1    0    0    0    0  0.00000000000E+00  0.00000000000E+00  0.74505805969E-08  0.10566000000E+00  0.10566000000E+00 0. -1.
     999900   -1    0    0    0    0 -0.00000000000E+00 -0.00000000000E+00 -0.74505805969E-08  0.93827000000E+00  0.93827000000E+00 0. -1.
     999902    2    1    2    0    0  0.70861614342E-02 -0.70022105302E-02 -0.22545672043E-01  0.10192814308E+01  0.10189833577E+01 0.  0.
     999903    2    3    3    0    0  0.76733110039E-02  0.10988184614E-01  0.12453626536E+00  0.12689300899E+00  0.20320788322E-01 0.  0.
         14    1    1    2    0    0 -0.70861614342E-02  0.70022105302E-02  0.22545672043E-01  0.24648569209E-01  0.00000000000E+00 0. -1.
     999901    1    3    3    0    0 -0.58714956963E-03 -0.17990395144E-01 -0.14708193740E+00  0.89238842180E+00  0.88000000000E+00 0. -1.
        -11    1    4    4    0    0  0.77811754916E-02  0.17094256944E-02  0.10452083998E+00  0.10482526384E+00  0.51100000000E-03 0.  1.
         11    1    4    4    0    0 -0.10786448775E-03  0.92787589196E-02  0.20015425378E-01  0.22067745147E-01  0.51100000000E-03 0. -1.
</event>
<event>
 8    1  0.1122848E+005  0.1043930E+01  0.7957747E-01            NaN
         13   -1    0    0    0    0  0.00000000000E+00  0.00000000000E+00  0.74505805969E-08  0.10566000000E+00  0.10566000000E+00 0. -1.
     999900   -1    0    0    0    0 -0.00000000000E+00 -0.00000000000E+00 -0.74505805969E-08  0.93827000000E+00  0.93827000000E+00 0. -1.
     999902    2    1    2    0    0 -0.61658368298E-02 -0.24136197371E-01 -0.75183149925E-02  0.10179088811E+01  0.10175762338E+01 0.  0.
     999903    2    3    3    0    0 -0.12110840551E+00  0.30000261324E-01 -0.23656478380E-01  0.12863783663E+00  0.20513470660E-01 0.  0.
         14    1    1    2    0    0  0.61658368298E-02  0.24136197371E-01  0.75183149925E-02  0.26021118879E-01  0.00000000000E+00 0. -1.
     999901    1    3    3    0    0  0.11494256868E+00 -0.54136458696E-01  0.16138163387E-01  0.88927104449E+00  0.88000000000E+00 0.  1.
        -11    1    4    4    0    0 -0.62956555084E-01  0.50996802685E-02 -0.10727515358E-01  0.64069300555E-01  0.51100000000E-03 0. -1.
         11    1    4    4    0    0 -0.58151850427E-01  0.24900581056E-01 -0.12928963022E-01  0.64568536074E-01  0.51100000000E-03 0.  1.
</event>
<event>
 8    1  0.1122848E+005  0.1043930E+01  0.7957747E-01            NaN
         13   -1    0    0    0    0  0.00000000000E+00  0.00000000000E+00  0.74505805969E-08  0.10566000000E+00  0.10566000000E+00 0.  1.
     999900   -1    0    0    0    0 -0.00000000000E+00 -0.00000000000E+00 -0.74505805969E-08  0.93827000000E+00  0.93827000000E+00 0. -1.
     999902    2    1    2    0    0  0.13022423456E-01 -0.16062443901E-02 -0.18666190151E-01  0.10211135544E+01  0.10208586096E+01 0.  0.
     999903    2    3    3    0    0  0.59168495834E-01 -0.26452354345E-01 -0.11578871543E+00  0.13422033984E+00  0.20185020530E-01 0.  0.
         14    1    1    2    0    0 -0.13022423456E-01  0.16062443901E-02  0.18666190151E-01  0.22816445571E-01  0.00000000000E+00 0.  1.
     999901    1    3    3    0    0 -0.46146072378E-01  0.24846109955E-01  0.97122525284E-01  0.88689321459E+00  0.88000000000E+00 0.  1.
        -11    1    4    4    0    0  0.36599967088E-01 -0.19906486351E-01 -0.90860852513E-01  0.99958898703E-01  0.51100000000E-03 0. -1.
         11    1    4    4    0    0  0.22568528746E-01 -0.65458679937E-02 -0.24927862922E-01  0.34261441132E-01  0.51100000000E-03 0.  1.
</event>
<event>
 8    1  0.1122848E+005  0.1043930E+01  0.7957747E-01            NaN
         13   -1    0    0    0    0  0.00000000000E+00  0.00000000000E+00  0.74505805969E-08  0.10566000000E+00  0.10566000000E+00 0.  1.
     999900   -1    0    0    0    0 -0.00000000000E+00 -0.00000000000E+00 -0.74505805969E-08  0.93827000000E+00  0.93827000000E+00 0. -1.
     999902    2    1    2    0    0 -0.17108642394E-01  0.15321603972E-01 -0.51968013553E-02  0.10203829421E+01  0.10201112118E+01 0.  0.
     999903    2    3    3    0    0 -0.10408197290E+00 -0.73968940506E-01  0.22176342069E-01  0.13117742559E+00  0.20279684310E-01 0.  0.
         14    1    1    2    0    0  0.17108642394E-01 -0.15321603972E-01  0.51968013553E-02  0.23547057930E-01  0.00000000000E+00 0.  1.
     999901    1    3    3    0    0  0.86973330504E-01  0.89290544479E-01 -0.27373143425E-01  0.88920551648E+00  0.88000000000E+00 0.  1.
        -11    1    4    4    0    0 -0.67658904681E-01 -0.36130226652E-01  0.15173243583E-01  0.78189571571E-01  0.51100000000E-03 0. -1.
         11    1    4    4    0    0 -0.36423068216E-01 -0.37838713855E-01  0.70030984859E-02  0.52987854022E-01  0.51100000000E-03 0.  1.
</event>
<event>
 8    1  0.1122848E+005  0.1043930E+01  0.7957747E-01            NaN
         13   -1    0    0    0    0  0.00000000000E+00  0.00000000000E+00  0.74505805969E-08  0.10566000000E+00  0.10566000000E+00 0. -1.
     999900   -1    0    0    0    0 -0.00000000000E+00 -0.00000000000E+00 -0.74505805969E-08  0.93827000000E+00  0.93827000000E+00 0. -1.
     999902    2    1    2    0    0 -0.12832729977E-01 -0.18642675166E-01 -0.64379325639E-02  0.10203996946E+01  0.10201283554E+01 0.  0.
     999903    2    3    3    0    0  0.48104910482E-01 -0.78241340992E-01 -0.92805123304E-01  0.13207279046E+00  0.19865578697E-01 0.  0.
         14    1    1    2    0    0  0.12832729977E-01  0.18642675166E-01  0.64379325639E-02  0.23530305389E-01  0.00000000000E+00 0. -1.
     999901    1    3    3    0    0 -0.60937640460E-01  0.59598665827E-01  0.86367190740E-01  0.88832690415E+00  0.88000000000E+00 0.  1.
        -11    1    4    4    0    0  0.19920224275E-01 -0.31664681561E-01 -0.51882011024E-01  0.63964611954E-01  0.51100000000E-03 0. -1.
         11    1    4    4    0    0  0.28184686208E-01 -0.46576659432E-01 -0.40923112279E-01  0.68108178511E-01  0.51100000000E-03 0.  1.
</event>
<event>
 8    1  0.1122848E+005  0.1043930E+01  0.7957747E-01            NaN
         13   -1    0    0    0    0  0.00000000000E+00  0.00000000000E+00  0.74505805969E-08  0.10566000000E+00  0.10566000000E+00 0.  1.
     999900   -1    0    0    0    0 -0.00000000000E+00 -0.00000000000E+00 -0.74505805969E-08  0.93827000000E+00  0.93827000000E+00 0. -1.
     999902    2    1    2    0    0  0.15029781894E-01  0.12035073580E-01  0.12118836165E-01  0.10211790983E+01  0.10209256326E+01 0.  0.
     999903    2    3    3    0    0  0.11485102903E+00  0.52264904963E-01 -0.37779308962E-01  0.13321933251E+00  0.19943299805E-01 0.  0.
         14    1    1    2    0    0 -0.15029781894E-01 -0.12035073580E-01 -0.12118836165E-01  0.22750901737E-01  0.00000000000E+00 0. -1.
     999901    1    3    3    0    0 -0.99821247140E-01 -0.40229831383E-01  0.49898145128E-01  0.88795976576E+00  0.88000000000E+00 0.  1.
        -11    1    4    4    0    0  0.95323664982E-02 -0.49044528497E-03 -0.14578327022E-03  0.95597552999E-02  0.51100000000E-03 0. -1.
         11    1    4    4    0    0  0.10531866254E+00  0.52755350248E-01 -0.37633525692E-01  0.12365957721E+00  0.51100000000E-03 0.  1.
</event>
<event>
 8    1  0.1122848E+005  0.1043930E+01  0.7957747E-01            NaN
         13   -1    0    0    0    0  0.00000000000E+00  0.00000000000E+00  0.74505805969E-08  0.10566000000E+00  0.10566000000E+00 0.  1.
     999900   -1    0    0    0    0 -0.00000000000E+00 -0.00000000000E+00 -0.74505805969E-08  0.93827000000E+00  0.93827000000E+00 0.  1.
     999902    2    1    2    0    0  0.30635658719E-02  0.46301514750E-02  0.23265484746E-01  0.10200112517E+01  0.10197307719E+01 0.  0.
     999903    2    3    3    0    0  0.92384360550E-01  0.94854434685E-02 -0.86806099509E-01  0.12865412247E+00  0.19792438039E-01 0.  0.
         14    1    1    2    0    0 -0.30635658719E-02 -0.46301514750E-02 -0.23265484746E-01  0.23918748274E-01  0.00000000000E+00 0. -1.
     999901    1    3    3    0    0 -0.89320794678E-01 -0.48552919934E-02  0.11007158426E+00  0.89135712926E+00  0.88000000000E+00 0.  1.
        -11    1    4    4    0    0  0.74568397178E-02  0.28086216786E-02 -0.15991322494E-01  0.17873900817E-01  0.51100000000E-03 0. -1.
         11    1    4    4    0    0  0.84927520832E-01  0.66768217899E-02 -0.70814777015E-01  0.11078022165E+00  0.51100000000E-03 0.  1.
</event>
<event>
 8    1  0.1122848E+005  0.1043930E+01  0.7957747E-01            NaN
         13   -1    0    0    0    0  0.00000000000E+00  0.00000000000E+00  0.74505805969E-08  0.10566000000E+00  0.10566000000E+00 0. -1.
     999900   -1    0    0    0    0 -0.00000000000E+00 -0.00000000000E+00 -0.74505805969E-08  0.93827000000E+00  0.93827000000E+00 0.  1.
     999902    2    1    2    0    0  0.17212336557E-01 -0.13689117409E-01  0.10255461039E-01  0.10196641609E+01  0.10193753823E+01 0.  0.
     999903    2    3    3    0    0 -0.10020601901E+00  0.61403001794E-01 -0.43866642369E-01  0.12705276806E+00  0.20163052406E-01 0.  0.
         14    1    1    2    0    0 -0.17212336557E-01  0.13689117409E-01 -0.10255461039E-01  0.24265839082E-01  0.00000000000E+00 0. -1.
     999901    1    3    3    0    0  0.11741835557E+00 -0.75092119203E-01  0.54122103408E-01  0.89261139286E+00  0.88000000000E+00 0. -1.
        -11    1    4    4    0    0 -0.91382136430E-01  0.51802303561E-01 -0.44280496730E-01  0.11399647812E+00  0.51100000000E-03 0. -1.
         11    1    4    4    0    0 -0.88238825818E-02  0.96006982324E-02  0.41385436097E-03  0.13056289932E-01  0.51100000000E-03 0.  1.
</event>
<event>
 8    1  0.1122848E+005  0.1043930E+01  0.7957747E-01            NaN
         13   -1    0    0    0    0  0.00000000000E+00  0.00000000000E+00  0.74505805969E-08  0.10566000000E+00  0.10566000000E+00 0.  1.
     999900   -1    0    0    0    0 -0.00000000000E+00 -0.00000000000E+00 -0.74505805969E-08  0.93827000000E+00  0.93827000000E+00 0.  1.
     999902    2    1    2    0    0 -0.24002734567E-02  0.51782419472E-03 -0.11735187176E-01  0.10319406684E+01  0.10318710186E+01 0.  0.
     999903    2    3    3    0    0 -0.11671714482E+00  0.72215365843E-01 -0.27067469258E-01  0.14152280949E+00  0.21403428614E-01 0.  0.
         14    1    1    2    0    0  0.24002734567E-02 -0.51782419472E-03  0.11735187176E-01  0.11989331617E-01  0.00000000000E+00 0.  1.
     999901    1    3    3    0    0  0.11431687136E+00 -0.71697541649E-01  0.15332282082E-01  0.89041785889E+00  0.88000000000E+00 0. -1.
        -11    1    4    4    0    0 -0.47784195108E-02  0.79269674725E-02  0.12849090986E-02  0.93585372106E-02  0.51100000000E-03 0. -1.
         11    1    4    4    0    0 -0.11193872531E+00  0.64288398371E-01 -0.28352378356E-01  0.13216427228E+00  0.51100000000E-03 0.  1.
</event>
<event>
 8    1  0.1122848E+005  0.1043930E+01  0.7957747E-01            NaN
         13   -1    0    0    0    0  0.00000000000E+00  0.00000000000E+00  0.74505805969E-08  0.10566000000E+00  0.10566000000E+00 0. -1.
     999900   -1    0    0    0    0 -0.00000000000E+00 -0.00000000000E+00 -0.74505805969E-08  0.93827000000E+00  0.93827000000E+00 0. -1.
     999902    2    1    2    0    0 -0.10179845709E-01 -0.20517567795E-01 -0.25257143298E-02  0.10208870167E+01  0.10206269258E+01 0.  0.
     999903    2    3    3    0    0 -0.12941156450E+00 -0.14077495784E-01 -0.16271427963E-01  0.13271663780E+00  0.20085259925E-01 0.  0.
         14    1    1    2    0    0  0.10179845709E-01  0.20517567795E-01  0.25257143298E-02  0.23042983309E-01  0.00000000000E+00 0.  1.
     999901    1    3    3    0    0  0.11923171880E+00 -0.64400720108E-02  0.13745713633E-01  0.88817037889E+00  0.88000000000E+00 0.  1.
        -11    1    4    4    0    0 -0.21188264872E-01 -0.70646819627E-02 -0.87884920292E-02  0.24007311650E-01  0.51100000000E-03 0. -1.
         11    1    4    4    0    0 -0.10822329963E+00 -0.70128138215E-02 -0.74829359339E-02  0.10870932615E+00  0.51100000000E-03 0.  1.
</event>
<event>
 8    1  0.1734938E+005  0.1043930E+01  0.7957747E-01            NaN
         13   -1    0    0    0    0  0.00000000000E+00  0.00000000000E+00  0.74505805969E-08  0.10566000000E+00  0.10566000000E+00 0.  1.
     999900   -1    0    0    0    0 -0.00000000000E+00 -0.00000000000E+00 -0.74505805969E-08  0.93827000000E+00  0.93827000000E+00 0.  1.
     999902    2    1    2    0    0  0.60749381608E-02 -0.48624122394E-02  0.22743443997E-01  0.10198922761E+01  0.10196089656E+01 0.  0.
     999903    2    3    3    0    0  0.83564804263E-01  0.54193257030E-03  0.10187728299E+00  0.13293339836E+00  0.17576615348E-01 0.  0.
         14    1    1    2    0    0 -0.60749381608E-02  0.48624122394E-02 -0.22743443997E-01  0.24037723921E-01  0.00000000000E+00 0. -1.
     999901    1    3    3    0    0 -0.77489866103E-01 -0.54043448097E-02 -0.79133838995E-01  0.88695887772E+00  0.88000000000E+00 0.  1.
        -11    1    4    4    0    0  0.33237407675E-01 -0.58014884521E-02  0.50468417528E-01  0.60710005980E-01  0.51100000000E-03 0.  1.
         11    1    4    4    0    0  0.50327396588E-01  0.63434210224E-02  0.51408865464E-01  0.72223392380E-01  0.51100000000E-03 0. -1.
</event>
<event>
 8    1  0.1122848E+005  0.1043930E+01  0.7957747E-01            NaN
         13   -1    0    0    0    0  0.00000000000E+00  0.00000000000E+00  0.74505805969E-08  0.10566000000E+00  0.10566000000E+00 0.  1.
     999900   -1    0    0    0    0 -0.00000000000E+00 -0.00000000000E+00 -0.74505805969E-08  0.93827000000E+00  0.93827000000E+00 0.  1.
     999902    2    1    2    0    0 -0.21558965914E-01 -0.74262617901E-02 -0.56955079366E-02  0.10204272941E+01  0.10201565984E+01 0.  0.
     999903    2    3    3    0    0 -0.43872701152E-01 -0.11486711589E+00 -0.45270264246E-01  0.13272937177E+00  0.21175955422E-01 0.  0.
         14    1    1    2    0    0  0.21558965914E-01  0.74262617901E-02  0.56955079366E-02  0.23502705932E-01  0.00000000000E+00 0.  1.
     999901    1    3    3    0    0  0.22313735238E-01  0.10744085410E+00  0.39574756309E-01  0.88769792229E+00  0.88000000000E+00 0. -1.
        -11    1    4    4    0    0 -0.13165103170E-01 -0.43733317568E-01 -0.27232151440E-01  0.53176820139E-01  0.51100000000E-03 0.  1.
         11    1    4    4    0    0 -0.30707597982E-01 -0.71133798318E-01 -0.18038112805E-01  0.79552551635E-01  0.51100000000E-03 0. -1.
</event>
<event>
 8    1  0.1122848E+005  0.1043930E+01  0.7957747E-01            NaN
         13   -1    0    0    0    0  0.00000000000E+00  0.00000000000E+00  0.74505805969E-08  0.10566000000E+00  0.10566000000E+00 0.  1.
     999900   -1    0    0    0    0 -0.00000000000E+00 -0.00000000000E+00 -0.74505805969E-08  0.93827000000E+00  0.93827000000E+00 0. -1.
     999902    2    1    2    0    0  0.18207567978E-01  0.14024379806E-01  0.12163384014E-01  0.10179271796E+01  0.10175950060E+01 0.  0.
     999903    2    3    3    0    0  0.83597937491E-01  0.19027417453E-01 -0.94789029546E-01  0.12902912602E+00  0.17688908133E-01 0.  0.
         14    1    1    2    0    0 -0.18207567978E-01 -0.14024379806E-01 -0.12163384014E-01  0.26002820448E-01  0.00000000000E+00 0.  1.
     999901    1    3    3    0    0 -0.65390369513E-01 -0.50030376470E-02  0.10695241356E+00  0.88889805353E+00  0.88000000000E+00 0.  1.
        -11    1    4    4    0    0  0.64813255617E-01  0.21289182946E-01 -0.68920312311E-01  0.96975553539E-01  0.51100000000E-03 0. -1.
         11    1    4    4    0    0  0.18784681874E-01 -0.22617654925E-02 -0.25868717236E-01  0.32053572479E-01  0.51100000000E-03 0.  1.
</event>
<event>
 8    1  0.1122848E+005  0.1043930E+01  0.7957747E-01            NaN
         13   -1    0    0    0    0  0.00000000000E+00  0.00000000000E+00  0.74505805969E-08  0.10566000000E+00  0.10566000000E+00 0.  1.
     999900   -1    0    0    0    0 -0.00000000000E+00 -0.00000000000E+00 -0.74505805969E-08  0.93827000000E+00  0.93827000000E+00 0.  1.
     999902    2    1    2    0    0 -0.10557065855E-01 -0.13329138976E-01  0.16448268442E-01  0.10202727998E+01  0.10199984916E+01 0.  0.
     999903    2    3    3    0    0  0.37894881142E-01  0.11915520712E+00  0.27061874109E-01  0.12897467812E+00  0.16374894396E-01 0.  0.
         14    1    1    2    0    0  0.10557065855E-01  0.13329138976E-01 -0.16448268442E-01  0.23657200173E-01  0.00000000000E+00 0. -1.
     999901    1    3    3    0    0 -0.48451946997E-01 -0.13248434609E+00 -0.10613605667E-01  0.89129812170E+00  0.88000000000E+00 0.  1.
        -11    1    4    4    0    0  0.28689912074E-01  0.98427537947E-01  0.16106116568E-01  0.10378226916E+00  0.51100000000E-03 0. -1.
         11    1    4    4    0    0  0.92049690688E-02  0.20727669171E-01  0.10955757540E-01  0.25192408958E-01  0.51100000000E-03 0.  1.
</event>
<event>
 8    1  0.1122848E+005  0.1043930E+01  0.7957747E-01            NaN
         13   -1    0    0    0    0  0.00000000000E+00  0.00000000000E+00  0.74505805969E-08  0.10566000000E+00  0.10566000000E+00 0.  1.
     999900   -1    0    0    0    0 -0.00000000000E+00 -0.00000000000E+00 -0.74505805969E-08  0.93827000000E+00  0.93827000000E+00 0. -1.
     999902    2    1    2    0    0  0.18213437337E-01  0.14408153691E-01 -0.22998064267E-02  0.10205930486E+01  0.10203262015E+01 0.  0.
     999903    2    3    3    0    0 -0.75867771312E-02 -0.97995097998E-02 -0.12870246340E+00  0.13085752959E+00  0.20143966496E-01 0.  0.
         14    1    1    2    0    0 -0.18213437337E-01 -0.14408153691E-01  0.22998064267E-02  0.23336951429E-01  0.00000000000E+00 0.  1.
     999901    1    3    3    0    0  0.25800214468E-01  0.24207663491E-01  0.12640265698E+00  0.88973551898E+00  0.88000000000E+00 0.  1.
        -11    1    4    4    0    0 -0.93530496585E-02 -0.14780131913E-01 -0.81493538538E-01  0.83351003483E-01  0.51100000000E-03 0.  1.
         11    1    4    4    0    0  0.17662725273E-02  0.49806221132E-02 -0.47208924864E-01  0.47506526111E-01  0.51100000000E-03 0. -1.
</event>
<event>
 7    1  0.1122848E+005  0.1043930E+01  0.7957747E-01            NaN
         13   -1    0    0    0    0  0.00000000000E+00  0.00000000000E+00  0.74505805969E-08  0.10566000000E+00  0.10566000000E+00 0.  1.
     999900   -1    0    0    0    0 -0.00000000000E+00 -0.00000000000E+00 -0.74505805969E-08  0.93827000000E+00  0.93827000000E+00 0.  1.
     999903    2    1    2    0    0 -0.27885041435E-01 -0.72582610824E-03 -0.69304663414E-01  0.77381211662E-01  0.20164651942E-01 0.  0.
         14    1    1    2    0    0  0.11972856544E-01  0.67297027036E-01 -0.36641261057E-01  0.77555278051E-01  0.00000000000E+00 0.  1.
     999901    1    1    2    0    0  0.15912184891E-01 -0.66571200928E-01  0.10594592447E+00  0.88899351029E+00  0.88000000000E+00 0. -1.
        -11    1    3    3    0    0 -0.13520808456E-02  0.33326017242E-02 -0.27229945544E-01  0.27471174205E-01  0.51100000000E-03 0.  1.
         11    1    3    3    0    0 -0.26532960590E-01 -0.40584278325E-02 -0.42074717870E-01  0.49910037457E-01  0.51100000000E-03 0. -1.
</event>
<event>
 8    1  0.1122848E+005  0.1043930E+01  0.7957747E-01            NaN
         13   -1    0    0    0    0  0.00000000000E+00  0.00000000000E+00  0.74505805969E-08  0.10566000000E+00  0.10566000000E+00 0. -1.
     999900   -1    0    0    0    0 -0.00000000000E+00 -0.00000000000E+00 -0.74505805969E-08  0.93827000000E+00  0.93827000000E+00 0.  1.
     999902    2    1    2    0    0  0.20032753452E-01 -0.14231336169E-01  0.15041838657E-02  0.10193108061E+01  0.10190134517E+01 0.  0.
     999903    2    3    3    0    0  0.21494861375E-01 -0.12822505791E+00  0.40118988131E-02  0.13195349643E+00  0.22179615569E-01 0.  0.
         14    1    1    2    0    0 -0.20032753452E-01  0.14231336169E-01 -0.15041838657E-02  0.24619193917E-01  0.00000000000E+00 0.  1.
     999901    1    3    3    0    0 -0.14621079234E-02  0.11399372174E+00 -0.25077149473E-02  0.88735730965E+00  0.88000000000E+00 0.  1.
        -11    1    4    4    0    0  0.56525079774E-02 -0.83381584032E-01  0.93347041947E-02  0.84094216362E-01  0.51100000000E-03 0.  1.
         11    1    4    4    0    0  0.15842353398E-01 -0.44843473879E-01 -0.53228053816E-02  0.47859280070E-01  0.51100000000E-03 0. -1.
</event>
<event>
 7    1  0.1122848E+005  0.1043930E+01  0.7957747E-01            NaN
         13   -1    0    0    0    0  0.00000000000E+00  0.00000000000E+00  0.74505805969E-08  0.10566000000E+00  0.10566000000E+00 0.  1.
     999900   -1    0    0    0    0 -0.00000000000E+00 -0.00000000000E+00 -0.74505805969E-08  0.93827000000E+00  0.93827000000E+00 0.  1.
     999903    2    1    2    0    0 -0.91644098505E-02 -0.42514392657E-01  0.71049415156E-01  0.85728315651E-01  0.20245115940E-01 0.  0.
         14    1    1    2    0    0  0.42457573624E-01 -0.12829053283E-01 -0.61447248222E-01  0.75782547333E-01  0.00000000000E+00 0. -1.
     999901    1    1    2    0    0 -0.33293163773E-01  0.55343445940E-01 -0.96021669335E-02  0.88241913702E+00  0.88000000000E+00 0. -1.
        -11    1    3    3    0    0 -0.45456391669E-02 -0.14435205699E-01  0.43728857023E-01  0.46276474115E-01  0.51100000000E-03 0. -1.
         11    1    3    3    0    0 -0.46187706836E-02 -0.28079186958E-01  0.27320558133E-01  0.39451841536E-01  0.51100000000E-03 0.  1.
</event>
<event>
 8    1  0.1122848E+005  0.1043930E+01  0.7957747E-01            NaN
         13   -1    0    0    0    0  0.00000000000E+00  0.00000000000E+00  0.74505805969E-08  0.10566000000E+00  0.10566000000E+00 0.  1.
     999900   -1    0    0    0    0 -0.00000000000E+00 -0.00000000000E+00 -0.74505805969E-08  0.93827000000E+00  0.93827000000E+00 0.  1.
     999902    2    1    2    0    0 -0.29806470859E-02  0.22902186766E-01  0.28514915253E-02  0.10206593013E+01  0.10203939846E+01 0.  0.
     999903    2    3    3    0    0 -0.82690353904E-01 -0.63747149353E-01  0.74434174797E-01  0.12993722039E+00  0.21020018692E-01 0.  0.
         14    1    1    2    0    0  0.29806470859E-02 -0.22902186766E-01 -0.28514915253E-02  0.23270698736E-01  0.00000000000E+00 0.  1.
     999901    1    3    3    0    0  0.79709706818E-01  0.86649336119E-01 -0.71582683272E-01  0.89072208087E+00  0.88000000000E+00 0.  1.
        -11    1    4    4    0    0 -0.58458247593E-01 -0.54926756164E-01  0.50761345809E-01  0.94927817860E-01  0.51100000000E-03 0. -1.
         11    1    4    4    0    0 -0.24232106311E-01 -0.88203931890E-02  0.23672828988E-01  0.35009402531E-01  0.51100000000E-03 0.  1.
</event>
<event>
 8    1  0.1122848E+005  0.1043930E+01  0.7957747E-01            NaN
         13   -1    0    0    0    0  0.00000000000E+00  0.00000000000E+00  0.74505805969E-08  0.10566000000E+00  0.10566000000E+00 0. -1.
     999900   -1    0    0    0    0 -0.00000000000E+00 -0.00000000000E+00 -0.74505805969E-08  0.93827000000E+00  0.93827000000E+00 0.  1.
     999902    2    1    2    0    0  0.13472031244E-01  0.51819373381E-02 -0.45005762804E-02  0.10288103675E+01  0.10286992607E+01 0.  0.
     999903    2    3    3    0    0  0.10623883354E-01 -0.78224932286E-01 -0.11185717999E+00  0.13836651288E+00  0.20031381477E-01 0.  0.
         14    1    1    2    0    0 -0.13472031244E-01 -0.51819373381E-02  0.45005762804E-02  0.15119632511E-01  0.00000000000E+00 0. -1.
     999901    1    3    3    0    0  0.28481478908E-02  0.83406869624E-01  0.10735660371E+00  0.89044385461E+00  0.88000000000E+00 0. -1.
        -11    1    4    4    0    0  0.67861165906E-02 -0.58832289856E-02 -0.11941152304E-01  0.14950451532E-01  0.51100000000E-03 0. -1.
         11    1    4    4    0    0  0.38377667630E-02 -0.72341703300E-01 -0.99916027684E-01  0.12341606135E+00  0.51100000000E-03 0.  1.
</event>
<event>
 8    1  0.1122848E+005  0.1043930E+01  0.7957747E-01            NaN
         13   -1    0    0    0    0  0.00000000000E+00  0.00000000000E+00  0.74505805969E-08  0.10566000000E+00  0.10566000000E+00 0.  1.
     999900   -1    0    0    0    0 -0.00000000000E+00 -0.00000000000E+00 -0.74505805969E-08  0.93827000000E+00  0.93827000000E+00 0. -1.
     999902    2    1    2    0    0 -0.40170391204E-05  0.12547994299E-01 -0.18301370700E-01  0.10217400846E+01  0.10214990984E+01 0.  0.
     999903    2    3    3    0    0  0.42106905295E-01  0.98444290911E-01  0.74155531289E-01  0.13174020689E+00  0.19803267521E-01 0.  0.
         14    1    1    2    0    0  0.40170391204E-05 -0.12547994299E-01  0.18301370700E-01  0.22189915425E-01  0.00000000000E+00 0.  1.
     999901    1    3    3    0    0 -0.42110922334E-01 -0.85896296612E-01 -0.92456901989E-01  0.88999987768E+00  0.88000000000E+00 0.  1.
        -11    1    4    4    0    0  0.87739847655E-02  0.30389439371E-01  0.32112831318E-01  0.45077665093E-01  0.51100000000E-03 0.  1.
         11    1    4    4    0    0  0.33332920529E-01  0.68054851540E-01  0.42042699971E-01  0.86662541798E-01  0.51100000000E-03 0. -1.
</event>
<event>
 8    1  0.1122848E+005  0.1043930E+01  0.7957747E-01            NaN
         13   -1    0    0    0    0  0.00000000000E+00  0.00000000000E+00  0.74505805969E-08  0.10566000000E+00  0.10566000000E+00 0.  1.
     999900   -1    0    0    0    0 -0.00000000000E+00 -0.00000000000E+00 -0.74505805969E-08  0.93827000000E+00  0.93827000000E+00 0. -1.
     999902    2    1    2    0    0 -0.18478272084E-01 -0.12322341703E-01 -0.10506498019E-01  0.10193602392E+01  0.10190640923E+01 0.  0.
     999903    2    3    3    0    0  0.66271736133E-01  0.64597771670E-02  0.10674612184E+00  0.12734930389E+00  0.19734207411E-01 0.  0.
         14    1    1    2    0    0  0.18478272084E-01  0.12322341703E-01  0.10506498019E-01  0.24569760781E-01  0.00000000000E+00 0.  1.
     999901    1    3    3    0    0 -0.84750008216E-01 -0.18782118870E-01 -0.11725261986E+00  0.89201093533E+00  0.88000000000E+00 0. -1.
        -11    1    4    4    0    0  0.29170517725E-01 -0.44511139098E-03  0.30136280674E-01  0.41947273599E-01  0.51100000000E-03 0. -1.
         11    1    4    4    0    0  0.37101218408E-01  0.69048885580E-02  0.76609841166E-01  0.85402030291E-01  0.51100000000E-03 0.  1.
</event>
<event>
 8    1  0.1122848E+005  0.1043930E+01  0.7957747E-01            NaN
         13   -1    0    0    0    0  0.00000000000E+00  0.00000000000E+00  0.74505805969E-08  0.10566000000E+00  0.10566000000E+00 0. -1.
     999900   -1    0    0    0    0 -0.00000000000E+00 -0.00000000000E+00 -0.74505805969E-08  0.93827000000E+00  0.93827000000E+00 0. -1.
     999902    2    1    2    0    0  0.11878057091E-01  0.26390070573E-02 -0.20354377967E-01  0.10202160104E+01  0.10199403682E+01 0.  0.
     999903    2    3    3    0    0  0.12777504876E+00 -0.23433178618E-01 -0.14707920441E-01  0.13221614894E+00  0.19728410220E-01 0.  0.
         14    1    1    2    0    0 -0.11878057091E-01 -0.26390070573E-02  0.20354377967E-01  0.23713989561E-01  0.00000000000E+00 0. -1.
     999901    1    3    3    0    0 -0.11589699167E+00  0.26072185676E-01 -0.56464575254E-02  0.88799986150E+00  0.88000000000E+00 0.  1.
        -11    1    4    4    0    0  0.50550806228E-01 -0.18515289638E-01 -0.26745878102E-02  0.53903752204E-01  0.51100000000E-03 0.  1.
         11    1    4    4    0    0  0.77224242534E-01 -0.49178889806E-02 -0.12033332631E-01  0.78312396733E-01  0.51100000000E-03 0. -1.
</event>
<event>
 8    1  0.1122848E+005  0.1043930E+01  0.7957747E-01            NaN
         13   -1    0    0    0    0  0.00000000000E+00  0.00000000000E+00  0.74505805969E-08  0.10566000000E+00  0.10566000000E+00 0. -1.
     999900   -1    0    0    0    0 -0.00000000000E+00 -0.00000000000E+00 -0.74505805969E-08  0.93827000000E+00  0.93827000000E+00 0. -1.
     999902    2    1    2    0    0 -0.12952299287E-01  0.88591259140E-02 -0.17323313202E-01  0.10205560113E+01  0.10202883067E+01 0.  0.
     999903    2    3    3    0    0  0.98475204856E-01  0.83110627521E-01 -0.36696039634E-02  0.13032244757E+00  0.19124120060E-01 0.  0.
         14    1    1    2    0    0  0.12952299287E-01 -0.88591259140E-02  0.17323313202E-01  0.23373988728E-01  0.00000000000E+00 0. -1.
     999901    1    3    3    0    0 -0.11142750414E+00 -0.74251501607E-01 -0.13653709238E-01  0.89023356370E+00  0.88000000000E+00 0. -1.
        -11    1    4    4    0    0  0.66693025965E-01  0.55232868376E-01 -0.11396676915E-01  0.87342857906E-01  0.51100000000E-03 0.  1.
         11    1    4    4    0    0  0.31782178891E-01  0.27877759145E-01  0.77270729519E-02  0.42979589661E-01  0.51100000000E-03 0. -1.
</event>
<event>
 8    1  0.1122848E+005  0.1043930E+01  0.7957747E-01            NaN
         13   -1    0    0    0    0  0.00000000000E+00  0.00000000000E+00  0.74505805969E-08  0.10566000000E+00  0.10566000000E+00 0. -1.
     999900   -1    0    0    0    0 -0.00000000000E+00 -0.00000000000E+00 -0.74505805969E-08  0.93827000000E+00  0.93827000000E+00 0.  1.
     999902    2    1    2    0    0  0.30230612960E-02 -0.16749976123E-01 -0.16217981238E-01  0.10204199274E+01  0.10201490600E+01 0.  0.
     999903    2    3    3    0    0 -0.63853625695E-01 -0.52954319989E-01 -0.10202894344E+00  0.13298161007E+00  0.19818117905E-01 0.  0.
         14    1    1    2    0    0 -0.30230612960E-02  0.16749976123E-01  0.16217981238E-01  0.23510072632E-01  0.00000000000E+00 0. -1.
     999901    1    3    3    0    0  0.66876686991E-01  0.36204343866E-01  0.85810962201E-01  0.88743831730E+00  0.88000000000E+00 0. -1.
        -11    1    4    4    0    0 -0.14579213102E-01 -0.48127974032E-02 -0.27435550485E-01  0.31443393979E-01  0.51100000000E-03 0. -1.
         11    1    4    4    0    0 -0.49274412593E-01 -0.48141522586E-01 -0.74593392954E-01  0.10153821609E+00  0.51100000000E-03 0.  1.
</event>
<event>
 8    1  0.1122848E+005  0.1043930E+01  0.7957747E-01            NaN
         13   -1    0    0    0    0  0.00000000000E+00  0.00000000000E+00  0.74505805969E-08  0.10566000000E+00  0.10566000000E+00 0.  1.
     999900   -1    0    0    0    0 -0.00000000000E+00 -0.00000000000E+00 -0.74505805969E-08  0.93827000000E+00  0.93827000000E+00 0.  1.
     999902    2    1    2    0    0 -0.12703677299E-01  0.11898859070E-01 -0.15279880325E-01  0.10207688039E+01  0.10205060068E+01 0.  0.
     999903    2    3    3    0    0 -0.74861431614E-01 -0.10479823812E+00 -0.11583092628E-01  0.13088371849E+00  0.20235490497E-01 0.  0.
         14    1    1    2    0    0  0.12703677299E-01 -0.11898859070E-01  0.15279880325E-01  0.23161196144E-01  0.00000000000E+00 0.  1.
     999901    1    3    3    0    0  0.62157754314E-01  0.11669709719E+00 -0.36967876965E-02  0.88988508536E+00  0.88000000000E+00 0.  1.
        -11    1    4    4    0    0 -0.22366216150E-01 -0.17785718502E-01  0.19169316034E-03  0.28581064969E-01  0.51100000000E-03 0.  1.
         11    1    4    4    0    0 -0.52495215463E-01 -0.87012519616E-01 -0.11774785789E-01  0.10230265352E+00  0.51100000000E-03 0. -1.
</event>
<event>
 8    1  0.1122848E+005  0.1043930E+01  0.7957747E-01            NaN
         13   -1    0    0    0    0  0.00000000000E+00  0.00000000000E+00  0.74505805969E-08  0.10566000000E+00  0.10566000000E+00 0.  1.
     999900   -1    0    0    0    0 -0.00000000000E+00 -0.00000000000E+00 -0.74505805969E-08  0.93827000000E+00  0.93827000000E+00 0. -1.
     999902    2    1    2    0    0  0.36644438280E-02  0.15703022480E-01  0.14700425932E-01  0.10221099270E+01  0.10218769922E+01 0.  0.
     999903    2    3    3    0    0  0.68560314580E-01 -0.10761882850E+00  0.27494439308E-01  0.13105244302E+00  0.11682022290E-01 0.  0.
         14    1    1    2    0    0 -0.36644438280E-02 -0.15703022480E-01 -0.14700425932E-01  0.21820073009E-01  0.00000000000E+00 0. -1.
     999901    1    3    3    0    0 -0.64895870752E-01  0.12332185098E+00 -0.12794013376E-01  0.89105748397E+00  0.88000000000E+00 0. -1.
        -11    1    4    4    0    0  0.13311800713E-01 -0.20697275156E-01  0.67703228089E-03  0.24623174669E-01  0.51100000000E-03 0. -1.
         11    1    4    4    0    0  0.55248513867E-01 -0.86921553343E-01  0.26817407027E-01  0.10642926835E+00  0.51100000000E-03 0.  1.
</event>
<event>
 8    1  0.1122848E+005  0.1043930E+01  0.7957747E-01            NaN
         13   -1    0    0    0    0  0.00000000000E+00  0.00000000000E+00  0.74505805969E-08  0.10566000000E+00  0.10566000000E+00 0.  1.
     999900   -1    0    0    0    0 -0.00000000000E+00 -0.00000000000E+00 -0.74505805969E-08  0.93827000000E+00  0.93827000000E+00 0.  1.
     999902    2    1    2    0    0  0.11409446099E-01 -0.23793102195E-01  0.45168948401E-02  0.10171589427E+01  0.10168065820E+01 0.  0.
     999903    2    3    3    0    0  0.54211308696E-01  0.10984458178E+00  0.21843729842E-01  0.12587265350E+00  0.19028353299E-01 0.  0.
         14    1    1    2    0    0 -0.11409446099E-01  0.23793102195E-01 -0.45168948401E-02  0.26771057345E-01  0.00000000000E+00 0. -1.
     999901    1    3    3    0    0 -0.42801862596E-01 -0.13363768398E+00 -0.17326835002E-01  0.89128628915E+00  0.88000000000E+00 0. -1.
        -11    1    4    4    0    0  0.32795571934E-01  0.85265140353E-01  0.16432188190E-01  0.92822258255E-01  0.51100000000E-03 0.  1.
         11    1    4    4    0    0  0.21415736762E-01  0.24579441428E-01  0.54115416517E-02  0.33050395247E-01  0.51100000000E-03 0. -1.
</event>
<event>
 8    1  0.1122848E+005  0.1043930E+01  0.7957747E-01            NaN
         13   -1    0    0    0    0  0.00000000000E+00  0.00000000000E+00  0.74505805969E-08  0.10566000000E+00  0.10566000000E+00 0.  1.
     999900   -1    0    0    0    0 -0.00000000000E+00 -0.00000000000E+00 -0.74505805969E-08  0.93827000000E+00  0.93827000000E+00 0. -1.
     999902    2    1    2    0    0 -0.18470691673E-01  0.11601482621E-01  0.10074623626E-01  0.10199037874E+01  0.10196207514E+01 0.  0.
     999903    2    3    3    0    0  0.11975425089E+00  0.41661417663E-01  0.89577284568E-02  0.12860642857E+00  0.19560629872E-01 0.  0.
         14    1    1    2    0    0  0.18470691673E-01 -0.11601482621E-01 -0.10074623626E-01  0.24026212583E-01  0.00000000000E+00 0. -1.
     999901    1    3    3    0    0 -0.13822494256E+00 -0.30059935041E-01  0.11168951691E-02  0.89129735885E+00  0.88000000000E+00 0. -1.
        -11    1    4    4    0    0  0.67084011713E-01  0.30892606626E-01  0.11681300363E-01  0.74775207595E-01  0.51100000000E-03 0. -1.
         11    1    4    4    0    0  0.52670239178E-01  0.10768811037E-01 -0.27235719066E-02  0.53831220971E-01  0.51100000000E-03 0.  1.
</event>
<event>
 8    1  0.1122848E+005  0.1043930E+01  0.7957747E-01            NaN
         13   -1    0    0    0    0  0.00000000000E+00  0.00000000000E+00  0.74505805969E-08  0.10566000000E+00  0.10566000000E+00 0.  1.
     999900   -1    0    0    0    0 -0.00000000000E+00 -0.00000000000E+00 -0.74505805969E-08  0.93827000000E+00  0.93827000000E+00 0. -1.
     999902    2    1    2    0    0 -0.83648152858E-02 -0.20623688078E-01  0.55002928128E-02  0.10210049075E+01  0.10207475012E+01 0.  0.
     999903    2    3    3    0    0  0.93634902766E-01 -0.43272242711E-01  0.79459237073E-01  0.13174295232E+00  0.20061234371E-01 0.  0.
         14    1    1    2    0    0  0.83648152858E-02  0.20623688078E-01 -0.55002928128E-02  0.22925092492E-01  0.00000000000E+00 0.  1.
     999901    1    3    3    0    0 -0.10199971805E+00  0.22648554633E-01 -0.73958944260E-01  0.88926195519E+00  0.88000000000E+00 0. -1.
        -11    1    4    4    0    0  0.75483829663E-01 -0.37508831729E-01  0.73347677055E-01  0.11173568744E+00  0.51100000000E-03 0. -1.
         11    1    4    4    0    0  0.18151073103E-01 -0.57634109819E-02  0.61115600171E-02  0.20007264875E-01  0.51100000000E-03 0.  1.
</event>
<event>
 8    1  0.1122848E+005  0.1043930E+01  0.7957747E-01            NaN
         13   -1    0    0    0    0  0.00000000000E+00  0.00000000000E+00  0.74505805969E-08  0.10566000000E+00  0.10566000000E+00 0. -1.
     999900   -1    0    0    0    0 -0.00000000000E+00 -0.00000000000E+00 -0.74505805969E-08  0.93827000000E+00  0.93827000000E+00 0.  1.
     999902    2    1    2    0    0  0.62476000418E-02  0.10708403861E-02 -0.22797934016E-01  0.10202672656E+01  0.10199928275E+01 0.  0.
     999903    2    3    3    0    0  0.67869849072E-02 -0.11138315635E+00 -0.63282111665E-01  0.13218778660E+00  0.31885962216E-01 0.  0.
         14    1    1    2    0    0 -0.62476000418E-02 -0.10708403861E-02  0.22797934016E-01  0.23662734432E-01  0.00000000000E+00 0. -1.
     999901    1    3    3    0    0 -0.53938486534E-03  0.11245399674E+00  0.40484177649E-01  0.88807947897E+00  0.88000000000E+00 0. -1.
        -11    1    4    4    0    0 -0.75103725823E-02 -0.85315009020E-01 -0.40564737860E-01  0.94767164879E-01  0.51100000000E-03 0.  1.
         11    1    4    4    0    0  0.14297357489E-01 -0.26068147335E-01 -0.22717373804E-01  0.37420621724E-01  0.51100000000E-03 0. -1.
</event>
<event>
 8    1  0.1122848E+005  0.1043930E+01  0.7957747E-01            NaN
         13   -1    0    0    0    0  0.00000000000E+00  0.00000000000E+00  0.74505805969E-08  0.10566000000E+00  0.10566000000E+00 0. -1.
     999900   -1    0    0    0    0 -0.00000000000E+00 -0.00000000000E+00 -0.74505805969E-08  0.93827000000E+00  0.93827000000E+00 0.  1.
     999902    2    1    2    0    0  0.35275334482E-02 -0.12878482501E-01  0.19342640485E-01  0.10204260313E+01  0.10201553062E+01 0.  0.
     999903    2    3    3    0    0 -0.60187668433E-01  0.10164279043E+00  0.50512187432E-01  0.13017534213E+00  0.20983954405E-01 0.  0.
         14    1    1    2    0    0 -0.35275334482E-02  0.12878482501E-01 -0.19342640485E-01  0.23503968701E-01  0.00000000000E+00 0.  1.
     999901    1    3    3    0    0  0.63715201881E-01 -0.11452127293E+00 -0.31169546947E-01  0.89025068917E+00  0.88000000000E+00 0.  1.
        -11    1    4    4    0    0 -0.36444321455E-01  0.42498955488E-01  0.27854365050E-01  0.62533803316E-01  0.51100000000E-03 0. -1.
         11    1    4    4    0    0 -0.23743346978E-01  0.59143834942E-01  0.22657822382E-01  0.67641538817E-01  0.51100000000E-03 0.  1.
</event>
<event>
 8    1  0.1122848E+005  0.1043930E+01  0.7957747E-01            NaN
         13   -1    0    0    0    0  0.00000000000E+00  0.00000000000E+00  0.74505805969E-08  0.10566000000E+00  0.10566000000E+00 0.  1.
     999900   -1    0    0    0    0 -0.00000000000E+00 -0.00000000000E+00 -0.74505805969E-08  0.93827000000E+00  0.93827000000E+00 0.  1.
     999902    2    1    2    0    0 -0.20328623714E-01  0.44205437343E-02 -0.81977659315E-02  0.10215693758E+01  0.10213246262E+01 0.  0.
     999903    2    3    3    0    0  0.75440560051E-01 -0.63475478787E-02  0.10255804894E+00  0.12940653253E+00  0.22278415429E-01 0.  0.
         14    1    1    2    0    0  0.20328623714E-01 -0.44205437343E-02  0.81977659315E-02  0.22360624215E-01  0.00000000000E+00 0.  1.
     999901    1    3    3    0    0 -0.95769183766E-01  0.10768091613E-01 -0.11075581487E+00  0.89216284325E+00  0.88000000000E+00 0.  1.
        -11    1    4    4    0    0  0.63407589835E-01  0.17392344460E-02  0.90639604090E-01  0.11063157929E+00  0.51100000000E-03 0. -1.
         11    1    4    4    0    0  0.12032970216E-01 -0.80867823248E-02  0.11918444851E-01  0.18774953243E-01  0.51100000000E-03 0.  1.
</event>
<event>
 8    1  0.1122848E+005  0.1043930E+01  0.7957747E-01            NaN
         13   -1    0    0    0    0  0.00000000000E+00  0.00000000000E+00  0.74505805969E-08  0.10566000000E+00  0.10566000000E+00 0. -1.
     999900   -1    0    0    0    0 -0.00000000000E+00 -0.00000000000E+00 -0.74505805969E-08  0.93827000000E+00  0.93827000000E+00 0.  1.
     999902    2    1    2    0    0  0.17756769274E-01  0.25165383541E-02 -0.11750322454E-01  0.10224892468E+01  0.10222644247E+01 0.  0.
     999903    2    3    3    0    0  0.13272753287E+00 -0.97826829328E-02  0.82023304081E-02  0.13470117767E+00  0.19100528094E-01 0.  0.
         14    1    1    2    0    0 -0.17756769274E-01 -0.25165383541E-02  0.11750322454E-01  0.21440753208E-01  0.00000000000E+00 0. -1.
     999901    1    3    3    0    0 -0.11497076360E+00  0.12299221287E-01 -0.19952652863E-01  0.88778806913E+00  0.88000000000E+00 0.  1.
        -11    1    4    4    0    0  0.41740429139E-01 -0.68304860212E-02  0.10697923936E-01  0.43630558804E-01  0.51100000000E-03 0. -1.
         11    1    4    4    0    0  0.90987103730E-01 -0.29521969116E-02 -0.24955935277E-02  0.91070618862E-01  0.51100000000E-03 0.  1.
</event>
<event>
 8    1  0.1122848E+005  0.1043930E+01  0.7957747E-01            NaN
         13   -1    0    0    0    0  0.00000000000E+00  0.00000000000E+00  0.74505805969E-08  0.10566000000E+00  0.10566000000E+00 0. -1.
     999900   -1    0    0    0    0 -0.00000000000E+00 -0.00000000000E+00 -0.74505805969E-08  0.93827000000E+00  0.93827000000E+00 0. -1.
     999902    2    1    2    0    0 -0.28030035074E-01 -0.62320585992E-02  0.19954374650E-01  0.10089628942E+01  0.10083567937E+01 0.  0.
     999903    2    3    3    0    0 -0.88688463031E-01 -0.49295347263E-01  0.69295551364E-01  0.12444695684E+00  0.19735675615E-01 0.  0.
         14    1    1    2    0    0  0.28030035074E-01  0.62320585992E-02 -0.19954374650E-01  0.34967105804E-01  0.00000000000E+00 0.  1.
     999901    1    3    3    0    0  0.60658427957E-01  0.43063288664E-01 -0.49341176714E-01  0.88451593735E+00  0.88000000000E+00 0. -1.
        -11    1    4    4    0    0 -0.17978750588E-02 -0.17399723732E-02 -0.12462195997E-02  0.28414860333E-02  0.51100000000E-03 0.  1.
         11    1    4    4    0    0 -0.86890587972E-01 -0.47555374890E-01  0.70541770964E-01  0.12160547081E+00  0.51100000000E-03 0. -1.
</event>
<event>
 8    1  0.1122848E+005  0.1043930E+01  0.7957747E-01            NaN
         13   -1    0    0    0    0  0.00000000000E+00  0.00000000000E+00  0.74505805969E-08  0.10566000000E+00  0.10566000000E+00 0. -1.
     999900   -1    0    0    0    0 -0.00000000000E+00 -0.00000000000E+00 -0.74505805969E-08  0.93827000000E+00  0.93827000000E+00 0. -1.
     999902    2    1    2    0    0 -0.32774451653E-02  0.26989754144E-01  0.14333271761E-01  0.10131951476E+01  0.10127288758E+01 0.  0.
     999903    2    3    3    0    0 -0.11531255174E+00 -0.38159634088E-01  0.12311345654E-01  0.12370068659E+00  0.19928581711E-01 0.  0.
         14    1    1    2    0    0  0.32774451653E-02 -0.26989754144E-01 -0.14333271761E-01  0.30734852447E-01  0.00000000000E+00 0.  1.
     999901    1    3    3    0    0  0.11203510658E+00  0.65149388231E-01  0.20219261072E-02  0.88949446096E+00  0.88000000000E+00 0.  1.
        -11    1    4    4    0    0 -0.51724633066E-01 -0.25130173484E-01 -0.63082718465E-03  0.57511932232E-01  0.51100000000E-03 0. -1.
         11    1    4    4    0    0 -0.63587918676E-01 -0.13029460604E-01  0.12942172838E-01  0.66188754362E-01  0.51100000000E-03 0.  1.
</event>
<event>
 8    1  0.1122848E+005  0.1043930E+01  0.7957747E-01            NaN
         13   -1    0    0    0    0  0.00000000000E+00  0.00000000000E+00  0.74505805969E-08  0.10566000000E+00  0.10566000000E+00 0.  1.
     999900   -1    0    0    0    0 -0.00000000000E+00 -0.00000000000E+00 -0.74505805969E-08  0.93827000000E+00  0.93827000000E+00 0. -1.
     999902    2    1    2    0    0  0.14567127502E-01  0.95080580352E-02 -0.16237021766E-01  0.10201340918E+01  0.10198565193E+01 0.  0.
     999903    2    3    3    0    0  0.11587336531E+00  0.32852212916E-01 -0.53692859127E-01  0.13322324896E+00  0.18963287216E-01 0.  0.
         14    1    1    2    0    0 -0.14567127502E-01 -0.95080580352E-02  0.16237021766E-01  0.23795908200E-01  0.00000000000E+00 0. -1.
     999901    1    3    3    0    0 -0.10130623781E+00 -0.23344154881E-01  0.37455837361E-01  0.88691084283E+00  0.88000000000E+00 0.  1.
        -11    1    4    4    0    0  0.44676964831E-01  0.13416722603E-01 -0.10886045087E-01  0.47904141059E-01  0.51100000000E-03 0. -1.
         11    1    4    4    0    0  0.71196400477E-01  0.19435490313E-01 -0.42806814039E-01  0.85319107906E-01  0.51100000000E-03 0.  1.
</event>
<event>
 8    1  0.1122848E+005  0.1043930E+01  0.7957747E-01            NaN
         13   -1    0    0    0    0  0.00000000000E+00  0.00000000000E+00  0.74505805969E-08  0.10566000000E+00  0.10566000000E+00 0. -1.
     999900   -1    0    0    0    0 -0.00000000000E+00 -0.00000000000E+00 -0.74505805969E-08  0.93827000000E+00  0.93827000000E+00 0. -1.
     999902    2    1    2    0    0 -0.10388495332E-01  0.19542820481E-01  0.76411211625E-02  0.10205157009E+01  0.10202470615E+01 0.  0.
     999903    2    3    3    0    0 -0.52183388766E-01 -0.11514683702E+00 -0.16366656657E-01  0.12896396921E+00  0.19543228148E-01 0.  0.
         14    1    1    2    0    0  0.10388495332E-01 -0.19542820481E-01 -0.76411211625E-02  0.23414299055E-01  0.00000000000E+00 0. -1.
     999901    1    3    3    0    0  0.41794893434E-01  0.13468965750E+00  0.24007777820E-01  0.89155173173E+00  0.88000000000E+00 0. -1.
        -11    1    4    4    0    0 -0.30827367793E-01 -0.56970839128E-01 -0.17054856651E-01  0.66986061031E-01  0.51100000000E-03 0.  1.
         11    1    4    4    0    0 -0.21356020973E-01 -0.58175997893E-01  0.68819999407E-03  0.61977908184E-01  0.51100000000E-03 0. -1.
</event>
<event>
 8    1  0.1122848E+005  0.1043930E+01  0.7957747E-01            NaN
         13   -1    0    0    0    0  0.00000000000E+00  0.00000000000E+00  0.74505805969E-08  0.10566000000E+00  0.10566000000E+00 0.  1.
     999900   -1    0    0    0    0 -0.00000000000E+00 -0.00000000000E+00 -0.74505805969E-08  0.93827000000E+00  0.93827000000E+00 0. -1.
     999902    2    1    2    0    0 -0.10441185829E-01  0.20640156338E-01  0.64845563068E-02  0.10199074297E+01  0.10196244805E+01 0.  0.
     999903    2    3    3    0    0 -0.11442364662E+00 -0.51681500311E-01  0.29546518733E-01  0.13053988568E+00  0.20097676561E-01 0.  0.
         14    1    1    2    0    0  0.10441185829E-01 -0.20640156338E-01 -0.64845563068E-02  0.24022570339E-01  0.00000000000E+00 0.  1.
     999901    1    3    3    0    0  0.10398246080E+00  0.72321656649E-01 -0.23061962426E-01  0.88936754398E+00  0.88000000000E+00 0. -1.
        -11    1    4    4    0    0 -0.18407700590E-01 -0.25171383450E-02 -0.39149988746E-03  0.18590153835E-01  0.51100000000E-03 0. -1.
         11    1    4    4    0    0 -0.96015946035E-01 -0.49164361966E-01  0.29938018620E-01  0.11194973185E+00  0.51100000000E-03 0.  1.
</event>
<event>
 8    1  0.1122848E+005  0.1043930E+01  0.7957747E-01            NaN
         13   -1    0    0    0    0  0.00000000000E+00  0.00000000000E+00  0.74505805969E-08  0.10566000000E+00  0.10566000000E+00 0.  1.
     999900   -1    0    0    0    0 -0.00000000000E+00 -0.00000000000E+00 -0.74505805969E-08  0.93827000000E+00  0.93827000000E+00 0. -1.
     999902    2    1    2    0    0 -0.11613317726E-01  0.10608949958E-01 -0.19068238075E-01  0.10192112486E+01  0.10189114547E+01 0.  0.
     999903    2    3    3    0    0 -0.65408671771E-01  0.70476841257E-01 -0.89295804703E-01  0.13275199085E+00  0.20101513389E-01 0.  0.
         14    1    1    2    0    0  0.11613317726E-01 -0.10608949958E-01  0.19068238075E-01  0.24718751407E-01  0.00000000000E+00 0.  1.
     999901    1    3    3    0    0  0.53795354045E-01 -0.59867891299E-01  0.70227566628E-01  0.88645925774E+00  0.88000000000E+00 0.  1.
        -11    1    4    4    0    0 -0.11882237959E-01  0.11658353667E-01 -0.27022786786E-01  0.31742667119E-01  0.51100000000E-03 0.  1.
         11    1    4    4    0    0 -0.53526433812E-01  0.58818487590E-01 -0.62273017917E-01  0.10100932373E+00  0.51100000000E-03 0. -1.
</event>
<event>
 8    1  0.1122848E+005  0.1043930E+01  0.7957747E-01            NaN
         13   -1    0    0    0    0  0.00000000000E+00  0.00000000000E+00  0.74505805969E-08  0.10566000000E+00  0.10566000000E+00 0. -1.
     999900   -1    0    0    0    0 -0.00000000000E+00 -0.00000000000E+00 -0.74505805969E-08  0.93827000000E+00  0.93827000000E+00 0. -1.
     999902    2    1    2    0    0 -0.21530021242E-01  0.73736302283E-02  0.42188709869E-02  0.10207845661E+01  0.10205221307E+01 0.  0.
     999903    2    3    3    0    0  0.43520620957E-02 -0.53965037796E-01  0.11779750687E+00  0.13099109515E+00  0.18741628445E-01 0.  0.
         14    1    1    2    0    0  0.21530021242E-01 -0.73736302283E-02 -0.42188709869E-02  0.23145433888E-01  0.00000000000E+00 0.  1.
     999901    1    3    3    0    0 -0.25882083338E-01  0.61338668024E-01 -0.11357863588E+00  0.88979347096E+00  0.88000000000E+00 0. -1.
        -11    1    4    4    0    0 -0.41410041554E-02 -0.43388448077E-01  0.93435347785E-01  0.10310252508E+00  0.51100000000E-03 0. -1.
         11    1    4    4    0    0  0.84930662511E-02 -0.10576589719E-01  0.24362159082E-01  0.27888570070E-01  0.51100000000E-03 0.  1.
</event>
<event>
 8    1  0.1122848E+005  0.1043930E+01  0.7957747E-01            NaN
         13   -1    0    0    0    0  0.00000000000E+00  0.00000000000E+00  0.74505805969E-08  0.10566000000E+00  0.10566000000E+00 0.  1.
     999900   -1    0    0    0    0 -0.00000000000E+00 -0.00000000000E+00 -0.74505805969E-08  0.93827000000E+00  0.93827000000E+00 0. -1.
     999902    2    1    2    0    0  0.22411955991E-01  0.42792151084E-03 -0.61515938437E-02  0.10206851942E+01  0.10204204745E+01 0.  0.
     999903    2    3    3    0    0 -0.12454338261E+00  0.21581566927E-01  0.69225327500E-02  0.12815268444E+00  0.19959230608E-01 0.  0.
         14    1    1    2    0    0 -0.22411955991E-01 -0.42792151084E-03  0.61515938437E-02  0.23244805763E-01  0.00000000000E+00 0.  1.
     999901    1    3    3    0    0  0.14695533860E+00 -0.21153645416E-01 -0.13074126594E-01  0.89253250980E+00  0.88000000000E+00 0.  1.
        -11    1    4    4    0    0 -0.51280841664E-01  0.13726100293E-02 -0.35969914374E-02  0.51427699234E-01  0.51100000000E-03 0.  1.
         11    1    4    4    0    0 -0.73262540946E-01  0.20208956898E-01  0.10519524187E-01  0.76724985206E-01  0.51100000000E-03 0. -1.
</event>
<event>
 8    1  0.1122848E+005  0.1043930E+01  0.7957747E-01            NaN
         13   -1    0    0    0    0  0.00000000000E+00  0.00000000000E+00  0.74505805969E-08  0.10566000000E+00  0.10566000000E+00 0. -1.
     999900   -1    0    0    0    0 -0.00000000000E+00 -0.00000000000E+00 -0.74505805969E-08  0.93827000000E+00  0.93827000000E+00 0. -1.
     999902    2    1    2    0    0  0.45538710567E-02 -0.57271525831E-02  0.22684841526E-01  0.10200943114E+01  0.10198157991E+01 0.  0.
     999903    2    3    3    0    0 -0.21689988433E-01 -0.12781672874E+00 -0.27546788865E-02  0.13091391685E+00  0.17980367763E-01 0.  0.
         14    1    1    2    0    0 -0.45538710567E-02  0.57271525831E-02 -0.22684841526E-01  0.23835688649E-01  0.00000000000E+00 0.  1.
     999901    1    3    3    0    0  0.26243859490E-01  0.12208957616E+00  0.25439520412E-01  0.88918039450E+00  0.88000000000E+00 0.  1.
        -11    1    4    4    0    0 -0.21261205127E-01 -0.96359759863E-01 -0.80532259496E-02  0.99006857002E-01  0.51100000000E-03 0. -1.
         11    1    4    4    0    0 -0.42878330593E-03 -0.31456968878E-01  0.52985470631E-02  0.31907059847E-01  0.51100000000E-03 0.  1.
</event>
<event>
 7    1  0.1122848E+005  0.1043930E+01  0.7957747E-01            NaN
         13   -1    0    0    0    0  0.00000000000E+00  0.00000000000E+00  0.74505805969E-08  0.10566000000E+00  0.10566000000E+00 0. -1.
     999900   -1    0    0    0    0 -0.00000000000E+00 -0.00000000000E+00 -0.74505805969E-08  0.93827000000E+00  0.93827000000E+00 0.  1.
     999903    2    1    2    0    0  0.22247931554E-01 -0.99321140729E-01  0.55791122334E-01  0.11774065047E+00  0.19762388198E-01 0.  0.
         14    1    1    2    0    0  0.79188641575E-02  0.68634431937E-02 -0.39305075633E-01  0.40678055909E-01  0.00000000000E+00 0.  1.
     999901    1    1    2    0    0 -0.30166795711E-01  0.92457697535E-01 -0.16486046701E-01  0.88551129362E+00  0.88000000000E+00 0.  1.
        -11    1    3    3    0    0  0.88010998126E-02 -0.64227092760E-01  0.26278085853E-01  0.69952682003E-01  0.51100000000E-03 0. -1.
         11    1    3    3    0    0  0.13446831741E-01 -0.35094047969E-01  0.29513036481E-01  0.47787968466E-01  0.51100000000E-03 0.  1.
</event>
<event>
 8    1  0.1122848E+005  0.1043930E+01  0.7957747E-01            NaN
         13   -1    0    0    0    0  0.00000000000E+00  0.00000000000E+00  0.74505805969E-08  0.10566000000E+00  0.10566000000E+00 0.  1.
     999900   -1    0    0    0    0 -0.00000000000E+00 -0.00000000000E+00 -0.74505805969E-08  0.93827000000E+00  0.93827000000E+00 0. -1.
     999902    2    1    2    0    0 -0.93755936590E-02 -0.13359302146E-01  0.16761784576E-01  0.10205349122E+01  0.10202667185E+01 0.  0.
     999903    2    3    3    0    0 -0.98167647339E-01 -0.70552073724E-01 -0.48293093002E-01  0.13183519971E+00  0.20828225054E-01 0.  0.
         14    1    1    2    0    0  0.93755936590E-02  0.13359302146E-01 -0.16761784576E-01  0.23395087785E-01  0.00000000000E+00 0. -1.
     999901    1    3    3    0    0  0.88792053680E-01  0.57192771578E-01  0.65054877578E-01  0.88869971251E+00  0.88000000000E+00 0.  1.
        -11    1    4    4    0    0 -0.80608284816E-01 -0.47075216850E-01 -0.36529967647E-01  0.10024206343E+00  0.51100000000E-03 0. -1.
         11    1    4    4    0    0 -0.17559362522E-01 -0.23476856875E-01 -0.11763125355E-01  0.31593136280E-01  0.51100000000E-03 0.  1.
</event>
<event>
 8    1  0.1122848E+005  0.1043930E+01  0.7957747E-01            NaN
         13   -1    0    0    0    0  0.00000000000E+00  0.00000000000E+00  0.74505805969E-08  0.10566000000E+00  0.10566000000E+00 0. -1.
     999900   -1    0    0    0    0 -0.00000000000E+00 -0.00000000000E+00 -0.74505805969E-08  0.93827000000E+00  0.93827000000E+00 0.  1.
     999902    2    1    2    0    0  0.21383253282E-01 -0.61990876405E-02 -0.80889485222E-02  0.10202423809E+01  0.10199673586E+01 0.  0.
     999903    2    3    3    0    0 -0.25852481798E-01 -0.91473662551E-01 -0.88268776295E-01  0.13123632214E+00  0.19895065364E-01 0.  0.
         14    1    1    2    0    0 -0.21383253282E-01  0.61990876405E-02  0.80889485222E-02  0.23687619059E-01  0.00000000000E+00 0.  1.
     999901    1    3    3    0    0  0.47235735080E-01  0.85274574910E-01  0.80179827773E-01  0.88900605880E+00  0.88000000000E+00 0. -1.
        -11    1    4    4    0    0 -0.94823281002E-03 -0.34384679459E-01 -0.25622358249E-01  0.42894891190E-01  0.51100000000E-03 0. -1.
         11    1    4    4    0    0 -0.24904248988E-01 -0.57088983092E-01 -0.62646418046E-01  0.88341430955E-01  0.51100000000E-03 0.  1.
</event>
<event>
 8    1  0.1122848E+005  0.1043930E+01  0.7957747E-01            NaN
         13   -1    0    0    0    0  0.00000000000E+00  0.00000000000E+00  0.74505805969E-08  0.10566000000E+00  0.10566000000E+00 0.  1.
     999900   -1    0    0    0    0 -0.00000000000E+00 -0.00000000000E+00 -0.74505805969E-08  0.93827000000E+00  0.93827000000E+00 0.  1.
     999902    2    1    2    0    0  0.62622979924E-02 -0.47567730127E-02 -0.21785314487E-01  0.10207687567E+01  0.10205059585E+01 0.  0.
     999903    2    3    3    0    0 -0.91314045192E-01 -0.64082731621E-01 -0.68082056767E-01  0.13218330750E+00  0.19809315665E-01 0.  0.
         14    1    1    2    0    0 -0.62622979924E-02  0.47567730127E-02  0.21785314487E-01  0.23161243338E-01  0.00000000000E+00 0.  1.
     999901    1    3    3    0    0  0.97576343184E-01  0.59325958608E-01  0.46296742280E-01  0.88858544916E+00  0.88000000000E+00 0. -1.
        -11    1    4    4    0    0 -0.35404812447E-01 -0.13758716252E-01 -0.20372031596E-01  0.43105496281E-01  0.51100000000E-03 0.  1.
         11    1    4    4    0    0 -0.55909232745E-01 -0.50324015369E-01 -0.47710025171E-01  0.89077811220E-01  0.51100000000E-03 0. -1.
</event>
<event>
 8    1  0.1122848E+005  0.1043930E+01  0.7957747E-01            NaN
         13   -1    0    0    0    0  0.00000000000E+00  0.00000000000E+00  0.74505805969E-08  0.10566000000E+00  0.10566000000E+00 0.  1.
     999900   -1    0    0    0    0 -0.00000000000E+00 -0.00000000000E+00 -0.74505805969E-08  0.93827000000E+00  0.93827000000E+00 0.  1.
     999902    2    1    2    0    0 -0.14376260319E-01  0.10357120567E-01  0.15613974156E-01  0.10203134169E+01  0.10200400609E+01 0.  0.
     999903    2    3    3    0    0  0.54540912492E-01 -0.17833094680E-01  0.11648555356E+00  0.13142684347E+00  0.20283012460E-01 0.  0.
         14    1    1    2    0    0  0.14376260319E-01 -0.10357120567E-01 -0.15613974156E-01  0.23616583075E-01  0.00000000000E+00 0. -1.
     999901    1    3    3    0    0 -0.68917172811E-01  0.28190215247E-01 -0.10087157940E+00  0.88888657346E+00  0.88000000000E+00 0.  1.
        -11    1    4    4    0    0  0.29872194166E-01 -0.20210242078E-01  0.68390607036E-01  0.77319713663E-01  0.51100000000E-03 0. -1.
         11    1    4    4    0    0  0.24668718326E-01  0.23771473983E-02  0.48094946522E-01  0.54107129803E-01  0.51100000000E-03 0.  1.
</event>
<event>
 8    1  0.1122848E+005  0.1043930E+01  0.7957747E-01            NaN
         13   -1    0    0    0    0  0.00000000000E+00  0.00000000000E+00  0.74505805969E-08  0.10566000000E+00  0.10566000000E+00 0.  1.
     999900   -1    0    0    0    0 -0.00000000000E+00 -0.00000000000E+00 -0.74505805969E-08  0.93827000000E+00  0.93827000000E+00 0.  1.
     999902    2    1    2    0    0  0.21157222261E-01  0.10982643315E-01 -0.21706072829E-02  0.10199934580E+01  0.10197125557E+01 0.  0.
     999903    2    3    3    0    0 -0.11845139617E+00 -0.42129336376E-01 -0.55053928607E-02  0.12740028664E+00  0.19872328686E-01 0.  0.
         14    1    1    2    0    0 -0.21157222261E-01 -0.10982643315E-01  0.21706072829E-02  0.23936542022E-01  0.00000000000E+00 0. -1.
     999901    1    3    3    0    0  0.13960861843E+00  0.53111979691E-01  0.33347855778E-02  0.89259317134E+00  0.88000000000E+00 0.  1.
        -11    1    4    4    0    0 -0.37436819208E-01 -0.37788053575E-02 -0.70565209149E-03  0.37637134165E-01  0.51100000000E-03 0.  1.
         11    1    4    4    0    0 -0.81014576961E-01 -0.38350531019E-01 -0.47997407692E-02  0.89763152473E-01  0.51100000000E-03 0. -1.
</event>
<event>
 8    1  0.1122848E+005  0.1043930E+01  0.7957747E-01            NaN
         13   -1    0    0    0    0  0.00000000000E+00  0.00000000000E+00  0.74505805969E-08  0.10566000000E+00  0.10566000000E+00 0.  1.
     999900   -1    0    0    0    0 -0.00000000000E+00 -0.00000000000E+00 -0.74505805969E-08  0.93827000000E+00  0.93827000000E+00 0. -1.
     999902    2    1    2    0    0  0.11546683232E-01  0.19575556070E-01  0.78748681701E-02  0.10198771033E+01  0.10195934308E+01 0.  0.
     999903    2    3    3    0    0 -0.68747596561E-02  0.11141406596E+00 -0.67302284654E-01  0.13171874710E+00  0.18970355877E-01 0.  0.
         14    1    1    2    0    0 -0.11546683232E-01 -0.19575556070E-01 -0.78748681701E-02  0.24052896662E-01  0.00000000000E+00 0. -1.
     999901    1    3    3    0    0  0.18421442888E-01 -0.91838509892E-01  0.75177152824E-01  0.88815835624E+00  0.88000000000E+00 0.  1.
        -11    1    4    4    0    0 -0.20648219215E-03  0.31749797068E-01 -0.29278092733E-01  0.43192129883E-01  0.51100000000E-03 0.  1.
         11    1    4    4    0    0 -0.66682774639E-02  0.79664268894E-01 -0.38024191922E-01  0.88526617213E-01  0.51100000000E-03 0. -1.
</event>
<event>
 8    1  0.1122848E+005  0.1043930E+01  0.7957747E-01            NaN
         13   -1    0    0    0    0  0.00000000000E+00  0.00000000000E+00  0.74505805969E-08  0.10566000000E+00  0.10566000000E+00 0. -1.
     999900   -1    0    0    0    0 -0.00000000000E+00 -0.00000000000E+00 -0.74505805969E-08  0.93827000000E+00  0.93827000000E+00 0. -1.
     999902    2    1    2    0    0  0.16821975543E-01  0.17166598889E-01  0.47050578153E-02  0.10194390109E+01  0.10191447828E+01 0.  0.
     999903    2    3    3    0    0 -0.30206592001E-01 -0.12231576231E+00 -0.15416120484E-02  0.12719126719E+00  0.17368303696E-01 0.  0.
         14    1    1    2    0    0 -0.16821975543E-01 -0.17166598889E-01 -0.47050578153E-02  0.24490989111E-01  0.00000000000E+00 0. -1.
     999901    1    3    3    0    0  0.47028567544E-01  0.13948236119E+00  0.62466698637E-02  0.89224774370E+00  0.88000000000E+00 0. -1.
        -11    1    4    4    0    0 -0.57944027207E-02 -0.59535857425E-01 -0.43092246355E-03  0.59820901342E-01  0.51100000000E-03 0.  1.
         11    1    4    4    0    0 -0.24412189280E-01 -0.62779904881E-01 -0.11106895848E-02  0.67370365849E-01  0.51100000000E-03 0. -1.
</event>
<event>
 8    1  0.1122848E+005  0.1043930E+01  0.7957747E-01            NaN
         13   -1    0    0    0    0  0.00000000000E+00  0.00000000000E+00  0.74505805969E-08  0.10566000000E+00  0.10566000000E+00 0. -1.
     999900   -1    0    0    0    0 -0.00000000000E+00 -0.00000000000E+00 -0.74505805969E-08  0.93827000000E+00  0.93827000000E+00 0. -1.
     999902    2    1    2    0    0 -0.16783998816E-02 -0.21131754539E-01  0.10848654666E-01  0.10201169493E+01  0.10198389720E+01 0.  0.
     999903    2    3    3    0    0 -0.92832802068E-01 -0.88905812365E-01 -0.22906705407E-01  0.13217445550E+00  0.20571750552E-01 0.  0.
         14    1    1    2    0    0  0.16783998816E-02  0.21131754539E-01 -0.10848654666E-01  0.23813050710E-01  0.00000000000E+00 0. -1.
     999901    1    3    3    0    0  0.91154402187E-01  0.67774057826E-01  0.33755360072E-01  0.88794249379E+00  0.88000000000E+00 0.  1.
        -11    1    4    4    0    0 -0.18083858151E-01 -0.25569236414E-01  0.94936778300E-03  0.31336467520E-01  0.51100000000E-03 0. -1.
         11    1    4    4    0    0 -0.74748943917E-01 -0.63336575951E-01 -0.23856073190E-01  0.10083798798E+00  0.51100000000E-03 0.  1.
</event>
<event>
 8    1  0.1122848E+005  0.1043930E+01  0.7957747E-01            NaN
         13   -1    0    0    0    0  0.00000000000E+00  0.00000000000E+00  0.74505805969E-08  0.10566000000E+00  0.10566000000E+00 0.  1.
     999900   -1    0    0    0    0 -0.00000000000E+00 -0.00000000000E+00 -0.74505805969E-08  0.93827000000E+00  0.93827000000E+00 0.  1.
     999902    2    1    2    0    0 -0.98219641100E-03  0.22038655990E-01  0.90724938300E-02  0.10200767568E+01  0.10197978292E+01 0.  0.
     999903    2    3    3    0    0  0.11101977599E+00 -0.56786172153E-01  0.27687090135E-01  0.12928817438E+00  0.19969903992E-01 0.  0.
         14    1    1    2    0    0  0.98219641100E-03 -0.22038655990E-01 -0.90724938300E-02  0.23853243216E-01  0.00000000000E+00 0.  1.
     999901    1    3    3    0    0 -0.11200197240E+00  0.78824828143E-01 -0.18614596305E-01  0.89078858241E+00  0.88000000000E+00 0.  1.
        -11    1    4    4    0    0  0.69914892975E-01 -0.29362497236E-01  0.24814325210E-01  0.79788848596E-01  0.51100000000E-03 0.  1.
         11    1    4    4    0    0  0.41104883011E-01 -0.27423674917E-01  0.28727649242E-02  0.49499325780E-01  0.51100000000E-03 0. -1.
</event>
<event>
 8    1  0.1122848E+005  0.1043930E+01  0.7957747E-01            NaN
         13   -1    0    0    0    0  0.00000000000E+00  0.00000000000E+00  0.74505805969E-08  0.10566000000E+00  0.10566000000E+00 0.  1.
     999900   -1    0    0    0    0 -0.00000000000E+00 -0.00000000000E+00 -0.74505805969E-08  0.93827000000E+00  0.93827000000E+00 0.  1.
     999902    2    1    2    0    0  0.36802210729E-02  0.23354519822E-01 -0.36069623469E-02  0.10200137336E+01  0.10197333126E+01 0.  0.
     999903    2    3    3    0    0  0.46398866861E-01 -0.79048098007E-01  0.87648025987E-01  0.12836433400E+00  0.19843617078E-01 0.  0.
         14    1    1    2    0    0 -0.36802210729E-02 -0.23354519822E-01  0.36069623469E-02  0.23916266444E-01  0.00000000000E+00 0.  1.
     999901    1    3    3    0    0 -0.42718645788E-01  0.10240261783E+00 -0.91254988334E-01  0.89164939956E+00  0.88000000000E+00 0.  1.
        -11    1    4    4    0    0  0.97843001998E-02 -0.13996372433E-01  0.28043016387E-01  0.32837522147E-01  0.51100000000E-03 0. -1.
         11    1    4    4    0    0  0.36614566661E-01 -0.65051725573E-01  0.59605009601E-01  0.95526811851E-01  0.51100000000E-03 0.  1.
</event>
<event>
 8    1  0.1122848E+005  0.1043930E+01  0.7957747E-01            NaN
         13   -1    0    0    0    0  0.00000000000E+00  0.00000000000E+00  0.74505805969E-08  0.10566000000E+00  0.10566000000E+00 0.  1.
     999900   -1    0    0    0    0 -0.00000000000E+00 -0.00000000000E+00 -0.74505805969E-08  0.93827000000E+00  0.93827000000E+00 0.  1.
     999902    2    1    2    0    0  0.14979949231E-01 -0.19332995416E-01  0.63974567182E-03  0.10194642512E+01  0.10191706366E+01 0.  0.
     999903    2    3    3    0    0 -0.99864754473E-01  0.67865412759E-01 -0.33883833411E-01  0.12706033710E+00  0.20433591516E-01 0.  0.
         14    1    1    2    0    0 -0.14979949231E-01  0.19332995416E-01 -0.63974567182E-03  0.24465748818E-01  0.00000000000E+00 0.  1.
     999901    1    3    3    0    0  0.11484470370E+00 -0.87198408176E-01  0.34523579083E-01  0.89240391408E+00  0.88000000000E+00 0.  1.
        -11    1    4    4    0    0 -0.47744278414E-01  0.38795203088E-01 -0.81176194579E-02  0.62054337242E-01  0.51100000000E-03 0. -1.
         11    1    4    4    0    0 -0.52120476059E-01  0.29070209672E-01 -0.25766213953E-01  0.65005999857E-01  0.51100000000E-03 0.  1.
</event>
<event>
 8    1  0.1122848E+005  0.1043930E+01  0.7957747E-01            NaN
         13   -1    0    0    0    0  0.00000000000E+00  0.00000000000E+00  0.74505805969E-08  0.10566000000E+00  0.10566000000E+00 0. -1.
     999900   -1    0    0    0    0 -0.00000000000E+00 -0.00000000000E+00 -0.74505805969E-08  0.93827000000E+00  0.93827000000E+00 0. -1.
     999902    2    1    2    0    0  0.73632658239E-02 -0.12522057257E-01 -0.18854129696E-01  0.10201287856E+01  0.10198510878E+01 0.  0.
     999903    2    3    3    0    0  0.58295402201E-01  0.96710081748E-01 -0.62785867514E-01  0.13082808261E+00  0.20560355300E-01 0.  0.
         14    1    1    2    0    0 -0.73632658239E-02  0.12522057257E-01  0.18854129696E-01  0.23801214425E-01  0.00000000000E+00 0. -1.
     999901    1    3    3    0    0 -0.50932136377E-01 -0.10923213901E+00  0.43931737819E-01  0.88930070297E+00  0.88000000000E+00 0. -1.
        -11    1    4    4    0    0  0.17821175125E-01  0.21045445965E-01 -0.69294621371E-02  0.28439121738E-01  0.51100000000E-03 0.  1.
         11    1    4    4    0    0  0.40474227075E-01  0.75664635783E-01 -0.55856405377E-01  0.10238896087E+00  0.51100000000E-03 0. -1.
</event>
<event>
 8    1  0.1122848E+005  0.1043930E+01  0.7957747E-01            NaN
         13   -1    0    0    0    0  0.00000000000E+00  0.00000000000E+00  0.74505805969E-08  0.10566000000E+00  0.10566000000E+00 0.  1.
     999900   -1    0    0    0    0 -0.00000000000E+00 -0.00000000000E+00 -0.74505805969E-08  0.93827000000E+00  0.93827000000E+00 0. -1.
     999902    2    1    2    0    0 -0.23020282077E-01  0.31696246819E-02  0.84534927128E-03  0.10206771610E+01  0.10204122561E+01 0.  0.
     999903    2    3    3    0    0 -0.34403742869E-01  0.56422858821E-01  0.11206562156E+00  0.13200655884E+00  0.22357806682E-01 0.  0.
         14    1    1    2    0    0  0.23020282077E-01 -0.31696246819E-02 -0.84534927128E-03  0.23252839029E-01  0.00000000000E+00 0. -1.
     999901    1    3    3    0    0  0.11383460792E-01 -0.53253234140E-01 -0.11122027229E+00  0.88867060213E+00  0.88000000000E+00 0. -1.
        -11    1    4    4    0    0 -0.32890124961E-03  0.15043024689E-01  0.15818077414E-01  0.21837432585E-01  0.51100000000E-03 0. -1.
         11    1    4    4    0    0 -0.34074841620E-01  0.41379834133E-01  0.96247544147E-01  0.11016912625E+00  0.51100000000E-03 0.  1.
</event>
<event>
 8    1  0.1122848E+005  0.1043930E+01  0.7957747E-01            NaN
         13   -1    0    0    0    0  0.00000000000E+00  0.00000000000E+00  0.74505805969E-08  0.10566000000E+00  0.10566000000E+00 0. -1.
     999900   -1    0    0    0    0 -0.00000000000E+00 -0.00000000000E+00 -0.74505805969E-08  0.93827000000E+00  0.93827000000E+00 0.  1.
     999902    2    1    2    0    0  0.18429525942E-01 -0.11981611561E-01 -0.96521149063E-02  0.10199222978E+01  0.10196397029E+01 0.  0.
     999903    2    3    3    0    0 -0.12105920257E+00  0.20190079950E-01  0.28526632711E-01  0.12753799726E+00  0.19728206073E-01 0.  0.
         14    1    1    2    0    0 -0.18429525942E-01  0.11981611561E-01  0.96521149063E-02  0.24007702185E-01  0.00000000000E+00 0. -1.
     999901    1    3    3    0    0  0.13948872851E+00 -0.32171691511E-01 -0.38178747618E-01  0.89238430056E+00  0.88000000000E+00 0.  1.
        -11    1    4    4    0    0 -0.61330994439E-01  0.16845519935E-01  0.71300932120E-02  0.64002826273E-01  0.51100000000E-03 0.  1.
         11    1    4    4    0    0 -0.59728208130E-01  0.33445600158E-02  0.21396539499E-01  0.63535170982E-01  0.51100000000E-03 0. -1.
</event>
<event>
 8    1  0.1122848E+005  0.1043930E+01  0.7957747E-01            NaN
         13   -1    0    0    0    0  0.00000000000E+00  0.00000000000E+00  0.74505805969E-08  0.10566000000E+00  0.10566000000E+00 0. -1.
     999900   -1    0    0    0    0 -0.00000000000E+00 -0.00000000000E+00 -0.74505805969E-08  0.93827000000E+00  0.93827000000E+00 0. -1.
     999902    2    1    2    0    0 -0.23387724099E-01 -0.44924769469E-02 -0.39325000924E-02  0.10197922175E+01  0.10195065151E+01 0.  0.
     999903    2    3    3    0    0 -0.10344234086E+00  0.71782913044E-01 -0.35747963114E-01  0.13230199192E+00  0.19307918398E-01 0.  0.
         14    1    1    2    0    0  0.23387724099E-01  0.44924769469E-02  0.39325000924E-02  0.24137782513E-01  0.00000000000E+00 0. -1.
     999901    1    3    3    0    0  0.80054616760E-01 -0.76275389990E-01  0.31815463022E-01  0.88749022556E+00  0.88000000000E+00 0.  1.
        -11    1    4    4    0    0 -0.69779136807E-01  0.58557333165E-01 -0.23049422721E-01  0.93966090744E-01  0.51100000000E-03 0.  1.
         11    1    4    4    0    0 -0.33663204052E-01  0.13225579879E-01 -0.12698540393E-01  0.38335901180E-01  0.51100000000E-03 0. -1.
</event>
<event>
 8    1  0.1122848E+005  0.1043930E+01  0.7957747E-01            NaN
         13   -1    0    0    0    0  0.00000000000E+00  0.00000000000E+00  0.74505805969E-08  0.10566000000E+00  0.10566000000E+00 0. -1.
     999900   -1    0    0    0    0 -0.00000000000E+00 -0.00000000000E+00 -0.74505805969E-08  0.93827000000E+00  0.93827000000E+00 0. -1.
     999902    2    1    2    0    0 -0.83099133701E-02 -0.21708058433E-01  0.25105549066E-02  0.10205505786E+01  0.10202827481E+01 0.  0.
     999903    2    3    3    0    0  0.35234145793E-01  0.97142682218E-02  0.12379335206E+00  0.13061071284E+00  0.19963773646E-01 0.  0.
         14    1    1    2    0    0  0.83099133701E-02  0.21708058433E-01 -0.25105549066E-02  0.23379421444E-01  0.00000000000E+00 0.  1.
     999901    1    3    3    0    0 -0.43544059163E-01 -0.31422326654E-01 -0.12128279715E+00  0.88993986571E+00  0.88000000000E+00 0. -1.
        -11    1    4    4    0    0  0.18187190108E-01  0.13822578655E-01  0.85320676842E-01  0.88327326363E-01  0.51100000000E-03 0.  1.
         11    1    4    4    0    0  0.17046955685E-01 -0.41083104332E-02  0.38472675217E-01  0.42283386479E-01  0.51100000000E-03 0. -1.
</event>
<event>
 8    1  0.1122848E+005  0.1043930E+01  0.7957747E-01            NaN
         13   -1    0    0    0    0  0.00000000000E+00  0.00000000000E+00  0.74505805969E-08  0.10566000000E+00  0.10566000000E+00 0.  1.
     999900   -1    0    0    0    0 -0.00000000000E+00 -0.00000000000E+00 -0.74505805969E-08  0.93827000000E+00  0.93827000000E+00 0. -1.
     999902    2    1    2    0    0 -0.44257584085E-02  0.19779717157E-01 -0.13075847114E-01  0.10198094211E+01  0.10195241307E+01 0.  0.
     999903    2    3    3    0    0 -0.69479004752E-01 -0.50211506313E-01  0.93147048679E-01  0.12828600593E+00  0.20794210059E-01 0.  0.
         14    1    1    2    0    0  0.44257584085E-02 -0.19779717157E-01  0.13075847114E-01  0.24120578891E-01  0.00000000000E+00 0.  1.
     999901    1    3    3    0    0  0.65053246344E-01  0.69991223470E-01 -0.10622289579E+00  0.89152341518E+00  0.88000000000E+00 0. -1.
        -11    1    4    4    0    0 -0.29912670652E-01 -0.11437538248E-01  0.42553022784E-01  0.53259797369E-01  0.51100000000E-03 0.  1.
         11    1    4    4    0    0 -0.39566334100E-01 -0.38773968065E-01  0.50594025895E-01  0.75026208560E-01  0.51100000000E-03 0. -1.
</event>
<event>
 8    1  0.1122848E+005  0.1043930E+01  0.7957747E-01            NaN
         13   -1    0    0    0    0  0.00000000000E+00  0.00000000000E+00  0.74505805969E-08  0.10566000000E+00  0.10566000000E+00 0.  1.
     999900   -1    0    0    0    0 -0.00000000000E+00 -0.00000000000E+00 -0.74505805969E-08  0.93827000000E+00  0.93827000000E+00 0.  1.
     999902    2    1    2    0    0 -0.19836055993E-01 -0.11223272511E-01  0.57203423708E-02  0.10204320580E+01  0.10201614733E+01 0.  0.
     999903    2    3    3    0    0 -0.35756407983E-01 -0.46080802154E-01 -0.11591054161E+00  0.13123996571E+00  0.19665042676E-01 0.  0.
         14    1    1    2    0    0  0.19836055993E-01  0.11223272511E-01 -0.57203423708E-02  0.23497942039E-01  0.00000000000E+00 0. -1.
     999901    1    3    3    0    0  0.15920351990E-01  0.34857529643E-01  0.12163088399E+00  0.88919209225E+00  0.88000000000E+00 0.  1.
        -11    1    4    4    0    0 -0.14252993726E-01 -0.33902084893E-01 -0.72005348356E-01  0.80854996772E-01  0.51100000000E-03 0.  1.
         11    1    4    4    0    0 -0.21503414258E-01 -0.12178717261E-01 -0.43905193259E-01  0.50384968939E-01  0.51100000000E-03 0. -1.
</event>
<event>
 8    1  0.1122848E+005  0.1043930E+01  0.7957747E-01            NaN
         13   -1    0    0    0    0  0.00000000000E+00  0.00000000000E+00  0.74505805969E-08  0.10566000000E+00  0.10566000000E+00 0. -1.
     999900   -1    0    0    0    0 -0.00000000000E+00 -0.00000000000E+00 -0.74505805969E-08  0.93827000000E+00  0.93827000000E+00 0.  1.
     999902    2    1    2    0    0 -0.12589592128E-01 -0.67764198620E-02  0.17931642916E-01  0.10209961492E+01  0.10207385440E+01 0.  0.
     999903    2    3    3    0    0 -0.40769733890E-01 -0.20596528395E-03 -0.12108727392E+00  0.12961320649E+00  0.21800040558E-01 0.  0.
         14    1    1    2    0    0  0.12589592128E-01  0.67764198620E-02 -0.17931642916E-01  0.22933850828E-01  0.00000000000E+00 0.  1.
     999901    1    3    3    0    0  0.28180141761E-01 -0.65704545781E-02  0.13901891684E+00  0.89138294268E+00  0.88000000000E+00 0. -1.
        -11    1    4    4    0    0 -0.23222619796E-01  0.81453702047E-02 -0.47469170111E-01  0.53471678092E-01  0.51100000000E-03 0.  1.
         11    1    4    4    0    0 -0.17547114094E-01 -0.83513354887E-02 -0.73618103810E-01  0.76141528400E-01  0.51100000000E-03 0. -1.
</event>
<event>
 8    1  0.1122848E+005  0.1043930E+01  0.7957747E-01            NaN
         13   -1    0    0    0    0  0.00000000000E+00  0.00000000000E+00  0.74505805969E-08  0.10566000000E+00  0.10566000000E+00 0. -1.
     999900   -1    0    0    0    0 -0.00000000000E+00 -0.00000000000E+00 -0.74505805969E-08  0.93827000000E+00  0.93827000000E+00 0.  1.
     999902    2    1    2    0    0 -0.11987245085E-02  0.11027933260E-01 -0.20784227797E-01  0.10203707900E+01  0.10200987759E+01 0.  0.
     999903    2    3    3    0    0 -0.81748367403E-01 -0.46150777013E-01  0.85436960662E-01  0.12849602815E+00  0.19976616621E-01 0.  0.
         14    1    1    2    0    0  0.11987245085E-02 -0.11027933260E-01  0.20784227797E-01  0.23559210037E-01  0.00000000000E+00 0. -1.
     999901    1    3    3    0    0  0.80549642895E-01  0.57178710273E-01 -0.10622118846E+00  0.89187476181E+00  0.88000000000E+00 0.  1.
        -11    1    4    4    0    0 -0.58516684705E-01 -0.42612993169E-01  0.62163170960E-01  0.95417977973E-01  0.51100000000E-03 0. -1.
         11    1    4    4    0    0 -0.23231682698E-01 -0.35377838435E-02  0.23273789702E-01  0.33078050178E-01  0.51100000000E-03 0.  1.
</event>
<event>
 8    1  0.1122848E+005  0.1043930E+01  0.7957747E-01            NaN
         13   -1    0    0    0    0  0.00000000000E+00  0.00000000000E+00  0.74505805969E-08  0.10566000000E+00  0.10566000000E+00 0.  1.
     999900   -1    0    0    0    0 -0.00000000000E+00 -0.00000000000E+00 -0.74505805969E-08  0.93827000000E+00  0.93827000000E+00 0. -1.
     999902    2    1    2    0    0 -0.16454339047E-01 -0.12915677229E-01  0.12623642684E-01  0.10194981285E+01  0.10192053363E+01 0.  0.
     999903    2    3    3    0    0  0.11048199467E+00 -0.15665928883E-01  0.61665877846E-01  0.12903446412E+00  0.19887683768E-01 0.  0.
         14    1    1    2    0    0  0.16454339047E-01  0.12915677229E-01 -0.12623642684E-01  0.24431871528E-01  0.00000000000E+00 0. -1.
     999901    1    3    3    0    0 -0.12693633372E+00  0.27502516539E-02 -0.49042235163E-01  0.89046366435E+00  0.88000000000E+00 0.  1.
        -11    1    4    4    0    0  0.35548345178E-01 -0.89155542191E-02  0.30156284882E-01  0.47464034709E-01  0.51100000000E-03 0.  1.
         11    1    4    4    0    0  0.74933649493E-01 -0.67503746640E-02  0.31509592965E-01  0.81570429411E-01  0.51100000000E-03 0. -1.
</event>
<event>
 8    1  0.1122848E+005  0.1043930E+01  0.7957747E-01            NaN
         13   -1    0    0    0    0  0.00000000000E+00  0.00000000000E+00  0.74505805969E-08  0.10566000000E+00  0.10566000000E+00 0. -1.
     999900   -1    0    0    0    0 -0.00000000000E+00 -0.00000000000E+00 -0.74505805969E-08  0.93827000000E+00  0.93827000000E+00 0. -1.
     999902    2    1    2    0    0 -0.46188023707E-02 -0.56256233488E-02  0.22348771116E-01  0.10204257760E+01  0.10201550450E+01 0.  0.
     999903    2    3    3    0    0  0.76404147645E-01 -0.31136412375E-01 -0.96243079368E-01  0.12841706208E+00  0.20521733698E-01 0.  0.
         14    1    1    2    0    0  0.46188023707E-02  0.56256233488E-02 -0.22348771116E-01  0.23504223957E-01  0.00000000000E+00 0.  1.
     999901    1    3    3    0    0 -0.81022950016E-01  0.25510789026E-01  0.11859185048E+00  0.89200871396E+00  0.88000000000E+00 0.  1.
        -11    1    4    4    0    0  0.45263649760E-01 -0.20082013221E-01 -0.72188078583E-01  0.87541219177E-01  0.51100000000E-03 0. -1.
         11    1    4    4    0    0  0.31140497885E-01 -0.11054399154E-01 -0.24055000785E-01  0.40875842903E-01  0.51100000000E-03 0.  1.
</event>
<event>
 8    1  0.1122848E+005  0.1043930E+01  0.7957747E-01            NaN
         13   -1    0    0    0    0  0.00000000000E+00  0.00000000000E+00  0.74505805969E-08  0.10566000000E+00  0.10566000000E+00 0.  1.
     999900   -1    0    0    0    0 -0.00000000000E+00 -0.00000000000E+00 -0.74505805969E-08  0.93827000000E+00  0.93827000000E+00 0.  1.
     999902    2    1    2    0    0  0.18771354457E-01 -0.34905343591E-02  0.51599750517E-02  0.10241519081E+01  0.10239609162E+01 0.  0.
     999903    2    3    3    0    0  0.11641844340E-01 -0.45330910844E-01  0.12537650760E+00  0.13496494138E+00  0.17488359683E-01 0.  0.
         14    1    1    2    0    0 -0.18771354457E-01  0.34905343591E-02 -0.51599750517E-02  0.19778091940E-01  0.00000000000E+00 0.  1.
     999901    1    3    3    0    0  0.71295101170E-02  0.41840376485E-01 -0.12021653255E+00  0.88918696668E+00  0.88000000000E+00 0.  1.
        -11    1    4    4    0    0  0.62071067230E-02 -0.27403121856E-01  0.50642191309E-01  0.57916767201E-01  0.51100000000E-03 0. -1.
         11    1    4    4    0    0  0.54347376169E-02 -0.17927788988E-01  0.74734316295E-01  0.77048174177E-01  0.51100000000E-03 0.  1.
</event>
<event>
 8    1  0.1122848E+005  0.1043930E+01  0.7957747E-01            NaN
         13   -1    0    0    0    0  0.00000000000E+00  0.00000000000E+00  0.74505805969E-08  0.10566000000E+00  0.10566000000E+00 0. -1.
     999900   -1    0    0    0    0 -0.00000000000E+00 -0.00000000000E+00 -0.74505805969E-08  0.93827000000E+00  0.93827000000E+00 0.  1.
     999902    2    1    2    0    0 -0.21036576715E-01 -0.76559019114E-02  0.36296060011E-02  0.10212512780E+01  0.10209994360E+01 0.  0.
     999903    2    3    3    0    0 -0.10929215952E-01 -0.99584553201E-01  0.84835037847E-01  0.13268650382E+00  0.19292321053E-01 0.  0.
         14    1    1    2    0    0  0.21036576715E-01  0.76559019114E-02 -0.36296060011E-02  0.22678722047E-01  0.00000000000E+00 0.  1.
     999901    1    3    3    0    0 -0.10107360763E-01  0.91928651290E-01 -0.81205431846E-01  0.88856477413E+00  0.88000000000E+00 0.  1.
        -11    1    4    4    0    0  0.11987059127E-02 -0.68833435131E-01  0.54302190236E-01  0.87683907721E-01  0.51100000000E-03 0.  1.
         11    1    4    4    0    0 -0.12127921865E-01 -0.30751118070E-01  0.30532847612E-01  0.45002596099E-01  0.51100000000E-03 0. -1.
</event>
<event>
 8    1  0.1122848E+005  0.1043930E+01  0.7957747E-01            NaN
         13   -1    0    0    0    0  0.00000000000E+00  0.00000000000E+00  0.74505805969E-08  0.10566000000E+00  0.10566000000E+00 0.  1.
     999900   -1    0    0    0    0 -0.00000000000E+00 -0.00000000000E+00 -0.74505805969E-08  0.93827000000E+00  0.93827000000E+00 0. -1.
     999902    2    1    2    0    0  0.14978523636E-01 -0.11870790449E-01 -0.13098475272E-01  0.10207601513E+01  0.10204971556E+01 0.  0.
     999903    2    3    3    0    0  0.32677186928E-01 -0.11966120343E+00 -0.44195400657E-01  0.13346142221E+00  0.21728221872E-01 0.  0.
         14    1    1    2    0    0 -0.14978523636E-01  0.11870790449E-01  0.13098475272E-01  0.23169848740E-01  0.00000000000E+00 0.  1.
     999901    1    3    3    0    0 -0.17698663292E-01  0.10779041298E+00  0.31096925385E-01  0.88729872905E+00  0.88000000000E+00 0.  1.
        -11    1    4    4    0    0  0.22554807033E-01 -0.49254361701E-01 -0.12565602405E-01  0.55613550073E-01  0.51100000000E-03 0.  1.
         11    1    4    4    0    0  0.10122379895E-01 -0.70406841730E-01 -0.31629798251E-01  0.77847872133E-01  0.51100000000E-03 0. -1.
</event>
<event>
 8    1  0.1122848E+005  0.1043930E+01  0.7957747E-01            NaN
         13   -1    0    0    0    0  0.00000000000E+00  0.00000000000E+00  0.74505805969E-08  0.10566000000E+00  0.10566000000E+00 0. -1.
     999900   -1    0    0    0    0 -0.00000000000E+00 -0.00000000000E+00 -0.74505805969E-08  0.93827000000E+00  0.93827000000E+00 0.  1.
     999902    2    1    2    0    0  0.89682315542E-02  0.20933023533E-01  0.15411102831E-02  0.10211046704E+01  0.10208495248E+01 0.  0.
     999903    2    3    3    0    0  0.27956013785E-01 -0.37911351419E-01 -0.12079788275E+00  0.13049250700E+00  0.14743019850E-01 0.  0.
         14    1    1    2    0    0 -0.89682315542E-02 -0.20933023533E-01 -0.15411102831E-02  0.22825329622E-01  0.00000000000E+00 0. -1.
     999901    1    3    3    0    0 -0.18987782230E-01  0.58844374952E-01  0.12233899303E+00  0.89061216338E+00  0.88000000000E+00 0. -1.
        -11    1    4    4    0    0  0.54153964461E-02 -0.60974347326E-03 -0.18589865775E-01  0.19378919895E-01  0.51100000000E-03 0. -1.
         11    1    4    4    0    0  0.22540617339E-01 -0.37301607945E-01 -0.10220801697E+00  0.11111358711E+00  0.51100000000E-03 0.  1.
</event>
<event>
 8    1  0.1122848E+005  0.1043930E+01  0.7957747E-01            NaN
         13   -1    0    0    0    0  0.00000000000E+00  0.00000000000E+00  0.74505805969E-08  0.10566000000E+00  0.10566000000E+00 0.  1.
     999900   -1    0    0    0    0 -0.00000000000E+00 -0.00000000000E+00 -0.74505805969E-08  0.93827000000E+00  0.93827000000E+00 0.  1.
     999902    2    1    2    0    0  0.14187369691E-01 -0.10787393380E-01 -0.14999325626E-01  0.10206355997E+01  0.10203697361E+01 0.  0.
     999903    2    3    3    0    0  0.13245350130E-01  0.10162239543E+00  0.75485232238E-01  0.12888210059E+00  0.20249074393E-01 0.  0.
         14    1    1    2    0    0 -0.14187369691E-01  0.10787393380E-01  0.14999325626E-01  0.23294400270E-01  0.00000000000E+00 0. -1.
     999901    1    3    3    0    0  0.94201956122E-03 -0.11240978881E+00 -0.90484557864E-01  0.89175349914E+00  0.88000000000E+00 0.  1.
        -11    1    4    4    0    0  0.18446022532E-02  0.65305918850E-01  0.38646466448E-01  0.75908340017E-01  0.51100000000E-03 0.  1.
         11    1    4    4    0    0  0.11400747877E-01  0.36316476576E-01  0.36838765790E-01  0.52973760571E-01  0.51100000000E-03 0. -1.
</event>
<event>
 8    1  0.1122848E+005  0.1043930E+01  0.7957747E-01            NaN
         13   -1    0    0    0    0  0.00000000000E+00  0.00000000000E+00  0.74505805969E-08  0.10566000000E+00  0.10566000000E+00 0.  1.
     999900   -1    0    0    0    0 -0.00000000000E+00 -0.00000000000E+00 -0.74505805969E-08  0.93827000000E+00  0.93827000000E+00 0. -1.
     999902    2    1    2    0    0  0.10534283833E-01  0.68351199707E-02 -0.19308610598E-01  0.10208971442E+01  0.10206372846E+01 0.  0.
     999903    2    3    3    0    0  0.11938285518E+00  0.21899701970E-01 -0.54989785917E-01  0.13334539962E+00  0.50255337167E-02 0.  0.
         14    1    1    2    0    0 -0.10534283833E-01 -0.68351199707E-02  0.19308610598E-01  0.23032855752E-01  0.00000000000E+00 0.  1.
     999901    1    3    3    0    0 -0.10884857134E+00 -0.15064581999E-01  0.35681175320E-01  0.88755174462E+00  0.88000000000E+00 0. -1.
        -11    1    4    4    0    0  0.48562037067E-01  0.71938091598E-02 -0.24131612343E-01  0.54704827663E-01  0.51100000000E-03 0. -1.
         11    1    4    4    0    0  0.70820818109E-01  0.14705892810E-01 -0.30858173574E-01  0.78640571960E-01  0.51100000000E-03 0.  1.
</event>
<event>
 8    1  0.1122848E+005  0.1043930E+01  0.7957747E-01            NaN
         13   -1    0    0    0    0  0.00000000000E+00  0.00000000000E+00  0.74505805969E-08  0.10566000000E+00  0.10566000000E+00 0.  1.
     999900   -1    0    0    0    0 -0.00000000000E+00 -0.00000000000E+00 -0.74505805969E-08  0.93827000000E+00  0.93827000000E+00 0. -1.
     999902    2    1    2    0    0  0.89853369296E-03  0.18974765818E-01 -0.92622056990E-02  0.10227961988E+01  0.10225778340E+01 0.  0.
     999903    2    3    3    0    0 -0.49726718230E-01  0.47243506971E-01  0.11022773090E+00  0.13282997310E+00  0.28088318519E-01 0.  0.
         14    1    1    2    0    0 -0.89853369296E-03 -0.18974765818E-01  0.92622056990E-02  0.21133801244E-01  0.00000000000E+00 0. -1.
     999901    1    3    3    0    0  0.50625251923E-01 -0.28268741153E-01 -0.11948993660E+00  0.88996622566E+00  0.88000000000E+00 0. -1.
        -11    1    4    4    0    0 -0.23648077567E-01  0.10574351160E-01  0.22852886283E-01  0.34547995709E-01  0.51100000000E-03 0.  1.
         11    1    4    4    0    0 -0.26078640663E-01  0.36669155811E-01  0.87374844619E-01  0.98281977391E-01  0.51100000000E-03 0. -1.
</event>
<event>
 8    1  0.1122848E+005  0.1043930E+01  0.7957747E-01            NaN
         13   -1    0    0    0    0  0.00000000000E+00  0.00000000000E+00  0.74505805969E-08  0.10566000000E+00  0.10566000000E+00 0. -1.
     999900   -1    0    0    0    0 -0.00000000000E+00 -0.00000000000E+00 -0.74505805969E-08  0.93827000000E+00  0.93827000000E+00 0. -1.
     999902    2    1    2    0    0 -0.35477895142E-02  0.18721180004E-01 -0.12826490071E-01  0.10209607110E+01  0.10207022999E+01 0.  0.
     999903    2    3    3    0    0  0.24040333274E-01  0.95792927994E-02 -0.12962718748E+00  0.13276755543E+00  0.12422381644E-01 0.  0.
         14    1    1    2    0    0  0.35477895142E-02 -0.18721180004E-01  0.12826490071E-01  0.22969289034E-01  0.00000000000E+00 0. -1.
     999901    1    3    3    0    0 -0.27588122788E-01  0.91418872050E-02  0.11680069741E+00  0.88819315553E+00  0.88000000000E+00 0.  1.
        -11    1    4    4    0    0  0.22504382705E-01  0.11183737188E-01 -0.10218857322E+00  0.10523444700E+00  0.51100000000E-03 0.  1.
         11    1    4    4    0    0  0.15359505692E-02 -0.16044443889E-02 -0.27438614269E-01  0.27533108432E-01  0.51100000000E-03 0. -1.
</event>
<event>
 8    1  0.1122848E+005  0.1043930E+01  0.7957747E-01            NaN
         13   -1    0    0    0    0  0.00000000000E+00  0.00000000000E+00  0.74505805969E-08  0.10566000000E+00  0.10566000000E+00 0. -1.
     999900   -1    0    0    0    0 -0.00000000000E+00 -0.00000000000E+00 -0.74505805969E-08  0.93827000000E+00  0.93827000000E+00 0.  1.
     999902    2    1    2    0    0 -0.14387289986E-01 -0.15799196107E-01  0.10570139965E-01  0.10200901894E+01  0.10198115796E+01 0.  0.
     999903    2    3    3    0    0  0.47656616645E-01 -0.11530489241E+00  0.38098416201E-01  0.13188490010E+00  0.19384690655E-01 0.  0.
         14    1    1    2    0    0  0.14387289986E-01  0.15799196107E-01 -0.10570139965E-01  0.23839810605E-01  0.00000000000E+00 0.  1.
     999901    1    3    3    0    0 -0.62043906631E-01  0.99505696306E-01 -0.27528276236E-01  0.88820528930E+00  0.88000000000E+00 0.  1.
        -11    1    4    4    0    0  0.10274083243E-01 -0.46735625223E-01  0.18972373041E-01  0.51478029403E-01  0.51100000000E-03 0. -1.
         11    1    4    4    0    0  0.37382533402E-01 -0.68569267191E-01  0.19126043160E-01  0.80406870693E-01  0.51100000000E-03 0.  1.
</event>
<event>
 8    1  0.1122848E+005  0.1043930E+01  0.7957747E-01            NaN
         13   -1    0    0    0    0  0.00000000000E+00  0.00000000000E+00  0.74505805969E-08  0.10566000000E+00  0.10566000000E+00 0.  1.
     999900   -1    0    0    0    0 -0.00000000000E+00 -0.00000000000E+00 -0.74505805969E-08  0.93827000000E+00  0.93827000000E+00 0.  1.
     999902    2    1    2    0    0  0.20382815107E-01  0.77085066507E-02 -0.74072805288E-02  0.10209137442E+01  0.10206542632E+01 0.  0.
     999903    2    3    3    0    0  0.19316725700E-01  0.10499295200E+00  0.74604042163E-01  0.13176175668E+00  0.19968514075E-01 0.  0.
         14    1    1    2    0    0 -0.20382815107E-01 -0.77085066507E-02  0.74072805288E-02  0.23016255805E-01  0.00000000000E+00 0.  1.
     999901    1    3    3    0    0  0.10660894064E-02 -0.97284445351E-01 -0.82011322692E-01  0.88915198752E+00  0.88000000000E+00 0.  1.
        -11    1    4    4    0    0  0.16688163833E-01  0.41759227933E-01  0.36187641158E-01  0.57724643119E-01  0.51100000000E-03 0.  1.
         11    1    4    4    0    0  0.26285618667E-02  0.63233724069E-01  0.38416401005E-01  0.74037113560E-01  0.51100000000E-03 0. -1.
</event>
<event>
 8    1  0.1122848E+005  0.1043930E+01  0.7957747E-01            NaN
         13   -1    0    0    0    0  0.00000000000E+00  0.00000000000E+00  0.74505805969E-08  0.10566000000E+00  0.10566000000E+00 0. -1.
     999900   -1    0    0    0    0 -0.00000000000E+00 -0.00000000000E+00 -0.74505805969E-08  0.93827000000E+00  0.93827000000E+00 0. -1.
     999902    2    1    2    0    0 -0.22496443471E-01 -0.23374202257E-02  0.91201540578E-02  0.10195428987E+01  0.10192511916E+01 0.  0.
     999903    2    3    3    0    0 -0.37336508352E-02 -0.51880220706E-01 -0.11623542205E+00  0.12908203374E+00  0.21118727386E-01 0.  0.
         14    1    1    2    0    0  0.22496443471E-01  0.23374202257E-02 -0.91201540578E-02  0.24387101349E-01  0.00000000000E+00 0.  1.
     999901    1    3    3    0    0 -0.18762792636E-01  0.49542800481E-01  0.12535557611E+00  0.89046086491E+00  0.88000000000E+00 0.  1.
        -11    1    4    4    0    0 -0.37954233729E-02 -0.71998510933E-02 -0.39079340547E-01  0.39921160717E-01  0.51100000000E-03 0. -1.
         11    1    4    4    0    0  0.61772537716E-04 -0.44680369613E-01 -0.77156081507E-01  0.89160873028E-01  0.51100000000E-03 0.  1.
</event>
<event>
 7    1  0.1222331E+005  0.1043930E+01  0.7957747E-01            NaN
         13   -1    0    0    0    0  0.00000000000E+00  0.00000000000E+00  0.74505805969E-08  0.10566000000E+00  0.10566000000E+00 0. -1.
     999900   -1    0    0    0    0 -0.00000000000E+00 -0.00000000000E+00 -0.74505805969E-08  0.93827000000E+00  0.93827000000E+00 0. -1.
     999903    2    1    2    0    0  0.25434841753E-01 -0.96585349357E-01 -0.27633648931E-01  0.10569115033E+00  0.20768722127E-01 0.  0.
         14    1    1    2    0    0  0.27844646369E-01  0.12832045730E-01  0.42655432338E-01  0.52530673297E-01  0.00000000000E+00 0. -1.
     999901    1    1    2    0    0 -0.53279488122E-01  0.83753303627E-01 -0.15021783407E-01  0.88570817638E+00  0.88000000000E+00 0.  1.
        -11    1    3    3    0    0  0.19497875413E-01 -0.54997017292E-01 -0.66547794921E-02  0.58731475954E-01  0.51100000000E-03 0.  1.
         11    1    3    3    0    0  0.59369663396E-02 -0.41588332065E-01 -0.20978869439E-01  0.46959674373E-01  0.51100000000E-03 0. -1.
</event>
<event>
 8    1  0.1122848E+005  0.1043930E+01  0.7957747E-01            NaN
         13   -1    0    0    0    0  0.00000000000E+00  0.00000000000E+00  0.74505805969E-08  0.10566000000E+00  0.10566000000E+00 0.  1.
     999900   -1    0    0    0    0 -0.00000000000E+00 -0.00000000000E+00 -0.74505805969E-08  0.93827000000E+00  0.93827000000E+00 0. -1.
     999902    2    1    2    0    0 -0.27089441167E-02 -0.59674119736E-02 -0.21881429762E-01  0.10210882542E+01  0.10208327373E+01 0.  0.
     999903    2    3    3    0    0 -0.31792247224E-01 -0.12655498608E+00  0.19235656983E-02  0.13206976204E+00  0.20293113506E-01 0.  0.
         14    1    1    2    0    0  0.27089441167E-02  0.59674119736E-02  0.21881429762E-01  0.22841745825E-01  0.00000000000E+00 0.  1.
     999901    1    3    3    0    0  0.29083303107E-01  0.12058757410E+00 -0.23804995460E-01  0.88901849213E+00  0.88000000000E+00 0. -1.
        -11    1    4    4    0    0 -0.64355772207E-02 -0.40878270250E-01 -0.80586582083E-02  0.42162219177E-01  0.51100000000E-03 0.  1.
         11    1    4    4    0    0 -0.25356670003E-01 -0.85676715828E-01  0.99822239066E-02  0.89907542864E-01  0.51100000000E-03 0. -1.
</event>
<event>
 8    1  0.1122848E+005  0.1043930E+01  0.7957747E-01            NaN
         13   -1    0    0    0    0  0.00000000000E+00  0.00000000000E+00  0.74505805969E-08  0.10566000000E+00  0.10566000000E+00 0. -1.
     999900   -1    0    0    0    0 -0.00000000000E+00 -0.00000000000E+00 -0.74505805969E-08  0.93827000000E+00  0.93827000000E+00 0.  1.
     999902    2    1    2    0    0  0.71984615680E-02  0.19046911590E-01  0.88947585778E-02  0.10217102021E+01  0.10214685593E+01 0.  0.
     999903    2    3    3    0    0 -0.31889071821E-01 -0.47352119441E-01 -0.11480278862E+00  0.12972491644E+00  0.19741771807E-01 0.  0.
         14    1    1    2    0    0 -0.71984615680E-02 -0.19046911590E-01 -0.88947585778E-02  0.22219797934E-01  0.00000000000E+00 0.  1.
     999901    1    3    3    0    0  0.39087533389E-01  0.66399031032E-01  0.12369754720E+00  0.89198528562E+00  0.88000000000E+00 0. -1.
        -11    1    4    4    0    0 -0.30778507821E-01 -0.33944152324E-01 -0.98075093389E-01  0.10825205349E+00  0.51100000000E-03 0.  1.
         11    1    4    4    0    0 -0.11105639992E-02 -0.13407967117E-01 -0.16727695229E-01  0.21472862950E-01  0.51100000000E-03 0. -1.
</event>
<event>
 8    1  0.1122848E+005  0.1043930E+01  0.7957747E-01            NaN
         13   -1    0    0    0    0  0.00000000000E+00  0.00000000000E+00  0.74505805969E-08  0.10566000000E+00  0.10566000000E+00 0. -1.
     999900   -1    0    0    0    0 -0.00000000000E+00 -0.00000000000E+00 -0.74505805969E-08  0.93827000000E+00  0.93827000000E+00 0. -1.
     999902    2    1    2    0    0 -0.12734886184E-01 -0.20786007365E-01  0.52493932586E-03  0.10195474040E+01  0.10192558059E+01 0.  0.
     999903    2    3    3    0    0  0.92594061646E-01  0.60572285737E-01  0.60303668897E-01  0.12753459261E+00  0.19643771991E-01 0.  0.
         14    1    1    2    0    0  0.12734886184E-01  0.20786007365E-01 -0.52493932586E-03  0.24382596039E-01  0.00000000000E+00 0. -1.
     999901    1    3    3    0    0 -0.10532894783E+00 -0.81358293101E-01 -0.59778729571E-01  0.89201281135E+00  0.88000000000E+00 0. -1.
        -11    1    4    4    0    0  0.64267513841E-01  0.31080536207E-01  0.40800525470E-01  0.82226863407E-01  0.51100000000E-03 0.  1.
         11    1    4    4    0    0  0.28326547805E-01  0.29491749530E-01  0.19503143428E-01  0.45307729202E-01  0.51100000000E-03 0. -1.
</event>
<event>
 8    1  0.1122848E+005  0.1043930E+01  0.7957747E-01            NaN
         13   -1    0    0    0    0  0.00000000000E+00  0.00000000000E+00  0.74505805969E-08  0.10566000000E+00  0.10566000000E+00 0.  1.
     999900   -1    0    0    0    0 -0.00000000000E+00 -0.00000000000E+00 -0.74505805969E-08  0.93827000000E+00  0.93827000000E+00 0.  1.
     999902    2    1    2    0    0 -0.22546953112E-01 -0.38099961378E-02 -0.72814006036E-02  0.10199320843E+01  0.10196497225E+01 0.  0.
     999903    2    3    3    0    0 -0.60128118863E-02 -0.10342631255E+00  0.76225524675E-01  0.13022977737E+00  0.20403633665E-01 0.  0.
         14    1    1    2    0    0  0.22546953112E-01  0.38099961378E-02  0.72814006036E-02  0.23997915742E-01  0.00000000000E+00 0.  1.
     999901    1    3    3    0    0 -0.16534141225E-01  0.99616316410E-01 -0.83506925278E-01  0.88970230689E+00  0.88000000000E+00 0.  1.
        -11    1    4    4    0    0  0.67457098976E-02 -0.33732977722E-01  0.20148554739E-01  0.39870336932E-01  0.51100000000E-03 0.  1.
         11    1    4    4    0    0 -0.12758521784E-01 -0.69693334826E-01  0.56076969936E-01  0.90359440433E-01  0.51100000000E-03 0. -1.
</event>
<event>
 8    1  0.1122848E+005  0.1043930E+01  0.7957747E-01            NaN
         13   -1    0    0    0    0  0.00000000000E+00  0.00000000000E+00  0.74505805969E-08  0.10566000000E+00  0.10566000000E+00 0.  1.
     999900   -1    0    0    0    0 -0.00000000000E+00 -0.00000000000E+00 -0.74505805969E-08  0.93827000000E+00  0.93827000000E+00 0. -1.
     999902    2    1    2    0    0 -0.19950396253E-01 -0.10893118422E-01 -0.60072455942E-02  0.10204190379E+01  0.10201481498E+01 0.  0.
     999903    2    3    3    0    0  0.40628324982E-01  0.11989364872E+00  0.98768097106E-02  0.12855174780E+00  0.20071190749E-01 0.  0.
         14    1    1    2    0    0  0.19950396253E-01  0.10893118422E-01  0.60072455942E-02  0.23510962108E-01  0.00000000000E+00 0.  1.
     999901    1    3    3    0    0 -0.60578721235E-01 -0.13078676714E+00 -0.15884055305E-01  0.89186729009E+00  0.88000000000E+00 0.  1.
        -11    1    4    4    0    0  0.24006490130E-02  0.34336593805E-01  0.12814408987E-02  0.34448047864E-01  0.51100000000E-03 0.  1.
         11    1    4    4    0    0  0.38227675969E-01  0.85557054913E-01  0.85953688119E-02  0.94103699935E-01  0.51100000000E-03 0. -1.
</event>
<event>
 8    1  0.1122848E+005  0.1043930E+01  0.7957747E-01            NaN
         13   -1    0    0    0    0  0.00000000000E+00  0.00000000000E+00  0.74505805969E-08  0.10566000000E+00  0.10566000000E+00 0.  1.
     999900   -1    0    0    0    0 -0.00000000000E+00 -0.00000000000E+00 -0.74505805969E-08  0.93827000000E+00  0.93827000000E+00 0.  1.
     999902    2    1    2    0    0  0.74138346602E-02  0.10961179053E-01  0.19859814391E-01  0.10200652851E+01  0.10197860860E+01 0.  0.
     999903    2    3    3    0    0 -0.19806989472E-02  0.10644265685E+00 -0.71545584556E-01  0.13014398697E+00  0.22016455454E-01 0.  0.
         14    1    1    2    0    0 -0.74138346602E-02 -0.10961179053E-01 -0.19859814391E-01  0.23864714921E-01  0.00000000000E+00 0. -1.
     999901    1    3    3    0    0  0.93945336074E-02 -0.95481477796E-01  0.91405398947E-01  0.88992129810E+00  0.88000000000E+00 0.  1.
        -11    1    4    4    0    0  0.73400899200E-02  0.52824404773E-01 -0.26812969905E-01  0.59694984176E-01  0.51100000000E-03 0. -1.
         11    1    4    4    0    0 -0.93207888671E-02  0.53618252076E-01 -0.44732614651E-01  0.70449002798E-01  0.51100000000E-03 0.  1.
</event>
<event>
 8    1  0.1122848E+005  0.1043930E+01  0.7957747E-01            NaN
         13   -1    0    0    0    0  0.00000000000E+00  0.00000000000E+00  0.74505805969E-08  0.10566000000E+00  0.10566000000E+00 0. -1.
     999900   -1    0    0    0    0 -0.00000000000E+00 -0.00000000000E+00 -0.74505805969E-08  0.93827000000E+00  0.93827000000E+00 0.  1.
     999902    2    1    2    0    0 -0.14433551641E-01  0.19433153795E-01 -0.22116247330E-02  0.10196222612E+01  0.10193324725E+01 0.  0.
     999903    2    3    3    0    0 -0.53120179772E-01  0.11333337745E+00 -0.40165087047E-01  0.13296879314E+00  0.20031420031E-01 0.  0.
         14    1    1    2    0    0  0.14433551641E-01 -0.19433153795E-01  0.22116247330E-02  0.24307738755E-01  0.00000000000E+00 0. -1.
     999901    1    3    3    0    0  0.38686628131E-01 -0.93900223656E-01  0.37953462314E-01  0.88665346810E+00  0.88000000000E+00 0.  1.
        -11    1    4    4    0    0 -0.11701614567E-01  0.15854941194E-01 -0.13044821999E-01  0.23637585447E-01  0.51100000000E-03 0.  1.
         11    1    4    4    0    0 -0.41418565205E-01  0.97478436257E-01 -0.27120265047E-01  0.10933120769E+00  0.51100000000E-03 0. -1.
</event>
<event>
 8    1  0.1122848E+005  0.1043930E+01  0.7957747E-01            NaN
         13   -1    0    0    0    0  0.00000000000E+00  0.00000000000E+00  0.74505805969E-08  0.10566000000E+00  0.10566000000E+00 0. -1.
     999900   -1    0    0    0    0 -0.00000000000E+00 -0.00000000000E+00 -0.74505805969E-08  0.93827000000E+00  0.93827000000E+00 0. -1.
     999902    2    1    2    0    0 -0.16020357176E-01  0.11331199163E-01 -0.81609269423E-02  0.10226779731E+01  0.10224571326E+01 0.  0.
     999903    2    3    3    0    0 -0.72137210075E-01 -0.86847519467E-01 -0.68182421278E-01  0.13341381564E+00  0.20103107163E-01 0.  0.
         14    1    1    2    0    0  0.16020357176E-01 -0.11331199163E-01  0.81609269423E-02  0.21252026893E-01  0.00000000000E+00 0. -1.
     999901    1    3    3    0    0  0.56116852899E-01  0.98178718630E-01  0.60021494335E-01  0.88926415747E+00  0.88000000000E+00 0. -1.
        -11    1    4    4    0    0 -0.40853544985E-01 -0.61271736479E-01 -0.37288758166E-01  0.82546656113E-01  0.51100000000E-03 0.  1.
         11    1    4    4    0    0 -0.31283665090E-01 -0.25575782988E-01 -0.30893663112E-01  0.50867159528E-01  0.51100000000E-03 0. -1.
</event>
<event>
 8    1  0.1122848E+005  0.1043930E+01  0.7957747E-01            NaN
         13   -1    0    0    0    0  0.00000000000E+00  0.00000000000E+00  0.74505805969E-08  0.10566000000E+00  0.10566000000E+00 0. -1.
     999900   -1    0    0    0    0 -0.00000000000E+00 -0.00000000000E+00 -0.74505805969E-08  0.93827000000E+00  0.93827000000E+00 0. -1.
     999902    2    1    2    0    0 -0.13251585790E-01  0.17922968631E-01 -0.78463229975E-02  0.10202994665E+01  0.10200257836E+01 0.  0.
     999903    2    3    3    0    0 -0.96224241047E-01  0.57600379457E-01 -0.69528869222E-01  0.13335894143E+00  0.19324474749E-01 0.  0.
         14    1    1    2    0    0  0.13251585790E-01 -0.17922968631E-01  0.78463229975E-02  0.23630533533E-01  0.00000000000E+00 0. -1.
     999901    1    3    3    0    0  0.82972655257E-01 -0.39677410826E-01  0.61682546225E-01  0.88694052504E+00  0.88000000000E+00 0.  1.
        -11    1    4    4    0    0 -0.46174642910E-01  0.26617573803E-01 -0.44335121611E-01  0.69328616115E-01  0.51100000000E-03 0. -1.
         11    1    4    4    0    0 -0.50049598137E-01  0.30982805653E-01 -0.25193747611E-01  0.64030325312E-01  0.51100000000E-03 0.  1.
</event>
<event>
 8    1  0.1122848E+005  0.1043930E+01  0.7957747E-01            NaN
         13   -1    0    0    0    0  0.00000000000E+00  0.00000000000E+00  0.74505805969E-08  0.10566000000E+00  0.10566000000E+00 0. -1.
     999900   -1    0    0    0    0 -0.00000000000E+00 -0.00000000000E+00 -0.74505805969E-08  0.93827000000E+00  0.93827000000E+00 0. -1.
     999902    2    1    2    0    0 -0.10118756158E-01 -0.63108334938E-02 -0.20611964650E-01  0.10201167908E+01  0.10198388098E+01 0.  0.
     999903    2    3    3    0    0  0.86504048519E-01  0.19679377712E-01 -0.94957019899E-01  0.13133186479E+00  0.18999862217E-01 0.  0.
         14    1    1    2    0    0  0.10118756158E-01  0.63108334938E-02  0.20611964650E-01  0.23813209198E-01  0.00000000000E+00 0. -1.
     999901    1    3    3    0    0 -0.96622804677E-01 -0.25990211206E-01  0.74345055249E-01  0.88878492601E+00  0.88000000000E+00 0.  1.
        -11    1    4    4    0    0  0.34564640591E-01  0.16735079241E-01 -0.35147320609E-01  0.52061238204E-01  0.51100000000E-03 0.  1.
         11    1    4    4    0    0  0.51939407928E-01  0.29442984714E-02 -0.59809699290E-01  0.79270626588E-01  0.51100000000E-03 0. -1.
</event>
<event>
 8    1  0.1122848E+005  0.1043930E+01  0.7957747E-01            NaN
         13   -1    0    0    0    0  0.00000000000E+00  0.00000000000E+00  0.74505805969E-08  0.10566000000E+00  0.10566000000E+00 0.  1.
     999900   -1    0    0    0    0 -0.00000000000E+00 -0.00000000000E+00 -0.74505805969E-08  0.93827000000E+00  0.93827000000E+00 0. -1.
     999902    2    1    2    0    0  0.19612975351E-01 -0.73219104710E-03 -0.13514796700E-01  0.10201002993E+01  0.10198219286E+01 0.  0.
     999903    2    3    3    0    0 -0.10257685711E-01  0.11718722296E+00  0.50192890760E-01  0.12945114613E+00  0.20005189578E-01 0.  0.
         14    1    1    2    0    0 -0.19612975351E-01  0.73219104710E-03  0.13514796700E-01  0.23829700705E-01  0.00000000000E+00 0. -1.
     999901    1    3    3    0    0  0.29870661062E-01 -0.11791941401E+00 -0.63707687460E-01  0.89064915317E+00  0.88000000000E+00 0. -1.
        -11    1    4    4    0    0 -0.20315631682E-02  0.42053527259E-01  0.79050345928E-02  0.42841301296E-01  0.51100000000E-03 0.  1.
         11    1    4    4    0    0 -0.82261225427E-02  0.75133695702E-01  0.42287856167E-01  0.86609844834E-01  0.51100000000E-03 0. -1.
</event>
<event>
 7    1  0.1122848E+005  0.1043930E+01  0.7957747E-01            NaN
         13   -1    0    0    0    0  0.00000000000E+00  0.00000000000E+00  0.74505805969E-08  0.10566000000E+00  0.10566000000E+00 0.  1.
     999900   -1    0    0    0    0 -0.00000000000E+00 -0.00000000000E+00 -0.74505805969E-08  0.93827000000E+00  0.93827000000E+00 0. -1.
     999902    2    1    2    0    0  0.23100224189E-01 -0.17139249351E-02 -0.24082091473E-02  0.10206414327E+01  0.10203757037E+01 0.  0.
         14    1    1    2    0    0 -0.23100224189E-01  0.17139249351E-02  0.24082091473E-02  0.23288567314E-01  0.00000000000E+00 0. -1.
     999901    1    3    3    0    0  0.11013691083E+00  0.80277815559E-01  0.45896682624E-01  0.89167324300E+00  0.88000000000E+00 0.  1.
        -11    1    3    3    0    0 -0.22357636086E-01 -0.21145430071E-01 -0.12491265993E-01  0.33215748544E-01  0.51100000000E-03 0. -1.
         11    1    3    3    0    0 -0.64679050557E-01 -0.60846310423E-01 -0.35813625779E-01  0.95752441146E-01  0.51100000000E-03 0.  1.
</event>
<event>
 8    1  0.1122848E+005  0.1043930E+01  0.7957747E-01            NaN
         13   -1    0    0    0    0  0.00000000000E+00  0.00000000000E+00  0.74505805969E-08  0.10566000000E+00  0.10566000000E+00 0.  1.
     999900   -1    0    0    0    0 -0.00000000000E+00 -0.00000000000E+00 -0.74505805969E-08  0.93827000000E+00  0.93827000000E+00 0.  1.
     999902    2    1    2    0    0  0.20549658750E-01 -0.10511207986E-01  0.46476520812E-02  0.10203848383E+01  0.10201131524E+01 0.  0.
     999903    2    3    3    0    0  0.12391462616E+00 -0.32826774707E-01  0.31891736695E-01  0.13363541423E+00  0.20221507148E-01 0.  0.
         14    1    1    2    0    0 -0.20549658750E-01  0.10511207986E-01 -0.46476520812E-02  0.23545161667E-01  0.00000000000E+00 0.  1.
     999901    1    3    3    0    0 -0.10336496741E+00  0.22315566721E-01 -0.27244084614E-01  0.88674942411E+00  0.88000000000E+00 0. -1.
        -11    1    4    4    0    0  0.28528960069E-01  0.88057069180E-03  0.53496814301E-02  0.29044055842E-01  0.51100000000E-03 0.  1.
         11    1    4    4    0    0  0.95385666093E-01 -0.33707345399E-01  0.26542055265E-01  0.10459135838E+00  0.51100000000E-03 0. -1.
</event>
<event>
 8    1  0.1122848E+005  0.1043930E+01  0.7957747E-01            NaN
         13   -1    0    0    0    0  0.00000000000E+00  0.00000000000E+00  0.74505805969E-08  0.10566000000E+00  0.10566000000E+00 0. -1.
     999900   -1    0    0    0    0 -0.00000000000E+00 -0.00000000000E+00 -0.74505805969E-08  0.93827000000E+00  0.93827000000E+00 0. -1.
     999902    2    1    2    0    0 -0.18153677292E-01 -0.90476888636E-02 -0.12015676274E-01  0.10203547344E+01  0.10200823451E+01 0.  0.
     999903    2    3    3    0    0  0.12054106048E-02 -0.53722523545E-01  0.11626846950E+00  0.12972156792E+00  0.20536933393E-01 0.  0.
         14    1    1    2    0    0  0.18153677292E-01  0.90476888636E-02  0.12015676274E-01  0.23575265625E-01  0.00000000000E+00 0. -1.
     999901    1    3    3    0    0 -0.19359087897E-01  0.44674834682E-01 -0.12828414577E+00  0.89063316646E+00  0.88000000000E+00 0. -1.
        -11    1    4    4    0    0 -0.43801725011E-02 -0.31627879527E-01  0.47193555891E-01  0.56982466717E-01  0.51100000000E-03 0. -1.
         11    1    4    4    0    0  0.55855831059E-02 -0.22094644019E-01  0.69074913604E-01  0.72739101200E-01  0.51100000000E-03 0.  1.
</event>
<event>
 8    1  0.1122848E+005  0.1043930E+01  0.7957747E-01            NaN
         13   -1    0    0    0    0  0.00000000000E+00  0.00000000000E+00  0.74505805969E-08  0.10566000000E+00  0.10566000000E+00 0.  1.
     999900   -1    0    0    0    0 -0.00000000000E+00 -0.00000000000E+00 -0.74505805969E-08  0.93827000000E+00  0.93827000000E+00 0.  1.
     999902    2    1    2    0    0 -0.22953224133E-01 -0.25896015556E-02 -0.48882847814E-02  0.10203195815E+01  0.10200463698E+01 0.  0.
     999903    2    3    3    0    0 -0.82190298714E-01  0.10027077136E+00  0.15853881756E-01  0.13210816251E+00  0.19792631035E-01 0.  0.
         14    1    1    2    0    0  0.22953224133E-01  0.25896015556E-02  0.48882847814E-02  0.23610418515E-01  0.00000000000E+00 0.  1.
     999901    1    3    3    0    0  0.59237074581E-01 -0.10286037292E+00 -0.20742166537E-01  0.88821141897E+00  0.88000000000E+00 0.  1.
        -11    1    4    4    0    0 -0.37012874642E-01  0.30218805932E-01  0.49650393716E-02  0.48042084241E-01  0.51100000000E-03 0.  1.
         11    1    4    4    0    0 -0.45177424072E-01  0.70051965431E-01  0.10888842384E-01  0.84066078272E-01  0.51100000000E-03 0. -1.
</event>
<event>
 8    1  0.1122848E+005  0.1043930E+01  0.7957747E-01            NaN
         13   -1    0    0    0    0  0.00000000000E+00  0.00000000000E+00  0.74505805969E-08  0.10566000000E+00  0.10566000000E+00 0.  1.
     999900   -1    0    0    0    0 -0.00000000000E+00 -0.00000000000E+00 -0.74505805969E-08  0.93827000000E+00  0.93827000000E+00 0.  1.
     999902    2    1    2    0    0 -0.23606839603E-01 -0.32616957649E-02  0.99880726536E-02  0.10180904348E+01  0.10177624724E+01 0.  0.
     999903    2    3    3    0    0 -0.27455131928E-01  0.93518904351E-01  0.83359992637E-01  0.12974099196E+00  0.19602726425E-01 0.  0.
         14    1    1    2    0    0  0.23606839603E-01  0.32616957649E-02 -0.99880726536E-02  0.25839565218E-01  0.00000000000E+00 0.  1.
     999901    1    3    3    0    0  0.38482923249E-02 -0.96780600116E-01 -0.73371919983E-01  0.88834944282E+00  0.88000000000E+00 0.  1.
        -11    1    4    4    0    0 -0.28065432548E-01  0.64391795580E-01  0.57331000533E-01  0.90670152670E-01  0.51100000000E-03 0. -1.
         11    1    4    4    0    0  0.61030062010E-03  0.29127108771E-01  0.26028992104E-01  0.39070839294E-01  0.51100000000E-03 0.  1.
</event>
<event>
 8    1  0.1122848E+005  0.1043930E+01  0.7957747E-01            NaN
         13   -1    0    0    0    0  0.00000000000E+00  0.00000000000E+00  0.74505805969E-08  0.10566000000E+00  0.10566000000E+00 0.  1.
     999900   -1    0    0    0    0 -0.00000000000E+00 -0.00000000000E+00 -0.74505805969E-08  0.93827000000E+00  0.93827000000E+00 0.  1.
     999902    2    1    2    0    0  0.22718329419E-01 -0.59355681600E-02 -0.33622811265E-02  0.10202095785E+01  0.10199337850E+01 0.  0.
     999903    2    3    3    0    0  0.53258857919E-01  0.30381722954E-01  0.11391815456E+00  0.13116156513E+00  0.21597573769E-01 0.  0.
         14    1    1    2    0    0 -0.22718329419E-01  0.59355681600E-02  0.33622811265E-02  0.23720421483E-01  0.00000000000E+00 0. -1.
     999901    1    3    3    0    0 -0.30540528500E-01 -0.36317291114E-01 -0.11728043568E+00  0.88904801339E+00  0.88000000000E+00 0.  1.
        -11    1    4    4    0    0  0.24964286364E-01  0.46058536949E-02  0.32922516907E-01  0.41576227852E-01  0.51100000000E-03 0. -1.
         11    1    4    4    0    0  0.28294571555E-01  0.25775869259E-01  0.80995637651E-01  0.89585337277E-01  0.51100000000E-03 0.  1.
</event>
<event>
 8    1  0.1122848E+005  0.1043930E+01  0.7957747E-01            NaN
         13   -1    0    0    0    0  0.00000000000E+00  0.00000000000E+00  0.74505805969E-08  0.10566000000E+00  0.10566000000E+00 0. -1.
     999900   -1    0    0    0    0 -0.00000000000E+00 -0.00000000000E+00 -0.74505805969E-08  0.93827000000E+00  0.93827000000E+00 0. -1.
     999902    2    1    2    0    0  0.21075808477E-01  0.30760519663E-02  0.80935311011E-02  0.10211449820E+01  0.10208907470E+01 0.  0.
     999903    2    3    3    0    0 -0.91929886586E-01  0.72022787931E-01  0.53739717874E-01  0.13007398940E+00  0.19821690466E-01 0.  0.
         14    1    1    2    0    0 -0.21075808477E-01 -0.30760519663E-02 -0.80935311011E-02  0.22785017980E-01  0.00000000000E+00 0. -1.
     999901    1    3    3    0    0  0.11300569506E+00 -0.68946735964E-01 -0.45646186773E-01  0.89107099262E+00  0.88000000000E+00 0. -1.
        -11    1    4    4    0    0 -0.31973006480E-01  0.35031350499E-01  0.15418622234E-01  0.49874479383E-01  0.51100000000E-03 0. -1.
         11    1    4    4    0    0 -0.59956880106E-01  0.36991437432E-01  0.38321095640E-01  0.80199510019E-01  0.51100000000E-03 0.  1.
</event>
<event>
 7    1  0.1122848E+005  0.1043930E+01  0.7957747E-01            NaN
         13   -1    0    0    0    0  0.00000000000E+00  0.00000000000E+00  0.74505805969E-08  0.10566000000E+00  0.10566000000E+00 0.  1.
     999900   -1    0    0    0    0 -0.00000000000E+00 -0.00000000000E+00 -0.74505805969E-08  0.93827000000E+00  0.93827000000E+00 0. -1.
     999902    2    1    2    0    0  0.33011902693E-03 -0.21288190432E-01 -0.11049092675E-01  0.10199429518E+01  0.10196608488E+01 0.  0.
         14    1    1    2    0    0 -0.33011902693E-03  0.21288190432E-01  0.11049092675E-01  0.23987048159E-01  0.00000000000E+00 0. -1.
     999901    1    3    3    0    0  0.90742648342E-01  0.51338273403E-03 -0.91876046612E-01  0.88942436426E+00  0.88000000000E+00 0.  1.
        -11    1    3    3    0    0 -0.23514615570E-01  0.13901362795E-03  0.46676015842E-01  0.52267275097E-01  0.51100000000E-03 0. -1.
         11    1    3    3    0    0 -0.66897913745E-01 -0.21940586794E-01  0.34150938095E-01  0.78251312488E-01  0.51100000000E-03 0.  1.
</event>
<event>
 8    1  0.1122848E+005  0.1043930E+01  0.7957747E-01            NaN
         13   -1    0    0    0    0  0.00000000000E+00  0.00000000000E+00  0.74505805969E-08  0.10566000000E+00  0.10566000000E+00 0. -1.
     999900   -1    0    0    0    0 -0.00000000000E+00 -0.00000000000E+00 -0.74505805969E-08  0.93827000000E+00  0.93827000000E+00 0. -1.
     999902    2    1    2    0    0 -0.26177395267E-02  0.12276461796E-01 -0.19469602306E-01  0.10207647353E+01  0.10205018449E+01 0.  0.
     999903    2    3    3    0    0  0.81551912696E-01 -0.81659683555E-01  0.53038360885E-01  0.12881970646E+00  0.21504201072E-01 0.  0.
         14    1    1    2    0    0  0.26177395267E-02 -0.12276461796E-01  0.19469602306E-01  0.23165264696E-01  0.00000000000E+00 0. -1.
     999901    1    3    3    0    0 -0.84169652222E-01  0.93936145351E-01 -0.72507963191E-01  0.89194502885E+00  0.88000000000E+00 0. -1.
        -11    1    4    4    0    0  0.20449516626E-01 -0.33269560644E-01  0.22742243958E-01  0.45194216189E-01  0.51100000000E-03 0. -1.
         11    1    4    4    0    0  0.61102396069E-01 -0.48390122911E-01  0.30296116927E-01  0.83625490268E-01  0.51100000000E-03 0.  1.
</event>
<event>
 8    1  0.1122848E+005  0.1043930E+01  0.7957747E-01            NaN
         13   -1    0    0    0    0  0.00000000000E+00  0.00000000000E+00  0.74505805969E-08  0.10566000000E+00  0.10566000000E+00 0. -1.
     999900   -1    0    0    0    0 -0.00000000000E+00 -0.00000000000E+00 -0.74505805969E-08  0.93827000000E+00  0.93827000000E+00 0. -1.
     999902    2    1    2    0    0 -0.13868157091E-01 -0.13505985498E-01  0.18722550163E-02  0.10244815357E+01  0.10242969170E+01 0.  0.
     999903    2    3    3    0    0 -0.26145707596E-01 -0.86734080232E-01  0.99542314178E-01  0.13597012182E+00  0.19308107556E-01 0.  0.
         14    1    1    2    0    0  0.13868157091E-01  0.13505985498E-01 -0.18722550163E-02  0.19448464315E-01  0.00000000000E+00 0.  1.
     999901    1    3    3    0    0  0.12277550506E-01  0.73228094733E-01 -0.97670059162E-01  0.88851141386E+00  0.88000000000E+00 0. -1.
        -11    1    4    4    0    0  0.26552895511E-02 -0.12622311721E-01  0.17180649816E-01  0.21489745575E-01  0.51100000000E-03 0.  1.
         11    1    4    4    0    0 -0.28800997148E-01 -0.74111768511E-01  0.82361664362E-01  0.11448037625E+00  0.51100000000E-03 0. -1.
</event>
<event>
 8    1  0.1122848E+005  0.1043930E+01  0.7957747E-01            NaN
         13   -1    0    0    0    0  0.00000000000E+00  0.00000000000E+00  0.74505805969E-08  0.10566000000E+00  0.10566000000E+00 0.  1.
     999900   -1    0    0    0    0 -0.00000000000E+00 -0.00000000000E+00 -0.74505805969E-08  0.93827000000E+00  0.93827000000E+00 0. -1.
     999902    2    1    2    0    0  0.16768463294E-01  0.11502898749E-01  0.26146527579E-02  0.10234279403E+01  0.10232225636E+01 0.  0.
     999903    2    3    3    0    0  0.97119517391E-01  0.75131036621E-01  0.54948513571E-01  0.13593503063E+00  0.19547892096E-01 0.  0.
         14    1    1    2    0    0 -0.16768463294E-01 -0.11502898749E-01 -0.26146527579E-02  0.20502059650E-01  0.00000000000E+00 0.  1.
     999901    1    3    3    0    0 -0.80351054097E-01 -0.63628137872E-01 -0.52333860813E-01  0.88749290972E+00  0.88000000000E+00 0. -1.
        -11    1    4    4    0    0  0.17533779966E-01  0.10633904048E-01  0.17170600290E-01  0.26750775512E-01  0.51100000000E-03 0.  1.
         11    1    4    4    0    0  0.79585737426E-01  0.64497132573E-01  0.37777913281E-01  0.10918425511E+00  0.51100000000E-03 0. -1.
</event>
<event>
 8    1  0.1122848E+005  0.1043930E+01  0.7957747E-01            NaN
         13   -1    0    0    0    0  0.00000000000E+00  0.00000000000E+00  0.74505805969E-08  0.10566000000E+00  0.10566000000E+00 0.  1.
     999900   -1    0    0    0    0 -0.00000000000E+00 -0.00000000000E+00 -0.74505805969E-08  0.93827000000E+00  0.93827000000E+00 0.  1.
     999902    2    1    2    0    0 -0.23673745244E-01 -0.14944786204E-02  0.61605114396E-02  0.10194222139E+01  0.10191275772E+01 0.  0.
     999903    2    3    3    0    0 -0.14009053617E-01 -0.25960053409E-01  0.12597008682E+00  0.13091430452E+00  0.19997859844E-01 0.  0.
         14    1    1    2    0    0  0.23673745244E-01  0.14944786204E-02 -0.61605114396E-02  0.24507786139E-01  0.00000000000E+00 0.  1.
     999901    1    3    3    0    0 -0.96646916268E-02  0.24465574789E-01 -0.11980957538E+00  0.88850790934E+00  0.88000000000E+00 0.  1.
        -11    1    4    4    0    0 -0.72801451368E-02 -0.12113274750E-01  0.97716514571E-01  0.98734544508E-01  0.51100000000E-03 0.  1.
         11    1    4    4    0    0 -0.67289084805E-02 -0.13846778659E-01  0.28253572246E-01  0.32179760009E-01  0.51100000000E-03 0. -1.
</event>
<event>
 8    1  0.1122848E+005  0.1043930E+01  0.7957747E-01            NaN
         13   -1    0    0    0    0  0.00000000000E+00  0.00000000000E+00  0.74505805969E-08  0.10566000000E+00  0.10566000000E+00 0.  1.
     999900   -1    0    0    0    0 -0.00000000000E+00 -0.00000000000E+00 -0.74505805969E-08  0.93827000000E+00  0.93827000000E+00 0.  1.
     999902    2    1    2    0    0 -0.12156182386E-01  0.11943307579E-01 -0.51169051494E-02  0.10261367967E+01  0.10259825181E+01 0.  0.
     999903    2    3    3    0    0 -0.25675878250E-01  0.10761447015E+00 -0.79537483856E-01  0.13772575664E+00  0.20051129540E-01 0.  0.
         14    1    1    2    0    0  0.12156182386E-01 -0.11943307579E-01  0.51169051494E-02  0.17793203322E-01  0.00000000000E+00 0.  1.
     999901    1    3    3    0    0  0.13519695864E-01 -0.95671162566E-01  0.74420578707E-01  0.88841104004E+00  0.88000000000E+00 0. -1.
        -11    1    4    4    0    0 -0.15809662770E-01  0.67319071992E-01 -0.37514359967E-01  0.78672684049E-01  0.51100000000E-03 0.  1.
         11    1    4    4    0    0 -0.98662154803E-02  0.40295398154E-01 -0.42023123889E-01  0.59053072593E-01  0.51100000000E-03 0. -1.
</event>
<event>
 8    1  0.1122848E+005  0.1043930E+01  0.7957747E-01            NaN
         13   -1    0    0    0    0  0.00000000000E+00  0.00000000000E+00  0.74505805969E-08  0.10566000000E+00  0.10566000000E+00 0.  1.
     999900   -1    0    0    0    0 -0.00000000000E+00 -0.00000000000E+00 -0.74505805969E-08  0.93827000000E+00  0.93827000000E+00 0. -1.
     999902    2    1    2    0    0 -0.23336789291E-01  0.53951079641E-02 -0.25626282947E-02  0.10198409986E+01  0.10195564636E+01 0.  0.
     999903    2    3    3    0    0  0.15347694478E-01 -0.83580343901E-01 -0.95682737080E-01  0.12962502763E+00  0.20645483788E-01 0.  0.
         14    1    1    2    0    0  0.23336789291E-01 -0.53951079641E-02  0.25626282947E-02  0.24089001394E-01  0.00000000000E+00 0.  1.
     999901    1    3    3    0    0 -0.38684483769E-01  0.88975451865E-01  0.93120108785E-01  0.89021597098E+00  0.88000000000E+00 0.  1.
        -11    1    4    4    0    0  0.16151131647E-01 -0.31894692534E-01 -0.38858571009E-01  0.52805114593E-01  0.51100000000E-03 0. -1.
         11    1    4    4    0    0 -0.80343716882E-03 -0.51685651367E-01 -0.56824166071E-01  0.76819913038E-01  0.51100000000E-03 0.  1.
</event>
<event>
 8    1  0.1122848E+005  0.1043930E+01  0.7957747E-01            NaN
         13   -1    0    0    0    0  0.00000000000E+00  0.00000000000E+00  0.74505805969E-08  0.10566000000E+00  0.10566000000E+00 0. -1.
     999900   -1    0    0    0    0 -0.00000000000E+00 -0.00000000000E+00 -0.74505805969E-08  0.93827000000E+00  0.93827000000E+00 0. -1.
     999902    2    1    2    0    0 -0.19617875210E-01 -0.72527097522E-03 -0.13739638132E-01  0.10199682659E+01  0.10196867650E+01 0.  0.
     999903    2    3    3    0    0  0.19099375909E-01  0.12696296491E+00 -0.11990079074E-02  0.12982188550E+00  0.19180816343E-01 0.  0.
         14    1    1    2    0    0  0.19617875210E-01  0.72527097522E-03  0.13739638132E-01  0.23961734114E-01  0.00000000000E+00 0. -1.
     999901    1    3    3    0    0 -0.38717251119E-01 -0.12768823588E+00 -0.12540630225E-01  0.89014638039E+00  0.88000000000E+00 0. -1.
        -11    1    4    4    0    0  0.17437489476E-01  0.60606610414E-01 -0.54792452687E-02  0.63304901191E-01  0.51100000000E-03 0. -1.
         11    1    4    4    0    0  0.16618864334E-02  0.66356354492E-01  0.42802373613E-02  0.66516984304E-01  0.51100000000E-03 0.  1.
</event>
<event>
 8    1  0.1122848E+005  0.1043930E+01  0.7957747E-01            NaN
         13   -1    0    0    0    0  0.00000000000E+00  0.00000000000E+00  0.74505805969E-08  0.10566000000E+00  0.10566000000E+00 0. -1.
     999900   -1    0    0    0    0 -0.00000000000E+00 -0.00000000000E+00 -0.74505805969E-08  0.93827000000E+00  0.93827000000E+00 0.  1.
     999902    2    1    2    0    0  0.22045208361E-01 -0.92351792576E-02 -0.11950241166E-02  0.10199986852E+01  0.10197179070E+01 0.  0.
     999903    2    3    3    0    0  0.98615085889E-02 -0.56748139817E-01 -0.11620310300E+00  0.13116080220E+00  0.19554901246E-01 0.  0.
         14    1    1    2    0    0 -0.22045208361E-01  0.92351792576E-02  0.11950241166E-02  0.23931314845E-01  0.00000000000E+00 0.  1.
     999901    1    3    3    0    0  0.12183699772E-01  0.47512960559E-01  0.11500807889E+00  0.88883788295E+00  0.88000000000E+00 0. -1.
        -11    1    4    4    0    0  0.25634800307E-02 -0.45186114427E-01 -0.10117235955E+00  0.11083530045E+00  0.51100000000E-03 0.  1.
         11    1    4    4    0    0  0.72980285582E-02 -0.11562025390E-01 -0.15030743452E-01  0.20325501757E-01  0.51100000000E-03 0. -1.
</event>
<event>
 8    1  0.1122848E+005  0.1043930E+01  0.7957747E-01            NaN
         13   -1    0    0    0    0  0.00000000000E+00  0.00000000000E+00  0.74505805969E-08  0.10566000000E+00  0.10566000000E+00 0. -1.
     999900   -1    0    0    0    0 -0.00000000000E+00 -0.00000000000E+00 -0.74505805969E-08  0.93827000000E+00  0.93827000000E+00 0.  1.
     999902    2    1    2    0    0  0.90928958326E-02  0.14274871797E-01  0.16582577098E-01  0.10202353892E+01  0.10199602025E+01 0.  0.
     999903    2    3    3    0    0 -0.34849800724E-02 -0.10774365751E+00 -0.67479320579E-01  0.12775954798E+00  0.12173848008E-01 0.  0.
         14    1    1    2    0    0 -0.90928958326E-02 -0.14274871797E-01 -0.16582577098E-01  0.23694610836E-01  0.00000000000E+00 0.  1.
     999901    1    3    3    0    0  0.12577875905E-01  0.12201852930E+00  0.84061897677E-01  0.89247584118E+00  0.88000000000E+00 0. -1.
        -11    1    4    4    0    0  0.22162757500E-02 -0.71906523454E-02 -0.69412175700E-02  0.10249828375E-01  0.51100000000E-03 0. -1.
         11    1    4    4    0    0 -0.57012558225E-02 -0.10055300516E+00 -0.60538103009E-01  0.11750971961E+00  0.51100000000E-03 0.  1.
</event>
<event>
 8    1  0.1122848E+005  0.1043930E+01  0.7957747E-01            NaN
         13   -1    0    0    0    0  0.00000000000E+00  0.00000000000E+00  0.74505805969E-08  0.10566000000E+00  0.10566000000E+00 0. -1.
     999900   -1    0    0    0    0 -0.00000000000E+00 -0.00000000000E+00 -0.74505805969E-08  0.93827000000E+00  0.93827000000E+00 0.  1.
     999902    2    1    2    0    0  0.10971948876E-01  0.16090011350E-01 -0.12442053650E-01  0.10208198977E+01  0.10205582721E+01 0.  0.
     999903    2    3    3    0    0  0.11423314990E+00  0.64532712352E-01  0.11562151609E-01  0.13313427051E+00  0.19425939747E-01 0.  0.
         14    1    1    2    0    0 -0.10971948876E-01 -0.16090011350E-01  0.12442053650E-01  0.23110102259E-01  0.00000000000E+00 0.  1.
     999901    1    3    3    0    0 -0.10326120103E+00 -0.48442701003E-01 -0.24004205260E-01  0.88768562723E+00  0.88000000000E+00 0.  1.
        -11    1    4    4    0    0  0.35810002260E-01  0.17554331653E-01  0.12214903470E-01  0.41713017266E-01  0.51100000000E-03 0.  1.
         11    1    4    4    0    0  0.78423147642E-01  0.46978380700E-01 -0.65275186093E-03  0.91421253247E-01  0.51100000000E-03 0. -1.
</event>
<event>
 8    1  0.1122848E+005  0.1043930E+01  0.7957747E-01            NaN
         13   -1    0    0    0    0  0.00000000000E+00  0.00000000000E+00  0.74505805969E-08  0.10566000000E+00  0.10566000000E+00 0. -1.
     999900   -1    0    0    0    0 -0.00000000000E+00 -0.00000000000E+00 -0.74505805969E-08  0.93827000000E+00  0.93827000000E+00 0.  1.
     999902    2    1    2    0    0 -0.11550796318E-01  0.19705779876E-01 -0.66863222789E-02  0.10201298832E+01  0.10198522113E+01 0.  0.
     999903    2    3    3    0    0 -0.10855099787E+00  0.66876357899E-01  0.31232012625E-01  0.13273374689E+00  0.19673397434E-01 0.  0.
         14    1    1    2    0    0  0.11550796318E-01 -0.19705779876E-01  0.66863222789E-02  0.23800116843E-01  0.00000000000E+00 0. -1.
     999901    1    3    3    0    0  0.97000201556E-01 -0.47170578023E-01 -0.37918334904E-01  0.88739613626E+00  0.88000000000E+00 0.  1.
        -11    1    4    4    0    0 -0.23869794698E-01  0.22538191010E-01  0.25324068973E-02  0.32930401738E-01  0.51100000000E-03 0. -1.
         11    1    4    4    0    0 -0.84681203176E-01  0.44338166889E-01  0.28699605728E-01  0.99803345156E-01  0.51100000000E-03 0.  1.
</event>
<event>
 8    1  0.1122848E+005  0.1043930E+01  0.7957747E-01            NaN
         13   -1    0    0    0    0  0.00000000000E+00  0.00000000000E+00  0.74505805969E-08  0.10566000000E+00  0.10566000000E+00 0. -1.
     999900   -1    0    0    0    0 -0.00000000000E+00 -0.00000000000E+00 -0.74505805969E-08  0.93827000000E+00  0.93827000000E+00 0.  1.
     999902    2    1    2    0    0 -0.60296934253E-02 -0.13890606240E-01  0.18185911849E-01  0.10202649723E+01  0.10199904805E+01 0.  0.
     999903    2    3    3    0    0 -0.11324058516E+00 -0.21484920754E-01  0.62118693510E-01  0.13263783315E+00  0.21190345728E-01 0.  0.
         14    1    1    2    0    0  0.60296934253E-02  0.13890606240E-01 -0.18185911849E-01  0.23665027663E-01  0.00000000000E+00 0.  1.
     999901    1    3    3    0    0  0.10721089173E+00  0.75943145141E-02 -0.43932781662E-01  0.88762713919E+00  0.88000000000E+00 0.  1.
        -11    1    4    4    0    0 -0.94191951948E-01 -0.96320815233E-02  0.48431958115E-01  0.10635232247E+00  0.51100000000E-03 0. -1.
         11    1    4    4    0    0 -0.19048633211E-01 -0.11852839231E-01  0.13686735396E-01  0.26285510682E-01  0.51100000000E-03 0.  1.
</event>
<event>
 8    1  0.1122848E+005  0.1043930E+01  0.7957747E-01            NaN
         13   -1    0    0    0    0  0.00000000000E+00  0.00000000000E+00  0.74505805969E-08  0.10566000000E+00  0.10566000000E+00 0. -1.
     999900   -1    0    0    0    0 -0.00000000000E+00 -0.00000000000E+00 -0.74505805969E-08  0.93827000000E+00  0.93827000000E+00 0.  1.
     999902    2    1    2    0    0 -0.10571435634E-01 -0.20900891323E-01 -0.15612550419E-02  0.10204557582E+01  0.10201857255E+01 0.  0.
     999903    2    3    3    0    0  0.51129880105E-01  0.66247153318E-01 -0.96014409253E-01  0.12898325030E+00  0.20370618839E-01 0.  0.
         14    1    1    2    0    0  0.10571435634E-01  0.20900891323E-01  0.15612550419E-02  0.23474241772E-01  0.00000000000E+00 0. -1.
     999901    1    3    3    0    0 -0.61701315739E-01 -0.87148044641E-01  0.94453154211E-01  0.89147250793E+00  0.88000000000E+00 0. -1.
        -11    1    4    4    0    0  0.34970137366E-01  0.29022490795E-01 -0.53748405049E-01  0.70387269060E-01  0.51100000000E-03 0. -1.
         11    1    4    4    0    0  0.16159742739E-01  0.37224662523E-01 -0.42266004203E-01  0.58595981242E-01  0.51100000000E-03 0.  1.
</event>
<event>
 8    1  0.1122848E+005  0.1043930E+01  0.7957747E-01            NaN
         13   -1    0    0    0    0  0.00000000000E+00  0.00000000000E+00  0.74505805969E-08  0.10566000000E+00  0.10566000000E+00 0.  1.
     999900   -1    0    0    0    0 -0.00000000000E+00 -0.00000000000E+00 -0.74505805969E-08  0.93827000000E+00  0.93827000000E+00 0.  1.
     999902    2    1    2    0    0  0.15526572254E-01  0.33182237653E-02  0.14701881095E-01  0.10222913687E+01  0.10220623329E+01 0.  0.
     999903    2    3    3    0    0 -0.67708109933E-01 -0.83961406161E-01 -0.69902601796E-01  0.13004495399E+00  0.19784095750E-01 0.  0.
         14    1    1    2    0    0 -0.15526572254E-01 -0.33182237653E-02 -0.14701881095E-01  0.21638631256E-01  0.00000000000E+00 0. -1.
     999901    1    3    3    0    0  0.83234682187E-01  0.87279629927E-01  0.84604482891E-01  0.89224641476E+00  0.88000000000E+00 0.  1.
        -11    1    4    4    0    0 -0.32009158713E-01 -0.44578887681E-01 -0.46628031155E-01  0.72015955724E-01  0.51100000000E-03 0. -1.
         11    1    4    4    0    0 -0.35698951220E-01 -0.39382518480E-01 -0.23274570641E-01  0.58028998264E-01  0.51100000000E-03 0.  1.
</event>
<event>
 8    1  0.1122848E+005  0.1043930E+01  0.7957747E-01            NaN
         13   -1    0    0    0    0  0.00000000000E+00  0.00000000000E+00  0.74505805969E-08  0.10566000000E+00  0.10566000000E+00 0.  1.
     999900   -1    0    0    0    0 -0.00000000000E+00 -0.00000000000E+00 -0.74505805969E-08  0.93827000000E+00  0.93827000000E+00 0. -1.
     999902    2    1    2    0    0 -0.15903882679E-01  0.54664983075E-02  0.16064267331E-01  0.10206732424E+01  0.10204082472E+01 0.  0.
     999903    2    3    3    0    0 -0.79327764919E-01  0.92176566595E-01  0.51234545076E-01  0.13344262234E+00  0.19812650796E-01 0.  0.
         14    1    1    2    0    0  0.15903882679E-01 -0.54664983075E-02 -0.16064267331E-01  0.23256757575E-01  0.00000000000E+00 0. -1.
     999901    1    3    3    0    0  0.63423882240E-01 -0.86710068287E-01 -0.35170277745E-01  0.88723062009E+00  0.88000000000E+00 0. -1.
        -11    1    4    4    0    0 -0.29497628389E-01  0.46403815930E-01  0.29329857560E-01  0.62321151137E-01  0.51100000000E-03 0.  1.
         11    1    4    4    0    0 -0.49830136529E-01  0.45772750665E-01  0.21904687516E-01  0.71121471203E-01  0.51100000000E-03 0. -1.
</event>
<event>
 8    1  0.1122848E+005  0.1043930E+01  0.7957747E-01            NaN
         13   -1    0    0    0    0  0.00000000000E+00  0.00000000000E+00  0.74505805969E-08  0.10566000000E+00  0.10566000000E+00 0.  1.
     999900   -1    0    0    0    0 -0.00000000000E+00 -0.00000000000E+00 -0.74505805969E-08  0.93827000000E+00  0.93827000000E+00 0. -1.
     999902    2    1    2    0    0  0.18050938508E-01 -0.55833710414E-02 -0.17532548347E-01  0.10181540293E+01  0.10178276999E+01 0.  0.
     999903    2    3    3    0    0 -0.11370812167E+00 -0.81615308393E-03  0.49908671605E-01  0.12577995167E+00  0.19987938898E-01 0.  0.
         14    1    1    2    0    0 -0.18050938508E-01  0.55833710414E-02  0.17532548347E-01  0.25775970685E-01  0.00000000000E+00 0.  1.
     999901    1    3    3    0    0  0.13175906018E+00 -0.47672179574E-02 -0.67441219952E-01  0.89237407765E+00  0.88000000000E+00 0. -1.
        -11    1    4    4    0    0 -0.31650281052E-01  0.67573331201E-02  0.80662317322E-02  0.33357563714E-01  0.51100000000E-03 0.  1.
         11    1    4    4    0    0 -0.82057840617E-01 -0.75734862041E-02  0.41842439873E-01  0.92422387956E-01  0.51100000000E-03 0. -1.
</event>
<event>
 8    1  0.1122848E+005  0.1043930E+01  0.7957747E-01            NaN
         13   -1    0    0    0    0  0.00000000000E+00  0.00000000000E+00  0.74505805969E-08  0.10566000000E+00  0.10566000000E+00 0.  1.
     999900   -1    0    0    0    0 -0.00000000000E+00 -0.00000000000E+00 -0.74505805969E-08  0.93827000000E+00  0.93827000000E+00 0. -1.
     999902    2    1    2    0    0  0.14698849410E-02 -0.13342243959E-01 -0.17992500428E-01  0.10214821469E+01  0.10212354628E+01 0.  0.
     999903    2    3    3    0    0 -0.10758937491E+00  0.57450172852E-01 -0.44763728929E-01  0.13152586311E+00  0.20475968478E-01 0.  0.
         14    1    1    2    0    0 -0.14698849410E-02  0.13342243959E-01  0.17992500428E-01  0.22447853065E-01  0.00000000000E+00 0.  1.
     999901    1    3    3    0    0  0.10905925985E+00 -0.70792416811E-01  0.26771228502E-01  0.88995628382E+00  0.88000000000E+00 0.  1.
        -11    1    4    4    0    0 -0.40461223369E-01  0.22226442285E-01 -0.27631298622E-01  0.53804043692E-01  0.51100000000E-03 0.  1.
         11    1    4    4    0    0 -0.67128151545E-01  0.35223730567E-01 -0.17132430308E-01  0.77721819421E-01  0.51100000000E-03 0. -1.
</event>
<event>
 7    1  0.1122848E+005  0.1043930E+01  0.7957747E-01            NaN
         13   -1    0    0    0    0  0.00000000000E+00  0.00000000000E+00  0.74505805969E-08  0.10566000000E+00  0.10566000000E+00 0. -1.
     999900   -1    0    0    0    0 -0.00000000000E+00 -0.00000000000E+00 -0.74505805969E-08  0.93827000000E+00  0.93827000000E+00 0. -1.
     999903    2    1    2    0    0 -0.23551032549E-01 -0.55285559758E-02 -0.81760408930E-01  0.87493056207E-01  0.19622801805E-01 0.  0.
         14    1    1    2    0    0  0.13956806462E-01  0.43378644873E-01 -0.47861584148E-01  0.66085024891E-01  0.00000000000E+00 0.  1.
     999901    1    1    2    0    0  0.95942260870E-02 -0.37850088897E-01  0.12962199308E+00  0.89035191890E+00  0.88000000000E+00 0.  1.
        -11    1    3    3    0    0 -0.22553633788E-01 -0.11227071630E-01 -0.62937967909E-01  0.67795003208E-01  0.51100000000E-03 0.  1.
         11    1    3    3    0    0 -0.99739876119E-03  0.56985156545E-02 -0.18822441021E-01  0.19698052999E-01  0.51100000000E-03 0. -1.
</event>
<event>
 8    1  0.1122848E+005  0.1043930E+01  0.7957747E-01            NaN
         13   -1    0    0    0    0  0.00000000000E+00  0.00000000000E+00  0.74505805969E-08  0.10566000000E+00  0.10566000000E+00 0. -1.
     999900   -1    0    0    0    0 -0.00000000000E+00 -0.00000000000E+00 -0.74505805969E-08  0.93827000000E+00  0.93827000000E+00 0.  1.
     999902    2    1    2    0    0 -0.20891896809E-01 -0.60678719767E-02 -0.80666555617E-02  0.10207273847E+01  0.10204636361E+01 0.  0.
     999903    2    3    3    0    0  0.31609834366E-01  0.76089497555E-01 -0.99381215862E-01  0.13064614460E+00  0.20074754422E-01 0.  0.
         14    1    1    2    0    0  0.20891896809E-01  0.60678719767E-02  0.80666555617E-02  0.23202615253E-01  0.00000000000E+00 0. -1.
     999901    1    3    3    0    0 -0.52501731175E-01 -0.82157369531E-01  0.91314560300E-01  0.89008124015E+00  0.88000000000E+00 0. -1.
        -11    1    4    4    0    0  0.21234337404E-01  0.69074117790E-01 -0.85093771122E-01  0.11163933822E+00  0.51100000000E-03 0.  1.
         11    1    4    4    0    0  0.10375496962E-01  0.70153797644E-02 -0.14287444740E-01  0.19006806377E-01  0.51100000000E-03 0. -1.
</event>
<event>
 8    1  0.1122848E+005  0.1043930E+01  0.7957747E-01            NaN
         13   -1    0    0    0    0  0.00000000000E+00  0.00000000000E+00  0.74505805969E-08  0.10566000000E+00  0.10566000000E+00 0.  1.
     999900   -1    0    0    0    0 -0.00000000000E+00 -0.00000000000E+00 -0.74505805969E-08  0.93827000000E+00  0.93827000000E+00 0.  1.
     999902    2    1    2    0    0 -0.11101188211E-01 -0.12627512164E-01  0.15918100494E-01  0.10207766770E+01  0.10205140606E+01 0.  0.
     999903    2    3    3    0    0 -0.52828946858E-01 -0.19782291094E-01  0.11928284843E+00  0.13371598695E+00  0.21664038580E-01 0.  0.
         14    1    1    2    0    0  0.11101188211E-01  0.12627512164E-01 -0.15918100494E-01  0.23153323012E-01  0.00000000000E+00 0. -1.
     999901    1    3    3    0    0  0.41727758648E-01  0.71547789299E-02 -0.10336474794E+00  0.88706069004E+00  0.88000000000E+00 0.  1.
        -11    1    4    4    0    0 -0.30670490298E-01 -0.14381030270E-03  0.65237277003E-01  0.72089271659E-01  0.51100000000E-03 0. -1.
         11    1    4    4    0    0 -0.22158456560E-01 -0.19638480791E-01  0.54045571429E-01  0.61626715286E-01  0.51100000000E-03 0.  1.
</event>
<event>
 8    1  0.1122848E+005  0.1043930E+01  0.7957747E-01            NaN
         13   -1    0    0    0    0  0.00000000000E+00  0.00000000000E+00  0.74505805969E-08  0.10566000000E+00  0.10566000000E+00 0. -1.
     999900   -1    0    0    0    0 -0.00000000000E+00 -0.00000000000E+00 -0.74505805969E-08  0.93827000000E+00  0.93827000000E+00 0.  1.
     999902    2    1    2    0    0  0.19717582245E-02 -0.18531376234E-01  0.12678174870E-01  0.10213903493E+01  0.10211416208E+01 0.  0.
     999903    2    3    3    0    0 -0.10081715329E+00  0.49698717265E-01 -0.61402074888E-01  0.12970162032E+00  0.20450785225E-01 0.  0.
         14    1    1    2    0    0 -0.19717582245E-02  0.18531376234E-01 -0.12678174870E-01  0.22539650700E-01  0.00000000000E+00 0. -1.
     999901    1    3    3    0    0  0.10278891152E+00 -0.68230093499E-01  0.74080249758E-01  0.89168872898E+00  0.88000000000E+00 0. -1.
        -11    1    4    4    0    0 -0.90328847578E-01  0.37516047839E-01 -0.56149582297E-01  0.11278205204E+00  0.51100000000E-03 0. -1.
         11    1    4    4    0    0 -0.10488305717E-01  0.12182669426E-01 -0.52524925911E-02  0.16919568274E-01  0.51100000000E-03 0.  1.
</event>
<event>
 8    1  0.1122848E+005  0.1043930E+01  0.7957747E-01            NaN
         13   -1    0    0    0    0  0.00000000000E+00  0.00000000000E+00  0.74505805969E-08  0.10566000000E+00  0.10566000000E+00 0. -1.
     999900   -1    0    0    0    0 -0.00000000000E+00 -0.00000000000E+00 -0.74505805969E-08  0.93827000000E+00  0.93827000000E+00 0. -1.
     999902    2    1    2    0    0  0.75913488972E-02  0.22008019659E-01 -0.63825004696E-02  0.10197904511E+01  0.10195047064E+01 0.  0.
     999903    2    3    3    0    0 -0.38695966101E-01  0.11596146840E+00  0.45766652879E-01  0.13204651268E+00  0.19931258064E-01 0.  0.
         14    1    1    2    0    0 -0.75913488972E-02 -0.22008019659E-01  0.63825004696E-02  0.24139548870E-01  0.00000000000E+00 0. -1.
     999901    1    3    3    0    0  0.46287314998E-01 -0.93953448745E-01 -0.52149153349E-01  0.88774393845E+00  0.88000000000E+00 0. -1.
        -11    1    4    4    0    0 -0.29416705179E-01  0.82935081539E-01  0.42072000201E-01  0.97539144016E-01  0.51100000000E-03 0. -1.
         11    1    4    4    0    0 -0.92792609223E-02  0.33026386866E-01  0.36946526779E-02  0.34507368663E-01  0.51100000000E-03 0.  1.
</event>
<event>
 8    1  0.1122848E+005  0.1043930E+01  0.7957747E-01            NaN
         13   -1    0    0    0    0  0.00000000000E+00  0.00000000000E+00  0.74505805969E-08  0.10566000000E+00  0.10566000000E+00 0. -1.
     999900   -1    0    0    0    0 -0.00000000000E+00 -0.00000000000E+00 -0.74505805969E-08  0.93827000000E+00  0.93827000000E+00 0.  1.
     999902    2    1    2    0    0 -0.73686463701E-02 -0.22457563669E-01 -0.34725564268E-02  0.10200407187E+01  0.10197609376E+01 0.  0.
     999903    2    3    3    0    0 -0.16388973373E-01  0.12177695005E+00  0.28796286655E-01  0.12766958539E+00  0.19289191167E-01 0.  0.
         14    1    1    2    0    0  0.73686463701E-02  0.22457563669E-01  0.34725564268E-02  0.23889281350E-01  0.00000000000E+00 0. -1.
     999901    1    3    3    0    0  0.90203270026E-02 -0.14423451372E+00 -0.32268843081E-01  0.89237113326E+00  0.88000000000E+00 0.  1.
        -11    1    4    4    0    0 -0.11223896025E-01  0.85588284949E-01  0.11036794866E-01  0.87025297037E-01  0.51100000000E-03 0. -1.
         11    1    4    4    0    0 -0.51650773481E-02  0.36188665103E-01  0.17759491789E-01  0.40644288351E-01  0.51100000000E-03 0.  1.
</event>
<event>
 8    1  0.1122848E+005  0.1043930E+01  0.7957747E-01            NaN
         13   -1    0    0    0    0  0.00000000000E+00  0.00000000000E+00  0.74505805969E-08  0.10566000000E+00  0.10566000000E+00 0.  1.
     999900   -1    0    0    0    0 -0.00000000000E+00 -0.00000000000E+00 -0.74505805969E-08  0.93827000000E+00  0.93827000000E+00 0.  1.
     999902    2    1    2    0    0  0.37048720552E-02  0.19351157493E-01  0.12704856893E-01  0.10204863066E+01  0.10202169843E+01 0.  0.
     999903    2    3    3    0    0  0.81271265085E-01  0.45003849734E-01 -0.89752995512E-01  0.13078286301E+00  0.20449744133E-01 0.  0.
         14    1    1    2    0    0 -0.37048720552E-02 -0.19351157493E-01 -0.12704856893E-01  0.23443693436E-01  0.00000000000E+00 0. -1.
     999901    1    3    3    0    0 -0.77566393030E-01 -0.25652692241E-01  0.10245785240E+00  0.88970344355E+00  0.88000000000E+00 0. -1.
        -11    1    4    4    0    0  0.34824621547E-01  0.21192827038E-01 -0.25859841356E-01  0.48279216022E-01  0.51100000000E-03 0. -1.
         11    1    4    4    0    0  0.46446643538E-01  0.23811022695E-01 -0.63893154156E-01  0.82503646990E-01  0.51100000000E-03 0.  1.
</event>
<event>
 8    1  0.1122848E+005  0.1043930E+01  0.7957747E-01            NaN
         13   -1    0    0    0    0  0.00000000000E+00  0.00000000000E+00  0.74505805969E-08  0.10566000000E+00  0.10566000000E+00 0.  1.
     999900   -1    0    0    0    0 -0.00000000000E+00 -0.00000000000E+00 -0.74505805969E-08  0.93827000000E+00  0.93827000000E+00 0.  1.
     999902    2    1    2    0    0  0.13408713259E-01  0.17896027218E-01 -0.49655304205E-02  0.10210232789E+01  0.10207662896E+01 0.  0.
     999903    2    3    3    0    0 -0.44560310308E-01  0.12334407816E+00  0.34365003780E-02  0.13279453958E+00  0.20571760657E-01 0.  0.
         14    1    1    2    0    0 -0.13408713259E-01 -0.17896027218E-01  0.49655304205E-02  0.22906721149E-01  0.00000000000E+00 0. -1.
     999901    1    3    3    0    0  0.57969023567E-01 -0.10544805094E+00 -0.84020307985E-02  0.88822873927E+00  0.88000000000E+00 0. -1.
        -11    1    4    4    0    0 -0.28486670896E-01  0.49295938578E-01 -0.10960151934E-03  0.56937273491E-01  0.51100000000E-03 0. -1.
         11    1    4    4    0    0 -0.16073639412E-01  0.74048139581E-01  0.35461018973E-02  0.75857266092E-01  0.51100000000E-03 0.  1.
</event>
<event>
 8    1  0.1122848E+005  0.1043930E+01  0.7957747E-01            NaN
         13   -1    0    0    0    0  0.00000000000E+00  0.00000000000E+00  0.74505805969E-08  0.10566000000E+00  0.10566000000E+00 0. -1.
     999900   -1    0    0    0    0 -0.00000000000E+00 -0.00000000000E+00 -0.74505805969E-08  0.93827000000E+00  0.93827000000E+00 0.  1.
     999902    2    1    2    0    0 -0.19286794548E-01  0.82455159726E-02 -0.12138837233E-01  0.10196953070E+01  0.10194072781E+01 0.  0.
     999903    2    3    3    0    0  0.10870372263E+00  0.35721196108E-01  0.53440240407E-01  0.12759828257E+00  0.18247171206E-01 0.  0.
         14    1    1    2    0    0  0.19286794548E-01 -0.82455159726E-02  0.12138837233E-01  0.24234693045E-01  0.00000000000E+00 0. -1.
     999901    1    3    3    0    0 -0.12799051717E+00 -0.27475680136E-01 -0.65579077641E-01  0.89209702438E+00  0.88000000000E+00 0.  1.
        -11    1    4    4    0    0  0.77667216762E-01  0.25522411500E-01  0.46981783510E-01  0.94292837220E-01  0.51100000000E-03 0.  1.
         11    1    4    4    0    0  0.31036505864E-01  0.10198784608E-01  0.64584568977E-02  0.33305445354E-01  0.51100000000E-03 0. -1.
</event>
<event>
 8    1  0.1122848E+005  0.1043930E+01  0.7957747E-01            NaN
         13   -1    0    0    0    0  0.00000000000E+00  0.00000000000E+00  0.74505805969E-08  0.10566000000E+00  0.10566000000E+00 0.  1.
     999900   -1    0    0    0    0 -0.00000000000E+00 -0.00000000000E+00 -0.74505805969E-08  0.93827000000E+00  0.93827000000E+00 0.  1.
     999902    2    1    2    0    0 -0.64626917378E-03  0.20988435331E-01  0.97022816530E-02  0.10207984987E+01  0.10205363828E+01 0.  0.
     999903    2    3    3    0    0  0.68414038333E-01 -0.56643258941E-01 -0.91426438457E-01  0.12893358516E+00  0.19394233936E-01 0.  0.
         14    1    1    2    0    0  0.64626917378E-03 -0.20988435331E-01 -0.97022816530E-02  0.23131501265E-01  0.00000000000E+00 0.  1.
     999901    1    3    3    0    0 -0.69060307507E-01  0.77631694272E-01  0.10112872011E+00  0.89186491357E+00  0.88000000000E+00 0.  1.
        -11    1    4    4    0    0  0.19321289455E-01 -0.17986550940E-01 -0.15560953784E-01  0.30646902691E-01  0.51100000000E-03 0. -1.
         11    1    4    4    0    0  0.49092748878E-01 -0.38656708001E-01 -0.75865484673E-01  0.98286682473E-01  0.51100000000E-03 0.  1.
</event>
<event>
 8    1  0.1122848E+005  0.1043930E+01  0.7957747E-01            NaN
         13   -1    0    0    0    0  0.00000000000E+00  0.00000000000E+00  0.74505805969E-08  0.10566000000E+00  0.10566000000E+00 0.  1.
     999900   -1    0    0    0    0 -0.00000000000E+00 -0.00000000000E+00 -0.74505805969E-08  0.93827000000E+00  0.93827000000E+00 0.  1.
     999902    2    1    2    0    0 -0.13592033761E-01 -0.78557439882E-02 -0.17555957179E-01  0.10203786152E+01  0.10201067839E+01 0.  0.
     999903    2    3    3    0    0  0.60163638611E-01 -0.55747482424E-01 -0.10151961158E+00  0.13201865823E+00  0.19880879724E-01 0.  0.
         14    1    1    2    0    0  0.13592033761E-01  0.78557439882E-02  0.17555957179E-01  0.23551384839E-01  0.00000000000E+00 0.  1.
     999901    1    3    3    0    0 -0.73755672372E-01  0.47891738436E-01  0.83963654398E-01  0.88835995693E+00  0.88000000000E+00 0. -1.
        -11    1    4    4    0    0  0.49328861661E-01 -0.39480906299E-01 -0.65336437711E-01  0.90891087399E-01  0.51100000000E-03 0. -1.
         11    1    4    4    0    0  0.10834776950E-01 -0.16266576126E-01 -0.36183173867E-01  0.41127570831E-01  0.51100000000E-03 0.  1.
</event>
<event>
 8    1  0.1122848E+005  0.1043930E+01  0.7957747E-01            NaN
         13   -1    0    0    0    0  0.00000000000E+00  0.00000000000E+00  0.74505805969E-08  0.10566000000E+00  0.10566000000E+00 0.  1.
     999900   -1    0    0    0    0 -0.00000000000E+00 -0.00000000000E+00 -0.74505805969E-08  0.93827000000E+00  0.93827000000E+00 0.  1.
     999902    2    1    2    0    0  0.66499054610E-02 -0.23867446901E-01  0.67805565936E-02  0.10182424113E+01  0.10179183445E+01 0.  0.
     999903    2    3    3    0    0 -0.17464653399E-01 -0.86725901120E-01  0.94893362805E-01  0.13128324438E+00  0.20103330718E-01 0.  0.
         14    1    1    2    0    0 -0.66499054610E-02  0.23867446901E-01 -0.67805565936E-02  0.25687588675E-01  0.00000000000E+00 0.  1.
     999901    1    3    3    0    0  0.24114558860E-01  0.62858454219E-01 -0.88112806212E-01  0.88695916695E+00  0.88000000000E+00 0.  1.
        -11    1    4    4    0    0 -0.20724205796E-01 -0.61885578329E-01  0.73890596093E-01  0.98587011431E-01  0.51100000000E-03 0. -1.
         11    1    4    4    0    0  0.32595523968E-02 -0.24840322792E-01  0.21002766712E-01  0.32696232945E-01  0.51100000000E-03 0.  1.
</event>
<event>
 8    1  0.1122848E+005  0.1043930E+01  0.7957747E-01            NaN
         13   -1    0    0    0    0  0.00000000000E+00  0.00000000000E+00  0.74505805969E-08  0.10566000000E+00  0.10566000000E+00 0. -1.
     999900   -1    0    0    0    0 -0.00000000000E+00 -0.00000000000E+00 -0.74505805969E-08  0.93827000000E+00  0.93827000000E+00 0.  1.
     999902    2    1    2    0    0 -0.41519024721E-02  0.22395444280E-01 -0.92114022136E-02  0.10193608293E+01  0.10190646967E+01 0.  0.
     999903    2    3    3    0    0 -0.32112853782E-01 -0.11960715811E+00  0.20066502835E-01  0.12705833035E+00  0.20100923520E-01 0.  0.
         14    1    1    2    0    0  0.41519024721E-02 -0.22395444280E-01  0.92114022136E-02  0.24569170710E-01  0.00000000000E+00 0. -1.
     999901    1    3    3    0    0  0.27960951310E-01  0.14200260239E+00 -0.29277905048E-01  0.89230249894E+00  0.88000000000E+00 0. -1.
        -11    1    4    4    0    0 -0.18225885726E-01 -0.37710349442E-01  0.13512470700E-02  0.41908714549E-01  0.51100000000E-03 0. -1.
         11    1    4    4    0    0 -0.13886968056E-01 -0.81896808671E-01  0.18715255765E-01  0.85149615804E-01  0.51100000000E-03 0.  1.
</event>
<event>
 8    1  0.1122848E+005  0.1043930E+01  0.7957747E-01            NaN
         13   -1    0    0    0    0  0.00000000000E+00  0.00000000000E+00  0.74505805969E-08  0.10566000000E+00  0.10566000000E+00 0.  1.
     999900   -1    0    0    0    0 -0.00000000000E+00 -0.00000000000E+00 -0.74505805969E-08  0.93827000000E+00  0.93827000000E+00 0. -1.
     999902    2    1    2    0    0 -0.83119161240E-02 -0.13753941575E-01  0.18352342751E-01  0.10195359978E+01  0.10192441236E+01 0.  0.
     999903    2    3    3    0    0 -0.11814214292E+00 -0.55005969341E-02 -0.50233827182E-01  0.13002216480E+00  0.19862110777E-01 0.  0.
         14    1    1    2    0    0  0.83119161240E-02  0.13753941575E-01 -0.18352342751E-01  0.24394002192E-01  0.00000000000E+00 0. -1.
     999901    1    3    3    0    0  0.10983022680E+00 -0.82533446406E-02  0.68586169933E-01  0.88951383301E+00  0.88000000000E+00 0.  1.
        -11    1    4    4    0    0 -0.78564936748E-01 -0.29481852836E-02 -0.43303458228E-01  0.89758518806E-01  0.51100000000E-03 0. -1.
         11    1    4    4    0    0 -0.39577206171E-01 -0.25524116506E-02 -0.69303689546E-02  0.40263645989E-01  0.51100000000E-03 0.  1.
</event>
<event>
 8    1  0.1122848E+005  0.1043930E+01  0.7957747E-01            NaN
         13   -1    0    0    0    0  0.00000000000E+00  0.00000000000E+00  0.74505805969E-08  0.10566000000E+00  0.10566000000E+00 0. -1.
     999900   -1    0    0    0    0 -0.00000000000E+00 -0.00000000000E+00 -0.74505805969E-08  0.93827000000E+00  0.93827000000E+00 0. -1.
     999902    2    1    2    0    0  0.23799064017E-01 -0.10040299101E-02 -0.55686050094E-02  0.10194675209E+01  0.10191739857E+01 0.  0.
     999903    2    3    3    0    0  0.22881910386E-01  0.19436097012E-01  0.12425025912E+00  0.12970824024E+00  0.22017197941E-01 0.  0.
         14    1    1    2    0    0 -0.23799064017E-01  0.10040299101E-02  0.55686050094E-02  0.24462479145E-01  0.00000000000E+00 0. -1.
     999901    1    3    3    0    0  0.91715363109E-03 -0.20440126922E-01 -0.12981886413E+00  0.88975928062E+00  0.88000000000E+00 0. -1.
        -11    1    4    4    0    0  0.68677288924E-02 -0.45972364356E-02  0.24597304277E-01  0.25953588994E-01  0.51100000000E-03 0. -1.
         11    1    4    4    0    0  0.16014181494E-01  0.24033333447E-01  0.99652954841E-01  0.10375465125E+00  0.51100000000E-03 0.  1.
</event>
<event>
 8    1  0.1122848E+005  0.1043930E+01  0.7957747E-01            NaN
         13   -1    0    0    0    0  0.00000000000E+00  0.00000000000E+00  0.74505805969E-08  0.10566000000E+00  0.10566000000E+00 0.  1.
     999900   -1    0    0    0    0 -0.00000000000E+00 -0.00000000000E+00 -0.74505805969E-08  0.93827000000E+00  0.93827000000E+00 0.  1.
     999902    2    1    2    0    0  0.20094057940E-01 -0.43241172182E-02 -0.11549569525E-01  0.10203532803E+01  0.10200808571E+01 0.  0.
     999903    2    3    3    0    0  0.20727190411E-01 -0.12159339993E+00 -0.43160796342E-01  0.13201114174E+00  0.18695343641E-01 0.  0.
         14    1    1    2    0    0 -0.20094057940E-01  0.43241172182E-02  0.11549569525E-01  0.23576719670E-01  0.00000000000E+00 0. -1.
     999901    1    3    3    0    0 -0.63313247153E-03  0.11726928272E+00  0.31611226817E-01  0.88834213859E+00  0.88000000000E+00 0.  1.
        -11    1    4    4    0    0  0.90416423851E-02 -0.91725788717E-01 -0.37148463448E-01  0.99376260094E-01  0.51100000000E-03 0. -1.
         11    1    4    4    0    0  0.11685548026E-01 -0.29867611217E-01 -0.60123328946E-02  0.32634881650E-01  0.51100000000E-03 0.  1.
</event>
<event>
 8    1  0.1122848E+005  0.1043930E+01  0.7957747E-01            NaN
         13   -1    0    0    0    0  0.00000000000E+00  0.00000000000E+00  0.74505805969E-08  0.10566000000E+00  0.10566000000E+00 0.  1.
     999900   -1    0    0    0    0 -0.00000000000E+00 -0.00000000000E+00 -0.74505805969E-08  0.93827000000E+00  0.93827000000E+00 0. -1.
     999902    2    1    2    0    0 -0.20932717919E-01  0.73514781123E-02  0.85295960077E-02  0.10201607569E+01  0.10198838135E+01 0.  0.
     999903    2    3    3    0    0 -0.17978370688E-01 -0.12435494565E+00  0.26929817710E-01  0.13016419601E+00  0.20739539982E-01 0.  0.
         14    1    1    2    0    0  0.20932717919E-01 -0.73514781123E-02 -0.85295960077E-02  0.23769243109E-01  0.00000000000E+00 0. -1.
     999901    1    3    3    0    0 -0.29543472312E-02  0.13170642377E+00 -0.18400221703E-01  0.88999656089E+00  0.88000000000E+00 0. -1.
        -11    1    4    4    0    0 -0.64909875357E-02 -0.38044896169E-01 -0.13284805728E-02  0.38620888459E-01  0.51100000000E-03 0. -1.
         11    1    4    4    0    0 -0.11487383152E-01 -0.86310049485E-01  0.28258298283E-01  0.91543307547E-01  0.51100000000E-03 0.  1.
</event>
<event>
 8    1  0.1122848E+005  0.1043930E+01  0.7957747E-01            NaN
         13   -1    0    0    0    0  0.00000000000E+00  0.00000000000E+00  0.74505805969E-08  0.10566000000E+00  0.10566000000E+00 0.  1.
     999900   -1    0    0    0    0 -0.00000000000E+00 -0.00000000000E+00 -0.74505805969E-08  0.93827000000E+00  0.93827000000E+00 0. -1.
     999902    2    1    2    0    0  0.65007893664E-02 -0.76285704981E-03  0.22080897633E-01  0.10208994061E+01  0.10206395981E+01 0.  0.
     999903    2    3    3    0    0  0.93679984348E-01  0.73581777607E-01 -0.49521321794E-01  0.13058810408E+00  0.20265096910E-01 0.  0.
         14    1    1    2    0    0 -0.65007893664E-02  0.76285704981E-03 -0.22080897633E-01  0.23030593860E-01  0.00000000000E+00 0. -1.
     999901    1    3    3    0    0 -0.87179194982E-01 -0.74344634657E-01  0.71602219428E-01  0.89031130206E+00  0.88000000000E+00 0.  1.
        -11    1    4    4    0    0  0.12881591299E-01  0.20121077765E-01 -0.82772531269E-02  0.25289665975E-01  0.51100000000E-03 0.  1.
         11    1    4    4    0    0  0.80798393050E-01  0.53460699842E-01 -0.41244068667E-01  0.10529843811E+00  0.51100000000E-03 0. -1.
</event>
<event>
 8    1  0.1122848E+005  0.1043930E+01  0.7957747E-01            NaN
         13   -1    0    0    0    0  0.00000000000E+00  0.00000000000E+00  0.74505805969E-08  0.10566000000E+00  0.10566000000E+00 0. -1.
     999900   -1    0    0    0    0 -0.00000000000E+00 -0.00000000000E+00 -0.74505805969E-08  0.93827000000E+00  0.93827000000E+00 0. -1.
     999902    2    1    2    0    0 -0.19796906096E-01  0.12444133703E-01 -0.68325361694E-02  0.10195690167E+01  0.10192779417E+01 0.  0.
     999903    2    3    3    0    0 -0.98436408954E-01 -0.98531656978E-02 -0.85664645483E-01  0.13227208650E+00  0.19252581606E-01 0.  0.
         14    1    1    2    0    0  0.19796906096E-01 -0.12444133703E-01  0.68325361694E-02  0.24360983254E-01  0.00000000000E+00 0. -1.
     999901    1    3    3    0    0  0.78639502858E-01  0.22297299401E-01  0.78832109313E-01  0.88729693025E+00  0.88000000000E+00 0.  1.
        -11    1    4    4    0    0 -0.80013239320E-01 -0.75471469412E-02 -0.58677006628E-01  0.99510452322E-01  0.51100000000E-03 0.  1.
         11    1    4    4    0    0 -0.18423169634E-01 -0.23060187566E-02 -0.26987638855E-01  0.32761634175E-01  0.51100000000E-03 0. -1.
</event>
<event>
 8    1  0.1122848E+005  0.1043930E+01  0.7957747E-01            NaN
         13   -1    0    0    0    0  0.00000000000E+00  0.00000000000E+00  0.74505805969E-08  0.10566000000E+00  0.10566000000E+00 0.  1.
     999900   -1    0    0    0    0 -0.00000000000E+00 -0.00000000000E+00 -0.74505805969E-08  0.93827000000E+00  0.93827000000E+00 0.  1.
     999902    2    1    2    0    0  0.11818735502E-01  0.18985271595E-01 -0.77238962365E-02  0.10202702954E+01  0.10199959285E+01 0.  0.
     999903    2    3    3    0    0 -0.12598010214E+00 -0.85829724192E-03  0.18145803704E-01  0.12895019119E+00  0.20667820577E-01 0.  0.
         14    1    1    2    0    0 -0.11818735502E-01 -0.18985271595E-01  0.77238962365E-02  0.23659704552E-01  0.00000000000E+00 0.  1.
     999901    1    3    3    0    0  0.13779883764E+00  0.19843568837E-01 -0.25869699940E-01  0.89132010426E+00  0.88000000000E+00 0.  1.
        -11    1    4    4    0    0 -0.11152995213E+00  0.57916127076E-02  0.17292860710E-01  0.11301228762E+00  0.51100000000E-03 0. -1.
         11    1    4    4    0    0 -0.14450150004E-01 -0.66499099495E-02  0.85294299411E-03  0.15937903570E-01  0.51100000000E-03 0.  1.
</event>
<event>
 8    1  0.1122848E+005  0.1043930E+01  0.7957747E-01            NaN
         13   -1    0    0    0    0  0.00000000000E+00  0.00000000000E+00  0.74505805969E-08  0.10566000000E+00  0.10566000000E+00 0.  1.
     999900   -1    0    0    0    0 -0.00000000000E+00 -0.00000000000E+00 -0.74505805969E-08  0.93827000000E+00  0.93827000000E+00 0.  1.
     999902    2    1    2    0    0 -0.67603928407E-02  0.21975137349E-01 -0.63045835623E-02  0.10200897536E+01  0.10198111336E+01 0.  0.
     999903    2    3    3    0    0  0.34463476122E-01 -0.70528019663E-01 -0.10058816119E+00  0.12927796968E+00  0.20805829198E-01 0.  0.
         14    1    1    2    0    0  0.67603928407E-02 -0.21975137349E-01  0.63045835623E-02  0.23840246365E-01  0.00000000000E+00 0.  1.
     999901    1    3    3    0    0 -0.41223868962E-01  0.92503157012E-01  0.94283577625E-01  0.89081178396E+00  0.88000000000E+00 0. -1.
        -11    1    4    4    0    0  0.11909314859E-01 -0.39170738648E-01 -0.38799871003E-01  0.56408063763E-01  0.51100000000E-03 0. -1.
         11    1    4    4    0    0  0.22554161263E-01 -0.31357281015E-01 -0.61788290185E-01  0.72869905914E-01  0.51100000000E-03 0.  1.
</event>
<event>
 8    1  0.1122848E+005  0.1043930E+01  0.7957747E-01            NaN
         13   -1    0    0    0    0  0.00000000000E+00  0.00000000000E+00  0.74505805969E-08  0.10566000000E+00  0.10566000000E+00 0.  1.
     999900   -1    0    0    0    0 -0.00000000000E+00 -0.00000000000E+00 -0.74505805969E-08  0.93827000000E+00  0.93827000000E+00 0. -1.
     999902    2    1    2    0    0  0.38230474271E-02 -0.20607782528E-01  0.10678520124E-01  0.10204070923E+01  0.10201359257E+01 0.  0.
     999903    2    3    3    0    0  0.44429064258E-01 -0.11494001518E+00  0.47208714190E-01  0.13368172686E+00  0.21377384335E-01 0.  0.
         14    1    1    2    0    0 -0.38230474271E-02  0.20607782528E-01 -0.10678520124E-01  0.23522907652E-01  0.00000000000E+00 0. -1.
     999901    1    3    3    0    0 -0.40606016830E-01  0.94332232650E-01 -0.36530194066E-01  0.88672536549E+00  0.88000000000E+00 0.  1.
        -11    1    4    4    0    0  0.37542695447E-01 -0.77103909026E-01  0.39662891222E-01  0.94487421542E-01  0.51100000000E-03 0.  1.
         11    1    4    4    0    0  0.68863688103E-02 -0.37836106152E-01  0.75458229675E-02  0.39194305319E-01  0.51100000000E-03 0. -1.
</event>
<event>
 8    1  0.1122848E+005  0.1043930E+01  0.7957747E-01            NaN
         13   -1    0    0    0    0  0.00000000000E+00  0.00000000000E+00  0.74505805969E-08  0.10566000000E+00  0.10566000000E+00 0.  1.
     999900   -1    0    0    0    0 -0.00000000000E+00 -0.00000000000E+00 -0.74505805969E-08  0.93827000000E+00  0.93827000000E+00 0. -1.
     999902    2    1    2    0    0 -0.10254839535E-01  0.18720763867E-01 -0.13953603027E-01  0.10184283967E+01  0.10181090646E+01 0.  0.
     999903    2    3    3    0    0 -0.18326317993E-01 -0.89394081044E-01 -0.88508364597E-01  0.12864618687E+00  0.19721945513E-01 0.  0.
         14    1    1    2    0    0  0.10254839535E-01 -0.18720763867E-01  0.13953603027E-01  0.25501603304E-01  0.00000000000E+00 0. -1.
     999901    1    3    3    0    0  0.80714784580E-02  0.10811484491E+00  0.74554761570E-01  0.88978220983E+00  0.88000000000E+00 0. -1.
        -11    1    4    4    0    0  0.16613083887E-02 -0.23455447705E-01 -0.30901614899E-01  0.38834120268E-01  0.51100000000E-03 0.  1.
         11    1    4    4    0    0 -0.19987626382E-01 -0.65938633340E-01 -0.57606749698E-01  0.89812066599E-01  0.51100000000E-03 0. -1.
</event>
<event>
 8    1  0.1122848E+005  0.1043930E+01  0.7957747E-01            NaN
         13   -1    0    0    0    0  0.00000000000E+00  0.00000000000E+00  0.74505805969E-08  0.10566000000E+00  0.10566000000E+00 0. -1.
     999900   -1    0    0    0    0 -0.00000000000E+00 -0.00000000000E+00 -0.74505805969E-08  0.93827000000E+00  0.93827000000E+00 0.  1.
     999902    2    1    2    0    0 -0.92815476496E-02  0.14987049065E-01 -0.15945809756E-01  0.10201596905E+01  0.10198827219E+01 0.  0.
     999903    2    3    3    0    0  0.11189708754E+00 -0.12291142899E-01 -0.63740226142E-01  0.13015257386E+00  0.14312430209E-01 0.  0.
         14    1    1    2    0    0  0.92815476496E-02 -0.14987049065E-01  0.15945809756E-01  0.23770309532E-01  0.00000000000E+00 0. -1.
     999901    1    3    3    0    0 -0.12117863519E+00  0.27278191964E-01  0.47794416385E-01  0.89000711661E+00  0.88000000000E+00 0. -1.
        -11    1    4    4    0    0  0.92326869694E-01 -0.97119993775E-02 -0.58467897215E-01  0.10971476621E+00  0.51100000000E-03 0.  1.
         11    1    4    4    0    0  0.19570217848E-01 -0.25791435218E-02 -0.52723289263E-02  0.20437807642E-01  0.51100000000E-03 0. -1.
</event>
<event>
 8    1  0.1122848E+005  0.1043930E+01  0.7957747E-01            NaN
         13   -1    0    0    0    0  0.00000000000E+00  0.00000000000E+00  0.74505805969E-08  0.10566000000E+00  0.10566000000E+00 0. -1.
     999900   -1    0    0    0    0 -0.00000000000E+00 -0.00000000000E+00 -0.74505805969E-08  0.93827000000E+00  0.93827000000E+00 0. -1.
     999902    2    1    2    0    0 -0.18047579803E-01  0.10097841609E-01  0.13463353629E-01  0.10192532208E+01  0.10189544566E+01 0.  0.
     999903    2    3    3    0    0  0.30320887583E-01  0.29796713934E-01  0.12220483202E+00  0.13102337252E+00  0.20637412483E-01 0.  0.
         14    1    1    2    0    0  0.18047579803E-01 -0.10097841609E-01 -0.13463353629E-01  0.24676779224E-01  0.00000000000E+00 0.  1.
     999901    1    3    3    0    0 -0.48368467386E-01 -0.19698872325E-01 -0.10874147839E+00  0.88822984825E+00  0.88000000000E+00 0. -1.
        -11    1    4    4    0    0  0.38425389666E-02  0.12291035881E-01  0.18341014411E-01  0.22416257479E-01  0.51100000000E-03 0.  1.
         11    1    4    4    0    0  0.26478348616E-01  0.17505678053E-01  0.10386381760E+00  0.10860711504E+00  0.51100000000E-03 0. -1.
</event>
<event>
 8    1  0.1122848E+005  0.1043930E+01  0.7957747E-01            NaN
         13   -1    0    0    0    0  0.00000000000E+00  0.00000000000E+00  0.74505805969E-08  0.10566000000E+00  0.10566000000E+00 0. -1.
     999900   -1    0    0    0    0 -0.00000000000E+00 -0.00000000000E+00 -0.74505805969E-08  0.93827000000E+00  0.93827000000E+00 0.  1.
     999902    2    1    2    0    0 -0.15230460632E-01 -0.14698066723E-01  0.61136048374E-02  0.10218987436E+01  0.10216612285E+01 0.  0.
     999903    2    3    3    0    0  0.91115503354E-01  0.57790355984E-01 -0.68687012667E-01  0.12939710890E+00  0.19594537156E-01 0.  0.
         14    1    1    2    0    0  0.15230460632E-01  0.14698066723E-01 -0.61136048374E-02  0.22031256445E-01  0.00000000000E+00 0.  1.
     999901    1    3    3    0    0 -0.10634596399E+00 -0.72488422707E-01  0.74800617504E-01  0.89250163465E+00  0.88000000000E+00 0.  1.
        -11    1    4    4    0    0  0.82052052058E-01  0.45050111128E-01 -0.54732920050E-01  0.10843433689E+00  0.51100000000E-03 0. -1.
         11    1    4    4    0    0  0.90634512958E-02  0.12740244856E-01 -0.13954092616E-01  0.20962772005E-01  0.51100000000E-03 0.  1.
</event>
<event>
 8    1  0.1122848E+005  0.1043930E+01  0.7957747E-01            NaN
         13   -1    0    0    0    0  0.00000000000E+00  0.00000000000E+00  0.74505805969E-08  0.10566000000E+00  0.10566000000E+00 0.  1.
     999900   -1    0    0    0    0 -0.00000000000E+00 -0.00000000000E+00 -0.74505805969E-08  0.93827000000E+00  0.93827000000E+00 0.  1.
     999902    2    1    2    0    0 -0.18103714747E-01  0.14216084510E-01 -0.72303343466E-02  0.10198028518E+01  0.10195174041E+01 0.  0.
     999903    2    3    3    0    0  0.48412921831E-01 -0.11605832300E+00 -0.11328802821E-01  0.12771951395E+00  0.19250639807E-01 0.  0.
         14    1    1    2    0    0  0.18103714747E-01 -0.14216084510E-01  0.72303343466E-02  0.24127148219E-01  0.00000000000E+00 0. -1.
     999901    1    3    3    0    0 -0.66516636578E-01  0.13027440751E+00  0.40984684744E-02  0.89208333783E+00  0.88000000000E+00 0. -1.
        -11    1    4    4    0    0  0.39452020252E-01 -0.72102364624E-01 -0.42498304619E-02  0.82301488846E-01  0.51100000000E-03 0. -1.
         11    1    4    4    0    0  0.89609015790E-02 -0.43955958373E-01 -0.70789723592E-02  0.45418025103E-01  0.51100000000E-03 0.  1.
</event>
<event>
 8    1  0.1122848E+005  0.1043930E+01  0.7957747E-01            NaN
         13   -1    0    0    0    0  0.00000000000E+00  0.00000000000E+00  0.74505805969E-08  0.10566000000E+00  0.10566000000E+00 0. -1.
     999900   -1    0    0    0    0 -0.00000000000E+00 -0.00000000000E+00 -0.74505805969E-08  0.93827000000E+00  0.93827000000E+00 0.  1.
     999902    2    1    2    0    0  0.14991801545E-01  0.15140461685E-02 -0.19732456427E-01  0.10191022678E+01  0.10187997919E+01 0.  0.
     999903    2    3    3    0    0  0.75819716430E-01 -0.60676706792E-01  0.82670311434E-01  0.12890338449E+00  0.18745932744E-01 0.  0.
         14    1    1    2    0    0 -0.14991801545E-01 -0.15140461685E-02  0.19732456427E-01  0.24827732196E-01  0.00000000000E+00 0.  1.
     999901    1    3    3    0    0 -0.60827914886E-01  0.62190752960E-01 -0.10240276786E+00  0.89019888331E+00  0.88000000000E+00 0.  1.
        -11    1    4    4    0    0  0.52979916633E-01 -0.32461637512E-01  0.58087510135E-01  0.85059093759E-01  0.51100000000E-03 0. -1.
         11    1    4    4    0    0  0.22839799797E-01 -0.28215069280E-01  0.24582801299E-01  0.43844290734E-01  0.51100000000E-03 0.  1.
</event>
<event>
 7    1  0.1122848E+005  0.1043930E+01  0.7957747E-01            NaN
         13   -1    0    0    0    0  0.00000000000E+00  0.00000000000E+00  0.74505805969E-08  0.10566000000E+00  0.10566000000E+00 0. -1.
     999900   -1    0    0    0    0 -0.00000000000E+00 -0.00000000000E+00 -0.74505805969E-08  0.93827000000E+00  0.93827000000E+00 0. -1.
     999903    2    1    2    0    0  0.81174241224E-01  0.52145432515E-01 -0.54303315673E-01  0.11252158643E+00  0.20096112764E-01 0.  0.
         14    1    1    2    0    0  0.36468602084E-01 -0.95313164799E-02  0.18116684872E-01  0.41821276912E-01  0.00000000000E+00 0.  1.
     999901    1    1    2    0    0 -0.11764284331E+00 -0.42614116035E-01  0.36186630800E-01  0.88958713666E+00  0.88000000000E+00 0.  1.
        -11    1    3    3    0    0  0.72824935751E-01  0.38206612250E-01 -0.46707440421E-01  0.94578341065E-01  0.51100000000E-03 0.  1.
         11    1    3    3    0    0  0.83493054723E-02  0.13938820264E-01 -0.75958752512E-02  0.17943245360E-01  0.51100000000E-03 0. -1.
</event>
<event>
 8    1  0.1122848E+005  0.1043930E+01  0.7957747E-01            NaN
         13   -1    0    0    0    0  0.00000000000E+00  0.00000000000E+00  0.74505805969E-08  0.10566000000E+00  0.10566000000E+00 0. -1.
     999900   -1    0    0    0    0 -0.00000000000E+00 -0.00000000000E+00 -0.74505805969E-08  0.93827000000E+00  0.93827000000E+00 0. -1.
     999902    2    1    2    0    0  0.17976589770E-01  0.15106346970E-01 -0.11200284032E-02  0.10204222574E+01  0.10201514444E+01 0.  0.
     999903    2    3    3    0    0  0.75477422007E-01  0.32365726739E-01  0.10207808744E+00  0.13236027588E+00  0.18839458508E-01 0.  0.
         14    1    1    2    0    0 -0.17976589770E-01 -0.15106346970E-01  0.11200284032E-02  0.23507742601E-01  0.00000000000E+00 0.  1.
     999901    1    3    3    0    0 -0.57500832237E-01 -0.17259379769E-01 -0.10319811584E+00  0.88806198151E+00  0.88000000000E+00 0. -1.
        -11    1    4    4    0    0  0.50499415981E-01  0.11782160409E-01  0.64521932698E-01  0.82778929918E-01  0.51100000000E-03 0. -1.
         11    1    4    4    0    0  0.24978006027E-01  0.20583566330E-01  0.37556154741E-01  0.49581345967E-01  0.51100000000E-03 0.  1.
</event>
<event>
 8    1  0.1122848E+005  0.1043930E+01  0.7957747E-01            NaN
         13   -1    0    0    0    0  0.00000000000E+00  0.00000000000E+00  0.74505805969E-08  0.10566000000E+00  0.10566000000E+00 0.  1.
     999900   -1    0    0    0    0 -0.00000000000E+00 -0.00000000000E+00 -0.74505805969E-08  0.93827000000E+00  0.93827000000E+00 0.  1.
     999902    2    1    2    0    0  0.69878554965E-02  0.20102828901E-02  0.21056480485E-01  0.10216534039E+01  0.10214105105E+01 0.  0.
     999903    2    3    3    0    0 -0.78412603391E-01 -0.86611769291E-02  0.10570172432E+00  0.13341248181E+00  0.20061989480E-01 0.  0.
         14    1    1    2    0    0 -0.69878554965E-02 -0.20102828901E-02 -0.21056480485E-01  0.22276596063E-01  0.00000000000E+00 0. -1.
     999901    1    3    3    0    0  0.85400458888E-01  0.10671459819E-01 -0.84645243838E-01  0.88824092212E+00  0.88000000000E+00 0.  1.
        -11    1    4    4    0    0 -0.57390813574E-01  0.19515823504E-02  0.80882200258E-01  0.99195290191E-01  0.51100000000E-03 0.  1.
         11    1    4    4    0    0 -0.21021789817E-01 -0.10612759279E-01  0.24819524065E-01  0.34217191621E-01  0.51100000000E-03 0. -1.
</event>
<event>
 8    1  0.1122848E+005  0.1043930E+01  0.7957747E-01            NaN
         13   -1    0    0    0    0  0.00000000000E+00  0.00000000000E+00  0.74505805969E-08  0.10566000000E+00  0.10566000000E+00 0.  1.
     999900   -1    0    0    0    0 -0.00000000000E+00 -0.00000000000E+00 -0.74505805969E-08  0.93827000000E+00  0.93827000000E+00 0. -1.
     999902    2    1    2    0    0 -0.12029026484E-01 -0.18662286693E-01 -0.81318221672E-02  0.10202845997E+01  0.10200105683E+01 0.  0.
     999903    2    3    3    0    0  0.10178780560E+00  0.31093403956E-01  0.69090942695E-01  0.12821215006E+00  0.18364093317E-01 0.  0.
         14    1    1    2    0    0  0.12029026484E-01  0.18662286693E-01  0.81318221672E-02  0.23645400283E-01  0.00000000000E+00 0. -1.
     999901    1    3    3    0    0 -0.11381683208E+00 -0.49755690649E-01 -0.77222764862E-01  0.89207244965E+00  0.88000000000E+00 0. -1.
        -11    1    4    4    0    0  0.68829044871E-01  0.23862329707E-01  0.37274936116E-01  0.81832329677E-01  0.51100000000E-03 0. -1.
         11    1    4    4    0    0  0.32958760728E-01  0.72310742482E-02  0.31816006578E-01  0.46379820387E-01  0.51100000000E-03 0.  1.
</event>
<event>
 8    1  0.1122848E+005  0.1043930E+01  0.7957747E-01            NaN
         13   -1    0    0    0    0  0.00000000000E+00  0.00000000000E+00  0.74505805969E-08  0.10566000000E+00  0.10566000000E+00 0. -1.
     999900   -1    0    0    0    0 -0.00000000000E+00 -0.00000000000E+00 -0.74505805969E-08  0.93827000000E+00  0.93827000000E+00 0.  1.
     999902    2    1    2    0    0 -0.13275950089E-01  0.57250484241E-02 -0.92921846339E-02  0.10267436180E+01  0.10265997689E+01 0.  0.
     999903    2    3    3    0    0 -0.12977071384E-01 -0.32729479478E-01 -0.13135202733E+00  0.13748693672E+00  0.20240540440E-01 0.  0.
         14    1    1    2    0    0  0.13275950089E-01 -0.57250484241E-02  0.92921846339E-02  0.17186381978E-01  0.00000000000E+00 0.  1.
     999901    1    3    3    0    0 -0.29887870492E-03  0.38454527902E-01  0.12205984269E+00  0.88925668130E+00  0.88000000000E+00 0. -1.
        -11    1    4    4    0    0  0.35376805190E-02 -0.18388138019E-01 -0.60992077458E-01  0.63803866943E-01  0.51100000000E-03 0.  1.
         11    1    4    4    0    0 -0.16514751903E-01 -0.14341341458E-01 -0.70359949867E-01  0.73683069775E-01  0.51100000000E-03 0. -1.
</event>
<event>
 8    1  0.1122848E+005  0.1043930E+01  0.7957747E-01            NaN
         13   -1    0    0    0    0  0.00000000000E+00  0.00000000000E+00  0.74505805969E-08  0.10566000000E+00  0.10566000000E+00 0.  1.
     999900   -1    0    0    0    0 -0.00000000000E+00 -0.00000000000E+00 -0.74505805969E-08  0.93827000000E+00  0.93827000000E+00 0.  1.
     999902    2    1    2    0    0  0.41841370616E-02  0.22699580736E-01  0.42783511691E-02  0.10204548587E+01  0.10201848051E+01 0.  0.
     999903    2    3    3    0    0  0.13651302670E-01  0.13101984496E+00 -0.10237431852E-01  0.13364393480E+00  0.20083288048E-01 0.  0.
         14    1    1    2    0    0 -0.41841370616E-02 -0.22699580736E-01 -0.42783511691E-02  0.23475141262E-01  0.00000000000E+00 0. -1.
     999901    1    3    3    0    0 -0.94671656086E-02 -0.10832026422E+00  0.14515783021E-01  0.88681092394E+00  0.88000000000E+00 0.  1.
        -11    1    4    4    0    0  0.79358066192E-02  0.95237352165E-01  0.14078760433E-02  0.95579147883E-01  0.51100000000E-03 0.  1.
         11    1    4    4    0    0  0.57154960510E-02  0.35782492795E-01 -0.11645307895E-01  0.38064786913E-01  0.51100000000E-03 0. -1.
</event>
<event>
 8    1  0.1122848E+005  0.1043930E+01  0.7957747E-01            NaN
         13   -1    0    0    0    0  0.00000000000E+00  0.00000000000E+00  0.74505805969E-08  0.10566000000E+00  0.10566000000E+00 0. -1.
     999900   -1    0    0    0    0 -0.00000000000E+00 -0.00000000000E+00 -0.74505805969E-08  0.93827000000E+00  0.93827000000E+00 0. -1.
     999902    2    1    2    0    0  0.22515883342E-01 -0.63135645615E-02 -0.15007141648E-02  0.10204975814E+01  0.10202285211E+01 0.  0.
     999903    2    3    3    0    0  0.43161440713E-01  0.23315444622E-01 -0.12028439453E+00  0.13178295903E+00  0.22178656474E-01 0.  0.
         14    1    1    2    0    0 -0.22515883342E-01  0.63135645615E-02  0.15007141648E-02  0.23432418636E-01  0.00000000000E+00 0.  1.
     999901    1    3    3    0    0 -0.20645557371E-01 -0.29629009183E-01  0.11878368036E+00  0.88871462233E+00  0.88000000000E+00 0.  1.
        -11    1    4    4    0    0  0.23036505253E-01  0.11288061050E-01 -0.35413856510E-01  0.43732176375E-01  0.51100000000E-03 0. -1.
         11    1    4    4    0    0  0.20124935460E-01  0.12027383572E-01 -0.84870538015E-01  0.88050782658E-01  0.51100000000E-03 0.  1.
</event>
<event>
 8    1  0.1122848E+005  0.1043930E+01  0.7957747E-01            NaN
         13   -1    0    0    0    0  0.00000000000E+00  0.00000000000E+00  0.74505805969E-08  0.10566000000E+00  0.10566000000E+00 0.  1.
     999900   -1    0    0    0    0 -0.00000000000E+00 -0.00000000000E+00 -0.74505805969E-08  0.93827000000E+00  0.93827000000E+00 0.  1.
     999902    2    1    2    0    0 -0.19679554523E-01 -0.42295062493E-02  0.14359789609E-01  0.10192039581E+01  0.10189039852E+01 0.  0.
     999903    2    3    3    0    0  0.97265036099E-01  0.53259258804E-01  0.61633992275E-01  0.12835276650E+00  0.19458873757E-01 0.  0.
         14    1    1    2    0    0  0.19679554523E-01  0.42295062493E-02 -0.14359789609E-01  0.24726041878E-01  0.00000000000E+00 0. -1.
     999901    1    3    3    0    0 -0.11694459062E+00 -0.57488765054E-01 -0.47274202665E-01  0.89085119163E+00  0.88000000000E+00 0. -1.
        -11    1    4    4    0    0  0.22137537804E-01  0.64506925828E-02  0.61015369385E-02  0.23857323589E-01  0.51100000000E-03 0.  1.
         11    1    4    4    0    0  0.75127498295E-01  0.46808566221E-01  0.55532455336E-01  0.10449544291E+00  0.51100000000E-03 0. -1.
</event>
<event>
 8    1  0.1122848E+005  0.1043930E+01  0.7957747E-01            NaN
         13   -1    0    0    0    0  0.00000000000E+00  0.00000000000E+00  0.74505805969E-08  0.10566000000E+00  0.10566000000E+00 0.  1.
     999900   -1    0    0    0    0 -0.00000000000E+00 -0.00000000000E+00 -0.74505805969E-08  0.93827000000E+00  0.93827000000E+00 0. -1.
     999902    2    1    2    0    0 -0.16273373402E-01 -0.11319156679E-01  0.11780307114E-01  0.10208709101E+01  0.10206104514E+01 0.  0.
     999903    2    3    3    0    0 -0.28833042836E-01  0.10968539638E+00 -0.59536039274E-01  0.12964374020E+00  0.20018213301E-01 0.  0.
         14    1    1    2    0    0  0.16273373402E-01  0.11319156679E-01 -0.11780307114E-01  0.23059089867E-01  0.00000000000E+00 0. -1.
     999901    1    3    3    0    0  0.12559669434E-01 -0.12100455306E+00  0.71316346388E-01  0.89122716993E+00  0.88000000000E+00 0.  1.
        -11    1    4    4    0    0 -0.12469246448E-01  0.77503817080E-01 -0.34757565958E-01  0.85852625360E-01  0.51100000000E-03 0.  1.
         11    1    4    4    0    0 -0.16363796388E-01  0.32181579299E-01 -0.24778473316E-01  0.43791114844E-01  0.51100000000E-03 0. -1.
</event>
<event>
 8    1  0.1122848E+005  0.1043930E+01  0.7957747E-01            NaN
         13   -1    0    0    0    0  0.00000000000E+00  0.00000000000E+00  0.74505805969E-08  0.10566000000E+00  0.10566000000E+00 0.  1.
     999900   -1    0    0    0    0 -0.00000000000E+00 -0.00000000000E+00 -0.74505805969E-08  0.93827000000E+00  0.93827000000E+00 0. -1.
     999902    2    1    2    0    0  0.25491313313E-01  0.18159273170E-02 -0.39526877304E-02  0.10180702168E+01  0.10177417344E+01 0.  0.
     999903    2    3    3    0    0 -0.38995845989E-02  0.12629828565E+00 -0.77750783418E-03  0.12881785432E+00  0.25039396058E-01 0.  0.
         14    1    1    2    0    0 -0.25491313313E-01 -0.18159273170E-02  0.39526877304E-02  0.25859783192E-01  0.00000000000E+00 0.  1.
     999901    1    3    3    0    0  0.29390897912E-01 -0.12448235834E+00 -0.31751798962E-02  0.88925236248E+00  0.88000000000E+00 0. -1.
        -11    1    4    4    0    0  0.52244973441E-02  0.87393795913E-01  0.79536143676E-02  0.87911842428E-01  0.51100000000E-03 0.  1.
         11    1    4    4    0    0 -0.91240819430E-02  0.38904489740E-01 -0.87311222018E-02  0.40906011895E-01  0.51100000000E-03 0. -1.
</event>
<event>
 8    1  0.1122848E+005  0.1043930E+01  0.7957747E-01            NaN
         13   -1    0    0    0    0  0.00000000000E+00  0.00000000000E+00  0.74505805969E-08  0.10566000000E+00  0.10566000000E+00 0.  1.
     999900   -1    0    0    0    0 -0.00000000000E+00 -0.00000000000E+00 -0.74505805969E-08  0.93827000000E+00  0.93827000000E+00 0.  1.
     999902    2    1    2    0    0 -0.18442697363E-01  0.59661685752E-02 -0.14176161356E-01  0.10199155917E+01  0.10196328371E+01 0.  0.
     999903    2    3    3    0    0 -0.16659628462E-01  0.12268014816E+00  0.36685302584E-01  0.13075181555E+00  0.20549060113E-01 0.  0.
         14    1    1    2    0    0  0.18442697363E-01 -0.59661685752E-02  0.14176161356E-01  0.24014408264E-01  0.00000000000E+00 0.  1.
     999901    1    3    3    0    0 -0.17830689010E-02 -0.11671397958E+00 -0.50861463940E-01  0.88916377618E+00  0.88000000000E+00 0.  1.
        -11    1    4    4    0    0  0.23053831205E-02  0.35221370617E-01  0.42181149089E-02  0.35551559091E-01  0.51100000000E-03 0.  1.
         11    1    4    4    0    0 -0.18965011583E-01  0.87458777542E-01  0.32467187675E-01  0.95200256460E-01  0.51100000000E-03 0. -1.
</event>
<event>
 8    1  0.1122848E+005  0.1043930E+01  0.7957747E-01            NaN
         13   -1    0    0    0    0  0.00000000000E+00  0.00000000000E+00  0.74505805969E-08  0.10566000000E+00  0.10566000000E+00 0.  1.
     999900   -1    0    0    0    0 -0.00000000000E+00 -0.00000000000E+00 -0.74505805969E-08  0.93827000000E+00  0.93827000000E+00 0.  1.
     999902    2    1    2    0    0  0.12003164526E-01  0.18583741093E-01  0.72659737803E-02  0.10206442583E+01  0.10203785946E+01 0.  0.
     999903    2    3    3    0    0  0.90661632996E-01  0.77578095434E-01 -0.53824138375E-01  0.13306356320E+00  0.23895216907E-01 0.  0.
         14    1    1    2    0    0 -0.12003164526E-01 -0.18583741093E-01 -0.72659737803E-02  0.23285741703E-01  0.00000000000E+00 0.  1.
     999901    1    3    3    0    0 -0.78658468470E-01 -0.58994354340E-01  0.61090112155E-01  0.88758069510E+00  0.88000000000E+00 0. -1.
        -11    1    4    4    0    0 -0.74913892768E-04  0.61581032397E-02 -0.34823304916E-02  0.70933485925E-02  0.51100000000E-03 0.  1.
         11    1    4    4    0    0  0.90736546889E-01  0.71419992194E-01 -0.50341807884E-01  0.12597021461E+00  0.51100000000E-03 0. -1.
</event>
<event>
 7    1  0.1122848E+005  0.1043930E+01  0.7957747E-01            NaN
         13   -1    0    0    0    0  0.00000000000E+00  0.00000000000E+00  0.74505805969E-08  0.10566000000E+00  0.10566000000E+00 0.  1.
     999900   -1    0    0    0    0 -0.00000000000E+00 -0.00000000000E+00 -0.74505805969E-08  0.93827000000E+00  0.93827000000E+00 0.  1.
     999903    2    1    2    0    0  0.27477185199E-01  0.33477804440E-01 -0.91301547366E-01  0.10321372898E+00  0.21008146090E-01 0.  0.
         14    1    1    2    0    0 -0.11619760175E-01  0.50726034987E-01  0.23773162475E-02  0.52094155954E-01  0.00000000000E+00 0. -1.
     999901    1    1    2    0    0 -0.15857425024E-01 -0.84203839427E-01  0.88924231118E-01  0.88862211507E+00  0.88000000000E+00 0. -1.
        -11    1    3    3    0    0  0.12384192758E-02  0.16708447600E-01 -0.27265322128E-01  0.32005699730E-01  0.51100000000E-03 0.  1.
         11    1    3    3    0    0  0.26238765923E-01  0.16769356840E-01 -0.64036225238E-01  0.71208029250E-01  0.51100000000E-03 0. -1.
</event>
<event>
 8    1  0.1122848E+005  0.1043930E+01  0.7957747E-01            NaN
         13   -1    0    0    0    0  0.00000000000E+00  0.00000000000E+00  0.74505805969E-08  0.10566000000E+00  0.10566000000E+00 0.  1.
     999900   -1    0    0    0    0 -0.00000000000E+00 -0.00000000000E+00 -0.74505805969E-08  0.93827000000E+00  0.93827000000E+00 0. -1.
     999902    2    1    2    0    0  0.20899343600E-01  0.84876298127E-02 -0.71944636423E-02  0.10202533717E+01  0.10199786074E+01 0.  0.
     999903    2    3    3    0    0  0.14335125058E-02 -0.12765226108E+00  0.31483637158E-02  0.12951212834E+00  0.21594547369E-01 0.  0.
         14    1    1    2    0    0 -0.20899343600E-01 -0.84876298127E-02  0.71944636423E-02  0.23676628346E-01  0.00000000000E+00 0.  1.
     999901    1    3    3    0    0  0.19465831094E-01  0.13613989089E+00 -0.10342827358E-01  0.89074124332E+00  0.88000000000E+00 0.  1.
        -11    1    4    4    0    0 -0.12426488466E-03 -0.11138726686E+00 -0.44668005251E-02  0.11147803411E+00  0.51100000000E-03 0. -1.
         11    1    4    4    0    0  0.15577773904E-02 -0.16264994211E-01  0.76151642408E-02  0.18034094224E-01  0.51100000000E-03 0.  1.
</event>
<event>
 8    1  0.1122848E+005  0.1043930E+01  0.7957747E-01            NaN
         13   -1    0    0    0    0  0.00000000000E+00  0.00000000000E+00  0.74505805969E-08  0.10566000000E+00  0.10566000000E+00 0.  1.
     999900   -1    0    0    0    0 -0.00000000000E+00 -0.00000000000E+00 -0.74505805969E-08  0.93827000000E+00  0.93827000000E+00 0. -1.
     999902    2    1    2    0    0  0.99206796531E-02 -0.13342232146E-01  0.17467420161E-01  0.10198147391E+01  0.10195295759E+01 0.  0.
     999903    2    3    3    0    0 -0.19033032543E-01 -0.10198029817E+00 -0.76005913341E-01  0.12996515161E+00  0.18756444945E-01 0.  0.
         14    1    1    2    0    0 -0.99206796531E-02  0.13342232146E-01 -0.17467420161E-01  0.24115260946E-01  0.00000000000E+00 0. -1.
     999901    1    3    3    0    0  0.28953712196E-01  0.88638066026E-01  0.93473333502E-01  0.88984958744E+00  0.88000000000E+00 0.  1.
        -11    1    4    4    0    0 -0.22748125876E-01 -0.87241631710E-01 -0.66480897197E-01  0.11202031221E+00  0.51100000000E-03 0.  1.
         11    1    4    4    0    0  0.37150933332E-02 -0.14738666462E-01 -0.95250161435E-02  0.17944839400E-01  0.51100000000E-03 0. -1.
</event>
<event>
 8    1  0.1122848E+005  0.1043930E+01  0.7957747E-01            NaN
         13   -1    0    0    0    0  0.00000000000E+00  0.00000000000E+00  0.74505805969E-08  0.10566000000E+00  0.10566000000E+00 0. -1.
     999900   -1    0    0    0    0 -0.00000000000E+00 -0.00000000000E+00 -0.74505805969E-08  0.93827000000E+00  0.93827000000E+00 0.  1.
     999902    2    1    2    0    0  0.97332379682E-02 -0.10327621583E-01  0.18639241102E-01  0.10205031565E+01  0.10202342257E+01 0.  0.
     999903    2    3    3    0    0 -0.10721577490E+00  0.68924142331E-01 -0.40600646566E-02  0.12894655581E+00  0.19104197133E-01 0.  0.
         14    1    1    2    0    0 -0.97332379682E-02  0.10327621583E-01 -0.18639241102E-01  0.23426843530E-01  0.00000000000E+00 0.  1.
     999901    1    3    3    0    0  0.11694901287E+00 -0.79251763914E-01  0.22699305759E-01  0.89155660066E+00  0.88000000000E+00 0. -1.
        -11    1    4    4    0    0 -0.79996379338E-01  0.46158402036E-01 -0.10234756167E-01  0.92924862876E-01  0.51100000000E-03 0.  1.
         11    1    4    4    0    0 -0.27219395559E-01  0.22765740295E-01  0.61746915106E-02  0.36021692937E-01  0.51100000000E-03 0. -1.
</event>
<event>
 7    1  0.1122848E+005  0.1043930E+01  0.7957747E-01            NaN
         13   -1    0    0    0    0  0.00000000000E+00  0.00000000000E+00  0.74505805969E-08  0.10566000000E+00  0.10566000000E+00 0.  1.
     999900   -1    0    0    0    0 -0.00000000000E+00 -0.00000000000E+00 -0.74505805969E-08  0.93827000000E+00  0.93827000000E+00 0.  1.
     999902    2    1    2    0    0  0.23030343937E-01 -0.21109561345E-03 -0.48670862755E-02  0.10203900376E+01  0.10201184730E+01 0.  0.
         14    1    1    2    0    0 -0.23030343937E-01  0.21109561345E-03  0.48670862755E-02  0.23539962448E-01  0.00000000000E+00 0.  1.
     999901    1    3    3    0    0  0.12092864397E+00  0.52276790558E-01  0.39875962931E-01  0.89070011350E+00  0.88000000000E+00 0. -1.
        -11    1    3    3    0    0 -0.58143092977E-01 -0.39519771296E-01 -0.26500969472E-02  0.70354216072E-01  0.51100000000E-03 0. -1.
         11    1    3    3    0    0 -0.39755207051E-01 -0.12968114876E-01 -0.42092952259E-01  0.59335707984E-01  0.51100000000E-03 0.  1.
</event>
<event>
 8    1  0.1122848E+005  0.1043930E+01  0.7957747E-01            NaN
         13   -1    0    0    0    0  0.00000000000E+00  0.00000000000E+00  0.74505805969E-08  0.10566000000E+00  0.10566000000E+00 0. -1.
     999900   -1    0    0    0    0 -0.00000000000E+00 -0.00000000000E+00 -0.74505805969E-08  0.93827000000E+00  0.93827000000E+00 0.  1.
     999902    2    1    2    0    0  0.10598319592E-01 -0.12847422646E-01 -0.17281762557E-01  0.10199291674E+01  0.10196467362E+01 0.  0.
     999903    2    3    3    0    0  0.88321007687E-01 -0.96391106598E-01  0.13039703454E-02  0.13236745530E+00  0.20678420019E-01 0.  0.
         14    1    1    2    0    0 -0.10598319592E-01  0.12847422646E-01  0.17281762557E-01  0.24000832567E-01  0.00000000000E+00 0. -1.
     999901    1    3    3    0    0 -0.77722688095E-01  0.83543683953E-01 -0.18585732902E-01  0.88756171213E+00  0.88000000000E+00 0.  1.
        -11    1    4    4    0    0  0.42221798678E-01 -0.48286502290E-01  0.10856936153E-01  0.65056904096E-01  0.51100000000E-03 0.  1.
         11    1    4    4    0    0  0.46099209009E-01 -0.48104604309E-01 -0.95529658072E-02  0.67310551206E-01  0.51100000000E-03 0. -1.
</event>
<event>
 8    1  0.1365631E+005  0.1043930E+01  0.7957747E-01            NaN
         13   -1    0    0    0    0  0.00000000000E+00  0.00000000000E+00  0.74505805969E-08  0.10566000000E+00  0.10566000000E+00 0. -1.
     999900   -1    0    0    0    0 -0.00000000000E+00 -0.00000000000E+00 -0.74505805969E-08  0.93827000000E+00  0.93827000000E+00 0. -1.
     999902    2    1    2    0    0  0.23493736638E-01  0.38817278779E-02  0.13013463697E-02  0.10200822124E+01  0.10198034139E+01 0.  0.
     999903    2    3    3    0    0  0.87164965725E-01  0.77302334622E-01  0.60522908093E-01  0.13275374766E+00  0.19676202020E-01 0.  0.
         14    1    1    2    0    0 -0.23493736638E-01 -0.38817278779E-02 -0.13013463697E-02  0.23847787631E-01  0.00000000000E+00 0. -1.
     999901    1    3    3    0    0 -0.63671229087E-01 -0.73420606744E-01 -0.59221561723E-01  0.88732846471E+00  0.88000000000E+00 0.  1.
        -11    1    4    4    0    0  0.57082103729E-01  0.51973668190E-01  0.50220188247E-01  0.92097541661E-01  0.51100000000E-03 0.  1.
         11    1    4    4    0    0  0.30082861996E-01  0.25328666432E-01  0.10302719845E-01  0.40656206000E-01  0.51100000000E-03 0. -1.
</event>
<event>
 8    1  0.1122848E+005  0.1043930E+01  0.7957747E-01            NaN
         13   -1    0    0    0    0  0.00000000000E+00  0.00000000000E+00  0.74505805969E-08  0.10566000000E+00  0.10566000000E+00 0.  1.
     999900   -1    0    0    0    0 -0.00000000000E+00 -0.00000000000E+00 -0.74505805969E-08  0.93827000000E+00  0.93827000000E+00 0.  1.
     999902    2    1    2    0    0 -0.49937127138E-02 -0.94086542697E-03 -0.23327569015E-01  0.10200553718E+01  0.10197759380E+01 0.  0.
     999903    2    3    3    0    0  0.82815450173E-01  0.48679225566E-02 -0.10077042551E+00  0.13228198456E+00  0.21488353259E-01 0.  0.
         14    1    1    2    0    0  0.49937127138E-02  0.94086542697E-03  0.23327569015E-01  0.23874628176E-01  0.00000000000E+00 0.  1.
     999901    1    3    3    0    0 -0.87809162887E-01 -0.58087879836E-02  0.77442856493E-01  0.88777338726E+00  0.88000000000E+00 0. -1.
        -11    1    4    4    0    0  0.50348293231E-01  0.12239569894E-01 -0.68711202860E-01  0.86059562060E-01  0.51100000000E-03 0. -1.
         11    1    4    4    0    0  0.32467156943E-01 -0.73716473376E-02 -0.32059222648E-01  0.46222422505E-01  0.51100000000E-03 0.  1.
</event>
<event>
 8    1  0.1122848E+005  0.1043930E+01  0.7957747E-01            NaN
         13   -1    0    0    0    0  0.00000000000E+00  0.00000000000E+00  0.74505805969E-08  0.10566000000E+00  0.10566000000E+00 0.  1.
     999900   -1    0    0    0    0 -0.00000000000E+00 -0.00000000000E+00 -0.74505805969E-08  0.93827000000E+00  0.93827000000E+00 0. -1.
     999902    2    1    2    0    0  0.15964369646E-01 -0.18586832529E-01 -0.59364847785E-03  0.10194211473E+01  0.10191264847E+01 0.  0.
     999903    2    3    3    0    0  0.92575058575E-01  0.78436118488E-01  0.41792128086E-01  0.12976997705E+00  0.19269115733E-01 0.  0.
         14    1    1    2    0    0 -0.15964369646E-01  0.18586832529E-01  0.59364847785E-03  0.24508852690E-01  0.00000000000E+00 0. -1.
     999901    1    3    3    0    0 -0.76610688929E-01 -0.97022951017E-01 -0.42385776564E-01  0.88965117026E+00  0.88000000000E+00 0. -1.
        -11    1    4    4    0    0  0.45018723211E-01  0.34480052637E-01  0.98405861867E-02  0.57555692394E-01  0.51100000000E-03 0. -1.
         11    1    4    4    0    0  0.47556335364E-01  0.43956065851E-01  0.31951541900E-01  0.72214284661E-01  0.51100000000E-03 0.  1.
</event>
<event>
 8    1  0.1122848E+005  0.1043930E+01  0.7957747E-01            NaN
         13   -1    0    0    0    0  0.00000000000E+00  0.00000000000E+00  0.74505805969E-08  0.10566000000E+00  0.10566000000E+00 0.  1.
     999900   -1    0    0    0    0 -0.00000000000E+00 -0.00000000000E+00 -0.74505805969E-08  0.93827000000E+00  0.93827000000E+00 0. -1.
     999902    2    1    2    0    0  0.12130891858E-01  0.26187206866E-02 -0.19633971875E-01  0.10207026651E+01  0.10204383477E+01 0.  0.
     999903    2    3    3    0    0  0.41975657261E-01 -0.27667506485E-01  0.11718125318E+00  0.12911622992E+00  0.20300443728E-01 0.  0.
         14    1    1    2    0    0 -0.12130891858E-01 -0.26187206866E-02  0.19633971875E-01  0.23227334907E-01  0.00000000000E+00 0. -1.
     999901    1    3    3    0    0 -0.29844765403E-01  0.30286227172E-01 -0.13681522505E+00  0.89158643517E+00  0.88000000000E+00 0. -1.
        -11    1    4    4    0    0  0.30403175056E-01 -0.13699114921E-01  0.54815099748E-01  0.64163658596E-01  0.51100000000E-03 0. -1.
         11    1    4    4    0    0  0.11572482205E-01 -0.13968391564E-01  0.62366153428E-01  0.64952571324E-01  0.51100000000E-03 0.  1.
</event>
<event>
 8    1  0.1122848E+005  0.1043930E+01  0.7957747E-01            NaN
         13   -1    0    0    0    0  0.00000000000E+00  0.00000000000E+00  0.74505805969E-08  0.10566000000E+00  0.10566000000E+00 0. -1.
     999900   -1    0    0    0    0 -0.00000000000E+00 -0.00000000000E+00 -0.74505805969E-08  0.93827000000E+00  0.93827000000E+00 0. -1.
     999902    2    1    2    0    0  0.12782371843E-03  0.21867407480E-01  0.11110488567E-01  0.10194015919E+01  0.10191064531E+01 0.  0.
     999903    2    3    3    0    0  0.74337628328E-01 -0.98897667456E-01  0.26496066713E-01  0.12792640185E+00  0.18875675474E-01 0.  0.
         14    1    1    2    0    0 -0.12782371843E-03 -0.21867407480E-01 -0.11110488567E-01  0.24528408122E-01  0.00000000000E+00 0.  1.
     999901    1    3    3    0    0 -0.74209804610E-01  0.12076507494E+00 -0.15385578145E-01  0.89147519003E+00  0.88000000000E+00 0.  1.
        -11    1    4    4    0    0  0.32312622063E-01 -0.52500237367E-01  0.54889857620E-02  0.61893218965E-01  0.51100000000E-03 0.  1.
         11    1    4    4    0    0  0.42025006265E-01 -0.46397430090E-01  0.21007080951E-01  0.66033182883E-01  0.51100000000E-03 0. -1.
</event>
<event>
 8    1  0.1122848E+005  0.1043930E+01  0.7957747E-01            NaN
         13   -1    0    0    0    0  0.00000000000E+00  0.00000000000E+00  0.74505805969E-08  0.10566000000E+00  0.10566000000E+00 0. -1.
     999900   -1    0    0    0    0 -0.00000000000E+00 -0.00000000000E+00 -0.74505805969E-08  0.93827000000E+00  0.93827000000E+00 0.  1.
     999902    2    1    2    0    0 -0.21611469807E-01 -0.50717544704E-02  0.72745890975E-02  0.10205698209E+01  0.10203024362E+01 0.  0.
     999903    2    3    3    0    0 -0.74080256918E-01 -0.44682004649E-01  0.99418194474E-01  0.13331991837E+00  0.20145898779E-01 0.  0.
         14    1    1    2    0    0  0.21611469807E-01  0.50717544704E-02 -0.72745890975E-02  0.23360179091E-01  0.00000000000E+00 0.  1.
     999901    1    3    3    0    0  0.52468787111E-01  0.39610250179E-01 -0.92143605377E-01  0.88724990254E+00  0.88000000000E+00 0.  1.
        -11    1    4    4    0    0 -0.61754199960E-01 -0.27575663891E-01  0.72992746422E-01  0.99509801543E-01  0.51100000000E-03 0.  1.
         11    1    4    4    0    0 -0.12326056958E-01 -0.17106340758E-01  0.26425448052E-01  0.33810116829E-01  0.51100000000E-03 0. -1.
</event>
<event>
 8    1  0.1122848E+005  0.1043930E+01  0.7957747E-01            NaN
         13   -1    0    0    0    0  0.00000000000E+00  0.00000000000E+00  0.74505805969E-08  0.10566000000E+00  0.10566000000E+00 0. -1.
     999900   -1    0    0    0    0 -0.00000000000E+00 -0.00000000000E+00 -0.74505805969E-08  0.93827000000E+00  0.93827000000E+00 0. -1.
     999902    2    1    2    0    0 -0.14393554885E-01 -0.15267378405E-01  0.82178963434E-02  0.10213955578E+01  0.10211469455E+01 0.  0.
     999903    2    3    3    0    0 -0.27740731828E-01 -0.49046871073E-02 -0.12635172712E+00  0.13100546571E+00  0.20101466163E-01 0.  0.
         14    1    1    2    0    0  0.14393554885E-01  0.15267378405E-01 -0.82178963434E-02  0.22534442214E-01  0.00000000000E+00 0.  1.
     999901    1    3    3    0    0  0.13347176942E-01 -0.10362691298E-01  0.13456962346E+00  0.89039009207E+00  0.88000000000E+00 0.  1.
        -11    1    4    4    0    0 -0.17871311682E-01  0.33447719887E-02 -0.43347631675E-01  0.47009037150E-01  0.51100000000E-03 0.  1.
         11    1    4    4    0    0 -0.98694201456E-02 -0.82494590960E-02 -0.83004095446E-01  0.83996428562E-01  0.51100000000E-03 0. -1.
</event>
<event>
 8    1  0.1122848E+005  0.1043930E+01  0.7957747E-01            NaN
         13   -1    0    0    0    0  0.00000000000E+00  0.00000000000E+00  0.74505805969E-08  0.10566000000E+00  0.10566000000E+00 0. -1.
     999900   -1    0    0    0    0 -0.00000000000E+00 -0.00000000000E+00 -0.74505805969E-08  0.93827000000E+00  0.93827000000E+00 0.  1.
     999902    2    1    2    0    0  0.17704932574E-01  0.87435852503E-02  0.11557994957E-01  0.10210498302E+01  0.10207934432E+01 0.  0.
     999903    2    3    3    0    0 -0.18784639337E-02 -0.16870058672E-01  0.12959378828E+00  0.13258372697E+00  0.22265830078E-01 0.  0.
         14    1    1    2    0    0 -0.17704932574E-01 -0.87435852503E-02 -0.11557994957E-01  0.22880169753E-01  0.00000000000E+00 0.  1.
     999901    1    3    3    0    0  0.19583396508E-01  0.25613643922E-01 -0.11803579332E+00  0.88846610328E+00  0.88000000000E+00 0.  1.
        -11    1    4    4    0    0  0.10021554891E-01 -0.98551197340E-02  0.71229470731E-01  0.72604776489E-01  0.51100000000E-03 0.  1.
         11    1    4    4    0    0 -0.11900018825E-01 -0.70149389379E-02  0.58364317550E-01  0.59978950477E-01  0.51100000000E-03 0. -1.
</event>
<event>
 8    1  0.1122848E+005  0.1043930E+01  0.7957747E-01            NaN
         13   -1    0    0    0    0  0.00000000000E+00  0.00000000000E+00  0.74505805969E-08  0.10566000000E+00  0.10566000000E+00 0.  1.
     999900   -1    0    0    0    0 -0.00000000000E+00 -0.00000000000E+00 -0.74505805969E-08  0.93827000000E+00  0.93827000000E+00 0.  1.
     999902    2    1    2    0    0  0.53347126739E-02  0.20141971404E-01  0.18612666393E-01  0.10159909678E+01  0.10156067433E+01 0.  0.
     999903    2    3    3    0    0 -0.89190292812E-01 -0.60223655439E-01 -0.57595013400E-01  0.12402615844E+00  0.21988756253E-01 0.  0.
         14    1    1    2    0    0 -0.53347126739E-02 -0.20141971404E-01 -0.18612666393E-01  0.27939032224E-01  0.00000000000E+00 0. -1.
     999901    1    3    3    0    0  0.94525005486E-01  0.80365626844E-01  0.76207679793E-01  0.89196480934E+00  0.88000000000E+00 0. -1.
        -11    1    4    4    0    0 -0.14748056799E-01 -0.79177895033E-02 -0.18631005102E-01  0.25051388027E-01  0.51100000000E-03 0. -1.
         11    1    4    4    0    0 -0.74442236013E-01 -0.52305865936E-01 -0.38964008298E-01  0.98974770409E-01  0.51100000000E-03 0.  1.
</event>
<event>
 8    1  0.1122848E+005  0.1043930E+01  0.7957747E-01            NaN
         13   -1    0    0    0    0  0.00000000000E+00  0.00000000000E+00  0.74505805969E-08  0.10566000000E+00  0.10566000000E+00 0. -1.
     999900   -1    0    0    0    0 -0.00000000000E+00 -0.00000000000E+00 -0.74505805969E-08  0.93827000000E+00  0.93827000000E+00 0. -1.
     999902    2    1    2    0    0  0.13604397546E-01 -0.19111335930E-01 -0.23249949739E-02  0.10203561078E+01  0.10200837506E+01 0.  0.
     999903    2    3    3    0    0  0.45866788676E-01  0.58666938786E-01  0.10444879895E+00  0.12991185630E+00  0.20541830370E-01 0.  0.
         14    1    1    2    0    0 -0.13604397546E-01  0.19111335930E-01  0.23249949739E-02  0.23573892238E-01  0.00000000000E+00 0.  1.
     999901    1    3    3    0    0 -0.32262391130E-01 -0.77778274716E-01 -0.10677379392E+00  0.89044425147E+00  0.88000000000E+00 0. -1.
        -11    1    4    4    0    0  0.36441311066E-01  0.33939855375E-01  0.77636949672E-01  0.92236869040E-01  0.51100000000E-03 0. -1.
         11    1    4    4    0    0  0.94254776104E-02  0.24727083410E-01  0.26811849276E-01  0.37674987256E-01  0.51100000000E-03 0.  1.
</event>
<event>
 8    1  0.1122848E+005  0.1043930E+01  0.7957747E-01            NaN
         13   -1    0    0    0    0  0.00000000000E+00  0.00000000000E+00  0.74505805969E-08  0.10566000000E+00  0.10566000000E+00 0. -1.
     999900   -1    0    0    0    0 -0.00000000000E+00 -0.00000000000E+00 -0.74505805969E-08  0.93827000000E+00  0.93827000000E+00 0.  1.
     999902    2    1    2    0    0 -0.10661731483E-01 -0.20777678980E-01 -0.42416074774E-02  0.10201944634E+01  0.10199183141E+01 0.  0.
     999903    2    3    3    0    0  0.51743643610E-01 -0.69811470846E-01 -0.96759924692E-01  0.13179231204E+00  0.21346764872E-01 0.  0.
         14    1    1    2    0    0  0.10661731483E-01  0.20777678980E-01  0.42416074774E-02  0.23735536565E-01  0.00000000000E+00 0. -1.
     999901    1    3    3    0    0 -0.62405375093E-01  0.49033791866E-01  0.92518317214E-01  0.88840215140E+00  0.88000000000E+00 0. -1.
        -11    1    4    4    0    0  0.25116902782E-01 -0.50130409661E-01 -0.55606023370E-01  0.78969663379E-01  0.51100000000E-03 0. -1.
         11    1    4    4    0    0  0.26626740827E-01 -0.19681061185E-01 -0.41153901322E-01  0.52822648660E-01  0.51100000000E-03 0.  1.
</event>
<event>
 8    1  0.1122848E+005  0.1043930E+01  0.7957747E-01            NaN
         13   -1    0    0    0    0  0.00000000000E+00  0.00000000000E+00  0.74505805969E-08  0.10566000000E+00  0.10566000000E+00 0.  1.
     999900   -1    0    0    0    0 -0.00000000000E+00 -0.00000000000E+00 -0.74505805969E-08  0.93827000000E+00  0.93827000000E+00 0. -1.
     999902    2    1    2    0    0 -0.17512313006E-01 -0.53116046220E-03  0.15046261914E-01  0.10208355583E+01  0.10205742912E+01 0.  0.
     999903    2    3    3    0    0  0.88891256773E-01 -0.45254652283E-01 -0.78301629881E-01  0.12840307389E+00  0.20163458522E-01 0.  0.
         14    1    1    2    0    0  0.17512313006E-01  0.53116046220E-03 -0.15046261914E-01  0.23094441665E-01  0.00000000000E+00 0. -1.
     999901    1    3    3    0    0 -0.10640356978E+00  0.44723491821E-01  0.93347891795E-01  0.89243248444E+00  0.88000000000E+00 0.  1.
        -11    1    4    4    0    0  0.30274784178E-01 -0.12371407974E-01 -0.37564680506E-01  0.49809443229E-01  0.51100000000E-03 0.  1.
         11    1    4    4    0    0  0.58616472595E-01 -0.32883244309E-01 -0.40736949375E-01  0.78593630665E-01  0.51100000000E-03 0. -1.
</event>
<event>
 8    1  0.1122848E+005  0.1043930E+01  0.7957747E-01            NaN
         13   -1    0    0    0    0  0.00000000000E+00  0.00000000000E+00  0.74505805969E-08  0.10566000000E+00  0.10566000000E+00 0. -1.
     999900   -1    0    0    0    0 -0.00000000000E+00 -0.00000000000E+00 -0.74505805969E-08  0.93827000000E+00  0.93827000000E+00 0. -1.
     999902    2    1    2    0    0 -0.99355916472E-02 -0.21442833116E-01  0.28705627338E-02  0.10201234630E+01  0.10198456396E+01 0.  0.
     999903    2    3    3    0    0 -0.63723251855E-01 -0.79902629723E-01  0.82702094952E-01  0.13294606600E+00  0.19746819807E-01 0.  0.
         14    1    1    2    0    0  0.99355916472E-02  0.21442833116E-01 -0.28705627338E-02  0.23806536998E-01  0.00000000000E+00 0.  1.
     999901    1    3    3    0    0  0.53787660208E-01  0.58459796607E-01 -0.79831532218E-01  0.88717739700E+00  0.88000000000E+00 0. -1.
        -11    1    4    4    0    0 -0.88662833010E-02 -0.23589521121E-01  0.16096144831E-01  0.29906913678E-01  0.51100000000E-03 0. -1.
         11    1    4    4    0    0 -0.54856968554E-01 -0.56313108602E-01  0.66605950121E-01  0.10303915233E+00  0.51100000000E-03 0.  1.
</event>
<event>
 8    1  0.1122848E+005  0.1043930E+01  0.7957747E-01            NaN
         13   -1    0    0    0    0  0.00000000000E+00  0.00000000000E+00  0.74505805969E-08  0.10566000000E+00  0.10566000000E+00 0.  1.
     999900   -1    0    0    0    0 -0.00000000000E+00 -0.00000000000E+00 -0.74505805969E-08  0.93827000000E+00  0.93827000000E+00 0.  1.
     999902    2    1    2    0    0 -0.76909413299E-02 -0.14414194629E-01  0.17711388959E-01  0.10198340899E+01  0.10195493897E+01 0.  0.
     999903    2    3    3    0    0 -0.55698396308E-01  0.11016401982E+00  0.34047127192E-01  0.12961428355E+00  0.20055747709E-01 0.  0.
         14    1    1    2    0    0  0.76909413299E-02  0.14414194629E-01 -0.17711388959E-01  0.24095910113E-01  0.00000000000E+00 0. -1.
     999901    1    3    3    0    0  0.48007454978E-01 -0.12457821445E+00 -0.16335738234E-01  0.89021980634E+00  0.88000000000E+00 0.  1.
        -11    1    4    4    0    0 -0.24224060791E-01  0.69729723424E-01  0.19934947281E-01  0.76463734503E-01  0.51100000000E-03 0.  1.
         11    1    4    4    0    0 -0.31474335517E-01  0.40434296396E-01  0.14112179912E-01  0.53150549048E-01  0.51100000000E-03 0. -1.
</event>
<event>
 8    1  0.1122848E+005  0.1043930E+01  0.7957747E-01            NaN
         13   -1    0    0    0    0  0.00000000000E+00  0.00000000000E+00  0.74505805969E-08  0.10566000000E+00  0.10566000000E+00 0. -1.
     999900   -1    0    0    0    0 -0.00000000000E+00 -0.00000000000E+00 -0.74505805969E-08  0.93827000000E+00  0.93827000000E+00 0.  1.
     999902    2    1    2    0    0  0.11716537732E-01  0.57572245334E-02 -0.15916186255E-01  0.10233448627E+01  0.10231378012E+01 0.  0.
     999903    2    3    3    0    0  0.67463247918E-01  0.21493104899E-01 -0.11418475229E+00  0.13598246513E+00  0.20972119349E-01 0.  0.
         14    1    1    2    0    0 -0.11716537732E-01 -0.57572245334E-02  0.15916186255E-01  0.20585137252E-01  0.00000000000E+00 0. -1.
     999901    1    3    3    0    0 -0.55746710186E-01 -0.15735880366E-01  0.98268566039E-01  0.88736239761E+00  0.88000000000E+00 0. -1.
        -11    1    4    4    0    0  0.34112037922E-01  0.20274891097E-01 -0.52087003705E-01  0.65482970429E-01  0.51100000000E-03 0.  1.
         11    1    4    4    0    0  0.33351209996E-01  0.12182138017E-02 -0.62097748588E-01  0.70499494706E-01  0.51100000000E-03 0. -1.
</event>
<event>
 8    1  0.1122848E+005  0.1043930E+01  0.7957747E-01            NaN
         13   -1    0    0    0    0  0.00000000000E+00  0.00000000000E+00  0.74505805969E-08  0.10566000000E+00  0.10566000000E+00 0. -1.
     999900   -1    0    0    0    0 -0.00000000000E+00 -0.00000000000E+00 -0.74505805969E-08  0.93827000000E+00  0.93827000000E+00 0.  1.
     999902    2    1    2    0    0  0.18370216967E-01 -0.14066428223E-01 -0.46442934522E-02  0.10203312980E+01  0.10200583606E+01 0.  0.
     999903    2    3    3    0    0 -0.44343135100E-01 -0.10105506064E+00  0.67097899437E-01  0.13092310772E+00  0.21454442781E-01 0.  0.
         14    1    1    2    0    0 -0.18370216967E-01  0.14066428223E-01  0.46442934522E-02  0.23598701999E-01  0.00000000000E+00 0. -1.
     999901    1    3    3    0    0  0.62713352068E-01  0.86988632416E-01 -0.71742192889E-01  0.88940819028E+00  0.88000000000E+00 0.  1.
        -11    1    4    4    0    0 -0.33202601673E-01 -0.55224170951E-01  0.30891428226E-01  0.71460921306E-01  0.51100000000E-03 0.  1.
         11    1    4    4    0    0 -0.11140533428E-01 -0.45830889688E-01  0.36206471210E-01  0.59462186414E-01  0.51100000000E-03 0. -1.
</event>
<event>
 8    1  0.1122848E+005  0.1043930E+01  0.7957747E-01            NaN
         13   -1    0    0    0    0  0.00000000000E+00  0.00000000000E+00  0.74505805969E-08  0.10566000000E+00  0.10566000000E+00 0.  1.
     999900   -1    0    0    0    0 -0.00000000000E+00 -0.00000000000E+00 -0.74505805969E-08  0.93827000000E+00  0.93827000000E+00 0.  1.
     999902    2    1    2    0    0 -0.11279598071E-01 -0.35254825948E-02  0.21535033909E-01  0.10193654718E+01  0.10190694525E+01 0.  0.
     999903    2    3    3    0    0 -0.79978726857E-01 -0.19616259384E-01  0.10234078509E+00  0.13285091872E+00  0.19857893394E-01 0.  0.
         14    1    1    2    0    0  0.11279598071E-01  0.35254825948E-02 -0.21535033909E-01  0.24564528199E-01  0.00000000000E+00 0. -1.
     999901    1    3    3    0    0  0.68699128785E-01  0.16090776789E-01 -0.80805751185E-01  0.88651455308E+00  0.88000000000E+00 0.  1.
        -11    1    4    4    0    0 -0.14386518171E-01 -0.10726795105E-01  0.28509191385E-01  0.33690817039E-01  0.51100000000E-03 0. -1.
         11    1    4    4    0    0 -0.65592208686E-01 -0.88894642794E-02  0.73831593709E-01  0.99160101685E-01  0.51100000000E-03 0.  1.
</event>
<event>
 8    1  0.1122848E+005  0.1043930E+01  0.7957747E-01            NaN
         13   -1    0    0    0    0  0.00000000000E+00  0.00000000000E+00  0.74505805969E-08  0.10566000000E+00  0.10566000000E+00 0.  1.
     999900   -1    0    0    0    0 -0.00000000000E+00 -0.00000000000E+00 -0.74505805969E-08  0.93827000000E+00  0.93827000000E+00 0. -1.
     999902    2    1    2    0    0  0.21914856971E-02 -0.11217036014E-01  0.21434534511E-01  0.10196387716E+01  0.10193493811E+01 0.  0.
     999903    2    3    3    0    0  0.89173964571E-02  0.53377123712E-01  0.11853373071E+00  0.13191927919E+00  0.20586733813E-01 0.  0.
         14    1    1    2    0    0 -0.21914856971E-02  0.11217036014E-01 -0.21434534511E-01  0.24291228380E-01  0.00000000000E+00 0. -1.
     999901    1    3    3    0    0 -0.67259107600E-02 -0.64594159726E-01 -0.97099196201E-01  0.88771949243E+00  0.88000000000E+00 0. -1.
        -11    1    4    4    0    0  0.31149217753E-02  0.39922571710E-01  0.10323039184E+00  0.11072619108E+00  0.51100000000E-03 0. -1.
         11    1    4    4    0    0  0.58024746818E-02  0.13454552002E-01  0.15303338869E-01  0.21193088107E-01  0.51100000000E-03 0.  1.
</event>
<event>
 8    1  0.1122848E+005  0.1043930E+01  0.7957747E-01            NaN
         13   -1    0    0    0    0  0.00000000000E+00  0.00000000000E+00  0.74505805969E-08  0.10566000000E+00  0.10566000000E+00 0. -1.
     999900   -1    0    0    0    0 -0.00000000000E+00 -0.00000000000E+00 -0.74505805969E-08  0.93827000000E+00  0.93827000000E+00 0. -1.
     999902    2    1    2    0    0  0.15788513507E-01  0.14381413677E-01  0.10665629795E-01  0.10200583039E+01  0.10197789395E+01 0.  0.
     999903    2    3    3    0    0  0.10676453036E+00 -0.71979247496E-01 -0.12490188480E-01  0.13086148010E+00  0.19724227561E-01 0.  0.
         14    1    1    2    0    0 -0.15788513507E-01 -0.14381413677E-01 -0.10665629795E-01  0.23871696149E-01  0.00000000000E+00 0.  1.
     999901    1    3    3    0    0 -0.90976016856E-01  0.86360661174E-01  0.23155818275E-01  0.88919682375E+00  0.88000000000E+00 0.  1.
        -11    1    4    4    0    0  0.18399469999E-01 -0.22056601536E-01 -0.13687808959E-02  0.28760543279E-01  0.51100000000E-03 0.  1.
         11    1    4    4    0    0  0.88365060364E-01 -0.49922645960E-01 -0.11121407584E-01  0.10210093682E+00  0.51100000000E-03 0. -1.
</event>
<event>
 8    1  0.1122848E+005  0.1043930E+01  0.7957747E-01            NaN
         13   -1    0    0    0    0  0.00000000000E+00  0.00000000000E+00  0.74505805969E-08  0.10566000000E+00  0.10566000000E+00 0.  1.
     999900   -1    0    0    0    0 -0.00000000000E+00 -0.00000000000E+00 -0.74505805969E-08  0.93827000000E+00  0.93827000000E+00 0. -1.
     999902    2    1    2    0    0 -0.15546848942E-01 -0.31054591459E-03  0.17806314025E-01  0.10202896580E+01  0.10200157452E+01 0.  0.
     999903    2    3    3    0    0  0.53644501310E-01  0.28322044352E-01 -0.11054867591E+00  0.12783110343E+00  0.20974044502E-01 0.  0.
         14    1    1    2    0    0  0.15546848942E-01  0.31054591459E-03 -0.17806314025E-01  0.23640342002E-01  0.00000000000E+00 0.  1.
     999901    1    3    3    0    0 -0.69191350252E-01 -0.28632590267E-01  0.12835498993E+00  0.89245855456E+00  0.88000000000E+00 0.  1.
        -11    1    4    4    0    0 -0.48870109893E-03  0.14161556266E-02 -0.12810373201E-01  0.12907792533E-01  0.51100000000E-03 0. -1.
         11    1    4    4    0    0  0.54133202409E-01  0.26905888725E-01 -0.97738302708E-01  0.11492331090E+00  0.51100000000E-03 0.  1.
</event>
<event>
 8    1  0.1122848E+005  0.1043930E+01  0.7957747E-01            NaN
         13   -1    0    0    0    0  0.00000000000E+00  0.00000000000E+00  0.74505805969E-08  0.10566000000E+00  0.10566000000E+00 0.  1.
     999900   -1    0    0    0    0 -0.00000000000E+00 -0.00000000000E+00 -0.74505805969E-08  0.93827000000E+00  0.93827000000E+00 0. -1.
     999902    2    1    2    0    0  0.11030292408E-01 -0.18160322464E-01  0.13555653433E-01  0.10187264208E+01  0.10184146013E+01 0.  0.
     999903    2    3    3    0    0 -0.74292316331E-01  0.61160041658E-02  0.10456585551E+00  0.12959642782E+00  0.17448845022E-01 0.  0.
         14    1    1    2    0    0 -0.11030292408E-01  0.18160322464E-01 -0.13555653433E-01  0.25203579162E-01  0.00000000000E+00 0. -1.
     999901    1    3    3    0    0  0.85322608739E-01 -0.24276326630E-01 -0.91010202079E-01  0.88912999302E+00  0.88000000000E+00 0. -1.
        -11    1    4    4    0    0 -0.47366983215E-01 -0.41590182885E-02  0.69381595035E-01  0.84112991759E-01  0.51100000000E-03 0.  1.
         11    1    4    4    0    0 -0.26925333116E-01  0.10275022454E-01  0.35184260477E-01  0.45483436064E-01  0.51100000000E-03 0. -1.
</event>
<event>
 8    1  0.1122848E+005  0.1043930E+01  0.7957747E-01            NaN
         13   -1    0    0    0    0  0.00000000000E+00  0.00000000000E+00  0.74505805969E-08  0.10566000000E+00  0.10566000000E+00 0.  1.
     999900   -1    0    0    0    0 -0.00000000000E+00 -0.00000000000E+00 -0.74505805969E-08  0.93827000000E+00  0.93827000000E+00 0.  1.
     999902    2    1    2    0    0  0.78766716119E-02  0.18107359486E-01  0.14699961736E-01  0.10193127845E+01  0.10190154785E+01 0.  0.
     999903    2    3    3    0    0 -0.25729811883E-01 -0.76646890589E-01 -0.95776730239E-01  0.12672505039E+00  0.18689229100E-01 0.  0.
         14    1    1    2    0    0 -0.78766716119E-02 -0.18107359486E-01 -0.14699961736E-01  0.24617215486E-01  0.00000000000E+00 0. -1.
     999901    1    3    3    0    0  0.33606483495E-01  0.94754250075E-01  0.11047669198E+00  0.89258773412E+00  0.88000000000E+00 0. -1.
        -11    1    4    4    0    0 -0.86789698015E-02 -0.43503700049E-01 -0.63224120615E-01  0.77236306122E-01  0.51100000000E-03 0.  1.
         11    1    4    4    0    0 -0.17050842081E-01 -0.33143190540E-01 -0.32552609624E-01  0.49488744268E-01  0.51100000000E-03 0. -1.
</event>
<event>
 8    1  0.1122848E+005  0.1043930E+01  0.7957747E-01            NaN
         13   -1    0    0    0    0  0.00000000000E+00  0.00000000000E+00  0.74505805969E-08  0.10566000000E+00  0.10566000000E+00 0. -1.
     999900   -1    0    0    0    0 -0.00000000000E+00 -0.00000000000E+00 -0.74505805969E-08  0.93827000000E+00  0.93827000000E+00 0. -1.
     999902    2    1    2    0    0 -0.54097462572E-02  0.19714605984E-01  0.18800671814E-02  0.10234003703E+01  0.10231944352E+01 0.  0.
     999903    2    3    3    0    0 -0.10323956179E+00  0.65241899772E-01  0.56449084066E-01  0.13513172573E+00  0.12616322852E-01 0.  0.
         14    1    1    2    0    0  0.54097462572E-02 -0.19714605984E-01 -0.18800671814E-02  0.20529629717E-01  0.00000000000E+00 0.  1.
     999901    1    3    3    0    0  0.97829815537E-01 -0.45527293788E-01 -0.54569016885E-01  0.88826864455E+00  0.88000000000E+00 0.  1.
        -11    1    4    4    0    0 -0.68871179020E-01  0.39936941239E-01  0.42372070205E-01  0.90187870745E-01  0.51100000000E-03 0.  1.
         11    1    4    4    0    0 -0.34368382775E-01  0.25304958534E-01  0.14077013861E-01  0.44943854988E-01  0.51100000000E-03 0. -1.
</event>
<event>
 8    1  0.1122848E+005  0.1043930E+01  0.7957747E-01            NaN
         13   -1    0    0    0    0  0.00000000000E+00  0.00000000000E+00  0.74505805969E-08  0.10566000000E+00  0.10566000000E+00 0.  1.
     999900   -1    0    0    0    0 -0.00000000000E+00 -0.00000000000E+00 -0.74505805969E-08  0.93827000000E+00  0.93827000000E+00 0.  1.
     999902    2    1    2    0    0  0.17470659944E-01 -0.64257888491E-02  0.13105138172E-01  0.10211646894E+01  0.10209108989E+01 0.  0.
     999903    2    3    3    0    0 -0.22196091306E-01  0.10744600346E+00 -0.65638747263E-01  0.12945799111E+00  0.20337556185E-01 0.  0.
         14    1    1    2    0    0 -0.17470659944E-01  0.64257888491E-02 -0.13105138172E-01  0.22765310622E-01  0.00000000000E+00 0. -1.
     999901    1    3    3    0    0  0.39666751249E-01 -0.11387179231E+00  0.78743885436E-01  0.89170669827E+00  0.88000000000E+00 0. -1.
        -11    1    4    4    0    0 -0.25261343729E-01  0.78388585240E-01 -0.48637867684E-01  0.95649407091E-01  0.51100000000E-03 0.  1.
         11    1    4    4    0    0  0.30652524236E-02  0.29057418220E-01 -0.17000879579E-01  0.33808584021E-01  0.51100000000E-03 0. -1.
</event>
<event>
 8    1  0.1122848E+005  0.1043930E+01  0.7957747E-01            NaN
         13   -1    0    0    0    0  0.00000000000E+00  0.00000000000E+00  0.74505805969E-08  0.10566000000E+00  0.10566000000E+00 0. -1.
     999900   -1    0    0    0    0 -0.00000000000E+00 -0.00000000000E+00 -0.74505805969E-08  0.93827000000E+00  0.93827000000E+00 0.  1.
     999902    2    1    2    0    0  0.75670308310E-03  0.23073636913E-01 -0.65497505304E-02  0.10199328220E+01  0.10196504778E+01 0.  0.
     999903    2    3    3    0    0  0.12091768172E+00 -0.33055182949E-01 -0.27151399743E-01  0.12975669721E+00  0.19643601758E-01 0.  0.
         14    1    1    2    0    0 -0.75670308310E-03 -0.23073636913E-01  0.65497505304E-02  0.23997178000E-01  0.00000000000E+00 0.  1.
     999901    1    3    3    0    0 -0.12016097863E+00  0.56128819861E-01  0.20601649212E-01  0.89017612480E+00  0.88000000000E+00 0.  1.
        -11    1    4    4    0    0  0.81405245551E-02 -0.19364030132E-02 -0.72496761628E-02  0.11083172927E-01  0.51100000000E-03 0.  1.
         11    1    4    4    0    0  0.11277715716E+00 -0.31118779935E-01 -0.19901723580E-01  0.11867352428E+00  0.51100000000E-03 0. -1.
</event>
<event>
 8    1  0.1122848E+005  0.1043930E+01  0.7957747E-01            NaN
         13   -1    0    0    0    0  0.00000000000E+00  0.00000000000E+00  0.74505805969E-08  0.10566000000E+00  0.10566000000E+00 0.  1.
     999900   -1    0    0    0    0 -0.00000000000E+00 -0.00000000000E+00 -0.74505805969E-08  0.93827000000E+00  0.93827000000E+00 0.  1.
     999902    2    1    2    0    0  0.19671243340E-01 -0.63404522745E-02  0.11362779345E-01  0.10203445828E+01  0.10200719562E+01 0.  0.
     999903    2    3    3    0    0 -0.62705223448E-01 -0.22464565625E-01 -0.10850012694E+00  0.12826107460E+00  0.15557119156E-01 0.  0.
         14    1    1    2    0    0 -0.19671243340E-01  0.63404522745E-02 -0.11362779345E-01  0.23585417190E-01  0.00000000000E+00 0. -1.
     999901    1    3    3    0    0  0.82376466788E-01  0.16124113351E-01  0.11986290628E+00  0.89208350821E+00  0.88000000000E+00 0. -1.
        -11    1    4    4    0    0 -0.10791070254E-01 -0.10582001334E-01 -0.25264012889E-01  0.29444140635E-01  0.51100000000E-03 0.  1.
         11    1    4    4    0    0 -0.51914153193E-01 -0.11882564291E-01 -0.83236114049E-01  0.98816933968E-01  0.51100000000E-03 0. -1.
</event>
<event>
 8    1  0.1122848E+005  0.1043930E+01  0.7957747E-01            NaN
         13   -1    0    0    0    0  0.00000000000E+00  0.00000000000E+00  0.74505805969E-08  0.10566000000E+00  0.10566000000E+00 0.  1.
     999900   -1    0    0    0    0 -0.00000000000E+00 -0.00000000000E+00 -0.74505805969E-08  0.93827000000E+00  0.93827000000E+00 0.  1.
     999902    2    1    2    0    0  0.13516596874E-01 -0.18569096589E-01  0.12850794030E-01  0.10176117051E+01  0.10172713157E+01 0.  0.
     999903    2    3    3    0    0  0.84308310004E-01 -0.25855927961E-01 -0.91372792396E-01  0.12860826274E+00  0.20363641830E-01 0.  0.
         14    1    1    2    0    0 -0.13516596874E-01  0.18569096589E-01 -0.12850794030E-01  0.26318294899E-01  0.00000000000E+00 0. -1.
     999901    1    3    3    0    0 -0.70791713130E-01  0.72868313724E-02  0.10422358643E+00  0.88900344236E+00  0.88000000000E+00 0. -1.
        -11    1    4    4    0    0  0.27765745576E-01 -0.18737424351E-01 -0.32781040357E-01  0.46870944374E-01  0.51100000000E-03 0.  1.
         11    1    4    4    0    0  0.56542564428E-01 -0.71185036107E-02 -0.58591752040E-01  0.81737318367E-01  0.51100000000E-03 0. -1.
</event>
<event>
 8    1  0.1122848E+005  0.1043930E+01  0.7957747E-01            NaN
         13   -1    0    0    0    0  0.00000000000E+00  0.00000000000E+00  0.74505805969E-08  0.10566000000E+00  0.10566000000E+00 0.  1.
     999900   -1    0    0    0    0 -0.00000000000E+00 -0.00000000000E+00 -0.74505805969E-08  0.93827000000E+00  0.93827000000E+00 0. -1.
     999902    2    1    2    0    0 -0.64500583226E-02 -0.11204094556E-01  0.20961454983E-01  0.10193024223E+01  0.10190048629E+01 0.  0.
     999903    2    3    3    0    0 -0.45108900103E-01 -0.80764074934E-01 -0.87855897980E-01  0.12903599410E+00  0.19338570136E-01 0.  0.
         14    1    1    2    0    0  0.64500583226E-02  0.11204094556E-01 -0.20961454983E-01  0.24627577676E-01  0.00000000000E+00 0. -1.
     999901    1    3    3    0    0  0.38658841781E-01  0.69559980377E-01  0.10881735296E+00  0.89026642822E+00  0.88000000000E+00 0.  1.
        -11    1    4    4    0    0 -0.33556096754E-01 -0.44450229651E-01 -0.44339443617E-01  0.71190462329E-01  0.51100000000E-03 0. -1.
         11    1    4    4    0    0 -0.11552803349E-01 -0.36313845283E-01 -0.43516454363E-01  0.57845531770E-01  0.51100000000E-03 0.  1.
</event>
<event>
 8    1  0.1122848E+005  0.1043930E+01  0.7957747E-01            NaN
         13   -1    0    0    0    0  0.00000000000E+00  0.00000000000E+00  0.74505805969E-08  0.10566000000E+00  0.10566000000E+00 0. -1.
     999900   -1    0    0    0    0 -0.00000000000E+00 -0.00000000000E+00 -0.74505805969E-08  0.93827000000E+00  0.93827000000E+00 0.  1.
     999902    2    1    2    0    0 -0.77601677848E-02  0.15199212689E-02 -0.24871068706E-01  0.10178320993E+01  0.10174974604E+01 0.  0.
     999903    2    3    3    0    0 -0.11487445135E+00  0.49133570231E-01 -0.30002271049E-01  0.13004447907E+00  0.20029552456E-01 0.  0.
         14    1    1    2    0    0  0.77601677848E-02 -0.15199212689E-02  0.24871068706E-01  0.26097900745E-01  0.00000000000E+00 0. -1.
     999901    1    3    3    0    0  0.10711428357E+00 -0.47613648963E-01  0.51312023428E-02  0.88778762018E+00  0.88000000000E+00 0.  1.
        -11    1    4    4    0    0 -0.42916993287E-01  0.16233761750E-01 -0.20820247452E-01  0.50389950965E-01  0.51100000000E-03 0.  1.
         11    1    4    4    0    0 -0.71957458067E-01  0.32899808482E-01 -0.91820235969E-02  0.79654528107E-01  0.51100000000E-03 0. -1.
</event>
<event>
 8    1  0.1122848E+005  0.1043930E+01  0.7957747E-01            NaN
         13   -1    0    0    0    0  0.00000000000E+00  0.00000000000E+00  0.74505805969E-08  0.10566000000E+00  0.10566000000E+00 0. -1.
     999900   -1    0    0    0    0 -0.00000000000E+00 -0.00000000000E+00 -0.74505805969E-08  0.93827000000E+00  0.93827000000E+00 0. -1.
     999902    2    1    2    0    0 -0.23330258308E-01 -0.20930648854E-02 -0.31628504895E-03  0.10205039054E+01  0.10202349920E+01 0.  0.
     999903    2    3    3    0    0  0.31918183426E-01  0.22278612910E-01  0.12229077222E+00  0.12995415410E+00  0.20443634033E-01 0.  0.
         14    1    1    2    0    0  0.23330258308E-01  0.20930648854E-02  0.31628504895E-03  0.23426094629E-01  0.00000000000E+00 0.  1.
     999901    1    3    3    0    0 -0.55248441734E-01 -0.24371677795E-01 -0.12260705727E+00  0.89054975127E+00  0.88000000000E+00 0. -1.
        -11    1    4    4    0    0  0.12522046191E-01  0.21030102868E-01  0.70975677633E-01  0.75079123623E-01  0.51100000000E-03 0. -1.
         11    1    4    4    0    0  0.19396137234E-01  0.12485100423E-02  0.51315094584E-01  0.54875030479E-01  0.51100000000E-03 0.  1.
</event>
<event>
 8    1  0.1122848E+005  0.1043930E+01  0.7957747E-01            NaN
         13   -1    0    0    0    0  0.00000000000E+00  0.00000000000E+00  0.74505805969E-08  0.10566000000E+00  0.10566000000E+00 0. -1.
     999900   -1    0    0    0    0 -0.00000000000E+00 -0.00000000000E+00 -0.74505805969E-08  0.93827000000E+00  0.93827000000E+00 0. -1.
     999902    2    1    2    0    0  0.15040666175E-01 -0.34755526668E-02  0.18688255412E-01  0.10196905281E+01  0.10194023843E+01 0.  0.
     999903    2    3    3    0    0  0.10935493853E+00 -0.52761780711E-01 -0.44405096047E-01  0.13103700442E+00  0.21367636420E-01 0.  0.
         14    1    1    2    0    0 -0.15040666175E-01  0.34755526668E-02 -0.18688255412E-01  0.24239471852E-01  0.00000000000E+00 0.  1.
     999901    1    3    3    0    0 -0.94314272357E-01  0.49286228044E-01  0.63093351459E-01  0.88865352373E+00  0.88000000000E+00 0.  1.
        -11    1    4    4    0    0  0.91653041050E-01 -0.35874810103E-01 -0.39636620716E-01  0.10610657264E+00  0.51100000000E-03 0. -1.
         11    1    4    4    0    0  0.17701897482E-01 -0.16886970608E-01 -0.47684753309E-02  0.24930431780E-01  0.51100000000E-03 0.  1.
</event>
<event>
 8    1  0.1122848E+005  0.1043930E+01  0.7957747E-01            NaN
         13   -1    0    0    0    0  0.00000000000E+00  0.00000000000E+00  0.74505805969E-08  0.10566000000E+00  0.10566000000E+00 0.  1.
     999900   -1    0    0    0    0 -0.00000000000E+00 -0.00000000000E+00 -0.74505805969E-08  0.93827000000E+00  0.93827000000E+00 0.  1.
     999902    2    1    2    0    0  0.14018246310E-01 -0.11197760400E-01 -0.13658970522E-01  0.10213807529E+01  0.10211318103E+01 0.  0.
     999903    2    3    3    0    0 -0.13417337021E-01 -0.29910518930E-01  0.12433476941E+00  0.13000813117E+00  0.19191540080E-01 0.  0.
         14    1    1    2    0    0 -0.14018246310E-01  0.11197760400E-01  0.13658970522E-01  0.22549247068E-01  0.00000000000E+00 0. -1.
     999901    1    3    3    0    0  0.27435583332E-01  0.18712758529E-01 -0.13799373993E+00  0.89137262176E+00  0.88000000000E+00 0.  1.
        -11    1    4    4    0    0 -0.13592032211E-01 -0.29014900192E-01  0.87910065526E-01  0.93568416223E-01  0.51100000000E-03 0.  1.
         11    1    4    4    0    0  0.17469518946E-03 -0.89561873783E-03  0.36424703886E-01  0.36439714948E-01  0.51100000000E-03 0. -1.
</event>
<event>
 8    1  0.1298743E+005  0.1043930E+01  0.7957747E-01            NaN
         13   -1    0    0    0    0  0.00000000000E+00  0.00000000000E+00  0.74505805969E-08  0.10566000000E+00  0.10566000000E+00 0.  1.
     999900   -1    0    0    0    0 -0.00000000000E+00 -0.00000000000E+00 -0.74505805969E-08  0.93827000000E+00  0.93827000000E+00 0. -1.
     999902    2    1    2    0    0 -0.20779696878E-01 -0.50149885610E-02 -0.89793392241E-02  0.10207443483E+01  0.10204809896E+01 0.  0.
     999903    2    3    3    0    0 -0.11176452291E-01 -0.33390486882E-01  0.12380825139E+00  0.13027821449E+00  0.20102048615E-01 0.  0.
         14    1    1    2    0    0  0.20779696878E-01  0.50149885610E-02  0.89793392241E-02  0.23185651716E-01  0.00000000000E+00 0. -1.
     999901    1    3    3    0    0 -0.96032445866E-02  0.28375498321E-01 -0.13278759061E+00  0.89046613379E+00  0.88000000000E+00 0. -1.
        -11    1    4    4    0    0 -0.12000280815E-01 -0.22806014534E-01  0.56065949117E-01  0.61707153637E-01  0.51100000000E-03 0. -1.
         11    1    4    4    0    0  0.82382852405E-03 -0.10584472347E-01  0.67742302273E-01  0.68571060853E-01  0.51100000000E-03 0.  1.
</event>
<event>
 8    1  0.1122848E+005  0.1043930E+01  0.7957747E-01            NaN
         13   -1    0    0    0    0  0.00000000000E+00  0.00000000000E+00  0.74505805969E-08  0.10566000000E+00  0.10566000000E+00 0.  1.
     999900   -1    0    0    0    0 -0.00000000000E+00 -0.00000000000E+00 -0.74505805969E-08  0.93827000000E+00  0.93827000000E+00 0. -1.
     999902    2    1    2    0    0 -0.20807914578E-01 -0.52756609599E-02  0.84558039721E-02  0.10208583176E+01  0.10205975711E+01 0.  0.
     999903    2    3    3    0    0 -0.97867777992E-01  0.21318594505E-01 -0.83582089540E-01  0.13231093518E+00  0.22082423687E-01 0.  0.
         14    1    1    2    0    0  0.20807914578E-01  0.52756609599E-02 -0.84558039721E-02  0.23071682393E-01  0.00000000000E+00 0. -1.
     999901    1    3    3    0    0  0.77059863414E-01 -0.26594255464E-01  0.92037893512E-01  0.88854738243E+00  0.88000000000E+00 0.  1.
        -11    1    4    4    0    0 -0.62302322364E-01  0.52623892233E-02 -0.60315906951E-01  0.86876589854E-01  0.51100000000E-03 0. -1.
         11    1    4    4    0    0 -0.35565455627E-01  0.16056205281E-01 -0.23266182589E-01  0.45434345327E-01  0.51100000000E-03 0.  1.
</event>
<event>
 8    1  0.1122848E+005  0.1043930E+01  0.7957747E-01            NaN
         13   -1    0    0    0    0  0.00000000000E+00  0.00000000000E+00  0.74505805969E-08  0.10566000000E+00  0.10566000000E+00 0. -1.
     999900   -1    0    0    0    0 -0.00000000000E+00 -0.00000000000E+00 -0.74505805969E-08  0.93827000000E+00  0.93827000000E+00 0.  1.
     999902    2    1    2    0    0  0.18631148162E-01 -0.13270689631E-01  0.18636403693E-02  0.10209799664E+01  0.10207219934E+01 0.  0.
     999903    2    3    3    0    0 -0.11382645509E+00 -0.28614894172E-01  0.49912105005E-01  0.12963877687E+00  0.23231878818E-01 0.  0.
         14    1    1    2    0    0 -0.18631148162E-01  0.13270689631E-01 -0.18636403693E-02  0.22950033563E-01  0.00000000000E+00 0.  1.
     999901    1    3    3    0    0  0.13245760326E+00  0.15344204541E-01 -0.48048464636E-01  0.89134118957E+00  0.88000000000E+00 0. -1.
        -11    1    4    4    0    0 -0.10419522432E+00 -0.32177910954E-01  0.42866273103E-01  0.11717440512E+00  0.51100000000E-03 0.  1.
         11    1    4    4    0    0 -0.96312307727E-02  0.35630167822E-02  0.70458319026E-02  0.12464371745E-01  0.51100000000E-03 0. -1.
</event>
<event>
 8    1  0.1122848E+005  0.1043930E+01  0.7957747E-01            NaN
         13   -1    0    0    0    0  0.00000000000E+00  0.00000000000E+00  0.74505805969E-08  0.10566000000E+00  0.10566000000E+00 0. -1.
     999900   -1    0    0    0    0 -0.00000000000E+00 -0.00000000000E+00 -0.74505805969E-08  0.93827000000E+00  0.93827000000E+00 0.  1.
     999902    2    1    2    0    0  0.11427177676E-01 -0.13911668190E-01 -0.15688655973E-01  0.10200501167E+01  0.10197705584E+01 0.  0.
     999903    2    3    3    0    0 -0.73272413551E-01  0.45086834627E-01 -0.95731560794E-01  0.13040877844E+00  0.20982099912E-01 0.  0.
         14    1    1    2    0    0 -0.11427177676E-01  0.13911668190E-01  0.15688655973E-01  0.23879883327E-01  0.00000000000E+00 0. -1.
     999901    1    3    3    0    0  0.84699591227E-01 -0.58998502817E-01  0.80042904821E-01  0.88964133824E+00  0.88000000000E+00 0. -1.
        -11    1    4    4    0    0 -0.64810689832E-01  0.44762909225E-01 -0.78517179168E-01  0.11121758901E+00  0.51100000000E-03 0.  1.
         11    1    4    4    0    0 -0.84617237192E-02  0.32392540177E-03 -0.17214381625E-01  0.19191189429E-01  0.51100000000E-03 0. -1.
</event>
<event>
 8    1  0.1122848E+005  0.1043930E+01  0.7957747E-01            NaN
         13   -1    0    0    0    0  0.00000000000E+00  0.00000000000E+00  0.74505805969E-08  0.10566000000E+00  0.10566000000E+00 0.  1.
     999900   -1    0    0    0    0 -0.00000000000E+00 -0.00000000000E+00 -0.74505805969E-08  0.93827000000E+00  0.93827000000E+00 0. -1.
     999902    2    1    2    0    0 -0.14830796582E-01  0.17175845265E-01  0.42161971681E-02  0.10208488712E+01  0.10205879087E+01 0.  0.
     999903    2    3    3    0    0 -0.15883549118E-01 -0.12314779792E+00 -0.29352115490E-01  0.12909853353E+00  0.19677840616E-01 0.  0.
         14    1    1    2    0    0  0.14830796582E-01 -0.17175845265E-01 -0.42161971681E-02  0.23081128794E-01  0.00000000000E+00 0.  1.
     999901    1    3    3    0    0  0.10527525360E-02  0.14032364319E+00  0.33568312658E-01  0.89175033767E+00  0.88000000000E+00 0.  1.
        -11    1    4    4    0    0 -0.15592361030E-01 -0.66599788282E-01 -0.89781636709E-02  0.68989289499E-01  0.51100000000E-03 0. -1.
         11    1    4    4    0    0 -0.29118808800E-03 -0.56548009640E-01 -0.20373951819E-01  0.60109244035E-01  0.51100000000E-03 0.  1.
</event>
<event>
 8    1  0.1122848E+005  0.1043930E+01  0.7957747E-01            NaN
         13   -1    0    0    0    0  0.00000000000E+00  0.00000000000E+00  0.74505805969E-08  0.10566000000E+00  0.10566000000E+00 0.  1.
     999900   -1    0    0    0    0 -0.00000000000E+00 -0.00000000000E+00 -0.74505805969E-08  0.93827000000E+00  0.93827000000E+00 0. -1.
     999902    2    1    2    0    0 -0.19400126485E-01  0.73769506857E-02  0.11563914466E-01  0.10201706139E+01  0.10198939029E+01 0.  0.
     999903    2    3    3    0    0 -0.65907840209E-01 -0.11129674884E+00  0.23556869235E-02  0.13093993190E+00  0.20221444129E-01 0.  0.
         14    1    1    2    0    0  0.19400126485E-01 -0.73769506857E-02 -0.11563914466E-01  0.23759386078E-01  0.00000000000E+00 0. -1.
     999901    1    3    3    0    0  0.46507713724E-01  0.11867369952E+00  0.92082275425E-02  0.88923068202E+00  0.88000000000E+00 0.  1.
        -11    1    4    4    0    0 -0.18460898153E-01 -0.49785235596E-01  0.38475001851E-02  0.53239447993E-01  0.51100000000E-03 0.  1.
         11    1    4    4    0    0 -0.47446942056E-01 -0.61511513240E-01 -0.14918132617E-02  0.77700483907E-01  0.51100000000E-03 0. -1.
</event>
<event>
 8    1  0.1122848E+005  0.1043930E+01  0.7957747E-01            NaN
         13   -1    0    0    0    0  0.00000000000E+00  0.00000000000E+00  0.74505805969E-08  0.10566000000E+00  0.10566000000E+00 0.  1.
     999900   -1    0    0    0    0 -0.00000000000E+00 -0.00000000000E+00 -0.74505805969E-08  0.93827000000E+00  0.93827000000E+00 0. -1.
     999902    2    1    2    0    0 -0.22535553797E-01  0.12137571248E-03 -0.37073434302E-02  0.10210912104E+01  0.10208357603E+01 0.  0.
     999903    2    3    3    0    0 -0.27768779657E-01 -0.12631021376E+00 -0.16400398527E-01  0.13194923794E+00  0.20402281659E-01 0.  0.
         14    1    1    2    0    0  0.22535553797E-01 -0.12137571248E-03  0.37073434302E-02  0.22838789642E-01  0.00000000000E+00 0. -1.
     999901    1    3    3    0    0  0.52332258605E-02  0.12643158947E+00  0.12693055097E-01  0.88914197242E+00  0.88000000000E+00 0.  1.
        -11    1    4    4    0    0 -0.20377833212E-01 -0.66222194662E-01 -0.17237332827E-01  0.71400433586E-01  0.51100000000E-03 0. -1.
         11    1    4    4    0    0 -0.73909464448E-02 -0.60088019099E-01  0.83693429993E-03  0.60548804353E-01  0.51100000000E-03 0.  1.
</event>
<event>
 8    1  0.1122848E+005  0.1043930E+01  0.7957747E-01            NaN
         13   -1    0    0    0    0  0.00000000000E+00  0.00000000000E+00  0.74505805969E-08  0.10566000000E+00  0.10566000000E+00 0.  1.
     999900   -1    0    0    0    0 -0.00000000000E+00 -0.00000000000E+00 -0.74505805969E-08  0.93827000000E+00  0.93827000000E+00 0.  1.
     999902    2    1    2    0    0 -0.13796347909E-01 -0.62354022332E-02 -0.19235918173E-01  0.10194506208E+01  0.10191566751E+01 0.  0.
     999903    2    3    3    0    0  0.46260026523E-01 -0.10805351770E+00  0.49111720668E-01  0.12891982603E+00  0.19819376778E-01 0.  0.
         14    1    1    2    0    0  0.13796347909E-01  0.62354022332E-02  0.19235918173E-01  0.24479379171E-01  0.00000000000E+00 0.  1.
     999901    1    3    3    0    0 -0.60056374431E-01  0.10181811547E+00 -0.68347638842E-01  0.89053079480E+00  0.88000000000E+00 0. -1.
        -11    1    4    4    0    0  0.13374433530E-01 -0.50714390730E-01  0.15101828426E-01  0.54581601682E-01  0.51100000000E-03 0. -1.
         11    1    4    4    0    0  0.32885592992E-01 -0.57339126970E-01  0.34009892242E-01  0.74338224350E-01  0.51100000000E-03 0.  1.
</event>
<event>
 8    1  0.1122848E+005  0.1043930E+01  0.7957747E-01            NaN
         13   -1    0    0    0    0  0.00000000000E+00  0.00000000000E+00  0.74505805969E-08  0.10566000000E+00  0.10566000000E+00 0.  1.
     999900   -1    0    0    0    0 -0.00000000000E+00 -0.00000000000E+00 -0.74505805969E-08  0.93827000000E+00  0.93827000000E+00 0. -1.
     999902    2    1    2    0    0 -0.18219770392E-02  0.29853879252E-02  0.23291067150E-01  0.10203778037E+01  0.10201059535E+01 0.  0.
     999903    2    3    3    0    0  0.51894212068E-01 -0.72933362265E-01  0.95533717580E-01  0.13253317420E+00  0.20641378117E-01 0.  0.
         14    1    1    2    0    0  0.18219770392E-02 -0.29853879252E-02 -0.23291067150E-01  0.23552196296E-01  0.00000000000E+00 0. -1.
     999901    1    3    3    0    0 -0.53716189107E-01  0.75918750190E-01 -0.72242650431E-01  0.88784462951E+00  0.88000000000E+00 0. -1.
        -11    1    4    4    0    0  0.21403967789E-01 -0.14469955207E-01  0.29434014792E-01  0.39167994442E-01  0.51100000000E-03 0. -1.
         11    1    4    4    0    0  0.30490244279E-01 -0.58463407058E-01  0.66099702788E-01  0.93365179755E-01  0.51100000000E-03 0.  1.
</event>
<event>
 8    1  0.1122848E+005  0.1043930E+01  0.7957747E-01            NaN
         13   -1    0    0    0    0  0.00000000000E+00  0.00000000000E+00  0.74505805969E-08  0.10566000000E+00  0.10566000000E+00 0.  1.
     999900   -1    0    0    0    0 -0.00000000000E+00 -0.00000000000E+00 -0.74505805969E-08  0.93827000000E+00  0.93827000000E+00 0.  1.
     999902    2    1    2    0    0 -0.14720540335E-01  0.13631082683E-01  0.12705072525E-01  0.10201830088E+01  0.10199065898E+01 0.  0.
     999903    2    3    3    0    0 -0.10919964899E+00 -0.69492927425E-02  0.72766630228E-01  0.13285147858E+00  0.19536552335E-01 0.  0.
         14    1    1    2    0    0  0.14720540335E-01 -0.13631082683E-01 -0.12705072525E-01  0.23746991193E-01  0.00000000000E+00 0.  1.
     999901    1    3    3    0    0  0.94479108652E-01  0.20580375426E-01 -0.60061557703E-01  0.88733153023E+00  0.88000000000E+00 0.  1.
        -11    1    4    4    0    0 -0.55091515971E-01 -0.13278146015E-01  0.37213695622E-01  0.67797526183E-01  0.51100000000E-03 0. -1.
         11    1    4    4    0    0 -0.54108133015E-01  0.63288532728E-02  0.35552934606E-01  0.65053952395E-01  0.51100000000E-03 0.  1.
</event>
<event>
 8    1  0.1122848E+005  0.1043930E+01  0.7957747E-01            NaN
         13   -1    0    0    0    0  0.00000000000E+00  0.00000000000E+00  0.74505805969E-08  0.10566000000E+00  0.10566000000E+00 0.  1.
     999900   -1    0    0    0    0 -0.00000000000E+00 -0.00000000000E+00 -0.74505805969E-08  0.93827000000E+00  0.93827000000E+00 0.  1.
     999902    2    1    2    0    0  0.21866914459E-01  0.18071467958E-01 -0.15158274653E-01  0.10117661508E+01  0.10112547804E+01 0.  0.
     999903    2    3    3    0    0 -0.77078870676E-01  0.76873258780E-01 -0.54812042701E-01  0.12338541021E+00  0.19208050622E-01 0.  0.
         14    1    1    2    0    0 -0.21866914459E-01 -0.18071467958E-01  0.15158274653E-01  0.32163849156E-01  0.00000000000E+00 0.  1.
     999901    1    3    3    0    0  0.98945785134E-01 -0.58801790823E-01  0.39653768048E-01  0.88838074063E+00  0.88000000000E+00 0.  1.
        -11    1    4    4    0    0 -0.38240734603E-01  0.43974565802E-01 -0.19578905770E-01  0.61479353385E-01  0.51100000000E-03 0.  1.
         11    1    4    4    0    0 -0.38838136072E-01  0.32898692979E-01 -0.35233136931E-01  0.61906056830E-01  0.51100000000E-03 0. -1.
</event>
<event>
 8    1  0.1122848E+005  0.1043930E+01  0.7957747E-01            NaN
         13   -1    0    0    0    0  0.00000000000E+00  0.00000000000E+00  0.74505805969E-08  0.10566000000E+00  0.10566000000E+00 0.  1.
     999900   -1    0    0    0    0 -0.00000000000E+00 -0.00000000000E+00 -0.74505805969E-08  0.93827000000E+00  0.93827000000E+00 0.  1.
     999902    2    1    2    0    0 -0.12839174629E-01 -0.74453121428E-02 -0.17639709784E-01  0.10208770948E+01  0.10206167773E+01 0.  0.
     999903    2    3    3    0    0 -0.10881987737E+00 -0.25879696229E-01  0.66249551457E-01  0.13150117315E+00  0.19799774858E-01 0.  0.
         14    1    1    2    0    0  0.12839174629E-01  0.74453121428E-02  0.17639709784E-01  0.23052905225E-01  0.00000000000E+00 0.  1.
     999901    1    3    3    0    0  0.95980702739E-01  0.18434384087E-01 -0.83889261241E-01  0.88937592163E+00  0.88000000000E+00 0.  1.
        -11    1    4    4    0    0 -0.48357827346E-01 -0.20804282321E-01  0.26257647380E-01  0.58830458059E-01  0.51100000000E-03 0.  1.
         11    1    4    4    0    0 -0.60462050021E-01 -0.50754139086E-02  0.39991904077E-01  0.72670715091E-01  0.51100000000E-03 0. -1.
</event>
<event>
 8    1  0.1122848E+005  0.1043930E+01  0.7957747E-01            NaN
         13   -1    0    0    0    0  0.00000000000E+00  0.00000000000E+00  0.74505805969E-08  0.10566000000E+00  0.10566000000E+00 0.  1.
     999900   -1    0    0    0    0 -0.00000000000E+00 -0.00000000000E+00 -0.74505805969E-08  0.93827000000E+00  0.93827000000E+00 0.  1.
     999902    2    1    2    0    0 -0.17386898755E-01 -0.18134752529E-01 -0.13229795792E-01  0.10155363212E+01  0.10151393100E+01 0.  0.
     999903    2    3    3    0    0  0.10790150736E+00 -0.58410653049E-01 -0.18566294538E-01  0.12573420216E+00  0.20244570155E-01 0.  0.
         14    1    1    2    0    0  0.17386898755E-01  0.18134752529E-01  0.13229795792E-01  0.28393678774E-01  0.00000000000E+00 0. -1.
     999901    1    3    3    0    0 -0.12528840611E+00  0.40275900520E-01  0.53364987459E-02  0.88980211906E+00  0.88000000000E+00 0.  1.
        -11    1    4    4    0    0  0.93302714414E-01 -0.41872987396E-01 -0.14381591466E-01  0.10327552897E+00  0.51100000000E-03 0.  1.
         11    1    4    4    0    0  0.14598792947E-01 -0.16537665652E-01 -0.41847030719E-02  0.22458673191E-01  0.51100000000E-03 0. -1.
</event>
<event>
 8    1  0.1122848E+005  0.1043930E+01  0.7957747E-01            NaN
         13   -1    0    0    0    0  0.00000000000E+00  0.00000000000E+00  0.74505805969E-08  0.10566000000E+00  0.10566000000E+00 0.  1.
     999900   -1    0    0    0    0 -0.00000000000E+00 -0.00000000000E+00 -0.74505805969E-08  0.93827000000E+00  0.93827000000E+00 0. -1.
     999902    2    1    2    0    0  0.18013872597E-02  0.20408106606E-01  0.11278677670E-01  0.10205431579E+01  0.10202751555E+01 0.  0.
     999903    2    3    3    0    0 -0.48910489541E-01 -0.11683006404E+00  0.77262242276E-02  0.12845648623E+00  0.19996861311E-01 0.  0.
         14    1    1    2    0    0 -0.18013872597E-02 -0.20408106606E-01 -0.11278677670E-01  0.23386842054E-01  0.00000000000E+00 0. -1.
     999901    1    3    3    0    0  0.50711876801E-01  0.13723817065E+00  0.35524534422E-02  0.89208667172E+00  0.88000000000E+00 0. -1.
        -11    1    4    4    0    0 -0.17520594342E-01 -0.47113392031E-01  0.12660998104E-01  0.51838257385E-01  0.51100000000E-03 0.  1.
         11    1    4    4    0    0 -0.31389895200E-01 -0.69716672010E-01 -0.49347738768E-02  0.76618228843E-01  0.51100000000E-03 0. -1.
</event>
<event>
 8    1  0.1122848E+005  0.1043930E+01  0.7957747E-01            NaN
         13   -1    0    0    0    0  0.00000000000E+00  0.00000000000E+00  0.74505805969E-08  0.10566000000E+00  0.10566000000E+00 0.  1.
     999900   -1    0    0    0    0 -0.00000000000E+00 -0.00000000000E+00 -0.74505805969E-08  0.93827000000E+00  0.93827000000E+00 0. -1.
     999902    2    1    2    0    0  0.23284544530E-02 -0.56605312683E-02  0.23292317956E-01  0.10198469065E+01  0.10195625128E+01 0.  0.
     999903    2    3    3    0    0  0.62182486659E-01 -0.33882821732E-01  0.11078292940E+00  0.13303598536E+00  0.20273349488E-01 0.  0.
         14    1    1    2    0    0 -0.23284544530E-02  0.56605312683E-02 -0.23292317956E-01  0.24083093450E-01  0.00000000000E+00 0. -1.
     999901    1    3    3    0    0 -0.59854032206E-01  0.28222290464E-01 -0.87490611442E-01  0.88681092119E+00  0.88000000000E+00 0. -1.
        -11    1    4    4    0    0  0.35381351124E-01 -0.13648262798E-01  0.74478363109E-01  0.83578722036E-01  0.51100000000E-03 0. -1.
         11    1    4    4    0    0  0.26801135535E-01 -0.20234558934E-01  0.36304566288E-01  0.49457263324E-01  0.51100000000E-03 0.  1.
</event>
<event>
 8    1  0.1122848E+005  0.1043930E+01  0.7957747E-01            NaN
         13   -1    0    0    0    0  0.00000000000E+00  0.00000000000E+00  0.74505805969E-08  0.10566000000E+00  0.10566000000E+00 0.  1.
     999900   -1    0    0    0    0 -0.00000000000E+00 -0.00000000000E+00 -0.74505805969E-08  0.93827000000E+00  0.93827000000E+00 0.  1.
     999902    2    1    2    0    0  0.10864953785E-01 -0.86518851812E-02  0.16895926389E-01  0.10220582221E+01  0.10218241702E+01 0.  0.
     999903    2    3    3    0    0 -0.99447278167E-01 -0.16052759244E-01 -0.76660340404E-01  0.13021948307E+00  0.30542654875E-01 0.  0.
         14    1    1    2    0    0 -0.10864953785E-01  0.86518851812E-02 -0.16895926389E-01  0.21871777854E-01  0.00000000000E+00 0. -1.
     999901    1    3    3    0    0  0.11031223195E+00  0.74008740623E-02  0.93556266793E-01  0.89183873907E+00  0.88000000000E+00 0. -1.
        -11    1    4    4    0    0 -0.12414096183E-01 -0.76170796511E-02 -0.24194353311E-01  0.28244601955E-01  0.51100000000E-03 0. -1.
         11    1    4    4    0    0 -0.87033181984E-01 -0.84356795924E-02 -0.52465987093E-01  0.10197488112E+00  0.51100000000E-03 0.  1.
</event>
<event>
 8    1  0.1122848E+005  0.1043930E+01  0.7957747E-01            NaN
         13   -1    0    0    0    0  0.00000000000E+00  0.00000000000E+00  0.74505805969E-08  0.10566000000E+00  0.10566000000E+00 0.  1.
     999900   -1    0    0    0    0 -0.00000000000E+00 -0.00000000000E+00 -0.74505805969E-08  0.93827000000E+00  0.93827000000E+00 0. -1.
     999902    2    1    2    0    0 -0.49762763045E-02  0.18567627701E-01 -0.10666354929E-01  0.10219461138E+01  0.10217096301E+01 0.  0.
     999903    2    3    3    0    0  0.21015095275E-01  0.10165729787E+00 -0.83996528202E-01  0.13461485718E+00  0.17026525907E-01 0.  0.
         14    1    1    2    0    0  0.49762763045E-02 -0.18567627701E-01  0.10666354929E-01  0.21983886184E-01  0.00000000000E+00 0.  1.
     999901    1    3    3    0    0 -0.25991371579E-01 -0.83089670170E-01  0.73330173273E-01  0.88733125663E+00  0.88000000000E+00 0.  1.
        -11    1    4    4    0    0 -0.10726336365E-02  0.33921641781E-01 -0.26584137386E-01  0.43113870223E-01  0.51100000000E-03 0. -1.
         11    1    4    4    0    0  0.22087728911E-01  0.67735656090E-01 -0.57412390816E-01  0.91500986960E-01  0.51100000000E-03 0.  1.
</event>
<event>
 8    1  0.1122848E+005  0.1043930E+01  0.7957747E-01            NaN
         13   -1    0    0    0    0  0.00000000000E+00  0.00000000000E+00  0.74505805969E-08  0.10566000000E+00  0.10566000000E+00 0. -1.
     999900   -1    0    0    0    0 -0.00000000000E+00 -0.00000000000E+00 -0.74505805969E-08  0.93827000000E+00  0.93827000000E+00 0. -1.
     999902    2    1    2    0    0  0.18788734545E-01  0.19985031027E-02 -0.12864516208E-01  0.10210716025E+01  0.10208157087E+01 0.  0.
     999903    2    3    3    0    0 -0.95506782585E-01 -0.82835017379E-01 -0.20429489922E-01  0.12960235439E+00  0.19905290305E-01 0.  0.
         14    1    1    2    0    0 -0.18788734545E-01 -0.19985031027E-02  0.12864516208E-01  0.22858397532E-01  0.00000000000E+00 0.  1.
     999901    1    3    3    0    0  0.11429551713E+00  0.84833520482E-01  0.75649737143E-02  0.89146924807E+00  0.88000000000E+00 0.  1.
        -11    1    4    4    0    0 -0.41745319953E-02 -0.77282510120E-02  0.25081822245E-02  0.91490261862E-02  0.51100000000E-03 0. -1.
         11    1    4    4    0    0 -0.91332250590E-01 -0.75106766367E-01 -0.22937672147E-01  0.12045332821E+00  0.51100000000E-03 0.  1.
</event>
<event>
 8    1  0.1122848E+005  0.1043930E+01  0.7957747E-01            NaN
         13   -1    0    0    0    0  0.00000000000E+00  0.00000000000E+00  0.74505805969E-08  0.10566000000E+00  0.10566000000E+00 0. -1.
     999900   -1    0    0    0    0 -0.00000000000E+00 -0.00000000000E+00 -0.74505805969E-08  0.93827000000E+00  0.93827000000E+00 0.  1.
     999902    2    1    2    0    0  0.13685313204E-01 -0.18125415648E-01  0.68088711271E-02  0.10202196812E+01  0.10199441253E+01 0.  0.
     999903    2    3    3    0    0  0.25172413460E-01  0.85439869029E-01  0.93063576190E-01  0.12988401655E+00  0.16595388611E-01 0.  0.
         14    1    1    2    0    0 -0.13685313204E-01  0.18125415648E-01 -0.68088711271E-02  0.23710318765E-01  0.00000000000E+00 0.  1.
     999901    1    3    3    0    0 -0.11487100256E-01 -0.10356528468E+00 -0.86254705063E-01  0.89033566468E+00  0.88000000000E+00 0.  1.
        -11    1    4    4    0    0  0.26200433381E-01  0.67955163988E-01  0.78666658999E-01  0.10720574323E+00  0.51100000000E-03 0. -1.
         11    1    4    4    0    0 -0.10280199208E-02  0.17484705041E-01  0.14396917192E-01  0.22678273324E-01  0.51100000000E-03 0.  1.
</event>
<event>
 8    1  0.1122848E+005  0.1043930E+01  0.7957747E-01            NaN
         13   -1    0    0    0    0  0.00000000000E+00  0.00000000000E+00  0.74505805969E-08  0.10566000000E+00  0.10566000000E+00 0. -1.
     999900   -1    0    0    0    0 -0.00000000000E+00 -0.00000000000E+00 -0.74505805969E-08  0.93827000000E+00  0.93827000000E+00 0. -1.
     999902    2    1    2    0    0  0.38449666154E-02 -0.20915661775E-01  0.16997871803E-01  0.10167054463E+01  0.10163408819E+01 0.  0.
     999903    2    3    3    0    0  0.60884514376E-01  0.10436775223E+00 -0.24835339058E-01  0.12502194792E+00  0.20350469257E-01 0.  0.
         14    1    1    2    0    0 -0.38449666154E-02  0.20915661775E-01 -0.16997871803E-01  0.27224553652E-01  0.00000000000E+00 0.  1.
     999901    1    3    3    0    0 -0.57039547761E-01 -0.12528341401E+00  0.41833210861E-01  0.89168349843E+00  0.88000000000E+00 0. -1.
        -11    1    4    4    0    0  0.31073144514E-01  0.39294830078E-01 -0.30057779820E-02  0.50188841420E-01  0.51100000000E-03 0. -1.
         11    1    4    4    0    0  0.29811369862E-01  0.65072922155E-01 -0.21829561076E-01  0.74833106502E-01  0.51100000000E-03 0.  1.
</event>
<event>
 8    1  0.1122848E+005  0.1043930E+01  0.7957747E-01            NaN
         13   -1    0    0    0    0  0.00000000000E+00  0.00000000000E+00  0.74505805969E-08  0.10566000000E+00  0.10566000000E+00 0.  1.
     999900   -1    0    0    0    0 -0.00000000000E+00 -0.00000000000E+00 -0.74505805969E-08  0.93827000000E+00  0.93827000000E+00 0. -1.
     999902    2    1    2    0    0 -0.16719832815E-01  0.11607168858E-01  0.12774881623E-01  0.10198992535E+01  0.10196161094E+01 0.  0.
     999903    2    3    3    0    0  0.56675430651E-02  0.66162934480E-01  0.11273722306E+00  0.13227884143E+00  0.19451362040E-01 0.  0.
         14    1    1    2    0    0  0.16719832815E-01 -0.11607168858E-01 -0.12774881623E-01  0.24030746529E-01  0.00000000000E+00 0. -1.
     999901    1    3    3    0    0 -0.22387375880E-01 -0.54555765622E-01 -0.99962341433E-01  0.88762041204E+00  0.88000000000E+00 0. -1.
        -11    1    4    4    0    0  0.10521836589E-01  0.46323118369E-01  0.89577523101E-01  0.10139494123E+00  0.51100000000E-03 0. -1.
         11    1    4    4    0    0 -0.48542935234E-02  0.19839816110E-01  0.23159699955E-01  0.30883900206E-01  0.51100000000E-03 0.  1.
</event>
<event>
 7    1  0.1122848E+005  0.1043930E+01  0.7957747E-01            NaN
         13   -1    0    0    0    0  0.00000000000E+00  0.00000000000E+00  0.74505805969E-08  0.10566000000E+00  0.10566000000E+00 0. -1.
     999900   -1    0    0    0    0 -0.00000000000E+00 -0.00000000000E+00 -0.74505805969E-08  0.93827000000E+00  0.93827000000E+00 0. -1.
     999902    2    1    2    0    0 -0.13147201858E-01 -0.95194916187E-02 -0.16199365413E-01  0.10209977285E+01  0.10207401591E+01 0.  0.
         14    1    1    2    0    0  0.13147201858E-01  0.95194916187E-02  0.16199365413E-01  0.22932271522E-01  0.00000000000E+00 0. -1.
     999901    1    3    3    0    0 -0.20551263982E-01 -0.12802897250E+00 -0.43950719212E-01  0.89058713104E+00  0.88000000000E+00 0.  1.
        -11    1    3    3    0    0  0.90716273081E-02  0.90196419042E-02 -0.81442668878E-02  0.15173614145E-01  0.51100000000E-03 0.  1.
         11    1    3    3    0    0 -0.16675651834E-02  0.10948983898E+00  0.35895620687E-01  0.11523698329E+00  0.51100000000E-03 0. -1.
</event>
<event>
 8    1  0.1122848E+005  0.1043930E+01  0.7957747E-01            NaN
         13   -1    0    0    0    0  0.00000000000E+00  0.00000000000E+00  0.74505805969E-08  0.10566000000E+00  0.10566000000E+00 0. -1.
     999900   -1    0    0    0    0 -0.00000000000E+00 -0.00000000000E+00 -0.74505805969E-08  0.93827000000E+00  0.93827000000E+00 0.  1.
     999902    2    1    2    0    0 -0.10067240588E-01  0.10313566811E-01  0.19034872561E-01  0.10200543771E+01  0.10197749198E+01 0.  0.
     999903    2    3    3    0    0 -0.85091478309E-01 -0.90643666936E-01  0.36237441217E-01  0.13094418844E+00  0.19400884078E-01 0.  0.
         14    1    1    2    0    0  0.10067240588E-01 -0.10313566811E-01 -0.19034872561E-01  0.23875622857E-01  0.00000000000E+00 0.  1.
     999901    1    3    3    0    0  0.75024237721E-01  0.10095723375E+00 -0.17202568656E-01  0.88911018871E+00  0.88000000000E+00 0.  1.
        -11    1    4    4    0    0 -0.59433363130E-01 -0.75219777058E-01  0.26591575778E-01  0.99487248112E-01  0.51100000000E-03 0. -1.
         11    1    4    4    0    0 -0.25658115180E-01 -0.15423889878E-01  0.96458654393E-02  0.31456940325E-01  0.51100000000E-03 0.  1.
</event>
<event>
 8    1  0.1122848E+005  0.1043930E+01  0.7957747E-01            NaN
         13   -1    0    0    0    0  0.00000000000E+00  0.00000000000E+00  0.74505805969E-08  0.10566000000E+00  0.10566000000E+00 0. -1.
     999900   -1    0    0    0    0 -0.00000000000E+00 -0.00000000000E+00 -0.74505805969E-08  0.93827000000E+00  0.93827000000E+00 0. -1.
     999902    2    1    2    0    0  0.25567881975E-01  0.15490417739E-02  0.22829153348E-02  0.10182137051E+01  0.10178889043E+01 0.  0.
     999903    2    3    3    0    0  0.73886472394E-01  0.96440783536E-01  0.43635314140E-01  0.13083038902E+00  0.21272388656E-01 0.  0.
         14    1    1    2    0    0 -0.25567881975E-01 -0.15490417739E-02 -0.22829153348E-02  0.25716294864E-01  0.00000000000E+00 0. -1.
     999901    1    3    3    0    0 -0.48318590418E-01 -0.94891741762E-01 -0.41352398805E-01  0.88738331612E+00  0.88000000000E+00 0. -1.
        -11    1    4    4    0    0  0.51598308096E-01  0.63671058441E-01  0.18884848103E-01  0.84102839965E-01  0.51100000000E-03 0.  1.
         11    1    4    4    0    0  0.22288164297E-01  0.32769725095E-01  0.24750466038E-01  0.46727549055E-01  0.51100000000E-03 0. -1.
</event>
<event>
 8    1  0.1122848E+005  0.1043930E+01  0.7957747E-01            NaN
         13   -1    0    0    0    0  0.00000000000E+00  0.00000000000E+00  0.74505805969E-08  0.10566000000E+00  0.10566000000E+00 0. -1.
     999900   -1    0    0    0    0 -0.00000000000E+00 -0.00000000000E+00 -0.74505805969E-08  0.93827000000E+00  0.93827000000E+00 0. -1.
     999902    2    1    2    0    0  0.20455486709E-02  0.51110725989E-02  0.23481611262E-01  0.10198116792E+01  0.10195264428E+01 0.  0.
     999903    2    3    3    0    0 -0.96251902982E-01 -0.84941323073E-01  0.56173644146E-02  0.12959206902E+00  0.16825349252E-01 0.  0.
         14    1    1    2    0    0 -0.20455486709E-02 -0.51110725989E-02 -0.23481611262E-01  0.24118320835E-01  0.00000000000E+00 0.  1.
     999901    1    3    3    0    0  0.98297451653E-01  0.90052395672E-01  0.17864246847E-01  0.89021961014E+00  0.88000000000E+00 0.  1.
        -11    1    4    4    0    0 -0.68465251637E-01 -0.59679881877E-01  0.11592054276E-01  0.91563179422E-01  0.51100000000E-03 0. -1.
         11    1    4    4    0    0 -0.27786651345E-01 -0.25261441196E-01 -0.59746898614E-02  0.38028889600E-01  0.51100000000E-03 0.  1.
</event>
<event>
 8    1  0.1122848E+005  0.1043930E+01  0.7957747E-01            NaN
         13   -1    0    0    0    0  0.00000000000E+00  0.00000000000E+00  0.74505805969E-08  0.10566000000E+00  0.10566000000E+00 0. -1.
     999900   -1    0    0    0    0 -0.00000000000E+00 -0.00000000000E+00 -0.74505805969E-08  0.93827000000E+00  0.93827000000E+00 0. -1.
     999902    2    1    2    0    0 -0.19305156589E-01  0.13181871015E-01  0.60927103790E-02  0.10197727668E+01  0.10194865983E+01 0.  0.
     999903    2    3    3    0    0 -0.33832097581E-01  0.81878294944E-01 -0.94707457876E-01  0.13123975980E+00  0.20142143999E-01 0.  0.
         14    1    1    2    0    0  0.19305156589E-01 -0.13181871015E-01 -0.60927103790E-02  0.24157233164E-01  0.00000000000E+00 0. -1.
     999901    1    3    3    0    0  0.14526940992E-01 -0.68696423929E-01  0.10080016826E+00  0.88853300704E+00  0.88000000000E+00 0.  1.
        -11    1    4    4    0    0 -0.23173573197E-01  0.43257308404E-01 -0.39353799914E-01  0.62906215224E-01  0.51100000000E-03 0. -1.
         11    1    4    4    0    0 -0.10658524384E-01  0.38620986540E-01 -0.55353657962E-01  0.68333544574E-01  0.51100000000E-03 0.  1.
</event>
<event>
 8    1  0.1122848E+005  0.1043930E+01  0.7957747E-01            NaN
         13   -1    0    0    0    0  0.00000000000E+00  0.00000000000E+00  0.74505805969E-08  0.10566000000E+00  0.10566000000E+00 0. -1.
     999900   -1    0    0    0    0 -0.00000000000E+00 -0.00000000000E+00 -0.74505805969E-08  0.93827000000E+00  0.93827000000E+00 0. -1.
     999902    2    1    2    0    0  0.15756775867E-01 -0.39554320294E-02 -0.19283490274E-01  0.10187154323E+01  0.10184033374E+01 0.  0.
     999903    2    3    3    0    0  0.21497506390E-01  0.49714729223E-01  0.11377530970E+00  0.12707756495E+00  0.16437436985E-01 0.  0.
         14    1    1    2    0    0 -0.15756775867E-01  0.39554320294E-02  0.19283490274E-01  0.25214567722E-01  0.00000000000E+00 0. -1.
     999901    1    3    3    0    0 -0.57407305231E-02 -0.53670161252E-01 -0.13305879997E+00  0.89163786732E+00  0.88000000000E+00 0. -1.
        -11    1    4    4    0    0  0.22934259001E-01  0.49518379811E-01  0.10680927654E+00  0.11994387375E+00  0.51100000000E-03 0. -1.
         11    1    4    4    0    0 -0.14367526108E-02  0.19634941199E-03  0.69660331617E-02  0.71336912020E-02  0.51100000000E-03 0.  1.
</event>
<event>
 8    1  0.1122848E+005  0.1043930E+01  0.7957747E-01            NaN
         13   -1    0    0    0    0  0.00000000000E+00  0.00000000000E+00  0.74505805969E-08  0.10566000000E+00  0.10566000000E+00 0. -1.
     999900   -1    0    0    0    0 -0.00000000000E+00 -0.00000000000E+00 -0.74505805969E-08  0.93827000000E+00  0.93827000000E+00 0. -1.
     999902    2    1    2    0    0  0.13681784195E-01 -0.11838259426E-01  0.99958562917E-02  0.10232599069E+01  0.10230511152E+01 0.  0.
     999903    2    3    3    0    0  0.12174421387E-01  0.61560704313E-01 -0.11380554509E+00  0.13156687285E+00  0.20498855760E-01 0.  0.
         14    1    1    2    0    0 -0.13681784195E-01  0.11838259426E-01 -0.99958562917E-02  0.20670093082E-01  0.00000000000E+00 0. -1.
     999901    1    3    3    0    0  0.15073628073E-02 -0.73398963739E-01  0.12380140138E+00  0.89169303407E+00  0.88000000000E+00 0.  1.
        -11    1    4    4    0    0  0.10804331274E-02  0.11242576641E-01 -0.39900252418E-01  0.41471124042E-01  0.51100000000E-03 0. -1.
         11    1    4    4    0    0  0.11093988260E-01  0.50318127672E-01 -0.73905292670E-01  0.90095748809E-01  0.51100000000E-03 0.  1.
</event>
<event>
 8    1  0.1122848E+005  0.1043930E+01  0.7957747E-01            NaN
         13   -1    0    0    0    0  0.00000000000E+00  0.00000000000E+00  0.74505805969E-08  0.10566000000E+00  0.10566000000E+00 0. -1.
     999900   -1    0    0    0    0 -0.00000000000E+00 -0.00000000000E+00 -0.74505805969E-08  0.93827000000E+00  0.93827000000E+00 0.  1.
     999902    2    1    2    0    0  0.18468495912E-01 -0.15492519043E-01 -0.62215198609E-02  0.10190340004E+01  0.10187298382E+01 0.  0.
     999903    2    3    3    0    0 -0.33684067716E-01 -0.11591583959E+00 -0.45943044032E-01  0.13089970159E+00  0.21280749431E-01 0.  0.
         14    1    1    2    0    0 -0.18468495912E-01  0.15492519043E-01  0.62215198609E-02  0.24895999617E-01  0.00000000000E+00 0. -1.
     999901    1    3    3    0    0  0.52152563628E-01  0.10042332055E+00  0.39721524171E-01  0.88813429879E+00  0.88000000000E+00 0. -1.
        -11    1    4    4    0    0 -0.18648412672E-01 -0.31088394294E-01 -0.16733121915E-01  0.39931316595E-01  0.51100000000E-03 0. -1.
         11    1    4    4    0    0 -0.15035655044E-01 -0.84827445298E-01 -0.29209922117E-01  0.90968385000E-01  0.51100000000E-03 0.  1.
</event>
<event>
 8    1  0.1122848E+005  0.1043930E+01  0.7957747E-01            NaN
         13   -1    0    0    0    0  0.00000000000E+00  0.00000000000E+00  0.74505805969E-08  0.10566000000E+00  0.10566000000E+00 0.  1.
     999900   -1    0    0    0    0 -0.00000000000E+00 -0.00000000000E+00 -0.74505805969E-08  0.93827000000E+00  0.93827000000E+00 0.  1.
     999902    2    1    2    0    0  0.19164078054E-01  0.11551615312E-04 -0.12253943559E-01  0.10211831067E+01  0.10209297313E+01 0.  0.
     999903    2    3    3    0    0 -0.59930036157E-01 -0.83366356581E-01  0.76008354838E-01  0.12933222917E+00  0.20198931967E-01 0.  0.
         14    1    1    2    0    0 -0.19164078054E-01 -0.11551615312E-04  0.12253943559E-01  0.22746893279E-01  0.00000000000E+00 0. -1.
     999901    1    3    3    0    0  0.79094114211E-01  0.83377908196E-01 -0.88262298396E-01  0.89185087756E+00  0.88000000000E+00 0.  1.
        -11    1    4    4    0    0 -0.18464189121E-01 -0.36027800963E-01  0.39562680171E-01  0.56607380309E-01  0.51100000000E-03 0.  1.
         11    1    4    4    0    0 -0.41465847037E-01 -0.47338555617E-01  0.36445674667E-01  0.72724848857E-01  0.51100000000E-03 0. -1.
</event>
<event>
 8    1  0.1122848E+005  0.1043930E+01  0.7957747E-01            NaN
         13   -1    0    0    0    0  0.00000000000E+00  0.00000000000E+00  0.74505805969E-08  0.10566000000E+00  0.10566000000E+00 0.  1.
     999900   -1    0    0    0    0 -0.00000000000E+00 -0.00000000000E+00 -0.74505805969E-08  0.93827000000E+00  0.93827000000E+00 0.  1.
     999902    2    1    2    0    0 -0.53371260476E-02 -0.16723870727E-01  0.15879143589E-01  0.10202589213E+01  0.10199842874E+01 0.  0.
     999903    2    3    3    0    0  0.10753040261E+00  0.61463156189E-01 -0.27556530797E-01  0.12855328150E+00  0.20641626432E-01 0.  0.
         14    1    1    2    0    0  0.53371260476E-02  0.16723870727E-01 -0.15879143589E-01  0.23671078717E-01  0.00000000000E+00 0. -1.
     999901    1    3    3    0    0 -0.11286752866E+00 -0.78187026916E-01  0.43435674386E-01  0.89170563978E+00  0.88000000000E+00 0.  1.
        -11    1    4    4    0    0  0.25817217215E-01  0.12068265028E-01 -0.15113175170E-01  0.32262066119E-01  0.51100000000E-03 0.  1.
         11    1    4    4    0    0  0.81713185395E-01  0.49394891161E-01 -0.12443355627E-01  0.96291215385E-01  0.51100000000E-03 0. -1.
</event>
<event>
 8    1  0.1122848E+005  0.1043930E+01  0.7957747E-01            NaN
         13   -1    0    0    0    0  0.00000000000E+00  0.00000000000E+00  0.74505805969E-08  0.10566000000E+00  0.10566000000E+00 0. -1.
     999900   -1    0    0    0    0 -0.00000000000E+00 -0.00000000000E+00 -0.74505805969E-08  0.93827000000E+00  0.93827000000E+00 0. -1.
     999902    2    1    2    0    0 -0.22000203987E-01 -0.83394950039E-02  0.36640369939E-02  0.10201186305E+01  0.10198406929E+01 0.  0.
     999903    2    3    3    0    0 -0.11905708763E+00 -0.25635126318E-01  0.51494052449E-01  0.13332277576E+00  0.17075575664E-01 0.  0.
         14    1    1    2    0    0  0.22000203987E-01  0.83394950039E-02 -0.36640369939E-02  0.23811369542E-01  0.00000000000E+00 0.  1.
     999901    1    3    3    0    0  0.97056883639E-01  0.17295631314E-01 -0.47830015455E-01  0.88679585469E+00  0.88000000000E+00 0. -1.
        -11    1    4    4    0    0 -0.65205682104E-01 -0.12308282457E-01  0.37022197047E-01  0.75988018733E-01  0.51100000000E-03 0. -1.
         11    1    4    4    0    0 -0.53851405522E-01 -0.13326843860E-01  0.14471855401E-01  0.57334757031E-01  0.51100000000E-03 0.  1.
</event>
<event>
 8    1  0.1122848E+005  0.1043930E+01  0.7957747E-01            NaN
         13   -1    0    0    0    0  0.00000000000E+00  0.00000000000E+00  0.74505805969E-08  0.10566000000E+00  0.10566000000E+00 0.  1.
     999900   -1    0    0    0    0 -0.00000000000E+00 -0.00000000000E+00 -0.74505805969E-08  0.93827000000E+00  0.93827000000E+00 0.  1.
     999902    2    1    2    0    0 -0.81372712970E-02 -0.10112560056E-01  0.19495328608E-01  0.10205089220E+01  0.10202401252E+01 0.  0.
     999903    2    3    3    0    0 -0.43852433441E-01 -0.77106339510E-01  0.98370774333E-01  0.13372536602E+00  0.18364116195E-01 0.  0.
         14    1    1    2    0    0  0.81372712970E-02  0.10112560056E-01 -0.19495328608E-01  0.23421077955E-01  0.00000000000E+00 0. -1.
     999901    1    3    3    0    0  0.35715162144E-01  0.66993779454E-01 -0.78875445725E-01  0.88678355602E+00  0.88000000000E+00 0.  1.
        -11    1    4    4    0    0 -0.16580732340E-01 -0.47348524388E-01  0.52358120956E-01  0.72515083932E-01  0.51100000000E-03 0.  1.
         11    1    4    4    0    0 -0.27271701101E-01 -0.29757815122E-01  0.46012653377E-01  0.61210282091E-01  0.51100000000E-03 0. -1.
</event>
<event>
 8    1  0.1122848E+005  0.1043930E+01  0.7957747E-01            NaN
         13   -1    0    0    0    0  0.00000000000E+00  0.00000000000E+00  0.74505805969E-08  0.10566000000E+00  0.10566000000E+00 0.  1.
     999900   -1    0    0    0    0 -0.00000000000E+00 -0.00000000000E+00 -0.74505805969E-08  0.93827000000E+00  0.93827000000E+00 0. -1.
     999902    2    1    2    0    0  0.18424475316E-01  0.72810946260E-02  0.10305606450E-01  0.10215988300E+01  0.10213547319E+01 0.  0.
     999903    2    3    3    0    0  0.12381972789E-01 -0.38024152250E-01 -0.12250946618E+00  0.13045971585E+00  0.20298245043E-01 0.  0.
         14    1    1    2    0    0 -0.18424475316E-01 -0.72810946260E-02 -0.10305606450E-01  0.22331170008E-01  0.00000000000E+00 0. -1.
     999901    1    3    3    0    0  0.60425025267E-02  0.45305246876E-01  0.13281507263E+00  0.89113911414E+00  0.88000000000E+00 0.  1.
        -11    1    4    4    0    0  0.13488797258E-01 -0.22017607424E-01 -0.96492275700E-01  0.99888653404E-01  0.51100000000E-03 0. -1.
         11    1    4    4    0    0 -0.11068244682E-02 -0.16006544827E-01 -0.26017190481E-01  0.30571062448E-01  0.51100000000E-03 0.  1.
</event>
<event>
 8    1  0.1122848E+005  0.1043930E+01  0.7957747E-01            NaN
         13   -1    0    0    0    0  0.00000000000E+00  0.00000000000E+00  0.74505805969E-08  0.10566000000E+00  0.10566000000E+00 0.  1.
     999900   -1    0    0    0    0 -0.00000000000E+00 -0.00000000000E+00 -0.74505805969E-08  0.93827000000E+00  0.93827000000E+00 0.  1.
     999902    2    1    2    0    0 -0.22403894988E-01 -0.51573930626E-02 -0.57905409517E-03  0.10209328585E+01  0.10206738132E+01 0.  0.
     999903    2    3    3    0    0 -0.26337495141E-01  0.39244385712E-01  0.12140859008E+00  0.13140041024E+00  0.17094929249E-01 0.  0.
         14    1    1    2    0    0  0.22403894988E-01  0.51573930626E-02  0.57905409517E-03  0.22997141507E-01  0.00000000000E+00 0.  1.
     999901    1    3    3    0    0  0.39336001537E-02 -0.44401778775E-01 -0.12198764417E+00  0.88953244826E+00  0.88000000000E+00 0.  1.
        -11    1    4    4    0    0 -0.10007166857E-01  0.25864430358E-01  0.83763191511E-01  0.88236304996E-01  0.51100000000E-03 0.  1.
         11    1    4    4    0    0 -0.16330328284E-01  0.13379955355E-01  0.37645398566E-01  0.43164105242E-01  0.51100000000E-03 0. -1.
</event>
<event>
 8    1  0.1338037E+005  0.1043930E+01  0.7957747E-01            NaN
         13   -1    0    0    0    0  0.00000000000E+00  0.00000000000E+00  0.74505805969E-08  0.10566000000E+00  0.10566000000E+00 0.  1.
     999900   -1    0    0    0    0 -0.00000000000E+00 -0.00000000000E+00 -0.74505805969E-08  0.93827000000E+00  0.93827000000E+00 0.  1.
     999902    2    1    2    0    0 -0.87146671520E-02  0.16683256196E-01  0.15040946407E-01  0.10198362969E+01  0.10195516495E+01 0.  0.
     999903    2    3    3    0    0  0.57876342846E-01  0.97028462501E-01 -0.61935087947E-01  0.13033361299E+00  0.19664739018E-01 0.  0.
         14    1    1    2    0    0  0.87146671520E-02 -0.16683256196E-01 -0.15040946407E-01  0.24093703113E-01  0.00000000000E+00 0. -1.
     999901    1    3    3    0    0 -0.66591009998E-01 -0.80345206305E-01  0.76976034354E-01  0.88950268389E+00  0.88000000000E+00 0. -1.
        -11    1    4    4    0    0  0.26261737780E-01  0.62836892271E-01 -0.37047922283E-01  0.77530404152E-01  0.51100000000E-03 0.  1.
         11    1    4    4    0    0  0.31614605065E-01  0.34191570230E-01 -0.24887165664E-01  0.52803208842E-01  0.51100000000E-03 0. -1.
</event>
<event>
 8    1  0.1122848E+005  0.1043930E+01  0.7957747E-01            NaN
         13   -1    0    0    0    0  0.00000000000E+00  0.00000000000E+00  0.74505805969E-08  0.10566000000E+00  0.10566000000E+00 0. -1.
     999900   -1    0    0    0    0 -0.00000000000E+00 -0.00000000000E+00 -0.74505805969E-08  0.93827000000E+00  0.93827000000E+00 0. -1.
     999902    2    1    2    0    0 -0.23177036303E-01 -0.24988512502E-02  0.31661533370E-02  0.10204046138E+01  0.10201333893E+01 0.  0.
     999903    2    3    3    0    0  0.81829711943E-01  0.20004867391E-01  0.95821216707E-01  0.12904733677E+00  0.19370417647E-01 0.  0.
         14    1    1    2    0    0  0.23177036303E-01  0.24988512502E-02 -0.31661533370E-02  0.23525386210E-01  0.00000000000E+00 0.  1.
     999901    1    3    3    0    0 -0.10500674825E+00 -0.22503718641E-01 -0.92655063370E-01  0.89135727702E+00  0.88000000000E+00 0. -1.
        -11    1    4    4    0    0  0.40197701829E-01  0.11659525184E-02  0.37830555800E-01  0.55214370872E-01  0.51100000000E-03 0. -1.
         11    1    4    4    0    0  0.41632010114E-01  0.18838914872E-01  0.57990660908E-01  0.73832965897E-01  0.51100000000E-03 0.  1.
</event>
<event>
 8    1  0.1122848E+005  0.1043930E+01  0.7957747E-01            NaN
         13   -1    0    0    0    0  0.00000000000E+00  0.00000000000E+00  0.74505805969E-08  0.10566000000E+00  0.10566000000E+00 0.  1.
     999900   -1    0    0    0    0 -0.00000000000E+00 -0.00000000000E+00 -0.74505805969E-08  0.93827000000E+00  0.93827000000E+00 0. -1.
     999902    2    1    2    0    0 -0.10950092874E-01 -0.78745306778E-02 -0.18949656619E-01  0.10206705449E+01  0.10204054875E+01 0.  0.
     999903    2    3    3    0    0 -0.67866195782E-01  0.85561278543E-01  0.67101400583E-01  0.12973032371E+00  0.20020140230E-01 0.  0.
         14    1    1    2    0    0  0.10950092874E-01  0.78745306778E-02  0.18949656619E-01  0.23259455138E-01  0.00000000000E+00 0.  1.
     999901    1    3    3    0    0  0.56916102908E-01 -0.93435809221E-01 -0.86051057201E-01  0.89094022115E+00  0.88000000000E+00 0. -1.
        -11    1    4    4    0    0 -0.37343867965E-01  0.59670447770E-01  0.36164245493E-01  0.79140638011E-01  0.51100000000E-03 0.  1.
         11    1    4    4    0    0 -0.30522327817E-01  0.25890830773E-01  0.30937155090E-01  0.50589685703E-01  0.51100000000E-03 0. -1.
</event>
<event>
 8    1  0.1122848E+005  0.1043930E+01  0.7957747E-01            NaN
         13   -1    0    0    0    0  0.00000000000E+00  0.00000000000E+00  0.74505805969E-08  0.10566000000E+00  0.10566000000E+00 0. -1.
     999900   -1    0    0    0    0 -0.00000000000E+00 -0.00000000000E+00 -0.74505805969E-08  0.93827000000E+00  0.93827000000E+00 0.  1.
     999902    2    1    2    0    0  0.14428940478E-01  0.10041094137E-01  0.16757927629E-01  0.10196432540E+01  0.10193539715E+01 0.  0.
     999903    2    3    3    0    0 -0.77944303322E-01 -0.40813686868E-02 -0.98533874402E-01  0.12721708909E+00  0.19577828319E-01 0.  0.
         14    1    1    2    0    0 -0.14428940478E-01 -0.10041094137E-01 -0.16757927629E-01  0.24286746040E-01  0.00000000000E+00 0.  1.
     999901    1    3    3    0    0  0.92373243800E-01  0.14122462823E-01  0.11529180203E+00  0.89242616487E+00  0.88000000000E+00 0. -1.
        -11    1    4    4    0    0 -0.49825267596E-01  0.65294629691E-02 -0.57770873492E-01  0.76569746785E-01  0.51100000000E-03 0.  1.
         11    1    4    4    0    0 -0.28119035726E-01 -0.10610831656E-01 -0.40763000909E-01  0.50647342307E-01  0.51100000000E-03 0. -1.
</event>
<event>
 8    1  0.1122848E+005  0.1043930E+01  0.7957747E-01            NaN
         13   -1    0    0    0    0  0.00000000000E+00  0.00000000000E+00  0.74505805969E-08  0.10566000000E+00  0.10566000000E+00 0.  1.
     999900   -1    0    0    0    0 -0.00000000000E+00 -0.00000000000E+00 -0.74505805969E-08  0.93827000000E+00  0.93827000000E+00 0.  1.
     999902    2    1    2    0    0 -0.20616501023E-03  0.16726539197E-01  0.13008663223E-01  0.10227393196E+01  0.10225197655E+01 0.  0.
     999903    2    3    3    0    0  0.11141839164E+00 -0.62086249485E-01  0.28906700292E-01  0.13205180711E+00  0.18257110042E-01 0.  0.
         14    1    1    2    0    0  0.20616501023E-03 -0.16726539197E-01 -0.13008663223E-01  0.21190680413E-01  0.00000000000E+00 0. -1.
     999901    1    3    3    0    0 -0.11162455665E+00  0.78812788683E-01 -0.15898037070E-01  0.89068751248E+00  0.88000000000E+00 0. -1.
        -11    1    4    4    0    0  0.64264041336E-01 -0.40964993552E-01  0.92632723550E-02  0.76772827493E-01  0.51100000000E-03 0.  1.
         11    1    4    4    0    0  0.47154350305E-01 -0.21121255933E-01  0.19643427937E-01  0.55278979613E-01  0.51100000000E-03 0. -1.
</event>
<event>
 8    1  0.1122848E+005  0.1043930E+01  0.7957747E-01            NaN
         13   -1    0    0    0    0  0.00000000000E+00  0.00000000000E+00  0.74505805969E-08  0.10566000000E+00  0.10566000000E+00 0. -1.
     999900   -1    0    0    0    0 -0.00000000000E+00 -0.00000000000E+00 -0.74505805969E-08  0.93827000000E+00  0.93827000000E+00 0. -1.
     999902    2    1    2    0    0  0.66915620237E-02 -0.22969751644E-01  0.20645535884E-02  0.10199164856E+01  0.10196337522E+01 0.  0.
     999903    2    3    3    0    0  0.64775925860E-01 -0.76237585500E-01  0.84263723507E-01  0.13257891793E+00  0.21649581186E-01 0.  0.
         14    1    1    2    0    0 -0.66915620237E-02  0.22969751644E-01 -0.20645535884E-02  0.24013514412E-01  0.00000000000E+00 0. -1.
     999901    1    3    3    0    0 -0.58084363837E-01  0.53267833857E-01 -0.82199169919E-01  0.88733756766E+00  0.88000000000E+00 0. -1.
        -11    1    4    4    0    0  0.58046456931E-01 -0.70115898440E-01  0.66890115984E-01  0.11296096279E+00  0.51100000000E-03 0.  1.
         11    1    4    4    0    0  0.67294689293E-02 -0.61216870600E-02  0.17373607524E-01  0.19617955141E-01  0.51100000000E-03 0. -1.
</event>
<event>
 8    1  0.1122848E+005  0.1043930E+01  0.7957747E-01            NaN
         13   -1    0    0    0    0  0.00000000000E+00  0.00000000000E+00  0.74505805969E-08  0.10566000000E+00  0.10566000000E+00 0.  1.
     999900   -1    0    0    0    0 -0.00000000000E+00 -0.00000000000E+00 -0.74505805969E-08  0.93827000000E+00  0.93827000000E+00 0. -1.
     999902    2    1    2    0    0 -0.17512549811E-01 -0.39381917491E-02 -0.15404408102E-01  0.10202763630E+01  0.10200021384E+01 0.  0.
     999903    2    3    3    0    0  0.48774257566E-01  0.11787764201E+00 -0.65004609943E-02  0.12937102656E+00  0.20507067896E-01 0.  0.
         14    1    1    2    0    0  0.17512549811E-01  0.39381917491E-02  0.15404408102E-01  0.23653637017E-01  0.00000000000E+00 0.  1.
     999901    1    3    3    0    0 -0.66286807377E-01 -0.12181583376E+00 -0.89039471080E-02  0.89090533642E+00  0.88000000000E+00 0.  1.
        -11    1    4    4    0    0  0.34156895007E-02  0.19148795912E-01  0.50649986706E-02  0.20106184426E-01  0.51100000000E-03 0.  1.
         11    1    4    4    0    0  0.45358568065E-01  0.98728846099E-01 -0.11565459665E-01  0.10926484214E+00  0.51100000000E-03 0. -1.
</event>
<event>
 8    1  0.1122848E+005  0.1043930E+01  0.7957747E-01            NaN
         13   -1    0    0    0    0  0.00000000000E+00  0.00000000000E+00  0.74505805969E-08  0.10566000000E+00  0.10566000000E+00 0.  1.
     999900   -1    0    0    0    0 -0.00000000000E+00 -0.00000000000E+00 -0.74505805969E-08  0.93827000000E+00  0.93827000000E+00 0.  1.
     999902    2    1    2    0    0 -0.84284868542E-02  0.21588337263E-01  0.64334932234E-02  0.10198782738E+01  0.10195946292E+01 0.  0.
     999903    2    3    3    0    0 -0.20946927901E-01  0.11309624635E+00 -0.62433932453E-01  0.13236876340E+00  0.19848397320E-01 0.  0.
         14    1    1    2    0    0  0.84284868542E-02 -0.21588337263E-01 -0.64334932234E-02  0.24051726164E-01  0.00000000000E+00 0. -1.
     999901    1    3    3    0    0  0.12518441047E-01 -0.91507909086E-01  0.68867425677E-01  0.88750951043E+00  0.88000000000E+00 0. -1.
        -11    1    4    4    0    0 -0.13364191903E-01  0.82227392921E-01 -0.34940112924E-01  0.90338355000E-01  0.51100000000E-03 0. -1.
         11    1    4    4    0    0 -0.75827359980E-02  0.30868853427E-01 -0.27493819529E-01  0.42030408402E-01  0.51100000000E-03 0.  1.
</event>
<event>
 8    1  0.1122848E+005  0.1043930E+01  0.7957747E-01            NaN
         13   -1    0    0    0    0  0.00000000000E+00  0.00000000000E+00  0.74505805969E-08  0.10566000000E+00  0.10566000000E+00 0. -1.
     999900   -1    0    0    0    0 -0.00000000000E+00 -0.00000000000E+00 -0.74505805969E-08  0.93827000000E+00  0.93827000000E+00 0.  1.
     999902    2    1    2    0    0 -0.90448952430E-02  0.98914583411E-02  0.19085291127E-01  0.10206083488E+01  0.10203418556E+01 0.  0.
     999903    2    3    3    0    0 -0.18787213466E-01 -0.10859603226E+00  0.68788359950E-01  0.13122395875E+00  0.18488679555E-01 0.  0.
         14    1    1    2    0    0  0.90448952430E-02 -0.98914583411E-02 -0.19085291127E-01  0.23321651216E-01  0.00000000000E+00 0.  1.
     999901    1    3    3    0    0  0.97423182233E-02  0.11848749060E+00 -0.49703068823E-01  0.88938439004E+00  0.88000000000E+00 0.  1.
        -11    1    4    4    0    0 -0.19822720794E-01 -0.74117248714E-01  0.41435686680E-01  0.87197959083E-01  0.51100000000E-03 0. -1.
         11    1    4    4    0    0  0.10355073277E-02 -0.34478783547E-01  0.27352673270E-01  0.44025999662E-01  0.51100000000E-03 0.  1.
</event>
<event>
 8    1  0.1122848E+005  0.1043930E+01  0.7957747E-01            NaN
         13   -1    0    0    0    0  0.00000000000E+00  0.00000000000E+00  0.74505805969E-08  0.10566000000E+00  0.10566000000E+00 0.  1.
     999900   -1    0    0    0    0 -0.00000000000E+00 -0.00000000000E+00 -0.74505805969E-08  0.93827000000E+00  0.93827000000E+00 0.  1.
     999902    2    1    2    0    0  0.81158452424E-04 -0.17956278688E-01  0.15634720677E-01  0.10201207786E+01  0.10198428918E+01 0.  0.
     999903    2    3    3    0    0 -0.17603446190E-01 -0.12714370474E+00 -0.24926802774E-01  0.13226950932E+00  0.19961829220E-01 0.  0.
         14    1    1    2    0    0 -0.81158452424E-04  0.17956278688E-01 -0.15634720677E-01  0.23809221358E-01  0.00000000000E+00 0. -1.
     999901    1    3    3    0    0  0.17684604643E-01  0.10918742606E+00  0.40561523452E-01  0.88785126932E+00  0.88000000000E+00 0. -1.
        -11    1    4    4    0    0 -0.14250138921E-01 -0.80005188674E-01 -0.24947744193E-01  0.85009103838E-01  0.51100000000E-03 0.  1.
         11    1    4    4    0    0 -0.33533072696E-02 -0.47138516070E-01  0.20941418719E-04  0.47260405483E-01  0.51100000000E-03 0. -1.
</event>
<event>
 8    1  0.1122848E+005  0.1043930E+01  0.7957747E-01            NaN
         13   -1    0    0    0    0  0.00000000000E+00  0.00000000000E+00  0.74505805969E-08  0.10566000000E+00  0.10566000000E+00 0.  1.
     999900   -1    0    0    0    0 -0.00000000000E+00 -0.00000000000E+00 -0.74505805969E-08  0.93827000000E+00  0.93827000000E+00 0. -1.
     999902    2    1    2    0    0  0.52171611008E-02 -0.13863229570E-01  0.19730768212E-01  0.10192579284E+01  0.10189592796E+01 0.  0.
     999903    2    3    3    0    0 -0.12069708395E+00  0.24559848341E-01  0.34608593423E-01  0.12934103354E+00  0.18983571725E-01 0.  0.
         14    1    1    2    0    0 -0.52171611008E-02  0.13863229570E-01 -0.19730768212E-01  0.24672071626E-01  0.00000000000E+00 0. -1.
     999901    1    3    3    0    0  0.12591424505E+00 -0.38423077911E-01 -0.14877825210E-01  0.88991689483E+00  0.88000000000E+00 0. -1.
        -11    1    4    4    0    0 -0.98311131693E-01  0.15096759087E-01  0.33685843493E-01  0.10501422724E+00  0.51100000000E-03 0. -1.
         11    1    4    4    0    0 -0.22385952255E-01  0.94630892535E-02  0.92274992994E-03  0.24326806305E-01  0.51100000000E-03 0.  1.
</event>
<event>
 8    1  0.1122848E+005  0.1043930E+01  0.7957747E-01            NaN
         13   -1    0    0    0    0  0.00000000000E+00  0.00000000000E+00  0.74505805969E-08  0.10566000000E+00  0.10566000000E+00 0.  1.
     999900   -1    0    0    0    0 -0.00000000000E+00 -0.00000000000E+00 -0.74505805969E-08  0.93827000000E+00  0.93827000000E+00 0. -1.
     999902    2    1    2    0    0 -0.20929801633E-01  0.78389121258E-02 -0.58139849680E-02  0.10208365472E+01  0.10205753028E+01 0.  0.
     999903    2    3    3    0    0  0.27730280090E-01 -0.86823441434E-01 -0.91098201398E-01  0.13032985870E+00  0.19486183706E-01 0.  0.
         14    1    1    2    0    0  0.20929801633E-01 -0.78389121258E-02  0.58139849680E-02  0.23093452772E-01  0.00000000000E+00 0.  1.
     999901    1    3    3    0    0 -0.48660081723E-01  0.94662353560E-01  0.85284216430E-01  0.89050668852E+00  0.88000000000E+00 0.  1.
        -11    1    4    4    0    0  0.37790932098E-02 -0.84225391669E-02 -0.19111074169E-01  0.21230049185E-01  0.51100000000E-03 0. -1.
         11    1    4    4    0    0  0.23951186880E-01 -0.78400902268E-01 -0.71987127228E-01  0.10909980952E+00  0.51100000000E-03 0.  1.
</event>
<event>
 8    1  0.1122848E+005  0.1043930E+01  0.7957747E-01            NaN
         13   -1    0    0    0    0  0.00000000000E+00  0.00000000000E+00  0.74505805969E-08  0.10566000000E+00  0.10566000000E+00 0. -1.
     999900   -1    0    0    0    0 -0.00000000000E+00 -0.00000000000E+00 -0.74505805969E-08  0.93827000000E+00  0.93827000000E+00 0.  1.
     999902    2    1    2    0    0 -0.15864877206E-01  0.25362713027E-02 -0.15938016136E-01  0.10212993270E+01  0.10210485630E+01 0.  0.
     999903    2    3    3    0    0 -0.11533441738E+00  0.19039930545E-01  0.58611224994E-01  0.13241004846E+00  0.20799001212E-01 0.  0.
         14    1    1    2    0    0  0.15864877206E-01 -0.25362713027E-02  0.15938016136E-01  0.22630672974E-01  0.00000000000E+00 0.  1.
     999901    1    3    3    0    0  0.99469540174E-01 -0.16503659243E-01 -0.74549241130E-01  0.88888927856E+00  0.88000000000E+00 0. -1.
        -11    1    4    4    0    0 -0.53364928813E-01  0.14631663046E-01  0.18019208391E-01  0.58196685324E-01  0.51100000000E-03 0. -1.
         11    1    4    4    0    0 -0.61969488566E-01  0.44082674995E-02  0.40592016603E-01  0.74213363139E-01  0.51100000000E-03 0.  1.
</event>
<event>
 8    1  0.1122848E+005  0.1043930E+01  0.7957747E-01            NaN
         13   -1    0    0    0    0  0.00000000000E+00  0.00000000000E+00  0.74505805969E-08  0.10566000000E+00  0.10566000000E+00 0. -1.
     999900   -1    0    0    0    0 -0.00000000000E+00 -0.00000000000E+00 -0.74505805969E-08  0.93827000000E+00  0.93827000000E+00 0. -1.
     999902    2    1    2    0    0 -0.40577229117E-02 -0.12895630418E-01 -0.19683616799E-01  0.10200509889E+01  0.10197714513E+01 0.  0.
     999903    2    3    3    0    0 -0.85830408442E-01  0.43698843326E-01 -0.87322617850E-01  0.13187040987E+00  0.22093381157E-01 0.  0.
         14    1    1    2    0    0  0.40577229117E-02  0.12895630418E-01  0.19683616799E-01  0.23879011065E-01  0.00000000000E+00 0.  1.
     999901    1    3    3    0    0  0.81772685531E-01 -0.56594473745E-01  0.67639001051E-01  0.88818057906E+00  0.88000000000E+00 0. -1.
        -11    1    4    4    0    0 -0.20564003929E-01  0.79407252115E-02 -0.89634240670E-02  0.23802047527E-01  0.51100000000E-03 0.  1.
         11    1    4    4    0    0 -0.65266404513E-01  0.35758118115E-01 -0.78359193783E-01  0.10806836235E+00  0.51100000000E-03 0. -1.
</event>
<event>
 8    1  0.1122848E+005  0.1043930E+01  0.7957747E-01            NaN
         13   -1    0    0    0    0  0.00000000000E+00  0.00000000000E+00  0.74505805969E-08  0.10566000000E+00  0.10566000000E+00 0.  1.
     999900   -1    0    0    0    0 -0.00000000000E+00 -0.00000000000E+00 -0.74505805969E-08  0.93827000000E+00  0.93827000000E+00 0. -1.
     999902    2    1    2    0    0  0.47735892369E-02 -0.15315220029E-01 -0.17288354551E-01  0.10203454644E+01  0.10200728583E+01 0.  0.
     999903    2    3    3    0    0 -0.93584798462E-01  0.86043951538E-01 -0.10221363487E-01  0.12905539010E+00  0.19726665787E-01 0.  0.
         14    1    1    2    0    0 -0.47735892369E-02  0.15315220029E-01  0.17288354551E-01  0.23584535650E-01  0.00000000000E+00 0.  1.
     999901    1    3    3    0    0  0.98358387699E-01 -0.10135917157E+00 -0.70669910634E-02  0.89129007425E+00  0.88000000000E+00 0. -1.
        -11    1    4    4    0    0 -0.47174067137E-01  0.38917716092E-01 -0.14224060632E-01  0.62789857923E-01  0.51100000000E-03 0.  1.
         11    1    4    4    0    0 -0.46410731325E-01  0.47126235447E-01  0.40026971446E-02  0.66265532179E-01  0.51100000000E-03 0. -1.
</event>
<event>
 8    1  0.1122848E+005  0.1043930E+01  0.7957747E-01            NaN
         13   -1    0    0    0    0  0.00000000000E+00  0.00000000000E+00  0.74505805969E-08  0.10566000000E+00  0.10566000000E+00 0.  1.
     999900   -1    0    0    0    0 -0.00000000000E+00 -0.00000000000E+00 -0.74505805969E-08  0.93827000000E+00  0.93827000000E+00 0. -1.
     999902    2    1    2    0    0 -0.13271783893E-01 -0.99144825993E-02  0.17390979065E-01  0.10199116036E+01  0.10196287539E+01 0.  0.
     999903    2    3    3    0    0 -0.30863855092E-01 -0.75922193540E-01  0.10305338756E+00  0.13311706871E+00  0.19580507478E-01 0.  0.
         14    1    1    2    0    0  0.13271783893E-01  0.99144825993E-02 -0.17390979065E-01  0.24018396402E-01  0.00000000000E+00 0. -1.
     999901    1    3    3    0    0  0.17592071199E-01  0.66007710941E-01 -0.85662408491E-01  0.88679453488E+00  0.88000000000E+00 0.  1.
        -11    1    4    4    0    0 -0.33271236803E-01 -0.69361983285E-01  0.90860835808E-01  0.11905466193E+00  0.51100000000E-03 0. -1.
         11    1    4    4    0    0  0.24073817114E-02 -0.65602102551E-02  0.12192551747E-01  0.14062406778E-01  0.51100000000E-03 0.  1.
</event>
<event>
 8    1  0.1122848E+005  0.1043930E+01  0.7957747E-01            NaN
         13   -1    0    0    0    0  0.00000000000E+00  0.00000000000E+00  0.74505805969E-08  0.10566000000E+00  0.10566000000E+00 0.  1.
     999900   -1    0    0    0    0 -0.00000000000E+00 -0.00000000000E+00 -0.74505805969E-08  0.93827000000E+00  0.93827000000E+00 0. -1.
     999902    2    1    2    0    0  0.23408236521E-01 -0.14986150006E-01 -0.43522750411E-02  0.10157968785E+01  0.10154072217E+01 0.  0.
     999903    2    3    3    0    0 -0.59151112116E-01 -0.73541603987E-01 -0.82483990718E-01  0.12655599309E+00  0.17481106386E-01 0.  0.
         14    1    1    2    0    0 -0.23408236521E-01  0.14986150006E-01  0.43522750411E-02  0.28133121530E-01  0.00000000000E+00 0.  1.
     999901    1    3    3    0    0  0.82559348637E-01  0.58555453981E-01  0.78131715676E-01  0.88924088538E+00  0.88000000000E+00 0.  1.
        -11    1    4    4    0    0 -0.51230449705E-01 -0.52597133423E-01 -0.66224999165E-01  0.98878860515E-01  0.51100000000E-03 0.  1.
         11    1    4    4    0    0 -0.79206624115E-02 -0.20944470564E-01 -0.16258991553E-01  0.27677132574E-01  0.51100000000E-03 0. -1.
</event>
<event>
 8    1  0.1122848E+005  0.1043930E+01  0.7957747E-01            NaN
         13   -1    0    0    0    0  0.00000000000E+00  0.00000000000E+00  0.74505805969E-08  0.10566000000E+00  0.10566000000E+00 0. -1.
     999900   -1    0    0    0    0 -0.00000000000E+00 -0.00000000000E+00 -0.74505805969E-08  0.93827000000E+00  0.93827000000E+00 0.  1.
     999902    2    1    2    0    0  0.22166535036E-01  0.96169196978E-02 -0.97025212201E-02  0.10178919636E+01  0.10175588780E+01 0.  0.
     999903    2    3    3    0    0 -0.92551096366E-01 -0.78556518446E-01  0.23387155051E-01  0.12546290941E+00  0.21381080103E-01 0.  0.
         14    1    1    2    0    0 -0.22166535036E-01 -0.96169196978E-02  0.97025212201E-02  0.26038036370E-01  0.00000000000E+00 0.  1.
     999901    1    3    3    0    0  0.11471763140E+00  0.88173438143E-01 -0.33089676271E-01  0.89242905422E+00  0.88000000000E+00 0. -1.
        -11    1    4    4    0    0 -0.14144867190E-01 -0.21655288551E-01  0.96641319486E-02  0.27616758633E-01  0.51100000000E-03 0. -1.
         11    1    4    4    0    0 -0.78406229175E-01 -0.56901229895E-01  0.13723023102E-01  0.97846150773E-01  0.51100000000E-03 0.  1.
</event>
<event>
 8    1  0.1122848E+005  0.1043930E+01  0.7957747E-01            NaN
         13   -1    0    0    0    0  0.00000000000E+00  0.00000000000E+00  0.74505805969E-08  0.10566000000E+00  0.10566000000E+00 0. -1.
     999900   -1    0    0    0    0 -0.00000000000E+00 -0.00000000000E+00 -0.74505805969E-08  0.93827000000E+00  0.93827000000E+00 0. -1.
     999902    2    1    2    0    0 -0.11456873888E-01 -0.24312835157E-02 -0.19438292679E-01  0.10212359849E+01  0.10209837994E+01 0.  0.
     999903    2    3    3    0    0  0.42853576640E-01 -0.12202776852E+00 -0.12355778762E-01  0.13145898685E+00  0.20039826188E-01 0.  0.
         14    1    1    2    0    0  0.11456873888E-01  0.24312835157E-02  0.19438292679E-01  0.22694015094E-01  0.00000000000E+00 0. -1.
     999901    1    3    3    0    0 -0.54310450529E-01  0.11959648501E+00 -0.70825139169E-02  0.88977699805E+00  0.88000000000E+00 0. -1.
        -11    1    4    4    0    0  0.16324649318E-01 -0.40110588387E-01  0.50763276053E-02  0.43604858664E-01  0.51100000000E-03 0.  1.
         11    1    4    4    0    0  0.26528927323E-01 -0.81917180136E-01 -0.17432106367E-01  0.87854128188E-01  0.51100000000E-03 0. -1.
</event>
<event>
 8    1  0.1122848E+005  0.1043930E+01  0.7957747E-01            NaN
         13   -1    0    0    0    0  0.00000000000E+00  0.00000000000E+00  0.74505805969E-08  0.10566000000E+00  0.10566000000E+00 0.  1.
     999900   -1    0    0    0    0 -0.00000000000E+00 -0.00000000000E+00 -0.74505805969E-08  0.93827000000E+00  0.93827000000E+00 0. -1.
     999902    2    1    2    0    0 -0.77451191978E-02  0.20819628451E-01  0.10408384200E-02  0.10216920337E+01  0.10214499912E+01 0.  0.
     999903    2    3    3    0    0  0.12853400355E+00 -0.71542211601E-02 -0.98461181005E-02  0.13069648861E+00  0.20308942486E-01 0.  0.
         14    1    1    2    0    0  0.77451191978E-02 -0.20819628451E-01 -0.10408384200E-02  0.22237966293E-01  0.00000000000E+00 0.  1.
     999901    1    3    3    0    0 -0.13627912275E+00  0.27973849611E-01  0.10886956521E-01  0.89099554510E+00  0.88000000000E+00 0.  1.
        -11    1    4    4    0    0  0.10052105398E+00 -0.13752066108E-01 -0.95954336054E-02  0.10191140801E+00  0.51100000000E-03 0.  1.
         11    1    4    4    0    0  0.28012949570E-01  0.65978449476E-02 -0.25068449512E-03  0.28785080602E-01  0.51100000000E-03 0. -1.
</event>
<event>
 8    1  0.1122848E+005  0.1043930E+01  0.7957747E-01            NaN
         13   -1    0    0    0    0  0.00000000000E+00  0.00000000000E+00  0.74505805969E-08  0.10566000000E+00  0.10566000000E+00 0.  1.
     999900   -1    0    0    0    0 -0.00000000000E+00 -0.00000000000E+00 -0.74505805969E-08  0.93827000000E+00  0.93827000000E+00 0.  1.
     999902    2    1    2    0    0  0.51808433562E-02 -0.22488841342E-01 -0.50485135409E-02  0.10203063548E+01  0.10200328333E+01 0.  0.
     999903    2    3    3    0    0 -0.40125263575E-01 -0.50566431994E-01  0.11215279187E+00  0.13093739853E+00  0.19983813136E-01 0.  0.
         14    1    1    2    0    0 -0.51808433562E-02  0.22488841342E-01  0.50485135409E-02  0.23623645184E-01  0.00000000000E+00 0. -1.
     999901    1    3    3    0    0  0.45306106931E-01  0.28077590652E-01 -0.11720130541E+00  0.88936895629E+00  0.88000000000E+00 0.  1.
        -11    1    4    4    0    0 -0.29025959546E-01 -0.24461193829E-01  0.51524511684E-01  0.63999162153E-01  0.51100000000E-03 0. -1.
         11    1    4    4    0    0 -0.11099304029E-01 -0.26105238166E-01  0.60628280185E-01  0.66938236373E-01  0.51100000000E-03 0.  1.
</event>
<event>
 8    1  0.1122848E+005  0.1043930E+01  0.7957747E-01            NaN
         13   -1    0    0    0    0  0.00000000000E+00  0.00000000000E+00  0.74505805969E-08  0.10566000000E+00  0.10566000000E+00 0.  1.
     999900   -1    0    0    0    0 -0.00000000000E+00 -0.00000000000E+00 -0.74505805969E-08  0.93827000000E+00  0.93827000000E+00 0. -1.
     999902    2    1    2    0    0 -0.59117474893E-02  0.13539645070E-01  0.20049126214E-01  0.10190254179E+01  0.10187210433E+01 0.  0.
     999903    2    3    3    0    0 -0.10006891271E+00 -0.64604072813E-01 -0.40692456806E-01  0.12848538382E+00  0.25790391643E-01 0.  0.
         14    1    1    2    0    0  0.59117474893E-02 -0.13539645070E-01 -0.20049126214E-01  0.24904582088E-01  0.00000000000E+00 0. -1.
     999901    1    3    3    0    0  0.94157165218E-01  0.78143717883E-01  0.60741583020E-01  0.89054003409E+00  0.88000000000E+00 0.  1.
        -11    1    4    4    0    0 -0.55164459698E-01 -0.35604700042E-01 -0.35853235744E-01  0.74809945283E-01  0.51100000000E-03 0. -1.
         11    1    4    4    0    0 -0.44904453009E-01 -0.28999372771E-01 -0.48392210620E-02  0.53675438541E-01  0.51100000000E-03 0.  1.
</event>
<event>
 8    1  0.1122848E+005  0.1043930E+01  0.7957747E-01            NaN
         13   -1    0    0    0    0  0.00000000000E+00  0.00000000000E+00  0.74505805969E-08  0.10566000000E+00  0.10566000000E+00 0. -1.
     999900   -1    0    0    0    0 -0.00000000000E+00 -0.00000000000E+00 -0.74505805969E-08  0.93827000000E+00  0.93827000000E+00 0. -1.
     999902    2    1    2    0    0 -0.15928570602E-01  0.16616707127E-01  0.88960743278E-02  0.10192525922E+01  0.10189538126E+01 0.  0.
     999903    2    3    3    0    0  0.38961670464E-03  0.23137574326E-01  0.12779061503E+00  0.13108328585E+00  0.17801331206E-01 0.  0.
         14    1    1    2    0    0  0.15928570602E-01 -0.16616707127E-01 -0.88960743278E-02  0.24677407798E-01  0.00000000000E+00 0. -1.
     999901    1    3    3    0    0 -0.16318187307E-01 -0.65208671991E-02 -0.11889454070E+00  0.88816930636E+00  0.88000000000E+00 0. -1.
        -11    1    4    4    0    0  0.83189753052E-02  0.71222297356E-02  0.58835732043E-01  0.59848441856E-01  0.51100000000E-03 0. -1.
         11    1    4    4    0    0 -0.79293586006E-02  0.16015344591E-01  0.68954882982E-01  0.71234843990E-01  0.51100000000E-03 0.  1.
</event>
<event>
 8    1  0.1122848E+005  0.1043930E+01  0.7957747E-01            NaN
         13   -1    0    0    0    0  0.00000000000E+00  0.00000000000E+00  0.74505805969E-08  0.10566000000E+00  0.10566000000E+00 0. -1.
     999900   -1    0    0    0    0 -0.00000000000E+00 -0.00000000000E+00 -0.74505805969E-08  0.93827000000E+00  0.93827000000E+00 0. -1.
     999902    2    1    2    0    0 -0.81941147915E-02  0.10508808582E-01  0.19920607258E-01  0.10199631652E+01  0.10196815431E+01 0.  0.
     999903    2    3    3    0    0 -0.26312666379E-01  0.12734187364E+00  0.11312286293E-01  0.13201477136E+00  0.19789462861E-01 0.  0.
         14    1    1    2    0    0  0.81941147915E-02 -0.10508808582E-01 -0.19920607258E-01  0.23966834762E-01  0.00000000000E+00 0.  1.
     999901    1    3    3    0    0  0.18118551587E-01 -0.11683306506E+00  0.86083209642E-02  0.88794839388E+00  0.88000000000E+00 0. -1.
        -11    1    4    4    0    0 -0.10612494454E-01  0.94178947286E-01  0.99060758717E-02  0.95292657695E-01  0.51100000000E-03 0.  1.
         11    1    4    4    0    0 -0.15700171925E-01  0.33162926358E-01  0.14062104217E-02  0.36722113663E-01  0.51100000000E-03 0. -1.
</event>
<event>
 8    1  0.1122848E+005  0.1043930E+01  0.7957747E-01            NaN
         13   -1    0    0    0    0  0.00000000000E+00  0.00000000000E+00  0.74505805969E-08  0.10566000000E+00  0.10566000000E+00 0.  1.
     999900   -1    0    0    0    0 -0.00000000000E+00 -0.00000000000E+00 -0.74505805969E-08  0.93827000000E+00  0.93827000000E+00 0. -1.
     999902    2    1    2    0    0 -0.21628776350E-02  0.15951669911E-01 -0.15684394654E-01  0.10214548126E+01  0.10212075206E+01 0.  0.
     999903    2    3    3    0    0  0.10662246827E+00 -0.49255081191E-01  0.51484579484E-01  0.12982829721E+00  0.20256136548E-01 0.  0.
         14    1    1    2    0    0  0.21628776350E-02 -0.15951669911E-01  0.15684394654E-01  0.22475187391E-01  0.00000000000E+00 0.  1.
     999901    1    3    3    0    0 -0.10878534591E+00  0.65206751102E-01 -0.67168974137E-01  0.89162651540E+00  0.88000000000E+00 0. -1.
        -11    1    4    4    0    0  0.72660873395E-01 -0.25438514837E-01  0.26595785348E-01  0.81451319688E-01  0.51100000000E-03 0.  1.
         11    1    4    4    0    0  0.33961594880E-01 -0.23816566355E-01  0.24888794136E-01  0.48376977523E-01  0.51100000000E-03 0. -1.
</event>
<event>
 8    1  0.1122848E+005  0.1043930E+01  0.7957747E-01            NaN
         13   -1    0    0    0    0  0.00000000000E+00  0.00000000000E+00  0.74505805969E-08  0.10566000000E+00  0.10566000000E+00 0. -1.
     999900   -1    0    0    0    0 -0.00000000000E+00 -0.00000000000E+00 -0.74505805969E-08  0.93827000000E+00  0.93827000000E+00 0.  1.
     999902    2    1    2    0    0  0.20197549056E-01  0.87908210450E-02 -0.86761828701E-02  0.10202552102E+01  0.10199804892E+01 0.  0.
     999903    2    3    3    0    0 -0.29095751269E-01  0.12676964137E+00  0.92124862430E-03  0.13096282736E+00  0.15274447187E-01 0.  0.
         14    1    1    2    0    0 -0.20197549056E-01 -0.87908210450E-02  0.86761828701E-02  0.23674789792E-01  0.00000000000E+00 0. -1.
     999901    1    3    3    0    0  0.49293300324E-01 -0.11797882032E+00 -0.95974314944E-02  0.88929238285E+00  0.88000000000E+00 0. -1.
        -11    1    4    4    0    0 -0.30357542081E-01  0.10990368431E+00  0.66850413400E-04  0.11402046209E+00  0.51100000000E-03 0. -1.
         11    1    4    4    0    0  0.12617908126E-02  0.16865957056E-01  0.85439821090E-03  0.16942365265E-01  0.51100000000E-03 0.  1.
</event>
<event>
 8    1  0.1122848E+005  0.1043930E+01  0.7957747E-01            NaN
         13   -1    0    0    0    0  0.00000000000E+00  0.00000000000E+00  0.74505805969E-08  0.10566000000E+00  0.10566000000E+00 0.  1.
     999900   -1    0    0    0    0 -0.00000000000E+00 -0.00000000000E+00 -0.74505805969E-08  0.93827000000E+00  0.93827000000E+00 0.  1.
     999902    2    1    2    0    0 -0.97939712827E-02 -0.19020703191E-01  0.11843040164E-01  0.10194766439E+01  0.10191833304E+01 0.  0.
     999903    2    3    3    0    0  0.78209920045E-01 -0.96778959945E-01 -0.33710242768E-01  0.13050750330E+00  0.20319184751E-01 0.  0.
         14    1    1    2    0    0  0.97939712827E-02  0.19020703191E-01 -0.11843040164E-01  0.24453356083E-01  0.00000000000E+00 0. -1.
     999901    1    3    3    0    0 -0.88003891328E-01  0.77758256754E-01  0.45553282932E-01  0.88896914062E+00  0.88000000000E+00 0. -1.
        -11    1    4    4    0    0  0.17814570901E-01 -0.10264544637E-01 -0.53066859802E-02  0.21240100049E-01  0.51100000000E-03 0. -1.
         11    1    4    4    0    0  0.60395349144E-01 -0.86514415308E-01 -0.28403556787E-01  0.10926740325E+00  0.51100000000E-03 0.  1.
</event>
<event>
 8    1  0.1122848E+005  0.1043930E+01  0.7957747E-01            NaN
         13   -1    0    0    0    0  0.00000000000E+00  0.00000000000E+00  0.74505805969E-08  0.10566000000E+00  0.10566000000E+00 0. -1.
     999900   -1    0    0    0    0 -0.00000000000E+00 -0.00000000000E+00 -0.74505805969E-08  0.93827000000E+00  0.93827000000E+00 0.  1.
     999902    2    1    2    0    0  0.24694617659E-01 -0.37897479363E-02 -0.26353315479E-02  0.10188076732E+01  0.10184978860E+01 0.  0.
     999903    2    3    3    0    0  0.57151442707E-01  0.11470488850E+00 -0.11992725935E-01  0.13022341430E+00  0.19768998641E-01 0.  0.
         14    1    1    2    0    0 -0.24694617659E-01  0.37897479363E-02  0.26353315479E-02  0.25122326786E-01  0.00000000000E+00 0.  1.
     999901    1    3    3    0    0 -0.32456825048E-01 -0.11849463644E+00  0.93573943874E-02  0.88858425891E+00  0.88000000000E+00 0.  1.
        -11    1    4    4    0    0  0.21763573299E-01  0.42721135834E-01 -0.14112761767E-01  0.49981794040E-01  0.51100000000E-03 0. -1.
         11    1    4    4    0    0  0.35387869408E-01  0.71983752668E-01  0.21200358319E-02  0.80241620262E-01  0.51100000000E-03 0.  1.
</event>
<event>
 8    1  0.1192193E+005  0.1043930E+01  0.7957747E-01            NaN
         13   -1    0    0    0    0  0.00000000000E+00  0.00000000000E+00  0.74505805969E-08  0.10566000000E+00  0.10566000000E+00 0. -1.
     999900   -1    0    0    0    0 -0.00000000000E+00 -0.00000000000E+00 -0.74505805969E-08  0.93827000000E+00  0.93827000000E+00 0. -1.
     999902    2    1    2    0    0  0.18217457892E-01  0.31714000674E-02  0.11206300598E-01  0.10223079112E+01  0.10220792291E+01 0.  0.
     999903    2    3    3    0    0 -0.68576565600E-01 -0.29529216230E-01 -0.10427256684E+00  0.12993024361E+00  0.20841786116E-01 0.  0.
         14    1    1    2    0    0 -0.18217457892E-01 -0.31714000674E-02 -0.11206300598E-01  0.21622088787E-01  0.00000000000E+00 0.  1.
     999901    1    3    3    0    0  0.86794023491E-01  0.32700616297E-01  0.11547886743E+00  0.89237766761E+00  0.88000000000E+00 0.  1.
        -11    1    4    4    0    0 -0.48740979702E-01 -0.23536162040E-01 -0.58596618718E-01  0.79771291027E-01  0.51100000000E-03 0. -1.
         11    1    4    4    0    0 -0.19835585898E-01 -0.59930541897E-02 -0.45675948117E-01  0.50158952579E-01  0.51100000000E-03 0.  1.
</event>
<event>
 8    1  0.1122848E+005  0.1043930E+01  0.7957747E-01            NaN
         13   -1    0    0    0    0  0.00000000000E+00  0.00000000000E+00  0.74505805969E-08  0.10566000000E+00  0.10566000000E+00 0. -1.
     999900   -1    0    0    0    0 -0.00000000000E+00 -0.00000000000E+00 -0.74505805969E-08  0.93827000000E+00  0.93827000000E+00 0. -1.
     999902    2    1    2    0    0  0.38931165213E-02  0.18286815385E-01  0.14268841707E-01  0.10204105651E+01  0.10201394795E+01 0.  0.
     999903    2    3    3    0    0  0.32286886358E-01  0.28568057512E-02 -0.12327647961E+00  0.12914011976E+00  0.20723796416E-01 0.  0.
         14    1    1    2    0    0 -0.38931165213E-02 -0.18286815385E-01 -0.14268841707E-01  0.23519434875E-01  0.00000000000E+00 0.  1.
     999901    1    3    3    0    0 -0.28393769836E-01  0.15430009633E-01  0.13754532131E+00  0.89127044536E+00  0.88000000000E+00 0.  1.
        -11    1    4    4    0    0  0.26798257875E-01  0.98000386543E-02 -0.79299803014E-01  0.84278747391E-01  0.51100000000E-03 0. -1.
         11    1    4    4    0    0  0.54886284825E-02 -0.69432329031E-02 -0.43976676594E-01  0.44861372371E-01  0.51100000000E-03 0.  1.
</event>
<event>
 8    1  0.1122848E+005  0.1043930E+01  0.7957747E-01            NaN
         13   -1    0    0    0    0  0.00000000000E+00  0.00000000000E+00  0.74505805969E-08  0.10566000000E+00  0.10566000000E+00 0. -1.
     999900   -1    0    0    0    0 -0.00000000000E+00 -0.00000000000E+00 -0.74505805969E-08  0.93827000000E+00  0.93827000000E+00 0.  1.
     999902    2    1    2    0    0 -0.11275803532E-01  0.17158632801E-01 -0.14267366302E-01  0.10189275968E+01  0.10186207966E+01 0.  0.
     999903    2    3    3    0    0 -0.12635759489E+00 -0.12605159420E-01  0.20223277131E-01  0.13026607151E+00  0.20859928577E-01 0.  0.
         14    1    1    2    0    0  0.11275803532E-01 -0.17158632801E-01  0.14267366302E-01  0.25002403206E-01  0.00000000000E+00 0. -1.
     999901    1    3    3    0    0  0.11508179135E+00  0.29763792221E-01 -0.34490643433E-01  0.88866152528E+00  0.88000000000E+00 0.  1.
        -11    1    4    4    0    0 -0.57497773737E-01  0.24597347455E-02  0.26263936806E-02  0.57612527669E-01  0.51100000000E-03 0. -1.
         11    1    4    4    0    0 -0.68859821150E-01 -0.15064894165E-01  0.17596883450E-01  0.72653543844E-01  0.51100000000E-03 0.  1.
</event>
<event>
 8    1  0.1122848E+005  0.1043930E+01  0.7957747E-01            NaN
         13   -1    0    0    0    0  0.00000000000E+00  0.00000000000E+00  0.74505805969E-08  0.10566000000E+00  0.10566000000E+00 0.  1.
     999900   -1    0    0    0    0 -0.00000000000E+00 -0.00000000000E+00 -0.74505805969E-08  0.93827000000E+00  0.93827000000E+00 0. -1.
     999902    2    1    2    0    0  0.75575865851E-02 -0.10344696747E-01  0.20289907270E-01  0.10199339544E+01  0.10196516372E+01 0.  0.
     999903    2    3    3    0    0 -0.74057985291E-01  0.46091141588E-01  0.96070215568E-01  0.13112083541E+00  0.18820431493E-01 0.  0.
         14    1    1    2    0    0 -0.75575865851E-02  0.10344696747E-01 -0.20289907270E-01  0.23996045566E-01  0.00000000000E+00 0. -1.
     999901    1    3    3    0    0  0.81615571876E-01 -0.56435838335E-01 -0.75780308297E-01  0.88881311902E+00  0.88000000000E+00 0. -1.
        -11    1    4    4    0    0 -0.28349439938E-01  0.25087420789E-01  0.51445323211E-01  0.63874500608E-01  0.51100000000E-03 0.  1.
         11    1    4    4    0    0 -0.45708545353E-01  0.21003720799E-01  0.44624892357E-01  0.67246334804E-01  0.51100000000E-03 0. -1.
</event>
<event>
 8    1  0.1122848E+005  0.1043930E+01  0.7957747E-01            NaN
         13   -1    0    0    0    0  0.00000000000E+00  0.00000000000E+00  0.74505805969E-08  0.10566000000E+00  0.10566000000E+00 0.  1.
     999900   -1    0    0    0    0 -0.00000000000E+00 -0.00000000000E+00 -0.74505805969E-08  0.93827000000E+00  0.93827000000E+00 0.  1.
     999902    2    1    2    0    0  0.92019532514E-02 -0.19165980651E-01  0.10538530747E-01  0.10202008747E+01  0.10199248763E+01 0.  0.
     999903    2    3    3    0    0 -0.84666296791E-01  0.44461312647E-01  0.85457883797E-01  0.12976694099E+00  0.19779255182E-01 0.  0.
         14    1    1    2    0    0 -0.92019532514E-02  0.19165980651E-01 -0.10538530747E-01  0.23729125316E-01  0.00000000000E+00 0. -1.
     999901    1    3    3    0    0  0.93868250042E-01 -0.63627293297E-01 -0.74919353050E-01  0.89043393370E+00  0.88000000000E+00 0.  1.
        -11    1    4    4    0    0 -0.28990102617E-02  0.62495225088E-02  0.98238140056E-02  0.12009547648E-01  0.51100000000E-03 0. -1.
         11    1    4    4    0    0 -0.81767286529E-01  0.38211790138E-01  0.75634069791E-01  0.11775739334E+00  0.51100000000E-03 0.  1.
</event>
<event>
 8    1  0.1122848E+005  0.1043930E+01  0.7957747E-01            NaN
         13   -1    0    0    0    0  0.00000000000E+00  0.00000000000E+00  0.74505805969E-08  0.10566000000E+00  0.10566000000E+00 0.  1.
     999900   -1    0    0    0    0 -0.00000000000E+00 -0.00000000000E+00 -0.74505805969E-08  0.93827000000E+00  0.93827000000E+00 0. -1.
     999902    2    1    2    0    0 -0.17452079038E-01 -0.43743514461E-02  0.14695365228E-01  0.10206993355E+01  0.10204349415E+01 0.  0.
     999903    2    3    3    0    0 -0.75579678469E-01  0.68621439742E-01  0.82934871092E-01  0.13313872716E+00  0.20652797290E-01 0.  0.
         14    1    1    2    0    0  0.17452079038E-01  0.43743514461E-02 -0.14695365228E-01  0.23230664487E-01  0.00000000000E+00 0. -1.
     999901    1    3    3    0    0  0.58127599431E-01 -0.72995791188E-01 -0.68239505865E-01  0.88756060836E+00  0.88000000000E+00 0. -1.
        -11    1    4    4    0    0 -0.15257506705E-01  0.19917342413E-01  0.30706481685E-01  0.39656540168E-01  0.51100000000E-03 0. -1.
         11    1    4    4    0    0 -0.60322171764E-01  0.48704097329E-01  0.52228389408E-01  0.93482186988E-01  0.51100000000E-03 0.  1.
</event>
<event>
 8    1  0.1122848E+005  0.1043930E+01  0.7957747E-01            NaN
         13   -1    0    0    0    0  0.00000000000E+00  0.00000000000E+00  0.74505805969E-08  0.10566000000E+00  0.10566000000E+00 0.  1.
     999900   -1    0    0    0    0 -0.00000000000E+00 -0.00000000000E+00 -0.74505805969E-08  0.93827000000E+00  0.93827000000E+00 0.  1.
     999902    2    1    2    0    0  0.10380926091E-01 -0.16706332632E-01 -0.12782745463E-01  0.10204722985E+01  0.10202026506E+01 0.  0.
     999903    2    3    3    0    0 -0.10551261946E+00 -0.24417019314E-01  0.67575487190E-01  0.12921015183E+00  0.19992827940E-01 0.  0.
         14    1    1    2    0    0 -0.10380926091E-01  0.16706332632E-01  0.12782745463E-01  0.23457701467E-01  0.00000000000E+00 0. -1.
     999901    1    3    3    0    0  0.11589354555E+00  0.77106866816E-02 -0.80358232653E-01  0.89126214670E+00  0.88000000000E+00 0. -1.
        -11    1    4    4    0    0 -0.31425410371E-01 -0.27452555582E-02  0.10655104206E-01  0.33299928104E-01  0.51100000000E-03 0.  1.
         11    1    4    4    0    0 -0.74087209092E-01 -0.21671763756E-01  0.56920382984E-01  0.95910223727E-01  0.51100000000E-03 0. -1.
</event>
<event>
 8    1  0.1122848E+005  0.1043930E+01  0.7957747E-01            NaN
         13   -1    0    0    0    0  0.00000000000E+00  0.00000000000E+00  0.74505805969E-08  0.10566000000E+00  0.10566000000E+00 0.  1.
     999900   -1    0    0    0    0 -0.00000000000E+00 -0.00000000000E+00 -0.74505805969E-08  0.93827000000E+00  0.93827000000E+00 0. -1.
     999902    2    1    2    0    0  0.49081903641E-02 -0.85203507520E-02  0.20298280452E-01  0.10213754683E+01  0.10211264077E+01 0.  0.
     999903    2    3    3    0    0  0.14378437399E-01  0.34327035719E-01  0.12700377965E+00  0.13384425893E+00  0.19981009970E-01 0.  0.
         14    1    1    2    0    0 -0.49081903641E-02  0.85203507520E-02 -0.20298280452E-01  0.22554531671E-01  0.00000000000E+00 0. -1.
     999901    1    3    3    0    0 -0.94702470348E-02 -0.42847386471E-01 -0.10670549920E+00  0.88753120940E+00  0.88000000000E+00 0. -1.
        -11    1    4    4    0    0 -0.46436271000E-02  0.40239504752E-02  0.13675732201E-01  0.15001407344E-01  0.51100000000E-03 0. -1.
         11    1    4    4    0    0  0.19022064499E-01  0.30303085243E-01  0.11332804745E+00  0.11884285158E+00  0.51100000000E-03 0.  1.
</event>
<event>
 8    1  0.1122848E+005  0.1043930E+01  0.7957747E-01            NaN
         13   -1    0    0    0    0  0.00000000000E+00  0.00000000000E+00  0.74505805969E-08  0.10566000000E+00  0.10566000000E+00 0.  1.
     999900   -1    0    0    0    0 -0.00000000000E+00 -0.00000000000E+00 -0.74505805969E-08  0.93827000000E+00  0.93827000000E+00 0.  1.
     999902    2    1    2    0    0  0.40360920685E-02  0.20619807418E-01  0.11580406122E-01  0.10199389120E+01  0.10196567128E+01 0.  0.
     999903    2    3    3    0    0  0.41489586115E-01 -0.43302153815E-01 -0.11172315725E+00  0.12825928900E+00  0.19285203328E-01 0.  0.
         14    1    1    2    0    0 -0.40360920685E-02 -0.20619807418E-01 -0.11580406122E-01  0.23991087994E-01  0.00000000000E+00 0.  1.
     999901    1    3    3    0    0 -0.37453494047E-01  0.63921961233E-01  0.12330356337E+00  0.89167962301E+00  0.88000000000E+00 0. -1.
        -11    1    4    4    0    0  0.33044218979E-01 -0.30569023302E-01 -0.97442306429E-01  0.10733894818E+00  0.51100000000E-03 0. -1.
         11    1    4    4    0    0  0.84453671361E-02 -0.12733130512E-01 -0.14280850823E-01  0.20920340818E-01  0.51100000000E-03 0.  1.
</event>
<event>
 8    1  0.1122848E+005  0.1043930E+01  0.7957747E-01            NaN
         13   -1    0    0    0    0  0.00000000000E+00  0.00000000000E+00  0.74505805969E-08  0.10566000000E+00  0.10566000000E+00 0.  1.
     999900   -1    0    0    0    0 -0.00000000000E+00 -0.00000000000E+00 -0.74505805969E-08  0.93827000000E+00  0.93827000000E+00 0.  1.
     999902    2    1    2    0    0  0.14622594876E-01 -0.50691508251E-02 -0.16174960471E-01  0.10215437114E+01  0.10212983934E+01 0.  0.
     999903    2    3    3    0    0  0.27380733156E-01  0.12697371930E+00  0.12356676055E-02  0.13143067385E+00  0.20011626967E-01 0.  0.
         14    1    1    2    0    0 -0.14622594876E-01  0.50691508251E-02  0.16174960471E-01  0.22386288599E-01  0.00000000000E+00 0. -1.
     999901    1    3    3    0    0 -0.12758138280E-01 -0.13204287013E+00 -0.17410628076E-01  0.89011303755E+00  0.88000000000E+00 0.  1.
        -11    1    4    4    0    0  0.79258773006E-02  0.82068826748E-01 -0.62282643203E-03  0.82454598953E-01  0.51100000000E-03 0.  1.
         11    1    4    4    0    0  0.19454855855E-01  0.44904892553E-01  0.18584940376E-02  0.48976074900E-01  0.51100000000E-03 0. -1.
</event>
<event>
 8    1  0.1122848E+005  0.1043930E+01  0.7957747E-01            NaN
         13   -1    0    0    0    0  0.00000000000E+00  0.00000000000E+00  0.74505805969E-08  0.10566000000E+00  0.10566000000E+00 0.  1.
     999900   -1    0    0    0    0 -0.00000000000E+00 -0.00000000000E+00 -0.74505805969E-08  0.93827000000E+00  0.93827000000E+00 0. -1.
     999902    2    1    2    0    0  0.11557143589E-01 -0.10172456022E-01 -0.18024880455E-01  0.10202246684E+01  0.10199492298E+01 0.  0.
     999903    2    3    3    0    0  0.11611008901E+00 -0.20667528135E-01  0.53726847750E-01  0.13107351399E+00  0.19621223520E-01 0.  0.
         14    1    1    2    0    0 -0.11557143589E-01  0.10172456022E-01  0.18024880455E-01  0.23705331571E-01  0.00000000000E+00 0.  1.
     999901    1    3    3    0    0 -0.10455294542E+00  0.10495072113E-01 -0.71751728205E-01  0.88915115444E+00  0.88000000000E+00 0. -1.
        -11    1    4    4    0    0  0.27262948167E-01 -0.94808049102E-02  0.55886033441E-02  0.29404890968E-01  0.51100000000E-03 0.  1.
         11    1    4    4    0    0  0.88847140842E-01 -0.11186723225E-01  0.48138244406E-01  0.10166862303E+00  0.51100000000E-03 0. -1.
</event>
<event>
 8    1  0.1122848E+005  0.1043930E+01  0.7957747E-01            NaN
         13   -1    0    0    0    0  0.00000000000E+00  0.00000000000E+00  0.74505805969E-08  0.10566000000E+00  0.10566000000E+00 0.  1.
     999900   -1    0    0    0    0 -0.00000000000E+00 -0.00000000000E+00 -0.74505805969E-08  0.93827000000E+00  0.93827000000E+00 0. -1.
     999902    2    1    2    0    0 -0.71714387449E-02 -0.21360564545E-01  0.91302373982E-02  0.10196181822E+01  0.10193282950E+01 0.  0.
     999903    2    3    3    0    0  0.59984733131E-01  0.64396786626E-03  0.11420137922E+00  0.13055457606E+00  0.20098741480E-01 0.  0.
         14    1    1    2    0    0  0.71714387449E-02  0.21360564545E-01 -0.91302373982E-02  0.24311817832E-01  0.00000000000E+00 0. -1.
     999901    1    3    3    0    0 -0.67156171876E-01 -0.22004532411E-01 -0.10507114183E+00  0.88906360611E+00  0.88000000000E+00 0. -1.
        -11    1    4    4    0    0  0.23038640402E-01  0.86000501036E-02  0.34786157584E-01  0.42603728638E-01  0.51100000000E-03 0. -1.
         11    1    4    4    0    0  0.36946092729E-01 -0.79560822373E-02  0.79415221640E-01  0.87950847419E-01  0.51100000000E-03 0.  1.
</event>
<event>
 8    1  0.1122848E+005  0.1043930E+01  0.7957747E-01            NaN
         13   -1    0    0    0    0  0.00000000000E+00  0.00000000000E+00  0.74505805969E-08  0.10566000000E+00  0.10566000000E+00 0. -1.
     999900   -1    0    0    0    0 -0.00000000000E+00 -0.00000000000E+00 -0.74505805969E-08  0.93827000000E+00  0.93827000000E+00 0. -1.
     999902    2    1    2    0    0 -0.18585970434E-01  0.17411120510E-01  0.16229460943E-02  0.10184109999E+01  0.10180912264E+01 0.  0.
     999903    2    3    3    0    0 -0.23854659092E-01 -0.10225512973E+00  0.69848041216E-01  0.12767959582E+00  0.19954298083E-01 0.  0.
         14    1    1    2    0    0  0.18585970434E-01 -0.17411120510E-01 -0.16229460943E-02  0.25519000145E-01  0.00000000000E+00 0. -1.
     999901    1    3    3    0    0  0.52686886578E-02  0.11966625024E+00 -0.68225095122E-01  0.89073140403E+00  0.88000000000E+00 0.  1.
        -11    1    4    4    0    0 -0.21645789133E-01 -0.95235652000E-01  0.57612209266E-01  0.11339222803E+00  0.51100000000E-03 0.  1.
         11    1    4    4    0    0 -0.22088699586E-02 -0.70194777251E-02  0.12235831951E-01  0.14287367797E-01  0.51100000000E-03 0. -1.
</event>
<event>
 8    1  0.1122848E+005  0.1043930E+01  0.7957747E-01            NaN
         13   -1    0    0    0    0  0.00000000000E+00  0.00000000000E+00  0.74505805969E-08  0.10566000000E+00  0.10566000000E+00 0. -1.
     999900   -1    0    0    0    0 -0.00000000000E+00 -0.00000000000E+00 -0.74505805969E-08  0.93827000000E+00  0.93827000000E+00 0.  1.
     999902    2    1    2    0    0 -0.24607181212E-01 -0.37727265089E-02 -0.71735164772E-03  0.10190249518E+01  0.10187205657E+01 0.  0.
     999903    2    3    3    0    0 -0.42654789635E-01  0.11975894900E+00  0.18328356010E-01  0.13000946824E+00  0.20122034075E-01 0.  0.
         14    1    1    2    0    0  0.24607181212E-01  0.37727265089E-02  0.71735164772E-03  0.24905048201E-01  0.00000000000E+00 0. -1.
     999901    1    3    3    0    0  0.18047608423E-01 -0.12353167550E+00 -0.19045707658E-01  0.88901548356E+00  0.88000000000E+00 0. -1.
        -11    1    4    4    0    0 -0.32862305195E-01  0.88758167887E-01  0.47303848795E-02  0.94765928115E-01  0.51100000000E-03 0.  1.
         11    1    4    4    0    0 -0.97924844405E-02  0.31000781108E-01  0.13597971130E-01  0.35243540127E-01  0.51100000000E-03 0. -1.
</event>
<event>
 8    1  0.1122848E+005  0.1043930E+01  0.7957747E-01            NaN
         13   -1    0    0    0    0  0.00000000000E+00  0.00000000000E+00  0.74505805969E-08  0.10566000000E+00  0.10566000000E+00 0. -1.
     999900   -1    0    0    0    0 -0.00000000000E+00 -0.00000000000E+00 -0.74505805969E-08  0.93827000000E+00  0.93827000000E+00 0. -1.
     999902    2    1    2    0    0 -0.13914987009E-01  0.18650121531E-01  0.11864955798E-02  0.10206306080E+01  0.10203646291E+01 0.  0.
     999903    2    3    3    0    0 -0.57514383433E-01  0.63586073189E-01  0.99484676367E-01  0.13294672311E+00  0.20652780642E-01 0.  0.
         14    1    1    2    0    0  0.13914987009E-01 -0.18650121531E-01 -0.11864955798E-02  0.23299392017E-01  0.00000000000E+00 0.  1.
     999901    1    3    3    0    0  0.43599396423E-01 -0.44935951658E-01 -0.98298180787E-01  0.88768388487E+00  0.88000000000E+00 0. -1.
        -11    1    4    4    0    0 -0.45134638186E-01  0.54162429005E-01  0.68654194408E-01  0.98409165278E-01  0.51100000000E-03 0. -1.
         11    1    4    4    0    0 -0.12379745247E-01  0.94236441837E-02  0.30830481959E-01  0.34537557830E-01  0.51100000000E-03 0.  1.
</event>
<event>
 8    1  0.1122848E+005  0.1043930E+01  0.7957747E-01            NaN
         13   -1    0    0    0    0  0.00000000000E+00  0.00000000000E+00  0.74505805969E-08  0.10566000000E+00  0.10566000000E+00 0.  1.
     999900   -1    0    0    0    0 -0.00000000000E+00 -0.00000000000E+00 -0.74505805969E-08  0.93827000000E+00  0.93827000000E+00 0. -1.
     999902    2    1    2    0    0  0.16404153058E-01  0.16947149251E-01 -0.24897497130E-02  0.10202128973E+01  0.10199371819E+01 0.  0.
     999903    2    3    3    0    0 -0.38901622869E-01 -0.77423884552E-01 -0.93135920823E-01  0.12881997095E+00  0.20309874610E-01 0.  0.
         14    1    1    2    0    0 -0.16404153058E-01 -0.16947149251E-01  0.24897497130E-02  0.23717102667E-01  0.00000000000E+00 0.  1.
     999901    1    3    3    0    0  0.55305775927E-01  0.94371033803E-01  0.90646171110E-01  0.89139292638E+00  0.88000000000E+00 0.  1.
        -11    1    4    4    0    0 -0.32738278140E-01 -0.74777208120E-01 -0.81325714608E-01  0.11522828944E+00  0.51100000000E-03 0. -1.
         11    1    4    4    0    0 -0.61633447291E-02 -0.26466764320E-02 -0.11810206215E-01  0.13591681508E-01  0.51100000000E-03 0.  1.
</event>
<event>
 8    1  0.1122848E+005  0.1043930E+01  0.7957747E-01            NaN
         13   -1    0    0    0    0  0.00000000000E+00  0.00000000000E+00  0.74505805969E-08  0.10566000000E+00  0.10566000000E+00 0. -1.
     999900   -1    0    0    0    0 -0.00000000000E+00 -0.00000000000E+00 -0.74505805969E-08  0.93827000000E+00  0.93827000000E+00 0.  1.
     999902    2    1    2    0    0  0.15306304677E-01 -0.70731756041E-02 -0.16072382133E-01  0.10206354890E+01  0.10203696228E+01 0.  0.
     999903    2    3    3    0    0 -0.11010677346E+00  0.54960201262E-01  0.33042256643E-01  0.12822928789E+00  0.14381733699E-01 0.  0.
         14    1    1    2    0    0 -0.15306304677E-01  0.70731756041E-02  0.16072382133E-01  0.23294511015E-01  0.00000000000E+00 0. -1.
     999901    1    3    3    0    0  0.12541307814E+00 -0.62033376866E-01 -0.49114638775E-01  0.89240620110E+00  0.88000000000E+00 0.  1.
        -11    1    4    4    0    0 -0.82191465265E-01  0.43236410960E-01  0.30880006653E-01  0.97870629542E-01  0.51100000000E-03 0.  1.
         11    1    4    4    0    0 -0.27915308194E-01  0.11723790302E-01  0.21622499901E-02  0.30358658347E-01  0.51100000000E-03 0. -1.
</event>
<event>
 8    1  0.1122848E+005  0.1043930E+01  0.7957747E-01            NaN
         13   -1    0    0    0    0  0.00000000000E+00  0.00000000000E+00  0.74505805969E-08  0.10566000000E+00  0.10566000000E+00 0. -1.
     999900   -1    0    0    0    0 -0.00000000000E+00 -0.00000000000E+00 -0.74505805969E-08  0.93827000000E+00  0.93827000000E+00 0.  1.
     999902    2    1    2    0    0 -0.47002590646E-02  0.20660363191E-01 -0.10248508918E-01  0.10203933270E+01  0.10201218392E+01 0.  0.
     999903    2    3    3    0    0  0.86550362906E-01 -0.73376367313E-01 -0.59182593862E-01  0.12934667984E+00  0.18786366572E-01 0.  0.
         14    1    1    2    0    0  0.47002590646E-02 -0.20660363191E-01  0.10248508918E-01  0.23536673034E-01  0.00000000000E+00 0. -1.
     999901    1    3    3    0    0 -0.91250621970E-01  0.94036730504E-01  0.48934084945E-01  0.89104664713E+00  0.88000000000E+00 0.  1.
        -11    1    4    4    0    0  0.36484303972E-01 -0.22797544183E-01 -0.29872502452E-01  0.52378048654E-01  0.51100000000E-03 0.  1.
         11    1    4    4    0    0  0.50066058934E-01 -0.50578823130E-01 -0.29310091410E-01  0.76968631181E-01  0.51100000000E-03 0. -1.
</event>
<event>
 8    1  0.1122848E+005  0.1043930E+01  0.7957747E-01            NaN
         13   -1    0    0    0    0  0.00000000000E+00  0.00000000000E+00  0.74505805969E-08  0.10566000000E+00  0.10566000000E+00 0.  1.
     999900   -1    0    0    0    0 -0.00000000000E+00 -0.00000000000E+00 -0.74505805969E-08  0.93827000000E+00  0.93827000000E+00 0.  1.
     999902    2    1    2    0    0 -0.19666856066E-01  0.11707184488E-01 -0.42367891167E-02  0.10206535360E+01  0.10203880863E+01 0.  0.
     999903    2    3    3    0    0  0.16051432606E-01  0.54192033685E-01 -0.11727977585E+00  0.13168813989E+00  0.19819065608E-01 0.  0.
         14    1    1    2    0    0  0.19666856066E-01 -0.11707184488E-01  0.42367891167E-02  0.23276464040E-01  0.00000000000E+00 0. -1.
     999901    1    3    3    0    0 -0.35718288672E-01 -0.42484849197E-01  0.11304298673E+00  0.88896539607E+00  0.88000000000E+00 0. -1.
        -11    1    4    4    0    0  0.17981792398E-01  0.35311906077E-01 -0.65720921575E-01  0.76744877499E-01  0.51100000000E-03 0.  1.
         11    1    4    4    0    0 -0.19303597923E-02  0.18880127608E-01 -0.51558854274E-01  0.54943262393E-01  0.51100000000E-03 0. -1.
</event>
<event>
 8    1  0.1122848E+005  0.1043930E+01  0.7957747E-01            NaN
         13   -1    0    0    0    0  0.00000000000E+00  0.00000000000E+00  0.74505805969E-08  0.10566000000E+00  0.10566000000E+00 0. -1.
     999900   -1    0    0    0    0 -0.00000000000E+00 -0.00000000000E+00 -0.74505805969E-08  0.93827000000E+00  0.93827000000E+00 0. -1.
     999902    2    1    2    0    0 -0.19925884050E-01  0.11355881396E-01  0.57117931486E-02  0.10202948254E+01  0.10200210337E+01 0.  0.
     999903    2    3    3    0    0  0.48350987913E-01 -0.60305272251E-01 -0.10053104245E+00  0.12839539592E+00  0.20108289469E-01 0.  0.
         14    1    1    2    0    0  0.19925884050E-01 -0.11355881396E-01 -0.57117931486E-02  0.23635174601E-01  0.00000000000E+00 0.  1.
     999901    1    3    3    0    0 -0.68276871962E-01  0.71661153647E-01  0.10624283559E+00  0.89189942948E+00  0.88000000000E+00 0.  1.
        -11    1    4    4    0    0  0.30448755565E-01 -0.50872293539E-01 -0.79865392662E-01  0.99467879395E-01  0.51100000000E-03 0. -1.
         11    1    4    4    0    0  0.17902232348E-01 -0.94329787126E-02 -0.20665649784E-01  0.28927516527E-01  0.51100000000E-03 0.  1.
</event>
<event>
 8    1  0.1122848E+005  0.1043930E+01  0.7957747E-01            NaN
         13   -1    0    0    0    0  0.00000000000E+00  0.00000000000E+00  0.74505805969E-08  0.10566000000E+00  0.10566000000E+00 0.  1.
     999900   -1    0    0    0    0 -0.00000000000E+00 -0.00000000000E+00 -0.74505805969E-08  0.93827000000E+00  0.93827000000E+00 0. -1.
     999902    2    1    2    0    0 -0.24964227025E-02 -0.20792181973E-01 -0.69146289126E-02  0.10218764504E+01  0.10216384492E+01 0.  0.
     999903    2    3    3    0    0  0.79851386141E-01 -0.74750584984E-01  0.72736912970E-01  0.13281118900E+00  0.19602540442E-01 0.  0.
         14    1    1    2    0    0  0.24964227025E-02  0.20792181973E-01  0.69146289126E-02  0.22053549612E-01  0.00000000000E+00 0.  1.
     999901    1    3    3    0    0 -0.82347808844E-01  0.53958403011E-01 -0.79651541883E-01  0.88906526138E+00  0.88000000000E+00 0. -1.
        -11    1    4    4    0    0  0.49080736169E-01 -0.51684976690E-01  0.36989228102E-01  0.80303920171E-01  0.51100000000E-03 0. -1.
         11    1    4    4    0    0  0.30770649973E-01 -0.23065608294E-01  0.35747684868E-01  0.52507268832E-01  0.51100000000E-03 0.  1.
</event>
<event>
 8    1  0.1122848E+005  0.1043930E+01  0.7957747E-01            NaN
         13   -1    0    0    0    0  0.00000000000E+00  0.00000000000E+00  0.74505805969E-08  0.10566000000E+00  0.10566000000E+00 0. -1.
     999900   -1    0    0    0    0 -0.00000000000E+00 -0.00000000000E+00 -0.74505805969E-08  0.93827000000E+00  0.93827000000E+00 0. -1.
     999902    2    1    2    0    0  0.19603429351E-01  0.29592072298E-03  0.13558169983E-01  0.10200929284E+01  0.10198143834E+01 0.  0.
     999903    2    3    3    0    0 -0.75491192352E-01  0.10227887075E+00 -0.75664911082E-02  0.12886357489E+00  0.19715010015E-01 0.  0.
         14    1    1    2    0    0 -0.19603429351E-01 -0.29592072298E-03 -0.13558169983E-01  0.23837071647E-01  0.00000000000E+00 0.  1.
     999901    1    3    3    0    0  0.95094621703E-01 -0.10198295003E+00  0.21124661092E-01  0.89122935347E+00  0.88000000000E+00 0. -1.
        -11    1    4    4    0    0 -0.49924950070E-01  0.72048564145E-01  0.35781143186E-02  0.87730041935E-01  0.51100000000E-03 0. -1.
         11    1    4    4    0    0 -0.25566242283E-01  0.30230306607E-01 -0.11144605427E-01  0.41133532952E-01  0.51100000000E-03 0.  1.
</event>
<event>
 8    1  0.1122848E+005  0.1043930E+01  0.7957747E-01            NaN
         13   -1    0    0    0    0  0.00000000000E+00  0.00000000000E+00  0.74505805969E-08  0.10566000000E+00  0.10566000000E+00 0.  1.
     999900   -1    0    0    0    0 -0.00000000000E+00 -0.00000000000E+00 -0.74505805969E-08  0.93827000000E+00  0.93827000000E+00 0.  1.
     999902    2    1    2    0    0  0.10721439118E-01  0.10546032815E-01  0.16479179063E-01  0.10216201052E+01  0.10213764771E+01 0.  0.
     999903    2    3    3    0    0 -0.90313744711E-01 -0.91121295094E-01 -0.25844615945E-02  0.12981980447E+00  0.19668230384E-01 0.  0.
         14    1    1    2    0    0 -0.10721439118E-01 -0.10546032815E-01 -0.16479179063E-01  0.22309894833E-01  0.00000000000E+00 0. -1.
     999901    1    3    3    0    0  0.10103518383E+00  0.10166732791E+00  0.19063640657E-01  0.89180030070E+00  0.88000000000E+00 0. -1.
        -11    1    4    4    0    0 -0.16456568674E-01 -0.97840004861E-02  0.46686450164E-02  0.19713008024E-01  0.51100000000E-03 0. -1.
         11    1    4    4    0    0 -0.73857176037E-01 -0.81337294608E-01 -0.72531066109E-02  0.11010679644E+00  0.51100000000E-03 0.  1.
</event>
<event>
 8    1  0.1122848E+005  0.1043930E+01  0.7957747E-01            NaN
         13   -1    0    0    0    0  0.00000000000E+00  0.00000000000E+00  0.74505805969E-08  0.10566000000E+00  0.10566000000E+00 0.  1.
     999900   -1    0    0    0    0 -0.00000000000E+00 -0.00000000000E+00 -0.74505805969E-08  0.93827000000E+00  0.93827000000E+00 0. -1.
     999902    2    1    2    0    0  0.31693594097E-02 -0.75483112837E-02  0.22871918652E-01  0.10196370688E+01  0.10193476373E+01 0.  0.
     999903    2    3    3    0    0 -0.68891707843E-01 -0.58870571319E-01 -0.89881385892E-01  0.12804294621E+00  0.10223549673E-01 0.  0.
         14    1    1    2    0    0 -0.31693594097E-02  0.75483112837E-02 -0.22871918652E-01  0.24292931176E-01  0.00000000000E+00 0. -1.
     999901    1    3    3    0    0  0.72061067253E-01  0.51322260036E-01  0.11275330454E+00  0.89159412261E+00  0.88000000000E+00 0.  1.
        -11    1    4    4    0    0 -0.22031240303E-01 -0.24341368003E-01 -0.28946121531E-01  0.43772329367E-01  0.51100000000E-03 0.  1.
         11    1    4    4    0    0 -0.46860467540E-01 -0.34529203316E-01 -0.60935264361E-01  0.84270616845E-01  0.51100000000E-03 0. -1.
</event>
<event>
 8    1  0.1122848E+005  0.1043930E+01  0.7957747E-01            NaN
         13   -1    0    0    0    0  0.00000000000E+00  0.00000000000E+00  0.74505805969E-08  0.10566000000E+00  0.10566000000E+00 0.  1.
     999900   -1    0    0    0    0 -0.00000000000E+00 -0.00000000000E+00 -0.74505805969E-08  0.93827000000E+00  0.93827000000E+00 0.  1.
     999902    2    1    2    0    0 -0.29592506715E-02 -0.21488903814E-01  0.94401576742E-02  0.10202731463E+01  0.10199988462E+01 0.  0.
     999903    2    3    3    0    0  0.41823109403E-02  0.89785087849E-01  0.91160867880E-01  0.12948070265E+00  0.19393163793E-01 0.  0.
         14    1    1    2    0    0  0.29592506715E-02  0.21488903814E-01 -0.94401576742E-02  0.23656853734E-01  0.00000000000E+00 0. -1.
     999901    1    3    3    0    0 -0.71415616118E-02 -0.11127399166E+00 -0.81720710206E-01  0.89079244361E+00  0.88000000000E+00 0. -1.
        -11    1    4    4    0    0  0.10375528918E-01  0.56186281136E-01  0.64291113661E-01  0.86012546788E-01  0.51100000000E-03 0.  1.
         11    1    4    4    0    0 -0.61932179781E-02  0.33598806713E-01  0.26869754219E-01  0.43468155864E-01  0.51100000000E-03 0. -1.
</event>
<event>
 8    1  0.1122848E+005  0.1043930E+01  0.7957747E-01            NaN
         13   -1    0    0    0    0  0.00000000000E+00  0.00000000000E+00  0.74505805969E-08  0.10566000000E+00  0.10566000000E+00 0.  1.
     999900   -1    0    0    0    0 -0.00000000000E+00 -0.00000000000E+00 -0.74505805969E-08  0.93827000000E+00  0.93827000000E+00 0.  1.
     999902    2    1    2    0    0 -0.20729059962E-01 -0.83606584665E-02  0.36737555189E-02  0.10212784875E+01  0.10210272563E+01 0.  0.
     999903    2    3    3    0    0 -0.12350466159E+00 -0.42929919134E-01  0.23678834976E-01  0.13439740122E+00  0.20139385229E-01 0.  0.
         14    1    1    2    0    0  0.20729059962E-01  0.83606584665E-02 -0.36737555189E-02  0.22651512456E-01  0.00000000000E+00 0. -1.
     999901    1    3    3    0    0  0.10277560163E+00  0.34569260667E-01 -0.20005079457E-01  0.88688108632E+00  0.88000000000E+00 0.  1.
        -11    1    4    4    0    0 -0.62245989920E-01 -0.15231371582E-01  0.19717148321E-01  0.67049123785E-01  0.51100000000E-03 0.  1.
         11    1    4    4    0    0 -0.61258671672E-01 -0.27698547552E-01  0.39616866548E-02  0.67348277437E-01  0.51100000000E-03 0. -1.
</event>
<event>
 8    1  0.1122848E+005  0.1043930E+01  0.7957747E-01            NaN
         13   -1    0    0    0    0  0.00000000000E+00  0.00000000000E+00  0.74505805969E-08  0.10566000000E+00  0.10566000000E+00 0. -1.
     999900   -1    0    0    0    0 -0.00000000000E+00 -0.00000000000E+00 -0.74505805969E-08  0.93827000000E+00  0.93827000000E+00 0.  1.
     999902    2    1    2    0    0  0.17725173902E-01  0.14751795385E-01 -0.46694270363E-02  0.10204012770E+01  0.10201299747E+01 0.  0.
     999903    2    3    3    0    0  0.26292943018E-01 -0.19163139820E-01  0.12474854962E+00  0.13024812042E+00  0.18542585071E-01 0.  0.
         14    1    1    2    0    0 -0.17725173902E-01 -0.14751795385E-01  0.46694270363E-02  0.23528722995E-01  0.00000000000E+00 0.  1.
     999901    1    3    3    0    0 -0.85677691156E-02  0.33914935205E-01 -0.12941797665E+00  0.89015315659E+00  0.88000000000E+00 0.  1.
        -11    1    4    4    0    0  0.16782057716E-01 -0.14229093514E-01  0.10895960774E+00  0.11116007289E+00  0.51100000000E-03 0. -1.
         11    1    4    4    0    0  0.95108853011E-02 -0.49340463059E-02  0.15788941872E-01  0.19088047532E-01  0.51100000000E-03 0.  1.
</event>
<event>
 8    1  0.1122848E+005  0.1043930E+01  0.7957747E-01            NaN
         13   -1    0    0    0    0  0.00000000000E+00  0.00000000000E+00  0.74505805969E-08  0.10566000000E+00  0.10566000000E+00 0.  1.
     999900   -1    0    0    0    0 -0.00000000000E+00 -0.00000000000E+00 -0.74505805969E-08  0.93827000000E+00  0.93827000000E+00 0. -1.
     999902    2    1    2    0    0  0.18290180550E-01  0.13219138971E-01  0.58859420328E-02  0.10206078935E+01  0.10203413897E+01 0.  0.
     999903    2    3    3    0    0 -0.51571785076E-01 -0.78713143429E-01  0.86480446060E-01  0.12941335080E+00  0.20335679260E-01 0.  0.
         14    1    1    2    0    0 -0.18290180550E-01 -0.13219138971E-01 -0.58859420328E-02  0.23322106537E-01  0.00000000000E+00 0.  1.
     999901    1    3    3    0    0  0.69861965626E-01  0.91932282400E-01 -0.80594504027E-01  0.89119454266E+00  0.88000000000E+00 0. -1.
        -11    1    4    4    0    0 -0.23449910256E-01 -0.30618999812E-01  0.48578264195E-01  0.62028463738E-01  0.51100000000E-03 0. -1.
         11    1    4    4    0    0 -0.28121874820E-01 -0.48094143617E-01  0.37902181865E-01  0.67384887065E-01  0.51100000000E-03 0.  1.
</event>
<event>
 8    1  0.1122848E+005  0.1043930E+01  0.7957747E-01            NaN
         13   -1    0    0    0    0  0.00000000000E+00  0.00000000000E+00  0.74505805969E-08  0.10566000000E+00  0.10566000000E+00 0.  1.
     999900   -1    0    0    0    0 -0.00000000000E+00 -0.00000000000E+00 -0.74505805969E-08  0.93827000000E+00  0.93827000000E+00 0. -1.
     999902    2    1    2    0    0 -0.78481668747E-02 -0.22422025122E-01  0.19986336198E-02  0.10200902125E+01  0.10198116032E+01 0.  0.
     999903    2    3    3    0    0 -0.36947385494E-01  0.12069157965E+00 -0.67348954013E-02  0.12801143627E+00  0.20248513691E-01 0.  0.
         14    1    1    2    0    0  0.78481668747E-02  0.22422025122E-01 -0.19986336198E-02  0.23839787545E-01  0.00000000000E+00 0.  1.
     999901    1    3    3    0    0  0.29099218620E-01 -0.14311360477E+00  0.87335290211E-02  0.89207877619E+00  0.88000000000E+00 0.  1.
        -11    1    4    4    0    0 -0.12231258683E-01  0.71647805309E-01 -0.68062769234E-04  0.72686157198E-01  0.51100000000E-03 0. -1.
         11    1    4    4    0    0 -0.24716126811E-01  0.49043774337E-01 -0.66668326321E-02  0.55325279070E-01  0.51100000000E-03 0.  1.
</event>
<event>
 8    1  0.1122848E+005  0.1043930E+01  0.7957747E-01            NaN
         13   -1    0    0    0    0  0.00000000000E+00  0.00000000000E+00  0.74505805969E-08  0.10566000000E+00  0.10566000000E+00 0.  1.
     999900   -1    0    0    0    0 -0.00000000000E+00 -0.00000000000E+00 -0.74505805969E-08  0.93827000000E+00  0.93827000000E+00 0.  1.
     999902    2    1    2    0    0 -0.21464328541E-01  0.61337536996E-02 -0.49075968455E-02  0.10210733852E+01  0.10208175317E+01 0.  0.
     999903    2    3    3    0    0  0.11753496985E+00 -0.47787412500E-01  0.18067204238E-02  0.12850776901E+00  0.20319363293E-01 0.  0.
         14    1    1    2    0    0  0.21464328541E-01 -0.61337536996E-02  0.49075968455E-02  0.22856614818E-01  0.00000000000E+00 0.  1.
     999901    1    3    3    0    0 -0.13899929840E+00  0.53921166200E-01 -0.67143172693E-02  0.89256561617E+00  0.88000000000E+00 0.  1.
        -11    1    4    4    0    0  0.23104259146E-01 -0.11391310811E-02  0.14192606884E-02  0.23181454489E-01  0.51100000000E-03 0.  1.
         11    1    4    4    0    0  0.94430710708E-01 -0.46648281419E-01  0.38745973538E-03  0.10532631452E+00  0.51100000000E-03 0. -1.
</event>
<event>
 8    1  0.1122848E+005  0.1043930E+01  0.7957747E-01            NaN
         13   -1    0    0    0    0  0.00000000000E+00  0.00000000000E+00  0.74505805969E-08  0.10566000000E+00  0.10566000000E+00 0.  1.
     999900   -1    0    0    0    0 -0.00000000000E+00 -0.00000000000E+00 -0.74505805969E-08  0.93827000000E+00  0.93827000000E+00 0.  1.
     999902    2    1    2    0    0  0.12230531871E-01  0.13333861294E-01  0.15892881801E-01  0.10198476110E+01  0.10195632341E+01 0.  0.
     999903    2    3    3    0    0 -0.94830790630E-01 -0.90481630882E-02  0.86659878112E-01  0.13025722801E+00  0.19551543841E-01 0.  0.
         14    1    1    2    0    0 -0.12230531871E-01 -0.13333861294E-01 -0.15892881801E-01  0.24082388976E-01  0.00000000000E+00 0. -1.
     999901    1    3    3    0    0  0.10706132250E+00  0.22382024382E-01 -0.70766996311E-01  0.88959038302E+00  0.88000000000E+00 0.  1.
        -11    1    4    4    0    0 -0.41429799254E-01 -0.44236537817E-02  0.51082082978E-01  0.65921447961E-01  0.51100000000E-03 0. -1.
         11    1    4    4    0    0 -0.53400991377E-01 -0.46245093065E-02  0.35577795134E-01  0.64335780045E-01  0.51100000000E-03 0.  1.
</event>
<event>
 8    1  0.1122848E+005  0.1043930E+01  0.7957747E-01            NaN
         13   -1    0    0    0    0  0.00000000000E+00  0.00000000000E+00  0.74505805969E-08  0.10566000000E+00  0.10566000000E+00 0. -1.
     999900   -1    0    0    0    0 -0.00000000000E+00 -0.00000000000E+00 -0.74505805969E-08  0.93827000000E+00  0.93827000000E+00 0. -1.
     999902    2    1    2    0    0  0.46275394447E-02  0.10038403797E-01  0.20299240100E-01  0.10208163066E+01  0.10205545988E+01 0.  0.
     999903    2    3    3    0    0 -0.84662425030E-02  0.12775281519E+00 -0.22601949283E-01  0.13184575492E+00  0.21908809361E-01 0.  0.
         14    1    1    2    0    0 -0.46275394447E-02 -0.10038403797E-01 -0.20299240100E-01  0.23113693360E-01  0.00000000000E+00 0.  1.
     999901    1    3    3    0    0  0.13093781948E-01 -0.11771441139E+00  0.42901189383E-01  0.88897055172E+00  0.88000000000E+00 0. -1.
        -11    1    4    4    0    0 -0.70368783374E-02  0.10846161433E-01 -0.12955841221E-02  0.13003712308E-01  0.51100000000E-03 0.  1.
         11    1    4    4    0    0 -0.14293641657E-02  0.11690665376E+00 -0.21306365161E-01  0.11884204261E+00  0.51100000000E-03 0. -1.
</event>
<event>
 8    1  0.1122848E+005  0.1043930E+01  0.7957747E-01            NaN
         13   -1    0    0    0    0  0.00000000000E+00  0.00000000000E+00  0.74505805969E-08  0.10566000000E+00  0.10566000000E+00 0. -1.
     999900   -1    0    0    0    0 -0.00000000000E+00 -0.00000000000E+00 -0.74505805969E-08  0.93827000000E+00  0.93827000000E+00 0.  1.
     999902    2    1    2    0    0  0.15179912460E-01 -0.17173008452E-01 -0.60425819051E-02  0.10202265244E+01  0.10199511293E+01 0.  0.
     999903    2    3    3    0    0  0.58353125914E-01 -0.10488283168E+00 -0.55112223501E-01  0.13345441768E+00  0.19163213049E-01 0.  0.
         14    1    1    2    0    0 -0.15179912460E-01  0.17173008452E-01  0.60425819051E-02  0.23703475645E-01  0.00000000000E+00 0.  1.
     999901    1    3    3    0    0 -0.43173213454E-01  0.87709823227E-01  0.49069641596E-01  0.88677210667E+00  0.88000000000E+00 0. -1.
        -11    1    4    4    0    0  0.56408687569E-01 -0.89945840652E-01 -0.51258804585E-01  0.11789792387E+00  0.51100000000E-03 0.  1.
         11    1    4    4    0    0  0.19444383450E-02 -0.14936991026E-01 -0.38534189166E-02  0.15556493813E-01  0.51100000000E-03 0. -1.
</event>
<event>
 7    1  0.1122848E+005  0.1043930E+01  0.7957747E-01            NaN
         13   -1    0    0    0    0  0.00000000000E+00  0.00000000000E+00  0.74505805969E-08  0.10566000000E+00  0.10566000000E+00 0. -1.
     999900   -1    0    0    0    0 -0.00000000000E+00 -0.00000000000E+00 -0.74505805969E-08  0.93827000000E+00  0.93827000000E+00 0.  1.
     999903    2    1    2    0    0  0.48968924984E-01  0.44273238687E-01 -0.78122008467E-01  0.10425529751E+00  0.20200088455E-01 0.  0.
         14    1    1    2    0    0  0.42321976323E-01  0.76514196853E-02  0.29389920852E-01  0.52090895085E-01  0.00000000000E+00 0. -1.
     999901    1    1    2    0    0 -0.91290901307E-01 -0.51924658373E-01  0.48732087615E-01  0.88758380741E+00  0.88000000000E+00 0. -1.
        -11    1    3    3    0    0  0.28431283559E-01  0.24139490990E-01 -0.58695879881E-01  0.69545095773E-01  0.51100000000E-03 0. -1.
         11    1    3    3    0    0  0.20537641424E-01  0.20133747697E-01 -0.19426128586E-01  0.34710201735E-01  0.51100000000E-03 0.  1.
</event>
<event>
 8    1  0.1122848E+005  0.1043930E+01  0.7957747E-01            NaN
         13   -1    0    0    0    0  0.00000000000E+00  0.00000000000E+00  0.74505805969E-08  0.10566000000E+00  0.10566000000E+00 0.  1.
     999900   -1    0    0    0    0 -0.00000000000E+00 -0.00000000000E+00 -0.74505805969E-08  0.93827000000E+00  0.93827000000E+00 0. -1.
     999902    2    1    2    0    0  0.27918359477E-01 -0.58569626839E-02 -0.24092529733E-01  0.10065911624E+01  0.10058983941E+01 0.  0.
     999903    2    3    3    0    0  0.56679735424E-01 -0.10165912301E+00 -0.26365837374E-01  0.12092167626E+00  0.19486526390E-01 0.  0.
         14    1    1    2    0    0 -0.27918359477E-01  0.58569626839E-02  0.24092529733E-01  0.37338837645E-01  0.00000000000E+00 0.  1.
     999901    1    3    3    0    0 -0.28761375948E-01  0.95802160325E-01  0.22733076410E-02  0.88566948609E+00  0.88000000000E+00 0. -1.
        -11    1    4    4    0    0 -0.82595115120E-03 -0.39528484948E-02 -0.32648784642E-02  0.52180225098E-02  0.51100000000E-03 0. -1.
         11    1    4    4    0    0  0.57505686576E-01 -0.97706274514E-01 -0.23100958910E-01  0.11570365375E+00  0.51100000000E-03 0.  1.
</event>
<event>
 8    1  0.1122848E+005  0.1043930E+01  0.7957747E-01            NaN
         13   -1    0    0    0    0  0.00000000000E+00  0.00000000000E+00  0.74505805969E-08  0.10566000000E+00  0.10566000000E+00 0. -1.
     999900   -1    0    0    0    0 -0.00000000000E+00 -0.00000000000E+00 -0.74505805969E-08  0.93827000000E+00  0.93827000000E+00 0.  1.
     999902    2    1    2    0    0  0.54263424621E-02 -0.16479740785E-01 -0.16917536430E-01  0.10196971692E+01  0.10194091852E+01 0.  0.
     999903    2    3    3    0    0  0.46416687074E-01  0.49960125499E-01  0.10623436460E+00  0.12769893216E+00  0.19254975326E-01 0.  0.
         14    1    1    2    0    0 -0.54263424621E-02  0.16479740785E-01  0.16917536430E-01  0.24232830782E-01  0.00000000000E+00 0. -1.
     999901    1    3    3    0    0 -0.40990344612E-01 -0.66439866284E-01 -0.12315190103E+00  0.89199823706E+00  0.88000000000E+00 0.  1.
        -11    1    4    4    0    0  0.25006587433E-01  0.32015325596E-01  0.46467508337E-01  0.61723584959E-01  0.51100000000E-03 0.  1.
         11    1    4    4    0    0  0.21410099641E-01  0.17944799902E-01  0.59766856262E-01  0.65975347203E-01  0.51100000000E-03 0. -1.
</event>
<event>
 8    1  0.1122848E+005  0.1043930E+01  0.7957747E-01            NaN
         13   -1    0    0    0    0  0.00000000000E+00  0.00000000000E+00  0.74505805969E-08  0.10566000000E+00  0.10566000000E+00 0.  1.
     999900   -1    0    0    0    0 -0.00000000000E+00 -0.00000000000E+00 -0.74505805969E-08  0.93827000000E+00  0.93827000000E+00 0.  1.
     999902    2    1    2    0    0  0.12011215954E-01 -0.19516741839E-01  0.57724086286E-02  0.10202975388E+01  0.10200238107E+01 0.  0.
     999903    2    3    3    0    0 -0.11571733103E+00 -0.18013550611E-01  0.52544457286E-01  0.12984570640E+00  0.19595886620E-01 0.  0.
         14    1    1    2    0    0 -0.12011215954E-01  0.19516741839E-01 -0.57724086286E-02  0.23632461194E-01  0.00000000000E+00 0.  1.
     999901    1    3    3    0    0  0.12772854699E+00 -0.15031912278E-02 -0.46772048657E-01  0.89045183241E+00  0.88000000000E+00 0.  1.
        -11    1    4    4    0    0 -0.31876865423E-01 -0.12545060050E-01  0.10129116982E-01  0.35726365792E-01  0.51100000000E-03 0.  1.
         11    1    4    4    0    0 -0.83840465609E-01 -0.54684905610E-02  0.42415340304E-01  0.94119340609E-01  0.51100000000E-03 0. -1.
</event>
<event>
 8    1  0.1122848E+005  0.1043930E+01  0.7957747E-01            NaN
         13   -1    0    0    0    0  0.00000000000E+00  0.00000000000E+00  0.74505805969E-08  0.10566000000E+00  0.10566000000E+00 0.  1.
     999900   -1    0    0    0    0 -0.00000000000E+00 -0.00000000000E+00 -0.74505805969E-08  0.93827000000E+00  0.93827000000E+00 0. -1.
     999902    2    1    2    0    0  0.34150812929E-02 -0.70909837025E-02 -0.23199650934E-01  0.10194316606E+01  0.10191372538E+01 0.  0.
     999903    2    3    3    0    0 -0.36223262021E-01 -0.48723762472E-01 -0.11640396470E+00  0.13264446480E+00  0.18935186869E-01 0.  0.
         14    1    1    2    0    0 -0.34150812929E-02  0.70909837025E-02  0.23199650934E-01  0.24498339404E-01  0.00000000000E+00 0.  1.
     999901    1    3    3    0    0  0.39638343313E-01  0.41632778770E-01  0.93204313769E-01  0.88678719580E+00  0.88000000000E+00 0.  1.
        -11    1    4    4    0    0 -0.29521908889E-01 -0.41874869178E-01 -0.80036389589E-01  0.95032271111E-01  0.51100000000E-03 0. -1.
         11    1    4    4    0    0 -0.67013531312E-02 -0.68488932941E-02 -0.36367575114E-01  0.37612193685E-01  0.51100000000E-03 0.  1.
</event>
<event>
 8    1  0.1122848E+005  0.1043930E+01  0.7957747E-01            NaN
         13   -1    0    0    0    0  0.00000000000E+00  0.00000000000E+00  0.74505805969E-08  0.10566000000E+00  0.10566000000E+00 0. -1.
     999900   -1    0    0    0    0 -0.00000000000E+00 -0.00000000000E+00 -0.74505805969E-08  0.93827000000E+00  0.93827000000E+00 0.  1.
     999902    2    1    2    0    0  0.39301725037E-02 -0.70183188516E-02 -0.22735527590E-01  0.10198134648E+01  0.10195282712E+01 0.  0.
     999903    2    3    3    0    0  0.31737605536E-01  0.66860648689E-01 -0.10879279093E+00  0.13209886666E+00  0.11688338833E-01 0.  0.
         14    1    1    2    0    0 -0.39301725037E-02  0.70183188516E-02  0.22735527590E-01  0.24116535203E-01  0.00000000000E+00 0. -1.
     999901    1    3    3    0    0 -0.27807433032E-01 -0.73878967540E-01  0.86057263344E-01  0.88771459814E+00  0.88000000000E+00 0. -1.
        -11    1    4    4    0    0  0.21017874133E-02  0.14764710890E-01 -0.23998218489E-01  0.28259331373E-01  0.51100000000E-03 0. -1.
         11    1    4    4    0    0  0.29635818123E-01  0.52095937799E-01 -0.84794572444E-01  0.10383953528E+00  0.51100000000E-03 0.  1.
</event>
<event>
 7    1  0.1122848E+005  0.1043930E+01  0.7957747E-01            NaN
         13   -1    0    0    0    0  0.00000000000E+00  0.00000000000E+00  0.74505805969E-08  0.10566000000E+00  0.10566000000E+00 0. -1.
     999900   -1    0    0    0    0 -0.00000000000E+00 -0.00000000000E+00 -0.74505805969E-08  0.93827000000E+00  0.93827000000E+00 0.  1.
     999903    2    1    2    0    0  0.11131272316E-01  0.30509433021E-02  0.82986690495E-01  0.86559149940E-01  0.21736654773E-01 0.  0.
         14    1    1    2    0    0  0.13031852611E-01  0.63508704816E-01  0.21640662458E-01  0.68348394579E-01  0.00000000000E+00 0. -1.
     999901    1    1    2    0    0 -0.24163124927E-01 -0.66559648118E-01 -0.10462735295E+00  0.88902245548E+00  0.88000000000E+00 0.  1.
        -11    1    3    3    0    0 -0.23691336435E-02  0.41511255450E-02  0.57425680020E-01  0.57626508520E-01  0.51100000000E-03 0.  1.
         11    1    3    3    0    0  0.13500405960E-01 -0.11001822429E-02  0.25561010475E-01  0.28932641420E-01  0.51100000000E-03 0. -1.
</event>
<event>
 8    1  0.1122848E+005  0.1043930E+01  0.7957747E-01            NaN
         13   -1    0    0    0    0  0.00000000000E+00  0.00000000000E+00  0.74505805969E-08  0.10566000000E+00  0.10566000000E+00 0. -1.
     999900   -1    0    0    0    0 -0.00000000000E+00 -0.00000000000E+00 -0.74505805969E-08  0.93827000000E+00  0.93827000000E+00 0.  1.
     999902    2    1    2    0    0  0.11170443783E-01  0.16566929919E-01 -0.13386172375E-01  0.10198793952E+01  0.10195957773E+01 0.  0.
     999903    2    3    3    0    0 -0.11876094296E+00  0.23054181387E-01 -0.42495197452E-01  0.12983917978E+00  0.20413572618E-01 0.  0.
         14    1    1    2    0    0 -0.11170443783E-01 -0.16566929919E-01  0.13386172375E-01  0.24050604818E-01  0.00000000000E+00 0. -1.
     999901    1    3    3    0    0  0.12993138674E+00 -0.64872514676E-02  0.29109025077E-01  0.89004021540E+00  0.88000000000E+00 0.  1.
        -11    1    4    4    0    0 -0.54182108079E-01  0.89891966307E-02 -0.29964674527E-01  0.62567158577E-01  0.51100000000E-03 0.  1.
         11    1    4    4    0    0 -0.64578834882E-01  0.14064984756E-01 -0.12530522926E-01  0.67272021203E-01  0.51100000000E-03 0. -1.
</event>
<event>
 8    1  0.1122848E+005  0.1043930E+01  0.7957747E-01            NaN
         13   -1    0    0    0    0  0.00000000000E+00  0.00000000000E+00  0.74505805969E-08  0.10566000000E+00  0.10566000000E+00 0. -1.
     999900   -1    0    0    0    0 -0.00000000000E+00 -0.00000000000E+00 -0.74505805969E-08  0.93827000000E+00  0.93827000000E+00 0.  1.
     999902    2    1    2    0    0 -0.14087116875E-02  0.22606077162E-01  0.55863678127E-02  0.10206013331E+01  0.10203346777E+01 0.  0.
     999903    2    3    3    0    0  0.44214525589E-01 -0.11551566221E+00 -0.26772621661E-01  0.12807335100E+00  0.19677842283E-01 0.  0.
         14    1    1    2    0    0  0.14087116875E-02 -0.22606077162E-01 -0.55863678127E-02  0.23328666884E-01  0.00000000000E+00 0.  1.
     999901    1    3    3    0    0 -0.45623237276E-01  0.13812173937E+00  0.32358989474E-01  0.89252798212E+00  0.88000000000E+00 0. -1.
        -11    1    4    4    0    0  0.42181246743E-01 -0.87560406958E-01 -0.19878480931E-01  0.99204322328E-01  0.51100000000E-03 0.  1.
         11    1    4    4    0    0  0.20332788455E-02 -0.27955255248E-01 -0.68941407308E-02  0.28869028669E-01  0.51100000000E-03 0. -1.
</event>
<event>
 8    1  0.1122848E+005  0.1043930E+01  0.7957747E-01            NaN
         13   -1    0    0    0    0  0.00000000000E+00  0.00000000000E+00  0.74505805969E-08  0.10566000000E+00  0.10566000000E+00 0.  1.
     999900   -1    0    0    0    0 -0.00000000000E+00 -0.00000000000E+00 -0.74505805969E-08  0.93827000000E+00  0.93827000000E+00 0. -1.
     999902    2    1    2    0    0  0.58146122238E-02 -0.19311274635E-01  0.45207806371E-02  0.10232618481E+01  0.10230530961E+01 0.  0.
     999903    2    3    3    0    0 -0.34750768769E-01  0.19214026242E-01  0.12560664209E+00  0.13321042560E+00  0.19778630326E-01 0.  0.
         14    1    1    2    0    0 -0.58146122238E-02  0.19311274635E-01 -0.45207806371E-02  0.20668151851E-01  0.00000000000E+00 0. -1.
     999901    1    3    3    0    0  0.40565380993E-01 -0.38525300877E-01 -0.12108586145E+00  0.89005142255E+00  0.88000000000E+00 0. -1.
        -11    1    4    4    0    0 -0.18397602568E-01 -0.67081723180E-03  0.58610793422E-01  0.61436210842E-01  0.51100000000E-03 0. -1.
         11    1    4    4    0    0 -0.16353166201E-01  0.19884843474E-01  0.66995848664E-01  0.71774214757E-01  0.51100000000E-03 0.  1.
</event>
<event>
 8    1  0.1122848E+005  0.1043930E+01  0.7957747E-01            NaN
         13   -1    0    0    0    0  0.00000000000E+00  0.00000000000E+00  0.74505805969E-08  0.10566000000E+00  0.10566000000E+00 0.  1.
     999900   -1    0    0    0    0 -0.00000000000E+00 -0.00000000000E+00 -0.74505805969E-08  0.93827000000E+00  0.93827000000E+00 0. -1.
     999902    2    1    2    0    0  0.18810667548E-02 -0.17393881247E-01 -0.18932345112E-01  0.10181517299E+01  0.10178253416E+01 0.  0.
     999903    2    3    3    0    0 -0.57262082181E-01  0.10935974032E+00 -0.22857573100E-01  0.12709628829E+00  0.19811587230E-01 0.  0.
         14    1    1    2    0    0 -0.18810667548E-02  0.17393881247E-01  0.18932345112E-01  0.25778270081E-01  0.00000000000E+00 0.  1.
     999901    1    3    3    0    0  0.59143148936E-01 -0.12675362157E+00  0.39252279884E-02  0.89105544163E+00  0.88000000000E+00 0. -1.
        -11    1    4    4    0    0 -0.40866164575E-01  0.68794713193E-01 -0.23285148242E-01  0.83337957858E-01  0.51100000000E-03 0.  1.
         11    1    4    4    0    0 -0.16395917607E-01  0.40565027132E-01  0.42757514220E-03  0.43758330428E-01  0.51100000000E-03 0. -1.
</event>
<event>
 8    1  0.1122848E+005  0.1043930E+01  0.7957747E-01            NaN
         13   -1    0    0    0    0  0.00000000000E+00  0.00000000000E+00  0.74505805969E-08  0.10566000000E+00  0.10566000000E+00 0. -1.
     999900   -1    0    0    0    0 -0.00000000000E+00 -0.00000000000E+00 -0.74505805969E-08  0.93827000000E+00  0.93827000000E+00 0. -1.
     999902    2    1    2    0    0 -0.20875857160E-01  0.43216768077E-02 -0.86464574522E-02  0.10209247934E+01  0.10206655644E+01 0.  0.
     999903    2    3    3    0    0  0.89135091842E-01 -0.57832694896E-01 -0.71457202064E-01  0.12968365634E+00  0.20543461172E-01 0.  0.
         14    1    1    2    0    0  0.20875857160E-01 -0.43216768077E-02  0.86464574522E-02  0.23005206564E-01  0.00000000000E+00 0. -1.
     999901    1    3    3    0    0 -0.11001094900E+00  0.62154371703E-01  0.62810744612E-01  0.89124113710E+00  0.88000000000E+00 0.  1.
        -11    1    4    4    0    0  0.15173011550E-01 -0.18488089533E-01 -0.10769836595E-01  0.26235095490E-01  0.51100000000E-03 0.  1.
         11    1    4    4    0    0  0.73962080292E-01 -0.39344605362E-01 -0.60687365470E-01  0.10344856085E+00  0.51100000000E-03 0. -1.
</event>
<event>
 8    1  0.1122848E+005  0.1043930E+01  0.7957747E-01            NaN
         13   -1    0    0    0    0  0.00000000000E+00  0.00000000000E+00  0.74505805969E-08  0.10566000000E+00  0.10566000000E+00 0. -1.
     999900   -1    0    0    0    0 -0.00000000000E+00 -0.00000000000E+00 -0.74505805969E-08  0.93827000000E+00  0.93827000000E+00 0.  1.
     999902    2    1    2    0    0  0.13690823100E-02  0.13046440667E-01  0.20251439886E-01  0.10198010792E+01  0.10195155891E+01 0.  0.
     999903    2    3    3    0    0 -0.38671937906E-01  0.48892489989E-01 -0.11044259081E+00  0.12852718630E+00  0.20872886544E-01 0.  0.
         14    1    1    2    0    0 -0.13690823100E-02 -0.13046440667E-01 -0.20251439886E-01  0.24128920778E-01  0.00000000000E+00 0.  1.
     999901    1    3    3    0    0  0.40041020216E-01 -0.35846049322E-01  0.13069403070E+00  0.89127389293E+00  0.88000000000E+00 0. -1.
        -11    1    4    4    0    0 -0.32314870382E-01  0.35104012401E-01 -0.97578914406E-01  0.10862066190E+00  0.51100000000E-03 0. -1.
         11    1    4    4    0    0 -0.63570675238E-02  0.13788477587E-01 -0.12863676407E-01  0.19906524393E-01  0.51100000000E-03 0.  1.
</event>
<event>
 8    1  0.1122848E+005  0.1043930E+01  0.7957747E-01            NaN
         13   -1    0    0    0    0  0.00000000000E+00  0.00000000000E+00  0.74505805969E-08  0.10566000000E+00  0.10566000000E+00 0. -1.
     999900   -1    0    0    0    0 -0.00000000000E+00 -0.00000000000E+00 -0.74505805969E-08  0.93827000000E+00  0.93827000000E+00 0. -1.
     999902    2    1    2    0    0  0.27219937767E-02  0.23226425489E-01 -0.56229622432E-03  0.10205378588E+01  0.10202697335E+01 0.  0.
     999903    2    3    3    0    0  0.27651907365E-01  0.85201320406E-01  0.95838352232E-01  0.13275665087E+00  0.20382482986E-01 0.  0.
         14    1    1    2    0    0 -0.27219937767E-02 -0.23226425489E-01  0.56229622432E-03  0.23392141163E-01  0.00000000000E+00 0.  1.
     999901    1    3    3    0    0 -0.24929913588E-01 -0.61974894917E-01 -0.96400648456E-01  0.88778120796E+00  0.88000000000E+00 0. -1.
        -11    1    4    4    0    0 -0.20550086796E-02  0.11834538739E-01  0.76258585947E-02  0.14237071614E-01  0.51100000000E-03 0. -1.
         11    1    4    4    0    0  0.29706916044E-01  0.73366781667E-01  0.88212493637E-01  0.11851957926E+00  0.51100000000E-03 0.  1.
</event>
<event>
 8    1  0.1122848E+005  0.1043930E+01  0.7957747E-01            NaN
         13   -1    0    0    0    0  0.00000000000E+00  0.00000000000E+00  0.74505805969E-08  0.10566000000E+00  0.10566000000E+00 0.  1.
     999900   -1    0    0    0    0 -0.00000000000E+00 -0.00000000000E+00 -0.74505805969E-08  0.93827000000E+00  0.93827000000E+00 0. -1.
     999902    2    1    2    0    0  0.43183705365E-02  0.16375978844E-01  0.18042292070E-01  0.10191843881E+01  0.10188839343E+01 0.  0.
     999903    2    3    3    0    0 -0.61071538641E-01 -0.11023019112E+00  0.58434922911E-02  0.12763866673E+00  0.19417903504E-01 0.  0.
         14    1    1    2    0    0 -0.43183705365E-02 -0.16375978844E-01 -0.18042292070E-01  0.24745611941E-01  0.00000000000E+00 0. -1.
     999901    1    3    3    0    0  0.65389909178E-01  0.12660616997E+00  0.12198799779E-01  0.89154572132E+00  0.88000000000E+00 0. -1.
        -11    1    4    4    0    0 -0.16395274701E-01 -0.46385231707E-01 -0.25252152674E-02  0.49264922472E-01  0.51100000000E-03 0. -1.
         11    1    4    4    0    0 -0.44676263940E-01 -0.63844959417E-01  0.83687075585E-02  0.78373744263E-01  0.51100000000E-03 0.  1.
</event>
<event>
 8    1  0.1122848E+005  0.1043930E+01  0.7957747E-01            NaN
         13   -1    0    0    0    0  0.00000000000E+00  0.00000000000E+00  0.74505805969E-08  0.10566000000E+00  0.10566000000E+00 0. -1.
     999900   -1    0    0    0    0 -0.00000000000E+00 -0.00000000000E+00 -0.74505805969E-08  0.93827000000E+00  0.93827000000E+00 0. -1.
     999902    2    1    2    0    0  0.10226936208E-01 -0.19770065871E-01  0.63951277821E-02  0.10207709113E+01  0.10205081626E+01 0.  0.
     999903    2    3    3    0    0 -0.61699198583E-01  0.95578059130E-01 -0.55300428432E-01  0.12819884115E+00  0.20853033218E-01 0.  0.
         14    1    1    2    0    0 -0.10226936208E-01  0.19770065871E-01 -0.63951277821E-02  0.23159088672E-01  0.00000000000E+00 0.  1.
     999901    1    3    3    0    0  0.71926134791E-01 -0.11534812500E+00  0.61695556214E-01  0.89257207018E+00  0.88000000000E+00 0.  1.
        -11    1    4    4    0    0 -0.48475221875E-01  0.57289340336E-01 -0.33368255888E-01  0.82131706874E-01  0.51100000000E-03 0. -1.
         11    1    4    4    0    0 -0.13223976708E-01  0.38288718794E-01 -0.21932172544E-01  0.46067134275E-01  0.51100000000E-03 0.  1.
</event>
<event>
 8    1  0.1122848E+005  0.1043930E+01  0.7957747E-01            NaN
         13   -1    0    0    0    0  0.00000000000E+00  0.00000000000E+00  0.74505805969E-08  0.10566000000E+00  0.10566000000E+00 0. -1.
     999900   -1    0    0    0    0 -0.00000000000E+00 -0.00000000000E+00 -0.74505805969E-08  0.93827000000E+00  0.93827000000E+00 0. -1.
     999902    2    1    2    0    0 -0.12990716452E-01 -0.18853218733E-01 -0.19056502606E-02  0.10209553602E+01  0.10206968274E+01 0.  0.
     999903    2    3    3    0    0 -0.70095305417E-01 -0.60849933910E-01 -0.93620727175E-01  0.13335392178E+00  0.20058953103E-01 0.  0.
         14    1    1    2    0    0  0.12990716452E-01  0.18853218733E-01  0.19056502606E-02  0.22974639789E-01  0.00000000000E+00 0.  1.
     999901    1    3    3    0    0  0.57104588965E-01  0.41996715177E-01  0.91715076915E-01  0.88760143843E+00  0.88000000000E+00 0. -1.
        -11    1    4    4    0    0 -0.21590356903E-01 -0.16635228355E-01 -0.15642119225E-01  0.31429466246E-01  0.51100000000E-03 0.  1.
         11    1    4    4    0    0 -0.48504948513E-01 -0.44214705555E-01 -0.77978607950E-01  0.10192445554E+00  0.51100000000E-03 0. -1.
</event>
<event>
 8    1  0.1122848E+005  0.1043930E+01  0.7957747E-01            NaN
         13   -1    0    0    0    0  0.00000000000E+00  0.00000000000E+00  0.74505805969E-08  0.10566000000E+00  0.10566000000E+00 0. -1.
     999900   -1    0    0    0    0 -0.00000000000E+00 -0.00000000000E+00 -0.74505805969E-08  0.93827000000E+00  0.93827000000E+00 0. -1.
     999902    2    1    2    0    0  0.83433065970E-03 -0.51753611892E-02 -0.23058622274E-01  0.10202830016E+01  0.10200089327E+01 0.  0.
     999903    2    3    3    0    0  0.10543098284E+00 -0.23672968608E-01 -0.73839535088E-01  0.13244218130E+00  0.20311397306E-01 0.  0.
         14    1    1    2    0    0 -0.83433065970E-03  0.51753611892E-02  0.23058622274E-01  0.23646998377E-01  0.00000000000E+00 0. -1.
     999901    1    3    3    0    0 -0.10459665218E+00  0.18497607419E-01  0.50780912814E-01  0.88784082032E+00  0.88000000000E+00 0. -1.
        -11    1    4    4    0    0  0.27209388248E-01 -0.18465412397E-02 -0.28423628767E-01  0.39394470636E-01  0.51100000000E-03 0.  1.
         11    1    4    4    0    0  0.78221594589E-01 -0.21826427368E-01 -0.45415906321E-01  0.93047710663E-01  0.51100000000E-03 0. -1.
</event>
<event>
 8    1  0.1122848E+005  0.1043930E+01  0.7957747E-01            NaN
         13   -1    0    0    0    0  0.00000000000E+00  0.00000000000E+00  0.74505805969E-08  0.10566000000E+00  0.10566000000E+00 0.  1.
     999900   -1    0    0    0    0 -0.00000000000E+00 -0.00000000000E+00 -0.74505805969E-08  0.93827000000E+00  0.93827000000E+00 0.  1.
     999902    2    1    2    0    0  0.16989091639E-01  0.63362498962E-02 -0.17361591401E-01  0.10188261725E+01  0.10185168470E+01 0.  0.
     999903    2    3    3    0    0 -0.77217175619E-01 -0.79304541987E-01 -0.62262193594E-01  0.12853114834E+00  0.19798301757E-01 0.  0.
         14    1    1    2    0    0 -0.16989091639E-01 -0.63362498962E-02  0.17361591401E-01  0.25103827466E-01  0.00000000000E+00 0.  1.
     999901    1    3    3    0    0  0.94206267258E-01  0.85640791883E-01  0.44900602193E-01  0.89029502419E+00  0.88000000000E+00 0.  1.
        -11    1    4    4    0    0 -0.41800822609E-01 -0.50570018373E-01 -0.27308165276E-01  0.71067802419E-01  0.51100000000E-03 0.  1.
         11    1    4    4    0    0 -0.35416353010E-01 -0.28734523614E-01 -0.34954028318E-01  0.57463345922E-01  0.51100000000E-03 0. -1.
</event>
<event>
 8    1  0.1122848E+005  0.1043930E+01  0.7957747E-01            NaN
         13   -1    0    0    0    0  0.00000000000E+00  0.00000000000E+00  0.74505805969E-08  0.10566000000E+00  0.10566000000E+00 0. -1.
     999900   -1    0    0    0    0 -0.00000000000E+00 -0.00000000000E+00 -0.74505805969E-08  0.93827000000E+00  0.93827000000E+00 0. -1.
     999902    2    1    2    0    0  0.22176161765E-02 -0.24832584379E-01 -0.13538159925E-02  0.10189618626E+01  0.10186559132E+01 0.  0.
     999903    2    3    3    0    0 -0.11585372921E+00  0.21738061518E-01 -0.47508092144E-01  0.12865860814E+00  0.20034688405E-01 0.  0.
         14    1    1    2    0    0 -0.22176161765E-02  0.24832584379E-01  0.13538159925E-02  0.24968137420E-01  0.00000000000E+00 0.  1.
     999901    1    3    3    0    0  0.11807134538E+00 -0.46570645897E-01  0.46154276151E-01  0.89030325444E+00  0.88000000000E+00 0.  1.
        -11    1    4    4    0    0 -0.94377755762E-01  0.13505568344E-01 -0.45276391903E-01  0.10554512752E+00  0.51100000000E-03 0. -1.
         11    1    4    4    0    0 -0.21475973445E-01  0.82324931739E-02 -0.22317002411E-02  0.23113480617E-01  0.51100000000E-03 0.  1.
</event>
<event>
 8    1  0.1122848E+005  0.1043930E+01  0.7957747E-01            NaN
         13   -1    0    0    0    0  0.00000000000E+00  0.00000000000E+00  0.74505805969E-08  0.10566000000E+00  0.10566000000E+00 0. -1.
     999900   -1    0    0    0    0 -0.00000000000E+00 -0.00000000000E+00 -0.74505805969E-08  0.93827000000E+00  0.93827000000E+00 0. -1.
     999902    2    1    2    0    0  0.55550905895E-03  0.23781642325E-01 -0.36871813752E-03  0.10201390132E+01  0.10198615568E+01 0.  0.
     999903    2    3    3    0    0 -0.28012840792E-03 -0.12294980316E+00  0.27183954841E-01  0.12756410584E+00  0.20418156847E-01 0.  0.
         14    1    1    2    0    0 -0.55550905895E-03 -0.23781642325E-01  0.36871813752E-03  0.23790986845E-01  0.00000000000E+00 0.  1.
     999901    1    3    3    0    0  0.83563746686E-03  0.14673144548E+00 -0.27552672978E-01  0.89257490732E+00  0.88000000000E+00 0.  1.
        -11    1    4    4    0    0 -0.57040514805E-02 -0.37021177952E-01  0.16016375822E-01  0.40741738251E-01  0.51100000000E-03 0. -1.
         11    1    4    4    0    0  0.54239230726E-02 -0.85928625206E-01  0.11167579019E-01  0.86822367587E-01  0.51100000000E-03 0.  1.
</event>
<event>
 8    1  0.1122848E+005  0.1043930E+01  0.7957747E-01            NaN
         13   -1    0    0    0    0  0.00000000000E+00  0.00000000000E+00  0.74505805969E-08  0.10566000000E+00  0.10566000000E+00 0. -1.
     999900   -1    0    0    0    0 -0.00000000000E+00 -0.00000000000E+00 -0.74505805969E-08  0.93827000000E+00  0.93827000000E+00 0. -1.
     999902    2    1    2    0    0  0.14662540823E-01 -0.16520686642E-01  0.88068598150E-02  0.10201500931E+01  0.10198728982E+01 0.  0.
     999903    2    3    3    0    0  0.57283174081E-01  0.11445723766E+00 -0.61331452192E-02  0.12931063578E+00  0.17372500418E-01 0.  0.
         14    1    1    2    0    0 -0.14662540823E-01  0.16520686642E-01 -0.88068598150E-02  0.23779906861E-01  0.00000000000E+00 0.  1.
     999901    1    3    3    0    0 -0.42620633258E-01 -0.13097792430E+00  0.14940005034E-01  0.89083945736E+00  0.88000000000E+00 0.  1.
        -11    1    4    4    0    0  0.30419021337E-01  0.79071795243E-01 -0.31886779197E-02  0.84782630590E-01  0.51100000000E-03 0. -1.
         11    1    4    4    0    0  0.26864152744E-01  0.35385442417E-01 -0.29444672995E-02  0.44528005192E-01  0.51100000000E-03 0.  1.
</event>
<event>
 8    1  0.1122848E+005  0.1043930E+01  0.7957747E-01            NaN
         13   -1    0    0    0    0  0.00000000000E+00  0.00000000000E+00  0.74505805969E-08  0.10566000000E+00  0.10566000000E+00 0. -1.
     999900   -1    0    0    0    0 -0.00000000000E+00 -0.00000000000E+00 -0.74505805969E-08  0.93827000000E+00  0.93827000000E+00 0.  1.
     999902    2    1    2    0    0 -0.12720480841E-01 -0.56330707237E-02 -0.19000584677E-01  0.10203808103E+01  0.10201090303E+01 0.  0.
     999903    2    3    3    0    0 -0.72606940275E-01 -0.10793032577E+00  0.92041870531E-02  0.13198527586E+00  0.20363521005E-01 0.  0.
         14    1    1    2    0    0  0.12720480841E-01  0.56330707237E-02  0.19000584677E-01  0.23549189725E-01  0.00000000000E+00 0. -1.
     999901    1    3    3    0    0  0.59886459434E-01  0.10229725505E+00 -0.28204771731E-01  0.88839553441E+00  0.88000000000E+00 0. -1.
        -11    1    4    4    0    0 -0.57109900656E-01 -0.81726216772E-01 -0.14852154086E-02  0.99715506551E-01  0.51100000000E-03 0. -1.
         11    1    4    4    0    0 -0.15497039619E-01 -0.26204109002E-01  0.10689402462E-01  0.32269769313E-01  0.51100000000E-03 0.  1.
</event>
<event>
 8    1  0.1122848E+005  0.1043930E+01  0.7957747E-01            NaN
         13   -1    0    0    0    0  0.00000000000E+00  0.00000000000E+00  0.74505805969E-08  0.10566000000E+00  0.10566000000E+00 0. -1.
     999900   -1    0    0    0    0 -0.00000000000E+00 -0.00000000000E+00 -0.74505805969E-08  0.93827000000E+00  0.93827000000E+00 0.  1.
     999902    2    1    2    0    0 -0.17670990320E-01 -0.25538568797E-03 -0.24837386691E-01  0.10134468096E+01  0.10129882580E+01 0.  0.
     999903    2    3    3    0    0 -0.89329401282E-01 -0.52082829314E-01  0.66243262725E-01  0.12433675088E+00  0.19470354926E-01 0.  0.
         14    1    1    2    0    0  0.17670990320E-01  0.25538568797E-03  0.24837386691E-01  0.30483190423E-01  0.00000000000E+00 0. -1.
     999901    1    3    3    0    0  0.71658410962E-01  0.51827443626E-01 -0.91080649415E-01  0.88911005869E+00  0.88000000000E+00 0.  1.
        -11    1    4    4    0    0 -0.64784973171E-01 -0.43537540372E-01  0.57360839110E-01  0.96866594628E-01  0.51100000000E-03 0. -1.
         11    1    4    4    0    0 -0.24544428111E-01 -0.85452889420E-02  0.88824236142E-02  0.27470156254E-01  0.51100000000E-03 0.  1.
</event>
<event>
 8    1  0.1122848E+005  0.1043930E+01  0.7957747E-01            NaN
         13   -1    0    0    0    0  0.00000000000E+00  0.00000000000E+00  0.74505805969E-08  0.10566000000E+00  0.10566000000E+00 0.  1.
     999900   -1    0    0    0    0 -0.00000000000E+00 -0.00000000000E+00 -0.74505805969E-08  0.93827000000E+00  0.93827000000E+00 0.  1.
     999902    2    1    2    0    0  0.20490068784E-01 -0.76272347199E-02  0.85347839825E-02  0.10204595896E+01  0.10201896460E+01 0.  0.
     999903    2    3    3    0    0  0.55965917720E-01  0.72236436269E-01 -0.91034914546E-01  0.13054337628E+00  0.20098028606E-01 0.  0.
         14    1    1    2    0    0 -0.20490068784E-01  0.76272347199E-02 -0.85347839825E-02  0.23470410433E-01  0.00000000000E+00 0.  1.
     999901    1    3    3    0    0 -0.35475848936E-01 -0.79863670989E-01  0.99569698529E-01  0.88991621328E+00  0.88000000000E+00 0. -1.
        -11    1    4    4    0    0  0.49050259231E-01  0.49079063629E-01 -0.67275093729E-01  0.96648237307E-01  0.51100000000E-03 0. -1.
         11    1    4    4    0    0  0.69156584889E-02  0.23157372640E-01 -0.23759820817E-01  0.33895138976E-01  0.51100000000E-03 0.  1.
</event>
<event>
 8    1  0.1122848E+005  0.1043930E+01  0.7957747E-01            NaN
         13   -1    0    0    0    0  0.00000000000E+00  0.00000000000E+00  0.74505805969E-08  0.10566000000E+00  0.10566000000E+00 0.  1.
     999900   -1    0    0    0    0 -0.00000000000E+00 -0.00000000000E+00 -0.74505805969E-08  0.93827000000E+00  0.93827000000E+00 0.  1.
     999902    2    1    2    0    0  0.16688727201E-01 -0.14882940116E-01 -0.93388945809E-02  0.10196971612E+01  0.10194091770E+01 0.  0.
     999903    2    3    3    0    0 -0.60151567487E-01 -0.17385700840E-01  0.10996677625E+00  0.12832488336E+00  0.21309860239E-01 0.  0.
         14    1    1    2    0    0 -0.16688727201E-01  0.14882940116E-01  0.93388945809E-02  0.24232838754E-01  0.00000000000E+00 0.  1.
     999901    1    3    3    0    0  0.76840294689E-01  0.25027607240E-02 -0.11930567084E+00  0.89137227789E+00  0.88000000000E+00 0.  1.
        -11    1    4    4    0    0 -0.52065594196E-01 -0.90755776483E-02  0.99638266221E-01  0.11278846317E+00  0.51100000000E-03 0. -1.
         11    1    4    4    0    0 -0.80859732912E-02 -0.83101231915E-02  0.10328510033E-01  0.15536420181E-01  0.51100000000E-03 0.  1.
</event>
<event>
 8    1  0.1122848E+005  0.1043930E+01  0.7957747E-01            NaN
         13   -1    0    0    0    0  0.00000000000E+00  0.00000000000E+00  0.74505805969E-08  0.10566000000E+00  0.10566000000E+00 0.  1.
     999900   -1    0    0    0    0 -0.00000000000E+00 -0.00000000000E+00 -0.74505805969E-08  0.93827000000E+00  0.93827000000E+00 0. -1.
     999902    2    1    2    0    0 -0.26549811747E-01  0.39894425146E-02 -0.14877829775E-01  0.10132354081E+01  0.10127703758E+01 0.  0.
     999903    2    3    3    0    0  0.11066087404E+00 -0.14012318876E-01 -0.44548288268E-01  0.12192672314E+00  0.20961910803E-01 0.  0.
         14    1    1    2    0    0  0.26549811747E-01 -0.39894425146E-02  0.14877829775E-01  0.30694591937E-01  0.00000000000E+00 0.  1.
     999901    1    3    3    0    0 -0.13721068579E+00  0.18001761391E-01  0.29670458493E-01  0.89130868492E+00  0.88000000000E+00 0.  1.
        -11    1    4    4    0    0  0.24076129810E-01 -0.10846668414E-01 -0.59469712317E-02  0.27072824569E-01  0.51100000000E-03 0. -1.
         11    1    4    4    0    0  0.86584744233E-01 -0.31656504619E-02 -0.38601317036E-01  0.94853898574E-01  0.51100000000E-03 0.  1.
</event>
<event>
 8    1  0.1122848E+005  0.1043930E+01  0.7957747E-01            NaN
         13   -1    0    0    0    0  0.00000000000E+00  0.00000000000E+00  0.74505805969E-08  0.10566000000E+00  0.10566000000E+00 0. -1.
     999900   -1    0    0    0    0 -0.00000000000E+00 -0.00000000000E+00 -0.74505805969E-08  0.93827000000E+00  0.93827000000E+00 0.  1.
     999902    2    1    2    0    0  0.14279838611E-01  0.18403425976E-02 -0.18514867792E-01  0.10204757684E+01  0.10202062011E+01 0.  0.
     999903    2    3    3    0    0 -0.10492894309E-01  0.33785726796E-01  0.12200679089E+00  0.12841044990E+00  0.18761941686E-01 0.  0.
         14    1    1    2    0    0 -0.14279838611E-01 -0.18403425976E-02  0.18514867792E-01  0.23454231623E-01  0.00000000000E+00 0. -1.
     999901    1    3    3    0    0  0.24772732920E-01 -0.31945384199E-01 -0.14052165868E+00  0.89206531847E+00  0.88000000000E+00 0.  1.
        -11    1    4    4    0    0  0.38295435241E-02  0.15851622087E-01  0.63454705227E-01  0.65518700100E-01  0.51100000000E-03 0. -1.
         11    1    4    4    0    0 -0.14322437833E-01  0.17934104709E-01  0.58552085659E-01  0.62891749802E-01  0.51100000000E-03 0.  1.
</event>
<event>
 8    1  0.1122848E+005  0.1043930E+01  0.7957747E-01            NaN
         13   -1    0    0    0    0  0.00000000000E+00  0.00000000000E+00  0.74505805969E-08  0.10566000000E+00  0.10566000000E+00 0. -1.
     999900   -1    0    0    0    0 -0.00000000000E+00 -0.00000000000E+00 -0.74505805969E-08  0.93827000000E+00  0.93827000000E+00 0. -1.
     999902    2    1    2    0    0 -0.74995541443E-02  0.23742377590E-01 -0.59860247878E-03  0.10190241346E+01  0.10187197283E+01 0.  0.
     999903    2    3    3    0    0  0.22145795381E-02  0.34563369888E-01 -0.12403777100E+00  0.13028981739E+00  0.19762008562E-01 0.  0.
         14    1    1    2    0    0  0.74995541443E-02 -0.23742377590E-01  0.59860247878E-03  0.24905865392E-01  0.00000000000E+00 0.  1.
     999901    1    3    3    0    0 -0.97141336825E-02 -0.10820992297E-01  0.12343916852E+00  0.88873431721E+00  0.88000000000E+00 0.  1.
        -11    1    4    4    0    0 -0.66280790243E-02  0.21324280211E-01 -0.89670452721E-01  0.92410538199E-01  0.51100000000E-03 0. -1.
         11    1    4    4    0    0  0.88426585624E-02  0.13239089677E-01 -0.34367318276E-01  0.37879279196E-01  0.51100000000E-03 0.  1.
</event>
<event>
 8    1  0.1122848E+005  0.1043930E+01  0.7957747E-01            NaN
         13   -1    0    0    0    0  0.00000000000E+00  0.00000000000E+00  0.74505805969E-08  0.10566000000E+00  0.10566000000E+00 0.  1.
     999900   -1    0    0    0    0 -0.00000000000E+00 -0.00000000000E+00 -0.74505805969E-08  0.93827000000E+00  0.93827000000E+00 0.  1.
     999902    2    1    2    0    0  0.16608271563E-01  0.12512727647E-01  0.11400399785E-01  0.10202156130E+01  0.10199399614E+01 0.  0.
     999903    2    3    3    0    0  0.40222440525E-02  0.19449695996E-01 -0.12629696351E+00  0.12939178443E+00  0.19920887618E-01 0.  0.
         14    1    1    2    0    0 -0.16608271563E-01 -0.12512727647E-01 -0.11400399785E-01  0.23714387041E-01  0.00000000000E+00 0.  1.
     999901    1    3    3    0    0  0.12586027511E-01 -0.69369683493E-02  0.13769736330E+00  0.89082382853E+00  0.88000000000E+00 0. -1.
        -11    1    4    4    0    0 -0.40218403302E-02  0.33928664241E-02 -0.72119454701E-01  0.72312956028E-01  0.51100000000E-03 0. -1.
         11    1    4    4    0    0  0.80440843826E-02  0.16056829572E-01 -0.54177508812E-01  0.57078828400E-01  0.51100000000E-03 0.  1.
</event>
<event>
 8    1  0.1122848E+005  0.1043930E+01  0.7957747E-01            NaN
         13   -1    0    0    0    0  0.00000000000E+00  0.00000000000E+00  0.74505805969E-08  0.10566000000E+00  0.10566000000E+00 0. -1.
     999900   -1    0    0    0    0 -0.00000000000E+00 -0.00000000000E+00 -0.74505805969E-08  0.93827000000E+00  0.93827000000E+00 0.  1.
     999902    2    1    2    0    0 -0.91888231383E-02  0.12550769887E-01  0.18065214711E-01  0.10200907828E+01  0.10198121870E+01 0.  0.
     999903    2    3    3    0    0  0.11215153303E-02  0.11407504868E+00  0.65267277197E-01  0.13293717884E+00  0.19952481509E-01 0.  0.
         14    1    1    2    0    0  0.91888231383E-02 -0.12550769887E-01 -0.18065214711E-01  0.23839217227E-01  0.00000000000E+00 0.  1.
     999901    1    3    3    0    0 -0.10310338469E-01 -0.10152427879E+00 -0.47202062486E-01  0.88715360393E+00  0.88000000000E+00 0.  1.
        -11    1    4    4    0    0 -0.91166858112E-02  0.62974095668E-01  0.38015967004E-01  0.74123717889E-01  0.51100000000E-03 0. -1.
         11    1    4    4    0    0  0.10238201141E-01  0.51100953010E-01  0.27251310193E-01  0.58813460954E-01  0.51100000000E-03 0.  1.
</event>
<event>
 8    1  0.1122848E+005  0.1043930E+01  0.7957747E-01            NaN
         13   -1    0    0    0    0  0.00000000000E+00  0.00000000000E+00  0.74505805969E-08  0.10566000000E+00  0.10566000000E+00 0. -1.
     999900   -1    0    0    0    0 -0.00000000000E+00 -0.00000000000E+00 -0.74505805969E-08  0.93827000000E+00  0.93827000000E+00 0.  1.
     999902    2    1    2    0    0 -0.16741241906E-01 -0.76334273919E-02  0.11339757559E-01  0.10223168444E+01  0.10220883532E+01 0.  0.
     999903    2    3    3    0    0 -0.36789927832E-01 -0.69423354122E-01 -0.10459667881E+00  0.13233864120E+00  0.19998746242E-01 0.  0.
         14    1    1    2    0    0  0.16741241906E-01  0.76334273919E-02 -0.11339757559E-01  0.21613155619E-01  0.00000000000E+00 0.  1.
     999901    1    3    3    0    0  0.20048685926E-01  0.61789926730E-01  0.11593643636E+00  0.88997820318E+00  0.88000000000E+00 0. -1.
        -11    1    4    4    0    0 -0.17719938291E-01 -0.16485885858E-01 -0.39125244131E-01  0.46008982763E-01  0.51100000000E-03 0.  1.
         11    1    4    4    0    0 -0.19069989541E-01 -0.52937468264E-01 -0.65471434675E-01  0.86329658442E-01  0.51100000000E-03 0. -1.
</event>
<event>
 8    1  0.1235047E+005  0.1043930E+01  0.7957747E-01            NaN
         13   -1    0    0    0    0  0.00000000000E+00  0.00000000000E+00  0.74505805969E-08  0.10566000000E+00  0.10566000000E+00 0. -1.
     999900   -1    0    0    0    0 -0.00000000000E+00 -0.00000000000E+00 -0.74505805969E-08  0.93827000000E+00  0.93827000000E+00 0. -1.
     999902    2    1    2    0    0  0.19389674148E-01 -0.93605896308E-02 -0.15028318996E-02  0.10223467054E+01  0.10221188519E+01 0.  0.
     999903    2    3    3    0    0  0.11958893479E-01  0.10936872315E-01  0.13022080691E+00  0.13228023571E+00  0.16672489203E-01 0.  0.
         14    1    1    2    0    0 -0.19389674148E-01  0.93605896308E-02  0.15028318996E-02  0.21583294593E-01  0.00000000000E+00 0.  1.
     999901    1    3    3    0    0  0.74307806685E-02 -0.20297461946E-01 -0.13172363881E+00  0.89006646970E+00  0.88000000000E+00 0. -1.
        -11    1    4    4    0    0 -0.10536790084E-02  0.47106148293E-02  0.76504545842E-01  0.76658377149E-01  0.51100000000E-03 0.  1.
         11    1    4    4    0    0  0.13012572487E-01  0.62262574858E-02  0.53716261070E-01  0.55621858558E-01  0.51100000000E-03 0. -1.
</event>
<event>
 8    1  0.1122848E+005  0.1043930E+01  0.7957747E-01            NaN
         13   -1    0    0    0    0  0.00000000000E+00  0.00000000000E+00  0.74505805969E-08  0.10566000000E+00  0.10566000000E+00 0. -1.
     999900   -1    0    0    0    0 -0.00000000000E+00 -0.00000000000E+00 -0.74505805969E-08  0.93827000000E+00  0.93827000000E+00 0. -1.
     999902    2    1    2    0    0  0.13612642025E-01  0.52016380732E-03 -0.19513470383E-01  0.10201318883E+01  0.10198542638E+01 0.  0.
     999903    2    3    3    0    0 -0.40362384338E-02  0.35437810023E-02  0.12614645884E+00  0.12797862782E+00  0.20898576378E-01 0.  0.
         14    1    1    2    0    0 -0.13612642025E-01 -0.52016380732E-03  0.19513470383E-01  0.23798111683E-01  0.00000000000E+00 0.  1.
     999901    1    3    3    0    0  0.17648880458E-01 -0.30236171950E-02 -0.14565992923E+00  0.89215326050E+00  0.88000000000E+00 0. -1.
        -11    1    4    4    0    0 -0.78480298217E-03 -0.79340831821E-02  0.28292267047E-01  0.29398623901E-01  0.51100000000E-03 0.  1.
         11    1    4    4    0    0 -0.32514354516E-02  0.11477864184E-01  0.97854191795E-01  0.98580003914E-01  0.51100000000E-03 0. -1.
</event>
<event>
 8    1  0.1122848E+005  0.1043930E+01  0.7957747E-01            NaN
         13   -1    0    0    0    0  0.00000000000E+00  0.00000000000E+00  0.74505805969E-08  0.10566000000E+00  0.10566000000E+00 0.  1.
     999900   -1    0    0    0    0 -0.00000000000E+00 -0.00000000000E+00 -0.74505805969E-08  0.93827000000E+00  0.93827000000E+00 0.  1.
     999902    2    1    2    0    0 -0.11419621247E-02  0.11627200342E-01 -0.21693994180E-01  0.10192900883E+01  0.10189922271E+01 0.  0.
     999903    2    3    3    0    0 -0.30310569024E-01 -0.62311840395E-01  0.10419932254E+00  0.12678411265E+00  0.20376858273E-01 0.  0.
         14    1    1    2    0    0  0.11419621247E-02 -0.11627200342E-01  0.21693994180E-01  0.24639911703E-01  0.00000000000E+00 0.  1.
     999901    1    3    3    0    0  0.29168606899E-01  0.73939040737E-01 -0.12589331672E+00  0.89250597565E+00  0.88000000000E+00 0. -1.
        -11    1    4    4    0    0 -0.28490978325E-01 -0.39827894879E-01  0.62821474424E-01  0.79654226669E-01  0.51100000000E-03 0.  1.
         11    1    4    4    0    0 -0.18195906992E-02 -0.22483945516E-01  0.41377848120E-01  0.47129885978E-01  0.51100000000E-03 0. -1.
</event>
<event>
 8    1  0.1122848E+005  0.1043930E+01  0.7957747E-01            NaN
         13   -1    0    0    0    0  0.00000000000E+00  0.00000000000E+00  0.74505805969E-08  0.10566000000E+00  0.10566000000E+00 0. -1.
     999900   -1    0    0    0    0 -0.00000000000E+00 -0.00000000000E+00 -0.74505805969E-08  0.93827000000E+00  0.93827000000E+00 0.  1.
     999902    2    1    2    0    0 -0.13108817454E-01 -0.54498502211E-02  0.18837998433E-01  0.10203416099E+01  0.10200689137E+01 0.  0.
     999903    2    3    3    0    0 -0.62412318733E-01  0.95324125045E-01 -0.59927095480E-01  0.12972936580E+00  0.16014531908E-01 0.  0.
         14    1    1    2    0    0  0.13108817454E-01  0.54498502211E-02 -0.18837998433E-01  0.23588390098E-01  0.00000000000E+00 0.  1.
     999901    1    3    3    0    0  0.49303501279E-01 -0.10077397527E+00  0.78765093913E-01  0.89061224410E+00  0.88000000000E+00 0. -1.
        -11    1    4    4    0    0 -0.18612726979E-01  0.40542273811E-01 -0.18737118656E-01  0.48388534880E-01  0.51100000000E-03 0. -1.
         11    1    4    4    0    0 -0.43799591755E-01  0.54781851235E-01 -0.41189976823E-01  0.81340830917E-01  0.51100000000E-03 0.  1.
</event>
<event>
 8    1  0.1122848E+005  0.1043930E+01  0.7957747E-01            NaN
         13   -1    0    0    0    0  0.00000000000E+00  0.00000000000E+00  0.74505805969E-08  0.10566000000E+00  0.10566000000E+00 0. -1.
     999900   -1    0    0    0    0 -0.00000000000E+00 -0.00000000000E+00 -0.74505805969E-08  0.93827000000E+00  0.93827000000E+00 0.  1.
     999902    2    1    2    0    0 -0.28375762673E-01  0.61581509369E-03 -0.68039301939E-02  0.10147434174E+01  0.10143235907E+01 0.  0.
     999903    2    3    3    0    0 -0.68474605201E-01 -0.92831731223E-01 -0.51088176409E-01  0.12778149292E+00  0.20288082328E-01 0.  0.
         14    1    1    2    0    0  0.28375762673E-01 -0.61581509369E-03  0.68039301939E-02  0.29186582561E-01  0.00000000000E+00 0.  1.
     999901    1    3    3    0    0  0.40098842528E-01  0.93447546316E-01  0.44284246215E-01  0.88696192452E+00  0.88000000000E+00 0. -1.
        -11    1    4    4    0    0 -0.35237011804E-01 -0.31053928671E-01 -0.20595144656E-01  0.51287567608E-01  0.51100000000E-03 0. -1.
         11    1    4    4    0    0 -0.33237593398E-01 -0.61777802552E-01 -0.30493031753E-01  0.76493925311E-01  0.51100000000E-03 0.  1.
</event>
<event>
 8    1  0.1122848E+005  0.1043930E+01  0.7957747E-01            NaN
         13   -1    0    0    0    0  0.00000000000E+00  0.00000000000E+00  0.74505805969E-08  0.10566000000E+00  0.10566000000E+00 0. -1.
     999900   -1    0    0    0    0 -0.00000000000E+00 -0.00000000000E+00 -0.74505805969E-08  0.93827000000E+00  0.93827000000E+00 0. -1.
     999902    2    1    2    0    0  0.21404521024E-01 -0.10369103218E-01  0.28039737815E-02  0.10199814282E+01  0.10197002402E+01 0.  0.
     999903    2    3    3    0    0 -0.37861969968E-01 -0.31476298133E-01 -0.11813814434E+00  0.12948436108E+00  0.19628869084E-01 0.  0.
         14    1    1    2    0    0 -0.21404521024E-01  0.10369103218E-01 -0.28039737815E-02  0.23948571790E-01  0.00000000000E+00 0.  1.
     999901    1    3    3    0    0  0.59266490993E-01  0.21107194915E-01  0.12094211812E+00  0.89049706713E+00  0.88000000000E+00 0.  1.
        -11    1    4    4    0    0 -0.27000532157E-01 -0.10173337075E-01 -0.70547888203E-01  0.76221986165E-01  0.51100000000E-03 0.  1.
         11    1    4    4    0    0 -0.10861437811E-01 -0.21302961058E-01 -0.47590256139E-01  0.53262374915E-01  0.51100000000E-03 0. -1.
</event>
<event>
 8    1  0.1122848E+005  0.1043930E+01  0.7957747E-01            NaN
         13   -1    0    0    0    0  0.00000000000E+00  0.00000000000E+00  0.74505805969E-08  0.10566000000E+00  0.10566000000E+00 0.  1.
     999900   -1    0    0    0    0 -0.00000000000E+00 -0.00000000000E+00 -0.74505805969E-08  0.93827000000E+00  0.93827000000E+00 0. -1.
     999902    2    1    2    0    0  0.78326813031E-02  0.17422891176E-02 -0.21776946035E-01  0.10207217720E+01  0.10204578943E+01 0.  0.
     999903    2    3    3    0    0 -0.34920068224E-01 -0.10828230064E+00  0.57791113738E-01  0.12928232702E+00  0.20727746053E-01 0.  0.
         14    1    1    2    0    0 -0.78326813031E-02 -0.17422891176E-02  0.21776946035E-01  0.23208227989E-01  0.00000000000E+00 0.  1.
     999901    1    3    3    0    0  0.42752749527E-01  0.11002458976E+00 -0.79568059772E-01  0.89143944499E+00  0.88000000000E+00 0.  1.
        -11    1    4    4    0    0 -0.27679510605E-01 -0.66354109271E-01  0.27179730481E-01  0.76863658477E-01  0.51100000000E-03 0.  1.
         11    1    4    4    0    0 -0.72405576190E-02 -0.41928191372E-01  0.30611383257E-01  0.52418668547E-01  0.51100000000E-03 0. -1.
</event>
<event>
 8    1  0.1122848E+005  0.1043930E+01  0.7957747E-01            NaN
         13   -1    0    0    0    0  0.00000000000E+00  0.00000000000E+00  0.74505805969E-08  0.10566000000E+00  0.10566000000E+00 0. -1.
     999900   -1    0    0    0    0 -0.00000000000E+00 -0.00000000000E+00 -0.74505805969E-08  0.93827000000E+00  0.93827000000E+00 0.  1.
     999902    2    1    2    0    0  0.75668793822E-03  0.12797041621E-01  0.16609733772E-01  0.10229485771E+01  0.10227333823E+01 0.  0.
     999903    2    3    3    0    0 -0.92303023541E-01  0.90937610596E-01 -0.24987103001E-01  0.13362503910E+00  0.21019005244E-01 0.  0.
         14    1    1    2    0    0 -0.75668793822E-03 -0.12797041621E-01 -0.16609733772E-01  0.20981422899E-01  0.00000000000E+00 0.  1.
     999901    1    3    3    0    0  0.93059711479E-01 -0.78140568975E-01  0.41596836773E-01  0.88932353801E+00  0.88000000000E+00 0. -1.
        -11    1    4    4    0    0 -0.59145193377E-01  0.63554549927E-01 -0.73064909045E-02  0.87126233973E-01  0.51100000000E-03 0. -1.
         11    1    4    4    0    0 -0.33157830164E-01  0.27383060669E-01 -0.17680612097E-01  0.46498805123E-01  0.51100000000E-03 0.  1.
</event>
<event>
 8    1  0.1122848E+005  0.1043930E+01  0.7957747E-01            NaN
         13   -1    0    0    0    0  0.00000000000E+00  0.00000000000E+00  0.74505805969E-08  0.10566000000E+00  0.10566000000E+00 0. -1.
     999900   -1    0    0    0    0 -0.00000000000E+00 -0.00000000000E+00 -0.74505805969E-08  0.93827000000E+00  0.93827000000E+00 0. -1.
     999902    2    1    2    0    0 -0.12935846896E-01 -0.38934469886E-02  0.64941407359E-02  0.10289410398E+01  0.10288318592E+01 0.  0.
     999903    2    3    3    0    0 -0.61888913563E-01 -0.10358142099E+00 -0.65628963430E-01  0.13903327094E+00  0.21534650926E-01 0.  0.
         14    1    1    2    0    0  0.12935846896E-01  0.38934469886E-02 -0.64941407359E-02  0.14988960213E-01  0.00000000000E+00 0. -1.
     999901    1    3    3    0    0  0.48953066666E-01  0.99687974005E-01  0.72123104166E-01  0.88990776885E+00  0.88000000000E+00 0. -1.
        -11    1    4    4    0    0 -0.34475284817E-01 -0.42752805885E-01 -0.38153174186E-01  0.66875058846E-01  0.51100000000E-03 0. -1.
         11    1    4    4    0    0 -0.27413628746E-01 -0.60828615109E-01 -0.27475789244E-01  0.72158212095E-01  0.51100000000E-03 0.  1.
</event>
<event>
 8    1  0.1122848E+005  0.1043930E+01  0.7957747E-01            NaN
         13   -1    0    0    0    0  0.00000000000E+00  0.00000000000E+00  0.74505805969E-08  0.10566000000E+00  0.10566000000E+00 0. -1.
     999900   -1    0    0    0    0 -0.00000000000E+00 -0.00000000000E+00 -0.74505805969E-08  0.93827000000E+00  0.93827000000E+00 0.  1.
     999902    2    1    2    0    0 -0.17926907750E-01  0.13420323105E-01  0.25083531058E-02  0.10213962269E+01  0.10211476296E+01 0.  0.
     999903    2    3    3    0    0 -0.18218152039E-01  0.13052962333E+00  0.86198837977E-02  0.13361696166E+00  0.20231322678E-01 0.  0.
         14    1    1    2    0    0  0.17926907750E-01 -0.13420323105E-01 -0.25083531058E-02  0.22533773076E-01  0.00000000000E+00 0. -1.
     999901    1    3    3    0    0  0.29124428878E-03 -0.11710930022E+00 -0.61115306919E-02  0.88777926526E+00  0.88000000000E+00 0.  1.
        -11    1    4    4    0    0  0.17490177520E-02  0.50728831004E-01 -0.11626790253E-02  0.50774858953E-01  0.51100000000E-03 0. -1.
         11    1    4    4    0    0 -0.19967169791E-01  0.79800792324E-01  0.97825628230E-02  0.82842102710E-01  0.51100000000E-03 0.  1.
</event>
<event>
 8    1  0.1122848E+005  0.1043930E+01  0.7957747E-01            NaN
         13   -1    0    0    0    0  0.00000000000E+00  0.00000000000E+00  0.74505805969E-08  0.10566000000E+00  0.10566000000E+00 0.  1.
     999900   -1    0    0    0    0 -0.00000000000E+00 -0.00000000000E+00 -0.74505805969E-08  0.93827000000E+00  0.93827000000E+00 0.  1.
     999902    2    1    2    0    0  0.12663025164E-01  0.19001476364E-01 -0.20562881129E-01  0.10132015052E+01  0.10127354293E+01 0.  0.
     999903    2    3    3    0    0  0.55830857605E-01 -0.96321551174E-01  0.46751094491E-01  0.12208196569E+00  0.17983760165E-01 0.  0.
         14    1    1    2    0    0 -0.12663025164E-01 -0.19001476364E-01  0.20562881129E-01  0.30728494767E-01  0.00000000000E+00 0.  1.
     999901    1    3    3    0    0 -0.43167832441E-01  0.11532302754E+00 -0.67313975620E-01  0.89111953954E+00  0.88000000000E+00 0. -1.
        -11    1    4    4    0    0  0.12438277066E-01 -0.27205840154E-01  0.20825533306E-01  0.36453153956E-01  0.51100000000E-03 0.  1.
         11    1    4    4    0    0  0.43392580539E-01 -0.69115711019E-01  0.25925561186E-01  0.85628811736E-01  0.51100000000E-03 0. -1.
</event>
<event>
 8    1  0.1122848E+005  0.1043930E+01  0.7957747E-01            NaN
         13   -1    0    0    0    0  0.00000000000E+00  0.00000000000E+00  0.74505805969E-08  0.10566000000E+00  0.10566000000E+00 0.  1.
     999900   -1    0    0    0    0 -0.00000000000E+00 -0.00000000000E+00 -0.74505805969E-08  0.93827000000E+00  0.93827000000E+00 0. -1.
     999902    2    1    2    0    0  0.84356831782E-02  0.17577648953E-01 -0.12261075471E-01  0.10208980990E+01  0.10206382611E+01 0.  0.
     999903    2    3    3    0    0 -0.10444972355E+00 -0.69897478478E-01 -0.22820893997E-01  0.12932279495E+00  0.20203708681E-01 0.  0.
         14    1    1    2    0    0 -0.84356831782E-02 -0.17577648953E-01  0.12261075471E-01  0.23031901031E-01  0.00000000000E+00 0.  1.
     999901    1    3    3    0    0  0.11288540672E+00  0.87475127431E-01  0.10559818525E-01  0.89157530402E+00  0.88000000000E+00 0. -1.
        -11    1    4    4    0    0 -0.68849292128E-01 -0.45165359859E-01 -0.24587194951E-01  0.85935592360E-01  0.51100000000E-03 0.  1.
         11    1    4    4    0    0 -0.35600431417E-01 -0.24732118619E-01  0.17663009539E-02  0.43387202589E-01  0.51100000000E-03 0. -1.
</event>
<event>
 8    1  0.1122848E+005  0.1043930E+01  0.7957747E-01            NaN
         13   -1    0    0    0    0  0.00000000000E+00  0.00000000000E+00  0.74505805969E-08  0.10566000000E+00  0.10566000000E+00 0.  1.
     999900   -1    0    0    0    0 -0.00000000000E+00 -0.00000000000E+00 -0.74505805969E-08  0.93827000000E+00  0.93827000000E+00 0. -1.
     999902    2    1    2    0    0  0.20417124085E-01  0.18260815660E-01  0.36236230496E-02  0.10162994555E+01  0.10159237847E+01 0.  0.
     999903    2    3    3    0    0 -0.12055770408E-01  0.11522818809E+00  0.53022846056E-01  0.12900162309E+00  0.20177205591E-01 0.  0.
         14    1    1    2    0    0 -0.20417124085E-01 -0.18260815660E-01 -0.36236230496E-02  0.27630544484E-01  0.00000000000E+00 0. -1.
     999901    1    3    3    0    0  0.32472894493E-01 -0.96967372430E-01 -0.49399223006E-01  0.88729783243E+00  0.88000000000E+00 0. -1.
        -11    1    4    4    0    0 -0.55199895484E-02  0.62805873690E-01  0.17830931685E-01  0.65522906684E-01  0.51100000000E-03 0.  1.
         11    1    4    4    0    0 -0.65357808597E-02  0.52422314400E-01  0.35191914371E-01  0.63478716407E-01  0.51100000000E-03 0. -1.
</event>
<event>
 8    1  0.1122848E+005  0.1043930E+01  0.7957747E-01            NaN
         13   -1    0    0    0    0  0.00000000000E+00  0.00000000000E+00  0.74505805969E-08  0.10566000000E+00  0.10566000000E+00 0.  1.
     999900   -1    0    0    0    0 -0.00000000000E+00 -0.00000000000E+00 -0.74505805969E-08  0.93827000000E+00  0.93827000000E+00 0.  1.
     999902    2    1    2    0    0  0.31353056023E-02  0.16405006919E-01 -0.17478642414E-01  0.10197544476E+01  0.10194678396E+01 0.  0.
     999903    2    3    3    0    0  0.81533550062E-02  0.62248308148E-01 -0.11576229663E+00  0.13308288170E+00  0.19204557161E-01 0.  0.
         14    1    1    2    0    0 -0.31353056023E-02 -0.16405006919E-01  0.17478642414E-01  0.24175552400E-01  0.00000000000E+00 0.  1.
     999901    1    3    3    0    0 -0.50180494039E-02 -0.45843301229E-01  0.98283654216E-01  0.88667156590E+00  0.88000000000E+00 0. -1.
        -11    1    4    4    0    0  0.14879458482E-02  0.13026440488E-01 -0.43185139048E-01  0.45134460119E-01  0.51100000000E-03 0.  1.
         11    1    4    4    0    0  0.66654091580E-02  0.49221867660E-01 -0.72577157582E-01  0.87948421582E-01  0.51100000000E-03 0. -1.
</event>
<event>
 8    1  0.1122848E+005  0.1043930E+01  0.7957747E-01            NaN
         13   -1    0    0    0    0  0.00000000000E+00  0.00000000000E+00  0.74505805969E-08  0.10566000000E+00  0.10566000000E+00 0.  1.
     999900   -1    0    0    0    0 -0.00000000000E+00 -0.00000000000E+00 -0.74505805969E-08  0.93827000000E+00  0.93827000000E+00 0.  1.
     999902    2    1    2    0    0 -0.12279743041E-02 -0.71770896026E-02  0.23739639618E-01  0.10190987893E+01  0.10187962276E+01 0.  0.
     999903    2    3    3    0    0 -0.26280578617E-02 -0.11283474555E+00  0.65889798211E-01  0.13177577237E+00  0.16876083144E-01 0.  0.
         14    1    1    2    0    0  0.12279743041E-02  0.71770896026E-02 -0.23739639618E-01  0.24831210708E-01  0.00000000000E+00 0. -1.
     999901    1    3    3    0    0  0.14000835576E-02  0.10565765595E+00 -0.42150158594E-01  0.88732301692E+00  0.88000000000E+00 0. -1.
        -11    1    4    4    0    0 -0.73385852238E-02 -0.67012398523E-01  0.32236573468E-01  0.74725993997E-01  0.51100000000E-03 0. -1.
         11    1    4    4    0    0  0.47105273621E-02 -0.45822347031E-01  0.33653224743E-01  0.57049778370E-01  0.51100000000E-03 0.  1.
</event>
<event>
 8    1  0.1122848E+005  0.1043930E+01  0.7957747E-01            NaN
         13   -1    0    0    0    0  0.00000000000E+00  0.00000000000E+00  0.74505805969E-08  0.10566000000E+00  0.10566000000E+00 0.  1.
     999900   -1    0    0    0    0 -0.00000000000E+00 -0.00000000000E+00 -0.74505805969E-08  0.93827000000E+00  0.93827000000E+00 0.  1.
     999902    2    1    2    0    0 -0.19239524109E-01  0.74697041777E-02 -0.64314214294E-02  0.10223124389E+01  0.10220838535E+01 0.  0.
     999903    2    3    3    0    0 -0.36418876123E-03  0.42585874599E-01  0.12317795938E+00  0.13192599730E+00  0.20444308143E-01 0.  0.
         14    1    1    2    0    0  0.19239524109E-01 -0.74697041777E-02  0.64314214294E-02  0.21617561149E-01  0.00000000000E+00 0.  1.
     999901    1    3    3    0    0 -0.18875335348E-01 -0.35116170422E-01 -0.12960938081E+00  0.89038644155E+00  0.88000000000E+00 0.  1.
        -11    1    4    4    0    0 -0.77066546774E-02  0.19538163243E-01  0.76731476710E-01  0.79555722537E-01  0.51100000000E-03 0. -1.
         11    1    4    4    0    0  0.73424659162E-02  0.23047711356E-01  0.46446482675E-01  0.52370274759E-01  0.51100000000E-03 0.  1.
</event>
<event>
 8    1  0.1122848E+005  0.1043930E+01  0.7957747E-01            NaN
         13   -1    0    0    0    0  0.00000000000E+00  0.00000000000E+00  0.74505805969E-08  0.10566000000E+00  0.10566000000E+00 0.  1.
     999900   -1    0    0    0    0 -0.00000000000E+00 -0.00000000000E+00 -0.74505805969E-08  0.93827000000E+00  0.93827000000E+00 0. -1.
     999902    2    1    2    0    0 -0.31232364812E-02  0.12023432180E-01 -0.21219829773E-01  0.10193414111E+01  0.10190448046E+01 0.  0.
     999903    2    3    3    0    0 -0.89214876756E-01  0.37376452027E-01  0.82335183481E-01  0.12873589412E+00  0.20917805705E-01 0.  0.
         14    1    1    2    0    0  0.31232364812E-02 -0.12023432180E-01  0.21219829773E-01  0.24588588880E-01  0.00000000000E+00 0.  1.
     999901    1    3    3    0    0  0.86091640274E-01 -0.25353019846E-01 -0.10355501325E+00  0.89060551700E+00  0.88000000000E+00 0. -1.
        -11    1    4    4    0    0 -0.63087727226E-01  0.15950051687E-01  0.56855530042E-01  0.86413412690E-01  0.51100000000E-03 0.  1.
         11    1    4    4    0    0 -0.26127149530E-01  0.21426400340E-01  0.25479653440E-01  0.42322481431E-01  0.51100000000E-03 0. -1.
</event>
<event>
 8    1  0.1122848E+005  0.1043930E+01  0.7957747E-01            NaN
         13   -1    0    0    0    0  0.00000000000E+00  0.00000000000E+00  0.74505805969E-08  0.10566000000E+00  0.10566000000E+00 0. -1.
     999900   -1    0    0    0    0 -0.00000000000E+00 -0.00000000000E+00 -0.74505805969E-08  0.93827000000E+00  0.93827000000E+00 0.  1.
     999902    2    1    2    0    0  0.18490799793E-01 -0.15194428939E-01  0.32098652707E-02  0.10197828763E+01  0.10194969501E+01 0.  0.
     999903    2    3    3    0    0  0.12294095120E+00  0.13734052179E-01 -0.41556666269E-01  0.13200433776E+00  0.19876795639E-01 0.  0.
         14    1    1    2    0    0 -0.18490799793E-01  0.15194428939E-01 -0.32098652707E-02  0.24147123696E-01  0.00000000000E+00 0.  1.
     999901    1    3    3    0    0 -0.10445015141E+00 -0.28928481118E-01  0.44766531540E-01  0.88777853854E+00  0.88000000000E+00 0. -1.
        -11    1    4    4    0    0  0.36224685609E-02 -0.23963273873E-02 -0.38685595799E-02  0.58387959071E-02  0.51100000000E-03 0. -1.
         11    1    4    4    0    0  0.11931848264E+00  0.16130379567E-01 -0.37688106689E-01  0.12616554185E+00  0.51100000000E-03 0.  1.
</event>
<event>
 8    1  0.1122848E+005  0.1043930E+01  0.7957747E-01            NaN
         13   -1    0    0    0    0  0.00000000000E+00  0.00000000000E+00  0.74505805969E-08  0.10566000000E+00  0.10566000000E+00 0. -1.
     999900   -1    0    0    0    0 -0.00000000000E+00 -0.00000000000E+00 -0.74505805969E-08  0.93827000000E+00  0.93827000000E+00 0. -1.
     999902    2    1    2    0    0 -0.12425649843E-01  0.25786078209E-01  0.89129926184E-03  0.10152923846E+01  0.10148884240E+01 0.  0.
     999903    2    3    3    0    0 -0.49671755507E-01 -0.56111949083E-01  0.98450369180E-01  0.12534163796E+00  0.20055345661E-01 0.  0.
         14    1    1    2    0    0  0.12425649843E-01 -0.25786078209E-01 -0.89129926184E-03  0.28637615435E-01  0.00000000000E+00 0. -1.
     999901    1    3    3    0    0  0.37246105664E-01  0.81898027292E-01 -0.97559069918E-01  0.88995074661E+00  0.88000000000E+00 0.  1.
        -11    1    4    4    0    0 -0.16450176558E-01 -0.23903385661E-01  0.23893822359E-01  0.37591967530E-01  0.51100000000E-03 0. -1.
         11    1    4    4    0    0 -0.33221578949E-01 -0.32208563422E-01  0.74556546821E-01  0.87749670429E-01  0.51100000000E-03 0.  1.
</event>
<event>
 8    1  0.1122848E+005  0.1043930E+01  0.7957747E-01            NaN
         13   -1    0    0    0    0  0.00000000000E+00  0.00000000000E+00  0.74505805969E-08  0.10566000000E+00  0.10566000000E+00 0. -1.
     999900   -1    0    0    0    0 -0.00000000000E+00 -0.00000000000E+00 -0.74505805969E-08  0.93827000000E+00  0.93827000000E+00 0.  1.
     999902    2    1    2    0    0  0.74168777730E-02 -0.43619292520E-02 -0.20690561321E-01  0.10215216125E+01  0.10212758046E+01 0.  0.
     999903    2    3    3    0    0  0.72089644393E-01 -0.10995915900E+00 -0.71754057002E-02  0.13274942509E+00  0.16822304760E-01 0.  0.
         14    1    1    2    0    0 -0.74168777730E-02  0.43619292520E-02  0.20690561321E-01  0.22408387503E-01  0.00000000000E+00 0. -1.
     999901    1    3    3    0    0 -0.64672766620E-01  0.10559722975E+00 -0.13515155621E-01  0.88877218741E+00  0.88000000000E+00 0.  1.
        -11    1    4    4    0    0  0.55449350687E-01 -0.72224622330E-01 -0.87467668552E-02  0.91475644921E-01  0.51100000000E-03 0. -1.
         11    1    4    4    0    0  0.16640293706E-01 -0.37734536674E-01  0.15713611550E-02  0.41273780170E-01  0.51100000000E-03 0.  1.
</event>
<event>
 8    1  0.1122848E+005  0.1043930E+01  0.7957747E-01            NaN
         13   -1    0    0    0    0  0.00000000000E+00  0.00000000000E+00  0.74505805969E-08  0.10566000000E+00  0.10566000000E+00 0.  1.
     999900   -1    0    0    0    0 -0.00000000000E+00 -0.00000000000E+00 -0.74505805969E-08  0.93827000000E+00  0.93827000000E+00 0.  1.
     999902    2    1    2    0    0 -0.17688970425E-01 -0.13893437234E-01  0.76149390230E-02  0.10201831145E+01  0.10199066980E+01 0.  0.
     999903    2    3    3    0    0 -0.99737204627E-02 -0.10156061727E+00 -0.80429257343E-01  0.13142170670E+00  0.19717136625E-01 0.  0.
         14    1    1    2    0    0  0.17688970425E-01  0.13893437234E-01 -0.76149390230E-02  0.23746885463E-01  0.00000000000E+00 0.  1.
     999901    1    3    3    0    0 -0.77152499625E-02  0.87667180034E-01  0.88044196366E-01  0.88876140783E+00  0.88000000000E+00 0. -1.
        -11    1    4    4    0    0 -0.28183144115E-03 -0.23384649877E-01 -0.29364005956E-01  0.37542339374E-01  0.51100000000E-03 0. -1.
         11    1    4    4    0    0 -0.96918890216E-02 -0.78175967391E-01 -0.51065251387E-01  0.93879367331E-01  0.51100000000E-03 0.  1.
</event>
<event>
 8    1  0.1122848E+005  0.1043930E+01  0.7957747E-01            NaN
         13   -1    0    0    0    0  0.00000000000E+00  0.00000000000E+00  0.74505805969E-08  0.10566000000E+00  0.10566000000E+00 0. -1.
     999900   -1    0    0    0    0 -0.00000000000E+00 -0.00000000000E+00 -0.74505805969E-08  0.93827000000E+00  0.93827000000E+00 0.  1.
     999902    2    1    2    0    0 -0.15822319171E-01  0.11109753072E-02  0.12359000846E-01  0.10238221669E+01  0.10236246893E+01 0.  0.
     999903    2    3    3    0    0  0.37529931832E-01 -0.98767666699E-01 -0.76764184073E-01  0.13210183636E+00  0.19864728629E-01 0.  0.
         14    1    1    2    0    0  0.15822319171E-01 -0.11109753072E-02 -0.12359000846E-01  0.20107833100E-01  0.00000000000E+00 0. -1.
     999901    1    3    3    0    0 -0.53352251003E-01  0.99878642006E-01  0.89123184919E-01  0.89172033054E+00  0.88000000000E+00 0. -1.
        -11    1    4    4    0    0  0.14934241876E-01 -0.64231600750E-01 -0.42466925964E-01  0.78437433902E-01  0.51100000000E-03 0.  1.
         11    1    4    4    0    0  0.22595689957E-01 -0.34536065949E-01 -0.34297258109E-01  0.53664402453E-01  0.51100000000E-03 0. -1.
</event>
<event>
 8    1  0.1122848E+005  0.1043930E+01  0.7957747E-01            NaN
         13   -1    0    0    0    0  0.00000000000E+00  0.00000000000E+00  0.74505805969E-08  0.10566000000E+00  0.10566000000E+00 0. -1.
     999900   -1    0    0    0    0 -0.00000000000E+00 -0.00000000000E+00 -0.74505805969E-08  0.93827000000E+00  0.93827000000E+00 0. -1.
     999902    2    1    2    0    0  0.93765190424E-02 -0.18695150804E-01 -0.10391865545E-01  0.10205758003E+01  0.10203085541E+01 0.  0.
     999903    2    3    3    0    0  0.94812509647E-01 -0.63271256267E-01 -0.66626319477E-01  0.13353090209E+00  0.19969264178E-01 0.  0.
         14    1    1    2    0    0 -0.93765190424E-02  0.18695150804E-01  0.10391865545E-01  0.23354199675E-01  0.00000000000E+00 0.  1.
     999901    1    3    3    0    0 -0.85435990605E-01  0.44576105463E-01  0.56234453932E-01  0.88704489823E+00  0.88000000000E+00 0.  1.
        -11    1    4    4    0    0  0.85660901205E-01 -0.52369685628E-01 -0.51821080335E-01  0.11298698799E+00  0.51100000000E-03 0. -1.
         11    1    4    4    0    0  0.91516084427E-02 -0.10901570639E-01 -0.14805239142E-01  0.20543914100E-01  0.51100000000E-03 0.  1.
</event>
<event>
 8    1  0.1122848E+005  0.1043930E+01  0.7957747E-01            NaN
         13   -1    0    0    0    0  0.00000000000E+00  0.00000000000E+00  0.74505805969E-08  0.10566000000E+00  0.10566000000E+00 0.  1.
     999900   -1    0    0    0    0 -0.00000000000E+00 -0.00000000000E+00 -0.74505805969E-08  0.93827000000E+00  0.93827000000E+00 0.  1.
     999902    2    1    2    0    0 -0.19969956500E-02 -0.10641898272E-01 -0.20354793995E-01  0.10208745098E+01  0.10206141333E+01 0.  0.
     999903    2    3    3    0    0  0.16081782437E-01 -0.11497971597E+00  0.55860162868E-01  0.13125552276E+00  0.25073804057E-01 0.  0.
         14    1    1    2    0    0  0.19969956500E-02  0.10641898272E-01  0.20354793995E-01  0.23055490214E-01  0.00000000000E+00 0.  1.
     999901    1    3    3    0    0 -0.18078778087E-01  0.10433781770E+00 -0.76214956863E-01  0.88961898702E+00  0.88000000000E+00 0. -1.
        -11    1    4    4    0    0 -0.47170494389E-02 -0.44634019726E-01  0.15239307674E-01  0.47401939746E-01  0.51100000000E-03 0. -1.
         11    1    4    4    0    0  0.20798831876E-01 -0.70345696243E-01  0.40620855194E-01  0.83853583019E-01  0.51100000000E-03 0.  1.
</event>
<event>
 8    1  0.1122848E+005  0.1043930E+01  0.7957747E-01            NaN
         13   -1    0    0    0    0  0.00000000000E+00  0.00000000000E+00  0.74505805969E-08  0.10566000000E+00  0.10566000000E+00 0.  1.
     999900   -1    0    0    0    0 -0.00000000000E+00 -0.00000000000E+00 -0.74505805969E-08  0.93827000000E+00  0.93827000000E+00 0. -1.
     999902    2    1    2    0    0  0.22420606569E-01 -0.81289074783E-02 -0.26446492815E-02  0.10199350650E+01  0.10196527742E+01 0.  0.
     999903    2    3    3    0    0 -0.24742393497E-01 -0.97884462384E-01 -0.80594258298E-01  0.13069013263E+00  0.19771754674E-01 0.  0.
         14    1    1    2    0    0 -0.22420606569E-01  0.81289074783E-02  0.26446492815E-02  0.23994934998E-01  0.00000000000E+00 0.  1.
     999901    1    3    3    0    0  0.47163000067E-01  0.89755554905E-01  0.77949609017E-01  0.88924493238E+00  0.88000000000E+00 0.  1.
        -11    1    4    4    0    0 -0.77492348662E-02 -0.13579508459E-01 -0.20435719545E-01  0.25735839705E-01  0.51100000000E-03 0.  1.
         11    1    4    4    0    0 -0.16993158631E-01 -0.84304953924E-01 -0.60158538753E-01  0.10495429292E+00  0.51100000000E-03 0. -1.
</event>
<event>
 8    1  0.1122848E+005  0.1043930E+01  0.7957747E-01            NaN
         13   -1    0    0    0    0  0.00000000000E+00  0.00000000000E+00  0.74505805969E-08  0.10566000000E+00  0.10566000000E+00 0. -1.
     999900   -1    0    0    0    0 -0.00000000000E+00 -0.00000000000E+00 -0.74505805969E-08  0.93827000000E+00  0.93827000000E+00 0.  1.
     999902    2    1    2    0    0 -0.79967531977E-02  0.15236713449E-01  0.16495513577E-01  0.10200928973E+01  0.10198143515E+01 0.  0.
     999903    2    3    3    0    0  0.18728197150E-01 -0.48542988820E-01 -0.11492026119E+00  0.12765120211E+00  0.19519114671E-01 0.  0.
         14    1    1    2    0    0  0.79967531977E-02 -0.15236713449E-01 -0.16495513577E-01  0.23837102731E-01  0.00000000000E+00 0.  1.
     999901    1    3    3    0    0 -0.26724950347E-01  0.63779702270E-01  0.13141577477E+00  0.89244169515E+00  0.88000000000E+00 0. -1.
        -11    1    4    4    0    0  0.22736128616E-01 -0.38066505229E-01 -0.91557478781E-01  0.10173014994E+00  0.51100000000E-03 0.  1.
         11    1    4    4    0    0 -0.40079314664E-02 -0.10476483591E-01 -0.23362782407E-01  0.25921052175E-01  0.51100000000E-03 0. -1.
</event>
<event>
 8    1  0.1122848E+005  0.1043930E+01  0.7957747E-01            NaN
         13   -1    0    0    0    0  0.00000000000E+00  0.00000000000E+00  0.74505805969E-08  0.10566000000E+00  0.10566000000E+00 0.  1.
     999900   -1    0    0    0    0 -0.00000000000E+00 -0.00000000000E+00 -0.74505805969E-08  0.93827000000E+00  0.93827000000E+00 0.  1.
     999902    2    1    2    0    0 -0.96632008421E-02 -0.75699761461E-02 -0.20324870306E-01  0.10201858988E+01  0.10199095478E+01 0.  0.
     999903    2    3    3    0    0 -0.84945932727E-01 -0.97638195774E-01 -0.19329684690E-01  0.13239044695E+00  0.20113800560E-01 0.  0.
         14    1    1    2    0    0  0.96632008421E-02  0.75699761461E-02  0.20324870306E-01  0.23744101211E-01  0.00000000000E+00 0.  1.
     999901    1    3    3    0    0  0.75282731885E-01  0.90068219628E-01 -0.99518561595E-03  0.88779545184E+00  0.88000000000E+00 0. -1.
        -11    1    4    4    0    0 -0.38676787466E-01 -0.31420190218E-01 -0.12119777377E-01  0.51286181050E-01  0.51100000000E-03 0.  1.
         11    1    4    4    0    0 -0.46269145261E-01 -0.66218005556E-01 -0.72099073136E-02  0.81104265902E-01  0.51100000000E-03 0. -1.
</event>
<event>
 8    1  0.1122848E+005  0.1043930E+01  0.7957747E-01            NaN
         13   -1    0    0    0    0  0.00000000000E+00  0.00000000000E+00  0.74505805969E-08  0.10566000000E+00  0.10566000000E+00 0. -1.
     999900   -1    0    0    0    0 -0.00000000000E+00 -0.00000000000E+00 -0.74505805969E-08  0.93827000000E+00  0.93827000000E+00 0. -1.
     999902    2    1    2    0    0  0.12537183568E-01 -0.48152418182E-02 -0.19794616508E-01  0.10200094154E+01  0.10197288920E+01 0.  0.
     999903    2    3    3    0    0  0.19745321547E-02 -0.63742856333E-01 -0.11296950980E+00  0.13306770699E+00  0.29628600828E-01 0.  0.
         14    1    1    2    0    0 -0.12537183568E-01  0.48152418182E-02  0.19794616508E-01  0.23920584614E-01  0.00000000000E+00 0. -1.
     999901    1    3    3    0    0  0.10562651413E-01  0.58927614515E-01  0.93174893295E-01  0.88694170840E+00  0.88000000000E+00 0.  1.
        -11    1    4    4    0    0 -0.50929186267E-02 -0.38551999894E-01 -0.41104459324E-01  0.56586502041E-01  0.51100000000E-03 0. -1.
         11    1    4    4    0    0  0.70674507814E-02 -0.25190856439E-01 -0.71865050478E-01  0.76481204945E-01  0.51100000000E-03 0.  1.
</event>
<event>
 8    1  0.1122848E+005  0.1043930E+01  0.7957747E-01            NaN
         13   -1    0    0    0    0  0.00000000000E+00  0.00000000000E+00  0.74505805969E-08  0.10566000000E+00  0.10566000000E+00 0.  1.
     999900   -1    0    0    0    0 -0.00000000000E+00 -0.00000000000E+00 -0.74505805969E-08  0.93827000000E+00  0.93827000000E+00 0.  1.
     999902    2    1    2    0    0 -0.16406626076E-01  0.24325847547E-02 -0.18639205931E-01  0.10189797526E+01  0.10186742469E+01 0.  0.
     999903    2    3    3    0    0 -0.55125365538E-01 -0.84180111527E-01  0.78046178080E-01  0.12861524105E+00  0.18043758329E-01 0.  0.
         14    1    1    2    0    0  0.16406626076E-01 -0.24325847547E-02  0.18639205931E-01  0.24950247404E-01  0.00000000000E+00 0.  1.
     999901    1    3    3    0    0  0.38718739461E-01  0.86612696281E-01 -0.96685384011E-01  0.89036451155E+00  0.88000000000E+00 0. -1.
        -11    1    4    4    0    0 -0.50493966997E-01 -0.83381949951E-01  0.73878590139E-01  0.12231311247E+00  0.51100000000E-03 0.  1.
         11    1    4    4    0    0 -0.46313985401E-02 -0.79816157580E-03  0.41675879407E-02  0.63021285755E-02  0.51100000000E-03 0. -1.
</event>
<event>
 8    1  0.1122848E+005  0.1043930E+01  0.7957747E-01            NaN
         13   -1    0    0    0    0  0.00000000000E+00  0.00000000000E+00  0.74505805969E-08  0.10566000000E+00  0.10566000000E+00 0.  1.
     999900   -1    0    0    0    0 -0.00000000000E+00 -0.00000000000E+00 -0.74505805969E-08  0.93827000000E+00  0.93827000000E+00 0.  1.
     999902    2    1    2    0    0  0.21654808542E-01 -0.45324754580E-02 -0.57942893948E-02  0.10210597605E+01  0.10208035984E+01 0.  0.
     999903    2    3    3    0    0  0.96017408231E-01 -0.80353295385E-01  0.40843415817E-01  0.13344854574E+00  0.21548433369E-01 0.  0.
         14    1    1    2    0    0 -0.21654808542E-01  0.45324754580E-02  0.57942893948E-02  0.22870239535E-01  0.00000000000E+00 0. -1.
     999901    1    3    3    0    0 -0.74362599689E-01  0.75820819927E-01 -0.46637705211E-01  0.88761121473E+00  0.88000000000E+00 0.  1.
        -11    1    4    4    0    0  0.84670945698E-01 -0.73663430815E-01  0.42815060507E-01  0.12012019236E+00  0.51100000000E-03 0.  1.
         11    1    4    4    0    0  0.11346462533E-01 -0.66898645701E-02 -0.19716446901E-02  0.13328353378E-01  0.51100000000E-03 0. -1.
</event>
<event>
 8    1  0.1122848E+005  0.1043930E+01  0.7957747E-01            NaN
         13   -1    0    0    0    0  0.00000000000E+00  0.00000000000E+00  0.74505805969E-08  0.10566000000E+00  0.10566000000E+00 0. -1.
     999900   -1    0    0    0    0 -0.00000000000E+00 -0.00000000000E+00 -0.74505805969E-08  0.93827000000E+00  0.93827000000E+00 0.  1.
     999902    2    1    2    0    0  0.12864994990E-01 -0.12917317632E-01 -0.16547498191E-01  0.10193091778E+01  0.10190117835E+01 0.  0.
     999903    2    3    3    0    0  0.78764191299E-01 -0.98284978468E-01 -0.36094478231E-01  0.13251020054E+00  0.19809267135E-01 0.  0.
         14    1    1    2    0    0 -0.12864994990E-01  0.12917317632E-01  0.16547498191E-01  0.24620822230E-01  0.00000000000E+00 0. -1.
     999901    1    3    3    0    0 -0.65899196309E-01  0.85367660836E-01  0.19546980039E-01  0.88679897723E+00  0.88000000000E+00 0. -1.
        -11    1    4    4    0    0  0.56286447126E-01 -0.63332028017E-01 -0.32663470154E-01  0.90808993532E-01  0.51100000000E-03 0.  1.
         11    1    4    4    0    0  0.22477744173E-01 -0.34952950451E-01 -0.34310080769E-02  0.41701207006E-01  0.51100000000E-03 0. -1.
</event>
<event>
 8    1  0.1122848E+005  0.1043930E+01  0.7957747E-01            NaN
         13   -1    0    0    0    0  0.00000000000E+00  0.00000000000E+00  0.74505805969E-08  0.10566000000E+00  0.10566000000E+00 0.  1.
     999900   -1    0    0    0    0 -0.00000000000E+00 -0.00000000000E+00 -0.74505805969E-08  0.93827000000E+00  0.93827000000E+00 0.  1.
     999902    2    1    2    0    0 -0.22840148202E-01  0.26588846929E-02  0.52230424425E-02  0.10203498768E+01  0.10200773740E+01 0.  0.
     999903    2    3    3    0    0  0.10269254565E+00 -0.41982837199E-01 -0.60447054953E-01  0.12790161373E+00  0.19916294620E-01 0.  0.
         14    1    1    2    0    0  0.22840148202E-01 -0.26588846929E-02 -0.52230424425E-02  0.23580123198E-01  0.00000000000E+00 0. -1.
     999901    1    3    3    0    0 -0.12553269385E+00  0.44641721892E-01  0.65670097396E-01  0.89244826307E+00  0.88000000000E+00 0. -1.
        -11    1    4    4    0    0  0.29092857524E-01 -0.19106632755E-01 -0.11784499808E-01  0.36750419465E-01  0.51100000000E-03 0. -1.
         11    1    4    4    0    0  0.73599688129E-01 -0.22876204444E-01 -0.48662555145E-01  0.91151194269E-01  0.51100000000E-03 0.  1.
</event>
<event>
 8    1  0.1122848E+005  0.1043930E+01  0.7957747E-01            NaN
         13   -1    0    0    0    0  0.00000000000E+00  0.00000000000E+00  0.74505805969E-08  0.10566000000E+00  0.10566000000E+00 0. -1.
     999900   -1    0    0    0    0 -0.00000000000E+00 -0.00000000000E+00 -0.74505805969E-08  0.93827000000E+00  0.93827000000E+00 0. -1.
     999902    2    1    2    0    0 -0.12001629527E-01  0.19465501737E-01 -0.41547700128E-03  0.10210582381E+01  0.10208020416E+01 0.  0.
     999903    2    3    3    0    0  0.11431163927E+00  0.24061308996E-01  0.53905329008E-01  0.13036922772E+00  0.21077323795E-01 0.  0.
         14    1    1    2    0    0  0.12001629527E-01 -0.19465501737E-01  0.41547700128E-03  0.22871761854E-01  0.00000000000E+00 0. -1.
     999901    1    3    3    0    0 -0.12631326880E+00 -0.45958072591E-02 -0.54320806010E-01  0.89068901042E+00  0.88000000000E+00 0. -1.
        -11    1    4    4    0    0  0.60548907616E-01  0.21004362746E-01  0.36600126708E-01  0.73805039556E-01  0.51100000000E-03 0.  1.
         11    1    4    4    0    0  0.53762731656E-01  0.30569462503E-02  0.17305202300E-01  0.56564188168E-01  0.51100000000E-03 0. -1.
</event>
<event>
 8    1  0.1122848E+005  0.1043930E+01  0.7957747E-01            NaN
         13   -1    0    0    0    0  0.00000000000E+00  0.00000000000E+00  0.74505805969E-08  0.10566000000E+00  0.10566000000E+00 0. -1.
     999900   -1    0    0    0    0 -0.00000000000E+00 -0.00000000000E+00 -0.74505805969E-08  0.93827000000E+00  0.93827000000E+00 0. -1.
     999902    2    1    2    0    0  0.77576977791E-02  0.12139649281E-02  0.23247039004E-01  0.10193926732E+01  0.10190973171E+01 0.  0.
     999903    2    3    3    0    0  0.12905593289E+00  0.12000042894E-02  0.17969255828E-02  0.13081326231E+00  0.21260452215E-01 0.  0.
         14    1    1    2    0    0 -0.77576977791E-02 -0.12139649281E-02 -0.23247039004E-01  0.24537326834E-01  0.00000000000E+00 0.  1.
     999901    1    3    3    0    0 -0.12129823512E+00  0.13960638754E-04  0.21450113421E-01  0.88857941086E+00  0.88000000000E+00 0. -1.
        -11    1    4    4    0    0  0.28330761055E-01 -0.30061820070E-02 -0.78015872744E-02  0.29543104732E-01  0.51100000000E-03 0. -1.
         11    1    4    4    0    0  0.10072517184E+00  0.42061862964E-02  0.95985128571E-02  0.10127015757E+00  0.51100000000E-03 0.  1.
</event>
<event>
 8    1  0.1122848E+005  0.1043930E+01  0.7957747E-01            NaN
         13   -1    0    0    0    0  0.00000000000E+00  0.00000000000E+00  0.74505805969E-08  0.10566000000E+00  0.10566000000E+00 0. -1.
     999900   -1    0    0    0    0 -0.00000000000E+00 -0.00000000000E+00 -0.74505805969E-08  0.93827000000E+00  0.93827000000E+00 0. -1.
     999902    2    1    2    0    0 -0.15536218519E-01 -0.18293915229E-01 -0.54421038197E-02  0.10193198819E+01  0.10190227493E+01 0.  0.
     999903    2    3    3    0    0 -0.38339228163E-01 -0.84298394425E-01  0.90923109029E-01  0.13130928353E+00  0.19974996038E-01 0.  0.
         14    1    1    2    0    0  0.15536218519E-01  0.18293915229E-01  0.54421038197E-02  0.24610118128E-01  0.00000000000E+00 0.  1.
     999901    1    3    3    0    0  0.22803009644E-01  0.66004479197E-01 -0.96365212848E-01  0.88801059834E+00  0.88000000000E+00 0. -1.
        -11    1    4    4    0    0 -0.26625971516E-01 -0.65352773625E-01  0.56956688965E-01  0.90687666849E-01  0.51100000000E-03 0.  1.
         11    1    4    4    0    0 -0.11713256647E-01 -0.18945620800E-01  0.33966420063E-01  0.40621616680E-01  0.51100000000E-03 0. -1.
</event>
<event>
 8    1  0.1122848E+005  0.1043930E+01  0.7957747E-01            NaN
         13   -1    0    0    0    0  0.00000000000E+00  0.00000000000E+00  0.74505805969E-08  0.10566000000E+00  0.10566000000E+00 0. -1.
     999900   -1    0    0    0    0 -0.00000000000E+00 -0.00000000000E+00 -0.74505805969E-08  0.93827000000E+00  0.93827000000E+00 0.  1.
     999902    2    1    2    0    0 -0.46841198174E-02 -0.23082687804E-01 -0.26637075053E-02  0.10202266924E+01  0.10199513013E+01 0.  0.
     999903    2    3    3    0    0  0.75953794852E-01 -0.10224691372E+00  0.30082033758E-01  0.13239690490E+00  0.20015028237E-01 0.  0.
         14    1    1    2    0    0  0.46841198174E-02  0.23082687804E-01  0.26637075053E-02  0.23703307626E-01  0.00000000000E+00 0. -1.
     999901    1    3    3    0    0 -0.80637914670E-01  0.79164225918E-01 -0.32745741263E-01  0.88782978747E+00  0.88000000000E+00 0. -1.
        -11    1    4    4    0    0  0.46668893656E-01 -0.59762872632E-01  0.27737713453E-01  0.80741739200E-01  0.51100000000E-03 0.  1.
         11    1    4    4    0    0  0.29284901196E-01 -0.42484041089E-01  0.23443203044E-02  0.51655165705E-01  0.51100000000E-03 0. -1.
</event>
<event>
 8    1  0.1122848E+005  0.1043930E+01  0.7957747E-01            NaN
         13   -1    0    0    0    0  0.00000000000E+00  0.00000000000E+00  0.74505805969E-08  0.10566000000E+00  0.10566000000E+00 0. -1.
     999900   -1    0    0    0    0 -0.00000000000E+00 -0.00000000000E+00 -0.74505805969E-08  0.93827000000E+00  0.93827000000E+00 0.  1.
     999902    2    1    2    0    0 -0.51749175441E-02  0.19080432331E-01  0.14199201514E-01  0.10195894989E+01  0.10192989190E+01 0.  0.
     999903    2    3    3    0    0 -0.74573851816E-02  0.11157813840E+00 -0.65363745520E-01  0.13116882275E+00  0.20677216214E-01 0.  0.
         14    1    1    2    0    0  0.51749175441E-02 -0.19080432331E-01 -0.14199201514E-01  0.24340501087E-01  0.00000000000E+00 0.  1.
     999901    1    3    3    0    0  0.22824676375E-02 -0.92497706074E-01  0.79562947034E-01  0.88842067616E+00  0.88000000000E+00 0.  1.
        -11    1    4    4    0    0  0.51051060421E-02  0.62917844008E-01 -0.41386471085E-01  0.75483894390E-01  0.51100000000E-03 0.  1.
         11    1    4    4    0    0 -0.12562491224E-01  0.48660294396E-01 -0.23977274435E-01  0.55684928363E-01  0.51100000000E-03 0. -1.
</event>
<event>
 8    1  0.1122848E+005  0.1043930E+01  0.7957747E-01            NaN
         13   -1    0    0    0    0  0.00000000000E+00  0.00000000000E+00  0.74505805969E-08  0.10566000000E+00  0.10566000000E+00 0. -1.
     999900   -1    0    0    0    0 -0.00000000000E+00 -0.00000000000E+00 -0.74505805969E-08  0.93827000000E+00  0.93827000000E+00 0. -1.
     999902    2    1    2    0    0  0.76064545106E-02 -0.56219760064E-02  0.18436375899E-01  0.10232088823E+01  0.10229990479E+01 0.  0.
     999903    2    3    3    0    0  0.12795752199E+00  0.11406843802E-01 -0.30144119460E-01  0.13352667794E+00  0.20431893303E-01 0.  0.
         14    1    1    2    0    0 -0.76064545106E-02  0.56219760064E-02 -0.18436375899E-01  0.20721117748E-01  0.00000000000E+00 0.  1.
     999901    1    3    3    0    0 -0.12035106748E+00 -0.17028819809E-01  0.48580495360E-01  0.88968220432E+00  0.88000000000E+00 0. -1.
        -11    1    4    4    0    0  0.19941483750E-01 -0.46484792540E-02 -0.10298418796E-02  0.20508359974E-01  0.51100000000E-03 0. -1.
         11    1    4    4    0    0  0.10801603824E+00  0.16055323056E-01 -0.29114277581E-01  0.11301831796E+00  0.51100000000E-03 0.  1.
</event>
<event>
 8    1  0.1122848E+005  0.1043930E+01  0.7957747E-01            NaN
         13   -1    0    0    0    0  0.00000000000E+00  0.00000000000E+00  0.74505805969E-08  0.10566000000E+00  0.10566000000E+00 0. -1.
     999900   -1    0    0    0    0 -0.00000000000E+00 -0.00000000000E+00 -0.74505805969E-08  0.93827000000E+00  0.93827000000E+00 0.  1.
     999902    2    1    2    0    0 -0.20248443682E-01 -0.11795260187E-01  0.71463023055E-03  0.10204856333E+01  0.10202162954E+01 0.  0.
     999903    2    3    3    0    0 -0.77039163296E-01  0.48530226131E-02  0.10523854101E+00  0.13232596347E+00  0.21827175374E-01 0.  0.
         14    1    1    2    0    0  0.20248443682E-01  0.11795260187E-01 -0.71463023055E-03  0.23444366717E-01  0.00000000000E+00 0.  1.
     999901    1    3    3    0    0  0.56790719614E-01 -0.16648282800E-01 -0.10452391078E+00  0.88815966981E+00  0.88000000000E+00 0.  1.
        -11    1    4    4    0    0 -0.19150035181E-01  0.14794948485E-02  0.43870455987E-01  0.47893535910E-01  0.51100000000E-03 0. -1.
         11    1    4    4    0    0 -0.57889128115E-01  0.33735277646E-02  0.61368085023E-01  0.84432427561E-01  0.51100000000E-03 0.  1.
</event>
<event>
 8    1  0.1122848E+005  0.1043930E+01  0.7957747E-01            NaN
         13   -1    0    0    0    0  0.00000000000E+00  0.00000000000E+00  0.74505805969E-08  0.10566000000E+00  0.10566000000E+00 0. -1.
     999900   -1    0    0    0    0 -0.00000000000E+00 -0.00000000000E+00 -0.74505805969E-08  0.93827000000E+00  0.93827000000E+00 0.  1.
     999902    2    1    2    0    0  0.23433482734E-01 -0.29847712952E-02  0.18077542622E-02  0.10202381248E+01  0.10199630025E+01 0.  0.
     999903    2    3    3    0    0 -0.80081310812E-01  0.21117981107E-01  0.96556632757E-01  0.12879345178E+00  0.20139126743E-01 0.  0.
         14    1    1    2    0    0 -0.23433482734E-01  0.29847712952E-02 -0.18077542622E-02  0.23691875152E-01  0.00000000000E+00 0. -1.
     999901    1    3    3    0    0  0.10351479355E+00 -0.24102752402E-01 -0.94748878495E-01  0.89144467306E+00  0.88000000000E+00 0.  1.
        -11    1    4    4    0    0 -0.28765304107E-01  0.11502360499E-01  0.22988603723E-01  0.38580876604E-01  0.51100000000E-03 0. -1.
         11    1    4    4    0    0 -0.51316006705E-01  0.96156206077E-02  0.73568029034E-01  0.90212575181E-01  0.51100000000E-03 0.  1.
</event>
<event>
 8    1  0.1122848E+005  0.1043930E+01  0.7957747E-01            NaN
         13   -1    0    0    0    0  0.00000000000E+00  0.00000000000E+00  0.74505805969E-08  0.10566000000E+00  0.10566000000E+00 0.  1.
     999900   -1    0    0    0    0 -0.00000000000E+00 -0.00000000000E+00 -0.74505805969E-08  0.93827000000E+00  0.93827000000E+00 0. -1.
     999902    2    1    2    0    0  0.23634766337E-01 -0.54187552496E-02  0.53243625772E-02  0.10191043293E+01  0.10188019042E+01 0.  0.
     999903    2    3    3    0    0 -0.57216998489E-01 -0.75266446286E-01  0.85668972788E-01  0.12900828719E+00  0.19108699889E-01 0.  0.
         14    1    1    2    0    0 -0.23634766337E-01  0.54187552496E-02 -0.53243625772E-02  0.24825670688E-01  0.00000000000E+00 0.  1.
     999901    1    3    3    0    0  0.80851764826E-01  0.69847691037E-01 -0.80344610210E-01  0.89009604213E+00  0.88000000000E+00 0. -1.
        -11    1    4    4    0    0 -0.36762395624E-01 -0.32685813323E-01  0.45048812667E-01  0.66704518350E-01  0.51100000000E-03 0.  1.
         11    1    4    4    0    0 -0.20454602865E-01 -0.42580632963E-01  0.40620160121E-01  0.62303768836E-01  0.51100000000E-03 0. -1.
</event>
<event>
 8    1  0.1122848E+005  0.1043930E+01  0.7957747E-01            NaN
         13   -1    0    0    0    0  0.00000000000E+00  0.00000000000E+00  0.74505805969E-08  0.10566000000E+00  0.10566000000E+00 0.  1.
     999900   -1    0    0    0    0 -0.00000000000E+00 -0.00000000000E+00 -0.74505805969E-08  0.93827000000E+00  0.93827000000E+00 0.  1.
     999902    2    1    2    0    0 -0.16026686882E-01  0.10844758668E-01 -0.13392092383E-01  0.10203967975E+01  0.10201253907E+01 0.  0.
     999903    2    3    3    0    0 -0.60089201776E-01 -0.91069975444E-01 -0.70734588114E-01  0.13156819753E+00  0.20058814738E-01 0.  0.
         14    1    1    2    0    0  0.16026686882E-01 -0.10844758668E-01  0.13392092383E-01  0.23533202531E-01  0.00000000000E+00 0.  1.
     999901    1    3    3    0    0  0.44062514895E-01  0.10191473411E+00  0.57342495731E-01  0.88882859994E+00  0.88000000000E+00 0. -1.
        -11    1    4    4    0    0 -0.40716993619E-01 -0.43601352332E-01 -0.38661417382E-01  0.71090912285E-01  0.51100000000E-03 0.  1.
         11    1    4    4    0    0 -0.19372208158E-01 -0.47468623112E-01 -0.32073170733E-01  0.60477285248E-01  0.51100000000E-03 0. -1.
</event>
<event>
 8    1  0.1122848E+005  0.1043930E+01  0.7957747E-01            NaN
         13   -1    0    0    0    0  0.00000000000E+00  0.00000000000E+00  0.74505805969E-08  0.10566000000E+00  0.10566000000E+00 0. -1.
     999900   -1    0    0    0    0 -0.00000000000E+00 -0.00000000000E+00 -0.74505805969E-08  0.93827000000E+00  0.93827000000E+00 0.  1.
     999902    2    1    2    0    0 -0.22078847883E-01 -0.78527850355E-02  0.34098792578E-02  0.10202494377E+01  0.10199745811E+01 0.  0.
     999903    2    3    3    0    0 -0.11790303775E+00  0.50222700188E-01  0.30574709088E-01  0.13272875320E+00  0.16083008611E-01 0.  0.
         14    1    1    2    0    0  0.22078847883E-01  0.78527850355E-02 -0.34098792578E-02  0.23680562350E-01  0.00000000000E+00 0. -1.
     999901    1    3    3    0    0  0.95824189865E-01 -0.58075485224E-01 -0.27164829831E-01  0.88752068445E+00  0.88000000000E+00 0.  1.
        -11    1    4    4    0    0 -0.21960281445E-01  0.15968529562E-01  0.40561263676E-02  0.27458353549E-01  0.51100000000E-03 0. -1.
         11    1    4    4    0    0 -0.95942756303E-01  0.34254170626E-01  0.26518582721E-01  0.10527039965E+00  0.51100000000E-03 0.  1.
</event>
<event>
 8    1  0.1122848E+005  0.1043930E+01  0.7957747E-01            NaN
         13   -1    0    0    0    0  0.00000000000E+00  0.00000000000E+00  0.74505805969E-08  0.10566000000E+00  0.10566000000E+00 0.  1.
     999900   -1    0    0    0    0 -0.00000000000E+00 -0.00000000000E+00 -0.74505805969E-08  0.93827000000E+00  0.93827000000E+00 0.  1.
     999902    2    1    2    0    0 -0.48324673375E-02  0.14034932892E-01  0.32301685472E-01  0.10083810061E+01  0.10077541975E+01 0.  0.
     999903    2    3    3    0    0 -0.26071469973E-02  0.65324750319E-02 -0.11437772798E+00  0.11620608534E+00  0.19290390566E-01 0.  0.
         14    1    1    2    0    0  0.48324673375E-02 -0.14034932892E-01 -0.32301685472E-01  0.35548993884E-01  0.00000000000E+00 0. -1.
     999901    1    3    3    0    0 -0.22253203402E-02  0.75024578602E-02  0.14667941345E+00  0.89217492077E+00  0.88000000000E+00 0. -1.
        -11    1    4    4    0    0 -0.66438551088E-02 -0.37607915956E-02 -0.24974437316E-01  0.26120260419E-01  0.51100000000E-03 0.  1.
         11    1    4    4    0    0  0.40367081115E-02  0.10293266627E-01 -0.89403290661E-01  0.90085824924E-01  0.51100000000E-03 0. -1.
</event>
<event>
 8    1  0.1122848E+005  0.1043930E+01  0.7957747E-01            NaN
         13   -1    0    0    0    0  0.00000000000E+00  0.00000000000E+00  0.74505805969E-08  0.10566000000E+00  0.10566000000E+00 0.  1.
     999900   -1    0    0    0    0 -0.00000000000E+00 -0.00000000000E+00 -0.74505805969E-08  0.93827000000E+00  0.93827000000E+00 0. -1.
     999902    2    1    2    0    0 -0.11628271323E-01 -0.75891039598E-02  0.19348698448E-01  0.10201143891E+01  0.10198363513E+01 0.  0.
     999903    2    3    3    0    0  0.50269211912E-02  0.12031897381E+00  0.45577844526E-01  0.13032461619E+00  0.20130580680E-01 0.  0.
         14    1    1    2    0    0  0.11628271323E-01  0.75891039598E-02 -0.19348698448E-01  0.23815610942E-01  0.00000000000E+00 0. -1.
     999901    1    3    3    0    0 -0.16655192515E-01 -0.12790807777E+00 -0.26229146078E-01  0.88978977287E+00  0.88000000000E+00 0.  1.
        -11    1    4    4    0    0  0.10704607069E-01  0.65540956340E-01  0.31370426850E-01  0.73447739055E-01  0.51100000000E-03 0.  1.
         11    1    4    4    0    0 -0.56776858775E-02  0.54778017469E-01  0.14207417676E-01  0.56876877136E-01  0.51100000000E-03 0. -1.
</event>
<event>
 8    1  0.1122848E+005  0.1043930E+01  0.7957747E-01            NaN
         13   -1    0    0    0    0  0.00000000000E+00  0.00000000000E+00  0.74505805969E-08  0.10566000000E+00  0.10566000000E+00 0. -1.
     999900   -1    0    0    0    0 -0.00000000000E+00 -0.00000000000E+00 -0.74505805969E-08  0.93827000000E+00  0.93827000000E+00 0.  1.
     999902    2    1    2    0    0 -0.10322185285E-01  0.43841733814E-02  0.18994245383E-01  0.10218721251E+01  0.10216340295E+01 0.  0.
     999903    2    3    3    0    0  0.13200326568E-01 -0.12757257436E+00 -0.18304326233E-01  0.13094167035E+00  0.19017421651E-01 0.  0.
         14    1    1    2    0    0  0.10322185285E-01 -0.43841733814E-02 -0.18994245383E-01  0.22057874852E-01  0.00000000000E+00 0. -1.
     999901    1    3    3    0    0 -0.23522511853E-01  0.13195674774E+00  0.37298571616E-01  0.89093045480E+00  0.88000000000E+00 0.  1.
        -11    1    4    4    0    0 -0.48787665303E-02 -0.33847320381E-01 -0.50122193571E-02  0.34566268583E-01  0.51100000000E-03 0.  1.
         11    1    4    4    0    0  0.18079093098E-01 -0.93725253976E-01 -0.13292106876E-01  0.96375401770E-01  0.51100000000E-03 0. -1.
</event>
<event>
 8    1  0.1122848E+005  0.1043930E+01  0.7957747E-01            NaN
         13   -1    0    0    0    0  0.00000000000E+00  0.00000000000E+00  0.74505805969E-08  0.10566000000E+00  0.10566000000E+00 0. -1.
     999900   -1    0    0    0    0 -0.00000000000E+00 -0.00000000000E+00 -0.74505805969E-08  0.93827000000E+00  0.93827000000E+00 0.  1.
     999902    2    1    2    0    0  0.27079688145E-01 -0.21934991466E-01 -0.27137312751E-02  0.10089754910E+01  0.10083698348E+01 0.  0.
     999903    2    3    3    0    0  0.36683456732E-01  0.11086707738E+00 -0.80946923727E-02  0.11894314520E+00  0.21089402573E-01 0.  0.
         14    1    1    2    0    0 -0.27079688145E-01  0.21934991466E-01  0.27137312751E-02  0.34954508980E-01  0.00000000000E+00 0.  1.
     999901    1    3    3    0    0 -0.96037685871E-02 -0.13280206885E+00  0.53809610976E-02  0.89003234582E+00  0.88000000000E+00 0. -1.
        -11    1    4    4    0    0  0.20426511039E-01  0.80701796685E-01 -0.13218876512E-01  0.84291293493E-01  0.51100000000E-03 0.  1.
         11    1    4    4    0    0  0.16256945693E-01  0.30165280696E-01  0.51241841390E-02  0.34651851708E-01  0.51100000000E-03 0. -1.
</event>
<event>
 8    1  0.1122848E+005  0.1043930E+01  0.7957747E-01            NaN
         13   -1    0    0    0    0  0.00000000000E+00  0.00000000000E+00  0.74505805969E-08  0.10566000000E+00  0.10566000000E+00 0. -1.
     999900   -1    0    0    0    0 -0.00000000000E+00 -0.00000000000E+00 -0.74505805969E-08  0.93827000000E+00  0.93827000000E+00 0.  1.
     999902    2    1    2    0    0 -0.17548011324E-01  0.43741152455E-02 -0.15738035042E-01  0.10199560280E+01  0.10196742361E+01 0.  0.
     999903    2    3    3    0    0  0.12395066724E+00 -0.17768982403E-01 -0.15892112990E-01  0.12837753089E+00  0.23424912714E-01 0.  0.
         14    1    1    2    0    0  0.17548011324E-01 -0.43741152455E-02  0.15738035042E-01  0.23973971982E-01  0.00000000000E+00 0. -1.
     999901    1    3    3    0    0 -0.14149867857E+00  0.22143097648E-01  0.15407794766E-03  0.89157849713E+00  0.88000000000E+00 0. -1.
        -11    1    4    4    0    0  0.60539412776E-01 -0.19055543090E-01 -0.23009471558E-02  0.63511335213E-01  0.51100000000E-03 0.  1.
         11    1    4    4    0    0  0.63411254466E-01  0.12865606868E-02 -0.13591165834E-01  0.64866195673E-01  0.51100000000E-03 0. -1.
</event>
<event>
 8    1  0.1122848E+005  0.1043930E+01  0.7957747E-01            NaN
         13   -1    0    0    0    0  0.00000000000E+00  0.00000000000E+00  0.74505805969E-08  0.10566000000E+00  0.10566000000E+00 0. -1.
     999900   -1    0    0    0    0 -0.00000000000E+00 -0.00000000000E+00 -0.74505805969E-08  0.93827000000E+00  0.93827000000E+00 0. -1.
     999902    2    1    2    0    0  0.62043218807E-02 -0.22544397826E-01  0.10792740737E-01  0.10181768111E+01  0.10178510657E+01 0.  0.
     999903    2    3    3    0    0  0.76550904445E-01  0.20654733339E-01  0.10214216794E+00  0.12960519082E+00  0.88217931297E-02 0.  0.
         14    1    1    2    0    0 -0.62043218807E-02  0.22544397826E-01 -0.10792740737E-01  0.25753188850E-01  0.00000000000E+00 0. -1.
     999901    1    3    3    0    0 -0.70346582564E-01 -0.43199131165E-01 -0.91349427205E-01  0.88857162033E+00  0.88000000000E+00 0. -1.
        -11    1    4    4    0    0  0.25819397312E-01  0.27236607950E-02  0.33451549655E-01  0.42347690622E-01  0.51100000000E-03 0.  1.
         11    1    4    4    0    0  0.50731507133E-01  0.17931072544E-01  0.68690618286E-01  0.87257500194E-01  0.51100000000E-03 0. -1.
</event>
<event>
 8    1  0.1122848E+005  0.1043930E+01  0.7957747E-01            NaN
         13   -1    0    0    0    0  0.00000000000E+00  0.00000000000E+00  0.74505805969E-08  0.10566000000E+00  0.10566000000E+00 0. -1.
     999900   -1    0    0    0    0 -0.00000000000E+00 -0.00000000000E+00 -0.74505805969E-08  0.93827000000E+00  0.93827000000E+00 0. -1.
     999902    2    1    2    0    0 -0.38304094053E-02  0.83692415953E-02 -0.21609846231E-01  0.10204416690E+01  0.10201713082E+01 0.  0.
     999903    2    3    3    0    0 -0.73572086536E-01  0.37970109588E-01  0.96979798781E-01  0.12926064536E+00  0.21181405232E-01 0.  0.
         14    1    1    2    0    0  0.38304094053E-02 -0.83692415953E-02  0.21609846231E-01  0.23488331044E-01  0.00000000000E+00 0. -1.
     999901    1    3    3    0    0  0.69741677131E-01 -0.29600867993E-01 -0.11858964501E+00  0.89118102360E+00  0.88000000000E+00 0. -1.
        -11    1    4    4    0    0 -0.55281814106E-01  0.20285617359E-01  0.57601650039E-01  0.82375945826E-01  0.51100000000E-03 0. -1.
         11    1    4    4    0    0 -0.18290272430E-01  0.17684492229E-01  0.39378148742E-01  0.46884699533E-01  0.51100000000E-03 0.  1.
</event>
<event>
 8    1  0.1122848E+005  0.1043930E+01  0.7957747E-01            NaN
         13   -1    0    0    0    0  0.00000000000E+00  0.00000000000E+00  0.74505805969E-08  0.10566000000E+00  0.10566000000E+00 0. -1.
     999900   -1    0    0    0    0 -0.00000000000E+00 -0.00000000000E+00 -0.74505805969E-08  0.93827000000E+00  0.93827000000E+00 0.  1.
     999902    2    1    2    0    0 -0.30306252314E-02  0.22857377068E-01 -0.29415759118E-02  0.10206857051E+01  0.10204209971E+01 0.  0.
     999903    2    3    3    0    0 -0.25175074455E-01 -0.42743427686E-01  0.11823280007E+00  0.12968790960E+00  0.19472388132E-01 0.  0.
         14    1    1    2    0    0  0.30306252314E-02 -0.22857377068E-01  0.29415759118E-02  0.23244294883E-01  0.00000000000E+00 0.  1.
     999901    1    3    3    0    0  0.22144449223E-01  0.65600804754E-01 -0.12117437599E+00  0.89099779551E+00  0.88000000000E+00 0.  1.
        -11    1    4    4    0    0 -0.22672807907E-01 -0.24088159094E-01  0.60404241599E-01  0.68871105343E-01  0.51100000000E-03 0. -1.
         11    1    4    4    0    0 -0.25022665478E-02 -0.18655268592E-01  0.57828558476E-01  0.60816804261E-01  0.51100000000E-03 0.  1.
</event>
<event>
 8    1  0.1122848E+005  0.1043930E+01  0.7957747E-01            NaN
         13   -1    0    0    0    0  0.00000000000E+00  0.00000000000E+00  0.74505805969E-08  0.10566000000E+00  0.10566000000E+00 0.  1.
     999900   -1    0    0    0    0 -0.00000000000E+00 -0.00000000000E+00 -0.74505805969E-08  0.93827000000E+00  0.93827000000E+00 0.  1.
     999902    2    1    2    0    0  0.15242641595E-01  0.14265270211E-01 -0.11607950573E-01  0.10200431715E+01  0.10197634487E+01 0.  0.
     999903    2    3    3    0    0 -0.37164014202E-01  0.11321699171E+00  0.49954746719E-01  0.13081436721E+00  0.20436995521E-01 0.  0.
         14    1    1    2    0    0 -0.15242641595E-01 -0.14265270211E-01  0.11607950573E-01  0.23886828452E-01  0.00000000000E+00 0. -1.
     999901    1    3    3    0    0  0.52406655797E-01 -0.98951721500E-01 -0.61562697292E-01  0.88922880433E+00  0.88000000000E+00 0. -1.
        -11    1    4    4    0    0 -0.12948116852E-01  0.34041721623E-01  0.25560527675E-01  0.44498249821E-01  0.51100000000E-03 0.  1.
         11    1    4    4    0    0 -0.24215897350E-01  0.79175270088E-01  0.24394219045E-01  0.86316117393E-01  0.51100000000E-03 0. -1.
</event>
<event>
 8    1  0.1122848E+005  0.1043930E+01  0.7957747E-01            NaN
         13   -1    0    0    0    0  0.00000000000E+00  0.00000000000E+00  0.74505805969E-08  0.10566000000E+00  0.10566000000E+00 0. -1.
     999900   -1    0    0    0    0 -0.00000000000E+00 -0.00000000000E+00 -0.74505805969E-08  0.93827000000E+00  0.93827000000E+00 0. -1.
     999902    2    1    2    0    0  0.22183521117E-01 -0.65869990005E-02  0.59408027827E-02  0.10200387819E+01  0.10197589550E+01 0.  0.
     999903    2    3    3    0    0 -0.58425161351E-01  0.36138344665E-01 -0.10635992996E+00  0.12822340343E+00  0.20231832641E-01 0.  0.
         14    1    1    2    0    0 -0.22183521117E-01  0.65869990005E-02 -0.59408027827E-02  0.23891218108E-01  0.00000000000E+00 0.  1.
     999901    1    3    3    0    0  0.80608682468E-01 -0.42725343666E-01  0.11230073275E+00  0.89181537846E+00  0.88000000000E+00 0.  1.
        -11    1    4    4    0    0 -0.49323813774E-01  0.20457605103E-01 -0.76744089967E-01  0.93494752140E-01  0.51100000000E-03 0. -1.
         11    1    4    4    0    0 -0.91013475764E-02  0.15680739563E-01 -0.29615839996E-01  0.34728651293E-01  0.51100000000E-03 0.  1.
</event>
<event>
 8    1  0.1122848E+005  0.1043930E+01  0.7957747E-01            NaN
         13   -1    0    0    0    0  0.00000000000E+00  0.00000000000E+00  0.74505805969E-08  0.10566000000E+00  0.10566000000E+00 0.  1.
     999900   -1    0    0    0    0 -0.00000000000E+00 -0.00000000000E+00 -0.74505805969E-08  0.93827000000E+00  0.93827000000E+00 0. -1.
     999902    2    1    2    0    0 -0.79453521546E-02 -0.20601387415E-01 -0.73747653813E-02  0.10206505466E+01  0.10203850280E+01 0.  0.
     999903    2    3    3    0    0 -0.60269772570E-01  0.10034812254E+00  0.50145338851E-01  0.12898065743E+00  0.20475932188E-01 0.  0.
         14    1    1    2    0    0  0.79453521546E-02  0.20601387415E-01  0.73747653813E-02  0.23279453360E-01  0.00000000000E+00 0. -1.
     999901    1    3    3    0    0  0.52324420415E-01 -0.12094950996E+00 -0.57520104233E-01  0.89166988921E+00  0.88000000000E+00 0. -1.
        -11    1    4    4    0    0 -0.31059329568E-01  0.67867835045E-01  0.25821340608E-01  0.78979286770E-01  0.51100000000E-03 0. -1.
         11    1    4    4    0    0 -0.29210443002E-01  0.32480287500E-01  0.24323998243E-01  0.50001370661E-01  0.51100000000E-03 0.  1.
</event>
<event>
 8    1  0.1122848E+005  0.1043930E+01  0.7957747E-01            NaN
         13   -1    0    0    0    0  0.00000000000E+00  0.00000000000E+00  0.74505805969E-08  0.10566000000E+00  0.10566000000E+00 0.  1.
     999900   -1    0    0    0    0 -0.00000000000E+00 -0.00000000000E+00 -0.74505805969E-08  0.93827000000E+00  0.93827000000E+00 0. -1.
     999902    2    1    2    0    0 -0.21777386439E-01  0.55146195884E-02 -0.74091123253E-02  0.10202749681E+01  0.10200007108E+01 0.  0.
     999903    2    3    3    0    0  0.12562449596E+00  0.50490762131E-02 -0.77189863709E-02  0.12801512494E+00  0.22831607637E-01 0.  0.
         14    1    1    2    0    0  0.21777386439E-01 -0.55146195884E-02  0.74091123253E-02  0.23655031912E-01  0.00000000000E+00 0.  1.
     999901    1    3    3    0    0 -0.14740188240E+00  0.46554337524E-03  0.30987404558E-03  0.89225984314E+00  0.88000000000E+00 0.  1.
        -11    1    4    4    0    0  0.42678252090E-01  0.91902806276E-02  0.51892476508E-02  0.43966849690E-01  0.51100000000E-03 0.  1.
         11    1    4    4    0    0  0.82946243872E-01 -0.41412044145E-02 -0.12908234022E-01  0.84048275254E-01  0.51100000000E-03 0. -1.
</event>
<event>
 8    1  0.1122848E+005  0.1043930E+01  0.7957747E-01            NaN
         13   -1    0    0    0    0  0.00000000000E+00  0.00000000000E+00  0.74505805969E-08  0.10566000000E+00  0.10566000000E+00 0.  1.
     999900   -1    0    0    0    0 -0.00000000000E+00 -0.00000000000E+00 -0.74505805969E-08  0.93827000000E+00  0.93827000000E+00 0. -1.
     999902    2    1    2    0    0  0.15945971775E-01  0.16904721506E-01  0.45130691376E-02  0.10202569897E+01  0.10199823104E+01 0.  0.
     999903    2    3    3    0    0  0.19115419216E-02  0.13060952965E+00  0.16104492676E-02  0.13282576765E+00  0.24033055928E-01 0.  0.
         14    1    1    2    0    0 -0.15945971775E-01 -0.16904721506E-01 -0.45130691376E-02  0.23673010331E-01  0.00000000000E+00 0. -1.
     999901    1    3    3    0    0  0.14034429854E-01 -0.11370480814E+00  0.29026198700E-02  0.88743122202E+00  0.88000000000E+00 0.  1.
        -11    1    4    4    0    0 -0.91271197564E-02  0.63204512583E-01 -0.57754020070E-02  0.64122781562E-01  0.51100000000E-03 0.  1.
         11    1    4    4    0    0  0.11038661678E-01  0.67405017065E-01  0.73858512746E-02  0.68702986086E-01  0.51100000000E-03 0. -1.
</event>
<event>
 8    1  0.1122848E+005  0.1043930E+01  0.7957747E-01            NaN
         13   -1    0    0    0    0  0.00000000000E+00  0.00000000000E+00  0.74505805969E-08  0.10566000000E+00  0.10566000000E+00 0. -1.
     999900   -1    0    0    0    0 -0.00000000000E+00 -0.00000000000E+00 -0.74505805969E-08  0.93827000000E+00  0.93827000000E+00 0. -1.
     999902    2    1    2    0    0  0.97951460208E-02 -0.96950095757E-02  0.20735103167E-01  0.10190325584E+01  0.10187283605E+01 0.  0.
     999903    2    3    3    0    0 -0.67113281523E-01  0.95933522301E-01  0.50170073111E-01  0.12889846149E+00  0.19757122295E-01 0.  0.
         14    1    1    2    0    0 -0.97951460208E-02  0.96950095757E-02 -0.20735103167E-01  0.24897441627E-01  0.00000000000E+00 0.  1.
     999901    1    3    3    0    0  0.76908427544E-01 -0.10562853188E+00 -0.29434969944E-01  0.89013409688E+00  0.88000000000E+00 0. -1.
        -11    1    4    4    0    0 -0.22871005985E-01  0.49356850022E-01  0.25526618044E-01  0.60092020341E-01  0.51100000000E-03 0. -1.
         11    1    4    4    0    0 -0.44242275538E-01  0.46576672279E-01  0.24643455066E-01  0.68806441152E-01  0.51100000000E-03 0.  1.
</event>
<event>
 8    1  0.1122848E+005  0.1043930E+01  0.7957747E-01            NaN
         13   -1    0    0    0    0  0.00000000000E+00  0.00000000000E+00  0.74505805969E-08  0.10566000000E+00  0.10566000000E+00 0. -1.
     999900   -1    0    0    0    0 -0.00000000000E+00 -0.00000000000E+00 -0.74505805969E-08  0.93827000000E+00  0.93827000000E+00 0.  1.
     999902    2    1    2    0    0  0.86893370070E-02 -0.14755256539E-01  0.19172952185E-01  0.10182234975E+01  0.10178989472E+01 0.  0.
     999903    2    3    3    0    0 -0.25272929919E-01  0.26773963103E-01 -0.11867582936E+00  0.12587804973E+00  0.20143605468E-01 0.  0.
         14    1    1    2    0    0 -0.86893370070E-02  0.14755256539E-01 -0.19172952185E-01  0.25706502458E-01  0.00000000000E+00 0. -1.
     999901    1    3    3    0    0  0.33962266926E-01 -0.41529219642E-01  0.13784878155E+00  0.89234544781E+00  0.88000000000E+00 0. -1.
        -11    1    4    4    0    0 -0.21213822208E-01  0.27488141939E-01 -0.11561901833E+00  0.12072134327E+00  0.51100000000E-03 0.  1.
         11    1    4    4    0    0 -0.40591077110E-02 -0.71417883580E-03 -0.30568110343E-02  0.51567064603E-02  0.51100000000E-03 0. -1.
</event>
<event>
 8    1  0.1122848E+005  0.1043930E+01  0.7957747E-01            NaN
         13   -1    0    0    0    0  0.00000000000E+00  0.00000000000E+00  0.74505805969E-08  0.10566000000E+00  0.10566000000E+00 0.  1.
     999900   -1    0    0    0    0 -0.00000000000E+00 -0.00000000000E+00 -0.74505805969E-08  0.93827000000E+00  0.93827000000E+00 0.  1.
     999902    2    1    2    0    0 -0.21401223475E-01  0.55269322988E-02 -0.86730271277E-02  0.10201859324E+01  0.10199095822E+01 0.  0.
     999903    2    3    3    0    0 -0.40253224522E-01  0.10167290685E+00 -0.71905934035E-01  0.13249350431E+00  0.20648565635E-01 0.  0.
         14    1    1    2    0    0  0.21401223475E-01 -0.55269322988E-02  0.86730271277E-02  0.23744067605E-01  0.00000000000E+00 0. -1.
     999901    1    3    3    0    0  0.18852001046E-01 -0.96145974551E-01  0.63232906908E-01  0.88769242809E+00  0.88000000000E+00 0. -1.
        -11    1    4    4    0    0 -0.58417886344E-02  0.19415628595E-01 -0.23475512577E-01  0.31023441781E-01  0.51100000000E-03 0.  1.
         11    1    4    4    0    0 -0.34411435887E-01  0.82257278255E-01 -0.48430421459E-01  0.10147006253E+00  0.51100000000E-03 0. -1.
</event>
<event>
 8    1  0.1122848E+005  0.1043930E+01  0.7957747E-01            NaN
         13   -1    0    0    0    0  0.00000000000E+00  0.00000000000E+00  0.74505805969E-08  0.10566000000E+00  0.10566000000E+00 0. -1.
     999900   -1    0    0    0    0 -0.00000000000E+00 -0.00000000000E+00 -0.74505805969E-08  0.93827000000E+00  0.93827000000E+00 0.  1.
     999902    2    1    2    0    0  0.23635903413E-02 -0.22468805000E-01  0.65519929776E-02  0.10204063445E+01  0.10201351604E+01 0.  0.
     999903    2    3    3    0    0 -0.50846368279E-01 -0.30681957120E-02  0.11956450453E+00  0.13137343670E+00  0.19197451215E-01 0.  0.
         14    1    1    2    0    0 -0.23635903413E-02  0.22468805000E-01 -0.65519929776E-02  0.23523655528E-01  0.00000000000E+00 0.  1.
     999901    1    3    3    0    0  0.53209958620E-01 -0.19400609288E-01 -0.11301251156E+00  0.88903290777E+00  0.88000000000E+00 0.  1.
        -11    1    4    4    0    0 -0.39903120965E-01 -0.88593422303E-02  0.78869112654E-01  0.88833242985E-01  0.51100000000E-03 0.  1.
         11    1    4    4    0    0 -0.10943247314E-01  0.57911465183E-02  0.40695391880E-01  0.42540193712E-01  0.51100000000E-03 0. -1.
</event>
<event>
 8    1  0.1122848E+005  0.1043930E+01  0.7957747E-01            NaN
         13   -1    0    0    0    0  0.00000000000E+00  0.00000000000E+00  0.74505805969E-08  0.10566000000E+00  0.10566000000E+00 0. -1.
     999900   -1    0    0    0    0 -0.00000000000E+00 -0.00000000000E+00 -0.74505805969E-08  0.93827000000E+00  0.93827000000E+00 0.  1.
     999902    2    1    2    0    0  0.18839446979E-01 -0.15361580618E-01  0.24187058537E-02  0.10195014704E+01  0.10192087593E+01 0.  0.
     999903    2    3    3    0    0 -0.32252446685E-01 -0.47682814261E-01  0.11501994471E+00  0.13026917073E+00  0.20654250630E-01 0.  0.
         14    1    1    2    0    0 -0.18839446979E-01  0.15361580618E-01 -0.24187058537E-02  0.24428529623E-01  0.00000000000E+00 0.  1.
     999901    1    3    3    0    0  0.51091893664E-01  0.32321233643E-01 -0.11260123885E+00  0.88923229965E+00  0.88000000000E+00 0.  1.
        -11    1    4    4    0    0 -0.34991759561E-01 -0.40938196579E-01  0.10179373332E+00  0.11516329467E+00  0.51100000000E-03 0.  1.
         11    1    4    4    0    0  0.27393128751E-02 -0.67446176822E-02  0.13226211390E-01  0.15105876057E-01  0.51100000000E-03 0. -1.
</event>
<event>
 8    1  0.1122848E+005  0.1043930E+01  0.7957747E-01            NaN
         13   -1    0    0    0    0  0.00000000000E+00  0.00000000000E+00  0.74505805969E-08  0.10566000000E+00  0.10566000000E+00 0. -1.
     999900   -1    0    0    0    0 -0.00000000000E+00 -0.00000000000E+00 -0.74505805969E-08  0.93827000000E+00  0.93827000000E+00 0.  1.
     999902    2    1    2    0    0  0.12891264064E-01 -0.11056785083E-01 -0.16254912468E-01  0.10204212917E+01  0.10201504562E+01 0.  0.
     999903    2    3    3    0    0 -0.24614559537E-01 -0.87197243086E-01  0.90899627065E-01  0.12986744636E+00  0.19838741903E-01 0.  0.
         14    1    1    2    0    0 -0.12891264064E-01  0.11056785083E-01  0.16254912468E-01  0.23508708277E-01  0.00000000000E+00 0.  1.
     999901    1    3    3    0    0  0.37505823601E-01  0.76140458003E-01 -0.10715453953E+00  0.89055384536E+00  0.88000000000E+00 0.  1.
        -11    1    4    4    0    0 -0.19492528708E-01 -0.38923420519E-01  0.35235471319E-01  0.56007061166E-01  0.51100000000E-03 0. -1.
         11    1    4    4    0    0 -0.51220308298E-02 -0.48273822567E-01  0.55664155746E-01  0.73860385194E-01  0.51100000000E-03 0.  1.
</event>
<event>
 8    1  0.1122848E+005  0.1043930E+01  0.7957747E-01            NaN
         13   -1    0    0    0    0  0.00000000000E+00  0.00000000000E+00  0.74505805969E-08  0.10566000000E+00  0.10566000000E+00 0. -1.
     999900   -1    0    0    0    0 -0.00000000000E+00 -0.00000000000E+00 -0.74505805969E-08  0.93827000000E+00  0.93827000000E+00 0.  1.
     999902    2    1    2    0    0  0.16042454222E-01  0.66243538482E-02  0.16334200486E-01  0.10200962318E+01  0.10198177649E+01 0.  0.
     999903    2    3    3    0    0 -0.90977908601E-01  0.75622861299E-01  0.50696074499E-01  0.13026765815E+00  0.20094123161E-01 0.  0.
         14    1    1    2    0    0 -0.16042454222E-01 -0.66243538482E-02 -0.16334200486E-01  0.23833768206E-01  0.00000000000E+00 0.  1.
     999901    1    3    3    0    0  0.10702036282E+00 -0.68998507451E-01 -0.34361874013E-01  0.88982857364E+00  0.88000000000E+00 0.  1.
        -11    1    4    4    0    0 -0.35350435803E-01  0.17195379747E-01  0.17368858010E-01  0.42979910954E-01  0.51100000000E-03 0.  1.
         11    1    4    4    0    0 -0.55627472798E-01  0.58427481552E-01  0.33327216489E-01  0.87287747195E-01  0.51100000000E-03 0. -1.
</event>
<event>
 8    1  0.1122848E+005  0.1043930E+01  0.7957747E-01            NaN
         13   -1    0    0    0    0  0.00000000000E+00  0.00000000000E+00  0.74505805969E-08  0.10566000000E+00  0.10566000000E+00 0. -1.
     999900   -1    0    0    0    0 -0.00000000000E+00 -0.00000000000E+00 -0.74505805969E-08  0.93827000000E+00  0.93827000000E+00 0. -1.
     999902    2    1    2    0    0  0.20411472753E-01  0.89269600499E-02  0.90017114330E-02  0.10199018989E+01  0.10196188178E+01 0.  0.
     999903    2    3    3    0    0  0.28447307609E-01 -0.56941025034E-02  0.12692616220E+00  0.13187908035E+00  0.20980206616E-01 0.  0.
         14    1    1    2    0    0 -0.20411472753E-01 -0.89269600499E-02 -0.90017114330E-02  0.24028101140E-01  0.00000000000E+00 0.  1.
     999901    1    3    3    0    0 -0.80358348558E-02  0.14621062553E-01 -0.11792445076E+00  0.88802281851E+00  0.88000000000E+00 0. -1.
        -11    1    4    4    0    0  0.22355823000E-01 -0.94925033130E-02  0.11768450763E+00  0.12016569767E+00  0.51100000000E-03 0.  1.
         11    1    4    4    0    0  0.60914846094E-02  0.37984008095E-02  0.92416545713E-02  0.11713382674E-01  0.51100000000E-03 0. -1.
</event>
<event>
 8    1  0.1122848E+005  0.1043930E+01  0.7957747E-01            NaN
         13   -1    0    0    0    0  0.00000000000E+00  0.00000000000E+00  0.74505805969E-08  0.10566000000E+00  0.10566000000E+00 0. -1.
     999900   -1    0    0    0    0 -0.00000000000E+00 -0.00000000000E+00 -0.74505805969E-08  0.93827000000E+00  0.93827000000E+00 0.  1.
     999902    2    1    2    0    0 -0.12935136531E-01  0.12901337476E-01  0.16491355785E-01  0.10193184767E+01  0.10190213098E+01 0.  0.
     999903    2    3    3    0    0  0.56565252087E-01 -0.92589021923E-01 -0.62609327542E-01  0.12678531870E+00  0.19550816318E-01 0.  0.
         14    1    1    2    0    0  0.12935136531E-01 -0.12901337476E-01 -0.16491355785E-01  0.24611523345E-01  0.00000000000E+00 0.  1.
     999901    1    3    3    0    0 -0.69500388618E-01  0.10549035940E+00  0.79100683326E-01  0.89253315795E+00  0.88000000000E+00 0.  1.
        -11    1    4    4    0    0  0.48717208379E-02 -0.15884612369E-01 -0.16536707101E-01  0.23447353300E-01  0.51100000000E-03 0. -1.
         11    1    4    4    0    0  0.51693531249E-01 -0.76704409554E-01 -0.46072620441E-01  0.10333796540E+00  0.51100000000E-03 0.  1.
</event>
<event>
 8    1  0.1122848E+005  0.1043930E+01  0.7957747E-01            NaN
         13   -1    0    0    0    0  0.00000000000E+00  0.00000000000E+00  0.74505805969E-08  0.10566000000E+00  0.10566000000E+00 0.  1.
     999900   -1    0    0    0    0 -0.00000000000E+00 -0.00000000000E+00 -0.74505805969E-08  0.93827000000E+00  0.93827000000E+00 0.  1.
     999902    2    1    2    0    0  0.46045727507E-02 -0.34900735390E-02  0.23861918978E-01  0.10193785463E+01  0.10190828458E+01 0.  0.
     999903    2    3    3    0    0 -0.12471281797E+00 -0.26754357921E-01  0.10523259537E-01  0.12952342642E+00  0.19912216476E-01 0.  0.
         14    1    1    2    0    0 -0.46045727507E-02  0.34900735390E-02 -0.23861918978E-01  0.24551453742E-01  0.00000000000E+00 0. -1.
     999901    1    3    3    0    0  0.12931739072E+00  0.23264284382E-01  0.13338659441E-01  0.88985511984E+00  0.88000000000E+00 0. -1.
        -11    1    4    4    0    0 -0.71282989658E-01 -0.52642345986E-02  0.70779060036E-02  0.71828508650E-01  0.51100000000E-03 0. -1.
         11    1    4    4    0    0 -0.53429828315E-01 -0.21490123322E-01  0.34453535339E-02  0.57694917767E-01  0.51100000000E-03 0.  1.
</event>
<event>
 8    1  0.1122848E+005  0.1043930E+01  0.7957747E-01            NaN
         13   -1    0    0    0    0  0.00000000000E+00  0.00000000000E+00  0.74505805969E-08  0.10566000000E+00  0.10566000000E+00 0. -1.
     999900   -1    0    0    0    0 -0.00000000000E+00 -0.00000000000E+00 -0.74505805969E-08  0.93827000000E+00  0.93827000000E+00 0. -1.
     999902    2    1    2    0    0 -0.27302062397E-02  0.16836085519E-01 -0.40303454472E-02  0.10264042622E+01  0.10262546263E+01 0.  0.
     999903    2    3    3    0    0 -0.10030074837E+00 -0.82671506774E-01 -0.30299789226E-01  0.13505031717E+00  0.20632323757E-01 0.  0.
         14    1    1    2    0    0  0.27302062397E-02 -0.16836085519E-01  0.40303454472E-02  0.17525737820E-01  0.00000000000E+00 0. -1.
     999901    1    3    3    0    0  0.97570542130E-01  0.99507592293E-01  0.26269443779E-01  0.89135394501E+00  0.88000000000E+00 0.  1.
        -11    1    4    4    0    0 -0.34955256706E-01 -0.27514173314E-01 -0.20476843239E-01  0.48974094526E-01  0.51100000000E-03 0.  1.
         11    1    4    4    0    0 -0.65345491664E-01 -0.55157333460E-01 -0.98229459869E-02  0.86076222641E-01  0.51100000000E-03 0. -1.
</event>
<event>
 8    1  0.1122848E+005  0.1043930E+01  0.7957747E-01            NaN
         13   -1    0    0    0    0  0.00000000000E+00  0.00000000000E+00  0.74505805969E-08  0.10566000000E+00  0.10566000000E+00 0.  1.
     999900   -1    0    0    0    0 -0.00000000000E+00 -0.00000000000E+00 -0.74505805969E-08  0.93827000000E+00  0.93827000000E+00 0. -1.
     999902    2    1    2    0    0  0.10273379155E-01 -0.94572225162E-02 -0.19222185415E-01  0.10201713429E+01  0.10198946490E+01 0.  0.
     999903    2    3    3    0    0 -0.11214871433E+00 -0.11562970818E-01 -0.62948963260E-01  0.13061885186E+00  0.19689491240E-01 0.  0.
         14    1    1    2    0    0 -0.10273379155E-01  0.94572225162E-02  0.19222185415E-01  0.23758657140E-01  0.00000000000E+00 0.  1.
     999901    1    3    3    0    0  0.12242209348E+00  0.21057483018E-02  0.43726777845E-01  0.88955249100E+00  0.88000000000E+00 0.  1.
        -11    1    4    4    0    0 -0.83562474060E-01 -0.12962015068E-01 -0.38253009857E-01  0.92813009809E-01  0.51100000000E-03 0. -1.
         11    1    4    4    0    0 -0.28586240268E-01  0.13990442502E-02 -0.24695953402E-01  0.37805842047E-01  0.51100000000E-03 0.  1.
</event>
<event>
 8    1  0.1122848E+005  0.1043930E+01  0.7957747E-01            NaN
         13   -1    0    0    0    0  0.00000000000E+00  0.00000000000E+00  0.74505805969E-08  0.10566000000E+00  0.10566000000E+00 0.  1.
     999900   -1    0    0    0    0 -0.00000000000E+00 -0.00000000000E+00 -0.74505805969E-08  0.93827000000E+00  0.93827000000E+00 0. -1.
     999902    2    1    2    0    0 -0.21859687510E-01 -0.33092924423E-02 -0.81370219203E-02  0.10203713820E+01  0.10200993818E+01 0.  0.
     999903    2    3    3    0    0  0.10000540617E+00  0.19714885825E-01 -0.76411175232E-01  0.12905630091E+00  0.20666473285E-01 0.  0.
         14    1    1    2    0    0  0.21859687510E-01  0.33092924423E-02  0.81370219203E-02  0.23558617961E-01  0.00000000000E+00 0.  1.
     999901    1    3    3    0    0 -0.12186509368E+00 -0.23024178268E-01  0.68274153312E-01  0.89131508113E+00  0.88000000000E+00 0. -1.
        -11    1    4    4    0    0  0.17184140506E-01  0.25710498065E-02 -0.23719595723E-01  0.29407232517E-01  0.51100000000E-03 0.  1.
         11    1    4    4    0    0  0.82821265660E-01  0.17143836019E-01 -0.52691579509E-01  0.99649068391E-01  0.51100000000E-03 0. -1.
</event>
<event>
 8    1  0.1122848E+005  0.1043930E+01  0.7957747E-01            NaN
         13   -1    0    0    0    0  0.00000000000E+00  0.00000000000E+00  0.74505805969E-08  0.10566000000E+00  0.10566000000E+00 0.  1.
     999900   -1    0    0    0    0 -0.00000000000E+00 -0.00000000000E+00 -0.74505805969E-08  0.93827000000E+00  0.93827000000E+00 0.  1.
     999902    2    1    2    0    0 -0.62456271520E-02 -0.22136924687E-02  0.24256853892E-01  0.10187843592E+01  0.10184739895E+01 0.  0.
     999903    2    3    3    0    0  0.47567517959E-02 -0.87359549831E-01 -0.90169146352E-01  0.12723280209E+00  0.20084654332E-01 0.  0.
         14    1    1    2    0    0  0.62456271520E-02  0.22136924687E-02 -0.24256853892E-01  0.25145640847E-01  0.00000000000E+00 0. -1.
     999901    1    3    3    0    0 -0.11002378948E-01  0.85145857363E-01  0.11442600024E+00  0.89155155706E+00  0.88000000000E+00 0. -1.
        -11    1    4    4    0    0 -0.50923309365E-04 -0.64095501105E-01 -0.53263998901E-01  0.83339969733E-01  0.51100000000E-03 0.  1.
         11    1    4    4    0    0  0.48076751052E-02 -0.23264048726E-01 -0.36905147451E-01  0.43892832358E-01  0.51100000000E-03 0. -1.
</event>
<event>
 8    1  0.1122848E+005  0.1043930E+01  0.7957747E-01            NaN
         13   -1    0    0    0    0  0.00000000000E+00  0.00000000000E+00  0.74505805969E-08  0.10566000000E+00  0.10566000000E+00 0.  1.
     999900   -1    0    0    0    0 -0.00000000000E+00 -0.00000000000E+00 -0.74505805969E-08  0.93827000000E+00  0.93827000000E+00 0. -1.
     999902    2    1    2    0    0 -0.97072648997E-02  0.20246650693E-01 -0.40576558875E-02  0.10211128480E+01  0.10208578872E+01 0.  0.
     999903    2    3    3    0    0  0.81847159457E-01 -0.84366584445E-01  0.48607346992E-01  0.12864450448E+00  0.19236846626E-01 0.  0.
         14    1    1    2    0    0  0.97072648997E-02 -0.20246650693E-01  0.40576558875E-02  0.22817152045E-01  0.00000000000E+00 0.  1.
     999901    1    3    3    0    0 -0.91554424357E-01  0.10461323514E+00 -0.52665002880E-01  0.89246834348E+00  0.88000000000E+00 0.  1.
        -11    1    4    4    0    0  0.64339935821E-01 -0.54503548333E-01  0.37496644087E-01  0.92285012657E-01  0.51100000000E-03 0. -1.
         11    1    4    4    0    0  0.17507223636E-01 -0.29863036112E-01  0.11110702905E-01  0.36359491819E-01  0.51100000000E-03 0.  1.
</event>
<event>
 8    1  0.1122848E+005  0.1043930E+01  0.7957747E-01            NaN
         13   -1    0    0    0    0  0.00000000000E+00  0.00000000000E+00  0.74505805969E-08  0.10566000000E+00  0.10566000000E+00 0. -1.
     999900   -1    0    0    0    0 -0.00000000000E+00 -0.00000000000E+00 -0.74505805969E-08  0.93827000000E+00  0.93827000000E+00 0.  1.
     999902    2    1    2    0    0  0.20093410525E-01  0.66980410022E-02  0.98527390161E-02  0.10205700906E+01  0.10203027122E+01 0.  0.
     999903    2    3    3    0    0  0.28491987232E-01 -0.16981570264E-01  0.12672341996E+00  0.13248787813E+00  0.19850582372E-01 0.  0.
         14    1    1    2    0    0 -0.20093410525E-01 -0.66980410022E-02 -0.98527390161E-02  0.23359909373E-01  0.00000000000E+00 0.  1.
     999901    1    3    3    0    0 -0.83985767067E-02  0.23679611266E-01 -0.11687068095E+00  0.88808221249E+00  0.88000000000E+00 0.  1.
        -11    1    4    4    0    0  0.22136824542E-01 -0.13519638605E-01  0.59968670130E-01  0.65340050099E-01  0.51100000000E-03 0. -1.
         11    1    4    4    0    0  0.63551626899E-02 -0.34619316582E-02  0.66754749833E-01  0.67147828035E-01  0.51100000000E-03 0.  1.
</event>
<event>
 8    1  0.1122848E+005  0.1043930E+01  0.7957747E-01            NaN
         13   -1    0    0    0    0  0.00000000000E+00  0.00000000000E+00  0.74505805969E-08  0.10566000000E+00  0.10566000000E+00 0. -1.
     999900   -1    0    0    0    0 -0.00000000000E+00 -0.00000000000E+00 -0.74505805969E-08  0.93827000000E+00  0.93827000000E+00 0. -1.
     999902    2    1    2    0    0  0.59559336184E-02  0.29852124155E-02  0.22674407527E-01  0.10202971120E+01  0.10200233739E+01 0.  0.
     999903    2    3    3    0    0 -0.68701808032E-01  0.10896076119E+00 -0.23498663063E-02  0.13044835541E+00  0.20466207564E-01 0.  0.
         14    1    1    2    0    0 -0.59559336184E-02 -0.29852124155E-02 -0.22674407527E-01  0.23632887999E-01  0.00000000000E+00 0.  1.
     999901    1    3    3    0    0  0.74657741651E-01 -0.10597554877E+00  0.25024273834E-01  0.88984875659E+00  0.88000000000E+00 0.  1.
        -11    1    4    4    0    0 -0.63199633564E-01  0.86756773409E-01  0.87886979354E-03  0.10734041619E+00  0.51100000000E-03 0. -1.
         11    1    4    4    0    0 -0.55021744687E-02  0.22203987779E-01 -0.32287360998E-02  0.23107939219E-01  0.51100000000E-03 0.  1.
</event>
<event>
 8    1  0.1122848E+005  0.1043930E+01  0.7957747E-01            NaN
         13   -1    0    0    0    0  0.00000000000E+00  0.00000000000E+00  0.74505805969E-08  0.10566000000E+00  0.10566000000E+00 0. -1.
     999900   -1    0    0    0    0 -0.00000000000E+00 -0.00000000000E+00 -0.74505805969E-08  0.93827000000E+00  0.93827000000E+00 0.  1.
     999902    2    1    2    0    0  0.14817781995E-01 -0.13247363129E-01  0.12960650741E-01  0.10202015833E+01  0.10199256016E+01 0.  0.
     999903    2    3    3    0    0 -0.12462140232E+00  0.42172959637E-02  0.26282261760E-01  0.12895203024E+00  0.19738017123E-01 0.  0.
         14    1    1    2    0    0 -0.14817781995E-01  0.13247363129E-01 -0.12960650741E-01  0.23728416735E-01  0.00000000000E+00 0.  1.
     999901    1    3    3    0    0  0.13943918431E+00 -0.17464659093E-01 -0.13321611020E-01  0.89124955302E+00  0.88000000000E+00 0.  1.
        -11    1    4    4    0    0 -0.64857987162E-01  0.11933087435E-01  0.12214821212E-01  0.67070262059E-01  0.51100000000E-03 0.  1.
         11    1    4    4    0    0 -0.59763415156E-01 -0.77157914714E-02  0.14067440549E-01  0.61881768186E-01  0.51100000000E-03 0. -1.
</event>
<event>
 8    1  0.1122848E+005  0.1043930E+01  0.7957747E-01            NaN
         13   -1    0    0    0    0  0.00000000000E+00  0.00000000000E+00  0.74505805969E-08  0.10566000000E+00  0.10566000000E+00 0. -1.
     999900   -1    0    0    0    0 -0.00000000000E+00 -0.00000000000E+00 -0.74505805969E-08  0.93827000000E+00  0.93827000000E+00 0.  1.
     999902    2    1    2    0    0 -0.44837849890E-03  0.66293009542E-02 -0.22142250592E-01  0.10208123025E+01  0.10205505030E+01 0.  0.
     999903    2    3    3    0    0  0.55260138553E-01  0.11734713129E+00 -0.21144666414E-01  0.13212626574E+00  0.13646283254E-01 0.  0.
         14    1    1    2    0    0  0.44837849890E-03 -0.66293009542E-02  0.22142250592E-01  0.23117697457E-01  0.00000000000E+00 0. -1.
     999901    1    3    3    0    0 -0.55708517051E-01 -0.11071783034E+00 -0.99758417767E-03  0.88868603680E+00  0.88000000000E+00 0. -1.
        -11    1    4    4    0    0  0.33224012696E-01  0.71669085545E-01 -0.61416261857E-02  0.79235557269E-01  0.51100000000E-03 0. -1.
         11    1    4    4    0    0  0.22036125857E-01  0.45678045746E-01 -0.15003040228E-01  0.52890708476E-01  0.51100000000E-03 0.  1.
</event>
<event>
 8    1  0.1122848E+005  0.1043930E+01  0.7957747E-01            NaN
         13   -1    0    0    0    0  0.00000000000E+00  0.00000000000E+00  0.74505805969E-08  0.10566000000E+00  0.10566000000E+00 0.  1.
     999900   -1    0    0    0    0 -0.00000000000E+00 -0.00000000000E+00 -0.74505805969E-08  0.93827000000E+00  0.93827000000E+00 0. -1.
     999902    2    1    2    0    0  0.18840422582E-01  0.13185541230E-01  0.11116118460E-02  0.10209070614E+01  0.10206474280E+01 0.  0.
     999903    2    3    3    0    0 -0.10942080870E+00 -0.38672003518E-01  0.53196069944E-01  0.12857699962E+00  0.15290053621E-01 0.  0.
         14    1    1    2    0    0 -0.18840422582E-01 -0.13185541230E-01 -0.11116118460E-02  0.23022938593E-01  0.00000000000E+00 0. -1.
     999901    1    3    3    0    0  0.12826123128E+00  0.51857544748E-01 -0.52084458098E-01  0.89233006179E+00  0.88000000000E+00 0.  1.
        -11    1    4    4    0    0 -0.64713568088E-01 -0.15265560796E-01  0.32846725965E-01  0.74162333895E-01  0.51100000000E-03 0. -1.
         11    1    4    4    0    0 -0.44707240615E-01 -0.23406442722E-01  0.20349343979E-01  0.54414665722E-01  0.51100000000E-03 0.  1.
</event>
<event>
 8    1  0.1122848E+005  0.1043930E+01  0.7957747E-01            NaN
         13   -1    0    0    0    0  0.00000000000E+00  0.00000000000E+00  0.74505805969E-08  0.10566000000E+00  0.10566000000E+00 0.  1.
     999900   -1    0    0    0    0 -0.00000000000E+00 -0.00000000000E+00 -0.74505805969E-08  0.93827000000E+00  0.93827000000E+00 0. -1.
     999902    2    1    2    0    0 -0.62349106941E-02 -0.13741083083E-01 -0.11695259276E-01  0.10248388878E+01  0.10246610539E+01 0.  0.
     999903    2    3    3    0    0 -0.11476988338E+00  0.34949727823E-01 -0.59449654744E-01  0.13555202876E+00  0.21130107553E-01 0.  0.
         14    1    1    2    0    0  0.62349106941E-02  0.13741083083E-01  0.11695259276E-01  0.19091112204E-01  0.00000000000E+00 0.  1.
     999901    1    3    3    0    0  0.10853497269E+00 -0.48690810907E-01  0.47754395468E-01  0.88928685903E+00  0.88000000000E+00 0.  1.
        -11    1    4    4    0    0 -0.32216158997E-01  0.60118318185E-03 -0.19026212953E-01  0.37423257769E-01  0.51100000000E-03 0.  1.
         11    1    4    4    0    0 -0.82553724388E-01  0.34348544641E-01 -0.40423441791E-01  0.98128770992E-01  0.51100000000E-03 0. -1.
</event>
<event>
 8    1  0.1122848E+005  0.1043930E+01  0.7957747E-01            NaN
         13   -1    0    0    0    0  0.00000000000E+00  0.00000000000E+00  0.74505805969E-08  0.10566000000E+00  0.10566000000E+00 0.  1.
     999900   -1    0    0    0    0 -0.00000000000E+00 -0.00000000000E+00 -0.74505805969E-08  0.93827000000E+00  0.93827000000E+00 0. -1.
     999902    2    1    2    0    0  0.18492570797E-01 -0.78964448854E-02 -0.11728257287E-01  0.10206516617E+01  0.10203861688E+01 0.  0.
     999903    2    3    3    0    0 -0.10374626530E+00  0.67243426805E-01 -0.28079478918E-01  0.12888056109E+00  0.23168424175E-01 0.  0.
         14    1    1    2    0    0 -0.18492570797E-01  0.78964448854E-02  0.11728257287E-01  0.23278338332E-01  0.00000000000E+00 0.  1.
     999901    1    3    3    0    0  0.12223883610E+00 -0.75139871690E-01  0.16351221630E-01  0.89177110057E+00  0.88000000000E+00 0. -1.
        -11    1    4    4    0    0 -0.97908042354E-02  0.63369857167E-02 -0.10177867007E-01  0.15487650996E-01  0.51100000000E-03 0.  1.
         11    1    4    4    0    0 -0.93955461069E-01  0.60906441088E-01 -0.17901611910E-01  0.11339291010E+00  0.51100000000E-03 0. -1.
</event>
<event>
 8    1  0.1122848E+005  0.1043930E+01  0.7957747E-01            NaN
         13   -1    0    0    0    0  0.00000000000E+00  0.00000000000E+00  0.74505805969E-08  0.10566000000E+00  0.10566000000E+00 0.  1.
     999900   -1    0    0    0    0 -0.00000000000E+00 -0.00000000000E+00 -0.74505805969E-08  0.93827000000E+00  0.93827000000E+00 0. -1.
     999902    2    1    2    0    0  0.54625648120E-02  0.21088827419E-01  0.94399084430E-02  0.10201878407E+01  0.10199115355E+01 0.  0.
     999903    2    3    3    0    0 -0.14866132959E-01 -0.12105284496E+00 -0.32012910783E-01  0.12758723170E+00  0.19464892900E-01 0.  0.
         14    1    1    2    0    0 -0.54625648120E-02 -0.21088827419E-01 -0.94399084430E-02  0.23742159288E-01  0.00000000000E+00 0. -1.
     999901    1    3    3    0    0  0.20328697771E-01  0.14214167238E+00  0.41452819226E-01  0.89260060901E+00  0.88000000000E+00 0.  1.
        -11    1    4    4    0    0 -0.75961057080E-02 -0.51248944530E-01 -0.38166530528E-02  0.51951738170E-01  0.51100000000E-03 0. -1.
         11    1    4    4    0    0 -0.72700272508E-02 -0.69803900428E-01 -0.28196257730E-01  0.75635493535E-01  0.51100000000E-03 0.  1.
</event>
<event>
 8    1  0.1122848E+005  0.1043930E+01  0.7957747E-01            NaN
         13   -1    0    0    0    0  0.00000000000E+00  0.00000000000E+00  0.74505805969E-08  0.10566000000E+00  0.10566000000E+00 0.  1.
     999900   -1    0    0    0    0 -0.00000000000E+00 -0.00000000000E+00 -0.74505805969E-08  0.93827000000E+00  0.93827000000E+00 0.  1.
     999902    2    1    2    0    0  0.18972419361E-01 -0.62143992458E-03 -0.13925553021E-01  0.10203872748E+01  0.10201156457E+01 0.  0.
     999903    2    3    3    0    0 -0.33178865947E-01  0.93701726323E-01  0.79676675060E-01  0.12888405361E+00  0.19541649493E-01 0.  0.
         14    1    1    2    0    0 -0.18972419361E-01  0.62143992458E-03  0.13925553021E-01  0.23542725223E-01  0.00000000000E+00 0. -1.
     999901    1    3    3    0    0  0.52151285307E-01 -0.94323166247E-01 -0.93602228081E-01  0.89150322117E+00  0.88000000000E+00 0. -1.
        -11    1    4    4    0    0 -0.17219699825E-01  0.72441727353E-01  0.62642366441E-01  0.97306983914E-01  0.51100000000E-03 0.  1.
         11    1    4    4    0    0 -0.15959166122E-01  0.21259998969E-01  0.17034308619E-01  0.31577069696E-01  0.51100000000E-03 0. -1.
</event>
<event>
 8    1  0.1122848E+005  0.1043930E+01  0.7957747E-01            NaN
         13   -1    0    0    0    0  0.00000000000E+00  0.00000000000E+00  0.74505805969E-08  0.10566000000E+00  0.10566000000E+00 0. -1.
     999900   -1    0    0    0    0 -0.00000000000E+00 -0.00000000000E+00 -0.74505805969E-08  0.93827000000E+00  0.93827000000E+00 0.  1.
     999902    2    1    2    0    0 -0.15145313820E-01 -0.50705569217E-02  0.16873439254E-01  0.10206963169E+01  0.10204318533E+01 0.  0.
     999903    2    3    3    0    0 -0.29181364409E-01 -0.11464919898E+00  0.59582928485E-01  0.13276130239E+00  0.89133153173E-02 0.  0.
         14    1    1    2    0    0  0.15145313820E-01  0.50705569217E-02 -0.16873439254E-01  0.23233683101E-01  0.00000000000E+00 0.  1.
     999901    1    3    3    0    0  0.14036050589E-01  0.10957864206E+00 -0.42709489232E-01  0.88793501450E+00  0.88000000000E+00 0.  1.
        -11    1    4    4    0    0 -0.68242362560E-02 -0.23290283997E-01  0.16186357440E-01  0.29176477123E-01  0.51100000000E-03 0.  1.
         11    1    4    4    0    0 -0.22357128153E-01 -0.91358914988E-01  0.43396571045E-01  0.10358482527E+00  0.51100000000E-03 0. -1.
</event>
<event>
 8    1  0.1122848E+005  0.1043930E+01  0.7957747E-01            NaN
         13   -1    0    0    0    0  0.00000000000E+00  0.00000000000E+00  0.74505805969E-08  0.10566000000E+00  0.10566000000E+00 0.  1.
     999900   -1    0    0    0    0 -0.00000000000E+00 -0.00000000000E+00 -0.74505805969E-08  0.93827000000E+00  0.93827000000E+00 0. -1.
     999902    2    1    2    0    0 -0.21767330531E-01 -0.11229550848E-01  0.60435020737E-04  0.10194366715E+01  0.10191423865E+01 0.  0.
     999903    2    3    3    0    0  0.40969888727E-01 -0.11776731471E+00  0.32412940754E-01  0.13020501523E+00  0.18843435668E-01 0.  0.
         14    1    1    2    0    0  0.21767330531E-01  0.11229550848E-01 -0.60435020737E-04  0.24493328543E-01  0.00000000000E+00 0. -1.
     999901    1    3    3    0    0 -0.62737219259E-01  0.10653776386E+00 -0.32352505733E-01  0.88923165623E+00  0.88000000000E+00 0. -1.
        -11    1    4    4    0    0  0.64291764052E-02 -0.41227642121E-01  0.58947864603E-02  0.42143355497E-01  0.51100000000E-03 0. -1.
         11    1    4    4    0    0  0.34540712322E-01 -0.76539672584E-01  0.26518154293E-01  0.88061659734E-01  0.51100000000E-03 0.  1.
</event>
<event>
 8    1  0.1122848E+005  0.1043930E+01  0.7957747E-01            NaN
         13   -1    0    0    0    0  0.00000000000E+00  0.00000000000E+00  0.74505805969E-08  0.10566000000E+00  0.10566000000E+00 0.  1.
     999900   -1    0    0    0    0 -0.00000000000E+00 -0.00000000000E+00 -0.74505805969E-08  0.93827000000E+00  0.93827000000E+00 0. -1.
     999902    2    1    2    0    0  0.61128020445E-02 -0.18195612153E-01  0.15207506403E-01  0.10194409228E+01  0.10191467413E+01 0.  0.
     999903    2    3    3    0    0  0.15109300632E-01  0.12134404295E+00  0.32589970651E-01  0.12823140626E+00  0.20700715912E-01 0.  0.
         14    1    1    2    0    0 -0.61128020445E-02  0.18195612153E-01 -0.15207506403E-01  0.24489077186E-01  0.00000000000E+00 0. -1.
     999901    1    3    3    0    0 -0.89964985877E-02 -0.13953965510E+00 -0.17382464248E-01  0.89120951655E+00  0.88000000000E+00 0. -1.
        -11    1    4    4    0    0  0.16575376903E-01  0.10039927687E+00  0.33713974254E-01  0.10719911892E+00  0.51100000000E-03 0. -1.
         11    1    4    4    0    0 -0.14660762709E-02  0.20944766081E-01 -0.11240036034E-02  0.21032287344E-01  0.51100000000E-03 0.  1.
</event>
<event>
 8    1  0.1122848E+005  0.1043930E+01  0.7957747E-01            NaN
         13   -1    0    0    0    0  0.00000000000E+00  0.00000000000E+00  0.74505805969E-08  0.10566000000E+00  0.10566000000E+00 0. -1.
     999900   -1    0    0    0    0 -0.00000000000E+00 -0.00000000000E+00 -0.74505805969E-08  0.93827000000E+00  0.93827000000E+00 0. -1.
     999902    2    1    2    0    0 -0.51645349450E-03  0.46440383385E-02  0.37454973925E-01  0.10061846839E+01  0.10054764588E+01 0.  0.
     999903    2    3    3    0    0  0.86136995757E-01 -0.65733438601E-01  0.46561322119E-01  0.11908562792E+00  0.16521594096E-01 0.  0.
         14    1    1    2    0    0  0.51645349450E-03 -0.46440383385E-02 -0.37454973925E-01  0.37745316107E-01  0.00000000000E+00 0.  1.
     999901    1    3    3    0    0 -0.86653449252E-01  0.70377476940E-01 -0.91063481941E-02  0.88709905597E+00  0.88000000000E+00 0.  1.
        -11    1    4    4    0    0  0.78207987310E-01 -0.59721769904E-01  0.47124678304E-01  0.10910625787E+00  0.51100000000E-03 0. -1.
         11    1    4    4    0    0  0.79290084475E-02 -0.60116686976E-02 -0.56335618473E-03  0.99793700544E-02  0.51100000000E-03 0.  1.
</event>
<event>
 8    1  0.1122848E+005  0.1043930E+01  0.7957747E-01            NaN
         13   -1    0    0    0    0  0.00000000000E+00  0.00000000000E+00  0.74505805969E-08  0.10566000000E+00  0.10566000000E+00 0. -1.
     999900   -1    0    0    0    0 -0.00000000000E+00 -0.00000000000E+00 -0.74505805969E-08  0.93827000000E+00  0.93827000000E+00 0.  1.
     999902    2    1    2    0    0 -0.15167995540E-01  0.17263721213E-01 -0.68415810707E-02  0.10199526901E+01  0.10196708188E+01 0.  0.
     999903    2    3    3    0    0  0.10258239186E+00  0.53935454400E-01 -0.55383466256E-01  0.13002781441E+00  0.20192172318E-01 0.  0.
         14    1    1    2    0    0  0.15167995540E-01 -0.17263721213E-01  0.68415810707E-02  0.23977309907E-01  0.00000000000E+00 0. -1.
     999901    1    3    3    0    0 -0.11775038740E+00 -0.36671733186E-01  0.48541885186E-01  0.88992487569E+00  0.88000000000E+00 0. -1.
        -11    1    4    4    0    0  0.89566884170E-01  0.53764090826E-01 -0.47116938074E-01  0.11459961246E+00  0.51100000000E-03 0. -1.
         11    1    4    4    0    0  0.13015507694E-01  0.17136357369E-03 -0.82665281827E-02  0.15428201943E-01  0.51100000000E-03 0.  1.
</event>
<event>
 8    1  0.1122848E+005  0.1043930E+01  0.7957747E-01            NaN
         13   -1    0    0    0    0  0.00000000000E+00  0.00000000000E+00  0.74505805969E-08  0.10566000000E+00  0.10566000000E+00 0. -1.
     999900   -1    0    0    0    0 -0.00000000000E+00 -0.00000000000E+00 -0.74505805969E-08  0.93827000000E+00  0.93827000000E+00 0.  1.
     999902    2    1    2    0    0 -0.42160323833E-02  0.13231011266E-01  0.19716765633E-01  0.10198139175E+01  0.10195287347E+01 0.  0.
     999903    2    3    3    0    0  0.12750840476E+00 -0.42861338823E-02  0.13898306047E-01  0.12981839381E+00  0.19567530018E-01 0.  0.
         14    1    1    2    0    0  0.42160323833E-02 -0.13231011266E-01 -0.19716765633E-01  0.24116082501E-01  0.00000000000E+00 0.  1.
     999901    1    3    3    0    0 -0.13172443715E+00  0.17517145148E-01  0.58184595860E-02  0.88999552369E+00  0.88000000000E+00 0. -1.
        -11    1    4    4    0    0  0.10992390006E+00 -0.85164962726E-02  0.16690924014E-01  0.11151072854E+00  0.51100000000E-03 0. -1.
         11    1    4    4    0    0  0.17584504704E-01  0.42303623902E-02 -0.27926179670E-02  0.18307665273E-01  0.51100000000E-03 0.  1.
</event>
<event>
 8    1  0.1122848E+005  0.1043930E+01  0.7957747E-01            NaN
         13   -1    0    0    0    0  0.00000000000E+00  0.00000000000E+00  0.74505805969E-08  0.10566000000E+00  0.10566000000E+00 0. -1.
     999900   -1    0    0    0    0 -0.00000000000E+00 -0.00000000000E+00 -0.74505805969E-08  0.93827000000E+00  0.93827000000E+00 0. -1.
     999902    2    1    2    0    0  0.54571264138E-02 -0.21060591706E-01  0.73688671314E-02  0.10209598247E+01  0.10207013935E+01 0.  0.
     999903    2    3    3    0    0 -0.10731402978E+00  0.64307215744E-01  0.27647528578E-01  0.12943516415E+00  0.18367277912E-01 0.  0.
         14    1    1    2    0    0 -0.54571264138E-02  0.21060591706E-01 -0.73688671314E-02  0.22970175326E-01  0.00000000000E+00 0.  1.
     999901    1    3    3    0    0  0.11277115619E+00 -0.85367807450E-01 -0.20278661446E-01  0.89152466053E+00  0.88000000000E+00 0.  1.
        -11    1    4    4    0    0 -0.83425499708E-01  0.57973090573E-01  0.24605768660E-01  0.10452941311E+00  0.51100000000E-03 0. -1.
         11    1    4    4    0    0 -0.23888530068E-01  0.63341251710E-02  0.30417599179E-02  0.24905751041E-01  0.51100000000E-03 0.  1.
</event>
<event>
 8    1  0.1122848E+005  0.1043930E+01  0.7957747E-01            NaN
         13   -1    0    0    0    0  0.00000000000E+00  0.00000000000E+00  0.74505805969E-08  0.10566000000E+00  0.10566000000E+00 0.  1.
     999900   -1    0    0    0    0 -0.00000000000E+00 -0.00000000000E+00 -0.74505805969E-08  0.93827000000E+00  0.93827000000E+00 0.  1.
     999902    2    1    2    0    0  0.27171104053E-02 -0.21193385999E-01 -0.79592336751E-02  0.10211288663E+01  0.10208742674E+01 0.  0.
     999903    2    3    3    0    0  0.19534626710E-01  0.91076914597E-01 -0.88742202507E-01  0.13016683716E+00  0.19789415782E-01 0.  0.
         14    1    1    2    0    0 -0.27171104053E-02  0.21193385999E-01  0.79592336751E-02  0.22801133738E-01  0.00000000000E+00 0. -1.
     999901    1    3    3    0    0 -0.16817516305E-01 -0.11227030060E+00  0.80782968832E-01  0.89096202910E+00  0.88000000000E+00 0. -1.
        -11    1    4    4    0    0  0.57070660978E-02  0.24473425660E-01 -0.36859427617E-01  0.44613873316E-01  0.51100000000E-03 0.  1.
         11    1    4    4    0    0  0.13827560613E-01  0.66603488937E-01 -0.51882774890E-01  0.85552963843E-01  0.51100000000E-03 0. -1.
</event>
<event>
 8    1  0.1122848E+005  0.1043930E+01  0.7957747E-01            NaN
         13   -1    0    0    0    0  0.00000000000E+00  0.00000000000E+00  0.74505805969E-08  0.10566000000E+00  0.10566000000E+00 0.  1.
     999900   -1    0    0    0    0 -0.00000000000E+00 -0.00000000000E+00 -0.74505805969E-08  0.93827000000E+00  0.93827000000E+00 0. -1.
     999902    2    1    2    0    0  0.79505273564E-03  0.20031727866E-01 -0.13257177359E-01  0.10198955459E+01  0.10196123134E+01 0.  0.
     999903    2    3    3    0    0 -0.76151248415E-01 -0.73426924318E-01 -0.72345900166E-01  0.12964460936E+00  0.19577272930E-01 0.  0.
         14    1    1    2    0    0 -0.79505273564E-03 -0.20031727866E-01  0.13257177359E-01  0.24034454054E-01  0.00000000000E+00 0. -1.
     999901    1    3    3    0    0  0.76946301151E-01  0.93458652184E-01  0.59088722807E-01  0.89025093659E+00  0.88000000000E+00 0. -1.
        -11    1    4    4    0    0 -0.35047259820E-01 -0.20991960985E-01 -0.30198652254E-01  0.50805438349E-01  0.51100000000E-03 0. -1.
         11    1    4    4    0    0 -0.41103988595E-01 -0.52434963333E-01 -0.42147247913E-01  0.78839171012E-01  0.51100000000E-03 0.  1.
</event>
<event>
 7    1  0.1125517E+005  0.1043930E+01  0.7957747E-01            NaN
         13   -1    0    0    0    0  0.00000000000E+00  0.00000000000E+00  0.74505805969E-08  0.10566000000E+00  0.10566000000E+00 0. -1.
     999900   -1    0    0    0    0 -0.00000000000E+00 -0.00000000000E+00 -0.74505805969E-08  0.93827000000E+00  0.93827000000E+00 0.  1.
     999903    2    1    2    0    0  0.84184794998E-01  0.52853210162E-01  0.48064021990E-01  0.11221351415E+00  0.20029503599E-01 0.  0.
         14    1    1    2    0    0 -0.11690463508E-01 -0.18330829349E-01 -0.42844848387E-01  0.48045470910E-01  0.00000000000E+00 0.  1.
     999901    1    1    2    0    0 -0.72494331490E-01 -0.34522380813E-01 -0.52191736030E-02  0.88367101494E+00  0.88000000000E+00 0.  1.
        -11    1    3    3    0    0  0.54070485189E-01  0.44795231761E-01  0.32858065063E-01  0.77525116690E-01  0.51100000000E-03 0.  1.
         11    1    3    3    0    0  0.30114309809E-01  0.80579784011E-02  0.15205956927E-01  0.34688397458E-01  0.51100000000E-03 0. -1.
</event>
<event>
 8    1  0.1122848E+005  0.1043930E+01  0.7957747E-01            NaN
         13   -1    0    0    0    0  0.00000000000E+00  0.00000000000E+00  0.74505805969E-08  0.10566000000E+00  0.10566000000E+00 0.  1.
     999900   -1    0    0    0    0 -0.00000000000E+00 -0.00000000000E+00 -0.74505805969E-08  0.93827000000E+00  0.93827000000E+00 0.  1.
     999902    2    1    2    0    0  0.19424456714E-01 -0.93515921996E-02 -0.10926619582E-01  0.10197607466E+01  0.10194742897E+01 0.  0.
     999903    2    3    3    0    0  0.63960812977E-01 -0.89965641649E-01 -0.72668528500E-01  0.13280292610E+00  0.13080514983E-01 0.  0.
         14    1    1    2    0    0 -0.19424456714E-01  0.93515921996E-02  0.10926619582E-01  0.24169253418E-01  0.00000000000E+00 0. -1.
     999901    1    3    3    0    0 -0.44536356263E-01  0.80614049449E-01  0.61741908917E-01  0.88695782048E+00  0.88000000000E+00 0. -1.
        -11    1    4    4    0    0  0.95847259879E-02 -0.16016014328E-01 -0.70017946764E-02  0.19941563050E-01  0.51100000000E-03 0.  1.
         11    1    4    4    0    0  0.54376086989E-01 -0.73949627321E-01 -0.65666733823E-01  0.11286136305E+00  0.51100000000E-03 0. -1.
</event>
<event>
 8    1  0.1122848E+005  0.1043930E+01  0.7957747E-01            NaN
         13   -1    0    0    0    0  0.00000000000E+00  0.00000000000E+00  0.74505805969E-08  0.10566000000E+00  0.10566000000E+00 0. -1.
     999900   -1    0    0    0    0 -0.00000000000E+00 -0.00000000000E+00 -0.74505805969E-08  0.93827000000E+00  0.93827000000E+00 0.  1.
     999902    2    1    2    0    0 -0.13891282074E-01  0.87531861405E-02 -0.17254510918E-01  0.10201118529E+01  0.10198337552E+01 0.  0.
     999903    2    3    3    0    0  0.88874893272E-01 -0.42897507372E-01  0.78088470260E-01  0.12752070067E+00  0.20610121784E-01 0.  0.
         14    1    1    2    0    0  0.13891282074E-01 -0.87531861405E-02  0.17254510918E-01  0.23818147121E-01  0.00000000000E+00 0. -1.
     999901    1    3    3    0    0 -0.10276617535E+00  0.51650693513E-01 -0.95342981178E-01  0.89259115221E+00  0.88000000000E+00 0.  1.
        -11    1    4    4    0    0  0.19720862638E-01 -0.96710890298E-02  0.73612339893E-02  0.23170914377E-01  0.51100000000E-03 0. -1.
         11    1    4    4    0    0  0.69154030634E-01 -0.33226418342E-01  0.70727236270E-01  0.10434978630E+00  0.51100000000E-03 0.  1.
</event>
<event>
 8    1  0.1122848E+005  0.1043930E+01  0.7957747E-01            NaN
         13   -1    0    0    0    0  0.00000000000E+00  0.00000000000E+00  0.74505805969E-08  0.10566000000E+00  0.10566000000E+00 0. -1.
     999900   -1    0    0    0    0 -0.00000000000E+00 -0.00000000000E+00 -0.74505805969E-08  0.93827000000E+00  0.93827000000E+00 0.  1.
     999902    2    1    2    0    0  0.20741250249E-01  0.54230894770E-02  0.10046446054E-01  0.10202542647E+01  0.10199795215E+01 0.  0.
     999903    2    3    3    0    0  0.52784316900E-01 -0.41646446366E-01 -0.10982580368E+00  0.13030389783E+00  0.19919538898E-01 0.  0.
         14    1    1    2    0    0 -0.20741250249E-01 -0.54230894770E-02 -0.10046446054E-01  0.23675735251E-01  0.00000000000E+00 0.  1.
     999901    1    3    3    0    0 -0.32043066651E-01  0.47069535843E-01  0.11987224973E+00  0.88995036692E+00  0.88000000000E+00 0. -1.
        -11    1    4    4    0    0  0.30894218415E-01 -0.16776932327E-01 -0.71236819210E-01  0.79440944870E-01  0.51100000000E-03 0. -1.
         11    1    4    4    0    0  0.21890098485E-01 -0.24869514038E-01 -0.38588984470E-01  0.50862952958E-01  0.51100000000E-03 0.  1.
</event>
<event>
 8    1  0.1122848E+005  0.1043930E+01  0.7957747E-01            NaN
         13   -1    0    0    0    0  0.00000000000E+00  0.00000000000E+00  0.74505805969E-08  0.10566000000E+00  0.10566000000E+00 0. -1.
     999900   -1    0    0    0    0 -0.00000000000E+00 -0.00000000000E+00 -0.74505805969E-08  0.93827000000E+00  0.93827000000E+00 0.  1.
     999902    2    1    2    0    0 -0.10221602700E-01  0.50835330545E-02  0.20503977477E-01  0.10204622229E+01  0.10201923406E+01 0.  0.
     999903    2    3    3    0    0  0.90064689285E-01 -0.87427688020E-01 -0.20417089072E-01  0.12900824199E+00  0.21702997157E-01 0.  0.
         14    1    1    2    0    0  0.10221602700E-01 -0.50835330545E-02 -0.20503977477E-01  0.23467777109E-01  0.00000000000E+00 0.  1.
     999901    1    3    3    0    0 -0.10028629199E+00  0.92511221074E-01  0.40921066548E-01  0.89145398091E+00  0.88000000000E+00 0. -1.
        -11    1    4    4    0    0  0.33749393610E-01 -0.42565238304E-01 -0.17013161510E-01  0.56925652095E-01  0.51100000000E-03 0. -1.
         11    1    4    4    0    0  0.56315295675E-01 -0.44862449716E-01 -0.34039275620E-02  0.72082589890E-01  0.51100000000E-03 0.  1.
</event>
<event>
 8    1  0.1122848E+005  0.1043930E+01  0.7957747E-01            NaN
         13   -1    0    0    0    0  0.00000000000E+00  0.00000000000E+00  0.74505805969E-08  0.10566000000E+00  0.10566000000E+00 0. -1.
     999900   -1    0    0    0    0 -0.00000000000E+00 -0.00000000000E+00 -0.74505805969E-08  0.93827000000E+00  0.93827000000E+00 0.  1.
     999902    2    1    2    0    0 -0.15309847636E-01  0.12311320572E-01  0.13709786665E-01  0.10199734080E+01  0.10196920294E+01 0.  0.
     999903    2    3    3    0    0  0.58988799614E-01  0.48360006189E-01  0.10513943585E+00  0.13139072899E+00  0.19770028246E-01 0.  0.
         14    1    1    2    0    0  0.15309847636E-01 -0.12311320572E-01 -0.13709786665E-01  0.23956591980E-01  0.00000000000E+00 0.  1.
     999901    1    3    3    0    0 -0.74298647249E-01 -0.36048685617E-01 -0.91429649181E-01  0.88858267903E+00  0.88000000000E+00 0.  1.
        -11    1    4    4    0    0  0.13110877205E-01  0.19778795069E-01  0.42271882267E-01  0.48479572882E-01  0.51100000000E-03 0. -1.
         11    1    4    4    0    0  0.45877922408E-01  0.28581211120E-01  0.62867553580E-01  0.82911156111E-01  0.51100000000E-03 0.  1.
</event>
<event>
 8    1  0.1122848E+005  0.1043930E+01  0.7957747E-01            NaN
         13   -1    0    0    0    0  0.00000000000E+00  0.00000000000E+00  0.74505805969E-08  0.10566000000E+00  0.10566000000E+00 0. -1.
     999900   -1    0    0    0    0 -0.00000000000E+00 -0.00000000000E+00 -0.74505805969E-08  0.93827000000E+00  0.93827000000E+00 0.  1.
     999902    2    1    2    0    0  0.20474974856E-01 -0.44379262862E-02  0.13881959563E-01  0.10187977779E+01  0.10184877435E+01 0.  0.
     999903    2    3    3    0    0 -0.89543580242E-01  0.31175035748E-02 -0.86638265978E-01  0.12623658522E+00  0.20042822272E-01 0.  0.
         14    1    1    2    0    0 -0.20474974856E-01  0.44379262862E-02 -0.13881959563E-01  0.25132222074E-01  0.00000000000E+00 0.  1.
     999901    1    3    3    0    0  0.11001855510E+00 -0.75554298610E-02  0.10052022554E+00  0.89256119271E+00  0.88000000000E+00 0. -1.
        -11    1    4    4    0    0 -0.53528267621E-01 -0.63334661043E-02 -0.58609712065E-01  0.79628811977E-01  0.51100000000E-03 0.  1.
         11    1    4    4    0    0 -0.36015312621E-01  0.94509696791E-02 -0.28028553913E-01  0.46607773241E-01  0.51100000000E-03 0. -1.
</event>
<event>
 8    1  0.1122848E+005  0.1043930E+01  0.7957747E-01            NaN
         13   -1    0    0    0    0  0.00000000000E+00  0.00000000000E+00  0.74505805969E-08  0.10566000000E+00  0.10566000000E+00 0.  1.
     999900   -1    0    0    0    0 -0.00000000000E+00 -0.00000000000E+00 -0.74505805969E-08  0.93827000000E+00  0.93827000000E+00 0. -1.
     999902    2    1    2    0    0 -0.18521777882E-01 -0.13073421758E-01  0.68669888265E-02  0.10202418986E+01  0.10199668649E+01 0.  0.
     999903    2    3    3    0    0 -0.42119614399E-02 -0.12361940136E+00  0.42909712520E-01  0.13247826881E+00  0.20242313715E-01 0.  0.
         14    1    1    2    0    0  0.18521777882E-01  0.13073421758E-01 -0.68669888265E-02  0.23688101400E-01  0.00000000000E+00 0. -1.
     999901    1    3    3    0    0 -0.14309816442E-01  0.11054597961E+00 -0.36042723694E-01  0.88776362979E+00  0.88000000000E+00 0. -1.
        -11    1    4    4    0    0 -0.34143581248E-02 -0.45723688166E-02  0.48064309049E-02  0.74784555253E-02  0.51100000000E-03 0. -1.
         11    1    4    4    0    0 -0.79760331513E-03 -0.11904703255E+00  0.38103281615E-01  0.12499981328E+00  0.51100000000E-03 0.  1.
</event>
<event>
 8    1  0.1122848E+005  0.1043930E+01  0.7957747E-01            NaN
         13   -1    0    0    0    0  0.00000000000E+00  0.00000000000E+00  0.74505805969E-08  0.10566000000E+00  0.10566000000E+00 0.  1.
     999900   -1    0    0    0    0 -0.00000000000E+00 -0.00000000000E+00 -0.74505805969E-08  0.93827000000E+00  0.93827000000E+00 0. -1.
     999902    2    1    2    0    0  0.20631668120E-01 -0.14755045374E-02 -0.10939425015E-01  0.10205309859E+01  0.10202627011E+01 0.  0.
     999903    2    3    3    0    0  0.59637574468E-01  0.86291490797E-01 -0.78784126573E-01  0.13270926404E+00  0.20048653093E-01 0.  0.
         14    1    1    2    0    0 -0.20631668120E-01  0.14755045374E-02  0.10939425015E-01  0.23399014139E-01  0.00000000000E+00 0.  1.
     999901    1    3    3    0    0 -0.39005906348E-01 -0.87766995334E-01  0.67844701558E-01  0.88782172182E+00  0.88000000000E+00 0. -1.
        -11    1    4    4    0    0  0.20641170630E-01  0.36517633035E-01 -0.42907016142E-01  0.60007237919E-01  0.51100000000E-03 0.  1.
         11    1    4    4    0    0  0.38996403838E-01  0.49773857762E-01 -0.35877110431E-01  0.72702026125E-01  0.51100000000E-03 0. -1.
</event>
<event>
 8    1  0.1122848E+005  0.1043930E+01  0.7957747E-01            NaN
         13   -1    0    0    0    0  0.00000000000E+00  0.00000000000E+00  0.74505805969E-08  0.10566000000E+00  0.10566000000E+00 0. -1.
     999900   -1    0    0    0    0 -0.00000000000E+00 -0.00000000000E+00 -0.74505805969E-08  0.93827000000E+00  0.93827000000E+00 0. -1.
     999902    2    1    2    0    0  0.14929117149E-01  0.14105515768E-01 -0.12480797022E-01  0.10198963900E+01  0.10196131776E+01 0.  0.
     999903    2    3    3    0    0  0.98654082033E-01 -0.15370117456E-01 -0.84769526918E-01  0.13248197547E+00  0.19918150461E-01 0.  0.
         14    1    1    2    0    0 -0.14929117149E-01 -0.14105515768E-01  0.12480797022E-01  0.24033609971E-01  0.00000000000E+00 0. -1.
     999901    1    3    3    0    0 -0.83724964883E-01  0.29475633224E-01  0.72288729896E-01  0.88741441456E+00  0.88000000000E+00 0.  1.
        -11    1    4    4    0    0  0.42188324211E-01  0.15071888230E-02 -0.42880949755E-01  0.60176102323E-01  0.51100000000E-03 0. -1.
         11    1    4    4    0    0  0.56465757822E-01 -0.16877306279E-01 -0.41888577163E-01  0.72305873145E-01  0.51100000000E-03 0.  1.
</event>
<event>
 8    1  0.1122848E+005  0.1043930E+01  0.7957747E-01            NaN
         13   -1    0    0    0    0  0.00000000000E+00  0.00000000000E+00  0.74505805969E-08  0.10566000000E+00  0.10566000000E+00 0. -1.
     999900   -1    0    0    0    0 -0.00000000000E+00 -0.00000000000E+00 -0.74505805969E-08  0.93827000000E+00  0.93827000000E+00 0. -1.
     999902    2    1    2    0    0 -0.18101861077E-01 -0.11236896534E-01  0.12191414667E-01  0.10193825804E+01  0.10190869783E+01 0.  0.
     999903    2    3    3    0    0  0.33912421560E-01  0.10742159280E+00 -0.55699206702E-01  0.12730945605E+00  0.20392278843E-01 0.  0.
         14    1    1    2    0    0  0.18101861077E-01  0.11236896534E-01 -0.12191414667E-01  0.24547419615E-01  0.00000000000E+00 0.  1.
     999901    1    3    3    0    0 -0.52014282637E-01 -0.11865848934E+00  0.67890621368E-01  0.89207312433E+00  0.88000000000E+00 0. -1.
        -11    1    4    4    0    0  0.13219124001E-01  0.52973750661E-01 -0.16283056367E-01  0.56976859725E-01  0.51100000000E-03 0.  1.
         11    1    4    4    0    0  0.20693297560E-01  0.54447842142E-01 -0.39416150334E-01  0.70332596326E-01  0.51100000000E-03 0. -1.
</event>
<event>
 8    1  0.1122848E+005  0.1043930E+01  0.7957747E-01            NaN
         13   -1    0    0    0    0  0.00000000000E+00  0.00000000000E+00  0.74505805969E-08  0.10566000000E+00  0.10566000000E+00 0. -1.
     999900   -1    0    0    0    0 -0.00000000000E+00 -0.00000000000E+00 -0.74505805969E-08  0.93827000000E+00  0.93827000000E+00 0. -1.
     999902    2    1    2    0    0 -0.27199620716E-01 -0.12062466395E-02 -0.46206503654E-02  0.10163143376E+01  0.10159390770E+01 0.  0.
     999903    2    3    3    0    0  0.10012540807E+00 -0.18226269585E-01 -0.69144284512E-01  0.12465036309E+00  0.19987163221E-01 0.  0.
         14    1    1    2    0    0  0.27199620716E-01  0.12062466395E-02  0.46206503654E-02  0.27615662364E-01  0.00000000000E+00 0.  1.
     999901    1    3    3    0    0 -0.12732502879E+00  0.17020022946E-01  0.64523634147E-01  0.89166397454E+00  0.88000000000E+00 0.  1.
        -11    1    4    4    0    0  0.51528714861E-01 -0.31512796764E-02 -0.25349745037E-01  0.57515299818E-01  0.51100000000E-03 0. -1.
         11    1    4    4    0    0  0.48596693211E-01 -0.15074989909E-01 -0.43794539475E-01  0.67135063273E-01  0.51100000000E-03 0.  1.
</event>
<event>
 8    1  0.1122848E+005  0.1043930E+01  0.7957747E-01            NaN
         13   -1    0    0    0    0  0.00000000000E+00  0.00000000000E+00  0.74505805969E-08  0.10566000000E+00  0.10566000000E+00 0.  1.
     999900   -1    0    0    0    0 -0.00000000000E+00 -0.00000000000E+00 -0.74505805969E-08  0.93827000000E+00  0.93827000000E+00 0. -1.
     999902    2    1    2    0    0 -0.10582936496E-01 -0.21847119393E-01 -0.61633621432E-02  0.10188843975E+01  0.10185765230E+01 0.  0.
     999903    2    3    3    0    0 -0.10591865170E+00 -0.23339808078E-01 -0.71199887367E-01  0.13134798907E+00  0.20478350850E-01 0.  0.
         14    1    1    2    0    0  0.10582936496E-01  0.21847119393E-01  0.61633621432E-02  0.25045602479E-01  0.00000000000E+00 0. -1.
     999901    1    3    3    0    0  0.95335715200E-01  0.14926886855E-02  0.65036525224E-01  0.88753640845E+00  0.88000000000E+00 0.  1.
        -11    1    4    4    0    0 -0.28662467404E-01 -0.79639450172E-02 -0.30783153740E-01  0.42811507017E-01  0.51100000000E-03 0.  1.
         11    1    4    4    0    0 -0.77256184292E-01 -0.15375863061E-01 -0.40416733627E-01  0.88536482053E-01  0.51100000000E-03 0. -1.
</event>
<event>
 7    1  0.1122848E+005  0.1043930E+01  0.7957747E-01            NaN
         13   -1    0    0    0    0  0.00000000000E+00  0.00000000000E+00  0.74505805969E-08  0.10566000000E+00  0.10566000000E+00 0. -1.
     999900   -1    0    0    0    0 -0.00000000000E+00 -0.00000000000E+00 -0.74505805969E-08  0.93827000000E+00  0.93827000000E+00 0.  1.
     999903    2    1    2    0    0  0.12223447173E-01 -0.38518187969E-01  0.81094582474E-01  0.92894096216E-01  0.20491909133E-01 0.  0.
         14    1    1    2    0    0 -0.15667953859E-01 -0.59890857193E-01 -0.98143897673E-02  0.62679516590E-01  0.00000000000E+00 0.  1.
     999901    1    1    2    0    0  0.34445066860E-02  0.98409045163E-01 -0.71280192707E-01  0.88835638719E+00  0.88000000000E+00 0.  1.
        -11    1    3    3    0    0  0.49420774879E-02 -0.11955912163E-01  0.48597081478E-01  0.50292200337E-01  0.51100000000E-03 0. -1.
         11    1    3    3    0    0  0.72813696851E-02 -0.26562275806E-01  0.32497500996E-01  0.42601895879E-01  0.51100000000E-03 0.  1.
</event>
<event>
 8    1  0.1122848E+005  0.1043930E+01  0.7957747E-01            NaN
         13   -1    0    0    0    0  0.00000000000E+00  0.00000000000E+00  0.74505805969E-08  0.10566000000E+00  0.10566000000E+00 0.  1.
     999900   -1    0    0    0    0 -0.00000000000E+00 -0.00000000000E+00 -0.74505805969E-08  0.93827000000E+00  0.93827000000E+00 0. -1.
     999902    2    1    2    0    0 -0.11409458650E-01 -0.67964401683E-03  0.19903411815E-01  0.10209782361E+01  0.10207202238E+01 0.  0.
     999903    2    3    3    0    0  0.73271346234E-01  0.38150531482E-01  0.10102495496E+00  0.13235045916E+00  0.22055595321E-01 0.  0.
         14    1    1    2    0    0  0.11409458650E-01  0.67964401683E-03 -0.19903411815E-01  0.22951763866E-01  0.00000000000E+00 0. -1.
     999901    1    3    3    0    0 -0.84680804884E-01 -0.38830175499E-01 -0.81121543141E-01  0.88862777697E+00  0.88000000000E+00 0. -1.
        -11    1    4    4    0    0  0.54822439255E-01  0.38302753702E-01  0.75667100944E-01  0.10098698962E+00  0.51100000000E-03 0. -1.
         11    1    4    4    0    0  0.18448906979E-01 -0.15222221956E-03  0.25357854013E-01  0.31363469538E-01  0.51100000000E-03 0.  1.
</event>
<event>
 8    1  0.1122848E+005  0.1043930E+01  0.7957747E-01            NaN
         13   -1    0    0    0    0  0.00000000000E+00  0.00000000000E+00  0.74505805969E-08  0.10566000000E+00  0.10566000000E+00 0. -1.
     999900   -1    0    0    0    0 -0.00000000000E+00 -0.00000000000E+00 -0.74505805969E-08  0.93827000000E+00  0.93827000000E+00 0. -1.
     999902    2    1    2    0    0 -0.21053627070E-01 -0.10286726432E-01 -0.32781631300E-03  0.10204954226E+01  0.10202263122E+01 0.  0.
     999903    2    3    3    0    0  0.96466131231E-01  0.89312919605E-02 -0.82801840125E-01  0.12865340162E+00  0.17608820766E-01 0.  0.
         14    1    1    2    0    0  0.21053627070E-01  0.10286726432E-01  0.32781631300E-03  0.23434577381E-01  0.00000000000E+00 0.  1.
     999901    1    3    3    0    0 -0.11751975830E+00 -0.19218018393E-01  0.82474023812E-01  0.89184202100E+00  0.88000000000E+00 0.  1.
        -11    1    4    4    0    0  0.29484620324E-01 -0.51037039785E-02 -0.27899740213E-01  0.40915122570E-01  0.51100000000E-03 0. -1.
         11    1    4    4    0    0  0.66981510907E-01  0.14034995939E-01 -0.54902099911E-01  0.87738279047E-01  0.51100000000E-03 0.  1.
</event>
<event>
 8    1  0.1122848E+005  0.1043930E+01  0.7957747E-01            NaN
         13   -1    0    0    0    0  0.00000000000E+00  0.00000000000E+00  0.74505805969E-08  0.10566000000E+00  0.10566000000E+00 0. -1.
     999900   -1    0    0    0    0 -0.00000000000E+00 -0.00000000000E+00 -0.74505805969E-08  0.93827000000E+00  0.93827000000E+00 0. -1.
     999902    2    1    2    0    0  0.17157053543E-01 -0.52406274335E-02  0.16169667697E-01  0.10197786685E+01  0.10194926414E+01 0.  0.
     999903    2    3    3    0    0  0.33056344101E-01  0.78010139830E-01  0.99244823996E-01  0.13181191272E+00  0.18615623629E-01 0.  0.
         14    1    1    2    0    0 -0.17157053543E-01  0.52406274335E-02 -0.16169667697E-01  0.24151331549E-01  0.00000000000E+00 0.  1.
     999901    1    3    3    0    0 -0.15899290558E-01 -0.83250767263E-01 -0.83075156299E-01  0.88796675573E+00  0.88000000000E+00 0. -1.
        -11    1    4    4    0    0  0.11835681402E-01  0.12652979575E-01  0.13756607595E-01  0.22128863955E-01  0.51100000000E-03 0.  1.
         11    1    4    4    0    0  0.21220662699E-01  0.65357160254E-01  0.85488216401E-01  0.10968304876E+00  0.51100000000E-03 0. -1.
</event>
<event>
 8    1  0.1122848E+005  0.1043930E+01  0.7957747E-01            NaN
         13   -1    0    0    0    0  0.00000000000E+00  0.00000000000E+00  0.74505805969E-08  0.10566000000E+00  0.10566000000E+00 0. -1.
     999900   -1    0    0    0    0 -0.00000000000E+00 -0.00000000000E+00 -0.74505805969E-08  0.93827000000E+00  0.93827000000E+00 0. -1.
     999902    2    1    2    0    0 -0.12619794187E-01  0.18150987959E-01  0.11801264377E-02  0.10217915658E+01  0.10215517088E+01 0.  0.
     999903    2    3    3    0    0  0.12613266298E+00 -0.88834100121E-02 -0.23382487364E-01  0.13017145331E+00  0.20236177966E-01 0.  0.
         14    1    1    2    0    0  0.12619794187E-01 -0.18150987959E-01 -0.11801264377E-02  0.22138434173E-01  0.00000000000E+00 0. -1.
     999901    1    3    3    0    0 -0.13875245717E+00  0.27034397972E-01  0.24562613802E-01  0.89162011251E+00  0.88000000000E+00 0. -1.
        -11    1    4    4    0    0  0.64646929347E-01 -0.80653079388E-02 -0.21652018670E-01  0.68653810526E-01  0.51100000000E-03 0.  1.
         11    1    4    4    0    0  0.61485733631E-01 -0.81810207329E-03 -0.17304686939E-02  0.61517642787E-01  0.51100000000E-03 0. -1.
</event>
<event>
 8    1  0.1122848E+005  0.1043930E+01  0.7957747E-01            NaN
         13   -1    0    0    0    0  0.00000000000E+00  0.00000000000E+00  0.74505805969E-08  0.10566000000E+00  0.10566000000E+00 0.  1.
     999900   -1    0    0    0    0 -0.00000000000E+00 -0.00000000000E+00 -0.74505805969E-08  0.93827000000E+00  0.93827000000E+00 0. -1.
     999902    2    1    2    0    0 -0.22821781948E-01  0.90309262974E-02 -0.33400659455E-03  0.10193840651E+01  0.10190884992E+01 0.  0.
     999903    2    3    3    0    0  0.10857760514E-01 -0.59994710389E-01  0.11191208378E+00  0.12893584372E+00  0.19567346869E-01 0.  0.
         14    1    1    2    0    0  0.22821781948E-01 -0.90309262974E-02  0.33400659455E-03  0.24545934928E-01  0.00000000000E+00 0. -1.
     999901    1    3    3    0    0 -0.33679542462E-01  0.69025636686E-01 -0.11224609037E+00  0.89044822135E+00  0.88000000000E+00 0. -1.
        -11    1    4    4    0    0  0.10004180221E-01 -0.35341368989E-01  0.48119438244E-01  0.60537900870E-01  0.51100000000E-03 0. -1.
         11    1    4    4    0    0  0.85358029296E-03 -0.24653341401E-01  0.63792645532E-01  0.68397942852E-01  0.51100000000E-03 0.  1.
</event>
<event>
 8    1  0.1122848E+005  0.1043930E+01  0.7957747E-01            NaN
         13   -1    0    0    0    0  0.00000000000E+00  0.00000000000E+00  0.74505805969E-08  0.10566000000E+00  0.10566000000E+00 0.  1.
     999900   -1    0    0    0    0 -0.00000000000E+00 -0.00000000000E+00 -0.74505805969E-08  0.93827000000E+00  0.93827000000E+00 0.  1.
     999902    2    1    2    0    0 -0.13473681904E-01 -0.15701022647E-01  0.81738090180E-02  0.10216842505E+01  0.10214420367E+01 0.  0.
     999903    2    3    3    0    0  0.82580204737E-02 -0.10299201521E+00  0.82921850407E-01  0.13394597041E+00  0.19746888764E-01 0.  0.
         14    1    1    2    0    0  0.13473681904E-01  0.15701022647E-01 -0.81738090180E-02  0.22245749483E-01  0.00000000000E+00 0.  1.
     999901    1    3    3    0    0 -0.21731702378E-01  0.87290992563E-01 -0.74748041389E-01  0.88773828010E+00  0.88000000000E+00 0.  1.
        -11    1    4    4    0    0  0.76304809150E-02 -0.25947215178E-01  0.13487651552E-01  0.30226810613E-01  0.51100000000E-03 0.  1.
         11    1    4    4    0    0  0.62753955872E-03 -0.77044800032E-01  0.69434198856E-01  0.10371915980E+00  0.51100000000E-03 0. -1.
</event>
<event>
 8    1  0.1122848E+005  0.1043930E+01  0.7957747E-01            NaN
         13   -1    0    0    0    0  0.00000000000E+00  0.00000000000E+00  0.74505805969E-08  0.10566000000E+00  0.10566000000E+00 0.  1.
     999900   -1    0    0    0    0 -0.00000000000E+00 -0.00000000000E+00 -0.74505805969E-08  0.93827000000E+00  0.93827000000E+00 0. -1.
     999902    2    1    2    0    0  0.19345721321E-01 -0.90338812202E-02  0.11017323211E-01  0.10199039859E+01  0.10196209546E+01 0.  0.
     999903    2    3    3    0    0 -0.31394507891E-01 -0.90624697950E-01  0.87558533113E-01  0.13137138151E+00  0.19836636666E-01 0.  0.
         14    1    1    2    0    0 -0.19345721321E-01  0.90338812202E-02 -0.11017323211E-01  0.24026014111E-01  0.00000000000E+00 0. -1.
     999901    1    3    3    0    0  0.50740229212E-01  0.81590816729E-01 -0.76541209902E-01  0.88853260438E+00  0.88000000000E+00 0.  1.
        -11    1    4    4    0    0 -0.64265307221E-02 -0.48210939963E-01  0.46151485887E-01  0.67050844885E-01  0.51100000000E-03 0. -1.
         11    1    4    4    0    0 -0.24967977169E-01 -0.42413757986E-01  0.41407047226E-01  0.64320536622E-01  0.51100000000E-03 0.  1.
</event>
<event>
 8    1  0.1122848E+005  0.1043930E+01  0.7957747E-01            NaN
         13   -1    0    0    0    0  0.00000000000E+00  0.00000000000E+00  0.74505805969E-08  0.10566000000E+00  0.10566000000E+00 0. -1.
     999900   -1    0    0    0    0 -0.00000000000E+00 -0.00000000000E+00 -0.74505805969E-08  0.93827000000E+00  0.93827000000E+00 0. -1.
     999902    2    1    2    0    0 -0.15321240402E-01  0.12945012585E-01 -0.11957109301E-01  0.10205786356E+01  0.10203114550E+01 0.  0.
     999903    2    3    3    0    0 -0.10527866514E+00  0.11765145663E-01 -0.78756097903E-01  0.13347332319E+00  0.19763326159E-01 0.  0.
         14    1    1    2    0    0  0.15321240402E-01 -0.12945012585E-01  0.11957109301E-01  0.23351364438E-01  0.00000000000E+00 0.  1.
     999901    1    3    3    0    0  0.89957424742E-01  0.11798669216E-02  0.66798988602E-01  0.88710531237E+00  0.88000000000E+00 0.  1.
        -11    1    4    4    0    0 -0.35618229588E-01  0.63005894094E-02 -0.38508376030E-01  0.52834759878E-01  0.51100000000E-03 0.  1.
         11    1    4    4    0    0 -0.69660435556E-01  0.54645562539E-02 -0.40247721873E-01  0.80638563317E-01  0.51100000000E-03 0. -1.
</event>
<event>
 8    1  0.1122848E+005  0.1043930E+01  0.7957747E-01            NaN
         13   -1    0    0    0    0  0.00000000000E+00  0.00000000000E+00  0.74505805969E-08  0.10566000000E+00  0.10566000000E+00 0. -1.
     999900   -1    0    0    0    0 -0.00000000000E+00 -0.00000000000E+00 -0.74505805969E-08  0.93827000000E+00  0.93827000000E+00 0.  1.
     999902    2    1    2    0    0  0.88062046178E-02 -0.12979970561E-01  0.17537912151E-01  0.10204011403E+01  0.10201298348E+01 0.  0.
     999903    2    3    3    0    0  0.11208973487E+00  0.10545190693E-01 -0.63285540845E-01  0.13037116813E+00  0.17784040306E-01 0.  0.
         14    1    1    2    0    0 -0.88062046178E-02  0.12979970561E-01 -0.17537912151E-01  0.23528859686E-01  0.00000000000E+00 0.  1.
     999901    1    3    3    0    0 -0.10328353025E+00 -0.23525161254E-01  0.80823452996E-01  0.89002997218E+00  0.88000000000E+00 0. -1.
        -11    1    4    4    0    0  0.23810397042E-01  0.31541580103E-02 -0.56382333009E-02  0.24676598546E-01  0.51100000000E-03 0.  1.
         11    1    4    4    0    0  0.88279337826E-01  0.73910326827E-02 -0.57647307544E-01  0.10569456958E+00  0.51100000000E-03 0. -1.
</event>
<event>
 8    1  0.1122848E+005  0.1043930E+01  0.7957747E-01            NaN
         13   -1    0    0    0    0  0.00000000000E+00  0.00000000000E+00  0.74505805969E-08  0.10566000000E+00  0.10566000000E+00 0. -1.
     999900   -1    0    0    0    0 -0.00000000000E+00 -0.00000000000E+00 -0.74505805969E-08  0.93827000000E+00  0.93827000000E+00 0. -1.
     999902    2    1    2    0    0 -0.29500017357E-02  0.62778962064E-02 -0.22288091449E-01  0.10205874742E+01  0.10203204982E+01 0.  0.
     999903    2    3    3    0    0  0.82118130312E-01  0.96640866377E-01  0.23595478142E-01  0.13069570805E+00  0.21018495072E-01 0.  0.
         14    1    1    2    0    0  0.29500017357E-02 -0.62778962064E-02  0.22288091449E-01  0.23342525815E-01  0.00000000000E+00 0. -1.
     999901    1    3    3    0    0 -0.85068132047E-01 -0.90362970171E-01 -0.45883569590E-01  0.88989176613E+00  0.88000000000E+00 0.  1.
        -11    1    4    4    0    0  0.49283979459E-01  0.67060903583E-01  0.23575468956E-01  0.86499359987E-01  0.51100000000E-03 0. -1.
         11    1    4    4    0    0  0.32834150852E-01  0.29579962794E-01  0.20009185688E-04  0.44196348067E-01  0.51100000000E-03 0.  1.
</event>
<event>
 8    1  0.1122848E+005  0.1043930E+01  0.7957747E-01            NaN
         13   -1    0    0    0    0  0.00000000000E+00  0.00000000000E+00  0.74505805969E-08  0.10566000000E+00  0.10566000000E+00 0. -1.
     999900   -1    0    0    0    0 -0.00000000000E+00 -0.00000000000E+00 -0.74505805969E-08  0.93827000000E+00  0.93827000000E+00 0.  1.
     999902    2    1    2    0    0  0.74209715021E-02  0.15378386916E-01 -0.16062614791E-01  0.10204870225E+01  0.10202177169E+01 0.  0.
     999903    2    3    3    0    0  0.74360675021E-01 -0.61097751512E-01 -0.87638718912E-01  0.13175046850E+00  0.20376350711E-01 0.  0.
         14    1    1    2    0    0 -0.74209715021E-02 -0.15378386916E-01  0.16062614791E-01  0.23442977543E-01  0.00000000000E+00 0. -1.
     999901    1    3    3    0    0 -0.66939703519E-01  0.76476138428E-01  0.71576104121E-01  0.88873655396E+00  0.88000000000E+00 0.  1.
        -11    1    4    4    0    0  0.66745218585E-01 -0.45264244491E-01 -0.74663002776E-01  0.10990268940E+00  0.51100000000E-03 0.  1.
         11    1    4    4    0    0  0.76154564360E-02 -0.15833507021E-01 -0.12975716136E-01  0.21847779099E-01  0.51100000000E-03 0. -1.
</event>
<event>
 8    1  0.1122848E+005  0.1043930E+01  0.7957747E-01            NaN
         13   -1    0    0    0    0  0.00000000000E+00  0.00000000000E+00  0.74505805969E-08  0.10566000000E+00  0.10566000000E+00 0.  1.
     999900   -1    0    0    0    0 -0.00000000000E+00 -0.00000000000E+00 -0.74505805969E-08  0.93827000000E+00  0.93827000000E+00 0. -1.
     999902    2    1    2    0    0 -0.90023685311E-02  0.20517420586E-01 -0.91297971002E-02  0.10197357779E+01  0.10194487218E+01 0.  0.
     999903    2    3    3    0    0 -0.11678784141E+00  0.63830297124E-02 -0.57355031178E-01  0.13173624956E+00  0.19613691122E-01 0.  0.
         14    1    1    2    0    0  0.90023685311E-02 -0.20517420586E-01  0.91297971002E-02  0.24194222074E-01  0.00000000000E+00 0.  1.
     999901    1    3    3    0    0  0.10778547287E+00  0.14134390874E-01  0.48225234078E-01  0.88799952836E+00  0.88000000000E+00 0.  1.
        -11    1    4    4    0    0 -0.10089095342E+00  0.12205998229E-01 -0.50186007424E-01  0.11334402206E+00  0.51100000000E-03 0. -1.
         11    1    4    4    0    0 -0.15896887986E-01 -0.58229685161E-02 -0.71690237545E-02  0.18392227504E-01  0.51100000000E-03 0.  1.
</event>
<event>
 8    1  0.1122848E+005  0.1043930E+01  0.7957747E-01            NaN
         13   -1    0    0    0    0  0.00000000000E+00  0.00000000000E+00  0.74505805969E-08  0.10566000000E+00  0.10566000000E+00 0. -1.
     999900   -1    0    0    0    0 -0.00000000000E+00 -0.00000000000E+00 -0.74505805969E-08  0.93827000000E+00  0.93827000000E+00 0.  1.
     999902    2    1    2    0    0 -0.11373088738E-02  0.78927736271E-02  0.22502604609E-01  0.10200562370E+01  0.10197768236E+01 0.  0.
     999903    2    3    3    0    0  0.74360272571E-01 -0.73411087690E-01  0.77220282901E-01  0.13140319613E+00  0.19626256152E-01 0.  0.
         14    1    1    2    0    0  0.11373088738E-02 -0.78927736271E-02 -0.22502604609E-01  0.23873763029E-01  0.00000000000E+00 0.  1.
     999901    1    3    3    0    0 -0.75497581445E-01  0.81303861317E-01 -0.54717678292E-01  0.88865304084E+00  0.88000000000E+00 0. -1.
        -11    1    4    4    0    0  0.29140965681E-01 -0.29851354021E-01  0.42921740072E-01  0.59856796686E-01  0.51100000000E-03 0. -1.
         11    1    4    4    0    0  0.45219306890E-01 -0.43559733669E-01  0.34298542829E-01  0.71546399449E-01  0.51100000000E-03 0.  1.
</event>
<event>
 8    1  0.1122848E+005  0.1043930E+01  0.7957747E-01            NaN
         13   -1    0    0    0    0  0.00000000000E+00  0.00000000000E+00  0.74505805969E-08  0.10566000000E+00  0.10566000000E+00 0.  1.
     999900   -1    0    0    0    0 -0.00000000000E+00 -0.00000000000E+00 -0.74505805969E-08  0.93827000000E+00  0.93827000000E+00 0.  1.
     999902    2    1    2    0    0 -0.20516737222E-01  0.14061711114E-01 -0.11810744844E-02  0.10190289325E+01  0.10187246449E+01 0.  0.
     999903    2    3    3    0    0  0.77419429901E-01  0.45627467102E-01 -0.89814352339E-01  0.12861119474E+00  0.19964659903E-01 0.  0.
         14    1    1    2    0    0  0.20516737222E-01 -0.14061711114E-01  0.11810744844E-02  0.24901067500E-01  0.00000000000E+00 0. -1.
     999901    1    3    3    0    0 -0.97936167123E-01 -0.31565755988E-01  0.88633277854E-01  0.89041773776E+00  0.88000000000E+00 0.  1.
        -11    1    4    4    0    0  0.64419366686E-01  0.45696907092E-01 -0.75420485656E-01  0.10920884991E+00  0.51100000000E-03 0. -1.
         11    1    4    4    0    0  0.13000063215E-01 -0.69439989837E-04 -0.14393866683E-01  0.19402344822E-01  0.51100000000E-03 0.  1.
</event>
<event>
 8    1  0.1122848E+005  0.1043930E+01  0.7957747E-01            NaN
         13   -1    0    0    0    0  0.00000000000E+00  0.00000000000E+00  0.74505805969E-08  0.10566000000E+00  0.10566000000E+00 0. -1.
     999900   -1    0    0    0    0 -0.00000000000E+00 -0.00000000000E+00 -0.74505805969E-08  0.93827000000E+00  0.93827000000E+00 0.  1.
     999902    2    1    2    0    0 -0.93145308365E-02 -0.21409886491E-01  0.30350983267E-02  0.10203852438E+01  0.10201135673E+01 0.  0.
     999903    2    3    3    0    0  0.83893835864E-01  0.71841461709E-01 -0.61681370020E-01  0.12821270729E+00  0.20845517192E-01 0.  0.
         14    1    1    2    0    0  0.93145308365E-02  0.21409886491E-01 -0.30350983267E-02  0.23544756234E-01  0.00000000000E+00 0.  1.
     999901    1    3    3    0    0 -0.93208366701E-01 -0.93251348200E-01  0.64716468347E-01  0.89217253647E+00  0.88000000000E+00 0. -1.
        -11    1    4    4    0    0  0.18989530517E-01  0.28357482223E-01 -0.21752496204E-01  0.40474452181E-01  0.51100000000E-03 0. -1.
         11    1    4    4    0    0  0.64904305347E-01  0.43483979486E-01 -0.39928873817E-01  0.87738255110E-01  0.51100000000E-03 0.  1.
</event>
<event>
 8    1  0.1122848E+005  0.1043930E+01  0.7957747E-01            NaN
         13   -1    0    0    0    0  0.00000000000E+00  0.00000000000E+00  0.74505805969E-08  0.10566000000E+00  0.10566000000E+00 0.  1.
     999900   -1    0    0    0    0 -0.00000000000E+00 -0.00000000000E+00 -0.74505805969E-08  0.93827000000E+00  0.93827000000E+00 0.  1.
     999902    2    1    2    0    0 -0.93731345606E-02 -0.13046134105E-01  0.16339599759E-01  0.10210162533E+01  0.10207591047E+01 0.  0.
     999903    2    3    3    0    0  0.10480874287E-01  0.11143788933E+00  0.60533267319E-01  0.13093561989E+00  0.30848147412E-01 0.  0.
         14    1    1    2    0    0  0.93731345606E-02  0.13046134105E-01 -0.16339599759E-01  0.22913746679E-01  0.00000000000E+00 0.  1.
     999901    1    3    3    0    0 -0.19854008847E-01 -0.12448402344E+00 -0.44193667560E-01  0.89008063343E+00  0.88000000000E+00 0. -1.
        -11    1    4    4    0    0 -0.88393806780E-02  0.61843915646E-01  0.38091296408E-01  0.73171118183E-01  0.51100000000E-03 0. -1.
         11    1    4    4    0    0  0.19320254965E-01  0.49593973686E-01  0.22441970912E-01  0.57764501705E-01  0.51100000000E-03 0.  1.
</event>
<event>
 8    1  0.1122848E+005  0.1043930E+01  0.7957747E-01            NaN
         13   -1    0    0    0    0  0.00000000000E+00  0.00000000000E+00  0.74505805969E-08  0.10566000000E+00  0.10566000000E+00 0. -1.
     999900   -1    0    0    0    0 -0.00000000000E+00 -0.00000000000E+00 -0.74505805969E-08  0.93827000000E+00  0.93827000000E+00 0.  1.
     999902    2    1    2    0    0  0.13749277939E-01  0.19434024060E-01 -0.72932715225E-03  0.10201128664E+01  0.10198347927E+01 0.  0.
     999903    2    3    3    0    0 -0.76356930927E-01 -0.89261193292E-01 -0.46226369529E-01  0.12769829905E+00  0.19288255793E-01 0.  0.
         14    1    1    2    0    0 -0.13749277939E-01 -0.19434024060E-01  0.72932715225E-03  0.23817133603E-01  0.00000000000E+00 0. -1.
     999901    1    3    3    0    0  0.90106208865E-01  0.10869521735E+00  0.45497042377E-01  0.89241456735E+00  0.88000000000E+00 0. -1.
        -11    1    4    4    0    0 -0.46978601005E-01 -0.61439218515E-01 -0.21498049012E-01  0.80275735789E-01  0.51100000000E-03 0.  1.
         11    1    4    4    0    0 -0.29378329921E-01 -0.27821974777E-01 -0.24728320517E-01  0.47422563259E-01  0.51100000000E-03 0. -1.
</event>
<event>
 8    1  0.1122848E+005  0.1043930E+01  0.7957747E-01            NaN
         13   -1    0    0    0    0  0.00000000000E+00  0.00000000000E+00  0.74505805969E-08  0.10566000000E+00  0.10566000000E+00 0. -1.
     999900   -1    0    0    0    0 -0.00000000000E+00 -0.00000000000E+00 -0.74505805969E-08  0.93827000000E+00  0.93827000000E+00 0.  1.
     999902    2    1    2    0    0 -0.21358199632E-01 -0.67234365191E-03 -0.16752862013E-01  0.10167770421E+01  0.10164144185E+01 0.  0.
     999903    2    3    3    0    0 -0.60791968220E-01 -0.92027210870E-01 -0.65666488795E-01  0.12981972815E+00  0.19401111458E-01 0.  0.
         14    1    1    2    0    0  0.21358199632E-01  0.67234365191E-03  0.16752862013E-01  0.27152957908E-01  0.00000000000E+00 0.  1.
     999901    1    3    3    0    0  0.39433768588E-01  0.91354867218E-01  0.48913626782E-01  0.88695731394E+00  0.88000000000E+00 0.  1.
        -11    1    4    4    0    0 -0.30548753270E-01 -0.31167881753E-01 -0.30943230707E-01  0.53501474997E-01  0.51100000000E-03 0. -1.
         11    1    4    4    0    0 -0.30243214950E-01 -0.60859329117E-01 -0.34723258088E-01  0.76318253153E-01  0.51100000000E-03 0.  1.
</event>
<event>
 8    1  0.1122848E+005  0.1043930E+01  0.7957747E-01            NaN
         13   -1    0    0    0    0  0.00000000000E+00  0.00000000000E+00  0.74505805969E-08  0.10566000000E+00  0.10566000000E+00 0.  1.
     999900   -1    0    0    0    0 -0.00000000000E+00 -0.00000000000E+00 -0.74505805969E-08  0.93827000000E+00  0.93827000000E+00 0.  1.
     999902    2    1    2    0    0 -0.17343576544E-01  0.27941473520E-02  0.15918026531E-01  0.10202236617E+01  0.10199481994E+01 0.  0.
     999903    2    3    3    0    0  0.10512784515E+00 -0.22221402748E-01 -0.65952349182E-01  0.12762756867E+00  0.19835053697E-01 0.  0.
         14    1    1    2    0    0  0.17343576544E-01 -0.27941473520E-02 -0.15918026531E-01  0.23706338296E-01  0.00000000000E+00 0. -1.
     999901    1    3    3    0    0 -0.12247142170E+00  0.25015550100E-01  0.81870375713E-01  0.89259609303E+00  0.88000000000E+00 0. -1.
        -11    1    4    4    0    0  0.25030622301E-01  0.29826029740E-02 -0.13165067228E-01  0.28443067510E-01  0.51100000000E-03 0.  1.
         11    1    4    4    0    0  0.80097222853E-01 -0.25204005722E-01 -0.52787281954E-01  0.99184501160E-01  0.51100000000E-03 0. -1.
</event>
<event>
 8    1  0.1122848E+005  0.1043930E+01  0.7957747E-01            NaN
         13   -1    0    0    0    0  0.00000000000E+00  0.00000000000E+00  0.74505805969E-08  0.10566000000E+00  0.10566000000E+00 0. -1.
     999900   -1    0    0    0    0 -0.00000000000E+00 -0.00000000000E+00 -0.74505805969E-08  0.93827000000E+00  0.93827000000E+00 0.  1.
     999902    2    1    2    0    0 -0.40977639069E-02 -0.24912832469E-02  0.23332414877E-01  0.10201098458E+01  0.10198317007E+01 0.  0.
     999903    2    3    3    0    0  0.59651525157E-01  0.11374255899E+00  0.10895975284E-01  0.13009358587E+00  0.17605244356E-01 0.  0.
         14    1    1    2    0    0  0.40977639069E-02  0.24912832469E-02 -0.23332414877E-01  0.23820154182E-01  0.00000000000E+00 0.  1.
     999901    1    3    3    0    0 -0.63749289064E-01 -0.11623384224E+00  0.12436439593E-01  0.89001625995E+00  0.88000000000E+00 0. -1.
        -11    1    4    4    0    0  0.12055304491E-01  0.19651879997E-01 -0.46025557817E-02  0.23515343810E-01  0.51100000000E-03 0.  1.
         11    1    4    4    0    0  0.47596220665E-01  0.94090678992E-01  0.15498531066E-01  0.10657824206E+00  0.51100000000E-03 0. -1.
</event>
<event>
 8    1  0.1122848E+005  0.1043930E+01  0.7957747E-01            NaN
         13   -1    0    0    0    0  0.00000000000E+00  0.00000000000E+00  0.74505805969E-08  0.10566000000E+00  0.10566000000E+00 0.  1.
     999900   -1    0    0    0    0 -0.00000000000E+00 -0.00000000000E+00 -0.74505805969E-08  0.93827000000E+00  0.93827000000E+00 0.  1.
     999902    2    1    2    0    0 -0.15391021099E-01  0.54193320063E-02 -0.17296516796E-01  0.10201513923E+01  0.10198742281E+01 0.  0.
     999903    2    3    3    0    0  0.50226101622E-01  0.77721430593E-01 -0.91067529197E-01  0.13168340611E+00  0.21998693432E-01 0.  0.
         14    1    1    2    0    0  0.15391021099E-01 -0.54193320063E-02  0.17296516796E-01  0.23778607679E-01  0.00000000000E+00 0.  1.
     999901    1    3    3    0    0 -0.65617122720E-01 -0.72302098587E-01  0.73771012401E-01  0.88846798621E+00  0.88000000000E+00 0. -1.
        -11    1    4    4    0    0  0.31383455581E-01  0.34063366052E-01 -0.55563430054E-01  0.72338026455E-01  0.51100000000E-03 0. -1.
         11    1    4    4    0    0  0.18842646040E-01  0.43658064541E-01 -0.35504099144E-01  0.59345379654E-01  0.51100000000E-03 0.  1.
</event>
<event>
 8    1  0.1122848E+005  0.1043930E+01  0.7957747E-01            NaN
         13   -1    0    0    0    0  0.00000000000E+00  0.00000000000E+00  0.74505805969E-08  0.10566000000E+00  0.10566000000E+00 0.  1.
     999900   -1    0    0    0    0 -0.00000000000E+00 -0.00000000000E+00 -0.74505805969E-08  0.93827000000E+00  0.93827000000E+00 0. -1.
     999902    2    1    2    0    0 -0.19847567633E-01  0.30830528916E-02 -0.11983135357E-01  0.10205413983E+01  0.10202733550E+01 0.  0.
     999903    2    3    3    0    0  0.52630337934E-01 -0.17673462713E-02  0.11552418694E+00  0.12838967892E+00  0.19104865934E-01 0.  0.
         14    1    1    2    0    0  0.19847567633E-01 -0.30830528916E-02  0.11983135357E-01  0.23388601691E-01  0.00000000000E+00 0.  1.
     999901    1    3    3    0    0 -0.72477905567E-01  0.48503991629E-02 -0.12750732229E+00  0.89215171939E+00  0.88000000000E+00 0. -1.
        -11    1    4    4    0    0  0.21314283529E-01  0.27292708984E-02  0.27846098876E-01  0.35176895054E-01  0.51100000000E-03 0. -1.
         11    1    4    4    0    0  0.31316054404E-01 -0.44966171697E-02  0.87678088061E-01  0.93212783868E-01  0.51100000000E-03 0.  1.
</event>
<event>
 8    1  0.1122848E+005  0.1043930E+01  0.7957747E-01            NaN
         13   -1    0    0    0    0  0.00000000000E+00  0.00000000000E+00  0.74505805969E-08  0.10566000000E+00  0.10566000000E+00 0. -1.
     999900   -1    0    0    0    0 -0.00000000000E+00 -0.00000000000E+00 -0.74505805969E-08  0.93827000000E+00  0.93827000000E+00 0. -1.
     999902    2    1    2    0    0  0.98552739320E-02  0.19360255600E-01 -0.91024125506E-02  0.10203758107E+01  0.10201039139E+01 0.  0.
     999903    2    3    3    0    0 -0.40360070009E-01 -0.94837470948E-01  0.72930772905E-01  0.12779968224E+00  0.19768156128E-01 0.  0.
         14    1    1    2    0    0 -0.98552739320E-02 -0.19360255600E-01  0.91024125506E-02  0.23554189339E-01  0.00000000000E+00 0.  1.
     999901    1    3    3    0    0  0.50215343941E-01  0.11419772655E+00 -0.82033185455E-01  0.89257612842E+00  0.88000000000E+00 0. -1.
        -11    1    4    4    0    0 -0.13045453906E-01 -0.54344317538E-01  0.34883563864E-01  0.65883327672E-01  0.51100000000E-03 0. -1.
         11    1    4    4    0    0 -0.27314616103E-01 -0.40493153409E-01  0.38047209040E-01  0.61916354565E-01  0.51100000000E-03 0.  1.
</event>
<event>
 8    1  0.1122848E+005  0.1043930E+01  0.7957747E-01            NaN
         13   -1    0    0    0    0  0.00000000000E+00  0.00000000000E+00  0.74505805969E-08  0.10566000000E+00  0.10566000000E+00 0. -1.
     999900   -1    0    0    0    0 -0.00000000000E+00 -0.00000000000E+00 -0.74505805969E-08  0.93827000000E+00  0.93827000000E+00 0. -1.
     999902    2    1    2    0    0  0.10335348756E-01 -0.16519565264E-01  0.35196196996E-02  0.10241284043E+01  0.10239369537E+01 0.  0.
     999903    2    3    3    0    0  0.13565097849E-01 -0.13093674026E+00  0.29556413957E-01  0.13633358796E+00  0.19616925676E-01 0.  0.
         14    1    1    2    0    0 -0.10335348756E-01  0.16519565264E-01 -0.35196196996E-02  0.19801595725E-01  0.00000000000E+00 0.  1.
     999901    1    3    3    0    0 -0.32297490929E-02  0.11441717499E+00 -0.26036794258E-01  0.88779481631E+00  0.88000000000E+00 0. -1.
        -11    1    4    4    0    0  0.34703411480E-02 -0.85875292893E-01  0.11349756374E-01  0.86693063666E-01  0.51100000000E-03 0. -1.
         11    1    4    4    0    0  0.10094756701E-01 -0.45061447362E-01  0.18206657583E-01  0.49640524298E-01  0.51100000000E-03 0.  1.
</event>
<event>
 8    1  0.1122848E+005  0.1043930E+01  0.7957747E-01            NaN
         13   -1    0    0    0    0  0.00000000000E+00  0.00000000000E+00  0.74505805969E-08  0.10566000000E+00  0.10566000000E+00 0. -1.
     999900   -1    0    0    0    0 -0.00000000000E+00 -0.00000000000E+00 -0.74505805969E-08  0.93827000000E+00  0.93827000000E+00 0.  1.
     999902    2    1    2    0    0  0.10512121388E-01 -0.16808297511E-01 -0.13615902207E-01  0.10198797120E+01  0.10195961017E+01 0.  0.
     999903    2    3    3    0    0  0.83729579043E-01  0.43114668864E-01 -0.90176694646E-01  0.13150303908E+00  0.17079108625E-01 0.  0.
         14    1    1    2    0    0 -0.10512121388E-01  0.16808297511E-01  0.13615902207E-01  0.24050288028E-01  0.00000000000E+00 0. -1.
     999901    1    3    3    0    0 -0.73217457655E-01 -0.59922966375E-01  0.76560792439E-01  0.88837667289E+00  0.88000000000E+00 0. -1.
        -11    1    4    4    0    0  0.49670549807E-02  0.64631742792E-02 -0.12700333860E-01  0.15099796625E-01  0.51100000000E-03 0.  1.
         11    1    4    4    0    0  0.78762524062E-01  0.36651494585E-01 -0.77476360786E-01  0.11640324245E+00  0.51100000000E-03 0. -1.
</event>
<event>
 8    1  0.1122848E+005  0.1043930E+01  0.7957747E-01            NaN
         13   -1    0    0    0    0  0.00000000000E+00  0.00000000000E+00  0.74505805969E-08  0.10566000000E+00  0.10566000000E+00 0.  1.
     999900   -1    0    0    0    0 -0.00000000000E+00 -0.00000000000E+00 -0.74505805969E-08  0.93827000000E+00  0.93827000000E+00 0. -1.
     999902    2    1    2    0    0 -0.13311554315E-01  0.15202245043E-01 -0.13557856444E-01  0.10195964593E+01  0.10193060475E+01 0.  0.
     999903    2    3    3    0    0  0.90819000512E-01 -0.28609991933E-01 -0.85419191071E-01  0.12946908863E+00  0.19979594999E-01 0.  0.
         14    1    1    2    0    0  0.13311554315E-01 -0.15202245043E-01  0.13557856444E-01  0.24333540720E-01  0.00000000000E+00 0.  1.
     999901    1    3    3    0    0 -0.10413055483E+00  0.43812236976E-01  0.71861334626E-01  0.89012737065E+00  0.88000000000E+00 0.  1.
        -11    1    4    4    0    0  0.38110827145E-01 -0.22296792553E-02 -0.29879085824E-01  0.48481207760E-01  0.51100000000E-03 0. -1.
         11    1    4    4    0    0  0.52708173367E-01 -0.26380312677E-01 -0.55540105247E-01  0.80987880874E-01  0.51100000000E-03 0.  1.
</event>
<event>
 8    1  0.1122848E+005  0.1043930E+01  0.7957747E-01            NaN
         13   -1    0    0    0    0  0.00000000000E+00  0.00000000000E+00  0.74505805969E-08  0.10566000000E+00  0.10566000000E+00 0. -1.
     999900   -1    0    0    0    0 -0.00000000000E+00 -0.00000000000E+00 -0.74505805969E-08  0.93827000000E+00  0.93827000000E+00 0.  1.
     999902    2    1    2    0    0  0.88581652396E-02  0.62618419444E-02 -0.24635949164E-01  0.10170114609E+01  0.10166551548E+01 0.  0.
     999903    2    3    3    0    0  0.16094831193E-01 -0.12302514518E+00 -0.18296346039E-01  0.12751290276E+00  0.23033761195E-01 0.  0.
         14    1    1    2    0    0 -0.88581652396E-02 -0.62618419444E-02  0.24635949164E-01  0.26918539098E-01  0.00000000000E+00 0. -1.
     999901    1    3    3    0    0 -0.72366659530E-02  0.12928698712E+00 -0.63396031257E-02  0.88949855814E+00  0.88000000000E+00 0.  1.
        -11    1    4    4    0    0 -0.31496040744E-02 -0.64073559875E-01 -0.10576218114E-01  0.65018909491E-01  0.51100000000E-03 0. -1.
         11    1    4    4    0    0  0.19244435267E-01 -0.58951585301E-01 -0.77201279245E-02  0.62493993267E-01  0.51100000000E-03 0.  1.
</event>
<event>
 8    1  0.1122848E+005  0.1043930E+01  0.7957747E-01            NaN
         13   -1    0    0    0    0  0.00000000000E+00  0.00000000000E+00  0.74505805969E-08  0.10566000000E+00  0.10566000000E+00 0.  1.
     999900   -1    0    0    0    0 -0.00000000000E+00 -0.00000000000E+00 -0.74505805969E-08  0.93827000000E+00  0.93827000000E+00 0. -1.
     999902    2    1    2    0    0 -0.20181046181E-01 -0.27804622747E-02 -0.15459744120E-01  0.10183563948E+01  0.10180352339E+01 0.  0.
     999903    2    3    3    0    0 -0.59891452058E-01  0.11063720037E+00 -0.92745914032E-02  0.13016793581E+00  0.32095129417E-01 0.  0.
         14    1    1    2    0    0  0.20181046181E-01  0.27804622747E-02  0.15459744120E-01  0.25573605215E-01  0.00000000000E+00 0. -1.
     999901    1    3    3    0    0  0.39710405877E-01 -0.11341766265E+00 -0.61851527167E-02  0.88818845897E+00  0.88000000000E+00 0. -1.
        -11    1    4    4    0    0 -0.21213372848E-02  0.12924444647E-01 -0.10266764843E-01  0.16649592266E-01  0.51100000000E-03 0. -1.
         11    1    4    4    0    0 -0.57770114774E-01  0.97712755727E-01  0.99217343977E-03  0.11351834355E+00  0.51100000000E-03 0.  1.
</event>
<event>
 8    1  0.1122848E+005  0.1043930E+01  0.7957747E-01            NaN
         13   -1    0    0    0    0  0.00000000000E+00  0.00000000000E+00  0.74505805969E-08  0.10566000000E+00  0.10566000000E+00 0. -1.
     999900   -1    0    0    0    0 -0.00000000000E+00 -0.00000000000E+00 -0.74505805969E-08  0.93827000000E+00  0.93827000000E+00 0. -1.
     999902    2    1    2    0    0  0.18567953548E-01  0.15105572622E-01 -0.42746398454E-02  0.10196149888E+01  0.10193250245E+01 0.  0.
     999903    2    3    3    0    0 -0.11051001744E+00  0.24760139871E-02  0.60806193522E-01  0.12773150807E+00  0.19983753030E-01 0.  0.
         14    1    1    2    0    0 -0.18567953548E-01 -0.15105572622E-01  0.42746398454E-02  0.24315011186E-01  0.00000000000E+00 0. -1.
     999901    1    3    3    0    0  0.12907797098E+00  0.12629558634E-01 -0.65080833367E-01  0.89188348074E+00  0.88000000000E+00 0. -1.
        -11    1    4    4    0    0 -0.17521646288E-01  0.74223950187E-02  0.13042207023E-01  0.23075101766E-01  0.51100000000E-03 0.  1.
         11    1    4    4    0    0 -0.92988371148E-01 -0.49463810316E-02  0.47763986499E-01  0.10465640631E+00  0.51100000000E-03 0. -1.
</event>
<event>
 8    1  0.1122848E+005  0.1043930E+01  0.7957747E-01            NaN
         13   -1    0    0    0    0  0.00000000000E+00  0.00000000000E+00  0.74505805969E-08  0.10566000000E+00  0.10566000000E+00 0. -1.
     999900   -1    0    0    0    0 -0.00000000000E+00 -0.00000000000E+00 -0.74505805969E-08  0.93827000000E+00  0.93827000000E+00 0. -1.
     999902    2    1    2    0    0 -0.21139043357E-01 -0.53368538280E-02  0.80982902381E-02  0.10206722386E+01  0.10204072202E+01 0.  0.
     999903    2    3    3    0    0 -0.77806430174E-01 -0.10059764561E+00 -0.32799487783E-01  0.13277672700E+00  0.19496819115E-01 0.  0.
         14    1    1    2    0    0  0.21139043357E-01  0.53368538280E-02 -0.80982902381E-02  0.23257761449E-01  0.00000000000E+00 0.  1.
     999901    1    3    3    0    0  0.56667386817E-01  0.95260791784E-01  0.40897778021E-01  0.88789551155E+00  0.88000000000E+00 0.  1.
        -11    1    4    4    0    0 -0.40492857834E-01 -0.65256178340E-01 -0.14097725598E-01  0.78083591971E-01  0.51100000000E-03 0. -1.
         11    1    4    4    0    0 -0.37313572341E-01 -0.35341467272E-01 -0.18701762185E-01  0.54693135032E-01  0.51100000000E-03 0.  1.
</event>
<event>
 8    1  0.1122848E+005  0.1043930E+01  0.7957747E-01            NaN
         13   -1    0    0    0    0  0.00000000000E+00  0.00000000000E+00  0.74505805969E-08  0.10566000000E+00  0.10566000000E+00 0.  1.
     999900   -1    0    0    0    0 -0.00000000000E+00 -0.00000000000E+00 -0.74505805969E-08  0.93827000000E+00  0.93827000000E+00 0. -1.
     999902    2    1    2    0    0  0.17895453792E-01 -0.12938381540E-01 -0.13970436671E-01  0.10177991354E+01  0.10174636396E+01 0.  0.
     999903    2    3    3    0    0  0.32891410885E-01 -0.92139837636E-01 -0.85773681455E-01  0.13120257816E+00  0.16893711701E-01 0.  0.
         14    1    1    2    0    0 -0.17895453792E-01  0.12938381540E-01  0.13970436671E-01  0.26130864587E-01  0.00000000000E+00 0.  1.
     999901    1    3    3    0    0 -0.14995957093E-01  0.79201456096E-01  0.71803244784E-01  0.88659655726E+00  0.88000000000E+00 0.  1.
        -11    1    4    4    0    0  0.17998785992E-01 -0.39217848866E-01 -0.47716557871E-01  0.64336047306E-01  0.51100000000E-03 0.  1.
         11    1    4    4    0    0  0.14892624893E-01 -0.52921988769E-01 -0.38057123584E-01  0.66866530851E-01  0.51100000000E-03 0. -1.
</event>
<event>
 8    1  0.1122848E+005  0.1043930E+01  0.7957747E-01            NaN
         13   -1    0    0    0    0  0.00000000000E+00  0.00000000000E+00  0.74505805969E-08  0.10566000000E+00  0.10566000000E+00 0.  1.
     999900   -1    0    0    0    0 -0.00000000000E+00 -0.00000000000E+00 -0.74505805969E-08  0.93827000000E+00  0.93827000000E+00 0.  1.
     999902    2    1    2    0    0 -0.25808379668E-02 -0.19020585400E-01  0.14372360204E-01  0.10199506728E+01  0.10196687535E+01 0.  0.
     999903    2    3    3    0    0  0.75172726074E-01 -0.82530401097E-01  0.68820841531E-01  0.13257039892E+00  0.19400943023E-01 0.  0.
         14    1    1    2    0    0  0.25808379668E-02  0.19020585400E-01 -0.14372360204E-01  0.23979327167E-01  0.00000000000E+00 0. -1.
     999901    1    3    3    0    0 -0.77753564041E-01  0.63509815697E-01 -0.54448481326E-01  0.88738027391E+00  0.88000000000E+00 0. -1.
        -11    1    4    4    0    0  0.56215351567E-01 -0.48707760502E-01  0.48422933351E-01  0.88756145028E-01  0.51100000000E-03 0. -1.
         11    1    4    4    0    0  0.18957374507E-01 -0.33822640594E-01  0.20397908180E-01  0.43814253892E-01  0.51100000000E-03 0.  1.
</event>
<event>
 8    1  0.1122848E+005  0.1043930E+01  0.7957747E-01            NaN
         13   -1    0    0    0    0  0.00000000000E+00  0.00000000000E+00  0.74505805969E-08  0.10566000000E+00  0.10566000000E+00 0.  1.
     999900   -1    0    0    0    0 -0.00000000000E+00 -0.00000000000E+00 -0.74505805969E-08  0.93827000000E+00  0.93827000000E+00 0. -1.
     999902    2    1    2    0    0 -0.39430455252E-02 -0.21151991922E-01  0.13954631981E-01  0.10182846081E+01  0.10179616186E+01 0.  0.
     999903    2    3    3    0    0  0.11887738757E+00  0.41003465099E-01  0.83752984585E-02  0.12756619663E+00  0.19745163317E-01 0.  0.
         14    1    1    2    0    0  0.39430455252E-02  0.21151991922E-01 -0.13954631981E-01  0.25645391866E-01  0.00000000000E+00 0. -1.
     999901    1    3    3    0    0 -0.12282043309E+00 -0.62155457020E-01  0.55793335222E-02  0.89071841150E+00  0.88000000000E+00 0. -1.
        -11    1    4    4    0    0  0.11101299891E+00  0.33404582374E-01  0.47299933975E-02  0.11602752264E+00  0.51100000000E-03 0.  1.
         11    1    4    4    0    0  0.78643886541E-02  0.75988827243E-02  0.36453050610E-02  0.11538673994E-01  0.51100000000E-03 0. -1.
</event>
<event>
 8    1  0.1122848E+005  0.1043930E+01  0.7957747E-01            NaN
         13   -1    0    0    0    0  0.00000000000E+00  0.00000000000E+00  0.74505805969E-08  0.10566000000E+00  0.10566000000E+00 0. -1.
     999900   -1    0    0    0    0 -0.00000000000E+00 -0.00000000000E+00 -0.74505805969E-08  0.93827000000E+00  0.93827000000E+00 0.  1.
     999902    2    1    2    0    0  0.15555002421E-01  0.16170443344E-01 -0.64943579791E-02  0.10205715321E+01  0.10203041870E+01 0.  0.
     999903    2    3    3    0    0  0.83104976568E-01  0.72045023981E-01  0.71684607943E-01  0.13276698237E+00  0.19785499240E-01 0.  0.
         14    1    1    2    0    0 -0.15555002421E-01 -0.16170443344E-01  0.64943579791E-02  0.23358467925E-01  0.00000000000E+00 0. -1.
     999901    1    3    3    0    0 -0.67549974147E-01 -0.55874580637E-01 -0.78178965923E-01  0.88780454971E+00  0.88000000000E+00 0. -1.
        -11    1    4    4    0    0  0.41067112378E-01  0.29761549618E-01  0.22562179163E-01  0.55511896061E-01  0.51100000000E-03 0. -1.
         11    1    4    4    0    0  0.42037864190E-01  0.42283474363E-01  0.49122428781E-01  0.77255086306E-01  0.51100000000E-03 0.  1.
</event>
<event>
 8    1  0.1122848E+005  0.1043930E+01  0.7957747E-01            NaN
         13   -1    0    0    0    0  0.00000000000E+00  0.00000000000E+00  0.74505805969E-08  0.10566000000E+00  0.10566000000E+00 0.  1.
     999900   -1    0    0    0    0 -0.00000000000E+00 -0.00000000000E+00 -0.74505805969E-08  0.93827000000E+00  0.93827000000E+00 0.  1.
     999902    2    1    2    0    0 -0.16941205555E-01 -0.14255831230E-01 -0.55963290199E-02  0.10210924855E+01  0.10208370643E+01 0.  0.
     999903    2    3    3    0    0  0.25916133113E-01  0.25351213083E-01 -0.12444531245E+00  0.13118768706E+00  0.20229767326E-01 0.  0.
         14    1    1    2    0    0  0.16941205555E-01  0.14255831230E-01  0.55963290199E-02  0.22837514493E-01  0.00000000000E+00 0. -1.
     999901    1    3    3    0    0 -0.42857338669E-01 -0.39607044313E-01  0.11884898343E+00  0.88990479845E+00  0.88000000000E+00 0. -1.
        -11    1    4    4    0    0  0.19103103812E-01  0.54419332364E-02 -0.49398348929E-01  0.53244729415E-01  0.51100000000E-03 0.  1.
         11    1    4    4    0    0  0.68130293009E-02  0.19909279847E-01 -0.75046963517E-01  0.77942957645E-01  0.51100000000E-03 0. -1.
</event>
<event>
 8    1  0.1122848E+005  0.1043930E+01  0.7957747E-01            NaN
         13   -1    0    0    0    0  0.00000000000E+00  0.00000000000E+00  0.74505805969E-08  0.10566000000E+00  0.10566000000E+00 0.  1.
     999900   -1    0    0    0    0 -0.00000000000E+00 -0.00000000000E+00 -0.74505805969E-08  0.93827000000E+00  0.93827000000E+00 0.  1.
     999902    2    1    2    0    0  0.20271645470E-01 -0.20549160242E-03 -0.11099387475E-01  0.10208177037E+01  0.10205560279E+01 0.  0.
     999903    2    3    3    0    0  0.83007958332E-01  0.10083561856E+00  0.10830793496E-01  0.13254630166E+00  0.19826065623E-01 0.  0.
         14    1    1    2    0    0 -0.20271645470E-01  0.20549160242E-03  0.11099387475E-01  0.23112296276E-01  0.00000000000E+00 0.  1.
     999901    1    3    3    0    0 -0.62736312863E-01 -0.10104111016E+00 -0.21930180971E-01  0.88827140207E+00  0.88000000000E+00 0.  1.
        -11    1    4    4    0    0  0.35259772057E-01  0.40482419596E-01 -0.51897462362E-02  0.53937671519E-01  0.51100000000E-03 0.  1.
         11    1    4    4    0    0  0.47748186275E-01  0.60353198964E-01  0.16020539732E-01  0.78608630137E-01  0.51100000000E-03 0. -1.
</event>
<event>
 8    1  0.1122848E+005  0.1043930E+01  0.7957747E-01            NaN
         13   -1    0    0    0    0  0.00000000000E+00  0.00000000000E+00  0.74505805969E-08  0.10566000000E+00  0.10566000000E+00 0. -1.
     999900   -1    0    0    0    0 -0.00000000000E+00 -0.00000000000E+00 -0.74505805969E-08  0.93827000000E+00  0.93827000000E+00 0.  1.
     999902    2    1    2    0    0 -0.57502985392E-03 -0.97456098406E-02  0.21116505663E-01  0.10206659853E+01  0.10204008228E+01 0.  0.
     999903    2    3    3    0    0 -0.71036677922E-01  0.24426911328E-01  0.10777250790E+00  0.13294876239E+00  0.20434685065E-01 0.  0.
         14    1    1    2    0    0  0.57502985392E-03  0.97456098406E-02 -0.21116505663E-01  0.23264014742E-01  0.00000000000E+00 0.  1.
     999901    1    3    3    0    0  0.70461648068E-01 -0.34172521169E-01 -0.86656002242E-01  0.88771722287E+00  0.88000000000E+00 0.  1.
        -11    1    4    4    0    0 -0.31667199609E-01  0.16914890097E-01  0.36637582336E-01  0.51298134454E-01  0.51100000000E-03 0.  1.
         11    1    4    4    0    0 -0.39369478314E-01  0.75120212311E-02  0.71134925569E-01  0.81650627936E-01  0.51100000000E-03 0. -1.
</event>
<event>
 8    1  0.1382263E+005  0.1043930E+01  0.7957747E-01            NaN
         13   -1    0    0    0    0  0.00000000000E+00  0.00000000000E+00  0.74505805969E-08  0.10566000000E+00  0.10566000000E+00 0.  1.
     999900   -1    0    0    0    0 -0.00000000000E+00 -0.00000000000E+00 -0.74505805969E-08  0.93827000000E+00  0.93827000000E+00 0. -1.
     999902    2    1    2    0    0  0.14615787392E-01 -0.16160860559E-01  0.10132366166E-01  0.10198996130E+01  0.10196164775E+01 0.  0.
     999903    2    3    3    0    0  0.19159682233E-01  0.11164850434E+00  0.58685982502E-01  0.12933050597E+00  0.21209745128E-01 0.  0.
         14    1    1    2    0    0 -0.14615787392E-01  0.16160860559E-01 -0.10132366166E-01  0.24030386996E-01  0.00000000000E+00 0. -1.
     999901    1    3    3    0    0 -0.45438948410E-02 -0.12780936490E+00 -0.48553616336E-01  0.89056910703E+00  0.88000000000E+00 0.  1.
        -11    1    4    4    0    0 -0.34170256946E-02  0.39427907884E-01  0.20423843229E-01  0.44537966702E-01  0.51100000000E-03 0.  1.
         11    1    4    4    0    0  0.22576707927E-01  0.72220596457E-01  0.38262139273E-01  0.84792539272E-01  0.51100000000E-03 0. -1.
</event>
<event>
 8    1  0.1122848E+005  0.1043930E+01  0.7957747E-01            NaN
         13   -1    0    0    0    0  0.00000000000E+00  0.00000000000E+00  0.74505805969E-08  0.10566000000E+00  0.10566000000E+00 0.  1.
     999900   -1    0    0    0    0 -0.00000000000E+00 -0.00000000000E+00 -0.74505805969E-08  0.93827000000E+00  0.93827000000E+00 0. -1.
     999902    2    1    2    0    0 -0.91237235521E-03 -0.21809818975E-01  0.84322658886E-02  0.10205290655E+01  0.10202607362E+01 0.  0.
     999903    2    3    3    0    0  0.67809160336E-01  0.42271217484E-03  0.11142973186E+00  0.13158282839E+00  0.17297244651E-01 0.  0.
         14    1    1    2    0    0  0.91237235521E-03  0.21809818975E-01 -0.84322658886E-02  0.23400934491E-01  0.00000000000E+00 0.  1.
     999901    1    3    3    0    0 -0.68721532692E-01 -0.22232531150E-01 -0.10299746597E+00  0.88894623712E+00  0.88000000000E+00 0. -1.
        -11    1    4    4    0    0  0.37700660706E-01  0.58217296214E-02  0.73873249254E-01  0.83142951774E-01  0.51100000000E-03 0.  1.
         11    1    4    4    0    0  0.30108499630E-01 -0.53990174466E-02  0.37556482607E-01  0.48439876612E-01  0.51100000000E-03 0. -1.
</event>
<event>
 8    1  0.1122848E+005  0.1043930E+01  0.7957747E-01            NaN
         13   -1    0    0    0    0  0.00000000000E+00  0.00000000000E+00  0.74505805969E-08  0.10566000000E+00  0.10566000000E+00 0. -1.
     999900   -1    0    0    0    0 -0.00000000000E+00 -0.00000000000E+00 -0.74505805969E-08  0.93827000000E+00  0.93827000000E+00 0.  1.
     999902    2    1    2    0    0 -0.16072778032E-01  0.15615744114E-01 -0.75676913765E-02  0.10202771860E+01  0.10200029807E+01 0.  0.
     999903    2    3    3    0    0 -0.59206554714E-01  0.91055197863E-01 -0.74541161363E-01  0.13346430857E+00  0.21444620439E-01 0.  0.
         14    1    1    2    0    0  0.16072778032E-01 -0.15615744114E-01  0.75676913765E-02  0.23652814012E-01  0.00000000000E+00 0. -1.
     999901    1    3    3    0    0  0.43133776682E-01 -0.75439453750E-01  0.66973469986E-01  0.88681287742E+00  0.88000000000E+00 0. -1.
        -11    1    4    4    0    0 -0.30604243032E-01  0.28816560264E-01 -0.31978810311E-01  0.52819686358E-01  0.51100000000E-03 0. -1.
         11    1    4    4    0    0 -0.28602311682E-01  0.62238637599E-01 -0.42562351052E-01  0.80644622212E-01  0.51100000000E-03 0.  1.
</event>
<event>
 8    1  0.1122848E+005  0.1043930E+01  0.7957747E-01            NaN
         13   -1    0    0    0    0  0.00000000000E+00  0.00000000000E+00  0.74505805969E-08  0.10566000000E+00  0.10566000000E+00 0.  1.
     999900   -1    0    0    0    0 -0.00000000000E+00 -0.00000000000E+00 -0.74505805969E-08  0.93827000000E+00  0.93827000000E+00 0. -1.
     999902    2    1    2    0    0  0.14881270712E-01 -0.51420532485E-02  0.18338162502E-01  0.10197601607E+01  0.10194736898E+01 0.  0.
     999903    2    3    3    0    0  0.16245500974E-01  0.12075731098E+00 -0.36936800294E-01  0.12908186153E+00  0.21249830629E-01 0.  0.
         14    1    1    2    0    0 -0.14881270712E-01  0.51420532485E-02 -0.18338162502E-01  0.24169839337E-01  0.00000000000E+00 0. -1.
     999901    1    3    3    0    0 -0.13642302623E-02 -0.12589936423E+00  0.55274962796E-01  0.89067829914E+00  0.88000000000E+00 0.  1.
        -11    1    4    4    0    0  0.16984383105E-01  0.10771339110E+00 -0.39071593146E-01  0.11583390870E+00  0.51100000000E-03 0. -1.
         11    1    4    4    0    0 -0.73888213057E-03  0.13043919883E-01  0.21347928526E-02  0.13247952832E-01  0.51100000000E-03 0.  1.
</event>
<event>
 8    1  0.1122848E+005  0.1043930E+01  0.7957747E-01            NaN
         13   -1    0    0    0    0  0.00000000000E+00  0.00000000000E+00  0.74505805969E-08  0.10566000000E+00  0.10566000000E+00 0. -1.
     999900   -1    0    0    0    0 -0.00000000000E+00 -0.00000000000E+00 -0.74505805969E-08  0.93827000000E+00  0.93827000000E+00 0.  1.
     999902    2    1    2    0    0  0.66781259380E-02 -0.24923792692E-02  0.21704112770E-01  0.10210853544E+01  0.10208297719E+01 0.  0.
     999903    2    3    3    0    0 -0.71866240091E-01 -0.92652472181E-01 -0.51762408447E-01  0.12996505417E+00  0.21501890849E-01 0.  0.
         14    1    1    2    0    0 -0.66781259380E-02  0.24923792692E-02 -0.21704112770E-01  0.22844645578E-01  0.00000000000E+00 0.  1.
     999901    1    3    3    0    0  0.78544366029E-01  0.90160092911E-01  0.73466521217E-01  0.89112030026E+00  0.88000000000E+00 0. -1.
        -11    1    4    4    0    0 -0.65322343239E-01 -0.73785618369E-01 -0.37594407004E-01  0.10547476742E+00  0.51100000000E-03 0.  1.
         11    1    4    4    0    0 -0.65438968520E-02 -0.18866853811E-01 -0.14168001444E-01  0.24490286741E-01  0.51100000000E-03 0. -1.
</event>
<event>
 8    1  0.1122848E+005  0.1043930E+01  0.7957747E-01            NaN
         13   -1    0    0    0    0  0.00000000000E+00  0.00000000000E+00  0.74505805969E-08  0.10566000000E+00  0.10566000000E+00 0.  1.
     999900   -1    0    0    0    0 -0.00000000000E+00 -0.00000000000E+00 -0.74505805969E-08  0.93827000000E+00  0.93827000000E+00 0. -1.
     999902    2    1    2    0    0 -0.25749219502E-03 -0.20535176616E-01  0.11774037034E-01  0.10202574900E+01  0.10199828225E+01 0.  0.
     999903    2    3    3    0    0  0.50751154013E-02 -0.19870419060E-01 -0.12622701309E+00  0.12948638112E+00  0.20319294052E-01 0.  0.
         14    1    1    2    0    0  0.25749219502E-03  0.20535176616E-01 -0.11774037034E-01  0.23672509985E-01  0.00000000000E+00 0. -1.
     999901    1    3    3    0    0 -0.53326075963E-02 -0.66475755669E-03  0.13800105013E+00  0.89077110890E+00  0.88000000000E+00 0.  1.
        -11    1    4    4    0    0 -0.53531150901E-02 -0.13443094892E-01 -0.91942958663E-01  0.93075998035E-01  0.51100000000E-03 0.  1.
         11    1    4    4    0    0  0.10428230491E-01 -0.64273241683E-02 -0.34284054431E-01  0.36410383085E-01  0.51100000000E-03 0. -1.
</event>
<event>
 8    1  0.1122848E+005  0.1043930E+01  0.7957747E-01            NaN
         13   -1    0    0    0    0  0.00000000000E+00  0.00000000000E+00  0.74505805969E-08  0.10566000000E+00  0.10566000000E+00 0.  1.
     999900   -1    0    0    0    0 -0.00000000000E+00 -0.00000000000E+00 -0.74505805969E-08  0.93827000000E+00  0.93827000000E+00 0.  1.
     999902    2    1    2    0    0  0.13441295515E-02 -0.14272004058E-01  0.18573223364E-01  0.10204680860E+01  0.10201983401E+01 0.  0.
     999903    2    3    3    0    0 -0.69404789960E-01  0.84921153444E-01  0.68331289280E-01  0.13068128159E+00  0.19488588784E-01 0.  0.
         14    1    1    2    0    0 -0.13441295515E-02  0.14272004058E-01 -0.18573223364E-01  0.23461914036E-01  0.00000000000E+00 0. -1.
     999901    1    3    3    0    0  0.70748919512E-01 -0.99193157502E-01 -0.49758065915E-01  0.88978680437E+00  0.88000000000E+00 0.  1.
        -11    1    4    4    0    0 -0.55237030880E-01  0.61987279441E-01  0.42215466700E-01  0.93144828856E-01  0.51100000000E-03 0. -1.
         11    1    4    4    0    0 -0.14167759080E-01  0.22933874002E-01  0.26115822580E-01  0.37536452738E-01  0.51100000000E-03 0.  1.
</event>
<event>
 8    1  0.1122848E+005  0.1043930E+01  0.7957747E-01            NaN
         13   -1    0    0    0    0  0.00000000000E+00  0.00000000000E+00  0.74505805969E-08  0.10566000000E+00  0.10566000000E+00 0. -1.
     999900   -1    0    0    0    0 -0.00000000000E+00 -0.00000000000E+00 -0.74505805969E-08  0.93827000000E+00  0.93827000000E+00 0. -1.
     999902    2    1    2    0    0 -0.25084131419E-02 -0.22263043140E-01 -0.53538929891E-02  0.10208952568E+01  0.10206353540E+01 0.  0.
     999903    2    3    3    0    0  0.12213042912E+00  0.35215678855E-01  0.19015427844E-01  0.12992246913E+00  0.19033542359E-01 0.  0.
         14    1    1    2    0    0  0.25084131419E-02  0.22263043140E-01  0.53538929891E-02  0.23034743247E-01  0.00000000000E+00 0. -1.
     999901    1    3    3    0    0 -0.12463884226E+00 -0.57478721995E-01 -0.24369320834E-01  0.89097278762E+00  0.88000000000E+00 0. -1.
        -11    1    4    4    0    0  0.55130696584E-01  0.16754350212E-01 -0.89015520885E-03  0.57629466891E-01  0.51100000000E-03 0.  1.
         11    1    4    4    0    0  0.66999732537E-01  0.18461328643E-01  0.19905583053E-01  0.72293002241E-01  0.51100000000E-03 0. -1.
</event>
<event>
 8    1  0.1122848E+005  0.1043930E+01  0.7957747E-01            NaN
         13   -1    0    0    0    0  0.00000000000E+00  0.00000000000E+00  0.74505805969E-08  0.10566000000E+00  0.10566000000E+00 0.  1.
     999900   -1    0    0    0    0 -0.00000000000E+00 -0.00000000000E+00 -0.74505805969E-08  0.93827000000E+00  0.93827000000E+00 0.  1.
     999902    2    1    2    0    0 -0.19102661552E-01 -0.12603785531E-01  0.13513488644E-01  0.10173521622E+01  0.10170049363E+01 0.  0.
     999903    2    3    3    0    0 -0.47343405982E-02  0.62364651228E-01  0.11067734496E+00  0.12871976904E+00  0.20187633598E-01 0.  0.
         14    1    1    2    0    0  0.19102661552E-01  0.12603785531E-01 -0.13513488644E-01  0.26577837824E-01  0.00000000000E+00 0. -1.
     999901    1    3    3    0    0 -0.14368320954E-01 -0.74968436759E-01 -0.97163856317E-01  0.88863239314E+00  0.88000000000E+00 0.  1.
        -11    1    4    4    0    0 -0.94067638581E-04  0.42983686443E-01  0.56518853153E-01  0.71008788412E-01  0.51100000000E-03 0.  1.
         11    1    4    4    0    0 -0.46402729596E-02  0.19380964785E-01  0.54158491807E-01  0.57710980627E-01  0.51100000000E-03 0. -1.
</event>
<event>
 8    1  0.1122848E+005  0.1043930E+01  0.7957747E-01            NaN
         13   -1    0    0    0    0  0.00000000000E+00  0.00000000000E+00  0.74505805969E-08  0.10566000000E+00  0.10566000000E+00 0. -1.
     999900   -1    0    0    0    0 -0.00000000000E+00 -0.00000000000E+00 -0.74505805969E-08  0.93827000000E+00  0.93827000000E+00 0. -1.
     999902    2    1    2    0    0 -0.79980066188E-02 -0.22486978036E-01  0.12302742360E-02  0.10200313418E+01  0.10197513385E+01 0.  0.
     999903    2    3    3    0    0 -0.18569388346E-01  0.84468904699E-01  0.92968824404E-01  0.12875850107E+00  0.21347862703E-01 0.  0.
         14    1    1    2    0    0  0.79980066188E-02  0.22486978036E-01 -0.12302742360E-02  0.23898658242E-01  0.00000000000E+00 0.  1.
     999901    1    3    3    0    0  0.10571381727E-01 -0.10695588273E+00 -0.91738550168E-01  0.89127284069E+00  0.88000000000E+00 0. -1.
        -11    1    4    4    0    0 -0.13241593286E-01  0.18822459652E-01  0.27939766764E-01  0.36201056172E-01  0.51100000000E-03 0. -1.
         11    1    4    4    0    0 -0.53277950597E-02  0.65646445046E-01  0.65029057640E-01  0.92557444897E-01  0.51100000000E-03 0.  1.
</event>
<event>
 8    1  0.1122848E+005  0.1043930E+01  0.7957747E-01            NaN
         13   -1    0    0    0    0  0.00000000000E+00  0.00000000000E+00  0.74505805969E-08  0.10566000000E+00  0.10566000000E+00 0. -1.
     999900   -1    0    0    0    0 -0.00000000000E+00 -0.00000000000E+00 -0.74505805969E-08  0.93827000000E+00  0.93827000000E+00 0. -1.
     999902    2    1    2    0    0 -0.24989733469E-01 -0.16970395203E-01  0.76253152117E-02  0.10127751204E+01  0.10122958154E+01 0.  0.
     999903    2    3    3    0    0 -0.23009128222E-01  0.10370263764E-01 -0.11895640510E+00  0.12329529129E+00  0.20350434613E-01 0.  0.
         14    1    1    2    0    0  0.24989733469E-01  0.16970395203E-01 -0.76253152117E-02  0.31154879622E-01  0.00000000000E+00 0. -1.
     999901    1    3    3    0    0 -0.19806052467E-02 -0.27340658967E-01  0.12658172031E+00  0.88947982908E+00  0.88000000000E+00 0.  1.
        -11    1    4    4    0    0 -0.62208659400E-02  0.64222291202E-02 -0.82248788155E-01  0.82734928983E-01  0.51100000000E-03 0. -1.
         11    1    4    4    0    0 -0.16788262282E-01  0.39480346436E-02 -0.36707616945E-01  0.40560362311E-01  0.51100000000E-03 0.  1.
</event>
<event>
 8    1  0.1122848E+005  0.1043930E+01  0.7957747E-01            NaN
         13   -1    0    0    0    0  0.00000000000E+00  0.00000000000E+00  0.74505805969E-08  0.10566000000E+00  0.10566000000E+00 0.  1.
     999900   -1    0    0    0    0 -0.00000000000E+00 -0.00000000000E+00 -0.74505805969E-08  0.93827000000E+00  0.93827000000E+00 0.  1.
     999902    2    1    2    0    0  0.31205579253E-02  0.22973406270E-01  0.37183250762E-02  0.10204493437E+01  0.10201791617E+01 0.  0.
     999903    2    3    3    0    0  0.10619914773E+00  0.34204075209E-01 -0.66736616422E-01  0.13156508671E+00  0.20184606244E-01 0.  0.
         14    1    1    2    0    0 -0.31205579253E-02 -0.22973406270E-01 -0.37183250762E-02  0.23480656268E-01  0.00000000000E+00 0.  1.
     999901    1    3    3    0    0 -0.10307858981E+00 -0.11230668939E-01  0.70454941498E-01  0.88888425702E+00  0.88000000000E+00 0. -1.
        -11    1    4    4    0    0  0.28419995012E-01  0.14272048623E-01 -0.10343053757E-01  0.33445887198E-01  0.51100000000E-03 0. -1.
         11    1    4    4    0    0  0.77779152720E-01  0.19932026585E-01 -0.56393562665E-01  0.98119199511E-01  0.51100000000E-03 0.  1.
</event>
<event>
 8    1  0.1122848E+005  0.1043930E+01  0.7957747E-01            NaN
         13   -1    0    0    0    0  0.00000000000E+00  0.00000000000E+00  0.74505805969E-08  0.10566000000E+00  0.10566000000E+00 0. -1.
     999900   -1    0    0    0    0 -0.00000000000E+00 -0.00000000000E+00 -0.74505805969E-08  0.93827000000E+00  0.93827000000E+00 0.  1.
     999902    2    1    2    0    0  0.24202446823E-01 -0.14075218748E-02 -0.18393663448E-02  0.10196169825E+01  0.10193270664E+01 0.  0.
     999903    2    3    3    0    0  0.95169529923E-01  0.76100112046E-01  0.46894843497E-01  0.13202541913E+00  0.19573412361E-01 0.  0.
         14    1    1    2    0    0 -0.24202446823E-01  0.14075218748E-02  0.18393663448E-02  0.24313017472E-01  0.00000000000E+00 0. -1.
     999901    1    3    3    0    0 -0.70967083100E-01 -0.77507633921E-01 -0.48734209842E-01  0.88759156339E+00  0.88000000000E+00 0.  1.
        -11    1    4    4    0    0  0.52459071451E-01  0.49522992424E-01  0.35674587754E-01  0.80482409808E-01  0.51100000000E-03 0.  1.
         11    1    4    4    0    0  0.42710458473E-01  0.26577119622E-01  0.11220255743E-01  0.51543009325E-01  0.51100000000E-03 0. -1.
</event>
<event>
 8    1  0.1122848E+005  0.1043930E+01  0.7957747E-01            NaN
         13   -1    0    0    0    0  0.00000000000E+00  0.00000000000E+00  0.74505805969E-08  0.10566000000E+00  0.10566000000E+00 0. -1.
     999900   -1    0    0    0    0 -0.00000000000E+00 -0.00000000000E+00 -0.74505805969E-08  0.93827000000E+00  0.93827000000E+00 0.  1.
     999902    2    1    2    0    0 -0.20697530018E-01  0.20440924996E-02 -0.11079427062E-01  0.10203647763E+01  0.10200926218E+01 0.  0.
     999903    2    3    3    0    0 -0.98123813405E-01  0.28807418792E-01  0.79901169872E-01  0.13188935516E+00  0.23504359648E-01 0.  0.
         14    1    1    2    0    0  0.20697530018E-01 -0.20440924996E-02  0.11079427062E-01  0.23565223678E-01  0.00000000000E+00 0.  1.
     999901    1    3    3    0    0  0.77426283387E-01 -0.26763326292E-01 -0.90980596934E-01  0.88847542116E+00  0.88000000000E+00 0.  1.
        -11    1    4    4    0    0 -0.34632254278E-01  0.52571147755E-02  0.40465600730E-01  0.53523417824E-01  0.51100000000E-03 0.  1.
         11    1    4    4    0    0 -0.63491559127E-01  0.23550304016E-01  0.39435569142E-01  0.78365937334E-01  0.51100000000E-03 0. -1.
</event>
<event>
 8    1  0.1122848E+005  0.1043930E+01  0.7957747E-01            NaN
         13   -1    0    0    0    0  0.00000000000E+00  0.00000000000E+00  0.74505805969E-08  0.10566000000E+00  0.10566000000E+00 0.  1.
     999900   -1    0    0    0    0 -0.00000000000E+00 -0.00000000000E+00 -0.74505805969E-08  0.93827000000E+00  0.93827000000E+00 0. -1.
     999902    2    1    2    0    0 -0.11309756776E-01 -0.33460120611E-02  0.19985662268E-01  0.10207236842E+01  0.10204598505E+01 0.  0.
     999903    2    3    3    0    0 -0.71224854927E-01 -0.65953125069E-01  0.89715612346E-01  0.13372214223E+00  0.20246618432E-01 0.  0.
         14    1    1    2    0    0  0.11309756776E-01  0.33460120611E-02 -0.19985662268E-01  0.23206315764E-01  0.00000000000E+00 0. -1.
     999901    1    3    3    0    0  0.59915098150E-01  0.62607113008E-01 -0.69729950078E-01  0.88700154201E+00  0.88000000000E+00 0. -1.
        -11    1    4    4    0    0 -0.44062023250E-01 -0.27034950631E-01  0.46679245682E-01  0.69653166094E-01  0.51100000000E-03 0.  1.
         11    1    4    4    0    0 -0.27162831677E-01 -0.38918174438E-01  0.43036366664E-01  0.64068976135E-01  0.51100000000E-03 0. -1.
</event>
<event>
 8    1  0.1122848E+005  0.1043930E+01  0.7957747E-01            NaN
         13   -1    0    0    0    0  0.00000000000E+00  0.00000000000E+00  0.74505805969E-08  0.10566000000E+00  0.10566000000E+00 0. -1.
     999900   -1    0    0    0    0 -0.00000000000E+00 -0.00000000000E+00 -0.74505805969E-08  0.93827000000E+00  0.93827000000E+00 0. -1.
     999902    2    1    2    0    0  0.80059473105E-02  0.11830226485E-01  0.19101902180E-01  0.10200777020E+01  0.10197987969E+01 0.  0.
     999903    2    3    3    0    0  0.41907585509E-01  0.10292204655E+00 -0.65944422518E-01  0.13065096639E+00  0.19282499001E-01 0.  0.
         14    1    1    2    0    0 -0.80059473105E-02 -0.11830226485E-01 -0.19101902180E-01  0.23852297959E-01  0.00000000000E+00 0.  1.
     999901    1    3    3    0    0 -0.33901638198E-01 -0.91091820061E-01  0.85046324698E-01  0.88942673566E+00  0.88000000000E+00 0.  1.
        -11    1    4    4    0    0  0.33217204611E-01  0.61818955144E-01 -0.34686723608E-01  0.78284071259E-01  0.51100000000E-03 0.  1.
         11    1    4    4    0    0  0.86903808974E-02  0.41103091403E-01 -0.31257698910E-01  0.52366895126E-01  0.51100000000E-03 0. -1.
</event>
<event>
 8    1  0.1122848E+005  0.1043930E+01  0.7957747E-01            NaN
         13   -1    0    0    0    0  0.00000000000E+00  0.00000000000E+00  0.74505805969E-08  0.10566000000E+00  0.10566000000E+00 0. -1.
     999900   -1    0    0    0    0 -0.00000000000E+00 -0.00000000000E+00 -0.74505805969E-08  0.93827000000E+00  0.93827000000E+00 0.  1.
     999902    2    1    2    0    0  0.33587666543E-02 -0.95108904527E-02  0.19819158469E-01  0.10216918033E+01  0.10214497557E+01 0.  0.
     999903    2    3    3    0    0  0.48033734774E-01 -0.73724552573E-01  0.99737798350E-01  0.13461444692E+00  0.20757446165E-01 0.  0.
         14    1    1    2    0    0 -0.33587666543E-02  0.95108904527E-02 -0.19819158469E-01  0.22238196713E-01  0.00000000000E+00 0.  1.
     999901    1    3    3    0    0 -0.44674968120E-01  0.64213662120E-01 -0.79918639881E-01  0.88707735637E+00  0.88000000000E+00 0.  1.
        -11    1    4    4    0    0  0.41856477224E-01 -0.54023092645E-01  0.65701569338E-01  0.94801986050E-01  0.51100000000E-03 0.  1.
         11    1    4    4    0    0  0.61772575500E-02 -0.19701459928E-01  0.34036229012E-01  0.39812460869E-01  0.51100000000E-03 0. -1.
</event>
<event>
 8    1  0.1122848E+005  0.1043930E+01  0.7957747E-01            NaN
         13   -1    0    0    0    0  0.00000000000E+00  0.00000000000E+00  0.74505805969E-08  0.10566000000E+00  0.10566000000E+00 0. -1.
     999900   -1    0    0    0    0 -0.00000000000E+00 -0.00000000000E+00 -0.74505805969E-08  0.93827000000E+00  0.93827000000E+00 0.  1.
     999902    2    1    2    0    0 -0.13090916432E-03 -0.46756260324E-02  0.22587730429E-01  0.10208630500E+01  0.10206024117E+01 0.  0.
     999903    2    3    3    0    0  0.12053184277E+00  0.23300425789E-01 -0.38472348459E-01  0.13009344320E+00  0.19322199756E-01 0.  0.
         14    1    1    2    0    0  0.13090916432E-03  0.46756260324E-02 -0.22587730429E-01  0.23066949992E-01  0.00000000000E+00 0.  1.
     999901    1    3    3    0    0 -0.12066275194E+00 -0.27976051822E-01  0.61060078888E-01  0.89076960681E+00  0.88000000000E+00 0. -1.
        -11    1    4    4    0    0  0.10140494429E+00  0.26615564676E-01 -0.31724263099E-01  0.10953556957E+00  0.51100000000E-03 0.  1.
         11    1    4    4    0    0  0.19126898480E-01 -0.33151388865E-02 -0.67480853600E-02  0.20557873633E-01  0.51100000000E-03 0. -1.
</event>
<event>
 8    1  0.1122848E+005  0.1043930E+01  0.7957747E-01            NaN
         13   -1    0    0    0    0  0.00000000000E+00  0.00000000000E+00  0.74505805969E-08  0.10566000000E+00  0.10566000000E+00 0.  1.
     999900   -1    0    0    0    0 -0.00000000000E+00 -0.00000000000E+00 -0.74505805969E-08  0.93827000000E+00  0.93827000000E+00 0.  1.
     999902    2    1    2    0    0  0.60362064721E-02 -0.11795287071E-01 -0.18297854922E-01  0.10213384954E+01  0.10210886083E+01 0.  0.
     999903    2    3    3    0    0  0.94029860027E-01 -0.43030624368E-01 -0.82839714543E-01  0.13404813649E+00  0.20328191759E-01 0.  0.
         14    1    1    2    0    0 -0.60362064721E-02  0.11795287071E-01  0.18297854922E-01  0.22591504607E-01  0.00000000000E+00 0.  1.
     999901    1    3    3    0    0 -0.87993653555E-01  0.31235337297E-01  0.64541859622E-01  0.88729035890E+00  0.88000000000E+00 0. -1.
        -11    1    4    4    0    0  0.69181397384E-01 -0.39796727248E-01 -0.68467112723E-01  0.10515632120E+00  0.51100000000E-03 0. -1.
         11    1    4    4    0    0  0.24848462643E-01 -0.32338971196E-02 -0.14372601820E-01  0.28891815284E-01  0.51100000000E-03 0.  1.
</event>
<event>
 8    1  0.1122848E+005  0.1043930E+01  0.7957747E-01            NaN
         13   -1    0    0    0    0  0.00000000000E+00  0.00000000000E+00  0.74505805969E-08  0.10566000000E+00  0.10566000000E+00 0.  1.
     999900   -1    0    0    0    0 -0.00000000000E+00 -0.00000000000E+00 -0.74505805969E-08  0.93827000000E+00  0.93827000000E+00 0. -1.
     999902    2    1    2    0    0 -0.94460320560E-02 -0.21622922032E-01  0.35920451185E-03  0.10203311164E+01  0.10200581747E+01 0.  0.
     999903    2    3    3    0    0 -0.97286001936E-01  0.82299158852E-01 -0.13131581320E-01  0.12977080935E+00  0.20743837924E-01 0.  0.
         14    1    1    2    0    0  0.94460320560E-02  0.21622922032E-01 -0.35920451185E-03  0.23598883590E-01  0.00000000000E+00 0.  1.
     999901    1    3    3    0    0  0.87839969880E-01 -0.10392208088E+00  0.13490785831E-01  0.89056030706E+00  0.88000000000E+00 0. -1.
        -11    1    4    4    0    0 -0.61841187809E-01  0.52897577057E-01  0.16652901701E-02  0.81397300203E-01  0.51100000000E-03 0. -1.
         11    1    4    4    0    0 -0.35444814127E-01  0.29401581795E-01 -0.14796871490E-01  0.48373509150E-01  0.51100000000E-03 0.  1.
</event>
<event>
 8    1  0.1122848E+005  0.1043930E+01  0.7957747E-01            NaN
         13   -1    0    0    0    0  0.00000000000E+00  0.00000000000E+00  0.74505805969E-08  0.10566000000E+00  0.10566000000E+00 0. -1.
     999900   -1    0    0    0    0 -0.00000000000E+00 -0.00000000000E+00 -0.74505805969E-08  0.93827000000E+00  0.93827000000E+00 0.  1.
     999902    2    1    2    0    0 -0.42124920990E-02  0.15712525808E-01  0.17215360441E-01  0.10202446207E+01  0.10199696510E+01 0.  0.
     999903    2    3    3    0    0  0.10417160617E+00  0.31912144230E-01  0.71327916188E-01  0.13179782485E+00  0.20319609375E-01 0.  0.
         14    1    1    2    0    0  0.42124920990E-02 -0.15712525808E-01 -0.17215360441E-01  0.23685379289E-01  0.00000000000E+00 0.  1.
     999901    1    3    3    0    0 -0.10838409827E+00 -0.16199618422E-01 -0.54112555748E-01  0.88844679587E+00  0.88000000000E+00 0. -1.
        -11    1    4    4    0    0  0.88672226203E-01  0.24006930455E-01  0.67439195030E-01  0.11396228568E+00  0.51100000000E-03 0. -1.
         11    1    4    4    0    0  0.15499379966E-01  0.79052137748E-02  0.38887211579E-02  0.17835539167E-01  0.51100000000E-03 0.  1.
</event>
<event>
 8    1  0.1122848E+005  0.1043930E+01  0.7957747E-01            NaN
         13   -1    0    0    0    0  0.00000000000E+00  0.00000000000E+00  0.74505805969E-08  0.10566000000E+00  0.10566000000E+00 0.  1.
     999900   -1    0    0    0    0 -0.00000000000E+00 -0.00000000000E+00 -0.74505805969E-08  0.93827000000E+00  0.93827000000E+00 0.  1.
     999902    2    1    2    0    0 -0.11452982565E-01 -0.20387469003E-01 -0.96868684009E-03  0.10205257684E+01  0.10202573626E+01 0.  0.
     999903    2    3    3    0    0 -0.10414762911E+00  0.10270232817E-01 -0.77577353543E-01  0.13181823497E+00  0.20139388184E-01 0.  0.
         14    1    1    2    0    0  0.11452982565E-01  0.20387469003E-01  0.96868684009E-03  0.23404231587E-01  0.00000000000E+00 0. -1.
     999901    1    3    3    0    0  0.92694646550E-01 -0.30657701820E-01  0.76608666703E-01  0.88870753344E+00  0.88000000000E+00 0. -1.
        -11    1    4    4    0    0 -0.24269963820E-01 -0.58102909968E-02 -0.21003127461E-01  0.32621819529E-01  0.51100000000E-03 0. -1.
         11    1    4    4    0    0 -0.79877665295E-01  0.16080523814E-01 -0.56574226082E-01  0.99196415443E-01  0.51100000000E-03 0.  1.
</event>
<event>
 8    1  0.1122848E+005  0.1043930E+01  0.7957747E-01            NaN
         13   -1    0    0    0    0  0.00000000000E+00  0.00000000000E+00  0.74505805969E-08  0.10566000000E+00  0.10566000000E+00 0.  1.
     999900   -1    0    0    0    0 -0.00000000000E+00 -0.00000000000E+00 -0.74505805969E-08  0.93827000000E+00  0.93827000000E+00 0. -1.
     999902    2    1    2    0    0  0.11393153754E-01  0.73907144458E-02  0.19230959420E-01  0.10203873491E+01  0.10201157217E+01 0.  0.
     999903    2    3    3    0    0  0.12566064625E+00  0.13615621341E-01  0.35652017940E-01  0.13282582418E+00  0.19890953347E-01 0.  0.
         14    1    1    2    0    0 -0.11393153754E-01 -0.73907144458E-02 -0.19230959420E-01  0.23542650928E-01  0.00000000000E+00 0. -1.
     999901    1    3    3    0    0 -0.11426749250E+00 -0.62249068948E-02 -0.16421058520E-01  0.88756152489E+00  0.88000000000E+00 0.  1.
        -11    1    4    4    0    0  0.18715934227E-01  0.72654672589E-02  0.10974573112E-01  0.22886143941E-01  0.51100000000E-03 0. -1.
         11    1    4    4    0    0  0.10694471202E+00  0.63501540817E-02  0.24677444827E-01  0.10993968024E+00  0.51100000000E-03 0.  1.
</event>
<event>
 8    1  0.1122848E+005  0.1043930E+01  0.7957747E-01            NaN
         13   -1    0    0    0    0  0.00000000000E+00  0.00000000000E+00  0.74505805969E-08  0.10566000000E+00  0.10566000000E+00 0. -1.
     999900   -1    0    0    0    0 -0.00000000000E+00 -0.00000000000E+00 -0.74505805969E-08  0.93827000000E+00  0.93827000000E+00 0.  1.
     999902    2    1    2    0    0  0.17327244930E-01  0.19166624625E-01  0.14482457902E-02  0.10180516242E+01  0.10177226632E+01 0.  0.
     999903    2    3    3    0    0  0.83945161755E-01 -0.51973257134E-01 -0.80444082168E-01  0.12889180564E+00  0.19845341190E-01 0.  0.
         14    1    1    2    0    0 -0.17327244930E-01 -0.19166624625E-01 -0.14482457902E-02  0.25878375766E-01  0.00000000000E+00 0. -1.
     999901    1    3    3    0    0 -0.66617916824E-01  0.71139881759E-01  0.81892327958E-01  0.88915981859E+00  0.88000000000E+00 0. -1.
        -11    1    4    4    0    0  0.51648588199E-01 -0.29328100125E-01 -0.35950872190E-01  0.69429391846E-01  0.51100000000E-03 0.  1.
         11    1    4    4    0    0  0.32296573555E-01 -0.22645157009E-01 -0.44493209979E-01  0.59462413797E-01  0.51100000000E-03 0. -1.
</event>
<event>
 8    1  0.1122848E+005  0.1043930E+01  0.7957747E-01            NaN
         13   -1    0    0    0    0  0.00000000000E+00  0.00000000000E+00  0.74505805969E-08  0.10566000000E+00  0.10566000000E+00 0. -1.
     999900   -1    0    0    0    0 -0.00000000000E+00 -0.00000000000E+00 -0.74505805969E-08  0.93827000000E+00  0.93827000000E+00 0.  1.
     999902    2    1    2    0    0  0.71655000919E-02  0.16969056524E-01 -0.15004560915E-01  0.10201722619E+01  0.10198955897E+01 0.  0.
     999903    2    3    3    0    0 -0.10233531837E+00  0.34500829357E-01 -0.72016341436E-01  0.13138199676E+00  0.20299040076E-01 0.  0.
         14    1    1    2    0    0 -0.71655000919E-02 -0.16969056524E-01  0.15004560915E-01  0.23757738089E-01  0.00000000000E+00 0. -1.
     999901    1    3    3    0    0  0.10950081846E+00 -0.17531772834E-01  0.57011780521E-01  0.88879026515E+00  0.88000000000E+00 0.  1.
        -11    1    4    4    0    0 -0.51349003406E-01  0.25284011239E-01 -0.29713850514E-01  0.64491669296E-01  0.51100000000E-03 0. -1.
         11    1    4    4    0    0 -0.50986314962E-01  0.92168181176E-02 -0.42302490922E-01  0.66890327468E-01  0.51100000000E-03 0.  1.
</event>
<event>
 8    1  0.1122848E+005  0.1043930E+01  0.7957747E-01            NaN
         13   -1    0    0    0    0  0.00000000000E+00  0.00000000000E+00  0.74505805969E-08  0.10566000000E+00  0.10566000000E+00 0.  1.
     999900   -1    0    0    0    0 -0.00000000000E+00 -0.00000000000E+00 -0.74505805969E-08  0.93827000000E+00  0.93827000000E+00 0.  1.
     999902    2    1    2    0    0  0.91322590708E-02  0.12915655503E-02  0.23328704248E-01  0.10188442523E+01  0.10185353777E+01 0.  0.
     999903    2    3    3    0    0 -0.49066157614E-01  0.27532810008E-01  0.11731519905E+00  0.13153984012E+00  0.19347613810E-01 0.  0.
         14    1    1    2    0    0 -0.91322590708E-02 -0.12915655503E-02 -0.23328704248E-01  0.25085747730E-01  0.00000000000E+00 0. -1.
     999901    1    3    3    0    0  0.58198416685E-01 -0.26241244458E-01 -0.93986494804E-01  0.88730441215E+00  0.88000000000E+00 0.  1.
        -11    1    4    4    0    0 -0.23758319856E-01  0.18461131836E-01  0.42787627482E-01  0.52309782427E-01  0.51100000000E-03 0. -1.
         11    1    4    4    0    0 -0.25307837758E-01  0.90716781722E-02  0.74527571569E-01  0.79230057692E-01  0.51100000000E-03 0.  1.
</event>
<event>
 8    1  0.1122848E+005  0.1043930E+01  0.7957747E-01            NaN
         13   -1    0    0    0    0  0.00000000000E+00  0.00000000000E+00  0.74505805969E-08  0.10566000000E+00  0.10566000000E+00 0. -1.
     999900   -1    0    0    0    0 -0.00000000000E+00 -0.00000000000E+00 -0.74505805969E-08  0.93827000000E+00  0.93827000000E+00 0. -1.
     999902    2    1    2    0    0 -0.21315977388E-01 -0.83933981960E-02 -0.77923735120E-02  0.10197320433E+01  0.10194448975E+01 0.  0.
     999903    2    3    3    0    0  0.17290269897E-01 -0.90347019352E-01  0.88765069489E-01  0.12982745391E+00  0.22680231230E-01 0.  0.
         14    1    1    2    0    0  0.21315977388E-01  0.83933981960E-02  0.77923735120E-02  0.24197956737E-01  0.00000000000E+00 0. -1.
     999901    1    3    3    0    0 -0.38606247285E-01  0.81953621156E-01 -0.96557443001E-01  0.88990458935E+00  0.88000000000E+00 0. -1.
        -11    1    4    4    0    0  0.66080819760E-02 -0.46509206966E-01  0.30016467282E-01  0.55749641336E-01  0.51100000000E-03 0.  1.
         11    1    4    4    0    0  0.10682187921E-01 -0.43837812386E-01  0.58748602207E-01  0.74077812575E-01  0.51100000000E-03 0. -1.
</event>
<event>
 7    1  0.1122848E+005  0.1043930E+01  0.7957747E-01            NaN
         13   -1    0    0    0    0  0.00000000000E+00  0.00000000000E+00  0.74505805969E-08  0.10566000000E+00  0.10566000000E+00 0.  1.
     999900   -1    0    0    0    0 -0.00000000000E+00 -0.00000000000E+00 -0.74505805969E-08  0.93827000000E+00  0.93827000000E+00 0. -1.
     999903    2    1    2    0    0  0.10826956208E+00 -0.22732656022E-01 -0.38769789994E-01  0.11877368609E+00  0.19105501021E-01 0.  0.
         14    1    1    2    0    0 -0.21567546102E-01 -0.29502103149E-01  0.13609335701E-01  0.38996758241E-01  0.00000000000E+00 0. -1.
     999901    1    1    2    0    0 -0.86702015976E-01  0.52234759171E-01  0.25160454293E-01  0.88615955567E+00  0.88000000000E+00 0. -1.
        -11    1    3    3    0    0  0.39016550007E-01 -0.18877331418E-02 -0.20769071976E-01  0.44243306642E-01  0.51100000000E-03 0.  1.
         11    1    3    3    0    0  0.69253012071E-01 -0.20844922880E-01 -0.18000718018E-01  0.74530379450E-01  0.51100000000E-03 0. -1.
</event>
<event>
 8    1  0.1122848E+005  0.1043930E+01  0.7957747E-01            NaN
         13   -1    0    0    0    0  0.00000000000E+00  0.00000000000E+00  0.74505805969E-08  0.10566000000E+00  0.10566000000E+00 0.  1.
     999900   -1    0    0    0    0 -0.00000000000E+00 -0.00000000000E+00 -0.74505805969E-08  0.93827000000E+00  0.93827000000E+00 0. -1.
     999902    2    1    2    0    0 -0.14139265494E-01  0.99242421364E-02  0.17794062319E-01  0.10191300390E+01  0.10188282477E+01 0.  0.
     999903    2    3    3    0    0 -0.10710990248E+00  0.73682230983E-01 -0.15662676611E-02  0.13172740050E+00  0.21167250072E-01 0.  0.
         14    1    1    2    0    0  0.14139265494E-01 -0.99242421364E-02 -0.17794062319E-01  0.24799960978E-01  0.00000000000E+00 0.  1.
     999901    1    3    3    0    0  0.92970636986E-01 -0.63757988847E-01  0.19360329980E-01  0.88740263852E+00  0.88000000000E+00 0. -1.
        -11    1    4    4    0    0 -0.27719133791E-01  0.23099127084E-01  0.84409391328E-02  0.37059824941E-01  0.51100000000E-03 0.  1.
         11    1    4    4    0    0 -0.79390768689E-01  0.50583103899E-01 -0.10007206794E-01  0.94667575557E-01  0.51100000000E-03 0. -1.
</event>
<event>
 8    1  0.1122848E+005  0.1043930E+01  0.7957747E-01            NaN
         13   -1    0    0    0    0  0.00000000000E+00  0.00000000000E+00  0.74505805969E-08  0.10566000000E+00  0.10566000000E+00 0. -1.
     999900   -1    0    0    0    0 -0.00000000000E+00 -0.00000000000E+00 -0.74505805969E-08  0.93827000000E+00  0.93827000000E+00 0. -1.
     999902    2    1    2    0    0 -0.21984508056E-01  0.67298543860E-02  0.44077465314E-02  0.10205197936E+01  0.10202512491E+01 0.  0.
     999903    2    3    3    0    0  0.44374162018E-01  0.72756383279E-01 -0.95862248307E-01  0.12989245993E+00  0.20492021190E-01 0.  0.
         14    1    1    2    0    0  0.21984508056E-01 -0.67298543860E-02 -0.44077465314E-02  0.23410206407E-01  0.00000000000E+00 0. -1.
     999901    1    3    3    0    0 -0.66358670074E-01 -0.66026528893E-01  0.10026999484E+00  0.89062733367E+00  0.88000000000E+00 0.  1.
        -11    1    4    4    0    0  0.15426000869E-01  0.34287067451E-01 -0.55646910874E-01  0.67159543685E-01  0.51100000000E-03 0.  1.
         11    1    4    4    0    0  0.28948161149E-01  0.38469315828E-01 -0.40215337432E-01  0.62732916240E-01  0.51100000000E-03 0. -1.
</event>
<event>
 8    1  0.1122848E+005  0.1043930E+01  0.7957747E-01            NaN
         13   -1    0    0    0    0  0.00000000000E+00  0.00000000000E+00  0.74505805969E-08  0.10566000000E+00  0.10566000000E+00 0.  1.
     999900   -1    0    0    0    0 -0.00000000000E+00 -0.00000000000E+00 -0.74505805969E-08  0.93827000000E+00  0.93827000000E+00 0.  1.
     999902    2    1    2    0    0  0.16061252457E-01 -0.16904526359E-01 -0.26117312467E-02  0.10204662411E+01  0.10201964523E+01 0.  0.
     999903    2    3    3    0    0 -0.48140619974E-01  0.55384639491E-01 -0.10471257351E+00  0.12930285208E+00  0.19223083045E-01 0.  0.
         14    1    1    2    0    0 -0.16061252457E-01  0.16904526359E-01  0.26117312467E-02  0.23463758906E-01  0.00000000000E+00 0. -1.
     999901    1    3    3    0    0  0.64201872431E-01 -0.72289165850E-01  0.10210084227E+00  0.89116338901E+00  0.88000000000E+00 0. -1.
        -11    1    4    4    0    0 -0.75448151551E-03  0.93574333719E-02 -0.17832339472E-01  0.20158974520E-01  0.51100000000E-03 0.  1.
         11    1    4    4    0    0 -0.47386138459E-01  0.46027206119E-01 -0.86880234041E-01  0.10914387756E+00  0.51100000000E-03 0. -1.
</event>
<event>
 8    1  0.1122848E+005  0.1043930E+01  0.7957747E-01            NaN
         13   -1    0    0    0    0  0.00000000000E+00  0.00000000000E+00  0.74505805969E-08  0.10566000000E+00  0.10566000000E+00 0. -1.
     999900   -1    0    0    0    0 -0.00000000000E+00 -0.00000000000E+00 -0.74505805969E-08  0.93827000000E+00  0.93827000000E+00 0.  1.
     999902    2    1    2    0    0  0.26843858004E-03  0.15122774766E-01 -0.18298486964E-01  0.10201896335E+01  0.10199133705E+01 0.  0.
     999903    2    3    3    0    0 -0.82650958554E-01  0.77850782258E-01 -0.65865618800E-01  0.13279284437E+00  0.20093146291E-01 0.  0.
         14    1    1    2    0    0 -0.26843858004E-03 -0.15122774766E-01  0.18298486964E-01  0.23740366490E-01  0.00000000000E+00 0. -1.
     999901    1    3    3    0    0  0.82919397134E-01 -0.62728007492E-01  0.47567131837E-01  0.88739678914E+00  0.88000000000E+00 0. -1.
        -11    1    4    4    0    0 -0.39669551592E-01  0.50861004099E-01 -0.34969358665E-01  0.73373239181E-01  0.51100000000E-03 0.  1.
         11    1    4    4    0    0 -0.42981406962E-01  0.26989778159E-01 -0.30896260135E-01  0.59419605189E-01  0.51100000000E-03 0. -1.
</event>
<event>
 8    1  0.1122848E+005  0.1043930E+01  0.7957747E-01            NaN
         13   -1    0    0    0    0  0.00000000000E+00  0.00000000000E+00  0.74505805969E-08  0.10566000000E+00  0.10566000000E+00 0.  1.
     999900   -1    0    0    0    0 -0.00000000000E+00 -0.00000000000E+00 -0.74505805969E-08  0.93827000000E+00  0.93827000000E+00 0.  1.
     999902    2    1    2    0    0  0.24969939178E-01 -0.21880260457E-02  0.45359817237E-02  0.10184572606E+01  0.10181386601E+01 0.  0.
     999903    2    3    3    0    0  0.18955776471E-01 -0.68772108550E-01 -0.10564942114E+00  0.12906958746E+00  0.20204797532E-01 0.  0.
         14    1    1    2    0    0 -0.24969939178E-01  0.21880260457E-02 -0.45359817237E-02  0.25472739365E-01  0.00000000000E+00 0. -1.
     999901    1    3    3    0    0  0.60141627072E-02  0.66584082504E-01  0.11018540286E+00  0.88938767318E+00  0.88000000000E+00 0.  1.
        -11    1    4    4    0    0  0.17866057265E-01 -0.62010440051E-01 -0.81467301393E-01  0.10393109734E+00  0.51100000000E-03 0.  1.
         11    1    4    4    0    0  0.10897192056E-02 -0.67616684991E-02 -0.24182119747E-01  0.25138490115E-01  0.51100000000E-03 0. -1.
</event>
<event>
 8    1  0.1122848E+005  0.1043930E+01  0.7957747E-01            NaN
         13   -1    0    0    0    0  0.00000000000E+00  0.00000000000E+00  0.74505805969E-08  0.10566000000E+00  0.10566000000E+00 0.  1.
     999900   -1    0    0    0    0 -0.00000000000E+00 -0.00000000000E+00 -0.74505805969E-08  0.93827000000E+00  0.93827000000E+00 0. -1.
     999902    2    1    2    0    0 -0.71609039419E-02 -0.22329420123E-01  0.34995574983E-02  0.10202207518E+01  0.10199452210E+01 0.  0.
     999903    2    3    3    0    0  0.27194505945E-01 -0.12653599194E+00 -0.23026052032E-01  0.13301000356E+00  0.20262368228E-01 0.  0.
         14    1    1    2    0    0  0.71609039419E-02  0.22329420123E-01 -0.34995574983E-02  0.23709248217E-01  0.00000000000E+00 0.  1.
     999901    1    3    3    0    0 -0.34355409887E-01  0.10420657181E+00  0.26525609531E-01  0.88721074822E+00  0.88000000000E+00 0.  1.
        -11    1    4    4    0    0  0.16083791427E-01 -0.99704639838E-01 -0.11068466269E-01  0.10159958474E+00  0.51100000000E-03 0.  1.
         11    1    4    4    0    0  0.11110714517E-01 -0.26831352100E-01 -0.11957585763E-01  0.31410418826E-01  0.51100000000E-03 0. -1.
</event>
<event>
 8    1  0.1122848E+005  0.1043930E+01  0.7957747E-01            NaN
         13   -1    0    0    0    0  0.00000000000E+00  0.00000000000E+00  0.74505805969E-08  0.10566000000E+00  0.10566000000E+00 0.  1.
     999900   -1    0    0    0    0 -0.00000000000E+00 -0.00000000000E+00 -0.74505805969E-08  0.93827000000E+00  0.93827000000E+00 0. -1.
     999902    2    1    2    0    0 -0.14118535339E-01 -0.19741857800E-01 -0.13384181624E-02  0.10196222779E+01  0.10193324896E+01 0.  0.
     999903    2    3    3    0    0 -0.11116283364E+00  0.31422437544E-01 -0.58305426767E-01  0.13098251906E+00  0.20306460710E-01 0.  0.
         14    1    1    2    0    0  0.14118535339E-01  0.19741857800E-01  0.13384181624E-02  0.24307722080E-01  0.00000000000E+00 0. -1.
     999901    1    3    3    0    0  0.97044298297E-01 -0.51164295344E-01  0.56967008604E-01  0.88863975886E+00  0.88000000000E+00 0.  1.
        -11    1    4    4    0    0 -0.68981350001E-01  0.28874944675E-01 -0.33148421343E-01  0.81800171372E-01  0.51100000000E-03 0.  1.
         11    1    4    4    0    0 -0.42181483636E-01  0.25474928691E-02 -0.25157005424E-01  0.49182347692E-01  0.51100000000E-03 0. -1.
</event>
<event>
 8    1  0.1122848E+005  0.1043930E+01  0.7957747E-01            NaN
         13   -1    0    0    0    0  0.00000000000E+00  0.00000000000E+00  0.74505805969E-08  0.10566000000E+00  0.10566000000E+00 0. -1.
     999900   -1    0    0    0    0 -0.00000000000E+00 -0.00000000000E+00 -0.74505805969E-08  0.93827000000E+00  0.93827000000E+00 0.  1.
     999902    2    1    2    0    0  0.19390700125E-01  0.60479577025E-02  0.83154801200E-02  0.10219817825E+01  0.10217460738E+01 0.  0.
     999903    2    3    3    0    0  0.10005765163E+00  0.33622739379E-01  0.83446467475E-01  0.13467563974E+00  0.56738655357E-02 0.  0.
         14    1    1    2    0    0 -0.19390700125E-01 -0.60479577025E-02 -0.83154801200E-02  0.21948217544E-01  0.00000000000E+00 0. -1.
     999901    1    3    3    0    0 -0.80666951509E-01 -0.27574781677E-01 -0.75130987355E-01  0.88730614272E+00  0.88000000000E+00 0.  1.
        -11    1    4    4    0    0  0.40024788045E-01  0.14311151671E-01  0.36946498880E-01  0.56321378007E-01  0.51100000000E-03 0.  1.
         11    1    4    4    0    0  0.60032863589E-01  0.19311587709E-01  0.46499968596E-01  0.78354261728E-01  0.51100000000E-03 0. -1.
</event>
<event>
 8    1  0.1122848E+005  0.1043930E+01  0.7957747E-01            NaN
         13   -1    0    0    0    0  0.00000000000E+00  0.00000000000E+00  0.74505805969E-08  0.10566000000E+00  0.10566000000E+00 0. -1.
     999900   -1    0    0    0    0 -0.00000000000E+00 -0.00000000000E+00 -0.74505805969E-08  0.93827000000E+00  0.93827000000E+00 0. -1.
     999902    2    1    2    0    0 -0.18695356116E-01 -0.14315447924E-01 -0.10981630067E-02  0.10203576783E+01  0.10200853578E+01 0.  0.
     999903    2    3    3    0    0  0.14211687922E-02  0.50450645179E-02  0.12904930571E+00  0.13034764034E+00  0.17587257930E-01 0.  0.
         14    1    1    2    0    0  0.18695356116E-01  0.14315447924E-01  0.10981630067E-02  0.23572321726E-01  0.00000000000E+00 0. -1.
     999901    1    3    3    0    0 -0.20116524908E-01 -0.19360512441E-01 -0.13014746871E+00  0.89001003794E+00  0.88000000000E+00 0. -1.
        -11    1    4    4    0    0 -0.41449791552E-02  0.93112223333E-03  0.10983504378E+00  0.10991835972E+00  0.51100000000E-03 0.  1.
         11    1    4    4    0    0  0.55661479474E-02  0.41139422846E-02  0.19214261929E-01  0.20429280618E-01  0.51100000000E-03 0. -1.
</event>
<event>
 8    1  0.1122848E+005  0.1043930E+01  0.7957747E-01            NaN
         13   -1    0    0    0    0  0.00000000000E+00  0.00000000000E+00  0.74505805969E-08  0.10566000000E+00  0.10566000000E+00 0.  1.
     999900   -1    0    0    0    0 -0.00000000000E+00 -0.00000000000E+00 -0.74505805969E-08  0.93827000000E+00  0.93827000000E+00 0.  1.
     999902    2    1    2    0    0 -0.75460395304E-02  0.12555565275E-01 -0.18869055419E-01  0.10200422168E+01  0.10197624713E+01 0.  0.
     999903    2    3    3    0    0 -0.10432154771E-02 -0.11794302634E+00 -0.49817622413E-01  0.12985685247E+00  0.21664737976E-01 0.  0.
         14    1    1    2    0    0  0.75460395304E-02 -0.12555565275E-01  0.18869055419E-01  0.23887783161E-01  0.00000000000E+00 0.  1.
     999901    1    3    3    0    0 -0.65028240533E-02  0.13049859161E+00  0.30948566994E-01  0.89018536437E+00  0.88000000000E+00 0. -1.
        -11    1    4    4    0    0  0.16531591367E-02 -0.16978096288E-01  0.37584976418E-03  0.17070180806E-01  0.51100000000E-03 0. -1.
         11    1    4    4    0    0 -0.26963746138E-02 -0.10096493005E+00 -0.50193472177E-01  0.11278667167E+00  0.51100000000E-03 0.  1.
</event>
<event>
 8    1  0.1122848E+005  0.1043930E+01  0.7957747E-01            NaN
         13   -1    0    0    0    0  0.00000000000E+00  0.00000000000E+00  0.74505805969E-08  0.10566000000E+00  0.10566000000E+00 0.  1.
     999900   -1    0    0    0    0 -0.00000000000E+00 -0.00000000000E+00 -0.74505805969E-08  0.93827000000E+00  0.93827000000E+00 0.  1.
     999902    2    1    2    0    0 -0.88174585983E-02  0.30555810910E-02  0.19789903386E-01  0.10220502279E+01  0.10218160029E+01 0.  0.
     999903    2    3    3    0    0  0.51012867507E-01 -0.10907397051E+00  0.51774125975E-01  0.13234483015E+00  0.18307109299E-01 0.  0.
         14    1    1    2    0    0  0.88174585983E-02 -0.30555810910E-02 -0.19789903386E-01  0.21879772119E-01  0.00000000000E+00 0. -1.
     999901    1    3    3    0    0 -0.59830326105E-01  0.11212955161E+00 -0.31984222589E-01  0.88970539774E+00  0.88000000000E+00 0. -1.
        -11    1    4    4    0    0  0.11581642084E-01 -0.45041838351E-01  0.22216501696E-01  0.51543532126E-01  0.51100000000E-03 0. -1.
         11    1    4    4    0    0  0.39431225423E-01 -0.64032132163E-01  0.29557624279E-01  0.80801298020E-01  0.51100000000E-03 0.  1.
</event>
<event>
 8    1  0.1136667E+005  0.1043930E+01  0.7957747E-01            NaN
         13   -1    0    0    0    0  0.00000000000E+00  0.00000000000E+00  0.74505805969E-08  0.10566000000E+00  0.10566000000E+00 0. -1.
     999900   -1    0    0    0    0 -0.00000000000E+00 -0.00000000000E+00 -0.74505805969E-08  0.93827000000E+00  0.93827000000E+00 0. -1.
     999902    2    1    2    0    0  0.16849732332E-03 -0.11275091938E-03  0.22441758446E-01  0.10214873258E+01  0.10212407567E+01 0.  0.
     999903    2    3    3    0    0  0.37386748920E-01  0.75902287540E-01  0.10223510113E+00  0.13383285367E+00  0.17328894056E-01 0.  0.
         14    1    1    2    0    0 -0.16849732332E-03  0.11275091938E-03 -0.22441758446E-01  0.22442674223E-01  0.00000000000E+00 0.  1.
     999901    1    3    3    0    0 -0.37218251596E-01 -0.76015038459E-01 -0.79793342681E-01  0.88765447211E+00  0.88000000000E+00 0. -1.
        -11    1    4    4    0    0  0.14725866339E-01  0.45995104301E-01  0.64885491506E-01  0.80887507615E-01  0.51100000000E-03 0. -1.
         11    1    4    4    0    0  0.22660882581E-01  0.29907183239E-01  0.37349609621E-01  0.52945346051E-01  0.51100000000E-03 0.  1.
</event>
<event>
 8    1  0.1122848E+005  0.1043930E+01  0.7957747E-01            NaN
         13   -1    0    0    0    0  0.00000000000E+00  0.00000000000E+00  0.74505805969E-08  0.10566000000E+00  0.10566000000E+00 0. -1.
     999900   -1    0    0    0    0 -0.00000000000E+00 -0.00000000000E+00 -0.74505805969E-08  0.93827000000E+00  0.93827000000E+00 0. -1.
     999902    2    1    2    0    0 -0.13782971998E-01 -0.17817505780E-01  0.33347126809E-03  0.10214012399E+01  0.10211527544E+01 0.  0.
     999903    2    3    3    0    0 -0.87682429397E-01  0.95739548580E-01 -0.16887962032E-02  0.13103029249E+00  0.17658310492E-01 0.  0.
         14    1    1    2    0    0  0.13782971998E-01  0.17817505780E-01 -0.33347126809E-03  0.22528760117E-01  0.00000000000E+00 0.  1.
     999901    1    3    3    0    0  0.73899457399E-01 -0.11355705436E+00  0.20222674713E-02  0.89037094739E+00  0.88000000000E+00 0. -1.
        -11    1    4    4    0    0 -0.26081683443E-01  0.21084017605E-01 -0.63082359410E-02  0.34129825245E-01  0.51100000000E-03 0.  1.
         11    1    4    4    0    0 -0.61600745955E-01  0.74655530975E-01  0.46194397378E-02  0.96900467243E-01  0.51100000000E-03 0. -1.
</event>
<event>
 8    1  0.1122848E+005  0.1043930E+01  0.7957747E-01            NaN
         13   -1    0    0    0    0  0.00000000000E+00  0.00000000000E+00  0.74505805969E-08  0.10566000000E+00  0.10566000000E+00 0. -1.
     999900   -1    0    0    0    0 -0.00000000000E+00 -0.00000000000E+00 -0.74505805969E-08  0.93827000000E+00  0.93827000000E+00 0.  1.
     999902    2    1    2    0    0 -0.66913895632E-02 -0.51929798296E-02 -0.21223097095E-01  0.10210791448E+01  0.10208234217E+01 0.  0.
     999903    2    3    3    0    0 -0.58237800027E-01 -0.17563214989E-01  0.11151231721E+00  0.12954745978E+00  0.25444833922E-01 0.  0.
         14    1    1    2    0    0  0.66913895632E-02  0.51929798296E-02  0.21223097095E-01  0.22850855216E-01  0.00000000000E+00 0. -1.
     999901    1    3    3    0    0  0.51546410464E-01  0.12370235159E-01 -0.13273541431E+00  0.89153168500E+00  0.88000000000E+00 0.  1.
        -11    1    4    4    0    0 -0.38822713577E-01  0.10508330527E-02  0.70707168459E-01  0.80672623188E-01  0.51100000000E-03 0. -1.
         11    1    4    4    0    0 -0.19415086450E-01 -0.18614048041E-01  0.40805148754E-01  0.48874836595E-01  0.51100000000E-03 0.  1.
</event>
<event>
 8    1  0.1122848E+005  0.1043930E+01  0.7957747E-01            NaN
         13   -1    0    0    0    0  0.00000000000E+00  0.00000000000E+00  0.74505805969E-08  0.10566000000E+00  0.10566000000E+00 0.  1.
     999900   -1    0    0    0    0 -0.00000000000E+00 -0.00000000000E+00 -0.74505805969E-08  0.93827000000E+00  0.93827000000E+00 0.  1.
     999902    2    1    2    0    0 -0.11308136380E-01 -0.18514538971E-01 -0.10300322630E-01  0.10199141980E+01  0.10196314101E+01 0.  0.
     999903    2    3    3    0    0  0.97492755976E-01  0.77939520846E-01  0.18120869651E-01  0.12753043297E+00  0.18874295731E-01 0.  0.
         14    1    1    2    0    0  0.11308136380E-01  0.18514538971E-01  0.10300322630E-01  0.24015802047E-01  0.00000000000E+00 0.  1.
     999901    1    3    3    0    0 -0.10880089236E+00 -0.96454059817E-01 -0.28421192281E-01  0.89238376498E+00  0.88000000000E+00 0.  1.
        -11    1    4    4    0    0  0.53762253192E-01  0.54248749600E-01  0.13695052142E-01  0.77595890842E-01  0.51100000000E-03 0. -1.
         11    1    4    4    0    0  0.43730502784E-01  0.23690771246E-01  0.44258175090E-02  0.49934542129E-01  0.51100000000E-03 0.  1.
</event>
<event>
 8    1  0.1122848E+005  0.1043930E+01  0.7957747E-01            NaN
         13   -1    0    0    0    0  0.00000000000E+00  0.00000000000E+00  0.74505805969E-08  0.10566000000E+00  0.10566000000E+00 0.  1.
     999900   -1    0    0    0    0 -0.00000000000E+00 -0.00000000000E+00 -0.74505805969E-08  0.93827000000E+00  0.93827000000E+00 0.  1.
     999902    2    1    2    0    0  0.52850277311E-02 -0.22777339593E-01 -0.14767804329E-02  0.10205009668E+01  0.10202319852E+01 0.  0.
     999903    2    3    3    0    0  0.12668761706E+00  0.23180838491E-01 -0.51619781195E-02  0.13097057185E+00  0.23228023673E-01 0.  0.
         14    1    1    2    0    0 -0.52850277311E-02  0.22777339593E-01  0.14767804329E-02  0.23429033218E-01  0.00000000000E+00 0.  1.
     999901    1    3    3    0    0 -0.12140258933E+00 -0.45958178085E-01  0.36851976866E-02  0.88953039493E+00  0.88000000000E+00 0. -1.
        -11    1    4    4    0    0  0.12373127092E-01  0.76090303557E-02  0.44474039972E-02  0.15199741455E-01  0.51100000000E-03 0. -1.
         11    1    4    4    0    0  0.11431448996E+00  0.15571808135E-01 -0.96093821167E-02  0.11577083039E+00  0.51100000000E-03 0.  1.
</event>
<event>
 8    1  0.1122848E+005  0.1043930E+01  0.7957747E-01            NaN
         13   -1    0    0    0    0  0.00000000000E+00  0.00000000000E+00  0.74505805969E-08  0.10566000000E+00  0.10566000000E+00 0. -1.
     999900   -1    0    0    0    0 -0.00000000000E+00 -0.00000000000E+00 -0.74505805969E-08  0.93827000000E+00  0.93827000000E+00 0.  1.
     999902    2    1    2    0    0  0.17439654206E-01 -0.10989313031E-01 -0.10959753591E-01  0.10205842779E+01  0.10203172279E+01 0.  0.
     999903    2    3    3    0    0  0.20817922739E-01 -0.79504662763E-01  0.99882790578E-01  0.13098221216E+00  0.20625002791E-01 0.  0.
         14    1    1    2    0    0 -0.17439654206E-01  0.10989313031E-01  0.10959753591E-01  0.23345722059E-01  0.00000000000E+00 0. -1.
     999901    1    3    3    0    0 -0.33782685333E-02  0.68515349732E-01 -0.11084254417E+00  0.88960206578E+00  0.88000000000E+00 0. -1.
        -11    1    4    4    0    0  0.86391182674E-02 -0.65704949603E-01  0.76302027078E-01  0.10106451021E+00  0.51100000000E-03 0.  1.
         11    1    4    4    0    0  0.12178804471E-01 -0.13799713160E-01  0.23580763500E-01  0.29917701949E-01  0.51100000000E-03 0. -1.
</event>
<event>
 8    1  0.1122848E+005  0.1043930E+01  0.7957747E-01            NaN
         13   -1    0    0    0    0  0.00000000000E+00  0.00000000000E+00  0.74505805969E-08  0.10566000000E+00  0.10566000000E+00 0.  1.
     999900   -1    0    0    0    0 -0.00000000000E+00 -0.00000000000E+00 -0.74505805969E-08  0.93827000000E+00  0.93827000000E+00 0.  1.
     999902    2    1    2    0    0  0.85909060747E-02 -0.52515328008E-03  0.21512708657E-01  0.10207594133E+01  0.10204964007E+01 0.  0.
     999903    2    3    3    0    0  0.54056473709E-01  0.11505718970E+00 -0.24416578894E-01  0.13085161175E+00  0.19123695266E-01 0.  0.
         14    1    1    2    0    0 -0.85909060747E-02  0.52515328008E-03 -0.21512708657E-01  0.23170586676E-01  0.00000000000E+00 0. -1.
     999901    1    3    3    0    0 -0.45465567635E-01 -0.11558234298E+00  0.45929287551E-01  0.88990780158E+00  0.88000000000E+00 0. -1.
        -11    1    4    4    0    0  0.71125333654E-02  0.32754196056E-01 -0.26057913789E-02  0.33622563255E-01  0.51100000000E-03 0. -1.
         11    1    4    4    0    0  0.46943940344E-01  0.82302993645E-01 -0.21810787515E-01  0.97229048494E-01  0.51100000000E-03 0.  1.
</event>
<event>
 8    1  0.1122848E+005  0.1043930E+01  0.7957747E-01            NaN
         13   -1    0    0    0    0  0.00000000000E+00  0.00000000000E+00  0.74505805969E-08  0.10566000000E+00  0.10566000000E+00 0.  1.
     999900   -1    0    0    0    0 -0.00000000000E+00 -0.00000000000E+00 -0.74505805969E-08  0.93827000000E+00  0.93827000000E+00 0. -1.
     999902    2    1    2    0    0 -0.30840606971E-02  0.21907567060E-01 -0.88790433324E-02  0.10200911591E+01  0.10198125723E+01 0.  0.
     999903    2    3    3    0    0  0.49214693054E-02 -0.10717234464E+00 -0.68259822918E-01  0.12865872246E+00  0.19583950707E-01 0.  0.
         14    1    1    2    0    0  0.30840606971E-02 -0.21907567060E-01  0.88790433324E-02  0.23838840899E-01  0.00000000000E+00 0.  1.
     999901    1    3    3    0    0 -0.80055300025E-02  0.12907991170E+00  0.59380779586E-01  0.89143243664E+00  0.88000000000E+00 0.  1.
        -11    1    4    4    0    0  0.10970554999E-01 -0.48535533880E-01 -0.26166876791E-01  0.56222928490E-01  0.51100000000E-03 0. -1.
         11    1    4    4    0    0 -0.60490856936E-02 -0.58636810755E-01 -0.42092946127E-01  0.72435793969E-01  0.51100000000E-03 0.  1.
</event>
<event>
 8    1  0.1122848E+005  0.1043930E+01  0.7957747E-01            NaN
         13   -1    0    0    0    0  0.00000000000E+00  0.00000000000E+00  0.74505805969E-08  0.10566000000E+00  0.10566000000E+00 0. -1.
     999900   -1    0    0    0    0 -0.00000000000E+00 -0.00000000000E+00 -0.74505805969E-08  0.93827000000E+00  0.93827000000E+00 0. -1.
     999902    2    1    2    0    0  0.90502491752E-02 -0.19171644155E-01  0.10655170133E-01  0.10202025560E+01  0.10199265972E+01 0.  0.
     999903    2    3    3    0    0  0.37941400932E-01 -0.12157506254E+00 -0.32235568846E-01  0.13275634676E+00  0.19106804279E-01 0.  0.
         14    1    1    2    0    0 -0.90502491752E-02  0.19171644155E-01 -0.10655170133E-01  0.23727444033E-01  0.00000000000E+00 0.  1.
     999901    1    3    3    0    0 -0.28891151757E-01  0.10240341838E+00  0.42890738979E-01  0.88744620921E+00  0.88000000000E+00 0.  1.
        -11    1    4    4    0    0  0.70702523497E-02 -0.19551377885E-01 -0.12757858587E-01  0.24398133580E-01  0.51100000000E-03 0.  1.
         11    1    4    4    0    0  0.30871148583E-01 -0.10202368466E+00 -0.19477710260E-01  0.10835821318E+00  0.51100000000E-03 0. -1.
</event>
<event>
 8    1  0.1122848E+005  0.1043930E+01  0.7957747E-01            NaN
         13   -1    0    0    0    0  0.00000000000E+00  0.00000000000E+00  0.74505805969E-08  0.10566000000E+00  0.10566000000E+00 0. -1.
     999900   -1    0    0    0    0 -0.00000000000E+00 -0.00000000000E+00 -0.74505805969E-08  0.93827000000E+00  0.93827000000E+00 0. -1.
     999902    2    1    2    0    0  0.11433358715E-01  0.18308780882E-01 -0.93536079508E-02  0.10204050530E+01  0.10201338388E+01 0.  0.
     999903    2    3    3    0    0  0.58105801409E-01 -0.37342501392E-01 -0.11033317617E+00  0.13165747619E+00  0.19736633540E-01 0.  0.
         14    1    1    2    0    0 -0.11433358715E-01 -0.18308780882E-01  0.93536079508E-02  0.23524946983E-01  0.00000000000E+00 0. -1.
     999901    1    3    3    0    0 -0.46672442694E-01  0.55651282273E-01  0.10097956822E+00  0.88874757683E+00  0.88000000000E+00 0.  1.
        -11    1    4    4    0    0  0.18454227226E-01 -0.99524026515E-02 -0.51484120444E-01  0.55592127140E-01  0.51100000000E-03 0. -1.
         11    1    4    4    0    0  0.39651574183E-01 -0.27390098740E-01 -0.58849055729E-01  0.76065349045E-01  0.51100000000E-03 0.  1.
</event>
<event>
 8    1  0.1122848E+005  0.1043930E+01  0.7957747E-01            NaN
         13   -1    0    0    0    0  0.00000000000E+00  0.00000000000E+00  0.74505805969E-08  0.10566000000E+00  0.10566000000E+00 0.  1.
     999900   -1    0    0    0    0 -0.00000000000E+00 -0.00000000000E+00 -0.74505805969E-08  0.93827000000E+00  0.93827000000E+00 0. -1.
     999902    2    1    2    0    0  0.10678476880E-01 -0.98379673835E-02 -0.17935751534E-01  0.10208538943E+01  0.10205930467E+01 0.  0.
     999903    2    3    3    0    0 -0.16048651317E-01  0.12713634198E+00 -0.65286793311E-03  0.12968892705E+00  0.19939480979E-01 0.  0.
         14    1    1    2    0    0 -0.10678476880E-01  0.98379673835E-02  0.17935751534E-01  0.23076105690E-01  0.00000000000E+00 0.  1.
     999901    1    3    3    0    0  0.26727128197E-01 -0.13697430936E+00 -0.17282883601E-01  0.89116496726E+00  0.88000000000E+00 0. -1.
        -11    1    4    4    0    0 -0.92259491821E-02  0.22966354755E-01  0.45274015862E-02  0.25166050051E-01  0.51100000000E-03 0. -1.
         11    1    4    4    0    0 -0.68227021347E-02  0.10416998722E+00 -0.51802695193E-02  0.10452287700E+00  0.51100000000E-03 0.  1.
</event>
<event>
 8    1  0.1122848E+005  0.1043930E+01  0.7957747E-01            NaN
         13   -1    0    0    0    0  0.00000000000E+00  0.00000000000E+00  0.74505805969E-08  0.10566000000E+00  0.10566000000E+00 0. -1.
     999900   -1    0    0    0    0 -0.00000000000E+00 -0.00000000000E+00 -0.74505805969E-08  0.93827000000E+00  0.93827000000E+00 0.  1.
     999902    2    1    2    0    0  0.34416417172E-02  0.16547603615E-02 -0.23125453118E-01  0.10204913628E+01  0.10202221581E+01 0.  0.
     999903    2    3    3    0    0 -0.10145856882E+00  0.28939805983E-01 -0.77001788132E-01  0.13220583029E+00  0.20438997779E-01 0.  0.
         14    1    1    2    0    0 -0.34416417172E-02 -0.16547603615E-02  0.23125453118E-01  0.23438637150E-01  0.00000000000E+00 0. -1.
     999901    1    3    3    0    0  0.10490021053E+00 -0.27285045621E-01  0.53876335014E-01  0.88828553256E+00  0.88000000000E+00 0.  1.
        -11    1    4    4    0    0 -0.44517056272E-01  0.33963891244E-02 -0.37830265737E-01  0.58520884177E-01  0.51100000000E-03 0.  1.
         11    1    4    4    0    0 -0.56941512544E-01  0.25543416858E-01 -0.39171522395E-01  0.73684946110E-01  0.51100000000E-03 0. -1.
</event>
<event>
 8    1  0.1122848E+005  0.1043930E+01  0.7957747E-01            NaN
         13   -1    0    0    0    0  0.00000000000E+00  0.00000000000E+00  0.74505805969E-08  0.10566000000E+00  0.10566000000E+00 0.  1.
     999900   -1    0    0    0    0 -0.00000000000E+00 -0.00000000000E+00 -0.74505805969E-08  0.93827000000E+00  0.93827000000E+00 0.  1.
     999902    2    1    2    0    0 -0.20161714186E-01  0.18719702171E-01  0.27452476459E-03  0.10164164155E+01  0.10160439618E+01 0.  0.
     999903    2    3    3    0    0 -0.67325383728E-01  0.63699071627E-01 -0.88503793725E-01  0.12955163142E+00  0.18984853967E-01 0.  0.
         14    1    1    2    0    0  0.20161714186E-01 -0.18719702171E-01 -0.27452476459E-03  0.27513584502E-01  0.00000000000E+00 0.  1.
     999901    1    3    3    0    0  0.47163669542E-01 -0.44979369457E-01  0.88778318489E-01  0.88686478408E+00  0.88000000000E+00 0. -1.
        -11    1    4    4    0    0 -0.72604254260E-02  0.12525035844E-01 -0.22071524089E-01  0.26400825685E-01  0.51100000000E-03 0. -1.
         11    1    4    4    0    0 -0.60064958302E-01  0.51174035783E-01 -0.66432269636E-01  0.10315080574E+00  0.51100000000E-03 0.  1.
</event>
<event>
 8    1  0.1122848E+005  0.1043930E+01  0.7957747E-01            NaN
         13   -1    0    0    0    0  0.00000000000E+00  0.00000000000E+00  0.74505805969E-08  0.10566000000E+00  0.10566000000E+00 0.  1.
     999900   -1    0    0    0    0 -0.00000000000E+00 -0.00000000000E+00 -0.74505805969E-08  0.93827000000E+00  0.93827000000E+00 0. -1.
     999902    2    1    2    0    0 -0.21196745019E-01  0.79926426064E-02 -0.35696403540E-02  0.10209969089E+01  0.10207393209E+01 0.  0.
     999903    2    3    3    0    0  0.16883200720E-01 -0.20160377697E-01 -0.12713612220E+00  0.13110289821E+00  0.18245357090E-01 0.  0.
         14    1    1    2    0    0  0.21196745019E-01 -0.79926426064E-02  0.35696403540E-02  0.22933091102E-01  0.00000000000E+00 0. -1.
     999901    1    3    3    0    0 -0.38079945740E-01  0.28153020304E-01  0.12356648185E+00  0.88989401069E+00  0.88000000000E+00 0.  1.
        -11    1    4    4    0    0  0.99893101592E-02 -0.99428744924E-02 -0.29583263897E-01  0.32773124575E-01  0.51100000000E-03 0. -1.
         11    1    4    4    0    0  0.68938905613E-02 -0.10217503205E-01 -0.97552858305E-01  0.98329773636E-01  0.51100000000E-03 0.  1.
</event>
<event>
 8    1  0.1122848E+005  0.1043930E+01  0.7957747E-01            NaN
         13   -1    0    0    0    0  0.00000000000E+00  0.00000000000E+00  0.74505805969E-08  0.10566000000E+00  0.10566000000E+00 0.  1.
     999900   -1    0    0    0    0 -0.00000000000E+00 -0.00000000000E+00 -0.74505805969E-08  0.93827000000E+00  0.93827000000E+00 0.  1.
     999902    2    1    2    0    0 -0.22500573869E-02 -0.21487665515E-01  0.17569201948E-01  0.10160829286E+01  0.10157012644E+01 0.  0.
     999903    2    3    3    0    0  0.65797888375E-01  0.75312338196E-01 -0.70474370702E-01  0.12380918456E+00  0.18993863678E-01 0.  0.
         14    1    1    2    0    0  0.22500573869E-02  0.21487665515E-01 -0.17569201948E-01  0.27847071383E-01  0.00000000000E+00 0. -1.
     999901    1    3    3    0    0 -0.68047945762E-01 -0.96800003711E-01  0.88043572650E-01  0.89227374405E+00  0.88000000000E+00 0. -1.
        -11    1    4    4    0    0  0.45685842169E-01  0.47358604940E-01 -0.35695680542E-01  0.74863050746E-01  0.51100000000E-03 0. -1.
         11    1    4    4    0    0  0.20112046206E-01  0.27953733256E-01 -0.34778690160E-01  0.48946133818E-01  0.51100000000E-03 0.  1.
</event>
<event>
 8    1  0.1122848E+005  0.1043930E+01  0.7957747E-01            NaN
         13   -1    0    0    0    0  0.00000000000E+00  0.00000000000E+00  0.74505805969E-08  0.10566000000E+00  0.10566000000E+00 0. -1.
     999900   -1    0    0    0    0 -0.00000000000E+00 -0.00000000000E+00 -0.74505805969E-08  0.93827000000E+00  0.93827000000E+00 0.  1.
     999902    2    1    2    0    0  0.14355708372E-01  0.13113701757E-01 -0.13683127594E-01  0.10201543083E+01  0.10198772128E+01 0.  0.
     999903    2    3    3    0    0 -0.93936868651E-01 -0.83225745324E-01 -0.16915236771E-01  0.12829164068E+00  0.20541661499E-01 0.  0.
         14    1    1    2    0    0 -0.14355708372E-01 -0.13113701757E-01  0.13683127594E-01  0.23775691733E-01  0.00000000000E+00 0. -1.
     999901    1    3    3    0    0  0.10829257702E+00  0.96339447081E-01  0.32321091770E-02  0.89186266759E+00  0.88000000000E+00 0. -1.
        -11    1    4    4    0    0 -0.37779547513E-01 -0.39824516529E-01 -0.16474047745E-01  0.57314410903E-01  0.51100000000E-03 0.  1.
         11    1    4    4    0    0 -0.56157321138E-01 -0.43401228795E-01 -0.44118902584E-03  0.70977229779E-01  0.51100000000E-03 0. -1.
</event>
<event>
 8    1  0.1122848E+005  0.1043930E+01  0.7957747E-01            NaN
         13   -1    0    0    0    0  0.00000000000E+00  0.00000000000E+00  0.74505805969E-08  0.10566000000E+00  0.10566000000E+00 0.  1.
     999900   -1    0    0    0    0 -0.00000000000E+00 -0.00000000000E+00 -0.74505805969E-08  0.93827000000E+00  0.93827000000E+00 0. -1.
     999902    2    1    2    0    0  0.80684993150E-03 -0.11151143245E-01 -0.21863563678E-01  0.10193736481E+01  0.10190778282E+01 0.  0.
     999903    2    3    3    0    0 -0.38841625734E-01  0.10485750844E+00 -0.62825334736E-01  0.12993119600E+00  0.20768342316E-01 0.  0.
         14    1    1    2    0    0 -0.80684993150E-03  0.11151143245E-01  0.21863563678E-01  0.24556351911E-01  0.00000000000E+00 0.  1.
     999901    1    3    3    0    0  0.39648475666E-01 -0.11600865169E+00  0.40961771058E-01  0.88944245209E+00  0.88000000000E+00 0.  1.
        -11    1    4    4    0    0 -0.17002067456E-01  0.58559837047E-01 -0.44760741934E-01  0.75644629368E-01  0.51100000000E-03 0.  1.
         11    1    4    4    0    0 -0.21839558279E-01  0.46297671397E-01 -0.18064592802E-01  0.54286566632E-01  0.51100000000E-03 0. -1.
</event>
<event>
 8    1  0.1122848E+005  0.1043930E+01  0.7957747E-01            NaN
         13   -1    0    0    0    0  0.00000000000E+00  0.00000000000E+00  0.74505805969E-08  0.10566000000E+00  0.10566000000E+00 0.  1.
     999900   -1    0    0    0    0 -0.00000000000E+00 -0.00000000000E+00 -0.74505805969E-08  0.93827000000E+00  0.93827000000E+00 0. -1.
     999902    2    1    2    0    0  0.14608531630E-01  0.16355166084E-01 -0.12127916889E-01  0.10188703308E+01  0.10185621061E+01 0.  0.
     999903    2    3    3    0    0  0.12251544933E+00 -0.34113748790E-01  0.20249372161E-01  0.13025382006E+00  0.19550892195E-01 0.  0.
         14    1    1    2    0    0 -0.14608531630E-01 -0.16355166084E-01  0.12127916889E-01  0.25059669233E-01  0.00000000000E+00 0.  1.
     999901    1    3    3    0    0 -0.10790691770E+00  0.50468914874E-01 -0.32377289050E-01  0.88861651071E+00  0.88000000000E+00 0.  1.
        -11    1    4    4    0    0  0.61485107946E-01 -0.24971990026E-01  0.16725736426E-01  0.68439974905E-01  0.51100000000E-03 0. -1.
         11    1    4    4    0    0  0.61030341386E-01 -0.91417587644E-02  0.35236357348E-02  0.61813845154E-01  0.51100000000E-03 0.  1.
</event>
<event>
 8    1  0.1122848E+005  0.1043930E+01  0.7957747E-01            NaN
         13   -1    0    0    0    0  0.00000000000E+00  0.00000000000E+00  0.74505805969E-08  0.10566000000E+00  0.10566000000E+00 0.  1.
     999900   -1    0    0    0    0 -0.00000000000E+00 -0.00000000000E+00 -0.74505805969E-08  0.93827000000E+00  0.93827000000E+00 0. -1.
     999902    2    1    2    0    0 -0.10575283228E-01 -0.16974238849E-01 -0.11575437295E-01  0.10208225954E+01  0.10205610315E+01 0.  0.
     999903    2    3    3    0    0  0.11733496468E+00 -0.52965433489E-01 -0.11823239602E-01  0.13084705694E+00  0.20207232215E-01 0.  0.
         14    1    1    2    0    0  0.10575283228E-01  0.16974238849E-01  0.11575437295E-01  0.23107404624E-01  0.00000000000E+00 0. -1.
     999901    1    3    3    0    0 -0.12791024791E+00  0.35991194640E-01  0.24780230655E-03  0.88997553844E+00  0.88000000000E+00 0.  1.
        -11    1    4    4    0    0  0.60570799413E-01 -0.29334211921E-01  0.37841627230E-02  0.67408447090E-01  0.51100000000E-03 0. -1.
         11    1    4    4    0    0  0.56764165267E-01 -0.23631221568E-01 -0.15607402325E-01  0.63438609849E-01  0.51100000000E-03 0.  1.
</event>
<event>
 8    1  0.1122848E+005  0.1043930E+01  0.7957747E-01            NaN
         13   -1    0    0    0    0  0.00000000000E+00  0.00000000000E+00  0.74505805969E-08  0.10566000000E+00  0.10566000000E+00 0.  1.
     999900   -1    0    0    0    0 -0.00000000000E+00 -0.00000000000E+00 -0.74505805969E-08  0.93827000000E+00  0.93827000000E+00 0.  1.
     999902    2    1    2    0    0 -0.17967400364E-01  0.29136924632E-02 -0.14833556223E-01  0.10204491254E+01  0.10201789383E+01 0.  0.
     999903    2    3    3    0    0  0.76699927520E-01 -0.10151103978E+00 -0.73901808710E-02  0.12920177958E+00  0.21239467866E-01 0.  0.
         14    1    1    2    0    0  0.17967400364E-01 -0.29136924632E-02  0.14833556223E-01  0.23480874554E-01  0.00000000000E+00 0.  1.
     999901    1    3    3    0    0 -0.94667327884E-01  0.10442473224E+00 -0.74433753522E-02  0.89124734586E+00  0.88000000000E+00 0. -1.
        -11    1    4    4    0    0  0.34691852443E-01 -0.40048080772E-01 -0.12946605875E-01  0.54545844243E-01  0.51100000000E-03 0. -1.
         11    1    4    4    0    0  0.42008075077E-01 -0.61462959007E-01  0.55564250040E-02  0.74655935339E-01  0.51100000000E-03 0.  1.
</event>
<event>
 8    1  0.1122848E+005  0.1043930E+01  0.7957747E-01            NaN
         13   -1    0    0    0    0  0.00000000000E+00  0.00000000000E+00  0.74505805969E-08  0.10566000000E+00  0.10566000000E+00 0.  1.
     999900   -1    0    0    0    0 -0.00000000000E+00 -0.00000000000E+00 -0.74505805969E-08  0.93827000000E+00  0.93827000000E+00 0.  1.
     999902    2    1    2    0    0  0.58518363300E-02 -0.28202661819E-02 -0.22866595775E-01  0.10201586077E+01  0.10198816136E+01 0.  0.
     999903    2    3    3    0    0 -0.91205122527E-01 -0.11889504020E-01  0.86819323112E-01  0.12800766467E+00  0.19713768488E-01 0.  0.
         14    1    1    2    0    0 -0.58518363300E-02  0.28202661819E-02  0.22866595775E-01  0.23771392304E-01  0.00000000000E+00 0.  1.
     999901    1    3    3    0    0  0.97056958857E-01  0.90692378377E-02 -0.10968591889E+00  0.89215094302E+00  0.88000000000E+00 0.  1.
        -11    1    4    4    0    0 -0.50394350218E-01 -0.16115118435E-01  0.52128311931E-01  0.74275901892E-01  0.51100000000E-03 0.  1.
         11    1    4    4    0    0 -0.40810772309E-01  0.42256144154E-02  0.34691011181E-01  0.53731762779E-01  0.51100000000E-03 0. -1.
</event>
<event>
 8    1  0.1122848E+005  0.1043930E+01  0.7957747E-01            NaN
         13   -1    0    0    0    0  0.00000000000E+00  0.00000000000E+00  0.74505805969E-08  0.10566000000E+00  0.10566000000E+00 0.  1.
     999900   -1    0    0    0    0 -0.00000000000E+00 -0.00000000000E+00 -0.74505805969E-08  0.93827000000E+00  0.93827000000E+00 0. -1.
     999902    2    1    2    0    0  0.96756288147E-02 -0.16527022833E-02  0.21506601555E-01  0.10202892909E+01  0.10200153695E+01 0.  0.
     999903    2    3    3    0    0 -0.43114337279E-01 -0.11016424777E+00 -0.48428385841E-01  0.12930531880E+00  0.19482026282E-01 0.  0.
         14    1    1    2    0    0 -0.96756288147E-02  0.16527022833E-02 -0.21506601555E-01  0.23640709131E-01  0.00000000000E+00 0. -1.
     999901    1    3    3    0    0  0.52789966093E-01  0.10851154549E+00  0.69934987396E-01  0.89098397207E+00  0.88000000000E+00 0. -1.
        -11    1    4    4    0    0 -0.34201520348E-01 -0.10255817862E+00 -0.44823099956E-01  0.11703544508E+00  0.51100000000E-03 0.  1.
         11    1    4    4    0    0 -0.89128169309E-02 -0.76060691544E-02 -0.36052858850E-02  0.12269873713E-01  0.51100000000E-03 0. -1.
</event>
<event>
 8    1  0.1122848E+005  0.1043930E+01  0.7957747E-01            NaN
         13   -1    0    0    0    0  0.00000000000E+00  0.00000000000E+00  0.74505805969E-08  0.10566000000E+00  0.10566000000E+00 0.  1.
     999900   -1    0    0    0    0 -0.00000000000E+00 -0.00000000000E+00 -0.74505805969E-08  0.93827000000E+00  0.93827000000E+00 0. -1.
     999902    2    1    2    0    0 -0.33062628466E-03  0.14655603228E-01 -0.19506699549E-01  0.10195290298E+01  0.10192369868E+01 0.  0.
     999903    2    3    3    0    0  0.11035492298E+00  0.24854711430E-01 -0.63738129669E-01  0.13143459110E+00  0.20409234610E-01 0.  0.
         14    1    1    2    0    0  0.33062628466E-03 -0.14655603228E-01  0.19506699549E-01  0.24400970206E-01  0.00000000000E+00 0.  1.
     999901    1    3    3    0    0 -0.11068554927E+00 -0.10199108202E-01  0.44231430120E-01  0.88809443869E+00  0.88000000000E+00 0. -1.
        -11    1    4    4    0    0  0.88487249201E-01  0.19538929938E-01 -0.41083953981E-01  0.99498318830E-01  0.51100000000E-03 0. -1.
         11    1    4    4    0    0  0.21867673784E-01  0.53157814922E-02 -0.22654175687E-01  0.31936272272E-01  0.51100000000E-03 0.  1.
</event>
<event>
 8    1  0.1122848E+005  0.1043930E+01  0.7957747E-01            NaN
         13   -1    0    0    0    0  0.00000000000E+00  0.00000000000E+00  0.74505805969E-08  0.10566000000E+00  0.10566000000E+00 0.  1.
     999900   -1    0    0    0    0 -0.00000000000E+00 -0.00000000000E+00 -0.74505805969E-08  0.93827000000E+00  0.93827000000E+00 0.  1.
     999902    2    1    2    0    0  0.52480219216E-02 -0.18297356467E-01 -0.14388359328E-01  0.10200687370E+01  0.10197896196E+01 0.  0.
     999903    2    3    3    0    0 -0.32346372974E-01  0.81775402308E-01 -0.93498882232E-01  0.13007639411E+00  0.21078971935E-01 0.  0.
         14    1    1    2    0    0 -0.52480219216E-02  0.18297356467E-01  0.14388359328E-01  0.23861262999E-01  0.00000000000E+00 0. -1.
     999901    1    3    3    0    0  0.37594394896E-01 -0.10007275877E+00  0.79110522905E-01  0.88999234289E+00  0.88000000000E+00 0. -1.
        -11    1    4    4    0    0 -0.14763611052E-01  0.18495597913E-01 -0.34172435933E-01  0.41570035507E-01  0.51100000000E-03 0.  1.
         11    1    4    4    0    0 -0.17582761922E-01  0.63279804394E-01 -0.59326446299E-01  0.88506358599E-01  0.51100000000E-03 0. -1.
</event>
<event>
 8    1  0.1122848E+005  0.1043930E+01  0.7957747E-01            NaN
         13   -1    0    0    0    0  0.00000000000E+00  0.00000000000E+00  0.74505805969E-08  0.10566000000E+00  0.10566000000E+00 0.  1.
     999900   -1    0    0    0    0 -0.00000000000E+00 -0.00000000000E+00 -0.74505805969E-08  0.93827000000E+00  0.93827000000E+00 0.  1.
     999902    2    1    2    0    0  0.20175659330E-02  0.32141979736E-02  0.23060770902E-01  0.10205590609E+01  0.10202914270E+01 0.  0.
     999903    2    3    3    0    0  0.67222338819E-01 -0.79595599341E-01 -0.73508995480E-01  0.12902395516E+00  0.19730846890E-01 0.  0.
         14    1    1    2    0    0 -0.20175659330E-02 -0.32141979736E-02 -0.23060770902E-01  0.23370939124E-01  0.00000000000E+00 0. -1.
     999901    1    3    3    0    0 -0.65204772886E-01  0.82809797314E-01  0.96569766383E-01  0.89153510571E+00  0.88000000000E+00 0.  1.
        -11    1    4    4    0    0  0.48110454148E-01 -0.45446230599E-01 -0.38831770169E-01  0.76734237270E-01  0.51100000000E-03 0.  1.
         11    1    4    4    0    0  0.19111884671E-01 -0.34149368742E-01 -0.34677225312E-01  0.52289717894E-01  0.51100000000E-03 0. -1.
</event>
<event>
 8    1  0.1122848E+005  0.1043930E+01  0.7957747E-01            NaN
         13   -1    0    0    0    0  0.00000000000E+00  0.00000000000E+00  0.74505805969E-08  0.10566000000E+00  0.10566000000E+00 0. -1.
     999900   -1    0    0    0    0 -0.00000000000E+00 -0.00000000000E+00 -0.74505805969E-08  0.93827000000E+00  0.93827000000E+00 0.  1.
     999902    2    1    2    0    0 -0.13492135820E-01 -0.83859443585E-02  0.19352643980E-01  0.10188922960E+01  0.10185846181E+01 0.  0.
     999903    2    3    3    0    0  0.12077010801E-01 -0.12046631226E+00 -0.40589814971E-01  0.12939306133E+00  0.20905613146E-01 0.  0.
         14    1    1    2    0    0  0.13492135820E-01  0.83859443585E-02 -0.19352643980E-01  0.25037703984E-01  0.00000000000E+00 0.  1.
     999901    1    3    3    0    0 -0.25569146621E-01  0.11208036790E+00  0.59942458951E-01  0.88949923469E+00  0.88000000000E+00 0. -1.
        -11    1    4    4    0    0  0.50994692281E-03 -0.47070715210E-01 -0.25622111501E-01  0.53597257347E-01  0.51100000000E-03 0.  1.
         11    1    4    4    0    0  0.11567063878E-01 -0.73395597049E-01 -0.14967703469E-01  0.75795803980E-01  0.51100000000E-03 0. -1.
</event>
<event>
 8    1  0.1122848E+005  0.1043930E+01  0.7957747E-01            NaN
         13   -1    0    0    0    0  0.00000000000E+00  0.00000000000E+00  0.74505805969E-08  0.10566000000E+00  0.10566000000E+00 0.  1.
     999900   -1    0    0    0    0 -0.00000000000E+00 -0.00000000000E+00 -0.74505805969E-08  0.93827000000E+00  0.93827000000E+00 0.  1.
     999902    2    1    2    0    0  0.22787413030E-02  0.21073661793E-01  0.95347245558E-02  0.10206877356E+01  0.10204230744E+01 0.  0.
     999903    2    3    3    0    0  0.12496343478E+00 -0.27377851709E-01  0.18875976253E-01  0.13080777616E+00  0.19722196358E-01 0.  0.
         14    1    1    2    0    0 -0.22787413030E-02 -0.21073661793E-01 -0.95347245558E-02  0.23242264426E-01  0.00000000000E+00 0.  1.
     999901    1    3    3    0    0 -0.12268469348E+00  0.48451513503E-01 -0.93412516973E-02  0.88987995941E+00  0.88000000000E+00 0. -1.
        -11    1    4    4    0    0  0.11916256304E+00 -0.30244282237E-01  0.18209530337E-01  0.12428306865E+00  0.51100000000E-03 0. -1.
         11    1    4    4    0    0  0.58008717442E-02  0.28664305278E-02  0.66644591590E-03  0.65247075124E-02  0.51100000000E-03 0.  1.
</event>
<event>
 8    1  0.1122848E+005  0.1043930E+01  0.7957747E-01            NaN
         13   -1    0    0    0    0  0.00000000000E+00  0.00000000000E+00  0.74505805969E-08  0.10566000000E+00  0.10566000000E+00 0.  1.
     999900   -1    0    0    0    0 -0.00000000000E+00 -0.00000000000E+00 -0.74505805969E-08  0.93827000000E+00  0.93827000000E+00 0.  1.
     999902    2    1    2    0    0 -0.16013946810E-01 -0.16240321065E-02 -0.20431921313E-01  0.10179194756E+01  0.10175871026E+01 0.  0.
     999903    2    3    3    0    0 -0.11736927831E+00 -0.89835436176E-02  0.50173978779E-01  0.12926191567E+00  0.18301998480E-01 0.  0.
         14    1    1    2    0    0  0.16013946810E-01  0.16240321065E-02  0.20431921313E-01  0.26010524433E-01  0.00000000000E+00 0.  1.
     999901    1    3    3    0    0  0.10135533150E+00  0.73595115111E-02 -0.70605900092E-01  0.88865755990E+00  0.88000000000E+00 0.  1.
        -11    1    4    4    0    0 -0.22024699847E-01  0.47874288405E-02  0.12843882062E-01  0.25946739789E-01  0.51100000000E-03 0. -1.
         11    1    4    4    0    0 -0.95344578467E-01 -0.13770972458E-01  0.37330096716E-01  0.10331517588E+00  0.51100000000E-03 0.  1.
</event>
<event>
 8    1  0.1122848E+005  0.1043930E+01  0.7957747E-01            NaN
         13   -1    0    0    0    0  0.00000000000E+00  0.00000000000E+00  0.74505805969E-08  0.10566000000E+00  0.10566000000E+00 0.  1.
     999900   -1    0    0    0    0 -0.00000000000E+00 -0.00000000000E+00 -0.74505805969E-08  0.93827000000E+00  0.93827000000E+00 0.  1.
     999902    2    1    2    0    0 -0.44504281851E-02 -0.14555579972E-01  0.17583282677E-01  0.10206739675E+01  0.10204089890E+01 0.  0.
     999903    2    3    3    0    0 -0.12795433478E+00 -0.27102903612E-02 -0.20436872546E-01  0.13115777423E+00  0.20125568808E-01 0.  0.
         14    1    1    2    0    0  0.44504281851E-02  0.14555579972E-01 -0.17583282677E-01  0.23256032530E-01  0.00000000000E+00 0.  1.
     999901    1    3    3    0    0  0.12350390659E+00 -0.11845289611E-01  0.38020155223E-01  0.88951619324E+00  0.88000000000E+00 0.  1.
        -11    1    4    4    0    0 -0.46276414210E-01  0.82934766707E-02 -0.10164685165E-01  0.48102704840E-01  0.51100000000E-03 0. -1.
         11    1    4    4    0    0 -0.81677920567E-01 -0.11003767032E-01 -0.10272187381E-01  0.83055069392E-01  0.51100000000E-03 0.  1.
</event>
<event>
 8    1  0.1122848E+005  0.1043930E+01  0.7957747E-01            NaN
         13   -1    0    0    0    0  0.00000000000E+00  0.00000000000E+00  0.74505805969E-08  0.10566000000E+00  0.10566000000E+00 0. -1.
     999900   -1    0    0    0    0 -0.00000000000E+00 -0.00000000000E+00 -0.74505805969E-08  0.93827000000E+00  0.93827000000E+00 0.  1.
     999902    2    1    2    0    0 -0.11528386632E-01  0.20092595499E-01 -0.13112807084E-01  0.10173111758E+01  0.10169628639E+01 0.  0.
     999903    2    3    3    0    0  0.39458906172E-02  0.43415741938E-01 -0.12105213352E+00  0.13027435548E+00  0.20427725382E-01 0.  0.
         14    1    1    2    0    0  0.11528386632E-01 -0.20092595499E-01  0.13112807084E-01  0.26618824200E-01  0.00000000000E+00 0. -1.
     999901    1    3    3    0    0 -0.15474277249E-01 -0.23323146440E-01  0.10793932644E+00  0.88703682032E+00  0.88000000000E+00 0. -1.
        -11    1    4    4    0    0  0.67450542541E-02  0.25953850585E-01 -0.46773021269E-01  0.53917295525E-01  0.51100000000E-03 0. -1.
         11    1    4    4    0    0 -0.27991636369E-02  0.17461891353E-01 -0.74279112251E-01  0.76357059952E-01  0.51100000000E-03 0.  1.
</event>
<event>
 8    1  0.1122848E+005  0.1043930E+01  0.7957747E-01            NaN
         13   -1    0    0    0    0  0.00000000000E+00  0.00000000000E+00  0.74505805969E-08  0.10566000000E+00  0.10566000000E+00 0.  1.
     999900   -1    0    0    0    0 -0.00000000000E+00 -0.00000000000E+00 -0.74505805969E-08  0.93827000000E+00  0.93827000000E+00 0. -1.
     999902    2    1    2    0    0 -0.20511184171E-02 -0.20907922174E-01 -0.98699922080E-02  0.10207186872E+01  0.10204547385E+01 0.  0.
     999903    2    3    3    0    0  0.22851530726E-01  0.96438414436E-01 -0.81251198466E-01  0.12971611634E+00  0.20048774280E-01 0.  0.
         14    1    1    2    0    0  0.20511184171E-02  0.20907922174E-01  0.98699922080E-02  0.23211312814E-01  0.00000000000E+00 0.  1.
     999901    1    3    3    0    0 -0.24902649143E-01 -0.11734633661E+00  0.71381206258E-01  0.89100257085E+00  0.88000000000E+00 0.  1.
        -11    1    4    4    0    0  0.16818642055E-01  0.66801440384E-01 -0.67646349286E-01  0.96548375702E-01  0.51100000000E-03 0.  1.
         11    1    4    4    0    0  0.60328886715E-02  0.29636974052E-01 -0.13604849180E-01  0.33167740636E-01  0.51100000000E-03 0. -1.
</event>
<event>
 8    1  0.1122848E+005  0.1043930E+01  0.7957747E-01            NaN
         13   -1    0    0    0    0  0.00000000000E+00  0.00000000000E+00  0.74505805969E-08  0.10566000000E+00  0.10566000000E+00 0. -1.
     999900   -1    0    0    0    0 -0.00000000000E+00 -0.00000000000E+00 -0.74505805969E-08  0.93827000000E+00  0.93827000000E+00 0. -1.
     999902    2    1    2    0    0 -0.22145393590E-01 -0.59426250626E-02 -0.37800716854E-02  0.10206916224E+01  0.10204270508E+01 0.  0.
     999903    2    3    3    0    0  0.10305433937E+00  0.52335359174E-01 -0.52715297761E-01  0.12857842730E+00  0.19857559454E-01 0.  0.
         14    1    1    2    0    0  0.22145393590E-01  0.59426250626E-02  0.37800716854E-02  0.23238377564E-01  0.00000000000E+00 0.  1.
     999901    1    3    3    0    0 -0.12519973296E+00 -0.58277984236E-01  0.48935226075E-01  0.89211319513E+00  0.88000000000E+00 0. -1.
        -11    1    4    4    0    0  0.74838700493E-01  0.32867913077E-01 -0.28342045132E-01  0.86513949423E-01  0.51100000000E-03 0.  1.
         11    1    4    4    0    0  0.28215638874E-01  0.19467446097E-01 -0.24373252629E-01  0.42064477880E-01  0.51100000000E-03 0. -1.
</event>
<event>
 8    1  0.1122848E+005  0.1043930E+01  0.7957747E-01            NaN
         13   -1    0    0    0    0  0.00000000000E+00  0.00000000000E+00  0.74505805969E-08  0.10566000000E+00  0.10566000000E+00 0. -1.
     999900   -1    0    0    0    0 -0.00000000000E+00 -0.00000000000E+00 -0.74505805969E-08  0.93827000000E+00  0.93827000000E+00 0. -1.
     999902    2    1    2    0    0 -0.11692742349E-01  0.20290234267E-01 -0.14014799698E-02  0.10204698641E+01  0.10202001596E+01 0.  0.
     999903    2    3    3    0    0 -0.12767446458E+00 -0.67178633867E-02 -0.26338525661E-01  0.13209885294E+00  0.20260563160E-01 0.  0.
         14    1    1    2    0    0  0.11692742349E-01 -0.20290234267E-01  0.14014799698E-02  0.23460135898E-01  0.00000000000E+00 0.  1.
     999901    1    3    3    0    0  0.11598172223E+00  0.27008097654E-01  0.24937045691E-01  0.88837101116E+00  0.88000000000E+00 0.  1.
        -11    1    4    4    0    0 -0.11785762006E+00 -0.59073679829E-03 -0.24235526375E-01  0.12032617934E+00  0.51100000000E-03 0. -1.
         11    1    4    4    0    0 -0.98168445228E-02 -0.61271265884E-02 -0.21029992859E-02  0.11772673597E-01  0.51100000000E-03 0.  1.
</event>
<event>
 8    1  0.1122848E+005  0.1043930E+01  0.7957747E-01            NaN
         13   -1    0    0    0    0  0.00000000000E+00  0.00000000000E+00  0.74505805969E-08  0.10566000000E+00  0.10566000000E+00 0. -1.
     999900   -1    0    0    0    0 -0.00000000000E+00 -0.00000000000E+00 -0.74505805969E-08  0.93827000000E+00  0.93827000000E+00 0.  1.
     999902    2    1    2    0    0 -0.55469922059E-02  0.84676019005E-02  0.20981096766E-01  0.10206345965E+01  0.10203687097E+01 0.  0.
     999903    2    3    3    0    0  0.37249379639E-01 -0.69607407000E-01  0.10410651277E+00  0.13224443936E+00  0.20438159054E-01 0.  0.
         14    1    1    2    0    0  0.55469922059E-02 -0.84676019005E-02 -0.20981096766E-01  0.23295403538E-01  0.00000000000E+00 0.  1.
     999901    1    3    3    0    0 -0.42796371845E-01  0.78075008900E-01 -0.83125416008E-01  0.88839015711E+00  0.88000000000E+00 0.  1.
        -11    1    4    4    0    0  0.23752105910E-01 -0.42605183633E-01  0.47487833375E-01  0.68078775306E-01  0.51100000000E-03 0. -1.
         11    1    4    4    0    0  0.13497273729E-01 -0.27002223367E-01  0.56618679400E-01  0.64165664049E-01  0.51100000000E-03 0.  1.
</event>
<event>
 8    1  0.1122848E+005  0.1043930E+01  0.7957747E-01            NaN
         13   -1    0    0    0    0  0.00000000000E+00  0.00000000000E+00  0.74505805969E-08  0.10566000000E+00  0.10566000000E+00 0.  1.
     999900   -1    0    0    0    0 -0.00000000000E+00 -0.00000000000E+00 -0.74505805969E-08  0.93827000000E+00  0.93827000000E+00 0. -1.
     999902    2    1    2    0    0 -0.11318931657E-01  0.20389064984E-01 -0.37558994163E-02  0.10203092683E+01  0.10200358151E+01 0.  0.
     999903    2    3    3    0    0 -0.24264234527E-01 -0.43592617318E-01  0.11792062606E+00  0.12954195112E+00  0.19666562652E-01 0.  0.
         14    1    1    2    0    0  0.11318931657E-01 -0.20389064984E-01  0.37558994163E-02  0.23620731682E-01  0.00000000000E+00 0. -1.
     999901    1    3    3    0    0  0.12945302870E-01  0.63981682302E-01 -0.12167652548E+00  0.89076731720E+00  0.88000000000E+00 0. -1.
        -11    1    4    4    0    0 -0.11505263129E-01 -0.37945145676E-01  0.88312648507E-01  0.96806973754E-01  0.51100000000E-03 0. -1.
         11    1    4    4    0    0 -0.12758971398E-01 -0.56474716420E-02  0.29607977557E-01  0.32734977365E-01  0.51100000000E-03 0.  1.
</event>
<event>
 8    1  0.1122848E+005  0.1043930E+01  0.7957747E-01            NaN
         13   -1    0    0    0    0  0.00000000000E+00  0.00000000000E+00  0.74505805969E-08  0.10566000000E+00  0.10566000000E+00 0.  1.
     999900   -1    0    0    0    0 -0.00000000000E+00 -0.00000000000E+00 -0.74505805969E-08  0.93827000000E+00  0.93827000000E+00 0. -1.
     999902    2    1    2    0    0 -0.95134665273E-02 -0.10036810446E-02 -0.21278337045E-01  0.10206001683E+01  0.10203334859E+01 0.  0.
     999903    2    3    3    0    0 -0.98149064853E-01  0.78960790067E-01  0.30775892148E-01  0.13101586720E+00  0.18707127578E-01 0.  0.
         14    1    1    2    0    0  0.95134665273E-02  0.10036810446E-02  0.21278337045E-01  0.23329831727E-01  0.00000000000E+00 0.  1.
     999901    1    3    3    0    0  0.88635598326E-01 -0.79964471112E-01 -0.52054229193E-01  0.88958430107E+00  0.88000000000E+00 0. -1.
        -11    1    4    4    0    0 -0.35089657506E-01  0.38366927971E-01  0.17435233543E-01  0.54841168072E-01  0.51100000000E-03 0.  1.
         11    1    4    4    0    0 -0.63059407347E-01  0.40593862096E-01  0.13340658605E-01  0.76174699132E-01  0.51100000000E-03 0. -1.
</event>
<event>
 8    1  0.1122848E+005  0.1043930E+01  0.7957747E-01            NaN
         13   -1    0    0    0    0  0.00000000000E+00  0.00000000000E+00  0.74505805969E-08  0.10566000000E+00  0.10566000000E+00 0.  1.
     999900   -1    0    0    0    0 -0.00000000000E+00 -0.00000000000E+00 -0.74505805969E-08  0.93827000000E+00  0.93827000000E+00 0.  1.
     999902    2    1    2    0    0 -0.10982524034E-01 -0.23180201988E-01  0.67983610356E-02  0.10173940751E+01  0.10170479579E+01 0.  0.
     999903    2    3    3    0    0  0.32785040970E-01 -0.11126977223E+00 -0.54666804387E-01  0.12978304615E+00  0.19983954631E-01 0.  0.
         14    1    1    2    0    0  0.10982524034E-01  0.23180201988E-01 -0.67983610356E-02  0.26535924916E-01  0.00000000000E+00 0. -1.
     999901    1    3    3    0    0 -0.43767565004E-01  0.88089570238E-01  0.61465165422E-01  0.88761102894E+00  0.88000000000E+00 0. -1.
        -11    1    4    4    0    0  0.84802343976E-02 -0.40124072583E-01 -0.95857006400E-02  0.42118907321E-01  0.51100000000E-03 0. -1.
         11    1    4    4    0    0  0.24304806572E-01 -0.71145699642E-01 -0.45081103747E-01  0.87664138826E-01  0.51100000000E-03 0.  1.
</event>
<event>
 8    1  0.1122848E+005  0.1043930E+01  0.7957747E-01            NaN
         13   -1    0    0    0    0  0.00000000000E+00  0.00000000000E+00  0.74505805969E-08  0.10566000000E+00  0.10566000000E+00 0.  1.
     999900   -1    0    0    0    0 -0.00000000000E+00 -0.00000000000E+00 -0.74505805969E-08  0.93827000000E+00  0.93827000000E+00 0.  1.
     999902    2    1    2    0    0 -0.18578353559E-01  0.35873245648E-02 -0.13785139833E-01  0.10205194426E+01  0.10202508900E+01 0.  0.
     999903    2    3    3    0    0 -0.43756253044E-01 -0.55357688799E-01  0.10724130606E+00  0.12992647055E+00  0.20027646765E-01 0.  0.
         14    1    1    2    0    0  0.18578353559E-01 -0.35873245648E-02  0.13785139833E-01  0.23410557420E-01  0.00000000000E+00 0.  1.
     999901    1    3    3    0    0  0.25177899485E-01  0.58945013364E-01 -0.12102644589E+00  0.89059297203E+00  0.88000000000E+00 0.  1.
        -11    1    4    4    0    0 -0.22498789493E-01 -0.43556735977E-01  0.72320878123E-01  0.87372508898E-01  0.51100000000E-03 0.  1.
         11    1    4    4    0    0 -0.21257463551E-01 -0.11800952821E-01  0.34920427936E-01  0.42553961652E-01  0.51100000000E-03 0. -1.
</event>
<event>
 8    1  0.1122848E+005  0.1043930E+01  0.7957747E-01            NaN
         13   -1    0    0    0    0  0.00000000000E+00  0.00000000000E+00  0.74505805969E-08  0.10566000000E+00  0.10566000000E+00 0.  1.
     999900   -1    0    0    0    0 -0.00000000000E+00 -0.00000000000E+00 -0.74505805969E-08  0.93827000000E+00  0.93827000000E+00 0. -1.
     999902    2    1    2    0    0  0.15331265204E-01  0.83692144732E-02 -0.17170639091E-01  0.10194366889E+01  0.10191424043E+01 0.  0.
     999903    2    3    3    0    0 -0.50871635113E-01  0.11657100097E+00  0.15777870682E-01  0.12973108873E+00  0.20112002714E-01 0.  0.
         14    1    1    2    0    0 -0.15331265204E-01 -0.83692144732E-02  0.17170639091E-01  0.24493311137E-01  0.00000000000E+00 0. -1.
     999901    1    3    3    0    0  0.66202900317E-01 -0.10820178650E+00 -0.32948509773E-01  0.88970560013E+00  0.88000000000E+00 0.  1.
        -11    1    4    4    0    0 -0.79553300196E-02  0.26512411416E-01 -0.41591551238E-02  0.27995623357E-01  0.51100000000E-03 0. -1.
         11    1    4    4    0    0 -0.42916305093E-01  0.90058589556E-01  0.19937025805E-01  0.10173546537E+00  0.51100000000E-03 0.  1.
</event>
<event>
 8    1  0.1122848E+005  0.1043930E+01  0.7957747E-01            NaN
         13   -1    0    0    0    0  0.00000000000E+00  0.00000000000E+00  0.74505805969E-08  0.10566000000E+00  0.10566000000E+00 0. -1.
     999900   -1    0    0    0    0 -0.00000000000E+00 -0.00000000000E+00 -0.74505805969E-08  0.93827000000E+00  0.93827000000E+00 0.  1.
     999902    2    1    2    0    0 -0.13668742453E-01  0.13573189208E-01  0.12899595110E-01  0.10207466970E+01  0.10204833922E+01 0.  0.
     999903    2    3    3    0    0  0.10607421419E+00  0.23379225142E-01  0.70066614066E-01  0.13074523514E+00  0.19663647189E-01 0.  0.
         14    1    1    2    0    0  0.13668742453E-01 -0.13573189208E-01 -0.12899595110E-01  0.23183303033E-01  0.00000000000E+00 0.  1.
     999901    1    3    3    0    0 -0.11974295664E+00 -0.98060359334E-02 -0.57167018957E-01  0.89000146183E+00  0.88000000000E+00 0.  1.
        -11    1    4    4    0    0  0.13510655050E-01  0.78612433006E-02  0.16252925744E-01  0.22555612657E-01  0.51100000000E-03 0.  1.
         11    1    4    4    0    0  0.92563559135E-01  0.15517981841E-01  0.53813688323E-01  0.10818962248E+00  0.51100000000E-03 0. -1.
</event>
<event>
 8    1  0.1122848E+005  0.1043930E+01  0.7957747E-01            NaN
         13   -1    0    0    0    0  0.00000000000E+00  0.00000000000E+00  0.74505805969E-08  0.10566000000E+00  0.10566000000E+00 0. -1.
     999900   -1    0    0    0    0 -0.00000000000E+00 -0.00000000000E+00 -0.74505805969E-08  0.93827000000E+00  0.93827000000E+00 0.  1.
     999902    2    1    2    0    0  0.74052891333E-02  0.16730591247E-01 -0.15062811961E-01  0.10202310698E+01  0.10199557816E+01 0.  0.
     999903    2    3    3    0    0 -0.82069788168E-01 -0.36596913621E-01 -0.92623331410E-01  0.13070015606E+00  0.20704228000E-01 0.  0.
         14    1    1    2    0    0 -0.74052891333E-02 -0.16730591247E-01  0.15062811961E-01  0.23698930246E-01  0.00000000000E+00 0. -1.
     999901    1    3    3    0    0  0.89475077301E-01  0.53327504867E-01  0.77560519449E-01  0.88953091369E+00  0.88000000000E+00 0. -1.
        -11    1    4    4    0    0 -0.31757483380E-01 -0.10266694062E-01 -0.48059430155E-01  0.58514209432E-01  0.51100000000E-03 0.  1.
         11    1    4    4    0    0 -0.50312304788E-01 -0.26330219559E-01 -0.44563901255E-01  0.72185946632E-01  0.51100000000E-03 0. -1.
</event>
<event>
 7    1  0.1122848E+005  0.1043930E+01  0.7957747E-01            NaN
         13   -1    0    0    0    0  0.00000000000E+00  0.00000000000E+00  0.74505805969E-08  0.10566000000E+00  0.10566000000E+00 0.  1.
     999900   -1    0    0    0    0 -0.00000000000E+00 -0.00000000000E+00 -0.74505805969E-08  0.93827000000E+00  0.93827000000E+00 0. -1.
     999903    2    1    2    0    0 -0.20360479720E-01  0.86033460694E-01 -0.67648505038E-01  0.11373274577E+00  0.23291881282E-01 0.  0.
         14    1    1    2    0    0 -0.11439905959E-01  0.35581303112E-01  0.13055399825E-01  0.39589696185E-01  0.00000000000E+00 0.  1.
     999901    1    1    2    0    0  0.31800385679E-01 -0.12161476381E+00  0.54593105213E-01  0.89060755804E+00  0.88000000000E+00 0.  1.
        -11    1    3    3    0    0 -0.42112356184E-02  0.63163745444E-01 -0.49544554640E-01  0.80388539354E-01  0.51100000000E-03 0. -1.
         11    1    3    3    0    0 -0.16149244102E-01  0.22869715250E-01 -0.18103950398E-01  0.33344206419E-01  0.51100000000E-03 0.  1.
</event>
<event>
 8    1  0.1122848E+005  0.1043930E+01  0.7957747E-01            NaN
         13   -1    0    0    0    0  0.00000000000E+00  0.00000000000E+00  0.74505805969E-08  0.10566000000E+00  0.10566000000E+00 0.  1.
     999900   -1    0    0    0    0 -0.00000000000E+00 -0.00000000000E+00 -0.74505805969E-08  0.93827000000E+00  0.93827000000E+00 0. -1.
     999902    2    1    2    0    0 -0.17252309004E-01  0.11562176148E-01 -0.11031833431E-01  0.10204134647E+01  0.10201424467E+01 0.  0.
     999903    2    3    3    0    0 -0.80735636760E-01 -0.65580482993E-01  0.75810001423E-01  0.13051311802E+00  0.21621167081E-01 0.  0.
         14    1    1    2    0    0  0.17252309004E-01 -0.11562176148E-01  0.11031833431E-01  0.23516535292E-01  0.00000000000E+00 0.  1.
     999901    1    3    3    0    0  0.63483327755E-01  0.77142659141E-01 -0.86841834854E-01  0.88990034669E+00  0.88000000000E+00 0.  1.
        -11    1    4    4    0    0 -0.27923629827E-01 -0.28371679797E-01  0.17511211265E-01  0.43492355170E-01  0.51100000000E-03 0. -1.
         11    1    4    4    0    0 -0.52812006933E-01 -0.37208803195E-01  0.58298790158E-01  0.87020762846E-01  0.51100000000E-03 0.  1.
</event>
<event>
 8    1  0.1122848E+005  0.1043930E+01  0.7957747E-01            NaN
         13   -1    0    0    0    0  0.00000000000E+00  0.00000000000E+00  0.74505805969E-08  0.10566000000E+00  0.10566000000E+00 0. -1.
     999900   -1    0    0    0    0 -0.00000000000E+00 -0.00000000000E+00 -0.74505805969E-08  0.93827000000E+00  0.93827000000E+00 0. -1.
     999902    2    1    2    0    0  0.84231923129E-02 -0.18273439162E-01  0.92257577318E-02  0.10217944324E+01  0.10215546381E+01 0.  0.
     999903    2    3    3    0    0 -0.40543813820E-01 -0.11468803167E+00  0.52641804057E-01  0.13411290481E+00  0.20444223017E-01 0.  0.
         14    1    1    2    0    0 -0.84231923129E-02  0.18273439162E-01 -0.92257577318E-02  0.22135567607E-01  0.00000000000E+00 0.  1.
     999901    1    3    3    0    0  0.48967006132E-01  0.96414592506E-01 -0.43416046325E-01  0.88768152759E+00  0.88000000000E+00 0. -1.
        -11    1    4    4    0    0 -0.17099824668E-01 -0.57707537496E-01  0.15448990531E-01  0.62140939138E-01  0.51100000000E-03 0. -1.
         11    1    4    4    0    0 -0.23443989151E-01 -0.56980494172E-01  0.37192813526E-01  0.71971965670E-01  0.51100000000E-03 0.  1.
</event>
<event>
 8    1  0.1122848E+005  0.1043930E+01  0.7957747E-01            NaN
         13   -1    0    0    0    0  0.00000000000E+00  0.00000000000E+00  0.74505805969E-08  0.10566000000E+00  0.10566000000E+00 0. -1.
     999900   -1    0    0    0    0 -0.00000000000E+00 -0.00000000000E+00 -0.74505805969E-08  0.93827000000E+00  0.93827000000E+00 0. -1.
     999902    2    1    2    0    0 -0.44893583857E-03 -0.77441330272E-02  0.25090477354E-01  0.10176677611E+01  0.10173288390E+01 0.  0.
     999903    2    3    3    0    0 -0.19806242928E-01 -0.11008435760E+00  0.64342102352E-01  0.13065653399E+00  0.20502943523E-01 0.  0.
         14    1    1    2    0    0  0.44893583857E-03  0.77441330272E-02 -0.25090477354E-01  0.26262238929E-01  0.00000000000E+00 0.  1.
     999901    1    3    3    0    0  0.19357307089E-01  0.10234022457E+00 -0.39251624999E-01  0.88701122708E+00  0.88000000000E+00 0. -1.
        -11    1    4    4    0    0 -0.15148634858E-01 -0.64605789570E-01  0.27067549249E-01  0.71668002116E-01  0.51100000000E-03 0.  1.
         11    1    4    4    0    0 -0.46576080702E-02 -0.45478568025E-01  0.37274553103E-01  0.58988531874E-01  0.51100000000E-03 0. -1.
</event>
<event>
 8    1  0.1122848E+005  0.1043930E+01  0.7957747E-01            NaN
         13   -1    0    0    0    0  0.00000000000E+00  0.00000000000E+00  0.74505805969E-08  0.10566000000E+00  0.10566000000E+00 0.  1.
     999900   -1    0    0    0    0 -0.00000000000E+00 -0.00000000000E+00 -0.74505805969E-08  0.93827000000E+00  0.93827000000E+00 0. -1.
     999902    2    1    2    0    0 -0.14574113242E-01 -0.19771757635E-01 -0.15503317977E-02  0.10193184030E+01  0.10190212343E+01 0.  0.
     999903    2    3    3    0    0  0.20847694435E-01 -0.12244273749E+00  0.38935166524E-01  0.13171764247E+00  0.20167791628E-01 0.  0.
         14    1    1    2    0    0  0.14574113242E-01  0.19771757635E-01  0.15503317977E-02  0.24611596970E-01  0.00000000000E+00 0. -1.
     999901    1    3    3    0    0 -0.35421807677E-01  0.10267097986E+00 -0.40485498322E-01  0.88760076056E+00  0.88000000000E+00 0. -1.
        -11    1    4    4    0    0  0.13103695193E-01 -0.10032345531E+00  0.24203387819E-01  0.10403157028E+00  0.51100000000E-03 0.  1.
         11    1    4    4    0    0  0.77439992417E-02 -0.22119282183E-01  0.14731778706E-01  0.27686072191E-01  0.51100000000E-03 0. -1.
</event>
<event>
 8    1  0.1122848E+005  0.1043930E+01  0.7957747E-01            NaN
         13   -1    0    0    0    0  0.00000000000E+00  0.00000000000E+00  0.74505805969E-08  0.10566000000E+00  0.10566000000E+00 0. -1.
     999900   -1    0    0    0    0 -0.00000000000E+00 -0.00000000000E+00 -0.74505805969E-08  0.93827000000E+00  0.93827000000E+00 0. -1.
     999902    2    1    2    0    0  0.20114565803E-01 -0.10844237116E-01 -0.58846574966E-02  0.10203329148E+01  0.10200600152E+01 0.  0.
     999903    2    3    3    0    0  0.11821005303E+00  0.45558679040E-01  0.32140171603E-01  0.13227328775E+00  0.20347534241E-01 0.  0.
         14    1    1    2    0    0 -0.20114565803E-01  0.10844237116E-01  0.58846574966E-02  0.23597085200E-01  0.00000000000E+00 0.  1.
     999901    1    3    3    0    0 -0.98095487224E-01 -0.56402916156E-01 -0.38024829100E-01  0.88805962705E+00  0.88000000000E+00 0. -1.
        -11    1    4    4    0    0  0.19646980448E-01  0.11128127228E-01 -0.13574497165E-02  0.22626154049E-01  0.51100000000E-03 0.  1.
         11    1    4    4    0    0  0.98563072579E-01  0.34430551811E-01  0.33497621319E-01  0.10964713370E+00  0.51100000000E-03 0. -1.
</event>
<event>
 8    1  0.1122848E+005  0.1043930E+01  0.7957747E-01            NaN
         13   -1    0    0    0    0  0.00000000000E+00  0.00000000000E+00  0.74505805969E-08  0.10566000000E+00  0.10566000000E+00 0.  1.
     999900   -1    0    0    0    0 -0.00000000000E+00 -0.00000000000E+00 -0.74505805969E-08  0.93827000000E+00  0.93827000000E+00 0. -1.
     999902    2    1    2    0    0  0.21887062393E-01 -0.29411068418E-02 -0.58098711086E-02  0.10210947594E+01  0.10208393897E+01 0.  0.
     999903    2    3    3    0    0  0.65304736606E-01 -0.37123398728E-01  0.10685713212E+00  0.13219241545E+00  0.20335502504E-01 0.  0.
         14    1    1    2    0    0 -0.21887062393E-01  0.29411068418E-02  0.58098711086E-02  0.22835240571E-01  0.00000000000E+00 0.  1.
     999901    1    3    3    0    0 -0.43417674213E-01  0.34182291886E-01 -0.11266700323E+00  0.88890234398E+00  0.88000000000E+00 0. -1.
        -11    1    4    4    0    0  0.40375933697E-01 -0.32131224755E-01  0.80066261268E-01  0.95254915572E-01  0.51100000000E-03 0.  1.
         11    1    4    4    0    0  0.24928802909E-01 -0.49921739726E-02  0.26790870851E-01  0.36937499880E-01  0.51100000000E-03 0. -1.
</event>
<event>
 8    1  0.1195818E+005  0.1043930E+01  0.7957747E-01            NaN
         13   -1    0    0    0    0  0.00000000000E+00  0.00000000000E+00  0.74505805969E-08  0.10566000000E+00  0.10566000000E+00 0.  1.
     999900   -1    0    0    0    0 -0.00000000000E+00 -0.00000000000E+00 -0.74505805969E-08  0.93827000000E+00  0.93827000000E+00 0.  1.
     999902    2    1    2    0    0 -0.49150525063E-02  0.92774604961E-02  0.20498199216E-01  0.10208994727E+01  0.10206396662E+01 0.  0.
     999903    2    3    3    0    0  0.43593508445E-01  0.42241615332E-01 -0.11210426445E+00  0.12903450014E+00  0.19944625190E-01 0.  0.
         14    1    1    2    0    0  0.49150525063E-02 -0.92774604961E-02 -0.20498199216E-01  0.23030527252E-01  0.00000000000E+00 0. -1.
     999901    1    3    3    0    0 -0.48508560951E-01 -0.32964154835E-01  0.13260246367E+00  0.89186497261E+00  0.88000000000E+00 0. -1.
        -11    1    4    4    0    0  0.66779424918E-02  0.16025086397E-01 -0.43448060029E-01  0.46790953733E-01  0.51100000000E-03 0. -1.
         11    1    4    4    0    0  0.36915565953E-01  0.26216528934E-01 -0.68656204424E-01  0.82243546409E-01  0.51100000000E-03 0.  1.
</event>
<event>
 8    1  0.1122848E+005  0.1043930E+01  0.7957747E-01            NaN
         13   -1    0    0    0    0  0.00000000000E+00  0.00000000000E+00  0.74505805969E-08  0.10566000000E+00  0.10566000000E+00 0.  1.
     999900   -1    0    0    0    0 -0.00000000000E+00 -0.00000000000E+00 -0.74505805969E-08  0.93827000000E+00  0.93827000000E+00 0. -1.
     999902    2    1    2    0    0 -0.21942532844E-01  0.63392417680E-02  0.43910855944E-02  0.10206718323E+01  0.10204068046E+01 0.  0.
     999903    2    3    3    0    0 -0.97916329322E-01 -0.64320214531E-01 -0.58369699398E-01  0.13235674591E+00  0.19661862419E-01 0.  0.
         14    1    1    2    0    0  0.21942532844E-01 -0.63392417680E-02 -0.43910855944E-02  0.23258167738E-01  0.00000000000E+00 0. -1.
     999901    1    3    3    0    0  0.75973796478E-01  0.70659456299E-01  0.62760784992E-01  0.88831508636E+00  0.88000000000E+00 0.  1.
        -11    1    4    4    0    0 -0.74183877826E-01 -0.54318123880E-01 -0.52712089956E-01  0.10598363959E+00  0.51100000000E-03 0. -1.
         11    1    4    4    0    0 -0.23732451497E-01 -0.10002090651E-01 -0.56576094411E-02  0.26373106321E-01  0.51100000000E-03 0.  1.
</event>
<event>
 8    1  0.1122848E+005  0.1043930E+01  0.7957747E-01            NaN
         13   -1    0    0    0    0  0.00000000000E+00  0.00000000000E+00  0.74505805969E-08  0.10566000000E+00  0.10566000000E+00 0. -1.
     999900   -1    0    0    0    0 -0.00000000000E+00 -0.00000000000E+00 -0.74505805969E-08  0.93827000000E+00  0.93827000000E+00 0. -1.
     999902    2    1    2    0    0 -0.21817237599E-01 -0.52934052464E-02 -0.30506531794E-02  0.10212734672E+01  0.10210221233E+01 0.  0.
     999903    2    3    3    0    0  0.48484510247E-01  0.11277983201E+00 -0.37207648720E-01  0.12995403763E+00  0.20823172949E-01 0.  0.
         14    1    1    2    0    0  0.21817237599E-01  0.52934052464E-02  0.30506531794E-02  0.22656532841E-01  0.00000000000E+00 0. -1.
     999901    1    3    3    0    0 -0.70301747846E-01 -0.11807323726E+00  0.34156995541E-01  0.89131942953E+00  0.88000000000E+00 0.  1.
        -11    1    4    4    0    0  0.25331176078E-01  0.67238239341E-01 -0.31803568957E-01  0.78577206813E-01  0.51100000000E-03 0. -1.
         11    1    4    4    0    0  0.23153334169E-01  0.45541592669E-01 -0.54040797633E-02  0.51376830820E-01  0.51100000000E-03 0.  1.
</event>
<event>
 8    1  0.1122848E+005  0.1043930E+01  0.7957747E-01            NaN
         13   -1    0    0    0    0  0.00000000000E+00  0.00000000000E+00  0.74505805969E-08  0.10566000000E+00  0.10566000000E+00 0. -1.
     999900   -1    0    0    0    0 -0.00000000000E+00 -0.00000000000E+00 -0.74505805969E-08  0.93827000000E+00  0.93827000000E+00 0. -1.
     999902    2    1    2    0    0 -0.14562622691E-01  0.17446346439E-01 -0.25208330009E-02  0.10210651890E+01  0.10208091499E+01 0.  0.
     999903    2    3    3    0    0  0.44603427300E-01  0.25578733833E-01 -0.11928569978E+00  0.13134568751E+00  0.19464688633E-01 0.  0.
         14    1    1    2    0    0  0.14562622691E-01 -0.17446346439E-01  0.25208330009E-02  0.22864811014E-01  0.00000000000E+00 0. -1.
     999901    1    3    3    0    0 -0.59166049992E-01 -0.81323873940E-02  0.11676486678E+00  0.88971950148E+00  0.88000000000E+00 0.  1.
        -11    1    4    4    0    0  0.12824437174E-01  0.15916732654E-01 -0.32244709715E-01  0.38181029226E-01  0.51100000000E-03 0. -1.
         11    1    4    4    0    0  0.31778990127E-01  0.96620011790E-02 -0.87040990065E-01  0.93164658281E-01  0.51100000000E-03 0.  1.
</event>
<event>
 8    1  0.1122848E+005  0.1043930E+01  0.7957747E-01            NaN
         13   -1    0    0    0    0  0.00000000000E+00  0.00000000000E+00  0.74505805969E-08  0.10566000000E+00  0.10566000000E+00 0.  1.
     999900   -1    0    0    0    0 -0.00000000000E+00 -0.00000000000E+00 -0.74505805969E-08  0.93827000000E+00  0.93827000000E+00 0.  1.
     999902    2    1    2    0    0 -0.17029310211E-02  0.20923583976E-01 -0.13580763684E-01  0.10189273305E+01  0.10186205237E+01 0.  0.
     999903    2    3    3    0    0  0.12834711816E-01  0.12114051658E+00 -0.48319895923E-01  0.13243898654E+00  0.19118531050E-01 0.  0.
         14    1    1    2    0    0  0.17029310211E-02 -0.20923583976E-01  0.13580763684E-01  0.25002669511E-01  0.00000000000E+00 0.  1.
     999901    1    3    3    0    0 -0.14537642838E-01 -0.10021693261E+00  0.34739132239E-01  0.88648834394E+00  0.88000000000E+00 0. -1.
        -11    1    4    4    0    0  0.12205815850E-01  0.49674462389E-01 -0.27073423554E-01  0.57877159037E-01  0.51100000000E-03 0.  1.
         11    1    4    4    0    0  0.62889596611E-03  0.71466054194E-01 -0.21246472369E-01  0.74561827508E-01  0.51100000000E-03 0. -1.
</event>
<event>
 8    1  0.1122848E+005  0.1043930E+01  0.7957747E-01            NaN
         13   -1    0    0    0    0  0.00000000000E+00  0.00000000000E+00  0.74505805969E-08  0.10566000000E+00  0.10566000000E+00 0.  1.
     999900   -1    0    0    0    0 -0.00000000000E+00 -0.00000000000E+00 -0.74505805969E-08  0.93827000000E+00  0.93827000000E+00 0. -1.
     999902    2    1    2    0    0  0.30155732707E-02  0.11894467629E-01 -0.19921884255E-01  0.10205322754E+01  0.10202640206E+01 0.  0.
     999903    2    3    3    0    0  0.91918832276E-01 -0.86785719758E-01 -0.26487760130E-01  0.13054088246E+00  0.18933770803E-01 0.  0.
         14    1    1    2    0    0 -0.30155732707E-02 -0.11894467629E-01  0.19921884255E-01  0.23397724560E-01  0.00000000000E+00 0.  1.
     999901    1    3    3    0    0 -0.88903259006E-01  0.98680187387E-01  0.65658758753E-02  0.88999139298E+00  0.88000000000E+00 0. -1.
        -11    1    4    4    0    0  0.42394440015E-01 -0.33543045222E-01 -0.30798409628E-02  0.54149524174E-01  0.51100000000E-03 0.  1.
         11    1    4    4    0    0  0.49524392262E-01 -0.53242674536E-01 -0.23407919168E-01  0.76391358290E-01  0.51100000000E-03 0. -1.
</event>
<event>
 8    1  0.1122848E+005  0.1043930E+01  0.7957747E-01            NaN
         13   -1    0    0    0    0  0.00000000000E+00  0.00000000000E+00  0.74505805969E-08  0.10566000000E+00  0.10566000000E+00 0.  1.
     999900   -1    0    0    0    0 -0.00000000000E+00 -0.00000000000E+00 -0.74505805969E-08  0.93827000000E+00  0.93827000000E+00 0. -1.
     999902    2    1    2    0    0  0.16937303933E-01 -0.13313974284E-01 -0.11110550960E-01  0.10196899811E+01  0.10194018241E+01 0.  0.
     999903    2    3    3    0    0 -0.93218626944E-01 -0.50592373759E-01  0.69513396423E-01  0.12838519084E+00  0.20033578120E-01 0.  0.
         14    1    1    2    0    0 -0.16937303933E-01  0.13313974284E-01  0.11110550960E-01  0.24240018943E-01  0.00000000000E+00 0.  1.
     999901    1    3    3    0    0  0.11015593088E+00  0.37278399475E-01 -0.80623947383E-01  0.89130479022E+00  0.88000000000E+00 0. -1.
        -11    1    4    4    0    0 -0.71041863763E-01 -0.45731185324E-01  0.60663891763E-01  0.10401277135E+00  0.51100000000E-03 0.  1.
         11    1    4    4    0    0 -0.22176763182E-01 -0.48611884351E-02  0.88495046598E-02  0.24372419493E-01  0.51100000000E-03 0. -1.
</event>
<event>
 8    1  0.1271743E+005  0.1043930E+01  0.7957747E-01            NaN
         13   -1    0    0    0    0  0.00000000000E+00  0.00000000000E+00  0.74505805969E-08  0.10566000000E+00  0.10566000000E+00 0. -1.
     999900   -1    0    0    0    0 -0.00000000000E+00 -0.00000000000E+00 -0.74505805969E-08  0.93827000000E+00  0.93827000000E+00 0.  1.
     999902    2    1    2    0    0  0.22495073664E-01  0.11401535417E-01 -0.81888880090E-03  0.10186972053E+01  0.10183846533E+01 0.  0.
     999903    2    3    3    0    0  0.32624862907E-01  0.89657632150E-01 -0.87756318368E-01  0.13089951103E+00  0.18183451059E-01 0.  0.
         14    1    1    2    0    0 -0.22495073664E-01 -0.11401535417E-01  0.81888880090E-03  0.25232794690E-01  0.00000000000E+00 0.  1.
     999901    1    3    3    0    0 -0.10129789243E-01 -0.78256096733E-01  0.86937429567E-01  0.88779769428E+00  0.88000000000E+00 0. -1.
        -11    1    4    4    0    0  0.20468959819E-01  0.31475489481E-01 -0.37380303179E-01  0.52983327009E-01  0.51100000000E-03 0. -1.
         11    1    4    4    0    0  0.12155903088E-01  0.58182142669E-01 -0.50376015189E-01  0.77916184023E-01  0.51100000000E-03 0.  1.
</event>
<event>
 8    1  0.1122848E+005  0.1043930E+01  0.7957747E-01            NaN
         13   -1    0    0    0    0  0.00000000000E+00  0.00000000000E+00  0.74505805969E-08  0.10566000000E+00  0.10566000000E+00 0.  1.
     999900   -1    0    0    0    0 -0.00000000000E+00 -0.00000000000E+00 -0.74505805969E-08  0.93827000000E+00  0.93827000000E+00 0. -1.
     999902    2    1    2    0    0  0.22141473921E-01 -0.24487532068E-02  0.71359476186E-02  0.10205384843E+01  0.10202703734E+01 0.  0.
     999903    2    3    3    0    0 -0.47770192225E-01 -0.36369543691E-01 -0.11186902409E+00  0.12913484709E+00  0.23588031056E-01 0.  0.
         14    1    1    2    0    0 -0.22141473921E-01  0.24487532068E-02 -0.71359476186E-02  0.23391515729E-01  0.00000000000E+00 0.  1.
     999901    1    3    3    0    0  0.69911666147E-01  0.33920790485E-01  0.11900497171E+00  0.89140363718E+00  0.88000000000E+00 0.  1.
        -11    1    4    4    0    0 -0.14998218090E-01 -0.25505970617E-01 -0.58695022212E-01  0.65733308424E-01  0.51100000000E-03 0. -1.
         11    1    4    4    0    0 -0.32771974136E-01 -0.10863573075E-01 -0.53174001875E-01  0.63401538665E-01  0.51100000000E-03 0.  1.
</event>
<event>
 8    1  0.1122848E+005  0.1043930E+01  0.7957747E-01            NaN
         13   -1    0    0    0    0  0.00000000000E+00  0.00000000000E+00  0.74505805969E-08  0.10566000000E+00  0.10566000000E+00 0.  1.
     999900   -1    0    0    0    0 -0.00000000000E+00 -0.00000000000E+00 -0.74505805969E-08  0.93827000000E+00  0.93827000000E+00 0. -1.
     999902    2    1    2    0    0 -0.22733844530E-02 -0.20662864228E-01  0.11160458690E-01  0.10203359738E+01  0.10200631458E+01 0.  0.
     999903    2    3    3    0    0  0.92771825370E-01 -0.53062116340E-01  0.75850865639E-01  0.13226607102E+00  0.17853849750E-01 0.  0.
         14    1    1    2    0    0  0.22733844530E-02  0.20662864228E-01 -0.11160458690E-01  0.23594026218E-01  0.00000000000E+00 0.  1.
     999901    1    3    3    0    0 -0.95045209823E-01  0.32399252111E-01 -0.64690406950E-01  0.88806990277E+00  0.88000000000E+00 0.  1.
        -11    1    4    4    0    0  0.62204495215E-01 -0.28835405838E-01  0.40557573268E-01  0.79662147380E-01  0.51100000000E-03 0. -1.
         11    1    4    4    0    0  0.30567330155E-01 -0.24226710501E-01  0.35293292371E-01  0.52603923637E-01  0.51100000000E-03 0.  1.
</event>
<event>
 8    1  0.1122848E+005  0.1043930E+01  0.7957747E-01            NaN
         13   -1    0    0    0    0  0.00000000000E+00  0.00000000000E+00  0.74505805969E-08  0.10566000000E+00  0.10566000000E+00 0. -1.
     999900   -1    0    0    0    0 -0.00000000000E+00 -0.00000000000E+00 -0.74505805969E-08  0.93827000000E+00  0.93827000000E+00 0. -1.
     999902    2    1    2    0    0  0.11865835102E-01  0.20296759078E-01  0.62907313573E-02  0.10195921740E+01  0.10193016588E+01 0.  0.
     999903    2    3    3    0    0 -0.43582281345E-01 -0.83314170048E-01  0.84917165810E-01  0.12830555658E+00  0.20266342118E-01 0.  0.
         14    1    1    2    0    0 -0.11865835102E-01 -0.20296759078E-01 -0.62907313573E-02  0.24337825966E-01  0.00000000000E+00 0.  1.
     999901    1    3    3    0    0  0.55448116447E-01  0.10361092913E+00 -0.78626434453E-01  0.89128661745E+00  0.88000000000E+00 0. -1.
        -11    1    4    4    0    0 -0.35061833491E-02 -0.23690832366E-01  0.26394689531E-01  0.35643928183E-01  0.51100000000E-03 0.  1.
         11    1    4    4    0    0 -0.40076097995E-01 -0.59623337682E-01  0.58522476279E-01  0.92661628400E-01  0.51100000000E-03 0. -1.
</event>
<event>
 8    1  0.1122848E+005  0.1043930E+01  0.7957747E-01            NaN
         13   -1    0    0    0    0  0.00000000000E+00  0.00000000000E+00  0.74505805969E-08  0.10566000000E+00  0.10566000000E+00 0. -1.
     999900   -1    0    0    0    0 -0.00000000000E+00 -0.00000000000E+00 -0.74505805969E-08  0.93827000000E+00  0.93827000000E+00 0. -1.
     999902    2    1    2    0    0 -0.22682643288E-01  0.66268467866E-02  0.32984452339E-02  0.10200700514E+01  0.10197909652E+01 0.  0.
     999903    2    3    3    0    0 -0.26440288909E-01  0.86925282715E-01  0.93341567590E-01  0.13183037510E+00  0.20285608379E-01 0.  0.
         14    1    1    2    0    0  0.22682643288E-01 -0.66268467866E-02 -0.32984452339E-02  0.23859948571E-01  0.00000000000E+00 0. -1.
     999901    1    3    3    0    0  0.37576456212E-02 -0.80298435928E-01 -0.90043122356E-01  0.88823967632E+00  0.88000000000E+00 0. -1.
        -11    1    4    4    0    0 -0.42448063359E-02  0.48717966326E-01  0.49026707259E-01  0.69248377377E-01  0.51100000000E-03 0. -1.
         11    1    4    4    0    0 -0.22195482573E-01  0.38207316389E-01  0.44314860332E-01  0.62581997727E-01  0.51100000000E-03 0.  1.
</event>
<event>
 8    1  0.1122848E+005  0.1043930E+01  0.7957747E-01            NaN
         13   -1    0    0    0    0  0.00000000000E+00  0.00000000000E+00  0.74505805969E-08  0.10566000000E+00  0.10566000000E+00 0.  1.
     999900   -1    0    0    0    0 -0.00000000000E+00 -0.00000000000E+00 -0.74505805969E-08  0.93827000000E+00  0.93827000000E+00 0.  1.
     999902    2    1    2    0    0  0.17020842386E-01  0.17348658683E-02  0.12350367962E-01  0.10228290421E+01  0.10226113626E+01 0.  0.
     999903    2    3    3    0    0 -0.83814385432E-01 -0.94997089725E-01  0.30012130360E-01  0.13162942796E+00  0.19397939994E-01 0.  0.
         14    1    1    2    0    0 -0.17020842386E-01 -0.17348658683E-02 -0.12350367962E-01  0.21100957890E-01  0.00000000000E+00 0. -1.
     999901    1    3    3    0    0  0.10083522782E+00  0.96731955593E-01 -0.17661762399E-01  0.89119961415E+00  0.88000000000E+00 0.  1.
        -11    1    4    4    0    0 -0.44142658993E-01 -0.58315281858E-01  0.91603271587E-02  0.73711730110E-01  0.51100000000E-03 0. -1.
         11    1    4    4    0    0 -0.39671726438E-01 -0.36681807866E-01  0.20851803202E-01  0.57917697854E-01  0.51100000000E-03 0.  1.
</event>
<event>
 8    1  0.1166088E+005  0.1043930E+01  0.7957747E-01            NaN
         13   -1    0    0    0    0  0.00000000000E+00  0.00000000000E+00  0.74505805969E-08  0.10566000000E+00  0.10566000000E+00 0. -1.
     999900   -1    0    0    0    0 -0.00000000000E+00 -0.00000000000E+00 -0.74505805969E-08  0.93827000000E+00  0.93827000000E+00 0. -1.
     999902    2    1    2    0    0 -0.85593410316E-02  0.17108330239E-01  0.14175067510E-01  0.10201205518E+01  0.10198426597E+01 0.  0.
     999903    2    3    3    0    0  0.10766541817E-01 -0.41798060681E-01  0.12245985549E+00  0.13131852218E+00  0.19625028942E-01 0.  0.
         14    1    1    2    0    0  0.85593410316E-02 -0.17108330239E-01 -0.14175067510E-01  0.23809448153E-01  0.00000000000E+00 0.  1.
     999901    1    3    3    0    0 -0.19325882849E-01  0.58906390919E-01 -0.10828478798E+00  0.88880202967E+00  0.88000000000E+00 0. -1.
        -11    1    4    4    0    0 -0.45932636578E-02 -0.11562960195E-01  0.46348831369E-01  0.47992451592E-01  0.51100000000E-03 0.  1.
         11    1    4    4    0    0  0.15359805475E-01 -0.30235100485E-01  0.76111024119E-01  0.83326070584E-01  0.51100000000E-03 0. -1.
</event>
<event>
 8    1  0.1122848E+005  0.1043930E+01  0.7957747E-01            NaN
         13   -1    0    0    0    0  0.00000000000E+00  0.00000000000E+00  0.74505805969E-08  0.10566000000E+00  0.10566000000E+00 0.  1.
     999900   -1    0    0    0    0 -0.00000000000E+00 -0.00000000000E+00 -0.74505805969E-08  0.93827000000E+00  0.93827000000E+00 0.  1.
     999902    2    1    2    0    0  0.43639353207E-02 -0.15975373625E-01  0.17500609295E-01  0.10198358551E+01  0.10195511971E+01 0.  0.
     999903    2    3    3    0    0  0.54908844785E-01 -0.74468856125E-01  0.93818007237E-01  0.13315630721E+00  0.19188327205E-01 0.  0.
         14    1    1    2    0    0 -0.43639353207E-02  0.15975373625E-01 -0.17500609295E-01  0.24094144924E-01  0.00000000000E+00 0. -1.
     999901    1    3    3    0    0 -0.50544909464E-01  0.58493482500E-01 -0.76317397942E-01  0.88667954786E+00  0.88000000000E+00 0. -1.
        -11    1    4    4    0    0  0.37108898936E-01 -0.34417336532E-01  0.52333471355E-01  0.72805746883E-01  0.51100000000E-03 0.  1.
         11    1    4    4    0    0  0.17799945849E-01 -0.40051519593E-01  0.41484535882E-01  0.60350560331E-01  0.51100000000E-03 0. -1.
</event>
<event>
 8    1  0.1122848E+005  0.1043930E+01  0.7957747E-01            NaN
         13   -1    0    0    0    0  0.00000000000E+00  0.00000000000E+00  0.74505805969E-08  0.10566000000E+00  0.10566000000E+00 0. -1.
     999900   -1    0    0    0    0 -0.00000000000E+00 -0.00000000000E+00 -0.74505805969E-08  0.93827000000E+00  0.93827000000E+00 0. -1.
     999902    2    1    2    0    0 -0.60808454903E-02 -0.21913481513E-01 -0.44082757326E-02  0.10207651506E+01  0.10205022697E+01 0.  0.
     999903    2    3    3    0    0  0.74730419133E-01 -0.48310638608E-01 -0.96667767318E-01  0.13186747132E+00  0.11216925100E-01 0.  0.
         14    1    1    2    0    0  0.60808454903E-02  0.21913481513E-01  0.44082757326E-02  0.23164849424E-01  0.00000000000E+00 0. -1.
     999901    1    3    3    0    0 -0.80811264623E-01  0.26397157095E-01  0.92259491585E-01  0.88889767925E+00  0.88000000000E+00 0.  1.
        -11    1    4    4    0    0  0.60551989139E-01 -0.36406311110E-01 -0.82006303348E-01  0.10824628302E+00  0.51100000000E-03 0.  1.
         11    1    4    4    0    0  0.14178429994E-01 -0.11904327498E-01 -0.14661463970E-01  0.23621188307E-01  0.51100000000E-03 0. -1.
</event>
<event>
 8    1  0.1122848E+005  0.1043930E+01  0.7957747E-01            NaN
         13   -1    0    0    0    0  0.00000000000E+00  0.00000000000E+00  0.74505805969E-08  0.10566000000E+00  0.10566000000E+00 0. -1.
     999900   -1    0    0    0    0 -0.00000000000E+00 -0.00000000000E+00 -0.74505805969E-08  0.93827000000E+00  0.93827000000E+00 0. -1.
     999902    2    1    2    0    0 -0.11445614592E-01 -0.12100099557E-02  0.21998011443E-01  0.10191030242E+01  0.10188005670E+01 0.  0.
     999903    2    3    3    0    0 -0.13692438866E-01 -0.24272743910E-01  0.12794770692E+00  0.13244509929E+00  0.19860504543E-01 0.  0.
         14    1    1    2    0    0  0.11445614592E-01  0.12100099557E-02 -0.21998011443E-01  0.24826975751E-01  0.00000000000E+00 0.  1.
     999901    1    3    3    0    0  0.22468242732E-02  0.23062733954E-01 -0.10594969548E+00  0.88665792496E+00  0.88000000000E+00 0. -1.
        -11    1    4    4    0    0 -0.10566228855E-01 -0.85830731051E-02  0.27059725790E-01  0.30295283741E-01  0.51100000000E-03 0.  1.
         11    1    4    4    0    0 -0.31262100110E-02 -0.15689670805E-01  0.10088798113E+00  0.10214981555E+00  0.51100000000E-03 0. -1.
</event>
<event>
 8    1  0.1122848E+005  0.1043930E+01  0.7957747E-01            NaN
         13   -1    0    0    0    0  0.00000000000E+00  0.00000000000E+00  0.74505805969E-08  0.10566000000E+00  0.10566000000E+00 0. -1.
     999900   -1    0    0    0    0 -0.00000000000E+00 -0.00000000000E+00 -0.74505805969E-08  0.93827000000E+00  0.93827000000E+00 0.  1.
     999902    2    1    2    0    0 -0.10114989068E-01 -0.20118551050E-01  0.91032269554E-02  0.10196413639E+01  0.10193520360E+01 0.  0.
     999903    2    3    3    0    0 -0.10370709458E+00 -0.65723809340E-01  0.46267209627E-01  0.13272508639E+00  0.20012828112E-01 0.  0.
         14    1    1    2    0    0  0.10114989068E-01  0.20118551050E-01 -0.91032269554E-02  0.24288636051E-01  0.00000000000E+00 0.  1.
     999901    1    3    3    0    0  0.93592105513E-01  0.45605258290E-01 -0.37163982672E-01  0.88691627756E+00  0.88000000000E+00 0. -1.
        -11    1    4    4    0    0 -0.52775421179E-01 -0.22758234447E-01  0.16931003558E-01  0.59917462549E-01  0.51100000000E-03 0.  1.
         11    1    4    4    0    0 -0.50931673402E-01 -0.42965574893E-01  0.29336206068E-01  0.72807623838E-01  0.51100000000E-03 0. -1.
</event>
<event>
 8    1  0.1122848E+005  0.1043930E+01  0.7957747E-01            NaN
         13   -1    0    0    0    0  0.00000000000E+00  0.00000000000E+00  0.74505805969E-08  0.10566000000E+00  0.10566000000E+00 0.  1.
     999900   -1    0    0    0    0 -0.00000000000E+00 -0.00000000000E+00 -0.74505805969E-08  0.93827000000E+00  0.93827000000E+00 0. -1.
     999902    2    1    2    0    0  0.94732678804E-02  0.15387808604E-01  0.15591234987E-01  0.10200634111E+01  0.10197841676E+01 0.  0.
     999903    2    3    3    0    0 -0.10861938565E+00 -0.37153407494E-02  0.69246311376E-01  0.13035015820E+00  0.19599423688E-01 0.  0.
         14    1    1    2    0    0 -0.94732678804E-02 -0.15387808604E-01 -0.15591234987E-01  0.23866588914E-01  0.00000000000E+00 0. -1.
     999901    1    3    3    0    0  0.11809265353E+00  0.19103149353E-01 -0.53655076389E-01  0.88971325288E+00  0.88000000000E+00 0. -1.
        -11    1    4    4    0    0 -0.33921676851E-02 -0.70565735878E-03  0.75720650186E-02  0.83427839213E-02  0.51100000000E-03 0. -1.
         11    1    4    4    0    0 -0.10522721796E+00 -0.30096833906E-02  0.61674246357E-01  0.12200737428E+00  0.51100000000E-03 0.  1.
</event>
<event>
 7    1  0.1122848E+005  0.1043930E+01  0.7957747E-01            NaN
         13   -1    0    0    0    0  0.00000000000E+00  0.00000000000E+00  0.74505805969E-08  0.10566000000E+00  0.10566000000E+00 0.  1.
     999900   -1    0    0    0    0 -0.00000000000E+00 -0.00000000000E+00 -0.74505805969E-08  0.93827000000E+00  0.93827000000E+00 0.  1.
     999903    2    1    2    0    0 -0.63255660512E-01 -0.88739490978E-02  0.83051220634E-01  0.10658597052E+00  0.19571364391E-01 0.  0.
         14    1    1    2    0    0 -0.41803235912E-02 -0.46019555320E-01 -0.21366228166E-01  0.50909628591E-01  0.00000000000E+00 0. -1.
     999901    1    1    2    0    0  0.67435984103E-01  0.54893504418E-01 -0.61684992469E-01  0.88643440089E+00  0.88000000000E+00 0. -1.
        -11    1    3    3    0    0 -0.53118280361E-01 -0.17074912928E-02  0.58292653849E-01  0.78884484208E-01  0.51100000000E-03 0. -1.
         11    1    3    3    0    0 -0.10137380150E-01 -0.71664578050E-02  0.24758566785E-01  0.27701486314E-01  0.51100000000E-03 0.  1.
</event>
<event>
 8    1  0.1122848E+005  0.1043930E+01  0.7957747E-01            NaN
         13   -1    0    0    0    0  0.00000000000E+00  0.00000000000E+00  0.74505805969E-08  0.10566000000E+00  0.10566000000E+00 0. -1.
     999900   -1    0    0    0    0 -0.00000000000E+00 -0.00000000000E+00 -0.74505805969E-08  0.93827000000E+00  0.93827000000E+00 0. -1.
     999902    2    1    2    0    0  0.23724945769E-02 -0.16884206385E-01  0.16624707425E-01  0.10201164313E+01  0.10198384418E+01 0.  0.
     999903    2    3    3    0    0  0.11815761803E+00 -0.49629589349E-01 -0.13554574630E-01  0.13141555703E+00  0.25729424758E-01 0.  0.
         14    1    1    2    0    0 -0.23724945769E-02  0.16884206385E-01 -0.16624707425E-01  0.23813568669E-01  0.00000000000E+00 0.  1.
     999901    1    3    3    0    0 -0.11578512345E+00  0.32745382964E-01  0.30179282055E-01  0.88870087430E+00  0.88000000000E+00 0.  1.
        -11    1    4    4    0    0  0.82673421561E-01 -0.40531061112E-01  0.77034595517E-03  0.92078858058E-01  0.51100000000E-03 0. -1.
         11    1    4    4    0    0  0.35484196470E-01 -0.90985282372E-02 -0.14324920585E-01  0.39336698972E-01  0.51100000000E-03 0.  1.
</event>
<event>
 8    1  0.1122848E+005  0.1043930E+01  0.7957747E-01            NaN
         13   -1    0    0    0    0  0.00000000000E+00  0.00000000000E+00  0.74505805969E-08  0.10566000000E+00  0.10566000000E+00 0. -1.
     999900   -1    0    0    0    0 -0.00000000000E+00 -0.00000000000E+00 -0.74505805969E-08  0.93827000000E+00  0.93827000000E+00 0. -1.
     999902    2    1    2    0    0 -0.12287181157E-01 -0.16553355464E-01  0.16071295023E-01  0.10177904720E+01  0.10174547509E+01 0.  0.
     999903    2    3    3    0    0 -0.10548526569E+00 -0.50470739730E-01  0.56345384186E-01  0.13130399489E+00  0.19786356623E-01 0.  0.
         14    1    1    2    0    0  0.12287181157E-01  0.16553355464E-01 -0.16071295023E-01  0.26139527954E-01  0.00000000000E+00 0.  1.
     999901    1    3    3    0    0  0.93198084537E-01  0.33917384265E-01 -0.40274089163E-01  0.88648647715E+00  0.88000000000E+00 0. -1.
        -11    1    4    4    0    0 -0.20125262528E-01 -0.18806585638E-01  0.13614750154E-01  0.30730056914E-01  0.51100000000E-03 0.  1.
         11    1    4    4    0    0 -0.85360003167E-01 -0.31664154092E-01  0.42730634031E-01  0.10057393798E+00  0.51100000000E-03 0. -1.
</event>
<event>
 8    1  0.1122848E+005  0.1043930E+01  0.7957747E-01            NaN
         13   -1    0    0    0    0  0.00000000000E+00  0.00000000000E+00  0.74505805969E-08  0.10566000000E+00  0.10566000000E+00 0. -1.
     999900   -1    0    0    0    0 -0.00000000000E+00 -0.00000000000E+00 -0.74505805969E-08  0.93827000000E+00  0.93827000000E+00 0.  1.
     999902    2    1    2    0    0  0.19607262567E-02 -0.14568108875E-03  0.24064039755E-01  0.10197857734E+01  0.10194999166E+01 0.  0.
     999903    2    3    3    0    0  0.10112503131E+00 -0.58691655473E-01  0.59738155706E-01  0.13156629989E+00  0.83702831326E-02 0.  0.
         14    1    1    2    0    0 -0.19607262567E-02  0.14568108875E-03 -0.24064039755E-01  0.24144226635E-01  0.00000000000E+00 0.  1.
     999901    1    3    3    0    0 -0.99164305053E-01  0.58545974384E-01 -0.35674115951E-01  0.88821947348E+00  0.88000000000E+00 0.  1.
        -11    1    4    4    0    0  0.49465968748E-01 -0.24252442947E-01  0.26373269055E-01  0.61080876670E-01  0.51100000000E-03 0.  1.
         11    1    4    4    0    0  0.51659062562E-01 -0.34439212526E-01  0.33364886651E-01  0.70485423219E-01  0.51100000000E-03 0. -1.
</event>
<event>
 8    1  0.1122848E+005  0.1043930E+01  0.7957747E-01            NaN
         13   -1    0    0    0    0  0.00000000000E+00  0.00000000000E+00  0.74505805969E-08  0.10566000000E+00  0.10566000000E+00 0. -1.
     999900   -1    0    0    0    0 -0.00000000000E+00 -0.00000000000E+00 -0.74505805969E-08  0.93827000000E+00  0.93827000000E+00 0.  1.
     999902    2    1    2    0    0 -0.11238271205E-01 -0.45530297291E-02 -0.19643385352E-01  0.10208455592E+01  0.10205845209E+01 0.  0.
     999903    2    3    3    0    0  0.84998274196E-01  0.72327998884E-01 -0.65751843802E-01  0.13107134335E+00  0.20008649274E-01 0.  0.
         14    1    1    2    0    0  0.11238271205E-01  0.45530297291E-02  0.19643385352E-01  0.23084440809E-01  0.00000000000E+00 0. -1.
     999901    1    3    3    0    0 -0.96236545401E-01 -0.76881028613E-01  0.46108458450E-01  0.88977421584E+00  0.88000000000E+00 0. -1.
        -11    1    4    4    0    0  0.41175417204E-01  0.32535522703E-01 -0.42275192654E-01  0.67390119857E-01  0.51100000000E-03 0.  1.
         11    1    4    4    0    0  0.43822856993E-01  0.39792476182E-01 -0.23476651148E-01  0.63681223495E-01  0.51100000000E-03 0. -1.
</event>
<event>
 8    1  0.1122848E+005  0.1043930E+01  0.7957747E-01            NaN
         13   -1    0    0    0    0  0.00000000000E+00  0.00000000000E+00  0.74505805969E-08  0.10566000000E+00  0.10566000000E+00 0.  1.
     999900   -1    0    0    0    0 -0.00000000000E+00 -0.00000000000E+00 -0.74505805969E-08  0.93827000000E+00  0.93827000000E+00 0.  1.
     999902    2    1    2    0    0  0.19518655381E-01 -0.17357593626E-02 -0.12615447897E-01  0.10206246295E+01  0.10203585125E+01 0.  0.
     999903    2    3    3    0    0 -0.72248256401E-01  0.47423367120E-01 -0.95732944692E-01  0.13059861635E+00  0.20552751417E-01 0.  0.
         14    1    1    2    0    0 -0.19518655381E-01  0.17357593626E-02  0.12615447897E-01  0.23305370499E-01  0.00000000000E+00 0.  1.
     999901    1    3    3    0    0  0.91766911783E-01 -0.49159126482E-01  0.83117496795E-01  0.89002601315E+00  0.88000000000E+00 0. -1.
        -11    1    4    4    0    0 -0.28106479058E-01  0.26906233649E-01 -0.31869199639E-01  0.50297381451E-01  0.51100000000E-03 0.  1.
         11    1    4    4    0    0 -0.44141777343E-01  0.20517133471E-01 -0.63863745053E-01  0.80301234898E-01  0.51100000000E-03 0. -1.
</event>
<event>
 8    1  0.1122848E+005  0.1043930E+01  0.7957747E-01            NaN
         13   -1    0    0    0    0  0.00000000000E+00  0.00000000000E+00  0.74505805969E-08  0.10566000000E+00  0.10566000000E+00 0.  1.
     999900   -1    0    0    0    0 -0.00000000000E+00 -0.00000000000E+00 -0.74505805969E-08  0.93827000000E+00  0.93827000000E+00 0. -1.
     999902    2    1    2    0    0 -0.38101439806E-02  0.26949390370E-01  0.15909414141E-01  0.10124038791E+01  0.10119129005E+01 0.  0.
     999903    2    3    3    0    0  0.91236795312E-01  0.82777792736E-01  0.11822731366E-01  0.12551750978E+00  0.20941644977E-01 0.  0.
         14    1    1    2    0    0  0.38101439806E-02 -0.26949390370E-01 -0.15909414141E-01  0.31526120864E-01  0.00000000000E+00 0. -1.
     999901    1    3    3    0    0 -0.95046939292E-01 -0.55828402366E-01  0.40866827743E-02  0.88688636936E+00  0.88000000000E+00 0.  1.
        -11    1    4    4    0    0  0.20853159375E-01  0.15001387527E-01  0.10608231577E-01  0.27797330480E-01  0.51100000000E-03 0. -1.
         11    1    4    4    0    0  0.70383635937E-01  0.67776405210E-01  0.12144997892E-02  0.97720179296E-01  0.51100000000E-03 0.  1.
</event>
<event>
 8    1  0.1122848E+005  0.1043930E+01  0.7957747E-01            NaN
         13   -1    0    0    0    0  0.00000000000E+00  0.00000000000E+00  0.74505805969E-08  0.10566000000E+00  0.10566000000E+00 0.  1.
     999900   -1    0    0    0    0 -0.00000000000E+00 -0.00000000000E+00 -0.74505805969E-08  0.93827000000E+00  0.93827000000E+00 0.  1.
     999902    2    1    2    0    0  0.78254902828E-03  0.14782527465E-01  0.18941091248E-01  0.10198904401E+01  0.10196070858E+01 0.  0.
     999903    2    3    3    0    0  0.88890715167E-01  0.11232341448E-01  0.95260798309E-01  0.13219660189E+00  0.19328660556E-01 0.  0.
         14    1    1    2    0    0 -0.78254902828E-03 -0.14782527465E-01 -0.18941091248E-01  0.24039559874E-01  0.00000000000E+00 0. -1.
     999901    1    3    3    0    0 -0.88108166139E-01  0.35501860175E-02 -0.76319707061E-01  0.88769383824E+00  0.88000000000E+00 0.  1.
        -11    1    4    4    0    0  0.79807120143E-02 -0.43530303117E-02  0.73025216034E-02  0.11671699958E-01  0.51100000000E-03 0. -1.
         11    1    4    4    0    0  0.80910003153E-01  0.15585371759E-01  0.87958276705E-01  0.12052490193E+00  0.51100000000E-03 0.  1.
</event>
<event>
 8    1  0.1286987E+005  0.1043930E+01  0.7957747E-01            NaN
         13   -1    0    0    0    0  0.00000000000E+00  0.00000000000E+00  0.74505805969E-08  0.10566000000E+00  0.10566000000E+00 0.  1.
     999900   -1    0    0    0    0 -0.00000000000E+00 -0.00000000000E+00 -0.74505805969E-08  0.93827000000E+00  0.93827000000E+00 0. -1.
     999902    2    1    2    0    0  0.76972783056E-02  0.12510157084E-01 -0.19666599474E-01  0.10193835693E+01  0.10190879914E+01 0.  0.
     999903    2    3    3    0    0  0.23192561539E-01 -0.11311961535E+00  0.50307122531E-01  0.12757682721E+00  0.20275551198E-01 0.  0.
         14    1    1    2    0    0 -0.76972783056E-02 -0.12510157084E-01  0.19666599474E-01  0.24546430667E-01  0.00000000000E+00 0.  1.
     999901    1    3    3    0    0 -0.15495283233E-01  0.12562977243E+00 -0.69973722006E-01  0.89180674212E+00  0.88000000000E+00 0. -1.
        -11    1    4    4    0    0  0.18894446864E-01 -0.74269762491E-01  0.42778489919E-01  0.87768206451E-01  0.51100000000E-03 0.  1.
         11    1    4    4    0    0  0.42981146749E-02 -0.38849852857E-01  0.75286326121E-02  0.39808620760E-01  0.51100000000E-03 0. -1.
</event>
<event>
 8    1  0.1122848E+005  0.1043930E+01  0.7957747E-01            NaN
         13   -1    0    0    0    0  0.00000000000E+00  0.00000000000E+00  0.74505805969E-08  0.10566000000E+00  0.10566000000E+00 0.  1.
     999900   -1    0    0    0    0 -0.00000000000E+00 -0.00000000000E+00 -0.74505805969E-08  0.93827000000E+00  0.93827000000E+00 0.  1.
     999902    2    1    2    0    0  0.96505703502E-02 -0.15582584659E-01  0.15792514095E-01  0.10197359108E+01  0.10194488578E+01 0.  0.
     999903    2    3    3    0    0 -0.23401781989E-01  0.11176219971E+00 -0.51930903596E-01  0.12738193760E+00  0.22156412051E-01 0.  0.
         14    1    1    2    0    0 -0.96505703502E-02  0.15582584659E-01 -0.15792514095E-01  0.24194089241E-01  0.00000000000E+00 0.  1.
     999901    1    3    3    0    0  0.33052352340E-01 -0.12734478437E+00  0.67723417691E-01  0.89235397315E+00  0.88000000000E+00 0. -1.
        -11    1    4    4    0    0 -0.18772214971E-02  0.38061380905E-01 -0.80706035113E-02  0.38956237485E-01  0.51100000000E-03 0.  1.
         11    1    4    4    0    0 -0.21524560492E-01  0.73700818806E-01 -0.43860300085E-01  0.88425700119E-01  0.51100000000E-03 0. -1.
</event>
<event>
 8    1  0.1122848E+005  0.1043930E+01  0.7957747E-01            NaN
         13   -1    0    0    0    0  0.00000000000E+00  0.00000000000E+00  0.74505805969E-08  0.10566000000E+00  0.10566000000E+00 0.  1.
     999900   -1    0    0    0    0 -0.00000000000E+00 -0.00000000000E+00 -0.74505805969E-08  0.93827000000E+00  0.93827000000E+00 0.  1.
     999902    2    1    2    0    0  0.28097651184E-03  0.65516414053E-02 -0.22676797450E-01  0.10203240665E+01  0.10200509598E+01 0.  0.
     999903    2    3    3    0    0 -0.93901010306E-01  0.57317925113E-01  0.65408216103E-01  0.12947815851E+00  0.19586079801E-01 0.  0.
         14    1    1    2    0    0 -0.28097651184E-03 -0.65516414053E-02  0.22676797450E-01  0.23605933481E-01  0.00000000000E+00 0.  1.
     999901    1    3    3    0    0  0.94181986817E-01 -0.50766283707E-01 -0.88085013553E-01  0.89084590801E+00  0.88000000000E+00 0.  1.
        -11    1    4    4    0    0 -0.65957988785E-01  0.42222381713E-01  0.56239245342E-01  0.96417320227E-01  0.51100000000E-03 0. -1.
         11    1    4    4    0    0 -0.27943021520E-01  0.15095543400E-01  0.91689707609E-02  0.33060838284E-01  0.51100000000E-03 0.  1.
</event>
<event>
 8    1  0.1122848E+005  0.1043930E+01  0.7957747E-01            NaN
         13   -1    0    0    0    0  0.00000000000E+00  0.00000000000E+00  0.74505805969E-08  0.10566000000E+00  0.10566000000E+00 0. -1.
     999900   -1    0    0    0    0 -0.00000000000E+00 -0.00000000000E+00 -0.74505805969E-08  0.93827000000E+00  0.93827000000E+00 0.  1.
     999902    2    1    2    0    0  0.22969095930E-01  0.29707761136E-02 -0.55458792235E-02  0.10201148440E+01  0.10198368170E+01 0.  0.
     999903    2    3    3    0    0  0.94056476281E-01 -0.90785291340E-01 -0.38173480978E-03  0.13226897663E+00  0.20158040672E-01 0.  0.
         14    1    1    2    0    0 -0.22969095930E-01 -0.29707761136E-02  0.55458792235E-02  0.23815155992E-01  0.00000000000E+00 0.  1.
     999901    1    3    3    0    0 -0.71087380351E-01  0.93756067454E-01 -0.51641444137E-02  0.88784586738E+00  0.88000000000E+00 0.  1.
        -11    1    4    4    0    0  0.35868479365E-01 -0.32269681712E-01 -0.97147457576E-02  0.49219077357E-01  0.51100000000E-03 0. -1.
         11    1    4    4    0    0  0.58187996916E-01 -0.58515609628E-01  0.93330109478E-02  0.83049899275E-01  0.51100000000E-03 0.  1.
</event>
<event>
 8    1  0.1122848E+005  0.1043930E+01  0.7957747E-01            NaN
         13   -1    0    0    0    0  0.00000000000E+00  0.00000000000E+00  0.74505805969E-08  0.10566000000E+00  0.10566000000E+00 0. -1.
     999900   -1    0    0    0    0 -0.00000000000E+00 -0.00000000000E+00 -0.74505805969E-08  0.93827000000E+00  0.93827000000E+00 0.  1.
     999902    2    1    2    0    0  0.22268267241E-01  0.21535583058E-02  0.71472704351E-02  0.10204438974E+01  0.10201735886E+01 0.  0.
     999903    2    3    3    0    0  0.47165814718E-02 -0.52266073598E-01  0.11900721575E+00  0.13152196307E+00  0.19527436582E-01 0.  0.
         14    1    1    2    0    0 -0.22268267241E-01 -0.21535583058E-02 -0.71472704351E-02  0.23486102570E-01  0.00000000000E+00 0. -1.
     999901    1    3    3    0    0  0.17551685769E-01  0.54419631904E-01 -0.11185994532E+00  0.88892193435E+00  0.88000000000E+00 0.  1.
        -11    1    4    4    0    0  0.11718819026E-01 -0.34234504359E-01  0.69269587920E-01  0.78152856248E-01  0.51100000000E-03 0. -1.
         11    1    4    4    0    0 -0.70022375543E-02 -0.18031569239E-01  0.49737627834E-01  0.53369106827E-01  0.51100000000E-03 0.  1.
</event>
<event>
 8    1  0.1122848E+005  0.1043930E+01  0.7957747E-01            NaN
         13   -1    0    0    0    0  0.00000000000E+00  0.00000000000E+00  0.74505805969E-08  0.10566000000E+00  0.10566000000E+00 0.  1.
     999900   -1    0    0    0    0 -0.00000000000E+00 -0.00000000000E+00 -0.74505805969E-08  0.93827000000E+00  0.93827000000E+00 0. -1.
     999902    2    1    2    0    0 -0.10141928121E-01 -0.16191054880E-01  0.13775358922E-01  0.10203764551E+01  0.10201045734E+01 0.  0.
     999903    2    3    3    0    0  0.33406568763E-01 -0.83907243100E-01  0.95549951224E-01  0.13292559016E+00  0.19570259565E-01 0.  0.
         14    1    1    2    0    0  0.10141928121E-01  0.16191054880E-01 -0.13775358922E-01  0.23553544905E-01  0.00000000000E+00 0.  1.
     999901    1    3    3    0    0 -0.43548496884E-01  0.67716188220E-01 -0.81774592302E-01  0.88745086494E+00  0.88000000000E+00 0. -1.
        -11    1    4    4    0    0  0.19603178004E-01 -0.70001989603E-01  0.77874786475E-01  0.10653312455E+00  0.51100000000E-03 0. -1.
         11    1    4    4    0    0  0.13803390758E-01 -0.13905253497E-01  0.17675164749E-01  0.26392465613E-01  0.51100000000E-03 0.  1.
</event>
<event>
 8    1  0.1122848E+005  0.1043930E+01  0.7957747E-01            NaN
         13   -1    0    0    0    0  0.00000000000E+00  0.00000000000E+00  0.74505805969E-08  0.10566000000E+00  0.10566000000E+00 0.  1.
     999900   -1    0    0    0    0 -0.00000000000E+00 -0.00000000000E+00 -0.74505805969E-08  0.93827000000E+00  0.93827000000E+00 0.  1.
     999902    2    1    2    0    0  0.14774229122E-01  0.61208087465E-02 -0.16639917880E-01  0.10208512433E+01  0.10205903350E+01 0.  0.
     999903    2    3    3    0    0  0.90796092063E-01  0.27194100134E-01  0.88395318693E-01  0.13110082422E+00  0.19754602700E-01 0.  0.
         14    1    1    2    0    0 -0.14774229122E-01 -0.61208087465E-02  0.16639917880E-01  0.23078756745E-01  0.00000000000E+00 0.  1.
     999901    1    3    3    0    0 -0.76021862941E-01 -0.21073291387E-01 -0.10503523657E+00  0.88975041904E+00  0.88000000000E+00 0.  1.
        -11    1    4    4    0    0  0.63701094525E-01  0.24118846931E-01  0.72737083341E-01  0.99651857157E-01  0.51100000000E-03 0.  1.
         11    1    4    4    0    0  0.27094997538E-01  0.30752532029E-02  0.15658235351E-01  0.31448967060E-01  0.51100000000E-03 0. -1.
</event>
<event>
 8    1  0.1122848E+005  0.1043930E+01  0.7957747E-01            NaN
         13   -1    0    0    0    0  0.00000000000E+00  0.00000000000E+00  0.74505805969E-08  0.10566000000E+00  0.10566000000E+00 0.  1.
     999900   -1    0    0    0    0 -0.00000000000E+00 -0.00000000000E+00 -0.74505805969E-08  0.93827000000E+00  0.93827000000E+00 0. -1.
     999902    2    1    2    0    0  0.98748672252E-02 -0.14387096160E-01  0.15790564581E-01  0.10203961208E+01  0.10201246982E+01 0.  0.
     999903    2    3    3    0    0 -0.55266067255E-01  0.98117501489E-01  0.60911515553E-01  0.12970171418E+00  0.20759085857E-01 0.  0.
         14    1    1    2    0    0 -0.98748672252E-02  0.14387096160E-01 -0.15790564581E-01  0.23533879162E-01  0.00000000000E+00 0. -1.
     999901    1    3    3    0    0  0.65140934480E-01 -0.11250459765E+00 -0.45120950972E-01  0.89069440666E+00  0.88000000000E+00 0. -1.
        -11    1    4    4    0    0 -0.18125073199E-01  0.20018387465E-01  0.22148768552E-01  0.34929689156E-01  0.51100000000E-03 0.  1.
         11    1    4    4    0    0 -0.37140994056E-01  0.78099114024E-01  0.38762747001E-01  0.94772025023E-01  0.51100000000E-03 0. -1.
</event>
<event>
 8    1  0.1307450E+005  0.1043930E+01  0.7957747E-01            NaN
         13   -1    0    0    0    0  0.00000000000E+00  0.00000000000E+00  0.74505805969E-08  0.10566000000E+00  0.10566000000E+00 0.  1.
     999900   -1    0    0    0    0 -0.00000000000E+00 -0.00000000000E+00 -0.74505805969E-08  0.93827000000E+00  0.93827000000E+00 0. -1.
     999902    2    1    2    0    0 -0.21973249712E-01 -0.15848959071E-02  0.92471450243E-02  0.10200376312E+01  0.10197577770E+01 0.  0.
     999903    2    3    3    0    0  0.13839705570E-01 -0.66164361634E-01 -0.10832330491E+00  0.12915274192E+00  0.19422465308E-01 0.  0.
         14    1    1    2    0    0  0.21973249712E-01  0.15848959071E-02 -0.92471450243E-02  0.23892368845E-01  0.00000000000E+00 0. -1.
     999901    1    3    3    0    0 -0.35812955282E-01  0.64579465727E-01  0.11757044994E+00  0.89088488923E+00  0.88000000000E+00 0.  1.
        -11    1    4    4    0    0  0.10259504921E-01 -0.41128025799E-01 -0.49818931182E-01  0.65413752166E-01  0.51100000000E-03 0.  1.
         11    1    4    4    0    0  0.35802006485E-02 -0.25036335835E-01 -0.58504373732E-01  0.63738989759E-01  0.51100000000E-03 0. -1.
</event>
<event>
 8    1  0.1122848E+005  0.1043930E+01  0.7957747E-01            NaN
         13   -1    0    0    0    0  0.00000000000E+00  0.00000000000E+00  0.74505805969E-08  0.10566000000E+00  0.10566000000E+00 0. -1.
     999900   -1    0    0    0    0 -0.00000000000E+00 -0.00000000000E+00 -0.74505805969E-08  0.93827000000E+00  0.93827000000E+00 0.  1.
     999902    2    1    2    0    0 -0.13054041722E-02 -0.14238843846E-01 -0.16126727262E-01  0.10223772720E+01  0.10221500703E+01 0.  0.
     999903    2    3    3    0    0 -0.19672639865E-01  0.12339304783E+00  0.30614257259E-01  0.13026482804E+00  0.20465474916E-01 0.  0.
         14    1    1    2    0    0  0.13054041722E-02  0.14238843846E-01  0.16126727262E-01  0.21552728048E-01  0.00000000000E+00 0. -1.
     999901    1    3    3    0    0  0.18367235693E-01 -0.13763189168E+00 -0.46740984521E-01  0.89211244391E+00  0.88000000000E+00 0.  1.
        -11    1    4    4    0    0 -0.65593538853E-02  0.34804225309E-01  0.18293601849E-01  0.39865727290E-01  0.51100000000E-03 0. -1.
         11    1    4    4    0    0 -0.13113285979E-01  0.88588822522E-01  0.12320655410E-01  0.90399100747E-01  0.51100000000E-03 0.  1.
</event>
<event>
 8    1  0.1122848E+005  0.1043930E+01  0.7957747E-01            NaN
         13   -1    0    0    0    0  0.00000000000E+00  0.00000000000E+00  0.74505805969E-08  0.10566000000E+00  0.10566000000E+00 0. -1.
     999900   -1    0    0    0    0 -0.00000000000E+00 -0.00000000000E+00 -0.74505805969E-08  0.93827000000E+00  0.93827000000E+00 0. -1.
     999902    2    1    2    0    0 -0.35167519481E-02  0.11383933509E-01 -0.20515000183E-01  0.10202060307E+01  0.10199301537E+01 0.  0.
     999903    2    3    3    0    0 -0.63220496492E-01 -0.22593310932E-01  0.10786823893E+00  0.12824120722E+00  0.17405785921E-01 0.  0.
         14    1    1    2    0    0  0.35167519481E-02 -0.11383933509E-01  0.20515000183E-01  0.23723969291E-01  0.00000000000E+00 0. -1.
     999901    1    3    3    0    0  0.59703744544E-01  0.33977244441E-01 -0.12838323912E+00  0.89196482349E+00  0.88000000000E+00 0. -1.
        -11    1    4    4    0    0 -0.15635714537E-02 -0.49590781639E-02  0.80885691203E-02  0.96292929824E-02  0.51100000000E-03 0. -1.
         11    1    4    4    0    0 -0.61656925039E-01 -0.17634232768E-01  0.99779669813E-01  0.11861191424E+00  0.51100000000E-03 0.  1.
</event>
<event>
 7    1  0.1122848E+005  0.1043930E+01  0.7957747E-01            NaN
         13   -1    0    0    0    0  0.00000000000E+00  0.00000000000E+00  0.74505805969E-08  0.10566000000E+00  0.10566000000E+00 0. -1.
     999900   -1    0    0    0    0 -0.00000000000E+00 -0.00000000000E+00 -0.74505805969E-08  0.93827000000E+00  0.93827000000E+00 0.  1.
     999903    2    1    2    0    0 -0.85206437703E-01  0.13420384965E-01 -0.70947797726E-01  0.11345194972E+00  0.19937681275E-01 0.  0.
         14    1    1    2    0    0  0.20513067608E-01 -0.43740423286E-02 -0.35934203913E-01  0.41607513742E-01  0.00000000000E+00 0.  1.
     999901    1    1    2    0    0  0.64693370095E-01 -0.90463426363E-02  0.10688200164E+00  0.88887053654E+00  0.88000000000E+00 0. -1.
        -11    1    3    3    0    0 -0.10977496213E-01  0.13445025471E-02 -0.19195416529E-01  0.22159382819E-01  0.51100000000E-03 0. -1.
         11    1    3    3    0    0 -0.74228941490E-01  0.12075882418E-01 -0.51752381197E-01  0.91292566902E-01  0.51100000000E-03 0.  1.
</event>
<event>
 8    1  0.1122848E+005  0.1043930E+01  0.7957747E-01            NaN
         13   -1    0    0    0    0  0.00000000000E+00  0.00000000000E+00  0.74505805969E-08  0.10566000000E+00  0.10566000000E+00 0. -1.
     999900   -1    0    0    0    0 -0.00000000000E+00 -0.00000000000E+00 -0.74505805969E-08  0.93827000000E+00  0.93827000000E+00 0.  1.
     999902    2    1    2    0    0 -0.13460477994E-01 -0.18462238354E-01 -0.63288343024E-02  0.10202215024E+01  0.10199459893E+01 0.  0.
     999903    2    3    3    0    0  0.86890335691E-02 -0.63305518447E-01 -0.11425030540E+00  0.13221893231E+00  0.18591014159E-01 0.  0.
         14    1    1    2    0    0  0.13460477994E-01  0.18462238354E-01  0.63288343024E-02  0.23708497559E-01  0.00000000000E+00 0.  1.
     999901    1    3    3    0    0 -0.22149511563E-01  0.44843280093E-01  0.10792147110E+00  0.88800257013E+00  0.88000000000E+00 0. -1.
        -11    1    4    4    0    0  0.57136737909E-02 -0.20243466637E-01 -0.22410244264E-01  0.30739619038E-01  0.51100000000E-03 0. -1.
         11    1    4    4    0    0  0.29753597781E-02 -0.43062051811E-01 -0.91840061137E-01  0.10147931327E+00  0.51100000000E-03 0.  1.
</event>
<event>
 8    1  0.1122848E+005  0.1043930E+01  0.7957747E-01            NaN
         13   -1    0    0    0    0  0.00000000000E+00  0.00000000000E+00  0.74505805969E-08  0.10566000000E+00  0.10566000000E+00 0. -1.
     999900   -1    0    0    0    0 -0.00000000000E+00 -0.00000000000E+00 -0.74505805969E-08  0.93827000000E+00  0.93827000000E+00 0.  1.
     999902    2    1    2    0    0  0.14803936023E-01  0.18173158732E-01 -0.12827572433E-02  0.10204552117E+01  0.10201851662E+01 0.  0.
     999903    2    3    3    0    0 -0.60975902330E-01  0.33718179230E-01  0.10824274903E+00  0.13029788397E+00  0.20151168083E-01 0.  0.
         14    1    1    2    0    0 -0.14803936023E-01 -0.18173158732E-01  0.12827572433E-02  0.23474788310E-01  0.00000000000E+00 0. -1.
     999901    1    3    3    0    0  0.75779838352E-01 -0.15545020498E-01 -0.10952550627E+00  0.89015732772E+00  0.88000000000E+00 0.  1.
        -11    1    4    4    0    0 -0.38572310691E-01  0.28707631693E-01  0.60180219309E-01  0.77031624587E-01  0.51100000000E-03 0.  1.
         11    1    4    4    0    0 -0.22403591639E-01  0.50105475374E-02  0.48062529720E-01  0.53266259386E-01  0.51100000000E-03 0. -1.
</event>
<event>
 8    1  0.1122848E+005  0.1043930E+01  0.7957747E-01            NaN
         13   -1    0    0    0    0  0.00000000000E+00  0.00000000000E+00  0.74505805969E-08  0.10566000000E+00  0.10566000000E+00 0. -1.
     999900   -1    0    0    0    0 -0.00000000000E+00 -0.00000000000E+00 -0.74505805969E-08  0.93827000000E+00  0.93827000000E+00 0. -1.
     999902    2    1    2    0    0 -0.12537272223E-01 -0.20286750472E-01  0.25961109922E-02  0.10199409352E+01  0.10196587841E+01 0.  0.
     999903    2    3    3    0    0 -0.11415002606E+00 -0.64244914980E-01  0.10879800519E-01  0.13296512293E+00  0.20092692858E-01 0.  0.
         14    1    1    2    0    0  0.12537272223E-01  0.20286750472E-01 -0.25961109922E-02  0.23989064838E-01  0.00000000000E+00 0. -1.
     999901    1    3    3    0    0  0.10161275384E+00  0.43958164509E-01 -0.82836895269E-02  0.88697581223E+00  0.88000000000E+00 0.  1.
        -11    1    4    4    0    0 -0.83462443894E-01 -0.47853781613E-01  0.16816129188E-01  0.97667841572E-01  0.51100000000E-03 0.  1.
         11    1    4    4    0    0 -0.30687582167E-01 -0.16391133368E-01 -0.59363286688E-02  0.35297281360E-01  0.51100000000E-03 0. -1.
</event>
<event>
 8    1  0.1122848E+005  0.1043930E+01  0.7957747E-01            NaN
         13   -1    0    0    0    0  0.00000000000E+00  0.00000000000E+00  0.74505805969E-08  0.10566000000E+00  0.10566000000E+00 0.  1.
     999900   -1    0    0    0    0 -0.00000000000E+00 -0.00000000000E+00 -0.74505805969E-08  0.93827000000E+00  0.93827000000E+00 0. -1.
     999902    2    1    2    0    0 -0.87175111773E-02  0.26883584974E-02 -0.22337994545E-01  0.10198010076E+01  0.10195155158E+01 0.  0.
     999903    2    3    3    0    0 -0.14153551705E-01  0.69575948853E-01 -0.11047277013E+00  0.13285611704E+00  0.20134031131E-01 0.  0.
         14    1    1    2    0    0  0.87175111773E-02 -0.26883584974E-02  0.22337994545E-01  0.24128992371E-01  0.00000000000E+00 0.  1.
     999901    1    3    3    0    0  0.54360405276E-02 -0.66887590355E-01  0.88134775584E-01  0.88694489059E+00  0.88000000000E+00 0.  1.
        -11    1    4    4    0    0 -0.60296205759E-02  0.58865176275E-01 -0.79657227943E-01  0.99232053222E-01  0.51100000000E-03 0. -1.
         11    1    4    4    0    0 -0.81239311291E-02  0.10710772578E-01 -0.30815542186E-01  0.33624063815E-01  0.51100000000E-03 0.  1.
</event>
<event>
 8    1  0.1122848E+005  0.1043930E+01  0.7957747E-01            NaN
         13   -1    0    0    0    0  0.00000000000E+00  0.00000000000E+00  0.74505805969E-08  0.10566000000E+00  0.10566000000E+00 0.  1.
     999900   -1    0    0    0    0 -0.00000000000E+00 -0.00000000000E+00 -0.74505805969E-08  0.93827000000E+00  0.93827000000E+00 0. -1.
     999902    2    1    2    0    0 -0.54877857278E-02 -0.14218825421E-01 -0.17949223548E-01  0.10203829107E+01  0.10201111797E+01 0.  0.
     999903    2    3    3    0    0  0.30860225989E-01 -0.36801639916E-01 -0.12318859006E+00  0.13307998287E+00  0.15104266676E-01 0.  0.
         14    1    1    2    0    0  0.54877857278E-02  0.14218825421E-01  0.17949223548E-01  0.23547089300E-01  0.00000000000E+00 0.  1.
     999901    1    3    3    0    0 -0.36348011717E-01  0.22582814496E-01  0.10523936651E+00  0.88730292783E+00  0.88000000000E+00 0.  1.
        -11    1    4    4    0    0  0.21734345648E-01 -0.34167614140E-01 -0.93185987815E-01  0.10160559573E+00  0.51100000000E-03 0. -1.
         11    1    4    4    0    0  0.91258803409E-02 -0.26340257760E-02 -0.30002602245E-01  0.31474387147E-01  0.51100000000E-03 0.  1.
</event>
<event>
 8    1  0.1122848E+005  0.1043930E+01  0.7957747E-01            NaN
         13   -1    0    0    0    0  0.00000000000E+00  0.00000000000E+00  0.74505805969E-08  0.10566000000E+00  0.10566000000E+00 0. -1.
     999900   -1    0    0    0    0 -0.00000000000E+00 -0.00000000000E+00 -0.74505805969E-08  0.93827000000E+00  0.93827000000E+00 0. -1.
     999902    2    1    2    0    0 -0.19180710624E-03  0.84052402912E-02  0.22432384839E-01  0.10199738579E+01  0.10196924900E+01 0.  0.
     999903    2    3    3    0    0  0.61741110386E-01  0.93301773182E-01 -0.62817973944E-01  0.12963081658E+00  0.18462534138E-01 0.  0.
         14    1    1    2    0    0  0.19180710624E-03 -0.84052402912E-02 -0.22432384839E-01  0.23956142091E-01  0.00000000000E+00 0.  1.
     999901    1    3    3    0    0 -0.61932917492E-01 -0.84896532891E-01  0.85250358783E-01  0.89034304133E+00  0.88000000000E+00 0.  1.
        -11    1    4    4    0    0  0.17937700496E-01  0.43266756987E-01 -0.24052544469E-01  0.52655098287E-01  0.51100000000E-03 0.  1.
         11    1    4    4    0    0  0.43803409890E-01  0.50035016195E-01 -0.38765429476E-01  0.76975718295E-01  0.51100000000E-03 0. -1.
</event>
<event>
 8    1  0.1122848E+005  0.1043930E+01  0.7957747E-01            NaN
         13   -1    0    0    0    0  0.00000000000E+00  0.00000000000E+00  0.74505805969E-08  0.10566000000E+00  0.10566000000E+00 0. -1.
     999900   -1    0    0    0    0 -0.00000000000E+00 -0.00000000000E+00 -0.74505805969E-08  0.93827000000E+00  0.93827000000E+00 0.  1.
     999902    2    1    2    0    0  0.16353632203E-01  0.84324053215E-03  0.16600592616E-01  0.10206119380E+01  0.10203455277E+01 0.  0.
     999903    2    3    3    0    0  0.96488814112E-01  0.48412338562E-01  0.76301299048E-01  0.13367978680E+00  0.19863317651E-01 0.  0.
         14    1    1    2    0    0 -0.16353632203E-01 -0.84324053215E-03 -0.16600592616E-01  0.23318062012E-01  0.00000000000E+00 0.  1.
     999901    1    3    3    0    0 -0.80135181909E-01 -0.47569098029E-01 -0.59700706432E-01  0.88693215119E+00  0.88000000000E+00 0.  1.
        -11    1    4    4    0    0  0.43106983163E-01  0.26114854895E-01  0.24579047723E-01  0.56076629281E-01  0.51100000000E-03 0. -1.
         11    1    4    4    0    0  0.53381830949E-01  0.22297483666E-01  0.51722251325E-01  0.77603157516E-01  0.51100000000E-03 0.  1.
</event>
<event>
 8    1  0.1122848E+005  0.1043930E+01  0.7957747E-01            NaN
         13   -1    0    0    0    0  0.00000000000E+00  0.00000000000E+00  0.74505805969E-08  0.10566000000E+00  0.10566000000E+00 0. -1.
     999900   -1    0    0    0    0 -0.00000000000E+00 -0.00000000000E+00 -0.74505805969E-08  0.93827000000E+00  0.93827000000E+00 0. -1.
     999902    2    1    2    0    0  0.22438929611E-02  0.10085259467E-02 -0.25706444732E-01  0.10181061064E+01  0.10177785468E+01 0.  0.
     999903    2    3    3    0    0  0.21003261753E-01  0.11406209454E+00 -0.55552736229E-01  0.13017377541E+00  0.20194229020E-01 0.  0.
         14    1    1    2    0    0 -0.22438929611E-02 -0.10085259467E-02  0.25706444732E-01  0.25823893606E-01  0.00000000000E+00 0. -1.
     999901    1    3    3    0    0 -0.18759368791E-01 -0.11305356860E+00  0.29846291497E-01  0.88793233098E+00  0.88000000000E+00 0.  1.
        -11    1    4    4    0    0  0.68012155200E-02  0.23556645653E-01 -0.34101621145E-02  0.24760097205E-01  0.51100000000E-03 0. -1.
         11    1    4    4    0    0  0.14202046233E-01  0.90505448892E-01 -0.52142574115E-01  0.10541367820E+00  0.51100000000E-03 0.  1.
</event>
<event>
 8    1  0.1122848E+005  0.1043930E+01  0.7957747E-01            NaN
         13   -1    0    0    0    0  0.00000000000E+00  0.00000000000E+00  0.74505805969E-08  0.10566000000E+00  0.10566000000E+00 0. -1.
     999900   -1    0    0    0    0 -0.00000000000E+00 -0.00000000000E+00 -0.74505805969E-08  0.93827000000E+00  0.93827000000E+00 0.  1.
     999902    2    1    2    0    0  0.19856614995E-02  0.20261849858E-01  0.12433751179E-01  0.10200745273E+01  0.10197955470E+01 0.  0.
     999903    2    3    3    0    0  0.91781853387E-01 -0.56504028269E-01  0.70582963713E-01  0.13027809715E+00  0.19334270302E-01 0.  0.
         14    1    1    2    0    0 -0.19856614995E-02 -0.20261849858E-01 -0.12433751179E-01  0.23855472740E-01  0.00000000000E+00 0.  1.
     999901    1    3    3    0    0 -0.89796191888E-01  0.76765878127E-01 -0.58149212535E-01  0.88979643011E+00  0.88000000000E+00 0. -1.
        -11    1    4    4    0    0  0.25853352993E-01 -0.26434304283E-01  0.25868831258E-01  0.45128991298E-01  0.51100000000E-03 0. -1.
         11    1    4    4    0    0  0.65928500394E-01 -0.30069723986E-01  0.44714132455E-01  0.85149105850E-01  0.51100000000E-03 0.  1.
</event>
<event>
 8    1  0.1122848E+005  0.1043930E+01  0.7957747E-01            NaN
         13   -1    0    0    0    0  0.00000000000E+00  0.00000000000E+00  0.74505805969E-08  0.10566000000E+00  0.10566000000E+00 0. -1.
     999900   -1    0    0    0    0 -0.00000000000E+00 -0.00000000000E+00 -0.74505805969E-08  0.93827000000E+00  0.93827000000E+00 0.  1.
     999902    2    1    2    0    0 -0.12543670829E-01 -0.17988662086E-01  0.11336338502E-01  0.10192429951E+01  0.10189439802E+01 0.  0.
     999903    2    3    3    0    0 -0.10044601477E+00  0.76416881857E-01  0.22615442398E-01  0.12976761769E+00  0.19980857070E-01 0.  0.
         14    1    1    2    0    0  0.12543670829E-01  0.17988662086E-01 -0.11336338502E-01  0.24687004924E-01  0.00000000000E+00 0.  1.
     999901    1    3    3    0    0  0.87902343940E-01 -0.94405543942E-01 -0.11279103896E-01  0.88947537739E+00  0.88000000000E+00 0.  1.
        -11    1    4    4    0    0 -0.67484120322E-01  0.62474028087E-01  0.17421333192E-01  0.93599544081E-01  0.51100000000E-03 0. -1.
         11    1    4    4    0    0 -0.32961894448E-01  0.13942853770E-01  0.51941092058E-02  0.36168073605E-01  0.51100000000E-03 0.  1.
</event>
<event>
 8    1  0.1122848E+005  0.1043930E+01  0.7957747E-01            NaN
         13   -1    0    0    0    0  0.00000000000E+00  0.00000000000E+00  0.74505805969E-08  0.10566000000E+00  0.10566000000E+00 0. -1.
     999900   -1    0    0    0    0 -0.00000000000E+00 -0.00000000000E+00 -0.74505805969E-08  0.93827000000E+00  0.93827000000E+00 0.  1.
     999902    2    1    2    0    0  0.87085330936E-02 -0.24876537426E-01  0.67517508591E-02  0.10167221555E+01  0.10163580445E+01 0.  0.
     999903    2    3    3    0    0 -0.50995744293E-01  0.92074677235E-01  0.64661637366E-01  0.12509681809E+00  0.19742705622E-01 0.  0.
         14    1    1    2    0    0 -0.87085330936E-02  0.24876537426E-01 -0.67517508591E-02  0.27207844505E-01  0.00000000000E+00 0.  1.
     999901    1    3    3    0    0  0.59704277387E-01 -0.11695121466E+00 -0.57909886507E-01  0.89162533741E+00  0.88000000000E+00 0.  1.
        -11    1    4    4    0    0 -0.22828810847E-01  0.26571785319E-01  0.14505842304E-01  0.37919585463E-01  0.51100000000E-03 0. -1.
         11    1    4    4    0    0 -0.28166933447E-01  0.65502891916E-01  0.50155795062E-01  0.87177232627E-01  0.51100000000E-03 0.  1.
</event>
<event>
 8    1  0.1122848E+005  0.1043930E+01  0.7957747E-01            NaN
         13   -1    0    0    0    0  0.00000000000E+00  0.00000000000E+00  0.74505805969E-08  0.10566000000E+00  0.10566000000E+00 0. -1.
     999900   -1    0    0    0    0 -0.00000000000E+00 -0.00000000000E+00 -0.74505805969E-08  0.93827000000E+00  0.93827000000E+00 0.  1.
     999902    2    1    2    0    0  0.24266021827E-02  0.53535137566E-02  0.22206672087E-01  0.10209586093E+01  0.10207001504E+01 0.  0.
     999903    2    3    3    0    0 -0.45898378297E-02  0.70652376928E-01  0.11200208615E+00  0.13395444447E+00  0.19659626471E-01 0.  0.
         14    1    1    2    0    0 -0.24266021827E-02 -0.53535137566E-02 -0.22206672087E-01  0.22971390748E-01  0.00000000000E+00 0.  1.
     999901    1    3    3    0    0  0.70164400123E-02 -0.65298863171E-01 -0.89795414064E-01  0.88700416479E+00  0.88000000000E+00 0.  1.
        -11    1    4    4    0    0  0.26596206488E-03  0.78797449864E-02  0.27263202910E-01  0.28384933870E-01  0.51100000000E-03 0.  1.
         11    1    4    4    0    0 -0.48557998945E-02  0.62772631941E-01  0.84738883241E-01  0.10556951060E+00  0.51100000000E-03 0. -1.
</event>
<event>
 8    1  0.1122848E+005  0.1043930E+01  0.7957747E-01            NaN
         13   -1    0    0    0    0  0.00000000000E+00  0.00000000000E+00  0.74505805969E-08  0.10566000000E+00  0.10566000000E+00 0. -1.
     999900   -1    0    0    0    0 -0.00000000000E+00 -0.00000000000E+00 -0.74505805969E-08  0.93827000000E+00  0.93827000000E+00 0.  1.
     999902    2    1    2    0    0 -0.15576747186E-01 -0.18636385113E-01 -0.10624677420E-02  0.10196178890E+01  0.10193279947E+01 0.  0.
     999903    2    3    3    0    0  0.11584120576E+00 -0.13124122815E-01 -0.50544242050E-01  0.12846722309E+00  0.18912415295E-01 0.  0.
         14    1    1    2    0    0  0.15576747186E-01  0.18636385113E-01  0.10624677420E-02  0.24312110988E-01  0.00000000000E+00 0. -1.
     999901    1    3    3    0    0 -0.13141795294E+00 -0.55122622990E-02  0.49481774308E-01  0.89115066593E+00  0.88000000000E+00 0. -1.
        -11    1    4    4    0    0  0.11022180132E+00 -0.14902950927E-01 -0.51330114340E-01  0.12249891914E+00  0.51100000000E-03 0.  1.
         11    1    4    4    0    0  0.56194044409E-02  0.17788281127E-02  0.78587228998E-03  0.59683039450E-02  0.51100000000E-03 0. -1.
</event>
<event>
 8    1  0.1122848E+005  0.1043930E+01  0.7957747E-01            NaN
         13   -1    0    0    0    0  0.00000000000E+00  0.00000000000E+00  0.74505805969E-08  0.10566000000E+00  0.10566000000E+00 0. -1.
     999900   -1    0    0    0    0 -0.00000000000E+00 -0.00000000000E+00 -0.74505805969E-08  0.93827000000E+00  0.93827000000E+00 0.  1.
     999902    2    1    2    0    0  0.65275726436E-02  0.18815055370E-01  0.13567983720E-01  0.10198321641E+01  0.10195474178E+01 0.  0.
     999903    2    3    3    0    0  0.11342059628E+00 -0.45940488947E-01 -0.37836086785E-01  0.12951661470E+00  0.19189159326E-01 0.  0.
         14    1    1    2    0    0 -0.65275726436E-02 -0.18815055370E-01 -0.13567983720E-01  0.24097835907E-01  0.00000000000E+00 0.  1.
     999901    1    3    3    0    0 -0.10689302364E+00  0.64755544317E-01  0.51404070505E-01  0.89031554939E+00  0.88000000000E+00 0. -1.
        -11    1    4    4    0    0  0.18234663864E-01 -0.13352606298E-01 -0.19235791891E-02  0.22688242309E-01  0.51100000000E-03 0.  1.
         11    1    4    4    0    0  0.95185932416E-01 -0.32587882650E-01 -0.35912507596E-01  0.10682837239E+00  0.51100000000E-03 0. -1.
</event>
<event>
 8    1  0.1122848E+005  0.1043930E+01  0.7957747E-01            NaN
         13   -1    0    0    0    0  0.00000000000E+00  0.00000000000E+00  0.74505805969E-08  0.10566000000E+00  0.10566000000E+00 0.  1.
     999900   -1    0    0    0    0 -0.00000000000E+00 -0.00000000000E+00 -0.74505805969E-08  0.93827000000E+00  0.93827000000E+00 0.  1.
     999902    2    1    2    0    0 -0.13995425164E-01 -0.94698105077E-02 -0.15933018866E-01  0.10207047911E+01  0.10204405227E+01 0.  0.
     999903    2    3    3    0    0  0.10842813042E-01 -0.11404880745E+00  0.60009834510E-01  0.13091772579E+00  0.20336509356E-01 0.  0.
         14    1    1    2    0    0  0.13995425164E-01  0.94698105077E-02  0.15933018866E-01  0.23225208863E-01  0.00000000000E+00 0.  1.
     999901    1    3    3    0    0 -0.24838238206E-01  0.10457899694E+00 -0.75942853376E-01  0.88978706535E+00  0.88000000000E+00 0.  1.
        -11    1    4    4    0    0  0.46089298129E-03 -0.49736115505E-01  0.15815234992E-01  0.52194601126E-01  0.51100000000E-03 0. -1.
         11    1    4    4    0    0  0.10381920061E-01 -0.64312691945E-01  0.44194599518E-01  0.78723124664E-01  0.51100000000E-03 0.  1.
</event>
<event>
 8    1  0.1122848E+005  0.1043930E+01  0.7957747E-01            NaN
         13   -1    0    0    0    0  0.00000000000E+00  0.00000000000E+00  0.74505805969E-08  0.10566000000E+00  0.10566000000E+00 0. -1.
     999900   -1    0    0    0    0 -0.00000000000E+00 -0.00000000000E+00 -0.74505805969E-08  0.93827000000E+00  0.93827000000E+00 0.  1.
     999902    2    1    2    0    0  0.28910113727E-02  0.15245192500E-01  0.12546025671E-01  0.10239756370E+01  0.10237811918E+01 0.  0.
     999903    2    3    3    0    0  0.24813695455E-01  0.12489436832E+00  0.44461954210E-01  0.13632583428E+00  0.19837968671E-01 0.  0.
         14    1    1    2    0    0 -0.28910113727E-02 -0.15245192500E-01 -0.12546025671E-01  0.19954362963E-01  0.00000000000E+00 0.  1.
     999901    1    3    3    0    0 -0.21922684082E-01 -0.10964917582E+00 -0.31915928540E-01  0.88764980275E+00  0.88000000000E+00 0. -1.
        -11    1    4    4    0    0  0.19090470079E-01  0.58293532569E-01  0.28279218013E-01  0.67546704432E-01  0.51100000000E-03 0. -1.
         11    1    4    4    0    0  0.57232253760E-02  0.66600835750E-01  0.16182736197E-01  0.68779129851E-01  0.51100000000E-03 0.  1.
</event>
<event>
 7    1  0.1122848E+005  0.1043930E+01  0.7957747E-01            NaN
         13   -1    0    0    0    0  0.00000000000E+00  0.00000000000E+00  0.74505805969E-08  0.10566000000E+00  0.10566000000E+00 0.  1.
     999900   -1    0    0    0    0 -0.00000000000E+00 -0.00000000000E+00 -0.74505805969E-08  0.93827000000E+00  0.93827000000E+00 0.  1.
     999903    2    1    2    0    0 -0.38654173340E-01 -0.65516420414E-01  0.58409083802E-01  0.98066713346E-01  0.20467357803E-01 0.  0.
         14    1    1    2    0    0 -0.35376504230E-01 -0.36391251894E-01 -0.24224347706E-01  0.56237347802E-01  0.00000000000E+00 0. -1.
     999901    1    1    2    0    0  0.74030677571E-01  0.10190767231E+00 -0.34184736096E-01  0.88962593885E+00  0.88000000000E+00 0.  1.
        -11    1    3    3    0    0 -0.13774635164E-01 -0.19756372806E-01  0.30835991652E-01  0.39130222879E-01  0.51100000000E-03 0.  1.
         11    1    3    3    0    0 -0.24879538176E-01 -0.45760047607E-01  0.27573092150E-01  0.58936490467E-01  0.51100000000E-03 0. -1.
</event>
<event>
 8    1  0.1122848E+005  0.1043930E+01  0.7957747E-01            NaN
         13   -1    0    0    0    0  0.00000000000E+00  0.00000000000E+00  0.74505805969E-08  0.10566000000E+00  0.10566000000E+00 0. -1.
     999900   -1    0    0    0    0 -0.00000000000E+00 -0.00000000000E+00 -0.74505805969E-08  0.93827000000E+00  0.93827000000E+00 0.  1.
     999902    2    1    2    0    0  0.22737349073E-01 -0.29085048413E-02 -0.59347164283E-02  0.10202515857E+01  0.10199767796E+01 0.  0.
     999903    2    3    3    0    0  0.91196531701E-01 -0.85574914969E-01 -0.40581406119E-01  0.13305330566E+00  0.20407306501E-01 0.  0.
         14    1    1    2    0    0 -0.22737349073E-01  0.29085048413E-02  0.59347164283E-02  0.23678414271E-01  0.00000000000E+00 0.  1.
     999901    1    3    3    0    0 -0.68459182628E-01  0.82666410127E-01  0.34646689690E-01  0.88719828007E+00  0.88000000000E+00 0. -1.
        -11    1    4    4    0    0  0.15808634465E-01 -0.17117553884E-01  0.33162244655E-03  0.23308682268E-01  0.51100000000E-03 0.  1.
         11    1    4    4    0    0  0.75387897236E-01 -0.68457361084E-01 -0.40913028565E-01  0.10974462339E+00  0.51100000000E-03 0. -1.
</event>
<event>
 8    1  0.1122848E+005  0.1043930E+01  0.7957747E-01            NaN
         13   -1    0    0    0    0  0.00000000000E+00  0.00000000000E+00  0.74505805969E-08  0.10566000000E+00  0.10566000000E+00 0. -1.
     999900   -1    0    0    0    0 -0.00000000000E+00 -0.00000000000E+00 -0.74505805969E-08  0.93827000000E+00  0.93827000000E+00 0. -1.
     999902    2    1    2    0    0  0.10182886820E-01 -0.21442175459E-01 -0.20621125323E-03  0.10201918325E+01  0.10199156213E+01 0.  0.
     999903    2    3    3    0    0  0.26962327784E-02 -0.89049293934E-01  0.95811244402E-01  0.13235957119E+00  0.20055301317E-01 0.  0.
         14    1    1    2    0    0 -0.10182886820E-01  0.21442175459E-01  0.20621125323E-03  0.23738167483E-01  0.00000000000E+00 0.  1.
     999901    1    3    3    0    0  0.74866540412E-02  0.67607118475E-01 -0.96017455656E-01  0.88783226132E+00  0.88000000000E+00 0. -1.
        -11    1    4    4    0    0 -0.27854185146E-02 -0.27138473506E-01  0.17647009075E-01  0.32495128109E-01  0.51100000000E-03 0.  1.
         11    1    4    4    0    0  0.54816512930E-02 -0.61910820429E-01  0.78164235328E-01  0.99864443084E-01  0.51100000000E-03 0. -1.
</event>
<event>
 8    1  0.1349209E+005  0.1043930E+01  0.7957747E-01            NaN
         13   -1    0    0    0    0  0.00000000000E+00  0.00000000000E+00  0.74505805969E-08  0.10566000000E+00  0.10566000000E+00 0. -1.
     999900   -1    0    0    0    0 -0.00000000000E+00 -0.00000000000E+00 -0.74505805969E-08  0.93827000000E+00  0.93827000000E+00 0. -1.
     999902    2    1    2    0    0 -0.22677661044E-01 -0.55172466444E-02  0.48935188512E-02  0.10200833472E+01  0.10198045756E+01 0.  0.
     999903    2    3    3    0    0  0.11964901240E-02 -0.80381748306E-02 -0.12796230869E+00  0.12978732845E+00  0.20108563793E-01 0.  0.
         14    1    1    2    0    0  0.22677661044E-01  0.55172466444E-02 -0.48935188512E-02  0.23846652757E-01  0.00000000000E+00 0. -1.
     999901    1    3    3    0    0 -0.23874151168E-01  0.25209281863E-02  0.13285582754E+00  0.89029601880E+00  0.88000000000E+00 0.  1.
        -11    1    4    4    0    0 -0.12584350887E-02  0.58467036930E-02 -0.64334326403E-01  0.64613731340E-01  0.51100000000E-03 0.  1.
         11    1    4    4    0    0  0.24549252126E-02 -0.13884878524E-01 -0.63627982284E-01  0.65173597108E-01  0.51100000000E-03 0. -1.
</event>
<event>
 8    1  0.1122848E+005  0.1043930E+01  0.7957747E-01            NaN
         13   -1    0    0    0    0  0.00000000000E+00  0.00000000000E+00  0.74505805969E-08  0.10566000000E+00  0.10566000000E+00 0. -1.
     999900   -1    0    0    0    0 -0.00000000000E+00 -0.00000000000E+00 -0.74505805969E-08  0.93827000000E+00  0.93827000000E+00 0.  1.
     999902    2    1    2    0    0  0.85112663471E-02  0.14428521494E-01 -0.16918920091E-01  0.10201208895E+01  0.10198430053E+01 0.  0.
     999903    2    3    3    0    0  0.23225659105E-01  0.12746034600E+00 -0.21259038340E-01  0.13275876309E+00  0.19681753565E-01 0.  0.
         14    1    1    2    0    0 -0.85112663471E-02 -0.14428521494E-01  0.16918920091E-01  0.23809110533E-01  0.00000000000E+00 0. -1.
     999901    1    3    3    0    0 -0.14714392758E-01 -0.11303182450E+00  0.43401182484E-02  0.88736212638E+00  0.88000000000E+00 0. -1.
        -11    1    4    4    0    0  0.68364365394E-02  0.75652839253E-01 -0.54149431944E-02  0.76155575517E-01  0.51100000000E-03 0.  1.
         11    1    4    4    0    0  0.16389222565E-01  0.51807506743E-01 -0.15844095146E-01  0.56603187571E-01  0.51100000000E-03 0. -1.
</event>
<event>
 8    1  0.1122848E+005  0.1043930E+01  0.7957747E-01            NaN
         13   -1    0    0    0    0  0.00000000000E+00  0.00000000000E+00  0.74505805969E-08  0.10566000000E+00  0.10566000000E+00 0. -1.
     999900   -1    0    0    0    0 -0.00000000000E+00 -0.00000000000E+00 -0.74505805969E-08  0.93827000000E+00  0.93827000000E+00 0. -1.
     999902    2    1    2    0    0  0.12240294966E-01 -0.18881144201E-01 -0.71461334256E-02  0.10203208990E+01  0.10200477181E+01 0.  0.
     999903    2    3    3    0    0 -0.51676743041E-01 -0.53926979268E-01  0.10481596719E+00  0.13023713312E+00  0.19917806140E-01 0.  0.
         14    1    1    2    0    0 -0.12240294966E-01  0.18881144201E-01  0.71461334256E-02  0.23609101002E-01  0.00000000000E+00 0. -1.
     999901    1    3    3    0    0  0.63917038007E-01  0.35045835067E-01 -0.11196210061E+00  0.89008376588E+00  0.88000000000E+00 0. -1.
        -11    1    4    4    0    0 -0.38383560123E-01 -0.34604557442E-01  0.85236343345E-01  0.99680832818E-01  0.51100000000E-03 0. -1.
         11    1    4    4    0    0 -0.13293182917E-01 -0.19322421826E-01  0.19579623844E-01  0.30556300302E-01  0.51100000000E-03 0.  1.
</event>
<event>
 8    1  0.1122848E+005  0.1043930E+01  0.7957747E-01            NaN
         13   -1    0    0    0    0  0.00000000000E+00  0.00000000000E+00  0.74505805969E-08  0.10566000000E+00  0.10566000000E+00 0.  1.
     999900   -1    0    0    0    0 -0.00000000000E+00 -0.00000000000E+00 -0.74505805969E-08  0.93827000000E+00  0.93827000000E+00 0. -1.
     999902    2    1    2    0    0  0.17699243644E-01  0.11097736556E-01  0.11150752103E-01  0.10202495808E+01  0.10199747275E+01 0.  0.
     999903    2    3    3    0    0  0.69810205312E-01  0.10231287452E+00 -0.42377337402E-01  0.13238640996E+00  0.19721403596E-01 0.  0.
         14    1    1    2    0    0 -0.17699243644E-01 -0.11097736556E-01 -0.11150752103E-01  0.23680419226E-01  0.00000000000E+00 0. -1.
     999901    1    3    3    0    0 -0.52110961667E-01 -0.91215137961E-01  0.53528089505E-01  0.88786317081E+00  0.88000000000E+00 0.  1.
        -11    1    4    4    0    0  0.10513048179E-01  0.25669729207E-01 -0.15692628363E-01  0.31874423689E-01  0.51100000000E-03 0.  1.
         11    1    4    4    0    0  0.59297157133E-01  0.76643145309E-01 -0.26684709039E-01  0.10051198627E+00  0.51100000000E-03 0. -1.
</event>
<event>
 8    1  0.1122848E+005  0.1043930E+01  0.7957747E-01            NaN
         13   -1    0    0    0    0  0.00000000000E+00  0.00000000000E+00  0.74505805969E-08  0.10566000000E+00  0.10566000000E+00 0.  1.
     999900   -1    0    0    0    0 -0.00000000000E+00 -0.00000000000E+00 -0.74505805969E-08  0.93827000000E+00  0.93827000000E+00 0.  1.
     999902    2    1    2    0    0  0.17539335281E-01  0.16647989999E-01  0.80814187158E-02  0.10184330751E+01  0.10181138616E+01 0.  0.
     999903    2    3    3    0    0  0.28484831742E-01  0.12149055425E+00  0.36986786535E-01  0.13167082537E+00  0.19946013758E-01 0.  0.
         14    1    1    2    0    0 -0.17539335281E-01 -0.16647989999E-01 -0.80814187158E-02  0.25496924943E-01  0.00000000000E+00 0.  1.
     999901    1    3    3    0    0 -0.10945496461E-01 -0.10484256425E+00 -0.28905367819E-01  0.88676224968E+00  0.88000000000E+00 0.  1.
        -11    1    4    4    0    0  0.13480606179E-01  0.22431825662E-01  0.72663097088E-02  0.27165675461E-01  0.51100000000E-03 0.  1.
         11    1    4    4    0    0  0.15004225563E-01  0.99058728591E-01  0.29720476826E-01  0.10450514991E+00  0.51100000000E-03 0. -1.
</event>
<event>
 8    1  0.1122848E+005  0.1043930E+01  0.7957747E-01            NaN
         13   -1    0    0    0    0  0.00000000000E+00  0.00000000000E+00  0.74505805969E-08  0.10566000000E+00  0.10566000000E+00 0.  1.
     999900   -1    0    0    0    0 -0.00000000000E+00 -0.00000000000E+00 -0.74505805969E-08  0.93827000000E+00  0.93827000000E+00 0.  1.
     999902    2    1    2    0    0 -0.67119588426E-02  0.11799427816E-01 -0.19954670441E-01  0.10197956726E+01  0.10195100529E+01 0.  0.
     999903    2    3    3    0    0 -0.19748938317E-01  0.44883716834E-01 -0.12233193352E+00  0.13314713058E+00  0.18933774628E-01 0.  0.
         14    1    1    2    0    0  0.67119588426E-02 -0.11799427816E-01  0.19954670441E-01  0.24134327434E-01  0.00000000000E+00 0.  1.
     999901    1    3    3    0    0  0.13036979474E-01 -0.33084289018E-01  0.10237726308E+00  0.88664854199E+00  0.88000000000E+00 0. -1.
        -11    1    4    4    0    0  0.62249691868E-03  0.19294597866E-01 -0.36516273769E-01  0.41308212019E-01  0.51100000000E-03 0.  1.
         11    1    4    4    0    0 -0.20371435236E-01  0.25589118967E-01 -0.85815659748E-01  0.91838918559E-01  0.51100000000E-03 0. -1.
</event>
<event>
 8    1  0.1122848E+005  0.1043930E+01  0.7957747E-01            NaN
         13   -1    0    0    0    0  0.00000000000E+00  0.00000000000E+00  0.74505805969E-08  0.10566000000E+00  0.10566000000E+00 0. -1.
     999900   -1    0    0    0    0 -0.00000000000E+00 -0.00000000000E+00 -0.74505805969E-08  0.93827000000E+00  0.93827000000E+00 0. -1.
     999902    2    1    2    0    0  0.17621974661E-01 -0.87064908800E-02  0.13252881511E-01  0.10202239703E+01  0.10199485153E+01 0.  0.
     999903    2    3    3    0    0  0.21819664433E-01  0.11013316527E+00 -0.60446393648E-01  0.12917286762E+00  0.20650699193E-01 0.  0.
         14    1    1    2    0    0 -0.17621974661E-01  0.87064908800E-02 -0.13252881511E-01  0.23706029670E-01  0.00000000000E+00 0.  1.
     999901    1    3    3    0    0 -0.41976897722E-02 -0.11883965615E+00  0.73699275159E-01  0.89105110271E+00  0.88000000000E+00 0.  1.
        -11    1    4    4    0    0  0.11378137134E-01  0.56187167940E-01 -0.42506461015E-01  0.71368902155E-01  0.51100000000E-03 0. -1.
         11    1    4    4    0    0  0.10441527299E-01  0.53945997329E-01 -0.17939932633E-01  0.57803965470E-01  0.51100000000E-03 0.  1.
</event>
<event>
 8    1  0.1122848E+005  0.1043930E+01  0.7957747E-01            NaN
         13   -1    0    0    0    0  0.00000000000E+00  0.00000000000E+00  0.74505805969E-08  0.10566000000E+00  0.10566000000E+00 0.  1.
     999900   -1    0    0    0    0 -0.00000000000E+00 -0.00000000000E+00 -0.74505805969E-08  0.93827000000E+00  0.93827000000E+00 0. -1.
     999902    2    1    2    0    0 -0.15098497975E-01  0.16008483072E-01  0.97508120697E-02  0.10198610468E+01  0.10195769909E+01 0.  0.
     999903    2    3    3    0    0  0.42673637773E-03  0.72193553018E-01 -0.10667830556E+00  0.13028050835E+00  0.19510478669E-01 0.  0.
         14    1    1    2    0    0  0.15098497975E-01 -0.16008483072E-01 -0.97508120697E-02  0.24068953184E-01  0.00000000000E+00 0. -1.
     999901    1    3    3    0    0 -0.15525234353E-01 -0.56185069946E-01  0.11642911763E+00  0.88958053847E+00  0.88000000000E+00 0.  1.
        -11    1    4    4    0    0  0.90445218598E-02  0.23438355814E-01 -0.39786104126E-01  0.47056934680E-01  0.51100000000E-03 0.  1.
         11    1    4    4    0    0 -0.86177854821E-02  0.48755197204E-01 -0.66892201431E-01  0.83223573670E-01  0.51100000000E-03 0. -1.
</event>
<event>
 8    1  0.1122848E+005  0.1043930E+01  0.7957747E-01            NaN
         13   -1    0    0    0    0  0.00000000000E+00  0.00000000000E+00  0.74505805969E-08  0.10566000000E+00  0.10566000000E+00 0.  1.
     999900   -1    0    0    0    0 -0.00000000000E+00 -0.00000000000E+00 -0.74505805969E-08  0.93827000000E+00  0.93827000000E+00 0. -1.
     999902    2    1    2    0    0 -0.92282079240E-02 -0.15617790819E-01 -0.15261013284E-01  0.10202240147E+01  0.10199485607E+01 0.  0.
     999903    2    3    3    0    0  0.11737881285E+00  0.48578277455E-01 -0.81471376265E-02  0.12882002095E+00  0.19763279012E-01 0.  0.
         14    1    1    2    0    0  0.92282079240E-02  0.15617790819E-01  0.15261013284E-01  0.23705985279E-01  0.00000000000E+00 0.  1.
     999901    1    3    3    0    0 -0.12660702078E+00 -0.64196068274E-01 -0.71138756579E-02  0.89140399378E+00  0.88000000000E+00 0.  1.
        -11    1    4    4    0    0  0.80698669097E-01  0.26143587442E-01 -0.11884344393E-01  0.85657814127E-01  0.51100000000E-03 0. -1.
         11    1    4    4    0    0  0.36680143758E-01  0.22434690013E-01  0.37372067662E-02  0.43162206819E-01  0.51100000000E-03 0.  1.
</event>
<event>
 8    1  0.1122848E+005  0.1043930E+01  0.7957747E-01            NaN
         13   -1    0    0    0    0  0.00000000000E+00  0.00000000000E+00  0.74505805969E-08  0.10566000000E+00  0.10566000000E+00 0. -1.
     999900   -1    0    0    0    0 -0.00000000000E+00 -0.00000000000E+00 -0.74505805969E-08  0.93827000000E+00  0.93827000000E+00 0. -1.
     999902    2    1    2    0    0 -0.81974041639E-02  0.34232949316E-02 -0.22217672406E-01  0.10200021637E+01  0.10197214681E+01 0.  0.
     999903    2    3    3    0    0  0.60700625236E-02 -0.27143292257E-01  0.12278032352E+00  0.12749877676E+00  0.20182325374E-01 0.  0.
         14    1    1    2    0    0  0.81974041639E-02 -0.34232949316E-02  0.22217672406E-01  0.23927836307E-01  0.00000000000E+00 0. -1.
     999901    1    3    3    0    0 -0.14267466687E-01  0.30566587188E-01 -0.14499799593E+00  0.89250338693E+00  0.88000000000E+00 0. -1.
        -11    1    4    4    0    0 -0.68137756097E-02 -0.53846366309E-02  0.23868424784E-01  0.25404422300E-01  0.51100000000E-03 0. -1.
         11    1    4    4    0    0  0.12883838133E-01 -0.21758655626E-01  0.98911898740E-01  0.10209435446E+00  0.51100000000E-03 0.  1.
</event>
<event>
 8    1  0.1122848E+005  0.1043930E+01  0.7957747E-01            NaN
         13   -1    0    0    0    0  0.00000000000E+00  0.00000000000E+00  0.74505805969E-08  0.10566000000E+00  0.10566000000E+00 0.  1.
     999900   -1    0    0    0    0 -0.00000000000E+00 -0.00000000000E+00 -0.74505805969E-08  0.93827000000E+00  0.93827000000E+00 0. -1.
     999902    2    1    2    0    0  0.71225304536E-02  0.18993668104E-01 -0.95069239442E-02  0.10215275119E+01  0.10212818348E+01 0.  0.
     999903    2    3    3    0    0  0.99312860114E-01  0.12368356452E-01  0.83323096907E-01  0.13183072966E+00  0.20508105217E-01 0.  0.
         14    1    1    2    0    0 -0.71225304536E-02 -0.18993668104E-01  0.95069239442E-02  0.22402488053E-01  0.00000000000E+00 0.  1.
     999901    1    3    3    0    0 -0.92190329660E-01  0.66253116514E-02 -0.92830020851E-01  0.88969678229E+00  0.88000000000E+00 0. -1.
        -11    1    4    4    0    0  0.40034272940E-01  0.12600268481E-01  0.43293558257E-01  0.60300108484E-01  0.51100000000E-03 0. -1.
         11    1    4    4    0    0  0.59278587173E-01 -0.23191202846E-03  0.40029538650E-01  0.71530621177E-01  0.51100000000E-03 0.  1.
</event>
<event>
 8    1  0.1122848E+005  0.1043930E+01  0.7957747E-01            NaN
         13   -1    0    0    0    0  0.00000000000E+00  0.00000000000E+00  0.74505805969E-08  0.10566000000E+00  0.10566000000E+00 0.  1.
     999900   -1    0    0    0    0 -0.00000000000E+00 -0.00000000000E+00 -0.74505805969E-08  0.93827000000E+00  0.93827000000E+00 0. -1.
     999902    2    1    2    0    0  0.12897244387E-02  0.19903384760E-01 -0.11585143655E-01  0.10208643618E+01  0.10206037534E+01 0.  0.
     999903    2    3    3    0    0  0.19855796817E-01  0.36598256340E-01  0.12196482696E+00  0.13043805238E+00  0.20124151150E-01 0.  0.
         14    1    1    2    0    0 -0.12897244387E-02 -0.19903384760E-01  0.11585143655E-01  0.23065638242E-01  0.00000000000E+00 0. -1.
     999901    1    3    3    0    0 -0.18566072379E-01 -0.16694871580E-01 -0.13354997061E+00  0.89042630938E+00  0.88000000000E+00 0. -1.
        -11    1    4    4    0    0 -0.34331480468E-02  0.92581269758E-03  0.11199571881E-01  0.11761597085E-01  0.51100000000E-03 0.  1.
         11    1    4    4    0    0  0.23288944864E-01  0.35672443642E-01  0.11076525508E+00  0.11867645530E+00  0.51100000000E-03 0. -1.
</event>
<event>
 8    1  0.1122848E+005  0.1043930E+01  0.7957747E-01            NaN
         13   -1    0    0    0    0  0.00000000000E+00  0.00000000000E+00  0.74505805969E-08  0.10566000000E+00  0.10566000000E+00 0. -1.
     999900   -1    0    0    0    0 -0.00000000000E+00 -0.00000000000E+00 -0.74505805969E-08  0.93827000000E+00  0.93827000000E+00 0. -1.
     999902    2    1    2    0    0  0.70499785243E-02 -0.27963283862E-02 -0.22660700020E-01  0.10200337874E+01  0.10197538421E+01 0.  0.
     999903    2    3    3    0    0 -0.68911089672E-01  0.50038784736E-01  0.92941101928E-01  0.12766311912E+00  0.20179328458E-01 0.  0.
         14    1    1    2    0    0 -0.70499785243E-02  0.27963283862E-02  0.22660700020E-01  0.23896212567E-01  0.00000000000E+00 0. -1.
     999901    1    3    3    0    0  0.75961068197E-01 -0.52835113122E-01 -0.11560180195E+00  0.89237066832E+00  0.88000000000E+00 0. -1.
        -11    1    4    4    0    0 -0.38498459156E-01  0.33195346561E-01  0.41760675837E-01  0.65789646284E-01  0.51100000000E-03 0.  1.
         11    1    4    4    0    0 -0.30412630516E-01  0.16843438175E-01  0.51180426090E-01  0.61873472832E-01  0.51100000000E-03 0. -1.
</event>
<event>
 8    1  0.1122848E+005  0.1043930E+01  0.7957747E-01            NaN
         13   -1    0    0    0    0  0.00000000000E+00  0.00000000000E+00  0.74505805969E-08  0.10566000000E+00  0.10566000000E+00 0.  1.
     999900   -1    0    0    0    0 -0.00000000000E+00 -0.00000000000E+00 -0.74505805969E-08  0.93827000000E+00  0.93827000000E+00 0. -1.
     999902    2    1    2    0    0 -0.71943276913E-02  0.22773701231E-01 -0.14231393905E-02  0.10200045921E+01  0.10197239542E+01 0.  0.
     999903    2    3    3    0    0 -0.12605565745E+00 -0.86441715055E-03 -0.30457676886E-01  0.13122465265E+00  0.20036551384E-01 0.  0.
         14    1    1    2    0    0  0.71943276913E-02 -0.22773701231E-01  0.14231393905E-02  0.23925407926E-01  0.00000000000E+00 0.  1.
     999901    1    3    3    0    0  0.11886132975E+00  0.23638118382E-01  0.29034537495E-01  0.88877993942E+00  0.88000000000E+00 0. -1.
        -11    1    4    4    0    0 -0.59278510980E-01  0.77638068002E-02 -0.20237634102E-01  0.63119264216E-01  0.51100000000E-03 0. -1.
         11    1    4    4    0    0 -0.66777146465E-01 -0.86282239508E-02 -0.10220042783E-01  0.68105388437E-01  0.51100000000E-03 0.  1.
</event>
<event>
 8    1  0.1122848E+005  0.1043930E+01  0.7957747E-01            NaN
         13   -1    0    0    0    0  0.00000000000E+00  0.00000000000E+00  0.74505805969E-08  0.10566000000E+00  0.10566000000E+00 0.  1.
     999900   -1    0    0    0    0 -0.00000000000E+00 -0.00000000000E+00 -0.74505805969E-08  0.93827000000E+00  0.93827000000E+00 0. -1.
     999902    2    1    2    0    0 -0.38523311789E-02  0.15412436892E-01  0.17873983084E-01  0.10200163441E+01  0.10197359851E+01 0.  0.
     999903    2    3    3    0    0 -0.89020804883E-01 -0.45579278483E-01 -0.78320032298E-01  0.12859784147E+00  0.20030053502E-01 0.  0.
         14    1    1    2    0    0  0.38523311789E-02 -0.15412436892E-01 -0.17873983084E-01  0.23913655884E-01  0.00000000000E+00 0. -1.
     999901    1    3    3    0    0  0.85168473704E-01  0.60991715375E-01  0.96194015382E-01  0.89141850264E+00  0.88000000000E+00 0. -1.
        -11    1    4    4    0    0 -0.70243145610E-01 -0.27421668486E-01 -0.52634337487E-01  0.91960219722E-01  0.51100000000E-03 0.  1.
         11    1    4    4    0    0 -0.18777659273E-01 -0.18157609998E-01 -0.25685694812E-01  0.36637621751E-01  0.51100000000E-03 0. -1.
</event>
<event>
 8    1  0.1122848E+005  0.1043930E+01  0.7957747E-01            NaN
         13   -1    0    0    0    0  0.00000000000E+00  0.00000000000E+00  0.74505805969E-08  0.10566000000E+00  0.10566000000E+00 0. -1.
     999900   -1    0    0    0    0 -0.00000000000E+00 -0.00000000000E+00 -0.74505805969E-08  0.93827000000E+00  0.93827000000E+00 0.  1.
     999902    2    1    2    0    0 -0.94072594395E-02  0.20922128318E-01  0.49916175000E-02  0.10204534536E+01  0.10201833673E+01 0.  0.
     999903    2    3    3    0    0 -0.78930026805E-02  0.90646014680E-01 -0.92218217065E-01  0.13235803915E+00  0.27119209084E-01 0.  0.
         14    1    1    2    0    0  0.94072594395E-02 -0.20922128318E-01 -0.49916175000E-02  0.23476546355E-01  0.00000000000E+00 0. -1.
     999901    1    3    3    0    0 -0.15142567590E-02 -0.69723886362E-01  0.97209834565E-01  0.88809541449E+00  0.88000000000E+00 0. -1.
        -11    1    4    4    0    0  0.68088820769E-02  0.59010752934E-01 -0.65411355809E-01  0.88360264977E-01  0.51100000000E-03 0.  1.
         11    1    4    4    0    0 -0.14701884757E-01  0.31635261746E-01 -0.26806861256E-01  0.43997774177E-01  0.51100000000E-03 0. -1.
</event>
<event>
 8    1  0.1122848E+005  0.1043930E+01  0.7957747E-01            NaN
         13   -1    0    0    0    0  0.00000000000E+00  0.00000000000E+00  0.74505805969E-08  0.10566000000E+00  0.10566000000E+00 0. -1.
     999900   -1    0    0    0    0 -0.00000000000E+00 -0.00000000000E+00 -0.74505805969E-08  0.93827000000E+00  0.93827000000E+00 0.  1.
     999902    2    1    2    0    0  0.78813580371E-03  0.18936254447E-01  0.14028089421E-01  0.10203505559E+01  0.10200780690E+01 0.  0.
     999903    2    3    3    0    0 -0.99287074562E-01 -0.56592871396E-01  0.58948938467E-01  0.13032944422E+00  0.21215805826E-01 0.  0.
         14    1    1    2    0    0 -0.78813580371E-03 -0.18936254447E-01 -0.14028089421E-01  0.23579444085E-01  0.00000000000E+00 0.  1.
     999901    1    3    3    0    0  0.10007521037E+00  0.75529125843E-01 -0.44920849046E-01  0.89002111169E+00  0.88000000000E+00 0.  1.
        -11    1    4    4    0    0 -0.53534697169E-01 -0.42500384734E-01  0.35191096185E-01  0.76882513455E-01  0.51100000000E-03 0. -1.
         11    1    4    4    0    0 -0.45752377394E-01 -0.14092486662E-01  0.23757842282E-01  0.53446930767E-01  0.51100000000E-03 0.  1.
</event>
<event>
 8    1  0.1122848E+005  0.1043930E+01  0.7957747E-01            NaN
         13   -1    0    0    0    0  0.00000000000E+00  0.00000000000E+00  0.74505805969E-08  0.10566000000E+00  0.10566000000E+00 0. -1.
     999900   -1    0    0    0    0 -0.00000000000E+00 -0.00000000000E+00 -0.74505805969E-08  0.93827000000E+00  0.93827000000E+00 0. -1.
     999902    2    1    2    0    0 -0.60113414678E-02 -0.16035513924E-01  0.17316368121E-01  0.10195757285E+01  0.10192848158E+01 0.  0.
     999903    2    3    3    0    0 -0.84318584427E-01 -0.89756886721E-01 -0.34935036708E-01  0.13148954218E+00  0.30051963659E-01 0.  0.
         14    1    1    2    0    0  0.60113414678E-02  0.16035513924E-01 -0.17316368121E-01  0.24354271452E-01  0.00000000000E+00 0.  1.
     999901    1    3    3    0    0  0.78307242960E-01  0.73721372797E-01  0.52251404829E-01  0.88808618637E+00  0.88000000000E+00 0. -1.
        -11    1    4    4    0    0 -0.67370077806E-01 -0.73436987688E-01 -0.15273030030E-01  0.10082284023E+00  0.51100000000E-03 0.  1.
         11    1    4    4    0    0 -0.16948506622E-01 -0.16319899033E-01 -0.19662006678E-01  0.30666701955E-01  0.51100000000E-03 0. -1.
</event>
<event>
 8    1  0.1122848E+005  0.1043930E+01  0.7957747E-01            NaN
         13   -1    0    0    0    0  0.00000000000E+00  0.00000000000E+00  0.74505805969E-08  0.10566000000E+00  0.10566000000E+00 0.  1.
     999900   -1    0    0    0    0 -0.00000000000E+00 -0.00000000000E+00 -0.74505805969E-08  0.93827000000E+00  0.93827000000E+00 0. -1.
     999902    2    1    2    0    0  0.37024403900E-02  0.23497640743E-01 -0.51283487352E-03  0.10201369299E+01  0.10198594244E+01 0.  0.
     999903    2    3    3    0    0 -0.14919039855E-01 -0.97584138032E-02  0.12677575726E+00  0.13016214914E+00  0.23500809576E-01 0.  0.
         14    1    1    2    0    0 -0.37024403900E-02 -0.23497640743E-01  0.51283487352E-03  0.23793070103E-01  0.00000000000E+00 0.  1.
     999901    1    3    3    0    0  0.18621480245E-01  0.33256054546E-01 -0.12728859213E+00  0.88997478075E+00  0.88000000000E+00 0. -1.
        -11    1    4    4    0    0 -0.85275423131E-02 -0.17476704496E-01  0.85248392622E-01  0.87439714910E-01  0.51100000000E-03 0. -1.
         11    1    4    4    0    0 -0.63914975422E-02  0.77182906931E-02  0.41527364638E-01  0.42722434233E-01  0.51100000000E-03 0.  1.
</event>
<event>
 8    1  0.1122848E+005  0.1043930E+01  0.7957747E-01            NaN
         13   -1    0    0    0    0  0.00000000000E+00  0.00000000000E+00  0.74505805969E-08  0.10566000000E+00  0.10566000000E+00 0.  1.
     999900   -1    0    0    0    0 -0.00000000000E+00 -0.00000000000E+00 -0.74505805969E-08  0.93827000000E+00  0.93827000000E+00 0.  1.
     999902    2    1    2    0    0 -0.39021013501E-02 -0.17639289495E-01 -0.15280837336E-01  0.10202683238E+01  0.10199939106E+01 0.  0.
     999903    2    3    3    0    0 -0.18060434948E-01 -0.10792968806E+00  0.69961099114E-01  0.13143819260E+00  0.20160511104E-01 0.  0.
         14    1    1    2    0    0  0.39021013501E-02  0.17639289495E-01  0.15280837336E-01  0.23661676156E-01  0.00000000000E+00 0.  1.
     999901    1    3    3    0    0  0.14158333598E-01  0.90290398567E-01 -0.85241936450E-01  0.88883013125E+00  0.88000000000E+00 0.  1.
        -11    1    4    4    0    0  0.27641860112E-02 -0.11507010887E-01  0.30255728236E-02  0.12225679358E-01  0.51100000000E-03 0.  1.
         11    1    4    4    0    0 -0.20824620959E-01 -0.96422677175E-01  0.66935526291E-01  0.11921251324E+00  0.51100000000E-03 0. -1.
</event>
<event>
 8    1  0.1122848E+005  0.1043930E+01  0.7957747E-01            NaN
         13   -1    0    0    0    0  0.00000000000E+00  0.00000000000E+00  0.74505805969E-08  0.10566000000E+00  0.10566000000E+00 0. -1.
     999900   -1    0    0    0    0 -0.00000000000E+00 -0.00000000000E+00 -0.74505805969E-08  0.93827000000E+00  0.93827000000E+00 0.  1.
     999902    2    1    2    0    0 -0.55884475987E-02 -0.19258146322E-01 -0.12076031975E-01  0.10205219353E+01  0.10202534405E+01 0.  0.
     999903    2    3    3    0    0  0.95089165067E-01 -0.82471563316E-01 -0.34605368819E-01  0.13224298764E+00  0.21146350973E-01 0.  0.
         14    1    1    2    0    0  0.55884475987E-02  0.19258146322E-01  0.12076031975E-01  0.23408064734E-01  0.00000000000E+00 0. -1.
     999901    1    3    3    0    0 -0.10067761267E+00  0.63213416994E-01  0.22529336844E-01  0.88827894763E+00  0.88000000000E+00 0.  1.
        -11    1    4    4    0    0  0.62280376897E-01 -0.58019427824E-01 -0.13448049928E-01  0.86175463557E-01  0.51100000000E-03 0.  1.
         11    1    4    4    0    0  0.32808788170E-01 -0.24452135493E-01 -0.21157318891E-01  0.46067524081E-01  0.51100000000E-03 0. -1.
</event>
<event>
 8    1  0.1122848E+005  0.1043930E+01  0.7957747E-01            NaN
         13   -1    0    0    0    0  0.00000000000E+00  0.00000000000E+00  0.74505805969E-08  0.10566000000E+00  0.10566000000E+00 0. -1.
     999900   -1    0    0    0    0 -0.00000000000E+00 -0.00000000000E+00 -0.74505805969E-08  0.93827000000E+00  0.93827000000E+00 0.  1.
     999902    2    1    2    0    0  0.14180238765E-01 -0.19718923248E-01 -0.16458449052E-01  0.10145906808E+01  0.10141663838E+01 0.  0.
     999903    2    3    3    0    0  0.10680992471E+00 -0.62926808718E-01 -0.27451829189E-01  0.12860646284E+00  0.20442017640E-01 0.  0.
         14    1    1    2    0    0 -0.14180238765E-01  0.19718923248E-01  0.16458449052E-01  0.29339319193E-01  0.00000000000E+00 0. -1.
     999901    1    3    3    0    0 -0.92629685947E-01  0.43207885470E-01  0.10993380137E-01  0.88598421797E+00  0.88000000000E+00 0. -1.
        -11    1    4    4    0    0  0.52019649810E-01 -0.27660841829E-01 -0.29542092917E-02  0.58992835248E-01  0.51100000000E-03 0.  1.
         11    1    4    4    0    0  0.54790274902E-01 -0.35265966889E-01 -0.24497619898E-01  0.69613627589E-01  0.51100000000E-03 0. -1.
</event>
<event>
 8    1  0.1122848E+005  0.1043930E+01  0.7957747E-01            NaN
         13   -1    0    0    0    0  0.00000000000E+00  0.00000000000E+00  0.74505805969E-08  0.10566000000E+00  0.10566000000E+00 0. -1.
     999900   -1    0    0    0    0 -0.00000000000E+00 -0.00000000000E+00 -0.74505805969E-08  0.93827000000E+00  0.93827000000E+00 0. -1.
     999902    2    1    2    0    0  0.73347170486E-02 -0.44269454948E-02 -0.21990351179E-01  0.10203297571E+01  0.10200567836E+01 0.  0.
     999903    2    3    3    0    0 -0.78310861947E-03 -0.12452631317E+00  0.32752403465E-01  0.13044969416E+00  0.20904230290E-01 0.  0.
         14    1    1    2    0    0 -0.73347170486E-02  0.44269454948E-02  0.21990351179E-01  0.23600242913E-01  0.00000000000E+00 0. -1.
     999901    1    3    3    0    0  0.81178256681E-02  0.12009936767E+00 -0.54742754644E-01  0.88988006293E+00  0.88000000000E+00 0.  1.
        -11    1    4    4    0    0  0.23848682124E-03 -0.92233973759E-01  0.14589848826E-01  0.93382480162E-01  0.51100000000E-03 0.  1.
         11    1    4    4    0    0 -0.10215954407E-02 -0.32292339406E-01  0.18162554639E-01  0.37067213998E-01  0.51100000000E-03 0. -1.
</event>
<event>
 8    1  0.1122848E+005  0.1043930E+01  0.7957747E-01            NaN
         13   -1    0    0    0    0  0.00000000000E+00  0.00000000000E+00  0.74505805969E-08  0.10566000000E+00  0.10566000000E+00 0.  1.
     999900   -1    0    0    0    0 -0.00000000000E+00 -0.00000000000E+00 -0.74505805969E-08  0.93827000000E+00  0.93827000000E+00 0. -1.
     999902    2    1    2    0    0  0.72856087451E-02  0.17705047386E-01 -0.10788628941E-01  0.10219540288E+01  0.10217177172E+01 0.  0.
     999903    2    3    3    0    0 -0.42845793773E-01 -0.10416557970E+00 -0.63046449292E-01  0.13060870451E+00  0.19938628004E-01 0.  0.
         14    1    1    2    0    0 -0.72856087451E-02 -0.17705047386E-01  0.10788628941E-01  0.21975971244E-01  0.00000000000E+00 0.  1.
     999901    1    3    3    0    0  0.50131402518E-01  0.12187062709E+00  0.52257820352E-01  0.89134532424E+00  0.88000000000E+00 0.  1.
        -11    1    4    4    0    0 -0.33812218052E-01 -0.58282231688E-01 -0.41310938795E-01  0.79037582233E-01  0.51100000000E-03 0.  1.
         11    1    4    4    0    0 -0.90335757208E-02 -0.45883348015E-01 -0.21735510497E-01  0.51571122278E-01  0.51100000000E-03 0. -1.
</event>
<event>
 8    1  0.1122848E+005  0.1043930E+01  0.7957747E-01            NaN
         13   -1    0    0    0    0  0.00000000000E+00  0.00000000000E+00  0.74505805969E-08  0.10566000000E+00  0.10566000000E+00 0.  1.
     999900   -1    0    0    0    0 -0.00000000000E+00 -0.00000000000E+00 -0.74505805969E-08  0.93827000000E+00  0.93827000000E+00 0. -1.
     999902    2    1    2    0    0 -0.19875438025E-01  0.70112594394E-02  0.16341535431E-01  0.10172609810E+01  0.10169113368E+01 0.  0.
     999903    2    3    3    0    0  0.81007187632E-01 -0.91397800923E-01 -0.19440716147E-01  0.12532935980E+00  0.20341694177E-01 0.  0.
         14    1    1    2    0    0  0.19875438025E-01 -0.70112594394E-02 -0.16341535431E-01  0.26669019027E-01  0.00000000000E+00 0. -1.
     999901    1    3    3    0    0 -0.10088262566E+00  0.98409060363E-01  0.35782251578E-01  0.89193162117E+00  0.88000000000E+00 0. -1.
        -11    1    4    4    0    0  0.49794413550E-01 -0.56627824452E-01 -0.19440646081E-02  0.75433643894E-01  0.51100000000E-03 0. -1.
         11    1    4    4    0    0  0.31212774081E-01 -0.34769976471E-01 -0.17496651539E-01  0.49895715906E-01  0.51100000000E-03 0.  1.
</event>
<event>
 8    1  0.1122848E+005  0.1043930E+01  0.7957747E-01            NaN
         13   -1    0    0    0    0  0.00000000000E+00  0.00000000000E+00  0.74505805969E-08  0.10566000000E+00  0.10566000000E+00 0. -1.
     999900   -1    0    0    0    0 -0.00000000000E+00 -0.00000000000E+00 -0.74505805969E-08  0.93827000000E+00  0.93827000000E+00 0.  1.
     999902    2    1    2    0    0  0.72341739063E-03 -0.63100323843E-02  0.25355069382E-01  0.10177915344E+01  0.10174558408E+01 0.  0.
     999903    2    3    3    0    0  0.51072976768E-01  0.90627465273E-01  0.73476108901E-01  0.12973320802E+00  0.24701827178E-01 0.  0.
         14    1    1    2    0    0 -0.72341739063E-03  0.63100323843E-02 -0.25355069382E-01  0.26138465617E-01  0.00000000000E+00 0.  1.
     999901    1    3    3    0    0 -0.50349559377E-01 -0.96937497657E-01 -0.48121039519E-01  0.88805832636E+00  0.88000000000E+00 0. -1.
        -11    1    4    4    0    0  0.28746324797E-01  0.57826198439E-01  0.59061380660E-01  0.87514160121E-01  0.51100000000E-03 0. -1.
         11    1    4    4    0    0  0.22326651970E-01  0.32801266834E-01  0.14414728241E-01  0.42219047897E-01  0.51100000000E-03 0.  1.
</event>
<event>
 8    1  0.1122848E+005  0.1043930E+01  0.7957747E-01            NaN
         13   -1    0    0    0    0  0.00000000000E+00  0.00000000000E+00  0.74505805969E-08  0.10566000000E+00  0.10566000000E+00 0. -1.
     999900   -1    0    0    0    0 -0.00000000000E+00 -0.00000000000E+00 -0.74505805969E-08  0.93827000000E+00  0.93827000000E+00 0. -1.
     999902    2    1    2    0    0 -0.90063221559E-02 -0.14567018606E-01 -0.15878252115E-01  0.10205755409E+01  0.10203082887E+01 0.  0.
     999903    2    3    3    0    0 -0.50673901532E-03 -0.38610540688E-02  0.12720562467E+00  0.12891425073E+00  0.20553553675E-01 0.  0.
         14    1    1    2    0    0  0.90063221559E-02  0.14567018606E-01  0.15878252115E-01  0.23354459104E-01  0.00000000000E+00 0. -1.
     999901    1    3    3    0    0 -0.84995831405E-02 -0.10705964537E-01 -0.14308387679E+00  0.89166129017E+00  0.88000000000E+00 0. -1.
        -11    1    4    4    0    0 -0.80076823928E-02 -0.85825622149E-02  0.61579842852E-01  0.62690681270E-01  0.51100000000E-03 0. -1.
         11    1    4    4    0    0  0.75009433775E-02  0.47215081461E-02  0.65625781822E-01  0.66223569456E-01  0.51100000000E-03 0.  1.
</event>
<event>
 8    1  0.1122848E+005  0.1043930E+01  0.7957747E-01            NaN
         13   -1    0    0    0    0  0.00000000000E+00  0.00000000000E+00  0.74505805969E-08  0.10566000000E+00  0.10566000000E+00 0.  1.
     999900   -1    0    0    0    0 -0.00000000000E+00 -0.00000000000E+00 -0.74505805969E-08  0.93827000000E+00  0.93827000000E+00 0. -1.
     999902    2    1    2    0    0 -0.22933075625E-01 -0.82470734291E-02 -0.22795463248E-02  0.10194527348E+01  0.10191588405E+01 0.  0.
     999903    2    3    3    0    0 -0.11981716480E+00 -0.21487297595E-01 -0.49856987338E-01  0.13275918961E+00  0.17928365845E-01 0.  0.
         14    1    1    2    0    0  0.22933075625E-01  0.82470734291E-02  0.22795463248E-02  0.24477265150E-01  0.00000000000E+00 0. -1.
     999901    1    3    3    0    0  0.96884089174E-01  0.13240224165E-01  0.47577441013E-01  0.88669354524E+00  0.88000000000E+00 0. -1.
        -11    1    4    4    0    0 -0.16161866646E-01 -0.80537974904E-02 -0.11528861025E-01  0.21430010384E-01  0.51100000000E-03 0. -1.
         11    1    4    4    0    0 -0.10365529815E+00 -0.13433500104E-01 -0.38328126313E-01  0.11132917923E+00  0.51100000000E-03 0.  1.
</event>
<event>
 8    1  0.1122848E+005  0.1043930E+01  0.7957747E-01            NaN
         13   -1    0    0    0    0  0.00000000000E+00  0.00000000000E+00  0.74505805969E-08  0.10566000000E+00  0.10566000000E+00 0. -1.
     999900   -1    0    0    0    0 -0.00000000000E+00 -0.00000000000E+00 -0.74505805969E-08  0.93827000000E+00  0.93827000000E+00 0.  1.
     999902    2    1    2    0    0 -0.43860554304E-02 -0.23189612502E-01  0.31028525801E-02  0.10201261494E+01  0.10198483894E+01 0.  0.
     999903    2    3    3    0    0  0.17347178048E-01  0.80137227484E-01  0.97297115130E-01  0.12882298637E+00  0.20142824744E-01 0.  0.
         14    1    1    2    0    0  0.43860554304E-02  0.23189612502E-01 -0.31028525801E-02  0.23803850621E-01  0.00000000000E+00 0.  1.
     999901    1    3    3    0    0 -0.21733233479E-01 -0.10332683999E+00 -0.94194262550E-01  0.89130316301E+00  0.88000000000E+00 0.  1.
        -11    1    4    4    0    0  0.20912377960E-01  0.52344025390E-01  0.66755492711E-01  0.87371514088E-01  0.51100000000E-03 0. -1.
         11    1    4    4    0    0 -0.35651999116E-02  0.27793202095E-01  0.30541622419E-01  0.41451472279E-01  0.51100000000E-03 0.  1.
</event>
<event>
 7    1  0.1122848E+005  0.1043930E+01  0.7957747E-01            NaN
         13   -1    0    0    0    0  0.00000000000E+00  0.00000000000E+00  0.74505805969E-08  0.10566000000E+00  0.10566000000E+00 0.  1.
     999900   -1    0    0    0    0 -0.00000000000E+00 -0.00000000000E+00 -0.74505805969E-08  0.93827000000E+00  0.93827000000E+00 0. -1.
     999902    2    1    2    0    0  0.19424614086E-01  0.13165070696E-01 -0.24340687883E-02  0.10203384886E+01  0.10200657194E+01 0.  0.
         14    1    1    2    0    0 -0.19424614086E-01 -0.13165070696E-01  0.24340687883E-02  0.23591511390E-01  0.00000000000E+00 0.  1.
     999901    1    3    3    0    0  0.52060591255E-01  0.44205979543E-01 -0.12336755422E+00  0.89122613697E+00  0.88000000000E+00 0. -1.
        -11    1    3    3    0    0 -0.25673214213E-02 -0.18085036935E-02  0.10988508582E-01  0.11439854314E-01  0.51100000000E-03 0.  1.
         11    1    3    3    0    0 -0.30068655748E-01 -0.29232405153E-01  0.10994497685E+00  0.11767249732E+00  0.51100000000E-03 0. -1.
</event>
<event>
 8    1  0.1122848E+005  0.1043930E+01  0.7957747E-01            NaN
         13   -1    0    0    0    0  0.00000000000E+00  0.00000000000E+00  0.74505805969E-08  0.10566000000E+00  0.10566000000E+00 0. -1.
     999900   -1    0    0    0    0 -0.00000000000E+00 -0.00000000000E+00 -0.74505805969E-08  0.93827000000E+00  0.93827000000E+00 0.  1.
     999902    2    1    2    0    0  0.85899487029E-02  0.86041817311E-02  0.20910606557E-01  0.10197417254E+01  0.10194548121E+01 0.  0.
     999903    2    3    3    0    0 -0.98718234336E-01  0.78474679190E-01  0.27645443061E-01  0.13044858442E+00  0.18681477176E-01 0.  0.
         14    1    1    2    0    0 -0.85899487029E-02 -0.86041817311E-02 -0.20910606557E-01  0.24188274609E-01  0.00000000000E+00 0.  1.
     999901    1    3    3    0    0  0.10730818304E+00 -0.69870497459E-01 -0.67348365039E-02  0.88929314097E+00  0.88000000000E+00 0. -1.
        -11    1    4    4    0    0 -0.29314843805E-01  0.34495092415E-01  0.11528150335E-01  0.46716494295E-01  0.51100000000E-03 0.  1.
         11    1    4    4    0    0 -0.69403390532E-01  0.43979586775E-01  0.16117292726E-01  0.83732090121E-01  0.51100000000E-03 0. -1.
</event>
<event>
 8    1  0.1122848E+005  0.1043930E+01  0.7957747E-01            NaN
         13   -1    0    0    0    0  0.00000000000E+00  0.00000000000E+00  0.74505805969E-08  0.10566000000E+00  0.10566000000E+00 0. -1.
     999900   -1    0    0    0    0 -0.00000000000E+00 -0.00000000000E+00 -0.74505805969E-08  0.93827000000E+00  0.93827000000E+00 0.  1.
     999902    2    1    2    0    0  0.14334815693E-01 -0.17539780060E-01  0.40881678112E-02  0.10209116608E+01  0.10206521323E+01 0.  0.
     999903    2    3    3    0    0 -0.50617392717E-01 -0.10946925163E+00  0.51102832214E-01  0.13249723281E+00  0.19959452457E-01 0.  0.
         14    1    1    2    0    0 -0.14334815693E-01  0.17539780060E-01 -0.40881678112E-02  0.23018339245E-01  0.00000000000E+00 0.  1.
     999901    1    3    3    0    0  0.64952208410E-01  0.91929471572E-01 -0.47014664403E-01  0.88841442795E+00  0.88000000000E+00 0.  1.
        -11    1    4    4    0    0 -0.41757662439E-01 -0.67971276343E-01  0.34850057351E-01  0.87055065323E-01  0.51100000000E-03 0. -1.
         11    1    4    4    0    0 -0.88597302776E-02 -0.41497975289E-01  0.16252774863E-01  0.45442167482E-01  0.51100000000E-03 0.  1.
</event>
<event>
 8    1  0.1122848E+005  0.1043930E+01  0.7957747E-01            NaN
         13   -1    0    0    0    0  0.00000000000E+00  0.00000000000E+00  0.74505805969E-08  0.10566000000E+00  0.10566000000E+00 0. -1.
     999900   -1    0    0    0    0 -0.00000000000E+00 -0.00000000000E+00 -0.74505805969E-08  0.93827000000E+00  0.93827000000E+00 0.  1.
     999902    2    1    2    0    0  0.42493056369E-02 -0.77806974943E-02  0.19138183004E-01  0.10228381556E+01  0.10226206660E+01 0.  0.
     999903    2    3    3    0    0 -0.94300505401E-01  0.58823042105E-01  0.70722158713E-01  0.13333884141E+00  0.20612794406E-01 0.  0.
         14    1    1    2    0    0 -0.42493056369E-02  0.77806974943E-02 -0.19138183004E-01  0.21091844409E-01  0.00000000000E+00 0.  1.
     999901    1    3    3    0    0  0.98549811038E-01 -0.66603739600E-01 -0.51583975709E-01  0.88949931418E+00  0.88000000000E+00 0.  1.
        -11    1    4    4    0    0 -0.65766863315E-01  0.50186519143E-01  0.46351643884E-01  0.94829863576E-01  0.51100000000E-03 0.  1.
         11    1    4    4    0    0 -0.28533642086E-01  0.86365229621E-02  0.24370514829E-01  0.38508977831E-01  0.51100000000E-03 0. -1.
</event>
<event>
 8    1  0.1122848E+005  0.1043930E+01  0.7957747E-01            NaN
         13   -1    0    0    0    0  0.00000000000E+00  0.00000000000E+00  0.74505805969E-08  0.10566000000E+00  0.10566000000E+00 0.  1.
     999900   -1    0    0    0    0 -0.00000000000E+00 -0.00000000000E+00 -0.74505805969E-08  0.93827000000E+00  0.93827000000E+00 0. -1.
     999902    2    1    2    0    0 -0.20633569820E-01 -0.22009875525E-02 -0.11145581114E-01  0.10203755412E+01  0.10201036382E+01 0.  0.
     999903    2    3    3    0    0 -0.10638049576E+00  0.68250771800E-01  0.33832784293E-01  0.13226572873E+00  0.19354275347E-01 0.  0.
         14    1    1    2    0    0  0.20633569820E-01  0.22009875525E-02  0.11145581114E-01  0.23554458773E-01  0.00000000000E+00 0.  1.
     999901    1    3    3    0    0  0.85746925936E-01 -0.70451759352E-01 -0.44978365407E-01  0.88810981250E+00  0.88000000000E+00 0.  1.
        -11    1    4    4    0    0 -0.15943317924E-01  0.36280882625E-02  0.11168587013E-02  0.16396978540E-01  0.51100000000E-03 0. -1.
         11    1    4    4    0    0 -0.90437177832E-01  0.64622683537E-01  0.32715925592E-01  0.11586875019E+00  0.51100000000E-03 0.  1.
</event>
<event>
 8    1  0.1122848E+005  0.1043930E+01  0.7957747E-01            NaN
         13   -1    0    0    0    0  0.00000000000E+00  0.00000000000E+00  0.74505805969E-08  0.10566000000E+00  0.10566000000E+00 0. -1.
     999900   -1    0    0    0    0 -0.00000000000E+00 -0.00000000000E+00 -0.74505805969E-08  0.93827000000E+00  0.93827000000E+00 0. -1.
     999902    2    1    2    0    0  0.64364243838E-02 -0.21017246703E-01 -0.99873030248E-02  0.10197867103E+01  0.10195008759E+01 0.  0.
     999903    2    3    3    0    0  0.79243773326E-02 -0.11259649170E+00 -0.67812138978E-01  0.13314547291E+00  0.19709517091E-01 0.  0.
         14    1    1    2    0    0 -0.64364243838E-02  0.21017246703E-01  0.99873030248E-02  0.24143289741E-01  0.00000000000E+00 0. -1.
     999901    1    3    3    0    0 -0.14879529488E-02  0.91579244997E-01  0.57824835953E-01  0.88664123735E+00  0.88000000000E+00 0.  1.
        -11    1    4    4    0    0 -0.65952148888E-02 -0.30793219233E-01 -0.18162711761E-01  0.36357453565E-01  0.51100000000E-03 0.  1.
         11    1    4    4    0    0  0.14519592221E-01 -0.81803272466E-01 -0.49649427217E-01  0.96788019344E-01  0.51100000000E-03 0. -1.
</event>
<event>
 8    1  0.1122848E+005  0.1043930E+01  0.7957747E-01            NaN
         13   -1    0    0    0    0  0.00000000000E+00  0.00000000000E+00  0.74505805969E-08  0.10566000000E+00  0.10566000000E+00 0. -1.
     999900   -1    0    0    0    0 -0.00000000000E+00 -0.00000000000E+00 -0.74505805969E-08  0.93827000000E+00  0.93827000000E+00 0. -1.
     999902    2    1    2    0    0 -0.18119014172E-01 -0.75340695559E-02 -0.13329755950E-01  0.10202077895E+01  0.10199319538E+01 0.  0.
     999903    2    3    3    0    0 -0.35369492870E-01 -0.81511508698E-01 -0.95823955335E-01  0.13309137465E+00  0.25218178239E-01 0.  0.
         14    1    1    2    0    0  0.18119014172E-01  0.75340695559E-02  0.13329755950E-01  0.23722210528E-01  0.00000000000E+00 0.  1.
     999901    1    3    3    0    0  0.17250478698E-01  0.73977439142E-01  0.82494199386E-01  0.88711641482E+00  0.88000000000E+00 0.  1.
        -11    1    4    4    0    0 -0.22697008735E-01 -0.54924845266E-01 -0.79979228909E-01  0.99643519663E-01  0.51100000000E-03 0. -1.
         11    1    4    4    0    0 -0.12672484135E-01 -0.26586663432E-01 -0.15844726426E-01  0.33447854985E-01  0.51100000000E-03 0.  1.
</event>
<event>
 8    1  0.1122848E+005  0.1043930E+01  0.7957747E-01            NaN
         13   -1    0    0    0    0  0.00000000000E+00  0.00000000000E+00  0.74505805969E-08  0.10566000000E+00  0.10566000000E+00 0. -1.
     999900   -1    0    0    0    0 -0.00000000000E+00 -0.00000000000E+00 -0.74505805969E-08  0.93827000000E+00  0.93827000000E+00 0. -1.
     999902    2    1    2    0    0  0.45419344537E-02 -0.20308331980E-01  0.11475879894E-01  0.10201654605E+01  0.10198886280E+01 0.  0.
     999903    2    3    3    0    0 -0.29768373359E-02  0.25715457807E-01  0.12673431757E+00  0.13142521243E+00  0.23256243904E-01 0.  0.
         14    1    1    2    0    0 -0.45419344537E-02  0.20308331980E-01 -0.11475879894E-01  0.23764539460E-01  0.00000000000E+00 0.  1.
     999901    1    3    3    0    0  0.75187717896E-02 -0.46023789787E-01 -0.11525843768E+00  0.88874024811E+00  0.88000000000E+00 0. -1.
        -11    1    4    4    0    0 -0.10745580128E-01  0.22261690629E-01  0.74356922418E-01  0.78359832787E-01  0.51100000000E-03 0.  1.
         11    1    4    4    0    0  0.77687427924E-02  0.34537671779E-02  0.52377395155E-01  0.53065379642E-01  0.51100000000E-03 0. -1.
</event>
<event>
 7    1  0.1122848E+005  0.1043930E+01  0.7957747E-01            NaN
         13   -1    0    0    0    0  0.00000000000E+00  0.00000000000E+00  0.74505805969E-08  0.10566000000E+00  0.10566000000E+00 0.  1.
     999900   -1    0    0    0    0 -0.00000000000E+00 -0.00000000000E+00 -0.74505805969E-08  0.93827000000E+00  0.93827000000E+00 0. -1.
     999902    2    1    2    0    0  0.70112519566E-02 -0.15139242264E-02 -0.22229678946E-01  0.10205717414E+01  0.10203044012E+01 0.  0.
         14    1    1    2    0    0 -0.70112519566E-02  0.15139242264E-02  0.22229678946E-01  0.23358258638E-01  0.00000000000E+00 0.  1.
     999901    1    3    3    0    0  0.70766430372E-01 -0.10188919655E+00 -0.10381686906E-02  0.88870150998E+00  0.88000000000E+00 0. -1.
        -11    1    3    3    0    0 -0.18233855014E-01  0.22349132247E-01  0.17341898679E-01  0.33659467489E-01  0.51100000000E-03 0.  1.
         11    1    3    3    0    0 -0.45521323401E-01  0.78026140079E-01 -0.38533408935E-01  0.98210763895E-01  0.51100000000E-03 0. -1.
</event>
<event>
 8    1  0.1122848E+005  0.1043930E+01  0.7957747E-01            NaN
         13   -1    0    0    0    0  0.00000000000E+00  0.00000000000E+00  0.74505805969E-08  0.10566000000E+00  0.10566000000E+00 0. -1.
     999900   -1    0    0    0    0 -0.00000000000E+00 -0.00000000000E+00 -0.74505805969E-08  0.93827000000E+00  0.93827000000E+00 0.  1.
     999902    2    1    2    0    0 -0.37329316971E-02 -0.19602493358E-01  0.15915589394E-01  0.10184055311E+01  0.10180856189E+01 0.  0.
     999903    2    3    3    0    0 -0.48713357660E-01  0.45936139150E-01  0.10970226374E+00  0.12985925133E+00  0.18593504014E-01 0.  0.
         14    1    1    2    0    0  0.37329316971E-02  0.19602493358E-01 -0.15915589394E-01  0.25524468862E-01  0.00000000000E+00 0.  1.
     999901    1    3    3    0    0  0.44980425963E-01 -0.65538632508E-01 -0.93786674350E-01  0.88854627981E+00  0.88000000000E+00 0.  1.
        -11    1    4    4    0    0 -0.29495493325E-01  0.21865484567E-01  0.74661327378E-01  0.83202514798E-01  0.51100000000E-03 0. -1.
         11    1    4    4    0    0 -0.19217864336E-01  0.24070654583E-01  0.35040936366E-01  0.46656736535E-01  0.51100000000E-03 0.  1.
</event>
<event>
 8    1  0.1122848E+005  0.1043930E+01  0.7957747E-01            NaN
         13   -1    0    0    0    0  0.00000000000E+00  0.00000000000E+00  0.74505805969E-08  0.10566000000E+00  0.10566000000E+00 0. -1.
     999900   -1    0    0    0    0 -0.00000000000E+00 -0.00000000000E+00 -0.74505805969E-08  0.93827000000E+00  0.93827000000E+00 0.  1.
     999902    2    1    2    0    0 -0.10466715996E-01  0.19377969203E-01 -0.76075974223E-02  0.10206290693E+01  0.10203630548E+01 0.  0.
     999903    2    3    3    0    0  0.21387510189E-01  0.12563182277E+00  0.31305511824E-01  0.13281219447E+00  0.20451489996E-01 0.  0.
         14    1    1    2    0    0  0.10466715996E-01 -0.19377969203E-01  0.76075974223E-02  0.23300930726E-01  0.00000000000E+00 0.  1.
     999901    1    3    3    0    0 -0.31854226185E-01 -0.10625385357E+00 -0.38913109246E-01  0.88781687481E+00  0.88000000000E+00 0.  1.
        -11    1    4    4    0    0  0.71770454535E-02  0.16548024804E-01  0.10430592731E-01  0.20842396505E-01  0.51100000000E-03 0. -1.
         11    1    4    4    0    0  0.14210464736E-01  0.10908379797E+00  0.20874919093E-01  0.11196979796E+00  0.51100000000E-03 0.  1.
</event>
<event>
 8    1  0.1122848E+005  0.1043930E+01  0.7957747E-01            NaN
         13   -1    0    0    0    0  0.00000000000E+00  0.00000000000E+00  0.74505805969E-08  0.10566000000E+00  0.10566000000E+00 0. -1.
     999900   -1    0    0    0    0 -0.00000000000E+00 -0.00000000000E+00 -0.74505805969E-08  0.93827000000E+00  0.93827000000E+00 0. -1.
     999902    2    1    2    0    0  0.19087159000E-01  0.55501159735E-03  0.12773631928E-01  0.10209562465E+01  0.10206977339E+01 0.  0.
     999903    2    3    3    0    0  0.78912710284E-02  0.86197199424E-01 -0.95093274407E-01  0.13017277017E+00  0.20248207570E-01 0.  0.
         14    1    1    2    0    0 -0.19087159000E-01 -0.55501159735E-03 -0.12773631928E-01  0.22973753485E-01  0.00000000000E+00 0.  1.
     999901    1    3    3    0    0  0.11195887972E-01 -0.85642187826E-01  0.10786690634E+00  0.89078347634E+00  0.88000000000E+00 0.  1.
        -11    1    4    4    0    0  0.73898535191E-02  0.39254242989E-01 -0.30203600611E-01  0.50080177102E-01  0.51100000000E-03 0. -1.
         11    1    4    4    0    0  0.50141750935E-03  0.46942956435E-01 -0.64889673796E-01  0.80092593070E-01  0.51100000000E-03 0.  1.
</event>
<event>
 8    1  0.1122848E+005  0.1043930E+01  0.7957747E-01            NaN
         13   -1    0    0    0    0  0.00000000000E+00  0.00000000000E+00  0.74505805969E-08  0.10566000000E+00  0.10566000000E+00 0.  1.
     999900   -1    0    0    0    0 -0.00000000000E+00 -0.00000000000E+00 -0.74505805969E-08  0.93827000000E+00  0.93827000000E+00 0.  1.
     999902    2    1    2    0    0  0.28680023959E-02 -0.15605271831E-01 -0.17509167775E-01  0.10203011849E+01  0.10200275423E+01 0.  0.
     999903    2    3    3    0    0  0.10568795040E+00  0.45829207599E-01 -0.59592574045E-01  0.13119087113E+00  0.19736024414E-01 0.  0.
         14    1    1    2    0    0 -0.28680023959E-02  0.15605271831E-01  0.17509167775E-01  0.23628815096E-01  0.00000000000E+00 0.  1.
     999901    1    3    3    0    0 -0.10281994800E+00 -0.61434479429E-01  0.42083406270E-01  0.88911031377E+00  0.88000000000E+00 0. -1.
        -11    1    4    4    0    0  0.47486857401E-01  0.30659325344E-01 -0.25034517314E-01  0.61822196940E-01  0.51100000000E-03 0.  1.
         11    1    4    4    0    0  0.58201092994E-01  0.15169882254E-01 -0.34558056732E-01  0.69368674194E-01  0.51100000000E-03 0. -1.
</event>
<event>
 8    1  0.1122848E+005  0.1043930E+01  0.7957747E-01            NaN
         13   -1    0    0    0    0  0.00000000000E+00  0.00000000000E+00  0.74505805969E-08  0.10566000000E+00  0.10566000000E+00 0. -1.
     999900   -1    0    0    0    0 -0.00000000000E+00 -0.00000000000E+00 -0.74505805969E-08  0.93827000000E+00  0.93827000000E+00 0. -1.
     999902    2    1    2    0    0 -0.99458041908E-02 -0.14760943965E-01 -0.14449465343E-01  0.10210042168E+01  0.10207467948E+01 0.  0.
     999903    2    3    3    0    0 -0.12237184853E+00 -0.43409493698E-01 -0.25085012601E-01  0.13332551943E+00  0.16946469233E-01 0.  0.
         14    1    1    2    0    0  0.99458041908E-02  0.14760943965E-01  0.14449465343E-01  0.22925783224E-01  0.00000000000E+00 0. -1.
     999901    1    3    3    0    0  0.11242604434E+00  0.28648549733E-01  0.10635547257E-01  0.88767869734E+00  0.88000000000E+00 0. -1.
        -11    1    4    4    0    0 -0.43343366280E-01 -0.74442021509E-02 -0.11296977823E-01  0.45408659693E-01  0.51100000000E-03 0.  1.
         11    1    4    4    0    0 -0.79028482250E-01 -0.35965291547E-01 -0.13788034777E-01  0.87916859742E-01  0.51100000000E-03 0. -1.
</event>
<event>
 8    1  0.1122848E+005  0.1043930E+01  0.7957747E-01            NaN
         13   -1    0    0    0    0  0.00000000000E+00  0.00000000000E+00  0.74505805969E-08  0.10566000000E+00  0.10566000000E+00 0. -1.
     999900   -1    0    0    0    0 -0.00000000000E+00 -0.00000000000E+00 -0.74505805969E-08  0.93827000000E+00  0.93827000000E+00 0. -1.
     999902    2    1    2    0    0  0.22558895822E-01  0.43484347341E-02  0.73341188013E-02  0.10198135748E+01  0.10195283838E+01 0.  0.
     999903    2    3    3    0    0  0.66543254535E-01 -0.52543437499E-01  0.99240716458E-01  0.13210972125E+00  0.20382372204E-01 0.  0.
         14    1    1    2    0    0 -0.22558895822E-01 -0.43484347341E-02 -0.73341188013E-02  0.24116425189E-01  0.00000000000E+00 0.  1.
     999901    1    3    3    0    0 -0.43984358713E-01  0.56891872234E-01 -0.91906597657E-01  0.88770385356E+00  0.88000000000E+00 0.  1.
        -11    1    4    4    0    0  0.50621887323E-01 -0.27765385671E-01  0.64923875538E-01  0.86884192196E-01  0.51100000000E-03 0. -1.
         11    1    4    4    0    0  0.15921367212E-01 -0.24778051828E-01  0.34316840920E-01  0.45225529052E-01  0.51100000000E-03 0.  1.
</event>
<event>
 8    1  0.1122848E+005  0.1043930E+01  0.7957747E-01            NaN
         13   -1    0    0    0    0  0.00000000000E+00  0.00000000000E+00  0.74505805969E-08  0.10566000000E+00  0.10566000000E+00 0.  1.
     999900   -1    0    0    0    0 -0.00000000000E+00 -0.00000000000E+00 -0.74505805969E-08  0.93827000000E+00  0.93827000000E+00 0. -1.
     999902    2    1    2    0    0 -0.21084545163E-01  0.48969417728E-02 -0.10550141896E-01  0.10198500586E+01  0.10195657401E+01 0.  0.
     999903    2    3    3    0    0  0.42645418587E-01 -0.11853711416E+00  0.17396218415E-01  0.12851483912E+00  0.18540666109E-01 0.  0.
         14    1    1    2    0    0  0.21084545163E-01 -0.48969417728E-02  0.10550141896E-01  0.24079941393E-01  0.00000000000E+00 0.  1.
     999901    1    3    3    0    0 -0.63729963749E-01  0.12343405593E+00 -0.27946360311E-01  0.89133521949E+00  0.88000000000E+00 0. -1.
        -11    1    4    4    0    0  0.26062382018E-01 -0.94255511415E-01  0.10917310058E-01  0.98401209182E-01  0.51100000000E-03 0.  1.
         11    1    4    4    0    0  0.16583036568E-01 -0.24281602743E-01  0.64789083568E-02  0.30113629938E-01  0.51100000000E-03 0. -1.
</event>
<event>
 8    1  0.1122848E+005  0.1043930E+01  0.7957747E-01            NaN
         13   -1    0    0    0    0  0.00000000000E+00  0.00000000000E+00  0.74505805969E-08  0.10566000000E+00  0.10566000000E+00 0.  1.
     999900   -1    0    0    0    0 -0.00000000000E+00 -0.00000000000E+00 -0.74505805969E-08  0.93827000000E+00  0.93827000000E+00 0. -1.
     999902    2    1    2    0    0  0.17624056745E-01  0.17725434651E-02  0.16548883201E-01  0.10196892322E+01  0.10194010572E+01 0.  0.
     999903    2    3    3    0    0  0.11221840239E+00 -0.66133194352E-01  0.72975609009E-02  0.13197032041E+00  0.19908335999E-01 0.  0.
         14    1    1    2    0    0 -0.17624056745E-01 -0.17725434651E-02 -0.16548883201E-01  0.24240767762E-01  0.00000000000E+00 0.  1.
     999901    1    3    3    0    0 -0.94594345650E-01  0.67905737817E-01  0.92513223005E-02  0.88771891183E+00  0.88000000000E+00 0. -1.
        -11    1    4    4    0    0  0.38854818683E-01 -0.22844063006E-01  0.12033234976E-01  0.46654131805E-01  0.51100000000E-03 0. -1.
         11    1    4    4    0    0  0.73363583711E-01 -0.43289131346E-01 -0.47356740755E-02  0.85316188602E-01  0.51100000000E-03 0.  1.
</event>
<event>
 8    1  0.1122848E+005  0.1043930E+01  0.7957747E-01            NaN
         13   -1    0    0    0    0  0.00000000000E+00  0.00000000000E+00  0.74505805969E-08  0.10566000000E+00  0.10566000000E+00 0.  1.
     999900   -1    0    0    0    0 -0.00000000000E+00 -0.00000000000E+00 -0.74505805969E-08  0.93827000000E+00  0.93827000000E+00 0. -1.
     999902    2    1    2    0    0 -0.80270116714E-02 -0.20629315588E-01 -0.37500962503E-03  0.10217908444E+01  0.10215509716E+01 0.  0.
     999903    2    3    3    0    0  0.22528456233E-01 -0.10083234910E+00  0.82282552326E-01  0.13376019418E+00  0.21134738308E-01 0.  0.
         14    1    1    2    0    0  0.80270116714E-02  0.20629315588E-01  0.37500962503E-03  0.22139155589E-01  0.00000000000E+00 0.  1.
     999901    1    3    3    0    0 -0.30555467904E-01  0.80203033517E-01 -0.82657561951E-01  0.88803065023E+00  0.88000000000E+00 0. -1.
        -11    1    4    4    0    0  0.14663583746E-01 -0.74515669381E-01  0.48060642973E-01  0.89875982307E-01  0.51100000000E-03 0.  1.
         11    1    4    4    0    0  0.78648724868E-02 -0.26316679723E-01  0.34221909353E-01  0.43884211872E-01  0.51100000000E-03 0. -1.
</event>
<event>
 8    1  0.1122848E+005  0.1043930E+01  0.7957747E-01            NaN
         13   -1    0    0    0    0  0.00000000000E+00  0.00000000000E+00  0.74505805969E-08  0.10566000000E+00  0.10566000000E+00 0.  1.
     999900   -1    0    0    0    0 -0.00000000000E+00 -0.00000000000E+00 -0.74505805969E-08  0.93827000000E+00  0.93827000000E+00 0. -1.
     999902    2    1    2    0    0 -0.21792154098E-01  0.72212023859E-03 -0.73878803397E-02  0.10209082665E+01  0.10206486606E+01 0.  0.
     999903    2    3    3    0    0  0.38638328305E-02  0.82098596904E-01  0.99283286819E-01  0.13036961010E+00  0.19594779375E-01 0.  0.
         14    1    1    2    0    0  0.21792154098E-01 -0.72212023859E-03  0.73878803397E-02  0.23021733510E-01  0.00000000000E+00 0.  1.
     999901    1    3    3    0    0 -0.25655986929E-01 -0.81376476665E-01 -0.10667116716E+00  0.89053865639E+00  0.88000000000E+00 0. -1.
        -11    1    4    4    0    0  0.11779765748E-01  0.42469846769E-01  0.51354022864E-01  0.67675309759E-01  0.51100000000E-03 0. -1.
         11    1    4    4    0    0 -0.79159329172E-02  0.39628750135E-01  0.47929263955E-01  0.62694300343E-01  0.51100000000E-03 0.  1.
</event>
<event>
 8    1  0.1122848E+005  0.1043930E+01  0.7957747E-01            NaN
         13   -1    0    0    0    0  0.00000000000E+00  0.00000000000E+00  0.74505805969E-08  0.10566000000E+00  0.10566000000E+00 0.  1.
     999900   -1    0    0    0    0 -0.00000000000E+00 -0.00000000000E+00 -0.74505805969E-08  0.93827000000E+00  0.93827000000E+00 0.  1.
     999902    2    1    2    0    0  0.13721059316E-01  0.14799182068E-01 -0.12229415804E-01  0.10203325029E+01  0.10200595936E+01 0.  0.
     999903    2    3    3    0    0 -0.24621879724E-01  0.11822648973E+00  0.47952297418E-01  0.13140661872E+00  0.19609609439E-01 0.  0.
         14    1    1    2    0    0 -0.13721059316E-01 -0.14799182068E-01  0.12229415804E-01  0.23597497104E-01  0.00000000000E+00 0.  1.
     999901    1    3    3    0    0  0.38342939040E-01 -0.10342730766E+00 -0.60181713222E-01  0.88892588417E+00  0.88000000000E+00 0.  1.
        -11    1    4    4    0    0 -0.14873845560E-01  0.30801931692E-01  0.16548663986E-01  0.38001443110E-01  0.51100000000E-03 0.  1.
         11    1    4    4    0    0 -0.97480341637E-02  0.87424558036E-01  0.31403633432E-01  0.93405175614E-01  0.51100000000E-03 0. -1.
</event>
<event>
 8    1  0.1122848E+005  0.1043930E+01  0.7957747E-01            NaN
         13   -1    0    0    0    0  0.00000000000E+00  0.00000000000E+00  0.74505805969E-08  0.10566000000E+00  0.10566000000E+00 0.  1.
     999900   -1    0    0    0    0 -0.00000000000E+00 -0.00000000000E+00 -0.74505805969E-08  0.93827000000E+00  0.93827000000E+00 0.  1.
     999902    2    1    2    0    0  0.13624702625E-02  0.15227727697E-01  0.18460437884E-01  0.10199606908E+01  0.10196790098E+01 0.  0.
     999903    2    3    3    0    0  0.30628057651E-02 -0.12623832147E+00 -0.10404425828E-01  0.12819350451E+00  0.19489174861E-01 0.  0.
         14    1    1    2    0    0 -0.13624702625E-02 -0.15227727697E-01 -0.18460437884E-01  0.23969309187E-01  0.00000000000E+00 0. -1.
     999901    1    3    3    0    0 -0.17003355025E-02  0.14146604916E+00  0.28864863712E-01  0.89176718630E+00  0.88000000000E+00 0. -1.
        -11    1    4    4    0    0  0.91610127159E-02 -0.79399542294E-01 -0.50013362943E-03  0.79929485955E-01  0.51100000000E-03 0. -1.
         11    1    4    4    0    0 -0.60982069508E-02 -0.46838779172E-01 -0.99042921981E-02  0.48264018557E-01  0.51100000000E-03 0.  1.
</event>
<event>
 8    1  0.1122848E+005  0.1043930E+01  0.7957747E-01            NaN
         13   -1    0    0    0    0  0.00000000000E+00  0.00000000000E+00  0.74505805969E-08  0.10566000000E+00  0.10566000000E+00 0. -1.
     999900   -1    0    0    0    0 -0.00000000000E+00 -0.00000000000E+00 -0.74505805969E-08  0.93827000000E+00  0.93827000000E+00 0. -1.
     999902    2    1    2    0    0  0.65163253873E-02  0.20184522759E-01  0.10644713138E-01  0.10201984309E+01  0.10199223750E+01 0.  0.
     999903    2    3    3    0    0  0.75710895589E-01 -0.95744716658E-01 -0.33626864277E-01  0.12880208263E+00  0.23664741892E-01 0.  0.
         14    1    1    2    0    0 -0.65163253873E-02 -0.20184522759E-01 -0.10644713138E-01  0.23731569129E-01  0.00000000000E+00 0.  1.
     999901    1    3    3    0    0 -0.69194570202E-01  0.11592923942E+00  0.44271577415E-01  0.89139634824E+00  0.88000000000E+00 0. -1.
        -11    1    4    4    0    0  0.20831743316E-01 -0.36284051807E-01 -0.18926674187E-02  0.41884809372E-01  0.51100000000E-03 0.  1.
         11    1    4    4    0    0  0.54879152273E-01 -0.59460664851E-01 -0.31734196859E-01  0.86917273254E-01  0.51100000000E-03 0. -1.
</event>
<event>
 8    1  0.1122848E+005  0.1043930E+01  0.7957747E-01            NaN
         13   -1    0    0    0    0  0.00000000000E+00  0.00000000000E+00  0.74505805969E-08  0.10566000000E+00  0.10566000000E+00 0.  1.
     999900   -1    0    0    0    0 -0.00000000000E+00 -0.00000000000E+00 -0.74505805969E-08  0.93827000000E+00  0.93827000000E+00 0.  1.
     999902    2    1    2    0    0 -0.17625889106E-01  0.15059128692E-01  0.75668463359E-03  0.10207347010E+01  0.10204711206E+01 0.  0.
     999903    2    3    3    0    0  0.83103156405E-01  0.84302864900E-01  0.52024907784E-01  0.13080803756E+00  0.19774833118E-01 0.  0.
         14    1    1    2    0    0  0.17625889106E-01 -0.15059128692E-01 -0.75668463359E-03  0.23195298993E-01  0.00000000000E+00 0.  1.
     999901    1    3    3    0    0 -0.10072904551E+00 -0.69243736208E-01 -0.51268223151E-01  0.88992666345E+00  0.88000000000E+00 0. -1.
        -11    1    4    4    0    0  0.24228168730E-01  0.38070735679E-01  0.18185934469E-01  0.48655671906E-01  0.51100000000E-03 0. -1.
         11    1    4    4    0    0  0.58874987675E-01  0.46232129221E-01  0.33838973316E-01  0.82152365651E-01  0.51100000000E-03 0.  1.
</event>
<event>
 8    1  0.1122848E+005  0.1043930E+01  0.7957747E-01            NaN
         13   -1    0    0    0    0  0.00000000000E+00  0.00000000000E+00  0.74505805969E-08  0.10566000000E+00  0.10566000000E+00 0. -1.
     999900   -1    0    0    0    0 -0.00000000000E+00 -0.00000000000E+00 -0.74505805969E-08  0.93827000000E+00  0.93827000000E+00 0. -1.
     999902    2    1    2    0    0 -0.12215721732E-01 -0.82911644451E-02 -0.19329718694E-01  0.10196070625E+01  0.10193169068E+01 0.  0.
     999903    2    3    3    0    0  0.11872970395E+00 -0.59155749820E-02  0.41763944787E-01  0.12781965302E+00  0.21491858636E-01 0.  0.
         14    1    1    2    0    0  0.12215721732E-01  0.82911644451E-02  0.19329718694E-01  0.24322937530E-01  0.00000000000E+00 0. -1.
     999901    1    3    3    0    0 -0.13094542568E+00 -0.23755894632E-02 -0.61093663482E-01  0.89178740945E+00  0.88000000000E+00 0.  1.
        -11    1    4    4    0    0  0.10067635565E+00 -0.45381319113E-02  0.26688650425E-01  0.10425386521E+00  0.51100000000E-03 0.  1.
         11    1    4    4    0    0  0.18053348293E-01 -0.13774430706E-02  0.15075294362E-01  0.23565787810E-01  0.51100000000E-03 0. -1.
</event>
<event>
 8    1  0.1122848E+005  0.1043930E+01  0.7957747E-01            NaN
         13   -1    0    0    0    0  0.00000000000E+00  0.00000000000E+00  0.74505805969E-08  0.10566000000E+00  0.10566000000E+00 0. -1.
     999900   -1    0    0    0    0 -0.00000000000E+00 -0.00000000000E+00 -0.74505805969E-08  0.93827000000E+00  0.93827000000E+00 0.  1.
     999902    2    1    2    0    0 -0.12443610852E-01 -0.80903730906E-02 -0.13130559278E-01  0.10241131089E+01  0.10239213596E+01 0.  0.
     999903    2    3    3    0    0  0.58398308126E-01  0.86628761340E-01 -0.80905056105E-01  0.13361680098E+00  0.19822126980E-01 0.  0.
         14    1    1    2    0    0  0.12443610852E-01  0.80903730906E-02  0.13130559278E-01  0.19816891147E-01  0.00000000000E+00 0. -1.
     999901    1    3    3    0    0 -0.70841918978E-01 -0.94719134431E-01  0.67774496826E-01  0.89049630787E+00  0.88000000000E+00 0. -1.
        -11    1    4    4    0    0  0.20424231517E-01  0.30729366546E-01 -0.17083046520E-01  0.40663679135E-01  0.51100000000E-03 0.  1.
         11    1    4    4    0    0  0.37974076609E-01  0.55899394794E-01 -0.63822009585E-01  0.92953121847E-01  0.51100000000E-03 0. -1.
</event>
<event>
 8    1  0.1122848E+005  0.1043930E+01  0.7957747E-01            NaN
         13   -1    0    0    0    0  0.00000000000E+00  0.00000000000E+00  0.74505805969E-08  0.10566000000E+00  0.10566000000E+00 0.  1.
     999900   -1    0    0    0    0 -0.00000000000E+00 -0.00000000000E+00 -0.74505805969E-08  0.93827000000E+00  0.93827000000E+00 0.  1.
     999902    2    1    2    0    0 -0.11613427682E-01 -0.23615561297E-01  0.21203635970E-01  0.10101341331E+01  0.10095686239E+01 0.  0.
     999903    2    3    3    0    0 -0.84126707900E-01  0.69656930340E-01  0.49656539026E-01  0.12178313203E+00  0.20879857554E-01 0.  0.
         14    1    1    2    0    0  0.11613427682E-01  0.23615561297E-01 -0.21203635970E-01  0.33795866852E-01  0.00000000000E+00 0. -1.
     999901    1    3    3    0    0  0.72513280218E-01 -0.93272491637E-01 -0.28452903055E-01  0.88835100112E+00  0.88000000000E+00 0.  1.
        -11    1    4    4    0    0 -0.37557958310E-01  0.36220765360E-01  0.34252999081E-01  0.62418532046E-01  0.51100000000E-03 0. -1.
         11    1    4    4    0    0 -0.46568749590E-01  0.33436164980E-01  0.15403539945E-01  0.59364599980E-01  0.51100000000E-03 0.  1.
</event>
<event>
 8    1  0.1122848E+005  0.1043930E+01  0.7957747E-01            NaN
         13   -1    0    0    0    0  0.00000000000E+00  0.00000000000E+00  0.74505805969E-08  0.10566000000E+00  0.10566000000E+00 0.  1.
     999900   -1    0    0    0    0 -0.00000000000E+00 -0.00000000000E+00 -0.74505805969E-08  0.93827000000E+00  0.93827000000E+00 0.  1.
     999902    2    1    2    0    0 -0.10440063621E-01 -0.21754384585E-01 -0.40823957170E-02  0.10194572778E+01  0.10191634938E+01 0.  0.
     999903    2    3    3    0    0  0.85841550797E-01 -0.81637471297E-01  0.50904654700E-01  0.13048050135E+00  0.20010717126E-01 0.  0.
         14    1    1    2    0    0  0.10440063621E-01  0.21754384585E-01  0.40823957170E-02  0.24472722200E-01  0.00000000000E+00 0. -1.
     999901    1    3    3    0    0 -0.96281614418E-01  0.59883086712E-01 -0.54987050417E-01  0.88897677645E+00  0.88000000000E+00 0.  1.
        -11    1    4    4    0    0  0.66170214484E-01 -0.67120604574E-01  0.31886253747E-01  0.99502096170E-01  0.51100000000E-03 0.  1.
         11    1    4    4    0    0  0.19671336314E-01 -0.14516866723E-01  0.19018400953E-01  0.30978405182E-01  0.51100000000E-03 0. -1.
</event>
<event>
 8    1  0.1122848E+005  0.1043930E+01  0.7957747E-01            NaN
         13   -1    0    0    0    0  0.00000000000E+00  0.00000000000E+00  0.74505805969E-08  0.10566000000E+00  0.10566000000E+00 0. -1.
     999900   -1    0    0    0    0 -0.00000000000E+00 -0.00000000000E+00 -0.74505805969E-08  0.93827000000E+00  0.93827000000E+00 0.  1.
     999902    2    1    2    0    0 -0.83697133150E-02  0.93120065789E-02  0.96752934519E-02  0.10281066985E+01  0.10279849253E+01 0.  0.
     999903    2    3    3    0    0 -0.91333784216E-01  0.58235938038E-01  0.85622614898E-01  0.13959975773E+00  0.20580951347E-01 0.  0.
         14    1    1    2    0    0  0.83697133150E-02 -0.93120065789E-02 -0.96752934519E-02  0.15823301516E-01  0.00000000000E+00 0.  1.
     999901    1    3    3    0    0  0.82964070901E-01 -0.48923931459E-01 -0.75947321446E-01  0.88850694075E+00  0.88000000000E+00 0.  1.
        -11    1    4    4    0    0 -0.15349683544E-01  0.16482678941E-02  0.10314304229E-01  0.18573517833E-01  0.51100000000E-03 0. -1.
         11    1    4    4    0    0 -0.75984100672E-01  0.56587670143E-01  0.75308310669E-01  0.12102623990E+00  0.51100000000E-03 0.  1.
</event>
<event>
 8    1  0.1122848E+005  0.1043930E+01  0.7957747E-01            NaN
         13   -1    0    0    0    0  0.00000000000E+00  0.00000000000E+00  0.74505805969E-08  0.10566000000E+00  0.10566000000E+00 0.  1.
     999900   -1    0    0    0    0 -0.00000000000E+00 -0.00000000000E+00 -0.74505805969E-08  0.93827000000E+00  0.93827000000E+00 0.  1.
     999902    2    1    2    0    0 -0.13864494210E-01  0.90822268293E-02  0.17336777411E-01  0.10199451111E+01  0.10196630594E+01 0.  0.
     999903    2    3    3    0    0 -0.12062995953E+00 -0.41276387064E-01 -0.23822761350E-01  0.13110937702E+00  0.19152480715E-01 0.  0.
         14    1    1    2    0    0  0.13864494210E-01 -0.90822268293E-02 -0.17336777411E-01  0.23984888886E-01  0.00000000000E+00 0. -1.
     999901    1    3    3    0    0  0.10676546532E+00  0.50358613893E-01  0.41159538762E-01  0.88883573410E+00  0.88000000000E+00 0. -1.
        -11    1    4    4    0    0 -0.66217465474E-01 -0.23111489161E-01 -0.22744815798E-01  0.73732499156E-01  0.51100000000E-03 0.  1.
         11    1    4    4    0    0 -0.54412494057E-01 -0.18164897903E-01 -0.10779455517E-02  0.57376877860E-01  0.51100000000E-03 0. -1.
</event>
<event>
 8    1  0.1122848E+005  0.1043930E+01  0.7957747E-01            NaN
         13   -1    0    0    0    0  0.00000000000E+00  0.00000000000E+00  0.74505805969E-08  0.10566000000E+00  0.10566000000E+00 0. -1.
     999900   -1    0    0    0    0 -0.00000000000E+00 -0.00000000000E+00 -0.74505805969E-08  0.93827000000E+00  0.93827000000E+00 0. -1.
     999902    2    1    2    0    0  0.92416402748E-02  0.21639421823E-01  0.53034321779E-02  0.10198094924E+01  0.10195242037E+01 0.  0.
     999903    2    3    3    0    0  0.62995332789E-01  0.90823705842E-01 -0.70164992780E-01  0.13224461719E+00  0.18658913925E-01 0.  0.
         14    1    1    2    0    0 -0.92416402748E-02 -0.21639421823E-01 -0.53034321779E-02  0.24120507554E-01  0.00000000000E+00 0.  1.
     999901    1    3    3    0    0 -0.53753692514E-01 -0.69184284019E-01  0.75468424958E-01  0.88756487525E+00  0.88000000000E+00 0.  1.
        -11    1    4    4    0    0  0.12309676435E-01  0.21609176743E-01 -0.74195861287E-02  0.25957581412E-01  0.51100000000E-03 0.  1.
         11    1    4    4    0    0  0.50685656354E-01  0.69214529099E-01 -0.62745406652E-01  0.10628703578E+00  0.51100000000E-03 0. -1.
</event>
<event>
 8    1  0.1122848E+005  0.1043930E+01  0.7957747E-01            NaN
         13   -1    0    0    0    0  0.00000000000E+00  0.00000000000E+00  0.74505805969E-08  0.10566000000E+00  0.10566000000E+00 0. -1.
     999900   -1    0    0    0    0 -0.00000000000E+00 -0.00000000000E+00 -0.74505805969E-08  0.93827000000E+00  0.93827000000E+00 0. -1.
     999902    2    1    2    0    0  0.75040642966E-02 -0.19929583697E-01 -0.89896142530E-02  0.10208148004E+01  0.10205530581E+01 0.  0.
     999903    2    3    3    0    0  0.10007469779E+00 -0.26401968810E-01 -0.81675299002E-01  0.13295533929E+00  0.17153969903E-01 0.  0.
         14    1    1    2    0    0 -0.75040642966E-02  0.19929583697E-01  0.89896142530E-02  0.23115199582E-01  0.00000000000E+00 0. -1.
     999901    1    3    3    0    0 -0.92570633490E-01  0.64723851127E-02  0.72685684749E-01  0.88785946113E+00  0.88000000000E+00 0.  1.
        -11    1    4    4    0    0  0.35065004725E-01 -0.69254586180E-02 -0.18563812579E-01  0.40278937323E-01  0.51100000000E-03 0.  1.
         11    1    4    4    0    0  0.65009693062E-01 -0.19476510192E-01 -0.63111486422E-01  0.92676401963E-01  0.51100000000E-03 0. -1.
</event>
<event>
 8    1  0.1122848E+005  0.1043930E+01  0.7957747E-01            NaN
         13   -1    0    0    0    0  0.00000000000E+00  0.00000000000E+00  0.74505805969E-08  0.10566000000E+00  0.10566000000E+00 0.  1.
     999900   -1    0    0    0    0 -0.00000000000E+00 -0.00000000000E+00 -0.74505805969E-08  0.93827000000E+00  0.93827000000E+00 0. -1.
     999902    2    1    2    0    0  0.30150628671E-03 -0.14888519080E-01  0.16640406812E-01  0.10215992578E+01  0.10213551692E+01 0.  0.
     999903    2    3    3    0    0 -0.81280728546E-01  0.82819976366E-01  0.58358847881E-01  0.13146272930E+00  0.20272857482E-01 0.  0.
         14    1    1    2    0    0 -0.30150628671E-03  0.14888519080E-01 -0.16640406812E-01  0.22330742157E-01  0.00000000000E+00 0. -1.
     999901    1    3    3    0    0  0.81582234833E-01 -0.97708495446E-01 -0.41718441069E-01  0.89013652854E+00  0.88000000000E+00 0. -1.
        -11    1    4    4    0    0 -0.52494071921E-01  0.57571700183E-01  0.49006167770E-01  0.92043434580E-01  0.51100000000E-03 0.  1.
         11    1    4    4    0    0 -0.28786656625E-01  0.25248276183E-01  0.93526801108E-02  0.39419294718E-01  0.51100000000E-03 0. -1.
</event>
<event>
 8    1  0.1122848E+005  0.1043930E+01  0.7957747E-01            NaN
         13   -1    0    0    0    0  0.00000000000E+00  0.00000000000E+00  0.74505805969E-08  0.10566000000E+00  0.10566000000E+00 0.  1.
     999900   -1    0    0    0    0 -0.00000000000E+00 -0.00000000000E+00 -0.74505805969E-08  0.93827000000E+00  0.93827000000E+00 0. -1.
     999902    2    1    2    0    0  0.22396362477E-01 -0.11154690495E-02  0.69053008337E-02  0.10204667414E+01  0.10201969642E+01 0.  0.
     999903    2    3    3    0    0 -0.11693265141E+00 -0.47071001114E-01  0.13615548659E-01  0.12829550648E+00  0.19632363753E-01 0.  0.
         14    1    1    2    0    0 -0.22396362477E-01  0.11154690495E-02 -0.69053008337E-02  0.23463258576E-01  0.00000000000E+00 0. -1.
     999901    1    3    3    0    0  0.13932901388E+00  0.45955532064E-01 -0.67102478256E-02  0.89217123494E+00  0.88000000000E+00 0.  1.
        -11    1    4    4    0    0 -0.64080305307E-02 -0.43293072515E-02 -0.36063903580E-02  0.85482705254E-02  0.51100000000E-03 0.  1.
         11    1    4    4    0    0 -0.11052462088E+00 -0.42741693862E-01  0.17221939017E-01  0.11974723595E+00  0.51100000000E-03 0. -1.
</event>
<event>
 8    1  0.1314653E+005  0.1043930E+01  0.7957747E-01            NaN
         13   -1    0    0    0    0  0.00000000000E+00  0.00000000000E+00  0.74505805969E-08  0.10566000000E+00  0.10566000000E+00 0. -1.
     999900   -1    0    0    0    0 -0.00000000000E+00 -0.00000000000E+00 -0.74505805969E-08  0.93827000000E+00  0.93827000000E+00 0. -1.
     999902    2    1    2    0    0  0.17688430000E-01 -0.14261740462E-01  0.95030702284E-02  0.10193010305E+01  0.10190034370E+01 0.  0.
     999903    2    3    3    0    0 -0.24622926138E-01  0.11017690754E+00 -0.55073741046E-01  0.12719935883E+00  0.20032984987E-01 0.  0.
         14    1    1    2    0    0 -0.17688430000E-01  0.14261740462E-01 -0.95030702284E-02  0.24628969541E-01  0.00000000000E+00 0.  1.
     999901    1    3    3    0    0  0.42311356137E-01 -0.12443864800E+00  0.64576811274E-01  0.89210167163E+00  0.88000000000E+00 0.  1.
        -11    1    4    4    0    0 -0.55795644588E-02  0.67362342215E-01 -0.28795995750E-01  0.73473037098E-01  0.51100000000E-03 0.  1.
         11    1    4    4    0    0 -0.19043361679E-01  0.42814565321E-01 -0.26277745296E-01  0.53726321729E-01  0.51100000000E-03 0. -1.
</event>
<event>
 8    1  0.1122848E+005  0.1043930E+01  0.7957747E-01            NaN
         13   -1    0    0    0    0  0.00000000000E+00  0.00000000000E+00  0.74505805969E-08  0.10566000000E+00  0.10566000000E+00 0.  1.
     999900   -1    0    0    0    0 -0.00000000000E+00 -0.00000000000E+00 -0.74505805969E-08  0.93827000000E+00  0.93827000000E+00 0. -1.
     999902    2    1    2    0    0  0.56571099699E-02  0.22334341259E-01 -0.45404433245E-02  0.10204472123E+01  0.10201769806E+01 0.  0.
     999903    2    3    3    0    0  0.86865357909E-01 -0.91249405523E-01  0.19785508798E-01  0.12910676162E+00  0.20125732906E-01 0.  0.
         14    1    1    2    0    0 -0.56571099699E-02 -0.22334341259E-01  0.45404433245E-02  0.23482787702E-01  0.00000000000E+00 0.  1.
     999901    1    3    3    0    0 -0.81208247940E-01  0.11358374678E+00 -0.24325952122E-01  0.89134045068E+00  0.88000000000E+00 0. -1.
        -11    1    4    4    0    0  0.36595011376E-01 -0.26409450316E-01  0.11948486206E-01  0.46687057812E-01  0.51100000000E-03 0. -1.
         11    1    4    4    0    0  0.50270346534E-01 -0.64839955207E-01  0.78370225919E-02  0.82419703809E-01  0.51100000000E-03 0.  1.
</event>
<event>
 8    1  0.1122848E+005  0.1043930E+01  0.7957747E-01            NaN
         13   -1    0    0    0    0  0.00000000000E+00  0.00000000000E+00  0.74505805969E-08  0.10566000000E+00  0.10566000000E+00 0.  1.
     999900   -1    0    0    0    0 -0.00000000000E+00 -0.00000000000E+00 -0.74505805969E-08  0.93827000000E+00  0.93827000000E+00 0.  1.
     999902    2    1    2    0    0 -0.14939064689E-01  0.32990300494E-02  0.17524118171E-01  0.10206672837E+01  0.10204021511E+01 0.  0.
     999903    2    3    3    0    0  0.61863784794E-01  0.10922721580E+00 -0.26638687825E-01  0.12989805898E+00  0.20153746510E-01 0.  0.
         14    1    1    2    0    0  0.14939064689E-01 -0.32990300494E-02 -0.17524118171E-01  0.23262716323E-01  0.00000000000E+00 0. -1.
     999901    1    3    3    0    0 -0.76802849483E-01 -0.10592818575E+00  0.44162805997E-01  0.89076922469E+00  0.88000000000E+00 0.  1.
        -11    1    4    4    0    0  0.54742759032E-01  0.92602674691E-01 -0.15589495150E-01  0.10869829118E+00  0.51100000000E-03 0. -1.
         11    1    4    4    0    0  0.71210257614E-02  0.16624541109E-01 -0.11049192676E-01  0.21199767800E-01  0.51100000000E-03 0.  1.
</event>
<event>
 8    1  0.1122848E+005  0.1043930E+01  0.7957747E-01            NaN
         13   -1    0    0    0    0  0.00000000000E+00  0.00000000000E+00  0.74505805969E-08  0.10566000000E+00  0.10566000000E+00 0.  1.
     999900   -1    0    0    0    0 -0.00000000000E+00 -0.00000000000E+00 -0.74505805969E-08  0.93827000000E+00  0.93827000000E+00 0.  1.
     999902    2    1    2    0    0 -0.21416054720E-01  0.10386587132E-01  0.14036711503E-02  0.10200867854E+01  0.10198080951E+01 0.  0.
     999903    2    3    3    0    0 -0.37601052873E-01  0.11454531181E+00  0.51039710055E-01  0.13240737788E+00  0.19803890528E-01 0.  0.
         14    1    1    2    0    0  0.21416054720E-01 -0.10386587132E-01 -0.14036711503E-02  0.23843214648E-01  0.00000000000E+00 0.  1.
     999901    1    3    3    0    0  0.16184998153E-01 -0.10415872468E+00 -0.49636038905E-01  0.88767940747E+00  0.88000000000E+00 0.  1.
        -11    1    4    4    0    0 -0.21515970781E-01  0.71691301342E-01  0.41714765520E-01  0.85691087460E-01  0.51100000000E-03 0.  1.
         11    1    4    4    0    0 -0.16085082092E-01  0.42854010468E-01  0.93249445355E-02  0.46716290421E-01  0.51100000000E-03 0. -1.
</event>
<event>
 8    1  0.1122848E+005  0.1043930E+01  0.7957747E-01            NaN
         13   -1    0    0    0    0  0.00000000000E+00  0.00000000000E+00  0.74505805969E-08  0.10566000000E+00  0.10566000000E+00 0. -1.
     999900   -1    0    0    0    0 -0.00000000000E+00 -0.00000000000E+00 -0.74505805969E-08  0.93827000000E+00  0.93827000000E+00 0. -1.
     999902    2    1    2    0    0  0.18077787607E-02  0.11207551466E-01 -0.19008501290E-01  0.10217895304E+01  0.10215496287E+01 0.  0.
     999903    2    3    3    0    0 -0.17523218959E-01 -0.11853786601E+00 -0.50568662118E-01  0.13150665141E+00  0.19455613497E-01 0.  0.
         14    1    1    2    0    0 -0.18077787607E-02 -0.11207551466E-01  0.19008501290E-01  0.22140469624E-01  0.00000000000E+00 0. -1.
     999901    1    3    3    0    0  0.19330997720E-01  0.12974541747E+00  0.31560160829E-01  0.89028287897E+00  0.88000000000E+00 0.  1.
        -11    1    4    4    0    0 -0.91041511543E-02 -0.50774755848E-01 -0.11568423428E-01  0.52868241329E-01  0.51100000000E-03 0. -1.
         11    1    4    4    0    0 -0.84190678050E-02 -0.67763110159E-01 -0.39000238691E-01  0.78638410081E-01  0.51100000000E-03 0.  1.
</event>
<event>
 8    1  0.1122848E+005  0.1043930E+01  0.7957747E-01            NaN
         13   -1    0    0    0    0  0.00000000000E+00  0.00000000000E+00  0.74505805969E-08  0.10566000000E+00  0.10566000000E+00 0.  1.
     999900   -1    0    0    0    0 -0.00000000000E+00 -0.00000000000E+00 -0.74505805969E-08  0.93827000000E+00  0.93827000000E+00 0.  1.
     999902    2    1    2    0    0 -0.24916357347E-02 -0.11541864473E-01 -0.21508384908E-01  0.10193936289E+01  0.10190982961E+01 0.  0.
     999903    2    3    3    0    0 -0.25601098986E-01  0.22576694483E-01 -0.12510440490E+00  0.13235909819E+00  0.26508401433E-01 0.  0.
         14    1    1    2    0    0  0.24916357347E-02  0.11541864473E-01  0.21508384908E-01  0.24536371075E-01  0.00000000000E+00 0.  1.
     999901    1    3    3    0    0  0.23109463251E-01 -0.34118558956E-01  0.10359601999E+00  0.88703453073E+00  0.88000000000E+00 0. -1.
        -11    1    4    4    0    0  0.18944054580E-02  0.41455231503E-02 -0.50882537541E-01  0.51088823453E-01  0.51100000000E-03 0.  1.
         11    1    4    4    0    0 -0.27495504444E-01  0.18431171333E-01 -0.74221867356E-01  0.81270274739E-01  0.51100000000E-03 0. -1.
</event>
<event>
 8    1  0.1122848E+005  0.1043930E+01  0.7957747E-01            NaN
         13   -1    0    0    0    0  0.00000000000E+00  0.00000000000E+00  0.74505805969E-08  0.10566000000E+00  0.10566000000E+00 0.  1.
     999900   -1    0    0    0    0 -0.00000000000E+00 -0.00000000000E+00 -0.74505805969E-08  0.93827000000E+00  0.93827000000E+00 0.  1.
     999902    2    1    2    0    0  0.11772789606E-01  0.89177142344E-02 -0.18344814647E-01  0.10203788551E+01  0.10201070294E+01 0.  0.
     999903    2    3    3    0    0 -0.18427370419E-02 -0.12576205206E+00 -0.25593466311E-01  0.12999884354E+00  0.20619999667E-01 0.  0.
         14    1    1    2    0    0 -0.11772789606E-01 -0.89177142344E-02  0.18344814647E-01  0.23551144912E-01  0.00000000000E+00 0.  1.
     999901    1    3    3    0    0  0.13615526648E-01  0.13467976629E+00  0.72486516648E-02  0.89038001155E+00  0.88000000000E+00 0. -1.
        -11    1    4    4    0    0 -0.10235270047E-01 -0.94256129298E-01 -0.20358824856E-01  0.96972787594E-01  0.51100000000E-03 0. -1.
         11    1    4    4    0    0  0.83925330051E-02 -0.31505922759E-01 -0.52346414554E-02  0.33026055945E-01  0.51100000000E-03 0.  1.
</event>
<event>
 8    1  0.1122848E+005  0.1043930E+01  0.7957747E-01            NaN
         13   -1    0    0    0    0  0.00000000000E+00  0.00000000000E+00  0.74505805969E-08  0.10566000000E+00  0.10566000000E+00 0.  1.
     999900   -1    0    0    0    0 -0.00000000000E+00 -0.00000000000E+00 -0.74505805969E-08  0.93827000000E+00  0.93827000000E+00 0. -1.
     999902    2    1    2    0    0 -0.70915127444E-02 -0.87372445595E-02  0.10414520663E-01  0.10285973148E+01  0.10284830308E+01 0.  0.
     999903    2    3    3    0    0 -0.34349517317E-01 -0.13367195322E+00  0.47786566110E-02  0.13933726102E+00  0.18546059719E-01 0.  0.
         14    1    1    2    0    0  0.70915127444E-02  0.87372445595E-02 -0.10414520663E-01  0.15332685223E-01  0.00000000000E+00 0. -1.
     999901    1    3    3    0    0  0.27258004572E-01  0.12493470867E+00  0.56358640523E-02  0.88926005376E+00  0.88000000000E+00 0.  1.
        -11    1    4    4    0    0 -0.34059009724E-03 -0.30001390191E-01 -0.15377227453E-02  0.30047048562E-01  0.51100000000E-03 0.  1.
         11    1    4    4    0    0 -0.34008927220E-01 -0.10367056303E+00  0.63163793563E-02  0.10929021246E+00  0.51100000000E-03 0. -1.
</event>
<event>
 8    1  0.1122848E+005  0.1043930E+01  0.7957747E-01            NaN
         13   -1    0    0    0    0  0.00000000000E+00  0.00000000000E+00  0.74505805969E-08  0.10566000000E+00  0.10566000000E+00 0. -1.
     999900   -1    0    0    0    0 -0.00000000000E+00 -0.00000000000E+00 -0.74505805969E-08  0.93827000000E+00  0.93827000000E+00 0. -1.
     999902    2    1    2    0    0 -0.10863223839E-01  0.54853191912E-02 -0.20939670776E-01  0.10197108305E+01  0.10194231750E+01 0.  0.
     999903    2    3    3    0    0 -0.18076205069E-01  0.10563939270E-01  0.12450495031E+00  0.12772879185E+00  0.19360155270E-01 0.  0.
         14    1    1    2    0    0  0.10863223839E-01 -0.54853191912E-02  0.20939670776E-01  0.24219169495E-01  0.00000000000E+00 0. -1.
     999901    1    3    3    0    0  0.72129812291E-02 -0.50786200786E-02 -0.14544462109E+00  0.89198203866E+00  0.88000000000E+00 0.  1.
        -11    1    4    4    0    0 -0.18791772330E-01  0.55508897037E-02  0.11718699792E+00  0.11881496828E+00  0.51100000000E-03 0.  1.
         11    1    4    4    0    0  0.71556726128E-03  0.50130495661E-02  0.73179523899E-02  0.89138235701E-02  0.51100000000E-03 0. -1.
</event>
<event>
 8    1  0.1122848E+005  0.1043930E+01  0.7957747E-01            NaN
         13   -1    0    0    0    0  0.00000000000E+00  0.00000000000E+00  0.74505805969E-08  0.10566000000E+00  0.10566000000E+00 0. -1.
     999900   -1    0    0    0    0 -0.00000000000E+00 -0.00000000000E+00 -0.74505805969E-08  0.93827000000E+00  0.93827000000E+00 0. -1.
     999902    2    1    2    0    0 -0.81021249805E-03 -0.23364144261E-01 -0.50188006394E-02  0.10200191648E+01  0.10197388727E+01 0.  0.
     999903    2    3    3    0    0  0.75137742055E-01 -0.97673840248E-02 -0.10502764286E+00  0.13100019298E+00  0.19727207718E-01 0.  0.
         14    1    1    2    0    0  0.81021249805E-03  0.23364144261E-01  0.50188006394E-02  0.23910835226E-01  0.00000000000E+00 0.  1.
     999901    1    3    3    0    0 -0.75947954554E-01 -0.13596760236E-01  0.10000884222E+00  0.88901897180E+00  0.88000000000E+00 0.  1.
        -11    1    4    4    0    0  0.38357660918E-01 -0.13149966774E-01 -0.64269229948E-01  0.75993597206E-01  0.51100000000E-03 0.  1.
         11    1    4    4    0    0  0.36780081138E-01  0.33825827491E-02 -0.40758412910E-01  0.55006595773E-01  0.51100000000E-03 0. -1.
</event>
<event>
 8    1  0.1122848E+005  0.1043930E+01  0.7957747E-01            NaN
         13   -1    0    0    0    0  0.00000000000E+00  0.00000000000E+00  0.74505805969E-08  0.10566000000E+00  0.10566000000E+00 0.  1.
     999900   -1    0    0    0    0 -0.00000000000E+00 -0.00000000000E+00 -0.74505805969E-08  0.93827000000E+00  0.93827000000E+00 0.  1.
     999902    2    1    2    0    0  0.17659540878E-01  0.89332605406E-02  0.91612167481E-02  0.10221219643E+01  0.10218892893E+01 0.  0.
     999903    2    3    3    0    0 -0.18448822916E-01  0.74698047769E-01 -0.10482758001E+00  0.13160398754E+00  0.20264022298E-01 0.  0.
         14    1    1    2    0    0 -0.17659540878E-01 -0.89332605406E-02 -0.91612167481E-02  0.21808035680E-01  0.00000000000E+00 0.  1.
     999901    1    3    3    0    0  0.36108363794E-01 -0.65764787229E-01  0.11398879676E+00  0.89051797678E+00  0.88000000000E+00 0.  1.
        -11    1    4    4    0    0  0.39844184485E-02  0.13171872899E-01 -0.14099469940E-01  0.19708627543E-01  0.51100000000E-03 0.  1.
         11    1    4    4    0    0 -0.22433241365E-01  0.61526174870E-01 -0.90728110068E-01  0.11189536000E+00  0.51100000000E-03 0. -1.
</event>
<event>
 8    1  0.1122848E+005  0.1043930E+01  0.7957747E-01            NaN
         13   -1    0    0    0    0  0.00000000000E+00  0.00000000000E+00  0.74505805969E-08  0.10566000000E+00  0.10566000000E+00 0.  1.
     999900   -1    0    0    0    0 -0.00000000000E+00 -0.00000000000E+00 -0.74505805969E-08  0.93827000000E+00  0.93827000000E+00 0.  1.
     999902    2    1    2    0    0 -0.10306188118E-02 -0.14403452985E-01  0.19074516896E-01  0.10200059780E+01  0.10197253730E+01 0.  0.
     999903    2    3    3    0    0 -0.47866627106E-01 -0.11921039675E+00 -0.21047121349E-01  0.13164352215E+00  0.19613845218E-01 0.  0.
         14    1    1    2    0    0  0.10306188118E-02  0.14403452985E-01 -0.19074516896E-01  0.23924021983E-01  0.00000000000E+00 0. -1.
     999901    1    3    3    0    0  0.46836008294E-01  0.10480694376E+00  0.40121638245E-01  0.88836245586E+00  0.88000000000E+00 0.  1.
        -11    1    4    4    0    0 -0.99651445157E-02 -0.50497038577E-01 -0.86741516037E-02  0.52199205332E-01  0.51100000000E-03 0.  1.
         11    1    4    4    0    0 -0.37901482590E-01 -0.68713358171E-01 -0.12372969746E-01  0.79444316820E-01  0.51100000000E-03 0. -1.
</event>
<event>
 8    1  0.1122848E+005  0.1043930E+01  0.7957747E-01            NaN
         13   -1    0    0    0    0  0.00000000000E+00  0.00000000000E+00  0.74505805969E-08  0.10566000000E+00  0.10566000000E+00 0.  1.
     999900   -1    0    0    0    0 -0.00000000000E+00 -0.00000000000E+00 -0.74505805969E-08  0.93827000000E+00  0.93827000000E+00 0. -1.
     999902    2    1    2    0    0  0.20199107714E-02  0.16660916466E-01  0.16276653155E-01  0.10205506156E+01  0.10202827860E+01 0.  0.
     999903    2    3    3    0    0 -0.49246764102E-02  0.67753118067E-01 -0.10929815999E+00  0.13014190380E+00  0.19393037454E-01 0.  0.
         14    1    1    2    0    0 -0.20199107714E-02 -0.16660916466E-01 -0.16276653155E-01  0.23379384400E-01  0.00000000000E+00 0. -1.
     999901    1    3    3    0    0  0.69445871816E-02 -0.51092201601E-01  0.12557481314E+00  0.89040871180E+00  0.88000000000E+00 0.  1.
        -11    1    4    4    0    0 -0.65072128321E-02  0.65726609638E-01 -0.95617240826E-01  0.11621208585E+00  0.51100000000E-03 0. -1.
         11    1    4    4    0    0  0.15825364219E-02  0.20265084295E-02 -0.13680919163E-01  0.13929817949E-01  0.51100000000E-03 0.  1.
</event>
<event>
 8    1  0.1122848E+005  0.1043930E+01  0.7957747E-01            NaN
         13   -1    0    0    0    0  0.00000000000E+00  0.00000000000E+00  0.74505805969E-08  0.10566000000E+00  0.10566000000E+00 0. -1.
     999900   -1    0    0    0    0 -0.00000000000E+00 -0.00000000000E+00 -0.74505805969E-08  0.93827000000E+00  0.93827000000E+00 0.  1.
     999902    2    1    2    0    0 -0.69366271080E-02 -0.68619446047E-02 -0.21633675168E-01  0.10201977649E+01  0.10199216934E+01 0.  0.
     999903    2    3    3    0    0 -0.11986635747E+00  0.43876741283E-01  0.19651844643E-01  0.13057310679E+00  0.19236141541E-01 0.  0.
         14    1    1    2    0    0  0.69366271080E-02  0.68619446047E-02  0.21633675168E-01  0.23732235054E-01  0.00000000000E+00 0. -1.
     999901    1    3    3    0    0  0.11292973036E+00 -0.50738685888E-01 -0.41285519811E-01  0.88962465815E+00  0.88000000000E+00 0. -1.
        -11    1    4    4    0    0 -0.11409678207E+00  0.37099389452E-01  0.16450268606E-01  0.12110042458E+00  0.51100000000E-03 0.  1.
         11    1    4    4    0    0 -0.57695754021E-02  0.67773518310E-02  0.32015760373E-02  0.94726822117E-02  0.51100000000E-03 0. -1.
</event>
<event>
 8    1  0.1122848E+005  0.1043930E+01  0.7957747E-01            NaN
         13   -1    0    0    0    0  0.00000000000E+00  0.00000000000E+00  0.74505805969E-08  0.10566000000E+00  0.10566000000E+00 0. -1.
     999900   -1    0    0    0    0 -0.00000000000E+00 -0.00000000000E+00 -0.74505805969E-08  0.93827000000E+00  0.93827000000E+00 0. -1.
     999902    2    1    2    0    0 -0.19169919796E-01 -0.13950547215E-01 -0.77114916356E-02  0.10189986804E+01  0.10186936438E+01 0.  0.
     999903    2    3    3    0    0  0.87471190076E-01  0.45027774401E-01 -0.79012814681E-01  0.12774414473E+00  0.19920644239E-01 0.  0.
         14    1    1    2    0    0  0.19169919796E-01  0.13950547215E-01  0.77114916356E-02  0.24931319576E-01  0.00000000000E+00 0. -1.
     999901    1    3    3    0    0 -0.10664110987E+00 -0.58978321616E-01  0.71301323045E-01  0.89125453570E+00  0.88000000000E+00 0. -1.
        -11    1    4    4    0    0  0.28797882324E-01  0.21392102134E-01 -0.38501666627E-01  0.52626794640E-01  0.51100000000E-03 0.  1.
         11    1    4    4    0    0  0.58673307753E-01  0.23635672267E-01 -0.40511148054E-01  0.75117350085E-01  0.51100000000E-03 0. -1.
</event>
<event>
 8    1  0.1122848E+005  0.1043930E+01  0.7957747E-01            NaN
         13   -1    0    0    0    0  0.00000000000E+00  0.00000000000E+00  0.74505805969E-08  0.10566000000E+00  0.10566000000E+00 0. -1.
     999900   -1    0    0    0    0 -0.00000000000E+00 -0.00000000000E+00 -0.74505805969E-08  0.93827000000E+00  0.93827000000E+00 0.  1.
     999902    2    1    2    0    0  0.22476634792E-01 -0.13099707182E-02 -0.73884159706E-02  0.10202339281E+01  0.10199587071E+01 0.  0.
     999903    2    3    3    0    0 -0.11310350224E+00  0.30481596490E-01 -0.48267855087E-01  0.12834615157E+00  0.20528488612E-01 0.  0.
         14    1    1    2    0    0 -0.22476634792E-01  0.13099707182E-02  0.73884159706E-02  0.23696071940E-01  0.00000000000E+00 0. -1.
     999901    1    3    3    0    0  0.13558013703E+00 -0.31791567208E-01  0.40879439116E-01  0.89188777649E+00  0.88000000000E+00 0.  1.
        -11    1    4    4    0    0 -0.31732743674E-01  0.47335729772E-02 -0.44142922703E-02  0.32390134786E-01  0.51100000000E-03 0. -1.
         11    1    4    4    0    0 -0.81370758569E-01  0.25748023512E-01 -0.43853562816E-01  0.95956016787E-01  0.51100000000E-03 0.  1.
</event>
<event>
 8    1  0.1122848E+005  0.1043930E+01  0.7957747E-01            NaN
         13   -1    0    0    0    0  0.00000000000E+00  0.00000000000E+00  0.74505805969E-08  0.10566000000E+00  0.10566000000E+00 0.  1.
     999900   -1    0    0    0    0 -0.00000000000E+00 -0.00000000000E+00 -0.74505805969E-08  0.93827000000E+00  0.93827000000E+00 0. -1.
     999902    2    1    2    0    0  0.23638013753E-01  0.77515498528E-03  0.54422459926E-02  0.10196612011E+01  0.10193723512E+01 0.  0.
     999903    2    3    3    0    0 -0.12200094245E+00 -0.27051954259E-01  0.12174772834E-01  0.12723171900E+00  0.20582687843E-01 0.  0.
         14    1    1    2    0    0 -0.23638013753E-01 -0.77515498528E-03 -0.54422459926E-02  0.24268798917E-01  0.00000000000E+00 0. -1.
     999901    1    3    3    0    0  0.14563895620E+00  0.27827109245E-01 -0.67325268415E-02  0.89242948208E+00  0.88000000000E+00 0. -1.
        -11    1    4    4    0    0 -0.51660318196E-01 -0.16691011014E-01 -0.35645538950E-02  0.54409057061E-01  0.51100000000E-03 0. -1.
         11    1    4    4    0    0 -0.70340624251E-01 -0.10360943245E-01  0.15739326729E-01  0.72822661939E-01  0.51100000000E-03 0.  1.
</event>
<event>
 8    1  0.1122848E+005  0.1043930E+01  0.7957747E-01            NaN
         13   -1    0    0    0    0  0.00000000000E+00  0.00000000000E+00  0.74505805969E-08  0.10566000000E+00  0.10566000000E+00 0. -1.
     999900   -1    0    0    0    0 -0.00000000000E+00 -0.00000000000E+00 -0.74505805969E-08  0.93827000000E+00  0.93827000000E+00 0. -1.
     999902    2    1    2    0    0 -0.17547737175E-01  0.91072058637E-02  0.14445991538E-01  0.10194442705E+01  0.10191501703E+01 0.  0.
     999903    2    3    3    0    0 -0.69678470290E-01  0.75383221094E-01 -0.78052323005E-01  0.13058766690E+00  0.20573146966E-01 0.  0.
         14    1    1    2    0    0  0.17547737175E-01 -0.91072058637E-02 -0.14445991538E-01  0.24485729520E-01  0.00000000000E+00 0. -1.
     999901    1    3    3    0    0  0.52130733115E-01 -0.66276015230E-01  0.92498314543E-01  0.88885660358E+00  0.88000000000E+00 0.  1.
        -11    1    4    4    0    0 -0.53263899288E-01  0.58788614647E-01 -0.70270261417E-01  0.10597789836E+00  0.51100000000E-03 0. -1.
         11    1    4    4    0    0 -0.16414571002E-01  0.16594606447E-01 -0.77820615876E-02  0.24609768545E-01  0.51100000000E-03 0.  1.
</event>
<event>
 8    1  0.1122848E+005  0.1043930E+01  0.7957747E-01            NaN
         13   -1    0    0    0    0  0.00000000000E+00  0.00000000000E+00  0.74505805969E-08  0.10566000000E+00  0.10566000000E+00 0.  1.
     999900   -1    0    0    0    0 -0.00000000000E+00 -0.00000000000E+00 -0.74505805969E-08  0.93827000000E+00  0.93827000000E+00 0.  1.
     999902    2    1    2    0    0  0.11394671868E-01  0.11904781309E-02  0.19876022834E-01  0.10209885077E+01  0.10207307288E+01 0.  0.
     999903    2    3    3    0    0 -0.25834803867E-01  0.59261749179E-01  0.11479898318E+00  0.13319986462E+00  0.19596055466E-01 0.  0.
         14    1    1    2    0    0 -0.11394671868E-01 -0.11904781309E-02 -0.19876022834E-01  0.22941492298E-01  0.00000000000E+00 0. -1.
     999901    1    3    3    0    0  0.37229475734E-01 -0.58071271048E-01 -0.94922960343E-01  0.88778864308E+00  0.88000000000E+00 0.  1.
        -11    1    4    4    0    0 -0.21112899228E-01  0.32254240750E-01  0.80751034706E-01  0.89482295943E-01  0.51100000000E-03 0. -1.
         11    1    4    4    0    0 -0.47219046386E-02  0.27007508429E-01  0.34047948471E-01  0.43717568678E-01  0.51100000000E-03 0.  1.
</event>
<event>
 8    1  0.1122848E+005  0.1043930E+01  0.7957747E-01            NaN
         13   -1    0    0    0    0  0.00000000000E+00  0.00000000000E+00  0.74505805969E-08  0.10566000000E+00  0.10566000000E+00 0.  1.
     999900   -1    0    0    0    0 -0.00000000000E+00 -0.00000000000E+00 -0.74505805969E-08  0.93827000000E+00  0.93827000000E+00 0.  1.
     999902    2    1    2    0    0  0.23157470604E-02  0.19161605944E-03  0.23180407400E-01  0.10206334190E+01  0.10203675050E+01 0.  0.
     999903    2    3    3    0    0 -0.26885465999E-01  0.10224481941E+00  0.77404943067E-01  0.13259745829E+00  0.20340338150E-01 0.  0.
         14    1    1    2    0    0 -0.23157470604E-02 -0.19161605944E-03 -0.23180407400E-01  0.23296581046E-01  0.00000000000E+00 0. -1.
     999901    1    3    3    0    0  0.29201213060E-01 -0.10205320335E+00 -0.54224535666E-01  0.88803596066E+00  0.88000000000E+00 0. -1.
        -11    1    4    4    0    0 -0.49313579477E-02  0.94534006832E-02  0.15819883148E-01  0.19084415094E-01  0.51100000000E-03 0. -1.
         11    1    4    4    0    0 -0.21954108052E-01  0.92791418729E-01  0.61585059919E-01  0.11351304320E+00  0.51100000000E-03 0.  1.
</event>
<event>
 8    1  0.1122848E+005  0.1043930E+01  0.7957747E-01            NaN
         13   -1    0    0    0    0  0.00000000000E+00  0.00000000000E+00  0.74505805969E-08  0.10566000000E+00  0.10566000000E+00 0.  1.
     999900   -1    0    0    0    0 -0.00000000000E+00 -0.00000000000E+00 -0.74505805969E-08  0.93827000000E+00  0.93827000000E+00 0.  1.
     999902    2    1    2    0    0 -0.61525446156E-02  0.21320889032E-01  0.62477605109E-02  0.10208763967E+01  0.10206160633E+01 0.  0.
     999903    2    3    3    0    0 -0.85516783854E-01 -0.76830396943E-01  0.58182143957E-01  0.13035433767E+00  0.19775268871E-01 0.  0.
         14    1    1    2    0    0  0.61525446156E-02 -0.21320889032E-01 -0.62477605109E-02  0.23053603314E-01  0.00000000000E+00 0. -1.
     999901    1    3    3    0    0  0.79364239239E-01  0.98151285975E-01 -0.51934383446E-01  0.89052205902E+00  0.88000000000E+00 0.  1.
        -11    1    4    4    0    0 -0.38807985883E-01 -0.34029392653E-01  0.15249439989E-01  0.53822540572E-01  0.51100000000E-03 0.  1.
         11    1    4    4    0    0 -0.46708797971E-01 -0.42801004290E-01  0.42932703968E-01  0.76531797099E-01  0.51100000000E-03 0. -1.
</event>
<event>
 8    1  0.1122848E+005  0.1043930E+01  0.7957747E-01            NaN
         13   -1    0    0    0    0  0.00000000000E+00  0.00000000000E+00  0.74505805969E-08  0.10566000000E+00  0.10566000000E+00 0. -1.
     999900   -1    0    0    0    0 -0.00000000000E+00 -0.00000000000E+00 -0.74505805969E-08  0.93827000000E+00  0.93827000000E+00 0. -1.
     999902    2    1    2    0    0 -0.14422273909E-01  0.15656652776E-01 -0.11272986786E-01  0.10198423892E+01  0.10195578875E+01 0.  0.
     999903    2    3    3    0    0 -0.92568255822E-01 -0.46301106445E-01  0.75984386857E-01  0.12992137720E+00  0.19830853852E-01 0.  0.
         14    1    1    2    0    0  0.14422273909E-01 -0.15656652776E-01  0.11272986786E-01  0.24087610756E-01  0.00000000000E+00 0. -1.
     999901    1    3    3    0    0  0.78145981913E-01  0.61957759221E-01 -0.87257373643E-01  0.88992101204E+00  0.88000000000E+00 0. -1.
        -11    1    4    4    0    0 -0.57012681219E-01 -0.30628442494E-01  0.35554194385E-01  0.73843816049E-01  0.51100000000E-03 0. -1.
         11    1    4    4    0    0 -0.35555574603E-01 -0.15672663951E-01  0.40430192472E-01  0.56077561154E-01  0.51100000000E-03 0.  1.
</event>
<event>
 8    1  0.1122848E+005  0.1043930E+01  0.7957747E-01            NaN
         13   -1    0    0    0    0  0.00000000000E+00  0.00000000000E+00  0.74505805969E-08  0.10566000000E+00  0.10566000000E+00 0.  1.
     999900   -1    0    0    0    0 -0.00000000000E+00 -0.00000000000E+00 -0.74505805969E-08  0.93827000000E+00  0.93827000000E+00 0.  1.
     999902    2    1    2    0    0 -0.20831616466E-02  0.20990569304E-01 -0.95458621783E-02  0.10207768782E+01  0.10205142665E+01 0.  0.
     999903    2    3    3    0    0  0.11210894027E+00 -0.13091292523E-01  0.61278073077E-01  0.12992479218E+00  0.19638048648E-01 0.  0.
         14    1    1    2    0    0  0.20831616466E-02 -0.20990569304E-01  0.95458621783E-02  0.23153121753E-01  0.00000000000E+00 0.  1.
     999901    1    3    3    0    0 -0.11419210192E+00  0.34081861827E-01 -0.70823935256E-01  0.89085208607E+00  0.88000000000E+00 0. -1.
        -11    1    4    4    0    0  0.16343608272E-01 -0.48621773557E-03  0.17258268666E-02  0.16449606026E-01  0.51100000000E-03 0. -1.
         11    1    4    4    0    0  0.95765331997E-01 -0.12605074787E-01  0.59552246211E-01  0.11347518615E+00  0.51100000000E-03 0.  1.
</event>
<event>
 8    1  0.1122848E+005  0.1043930E+01  0.7957747E-01            NaN
         13   -1    0    0    0    0  0.00000000000E+00  0.00000000000E+00  0.74505805969E-08  0.10566000000E+00  0.10566000000E+00 0. -1.
     999900   -1    0    0    0    0 -0.00000000000E+00 -0.00000000000E+00 -0.74505805969E-08  0.93827000000E+00  0.93827000000E+00 0.  1.
     999902    2    1    2    0    0  0.79804785431E-03 -0.41413580666E-02 -0.21646906026E-01  0.10218760600E+01  0.10216380503E+01 0.  0.
     999903    2    3    3    0    0 -0.12150629453E+00 -0.53592090272E-02  0.44367277241E-01  0.13096769903E+00  0.19788435208E-01 0.  0.
         14    1    1    2    0    0 -0.79804785431E-03  0.41413580666E-02  0.21646906026E-01  0.22053939954E-01  0.00000000000E+00 0. -1.
     999901    1    3    3    0    0  0.12230434239E+00  0.12178509606E-02 -0.66014183266E-01  0.89090836101E+00  0.88000000000E+00 0. -1.
        -11    1    4    4    0    0 -0.35190236689E-01  0.18226839425E-02  0.41968557934E-02  0.35490134609E-01  0.51100000000E-03 0. -1.
         11    1    4    4    0    0 -0.86316057844E-01 -0.71818929697E-02  0.40170421447E-01  0.95477564426E-01  0.51100000000E-03 0.  1.
</event>
<event>
 8    1  0.1122848E+005  0.1043930E+01  0.7957747E-01            NaN
         13   -1    0    0    0    0  0.00000000000E+00  0.00000000000E+00  0.74505805969E-08  0.10566000000E+00  0.10566000000E+00 0. -1.
     999900   -1    0    0    0    0 -0.00000000000E+00 -0.00000000000E+00 -0.74505805969E-08  0.93827000000E+00  0.93827000000E+00 0. -1.
     999902    2    1    2    0    0 -0.18926995508E-02  0.15466551937E-01 -0.17867199196E-01  0.10202227575E+01  0.10199472739E+01 0.  0.
     999903    2    3    3    0    0  0.32149243110E-01 -0.85744552579E-01  0.86500228461E-01  0.12764497293E+00  0.20621529035E-01 0.  0.
         14    1    1    2    0    0  0.18926995508E-02 -0.15466551937E-01  0.17867199196E-01  0.23707242512E-01  0.00000000000E+00 0. -1.
     999901    1    3    3    0    0 -0.34041942661E-01  0.10121110452E+00 -0.10436742766E+00  0.89257778456E+00  0.88000000000E+00 0. -1.
        -11    1    4    4    0    0  0.17409045792E-01 -0.61364353661E-01  0.70056985597E-01  0.94746509843E-01  0.51100000000E-03 0. -1.
         11    1    4    4    0    0  0.14740197318E-01 -0.24380198918E-01  0.16443242865E-01  0.32898463082E-01  0.51100000000E-03 0.  1.
</event>
<event>
 8    1  0.1122848E+005  0.1043930E+01  0.7957747E-01            NaN
         13   -1    0    0    0    0  0.00000000000E+00  0.00000000000E+00  0.74505805969E-08  0.10566000000E+00  0.10566000000E+00 0. -1.
     999900   -1    0    0    0    0 -0.00000000000E+00 -0.00000000000E+00 -0.74505805969E-08  0.93827000000E+00  0.93827000000E+00 0. -1.
     999902    2    1    2    0    0 -0.76845309909E-02 -0.21165814252E-01  0.75614241774E-02  0.10201767088E+01  0.10199001413E+01 0.  0.
     999903    2    3    3    0    0  0.11491325937E+00  0.50582084498E-01 -0.17209046991E-01  0.12844157127E+00  0.20916057965E-01 0.  0.
         14    1    1    2    0    0  0.76845309909E-02  0.21165814252E-01 -0.75614241774E-02  0.23753291248E-01  0.00000000000E+00 0.  1.
     999901    1    3    3    0    0 -0.12259779036E+00 -0.71747898750E-01  0.24770471168E-01  0.89173513748E+00  0.88000000000E+00 0.  1.
        -11    1    4    4    0    0  0.59687349349E-01  0.30214767525E-01  0.72800217137E-03  0.66905178851E-01  0.51100000000E-03 0.  1.
         11    1    4    4    0    0  0.55225910022E-01  0.20367316973E-01 -0.17937049162E-01  0.61536392420E-01  0.51100000000E-03 0. -1.
</event>
<event>
 8    1  0.1122848E+005  0.1043930E+01  0.7957747E-01            NaN
         13   -1    0    0    0    0  0.00000000000E+00  0.00000000000E+00  0.74505805969E-08  0.10566000000E+00  0.10566000000E+00 0. -1.
     999900   -1    0    0    0    0 -0.00000000000E+00 -0.00000000000E+00 -0.74505805969E-08  0.93827000000E+00  0.93827000000E+00 0. -1.
     999902    2    1    2    0    0 -0.43474794195E-02  0.19503350661E-01  0.99127342155E-02  0.10216243154E+01  0.10213807803E+01 0.  0.
     999903    2    3    3    0    0  0.11067163437E+00 -0.35461846689E-01  0.57390802579E-01  0.13117233109E+00  0.20167374595E-01 0.  0.
         14    1    1    2    0    0  0.43474794195E-02 -0.19503350661E-01 -0.99127342155E-02  0.22305684565E-01  0.00000000000E+00 0.  1.
     999901    1    3    3    0    0 -0.11501911379E+00  0.54965197350E-01 -0.47478068363E-01  0.89045198435E+00  0.88000000000E+00 0.  1.
        -11    1    4    4    0    0  0.38505538854E-01 -0.11367930405E-01  0.94649450047E-02  0.41252305015E-01  0.51100000000E-03 0. -1.
         11    1    4    4    0    0  0.72166095512E-01 -0.24093916284E-01  0.47925857574E-01  0.89920026070E-01  0.51100000000E-03 0.  1.
</event>
<event>
 8    1  0.1122848E+005  0.1043930E+01  0.7957747E-01            NaN
         13   -1    0    0    0    0  0.00000000000E+00  0.00000000000E+00  0.74505805969E-08  0.10566000000E+00  0.10566000000E+00 0.  1.
     999900   -1    0    0    0    0 -0.00000000000E+00 -0.00000000000E+00 -0.74505805969E-08  0.93827000000E+00  0.93827000000E+00 0.  1.
     999902    2    1    2    0    0 -0.28252750203E-01 -0.45372438298E-02  0.12020051248E-01  0.10128931492E+01  0.10124175253E+01 0.  0.
     999903    2    3    3    0    0  0.26510681288E-02 -0.11540093266E+00  0.43349375156E-01  0.12484623038E+00  0.19570628344E-01 0.  0.
         14    1    1    2    0    0  0.28252750203E-01  0.45372438298E-02 -0.12020051248E-01  0.31036850801E-01  0.00000000000E+00 0. -1.
     999901    1    3    3    0    0 -0.30903818332E-01  0.11086368883E+00 -0.31329323908E-01  0.88804691882E+00  0.88000000000E+00 0. -1.
        -11    1    4    4    0    0 -0.80268895408E-02 -0.32039841794E-01  0.12456384736E-01  0.35304462318E-01  0.51100000000E-03 0.  1.
         11    1    4    4    0    0  0.10677957670E-01 -0.83361090861E-01  0.30892990420E-01  0.89541768062E-01  0.51100000000E-03 0. -1.
</event>
<event>
 8    1  0.1122848E+005  0.1043930E+01  0.7957747E-01            NaN
         13   -1    0    0    0    0  0.00000000000E+00  0.00000000000E+00  0.74505805969E-08  0.10566000000E+00  0.10566000000E+00 0.  1.
     999900   -1    0    0    0    0 -0.00000000000E+00 -0.00000000000E+00 -0.74505805969E-08  0.93827000000E+00  0.93827000000E+00 0.  1.
     999902    2    1    2    0    0 -0.92040044563E-02 -0.17687100025E-02 -0.21246585695E-01  0.10207080398E+01  0.10204438461E+01 0.  0.
     999903    2    3    3    0    0 -0.91166333040E-01 -0.87126881128E-01 -0.36004377603E-01  0.13266432851E+00  0.20027859557E-01 0.  0.
         14    1    1    2    0    0  0.92040044563E-02  0.17687100025E-02  0.21246585695E-01  0.23221960227E-01  0.00000000000E+00 0.  1.
     999901    1    3    3    0    0  0.81962328583E-01  0.85358171125E-01  0.14757791908E-01  0.88804371126E+00  0.88000000000E+00 0.  1.
        -11    1    4    4    0    0 -0.46813676771E-01 -0.57408508641E-01 -0.17104706248E-01  0.76026898490E-01  0.51100000000E-03 0.  1.
         11    1    4    4    0    0 -0.44352656268E-01 -0.29718372487E-01 -0.18899671354E-01  0.56637430023E-01  0.51100000000E-03 0. -1.
</event>
<event>
 8    1  0.1122848E+005  0.1043930E+01  0.7957747E-01            NaN
         13   -1    0    0    0    0  0.00000000000E+00  0.00000000000E+00  0.74505805969E-08  0.10566000000E+00  0.10566000000E+00 0.  1.
     999900   -1    0    0    0    0 -0.00000000000E+00 -0.00000000000E+00 -0.74505805969E-08  0.93827000000E+00  0.93827000000E+00 0. -1.
     999902    2    1    2    0    0  0.92624531752E-02 -0.95150000260E-03  0.21493457759E-01  0.10205063556E+01  0.10202374992E+01 0.  0.
     999903    2    3    3    0    0 -0.11386008735E+00  0.28338197183E-02 -0.56214005450E-01  0.12853553854E+00  0.19728665272E-01 0.  0.
         14    1    1    2    0    0 -0.92624531752E-02  0.95150000260E-03 -0.21493457759E-01  0.23423644411E-01  0.00000000000E+00 0. -1.
     999901    1    3    3    0    0  0.12312254052E+00 -0.37853197209E-02  0.77707463209E-01  0.89197081705E+00  0.88000000000E+00 0.  1.
        -11    1    4    4    0    0 -0.93663057809E-01 -0.25687889488E-02 -0.39173808232E-01  0.10155892598E+00  0.51100000000E-03 0.  1.
         11    1    4    4    0    0 -0.20197029540E-01  0.54026086671E-02 -0.17040197218E-01  0.26976612554E-01  0.51100000000E-03 0. -1.
</event>
<event>
 8    1  0.1122848E+005  0.1043930E+01  0.7957747E-01            NaN
         13   -1    0    0    0    0  0.00000000000E+00  0.00000000000E+00  0.74505805969E-08  0.10566000000E+00  0.10566000000E+00 0. -1.
     999900   -1    0    0    0    0 -0.00000000000E+00 -0.00000000000E+00 -0.74505805969E-08  0.93827000000E+00  0.93827000000E+00 0.  1.
     999902    2    1    2    0    0 -0.13630189281E-01  0.90098308292E-02  0.17011759039E-01  0.10203427353E+01  0.10200700654E+01 0.  0.
     999903    2    3    3    0    0 -0.32199236045E-01 -0.92450315923E-01 -0.81390284777E-01  0.12887095608E+00  0.19987324715E-01 0.  0.
         14    1    1    2    0    0  0.13630189281E-01 -0.90098308292E-02 -0.17011759039E-01  0.23587264721E-01  0.00000000000E+00 0.  1.
     999901    1    3    3    0    0  0.18569046763E-01  0.10146014675E+00  0.98402043816E-01  0.89147177920E+00  0.88000000000E+00 0. -1.
        -11    1    4    4    0    0 -0.17361481673E-02 -0.32499566670E-01 -0.23639613008E-01  0.40228453467E-01  0.51100000000E-03 0. -1.
         11    1    4    4    0    0 -0.30463087878E-01 -0.59950749253E-01 -0.57750671769E-01  0.88642502615E-01  0.51100000000E-03 0.  1.
</event>
<event>
 8    1  0.1122848E+005  0.1043930E+01  0.7957747E-01            NaN
         13   -1    0    0    0    0  0.00000000000E+00  0.00000000000E+00  0.74505805969E-08  0.10566000000E+00  0.10566000000E+00 0. -1.
     999900   -1    0    0    0    0 -0.00000000000E+00 -0.00000000000E+00 -0.74505805969E-08  0.93827000000E+00  0.93827000000E+00 0. -1.
     999902    2    1    2    0    0 -0.14998470912E-01  0.45242591827E-02  0.15945203379E-01  0.10215766432E+01  0.10213320544E+01 0.  0.
     999903    2    3    3    0    0 -0.10414317092E+00  0.78151135265E-01 -0.20767915064E-01  0.13325488418E+00  0.19291393699E-01 0.  0.
         14    1    1    2    0    0  0.14998470912E-01 -0.45242591827E-02 -0.15945203379E-01  0.22353356832E-01  0.00000000000E+00 0.  1.
     999901    1    3    3    0    0  0.89144700003E-01 -0.73626876082E-01  0.36713118443E-01  0.88832175898E+00  0.88000000000E+00 0.  1.
        -11    1    4    4    0    0 -0.56357459080E-01  0.39471922011E-01 -0.14915200494E-02  0.68823553921E-01  0.51100000000E-03 0. -1.
         11    1    4    4    0    0 -0.47785711836E-01  0.38679213254E-01 -0.19276395015E-01  0.64431330262E-01  0.51100000000E-03 0.  1.
</event>
<event>
 8    1  0.1122848E+005  0.1043930E+01  0.7957747E-01            NaN
         13   -1    0    0    0    0  0.00000000000E+00  0.00000000000E+00  0.74505805969E-08  0.10566000000E+00  0.10566000000E+00 0. -1.
     999900   -1    0    0    0    0 -0.00000000000E+00 -0.00000000000E+00 -0.74505805969E-08  0.93827000000E+00  0.93827000000E+00 0. -1.
     999902    2    1    2    0    0 -0.23390249014E-01 -0.12546449943E-02 -0.69229507111E-03  0.10204958976E+01  0.10202267982E+01 0.  0.
     999903    2    3    3    0    0 -0.77021613161E-02 -0.12569342275E+00  0.28740456231E-01  0.13111554457E+00  0.22519156107E-01 0.  0.
         14    1    1    2    0    0  0.23390249014E-01  0.12546449943E-02  0.69229507111E-03  0.23434102403E-01  0.00000000000E+00 0. -1.
     999901    1    3    3    0    0 -0.15688087698E-01  0.12443877775E+00 -0.29432751302E-01  0.88938035303E+00  0.88000000000E+00 0. -1.
        -11    1    4    4    0    0 -0.11619455718E-01 -0.30392580463E-01  0.69813340238E-02  0.33282440477E-01  0.51100000000E-03 0.  1.
         11    1    4    4    0    0  0.39172944017E-02 -0.95300842286E-01  0.21759122207E-01  0.97833104091E-01  0.51100000000E-03 0. -1.
</event>
<event>
 8    1  0.1122848E+005  0.1043930E+01  0.7957747E-01            NaN
         13   -1    0    0    0    0  0.00000000000E+00  0.00000000000E+00  0.74505805969E-08  0.10566000000E+00  0.10566000000E+00 0. -1.
     999900   -1    0    0    0    0 -0.00000000000E+00 -0.00000000000E+00 -0.74505805969E-08  0.93827000000E+00  0.93827000000E+00 0.  1.
     999902    2    1    2    0    0 -0.21148531260E-01  0.10245684240E-01 -0.36926092453E-02  0.10201419824E+01  0.10198645961E+01 0.  0.
     999903    2    3    3    0    0 -0.57543548193E-01  0.10143000401E+00 -0.60412684782E-01  0.13286730990E+00  0.20117750996E-01 0.  0.
         14    1    1    2    0    0  0.21148531260E-01 -0.10245684240E-01  0.36926092453E-02  0.23788017636E-01  0.00000000000E+00 0. -1.
     999901    1    3    3    0    0  0.36395016933E-01 -0.91184319769E-01  0.56720075537E-01  0.88727467247E+00  0.88000000000E+00 0. -1.
        -11    1    4    4    0    0 -0.14810938778E-02  0.88033214921E-02 -0.12684691132E-03  0.89425566539E-02  0.51100000000E-03 0.  1.
         11    1    4    4    0    0 -0.56062454315E-01  0.92626682518E-01 -0.60285837871E-01  0.12392475325E+00  0.51100000000E-03 0. -1.
</event>
<event>
 8    1  0.1122848E+005  0.1043930E+01  0.7957747E-01            NaN
         13   -1    0    0    0    0  0.00000000000E+00  0.00000000000E+00  0.74505805969E-08  0.10566000000E+00  0.10566000000E+00 0.  1.
     999900   -1    0    0    0    0 -0.00000000000E+00 -0.00000000000E+00 -0.74505805969E-08  0.93827000000E+00  0.93827000000E+00 0.  1.
     999902    2    1    2    0    0  0.24089338512E-02  0.69454539965E-02 -0.22412754393E-01  0.10203424216E+01  0.10200697444E+01 0.  0.
     999903    2    3    3    0    0  0.94484822785E-01 -0.50412558427E-02 -0.90777926098E-01  0.13282033896E+00  0.21161629850E-01 0.  0.
         14    1    1    2    0    0 -0.24089338512E-02 -0.69454539965E-02  0.22412754393E-01  0.23587578362E-01  0.00000000000E+00 0.  1.
     999901    1    3    3    0    0 -0.92075888934E-01  0.11986709839E-01  0.68365171706E-01  0.88752208268E+00  0.88000000000E+00 0. -1.
        -11    1    4    4    0    0  0.10356490223E-01  0.67480734487E-03 -0.20764283835E-01  0.23219148539E-01  0.51100000000E-03 0.  1.
         11    1    4    4    0    0  0.84128332562E-01 -0.57160631875E-02 -0.70013642263E-01  0.10960119042E+00  0.51100000000E-03 0. -1.
</event>
<event>
 8    1  0.1122848E+005  0.1043930E+01  0.7957747E-01            NaN
         13   -1    0    0    0    0  0.00000000000E+00  0.00000000000E+00  0.74505805969E-08  0.10566000000E+00  0.10566000000E+00 0.  1.
     999900   -1    0    0    0    0 -0.00000000000E+00 -0.00000000000E+00 -0.74505805969E-08  0.93827000000E+00  0.93827000000E+00 0.  1.
     999902    2    1    2    0    0  0.33041211786E-02 -0.15066124933E-01  0.17058563541E-01  0.10209321756E+01  0.10206731148E+01 0.  0.
     999903    2    3    3    0    0  0.76849092931E-01 -0.10602533300E+00 -0.11271559325E-01  0.13274017143E+00  0.18594373880E-01 0.  0.
         14    1    1    2    0    0 -0.33041211786E-02  0.15066124933E-01 -0.17058563541E-01  0.22997824404E-01  0.00000000000E+00 0. -1.
     999901    1    3    3    0    0 -0.73544971752E-01  0.90959208066E-01  0.28330122866E-01  0.88819200417E+00  0.88000000000E+00 0.  1.
        -11    1    4    4    0    0  0.36508688145E-01 -0.62456620686E-01 -0.12125010518E-01  0.73355236886E-01  0.51100000000E-03 0.  1.
         11    1    4    4    0    0  0.40340404786E-01 -0.43568712312E-01  0.85345119301E-03  0.59384934544E-01  0.51100000000E-03 0. -1.
</event>
<event>
 8    1  0.1122848E+005  0.1043930E+01  0.7957747E-01            NaN
         13   -1    0    0    0    0  0.00000000000E+00  0.00000000000E+00  0.74505805969E-08  0.10566000000E+00  0.10566000000E+00 0. -1.
     999900   -1    0    0    0    0 -0.00000000000E+00 -0.00000000000E+00 -0.74505805969E-08  0.93827000000E+00  0.93827000000E+00 0.  1.
     999902    2    1    2    0    0  0.71463825655E-02 -0.20303267108E-01 -0.10228878253E-01  0.10200988567E+01  0.10198204519E+01 0.  0.
     999903    2    3    3    0    0 -0.84435256847E-01  0.93978134809E-01  0.36101488642E-02  0.12788870538E+00  0.19526529874E-01 0.  0.
         14    1    1    2    0    0 -0.71463825655E-02  0.20303267108E-01  0.10228878253E-01  0.23831143265E-01  0.00000000000E+00 0. -1.
     999901    1    3    3    0    0  0.91581639413E-01 -0.11428140192E+00 -0.13839027117E-01  0.89221015135E+00  0.88000000000E+00 0. -1.
        -11    1    4    4    0    0 -0.49994218589E-01  0.59464485576E-01  0.11358942916E-01  0.78515817784E-01  0.51100000000E-03 0.  1.
         11    1    4    4    0    0 -0.34441038259E-01  0.34513649233E-01 -0.77487940520E-02  0.49372887600E-01  0.51100000000E-03 0. -1.
</event>
<event>
 8    1  0.1122848E+005  0.1043930E+01  0.7957747E-01            NaN
         13   -1    0    0    0    0  0.00000000000E+00  0.00000000000E+00  0.74505805969E-08  0.10566000000E+00  0.10566000000E+00 0.  1.
     999900   -1    0    0    0    0 -0.00000000000E+00 -0.00000000000E+00 -0.74505805969E-08  0.93827000000E+00  0.93827000000E+00 0.  1.
     999902    2    1    2    0    0 -0.12319803192E-01 -0.21321396644E-02 -0.20115014572E-01  0.10202458834E+01  0.10199709433E+01 0.  0.
     999903    2    3    3    0    0 -0.38280521577E-01  0.10855112665E+00 -0.62074145620E-01  0.13194114227E+00  0.17507713785E-01 0.  0.
         14    1    1    2    0    0  0.12319803192E-01  0.21321396644E-02  0.20115014572E-01  0.23684116650E-01  0.00000000000E+00 0.  1.
     999901    1    3    3    0    0  0.25960718385E-01 -0.11068326631E+00  0.41959131048E-01  0.88830474108E+00  0.88000000000E+00 0. -1.
        -11    1    4    4    0    0 -0.11773006212E-01  0.31333311066E-01 -0.27320697650E-01  0.43209509355E-01  0.51100000000E-03 0.  1.
         11    1    4    4    0    0 -0.26507515365E-01  0.77217815579E-01 -0.34753447970E-01  0.88731632919E-01  0.51100000000E-03 0. -1.
</event>
<event>
 8    1  0.1122848E+005  0.1043930E+01  0.7957747E-01            NaN
         13   -1    0    0    0    0  0.00000000000E+00  0.00000000000E+00  0.74505805969E-08  0.10566000000E+00  0.10566000000E+00 0.  1.
     999900   -1    0    0    0    0 -0.00000000000E+00 -0.00000000000E+00 -0.74505805969E-08  0.93827000000E+00  0.93827000000E+00 0. -1.
     999902    2    1    2    0    0 -0.12580609155E-01 -0.16668397432E-01 -0.63695687180E-04  0.10230467230E+01  0.10228335575E+01 0.  0.
     999903    2    3    3    0    0 -0.43355398501E-01 -0.11084877977E+00  0.61298523423E-01  0.13536302148E+00  0.19962365961E-01 0.  0.
         14    1    1    2    0    0  0.12580609155E-01  0.16668397432E-01  0.63695687180E-04  0.20883276965E-01  0.00000000000E+00 0. -1.
     999901    1    3    3    0    0  0.30774789347E-01  0.94180382335E-01 -0.61362219110E-01  0.88768370156E+00  0.88000000000E+00 0.  1.
        -11    1    4    4    0    0 -0.26051484066E-01 -0.79073933671E-01  0.33543547995E-01  0.89759665448E-01  0.51100000000E-03 0. -1.
         11    1    4    4    0    0 -0.17303914435E-01 -0.31774846097E-01  0.27754975427E-01  0.45603356030E-01  0.51100000000E-03 0.  1.
</event>
<event>
 8    1  0.1122848E+005  0.1043930E+01  0.7957747E-01            NaN
         13   -1    0    0    0    0  0.00000000000E+00  0.00000000000E+00  0.74505805969E-08  0.10566000000E+00  0.10566000000E+00 0. -1.
     999900   -1    0    0    0    0 -0.00000000000E+00 -0.00000000000E+00 -0.74505805969E-08  0.93827000000E+00  0.93827000000E+00 0. -1.
     999902    2    1    2    0    0 -0.65559743600E-02 -0.10200844556E-01  0.19838284625E-01  0.10206792889E+01  0.10204144331E+01 0.  0.
     999903    2    3    3    0    0 -0.51567940683E-01 -0.86935501569E-01  0.85329175972E-01  0.13377267514E+00  0.19925521370E-01 0.  0.
         14    1    1    2    0    0  0.65559743600E-02  0.10200844556E-01 -0.19838284625E-01  0.23250711093E-01  0.00000000000E+00 0.  1.
     999901    1    3    3    0    0  0.45011966323E-01  0.76734657013E-01 -0.65490891347E-01  0.88690661377E+00  0.88000000000E+00 0. -1.
        -11    1    4    4    0    0 -0.25769635266E-01 -0.26683686449E-01  0.25406794134E-01  0.44965092387E-01  0.51100000000E-03 0. -1.
         11    1    4    4    0    0 -0.25798305417E-01 -0.60251815120E-01  0.59922381838E-01  0.88807582750E-01  0.51100000000E-03 0.  1.
</event>
<event>
 8    1  0.1122848E+005  0.1043930E+01  0.7957747E-01            NaN
         13   -1    0    0    0    0  0.00000000000E+00  0.00000000000E+00  0.74505805969E-08  0.10566000000E+00  0.10566000000E+00 0.  1.
     999900   -1    0    0    0    0 -0.00000000000E+00 -0.00000000000E+00 -0.74505805969E-08  0.93827000000E+00  0.93827000000E+00 0. -1.
     999902    2    1    2    0    0  0.17300190303E-01 -0.25938523674E-02 -0.16755447546E-01  0.10197066708E+01  0.10194189153E+01 0.  0.
     999903    2    3    3    0    0 -0.64886080751E-02 -0.12116490759E+00 -0.46725827335E-01  0.13093041903E+00  0.15376437159E-01 0.  0.
         14    1    1    2    0    0 -0.17300190303E-01  0.25938523674E-02  0.16755447546E-01  0.24223329191E-01  0.00000000000E+00 0.  1.
     999901    1    3    3    0    0  0.23788798379E-01  0.11857105523E+00  0.29970379789E-01  0.88877625178E+00  0.88000000000E+00 0.  1.
        -11    1    4    4    0    0 -0.91968785085E-02 -0.94263144502E-01 -0.41415866631E-01  0.10337145697E+00  0.51100000000E-03 0.  1.
         11    1    4    4    0    0  0.27082704334E-02 -0.26901763091E-01 -0.53099607038E-02  0.27558962060E-01  0.51100000000E-03 0. -1.
</event>
<event>
 8    1  0.1122848E+005  0.1043930E+01  0.7957747E-01            NaN
         13   -1    0    0    0    0  0.00000000000E+00  0.00000000000E+00  0.74505805969E-08  0.10566000000E+00  0.10566000000E+00 0.  1.
     999900   -1    0    0    0    0 -0.00000000000E+00 -0.00000000000E+00 -0.74505805969E-08  0.93827000000E+00  0.93827000000E+00 0. -1.
     999902    2    1    2    0    0  0.73316424180E-02  0.15725754644E-01  0.14728711638E-01  0.10211706660E+01  0.10209170102E+01 0.  0.
     999903    2    3    3    0    0 -0.42791623576E-02  0.11456110259E+00  0.66279059075E-01  0.13406262568E+00  0.20912113179E-01 0.  0.
         14    1    1    2    0    0 -0.73316424180E-02 -0.15725754644E-01 -0.14728711638E-01  0.22759334046E-01  0.00000000000E+00 0. -1.
     999901    1    3    3    0    0  0.11610804776E-01 -0.98835347941E-01 -0.51550347436E-01  0.88710804027E+00  0.88000000000E+00 0.  1.
        -11    1    4    4    0    0 -0.95217815811E-02  0.56702479278E-01  0.41449804028E-01  0.70881470468E-01  0.51100000000E-03 0. -1.
         11    1    4    4    0    0  0.52426192236E-02  0.57858623307E-01  0.24829255047E-01  0.63181155217E-01  0.51100000000E-03 0.  1.
</event>
<event>
 8    1  0.1122848E+005  0.1043930E+01  0.7957747E-01            NaN
         13   -1    0    0    0    0  0.00000000000E+00  0.00000000000E+00  0.74505805969E-08  0.10566000000E+00  0.10566000000E+00 0. -1.
     999900   -1    0    0    0    0 -0.00000000000E+00 -0.00000000000E+00 -0.74505805969E-08  0.93827000000E+00  0.93827000000E+00 0. -1.
     999902    2    1    2    0    0 -0.24260412827E-02 -0.72567857147E-02 -0.19670324941E-01  0.10228238801E+01  0.10226060930E+01 0.  0.
     999903    2    3    3    0    0 -0.11919747687E+00 -0.44201978690E-01  0.36600529561E-01  0.13256160157E+00  0.84336251603E-02 0.  0.
         14    1    1    2    0    0  0.24260412827E-02  0.72567857147E-02  0.19670324941E-01  0.21106119930E-01  0.00000000000E+00 0. -1.
     999901    1    3    3    0    0  0.11677143559E+00  0.36945192976E-01 -0.56270854502E-01  0.89026227850E+00  0.88000000000E+00 0.  1.
        -11    1    4    4    0    0 -0.56327903662E-01 -0.23040715207E-01  0.13704258878E-01  0.62384093491E-01  0.51100000000E-03 0. -1.
         11    1    4    4    0    0 -0.62869573212E-01 -0.21161263483E-01  0.22896270683E-01  0.70177508079E-01  0.51100000000E-03 0.  1.
</event>
<event>
 8    1  0.1122848E+005  0.1043930E+01  0.7957747E-01            NaN
         13   -1    0    0    0    0  0.00000000000E+00  0.00000000000E+00  0.74505805969E-08  0.10566000000E+00  0.10566000000E+00 0. -1.
     999900   -1    0    0    0    0 -0.00000000000E+00 -0.00000000000E+00 -0.74505805969E-08  0.93827000000E+00  0.93827000000E+00 0.  1.
     999902    2    1    2    0    0  0.23432275482E-01 -0.24720950020E-02  0.96718490152E-02  0.10184598714E+01  0.10181413370E+01 0.  0.
     999903    2    3    3    0    0  0.12787427808E+00  0.18869476169E-01 -0.15965013180E-01  0.13165614831E+00  0.19250236826E-01 0.  0.
         14    1    1    2    0    0 -0.23432275482E-01  0.24720950020E-02 -0.96718490152E-02  0.25470128608E-01  0.00000000000E+00 0.  1.
     999901    1    3    3    0    0 -0.10444200259E+00 -0.21341571171E-01  0.25636862195E-01  0.88680372308E+00  0.88000000000E+00 0.  1.
        -11    1    4    4    0    0  0.93566589551E-02 -0.29902546697E-02 -0.37271406175E-02  0.10518621011E-01  0.51100000000E-03 0. -1.
         11    1    4    4    0    0  0.11851761912E+00  0.21859730839E-01 -0.12237872562E-01  0.12113752730E+00  0.51100000000E-03 0.  1.
</event>
<event>
 8    1  0.1122848E+005  0.1043930E+01  0.7957747E-01            NaN
         13   -1    0    0    0    0  0.00000000000E+00  0.00000000000E+00  0.74505805969E-08  0.10566000000E+00  0.10566000000E+00 0. -1.
     999900   -1    0    0    0    0 -0.00000000000E+00 -0.00000000000E+00 -0.74505805969E-08  0.93827000000E+00  0.93827000000E+00 0. -1.
     999902    2    1    2    0    0 -0.20183644054E-02  0.10932981049E-02  0.23125517859E-01  0.10206908375E+01  0.10204262478E+01 0.  0.
     999903    2    3    3    0    0 -0.85732473649E-01  0.93275836853E-01  0.26831414914E-01  0.13191673451E+00  0.25132871698E-01 0.  0.
         14    1    1    2    0    0  0.20183644054E-02 -0.10932981049E-02 -0.23125517859E-01  0.23239162461E-01  0.00000000000E+00 0.  1.
     999901    1    3    3    0    0  0.83714109243E-01 -0.92182538749E-01 -0.37058970549E-02  0.88877410303E+00  0.88000000000E+00 0.  1.
        -11    1    4    4    0    0 -0.43682025451E-01  0.30246968586E-01  0.15144026452E-01  0.55250349450E-01  0.51100000000E-03 0.  1.
         11    1    4    4    0    0 -0.42050448198E-01  0.63028868267E-01  0.11687388462E-01  0.76666385064E-01  0.51100000000E-03 0. -1.
</event>
<event>
 8    1  0.1122848E+005  0.1043930E+01  0.7957747E-01            NaN
         13   -1    0    0    0    0  0.00000000000E+00  0.00000000000E+00  0.74505805969E-08  0.10566000000E+00  0.10566000000E+00 0.  1.
     999900   -1    0    0    0    0 -0.00000000000E+00 -0.00000000000E+00 -0.74505805969E-08  0.93827000000E+00  0.93827000000E+00 0. -1.
     999902    2    1    2    0    0  0.10196096710E-01 -0.88577578827E-02  0.19169047758E-01  0.10204806364E+01  0.10202111823E+01 0.  0.
     999903    2    3    3    0    0  0.16801356278E-02  0.16672887631E-01  0.13052849020E+00  0.13305443613E+00  0.19621115720E-01 0.  0.
         14    1    1    2    0    0 -0.10196096710E-01  0.88577578827E-02 -0.19169047758E-01  0.23449363633E-01  0.00000000000E+00 0. -1.
     999901    1    3    3    0    0  0.85159610824E-02 -0.25530645514E-01 -0.11135944244E+00  0.88742620024E+00  0.88000000000E+00 0. -1.
        -11    1    4    4    0    0  0.92630758166E-02  0.12138321284E-01  0.57628107748E-01  0.59618817003E-01  0.51100000000E-03 0.  1.
         11    1    4    4    0    0 -0.75829401888E-02  0.45345663469E-02  0.72900382449E-01  0.73435619124E-01  0.51100000000E-03 0. -1.
</event>
<event>
 8    1  0.1122848E+005  0.1043930E+01  0.7957747E-01            NaN
         13   -1    0    0    0    0  0.00000000000E+00  0.00000000000E+00  0.74505805969E-08  0.10566000000E+00  0.10566000000E+00 0. -1.
     999900   -1    0    0    0    0 -0.00000000000E+00 -0.00000000000E+00 -0.74505805969E-08  0.93827000000E+00  0.93827000000E+00 0. -1.
     999902    2    1    2    0    0 -0.11298210711E-01 -0.18061909707E-01 -0.63275322005E-02  0.10217056932E+01  0.10214639513E+01 0.  0.
     999903    2    3    3    0    0 -0.32953092082E-01 -0.30408768710E-01 -0.12417124039E+00  0.13350047011E+00  0.19831265397E-01 0.  0.
         14    1    1    2    0    0  0.11298210711E-01  0.18061909707E-01  0.63275322005E-02  0.22224306768E-01  0.00000000000E+00 0. -1.
     999901    1    3    3    0    0  0.21654881371E-01  0.12346859003E-01  0.11784370819E+00  0.88820522312E+00  0.88000000000E+00 0.  1.
        -11    1    4    4    0    0 -0.29975284007E-01 -0.19532372744E-01 -0.75675157389E-01  0.83707955435E-01  0.51100000000E-03 0.  1.
         11    1    4    4    0    0 -0.29778080756E-02 -0.10876395966E-01 -0.48496083005E-01  0.49792514678E-01  0.51100000000E-03 0. -1.
</event>
<event>
 8    1  0.1122848E+005  0.1043930E+01  0.7957747E-01            NaN
         13   -1    0    0    0    0  0.00000000000E+00  0.00000000000E+00  0.74505805969E-08  0.10566000000E+00  0.10566000000E+00 0. -1.
     999900   -1    0    0    0    0 -0.00000000000E+00 -0.00000000000E+00 -0.74505805969E-08  0.93827000000E+00  0.93827000000E+00 0. -1.
     999902    2    1    2    0    0  0.37741861081E-02 -0.19142899940E-01  0.14926080191E-01  0.10193641096E+01  0.10190680571E+01 0.  0.
     999903    2    3    3    0    0 -0.58019837723E-01 -0.42342584055E-02  0.11603799324E+00  0.13129632624E+00  0.19740286059E-01 0.  0.
         14    1    1    2    0    0 -0.37741861081E-02  0.19142899940E-01 -0.14926080191E-01  0.24565890351E-01  0.00000000000E+00 0.  1.
     999901    1    3    3    0    0  0.61794023832E-01 -0.14908641535E-01 -0.10111191305E+00  0.88806778341E+00  0.88000000000E+00 0. -1.
        -11    1    4    4    0    0 -0.42021295215E-01  0.46387760656E-02  0.70325784371E-01  0.82056593662E-01  0.51100000000E-03 0.  1.
         11    1    4    4    0    0 -0.15998542509E-01 -0.88730344711E-02  0.45712208871E-01  0.49239732575E-01  0.51100000000E-03 0. -1.
</event>
<event>
 7    1  0.1122848E+005  0.1043930E+01  0.7957747E-01            NaN
         13   -1    0    0    0    0  0.00000000000E+00  0.00000000000E+00  0.74505805969E-08  0.10566000000E+00  0.10566000000E+00 0.  1.
     999900   -1    0    0    0    0 -0.00000000000E+00 -0.00000000000E+00 -0.74505805969E-08  0.93827000000E+00  0.93827000000E+00 0.  1.
     999903    2    1    2    0    0  0.72947957631E-01 -0.38900040173E-01 -0.17422305554E-01  0.86739988623E-01  0.19638514392E-01 0.  0.
         14    1    1    2    0    0 -0.12652644873E-01  0.72690557053E-01  0.99242612645E-02  0.74447951407E-01  0.00000000000E+00 0. -1.
     999901    1    1    2    0    0 -0.60295312758E-01 -0.33790516880E-01  0.74980442897E-02  0.88274205997E+00  0.88000000000E+00 0. -1.
        -11    1    3    3    0    0  0.24842114028E-01 -0.11316935606E-01 -0.15180639820E-01  0.31239664006E-01  0.51100000000E-03 0.  1.
         11    1    3    3    0    0  0.48105843603E-01 -0.27583104567E-01 -0.22416657347E-02  0.55500324617E-01  0.51100000000E-03 0. -1.
</event>
<event>
 8    1  0.1122848E+005  0.1043930E+01  0.7957747E-01            NaN
         13   -1    0    0    0    0  0.00000000000E+00  0.00000000000E+00  0.74505805969E-08  0.10566000000E+00  0.10566000000E+00 0. -1.
     999900   -1    0    0    0    0 -0.00000000000E+00 -0.00000000000E+00 -0.74505805969E-08  0.93827000000E+00  0.93827000000E+00 0. -1.
     999902    2    1    2    0    0 -0.16288317140E-01 -0.28105935606E-02 -0.18122336949E-01  0.10194018976E+01  0.10191067662E+01 0.  0.
     999903    2    3    3    0    0  0.48397663643E-01  0.10971240517E+00  0.40153654290E-01  0.12797506800E+00  0.19650862112E-01 0.  0.
         14    1    1    2    0    0  0.16288317140E-01  0.28105935606E-02  0.18122336949E-01  0.24528102412E-01  0.00000000000E+00 0. -1.
     999901    1    3    3    0    0 -0.64685980783E-01 -0.11252299873E+00 -0.58275991239E-01  0.89142682959E+00  0.88000000000E+00 0. -1.
        -11    1    4    4    0    0 -0.13068373829E-02  0.87046232498E-02  0.14736193209E-02  0.89392933037E-02  0.51100000000E-03 0.  1.
         11    1    4    4    0    0  0.49704501026E-01  0.10100778192E+00  0.38680034969E-01  0.11903577470E+00  0.51100000000E-03 0. -1.
</event>
<event>
 8    1  0.1122848E+005  0.1043930E+01  0.7957747E-01            NaN
         13   -1    0    0    0    0  0.00000000000E+00  0.00000000000E+00  0.74505805969E-08  0.10566000000E+00  0.10566000000E+00 0. -1.
     999900   -1    0    0    0    0 -0.00000000000E+00 -0.00000000000E+00 -0.74505805969E-08  0.93827000000E+00  0.93827000000E+00 0. -1.
     999902    2    1    2    0    0  0.18693042901E-01 -0.38797045455E-02  0.12388661115E-01  0.10211712460E+01  0.10209176033E+01 0.  0.
     999903    2    3    3    0    0 -0.11491005604E+00  0.14194747628E-01 -0.51074592586E-01  0.12864446294E+00  0.23129461695E-01 0.  0.
         14    1    1    2    0    0 -0.18693042901E-01  0.38797045455E-02 -0.12388661115E-01  0.22758754018E-01  0.00000000000E+00 0.  1.
     999901    1    3    3    0    0  0.13360309894E+00 -0.18074452174E-01  0.63463253701E-01  0.89252678304E+00  0.88000000000E+00 0.  1.
        -11    1    4    4    0    0 -0.68509197284E-01  0.18142751379E-01 -0.37244491609E-01  0.80062992801E-01  0.51100000000E-03 0.  1.
         11    1    4    4    0    0 -0.46400858759E-01 -0.39480037505E-02 -0.13830100977E-01  0.48581470143E-01  0.51100000000E-03 0. -1.
</event>
<event>
 8    1  0.1122848E+005  0.1043930E+01  0.7957747E-01            NaN
         13   -1    0    0    0    0  0.00000000000E+00  0.00000000000E+00  0.74505805969E-08  0.10566000000E+00  0.10566000000E+00 0. -1.
     999900   -1    0    0    0    0 -0.00000000000E+00 -0.00000000000E+00 -0.74505805969E-08  0.93827000000E+00  0.93827000000E+00 0. -1.
     999902    2    1    2    0    0  0.18102423847E-01 -0.39325641148E-02 -0.15135212258E-01  0.10200085147E+01  0.10197279699E+01 0.  0.
     999903    2    3    3    0    0  0.69333857472E-01  0.47795947024E-01 -0.10082376113E+00  0.13285406023E+00  0.19827611213E-01 0.  0.
         14    1    1    2    0    0 -0.18102423847E-01  0.39325641148E-02  0.15135212258E-01  0.23921485317E-01  0.00000000000E+00 0. -1.
     999901    1    3    3    0    0 -0.51231433625E-01 -0.51728511139E-01  0.85688548871E-01  0.88715445446E+00  0.88000000000E+00 0. -1.
        -11    1    4    4    0    0  0.23434126050E-01  0.10683350952E-01 -0.19224382224E-01  0.32142343477E-01  0.51100000000E-03 0.  1.
         11    1    4    4    0    0  0.45899731421E-01  0.37112596072E-01 -0.81599378905E-01  0.10071171675E+00  0.51100000000E-03 0. -1.
</event>
<event>
 8    1  0.1122848E+005  0.1043930E+01  0.7957747E-01            NaN
         13   -1    0    0    0    0  0.00000000000E+00  0.00000000000E+00  0.74505805969E-08  0.10566000000E+00  0.10566000000E+00 0.  1.
     999900   -1    0    0    0    0 -0.00000000000E+00 -0.00000000000E+00 -0.74505805969E-08  0.93827000000E+00  0.93827000000E+00 0.  1.
     999902    2    1    2    0    0  0.95033060967E-02  0.17987268930E-01 -0.14271169272E-01  0.10190800313E+01  0.10187770067E+01 0.  0.
     999903    2    3    3    0    0  0.12206973460E+00  0.41217084636E-01  0.11087919851E-01  0.13124338613E+00  0.22405719445E-01 0.  0.
         14    1    1    2    0    0 -0.95033060967E-02 -0.17987268930E-01  0.14271169272E-01  0.24849968667E-01  0.00000000000E+00 0. -1.
     999901    1    3    3    0    0 -0.11256642851E+00 -0.23229815706E-01 -0.25359089124E-01  0.88783664520E+00  0.88000000000E+00 0.  1.
        -11    1    4    4    0    0  0.56594558998E-01  0.30424643883E-01  0.22378514885E-02  0.64295195496E-01  0.51100000000E-03 0.  1.
         11    1    4    4    0    0  0.65475175607E-01  0.10792440753E-01  0.88500683626E-02  0.66948190634E-01  0.51100000000E-03 0. -1.
</event>
<event>
 8    1  0.1122848E+005  0.1043930E+01  0.7957747E-01            NaN
         13   -1    0    0    0    0  0.00000000000E+00  0.00000000000E+00  0.74505805969E-08  0.10566000000E+00  0.10566000000E+00 0. -1.
     999900   -1    0    0    0    0 -0.00000000000E+00 -0.00000000000E+00 -0.74505805969E-08  0.93827000000E+00  0.93827000000E+00 0.  1.
     999902    2    1    2    0    0 -0.71810475908E-02 -0.95051440634E-02  0.18594465438E-01  0.10218467631E+01  0.10216081136E+01 0.  0.
     999903    2    3    3    0    0  0.99172166771E-01 -0.84004448625E-01  0.15020806786E-01  0.13231097199E+00  0.19715542640E-01 0.  0.
         14    1    1    2    0    0  0.71810475908E-02  0.95051440634E-02 -0.18594465438E-01  0.22083236925E-01  0.00000000000E+00 0.  1.
     999901    1    3    3    0    0 -0.10635321436E+00  0.74499304562E-01  0.35736586519E-02  0.88953579109E+00  0.88000000000E+00 0.  1.
        -11    1    4    4    0    0  0.58999511097E-01 -0.52968301031E-01  0.18517159058E-01  0.81423151035E-01  0.51100000000E-03 0. -1.
         11    1    4    4    0    0  0.40172655674E-01 -0.31036147594E-01 -0.34963522727E-02  0.50887820955E-01  0.51100000000E-03 0.  1.
</event>
<event>
 8    1  0.1122848E+005  0.1043930E+01  0.7957747E-01            NaN
         13   -1    0    0    0    0  0.00000000000E+00  0.00000000000E+00  0.74505805969E-08  0.10566000000E+00  0.10566000000E+00 0. -1.
     999900   -1    0    0    0    0 -0.00000000000E+00 -0.00000000000E+00 -0.74505805969E-08  0.93827000000E+00  0.93827000000E+00 0.  1.
     999902    2    1    2    0    0  0.21400941864E-01 -0.31836675188E-02 -0.71312606931E-03  0.10222817991E+01  0.10220525585E+01 0.  0.
     999903    2    3    3    0    0 -0.10097294989E+00  0.62957633106E-01 -0.48498706427E-01  0.13007470283E+00  0.20201574564E-01 0.  0.
         14    1    1    2    0    0 -0.21400941864E-01  0.31836675188E-02  0.71312606931E-03  0.21648200857E-01  0.00000000000E+00 0.  1.
     999901    1    3    3    0    0  0.12237389175E+00 -0.66141300625E-01  0.47785580358E-01  0.89220709632E+00  0.88000000000E+00 0. -1.
        -11    1    4    4    0    0 -0.67454452063E-01  0.35616115011E-01 -0.22187438759E-01  0.79442773814E-01  0.51100000000E-03 0. -1.
         11    1    4    4    0    0 -0.33518497824E-01  0.27341518095E-01 -0.26311267668E-01  0.50631929011E-01  0.51100000000E-03 0.  1.
</event>
<event>
 8    1  0.1122848E+005  0.1043930E+01  0.7957747E-01            NaN
         13   -1    0    0    0    0  0.00000000000E+00  0.00000000000E+00  0.74505805969E-08  0.10566000000E+00  0.10566000000E+00 0. -1.
     999900   -1    0    0    0    0 -0.00000000000E+00 -0.00000000000E+00 -0.74505805969E-08  0.93827000000E+00  0.93827000000E+00 0. -1.
     999902    2    1    2    0    0  0.19265155556E-01  0.10860787495E-01  0.88268310182E-02  0.10201179050E+01  0.10198399503E+01 0.  0.
     999903    2    3    3    0    0 -0.28041173057E-01  0.12018213810E-01  0.12596188522E+00  0.13109605525E+00  0.19723953090E-01 0.  0.
         14    1    1    2    0    0 -0.19265155556E-01 -0.10860787495E-01 -0.88268310182E-02  0.23812095024E-01  0.00000000000E+00 0. -1.
     999901    1    3    3    0    0  0.47306328613E-01 -0.11574263144E-02 -0.11713505420E+00  0.88902184972E+00  0.88000000000E+00 0. -1.
        -11    1    4    4    0    0 -0.20476831883E-01  0.15792471911E-01  0.11029042905E+00  0.11328257886E+00  0.51100000000E-03 0.  1.
         11    1    4    4    0    0 -0.75643411741E-02 -0.37742581017E-02  0.15671456168E-01  0.17813476388E-01  0.51100000000E-03 0. -1.
</event>
<event>
 8    1  0.1122848E+005  0.1043930E+01  0.7957747E-01            NaN
         13   -1    0    0    0    0  0.00000000000E+00  0.00000000000E+00  0.74505805969E-08  0.10566000000E+00  0.10566000000E+00 0.  1.
     999900   -1    0    0    0    0 -0.00000000000E+00 -0.00000000000E+00 -0.74505805969E-08  0.93827000000E+00  0.93827000000E+00 0. -1.
     999902    2    1    2    0    0 -0.23487406803E-01 -0.16147999278E-02 -0.82522255124E-02  0.10189827540E+01  0.10186773227E+01 0.  0.
     999903    2    3    3    0    0 -0.79816445627E-02  0.92546564209E-01  0.86782920206E-01  0.12873645657E+00  0.20327981078E-01 0.  0.
         14    1    1    2    0    0  0.23487406803E-01  0.16147999278E-02  0.82522255124E-02  0.24947246001E-01  0.00000000000E+00 0. -1.
     999901    1    3    3    0    0 -0.15505762240E-01 -0.94161364137E-01 -0.95035145718E-01  0.89024629743E+00  0.88000000000E+00 0. -1.
        -11    1    4    4    0    0  0.29326335571E-02  0.65945662836E-01  0.65175486470E-01  0.92766027963E-01  0.51100000000E-03 0. -1.
         11    1    4    4    0    0 -0.10914278120E-01  0.26600901374E-01  0.21607433736E-01  0.35970428610E-01  0.51100000000E-03 0.  1.
</event>
<event>
 7    1  0.1122848E+005  0.1043930E+01  0.7957747E-01            NaN
         13   -1    0    0    0    0  0.00000000000E+00  0.00000000000E+00  0.74505805969E-08  0.10566000000E+00  0.10566000000E+00 0. -1.
     999900   -1    0    0    0    0 -0.00000000000E+00 -0.00000000000E+00 -0.74505805969E-08  0.93827000000E+00  0.93827000000E+00 0. -1.
     999903    2    1    2    0    0  0.33597064730E-01  0.72925055481E-01 -0.30493039110E-01  0.88191718896E-01  0.20028164473E-01 0.  0.
         14    1    1    2    0    0 -0.64233021086E-01 -0.20363716315E-01 -0.25053881566E-01  0.71890603847E-01  0.00000000000E+00 0. -1.
     999901    1    1    2    0    0  0.30635956355E-01 -0.52561339167E-01  0.55546920676E-01  0.88384767726E+00  0.88000000000E+00 0. -1.
        -11    1    3    3    0    0  0.21373122110E-01  0.58583387125E-01 -0.30313333032E-01  0.69339619816E-01  0.51100000000E-03 0.  1.
         11    1    3    3    0    0  0.12223942621E-01  0.14341668356E-01 -0.17970607859E-03  0.18852099080E-01  0.51100000000E-03 0. -1.
</event>
<event>
 8    1  0.1122848E+005  0.1043930E+01  0.7957747E-01            NaN
         13   -1    0    0    0    0  0.00000000000E+00  0.00000000000E+00  0.74505805969E-08  0.10566000000E+00  0.10566000000E+00 0.  1.
     999900   -1    0    0    0    0 -0.00000000000E+00 -0.00000000000E+00 -0.74505805969E-08  0.93827000000E+00  0.93827000000E+00 0.  1.
     999902    2    1    2    0    0  0.69169799980E-02  0.33723922709E-02  0.22569255639E-01  0.10200848969E+01  0.10198061619E+01 0.  0.
     999903    2    3    3    0    0  0.26173671248E-01 -0.16251808499E-01  0.12813067808E+00  0.13334979365E+00  0.20384171719E-01 0.  0.
         14    1    1    2    0    0 -0.69169799980E-02 -0.33723922709E-02 -0.22569255639E-01  0.23845103104E-01  0.00000000000E+00 0. -1.
     999901    1    3    3    0    0 -0.19256691250E-01  0.19624200770E-01 -0.10556142244E+00  0.88673510324E+00  0.88000000000E+00 0.  1.
        -11    1    4    4    0    0  0.63112156098E-02  0.34622690058E-02  0.46433101347E-01  0.46990560444E-01  0.51100000000E-03 0.  1.
         11    1    4    4    0    0  0.19862455639E-01 -0.19714077505E-01  0.81697576732E-01  0.86359233211E-01  0.51100000000E-03 0. -1.
</event>
<event>
 8    1  0.1122848E+005  0.1043930E+01  0.7957747E-01            NaN
         13   -1    0    0    0    0  0.00000000000E+00  0.00000000000E+00  0.74505805969E-08  0.10566000000E+00  0.10566000000E+00 0. -1.
     999900   -1    0    0    0    0 -0.00000000000E+00 -0.00000000000E+00 -0.74505805969E-08  0.93827000000E+00  0.93827000000E+00 0. -1.
     999902    2    1    2    0    0  0.63464680661E-02  0.18627735691E-01  0.89771635513E-02  0.10222999362E+01  0.10220710836E+01 0.  0.
     999903    2    3    3    0    0  0.10047864889E+00  0.90612187961E-02  0.85748404292E-01  0.13390463618E+00  0.19989952089E-01 0.  0.
         14    1    1    2    0    0 -0.63464680661E-02 -0.18627735691E-01 -0.89771635513E-02  0.21630063785E-01  0.00000000000E+00 0. -1.
     999901    1    3    3    0    0 -0.94132180823E-01  0.95665168952E-02 -0.76771240741E-01  0.88839530003E+00  0.88000000000E+00 0. -1.
        -11    1    4    4    0    0  0.53300503168E-01  0.14730390955E-01  0.47634488056E-01  0.72987900566E-01  0.51100000000E-03 0. -1.
         11    1    4    4    0    0  0.47178145720E-01 -0.56691721588E-02  0.38113916236E-01  0.60916735618E-01  0.51100000000E-03 0.  1.
</event>
<event>
 8    1  0.1122848E+005  0.1043930E+01  0.7957747E-01            NaN
         13   -1    0    0    0    0  0.00000000000E+00  0.00000000000E+00  0.74505805969E-08  0.10566000000E+00  0.10566000000E+00 0. -1.
     999900   -1    0    0    0    0 -0.00000000000E+00 -0.00000000000E+00 -0.74505805969E-08  0.93827000000E+00  0.93827000000E+00 0. -1.
     999902    2    1    2    0    0  0.49919177680E-02  0.16700331473E-01  0.15806743254E-01  0.10203997334E+01  0.10201283951E+01 0.  0.
     999903    2    3    3    0    0  0.16615556001E-01 -0.12558527311E+00 -0.10301610619E-01  0.12851299822E+00  0.19019200963E-01 0.  0.
         14    1    1    2    0    0 -0.49919177680E-02 -0.16700331473E-01 -0.15806743254E-01  0.23530266607E-01  0.00000000000E+00 0.  1.
     999901    1    3    3    0    0 -0.11623638233E-01  0.14228560459E+00  0.26108353873E-01  0.89188673517E+00  0.88000000000E+00 0. -1.
        -11    1    4    4    0    0  0.30109190143E-02 -0.83629293166E-01 -0.10952109275E-01  0.84398661881E-01  0.51100000000E-03 0. -1.
         11    1    4    4    0    0  0.13604636987E-01 -0.41955979948E-01  0.65049865556E-03  0.44114336337E-01  0.51100000000E-03 0.  1.
</event>
<event>
 8    1  0.1122848E+005  0.1043930E+01  0.7957747E-01            NaN
         13   -1    0    0    0    0  0.00000000000E+00  0.00000000000E+00  0.74505805969E-08  0.10566000000E+00  0.10566000000E+00 0. -1.
     999900   -1    0    0    0    0 -0.00000000000E+00 -0.00000000000E+00 -0.74505805969E-08  0.93827000000E+00  0.93827000000E+00 0.  1.
     999902    2    1    2    0    0  0.23321279554E-01  0.44320267610E-02  0.79901888086E-02  0.10188826836E+01  0.10185747665E+01 0.  0.
     999903    2    3    3    0    0  0.37339368002E-01  0.28937191781E-01  0.12068763371E+00  0.13124665234E+00  0.20702399613E-01 0.  0.
         14    1    1    2    0    0 -0.23321279554E-01 -0.44320267610E-02 -0.79901888086E-02  0.25047316392E-01  0.00000000000E+00 0. -1.
     999901    1    3    3    0    0 -0.14018088449E-01 -0.24505165020E-01 -0.11269744490E+00  0.88763603127E+00  0.88000000000E+00 0.  1.
        -11    1    4    4    0    0 -0.52866011562E-03  0.69716140774E-02  0.99753763445E-02  0.12192298330E-01  0.51100000000E-03 0. -1.
         11    1    4    4    0    0  0.37868028118E-01  0.21965577704E-01  0.11071225736E+00  0.11905435401E+00  0.51100000000E-03 0.  1.
</event>
<event>
 8    1  0.1122848E+005  0.1043930E+01  0.7957747E-01            NaN
         13   -1    0    0    0    0  0.00000000000E+00  0.00000000000E+00  0.74505805969E-08  0.10566000000E+00  0.10566000000E+00 0. -1.
     999900   -1    0    0    0    0 -0.00000000000E+00 -0.00000000000E+00 -0.74505805969E-08  0.93827000000E+00  0.93827000000E+00 0.  1.
     999902    2    1    2    0    0  0.28869597545E-02  0.15925790680E-02 -0.23239864857E-01  0.10204574168E+01  0.10201874226E+01 0.  0.
     999903    2    3    3    0    0  0.12388936486E+00 -0.88481142658E-02 -0.39477827813E-01  0.13196753976E+00  0.20738100427E-01 0.  0.
         14    1    1    2    0    0 -0.28869597545E-02 -0.15925790680E-02  0.23239864857E-01  0.23472583226E-01  0.00000000000E+00 0. -1.
     999901    1    3    3    0    0 -0.12100240511E+00  0.10440693334E-01  0.16237962955E-01  0.88848987702E+00  0.88000000000E+00 0. -1.
        -11    1    4    4    0    0  0.46744514640E-01 -0.15996696524E-02 -0.25354857600E-01  0.53204685103E-01  0.51100000000E-03 0.  1.
         11    1    4    4    0    0  0.77144850220E-01 -0.72484446134E-02 -0.14122970213E-01  0.78762854655E-01  0.51100000000E-03 0. -1.
</event>
<event>
 8    1  0.1122848E+005  0.1043930E+01  0.7957747E-01            NaN
         13   -1    0    0    0    0  0.00000000000E+00  0.00000000000E+00  0.74505805969E-08  0.10566000000E+00  0.10566000000E+00 0. -1.
     999900   -1    0    0    0    0 -0.00000000000E+00 -0.00000000000E+00 -0.74505805969E-08  0.93827000000E+00  0.93827000000E+00 0.  1.
     999902    2    1    2    0    0 -0.61314488440E-02  0.14081625889E-01  0.17526897730E-01  0.10206259446E+01  0.10203598580E+01 0.  0.
     999903    2    3    3    0    0  0.29815638956E-01  0.83447374225E-01 -0.93280113924E-01  0.13024288437E+00  0.20238396295E-01 0.  0.
         14    1    1    2    0    0  0.61314488440E-02 -0.14081625889E-01 -0.17526897730E-01  0.23304055369E-01  0.00000000000E+00 0.  1.
     999901    1    3    3    0    0 -0.35947087800E-01 -0.69365748336E-01  0.11080701165E+00  0.89038306026E+00  0.88000000000E+00 0. -1.
        -11    1    4    4    0    0  0.15152768547E-01  0.22892510529E-01 -0.38439023413E-01  0.47238681977E-01  0.51100000000E-03 0.  1.
         11    1    4    4    0    0  0.14662870408E-01  0.60554863696E-01 -0.54841090511E-01  0.83004202396E-01  0.51100000000E-03 0. -1.
</event>
<event>
 8    1  0.1122848E+005  0.1043930E+01  0.7957747E-01            NaN
         13   -1    0    0    0    0  0.00000000000E+00  0.00000000000E+00  0.74505805969E-08  0.10566000000E+00  0.10566000000E+00 0. -1.
     999900   -1    0    0    0    0 -0.00000000000E+00 -0.00000000000E+00 -0.74505805969E-08  0.93827000000E+00  0.93827000000E+00 0. -1.
     999902    2    1    2    0    0 -0.16841767461E-01  0.24272000445E-01 -0.21129361337E-01  0.10076088623E+01  0.10069540179E+01 0.  0.
     999903    2    3    3    0    0 -0.76621642660E-01 -0.59058374462E-03  0.88167879891E-01  0.11848700980E+00  0.19858789822E-01 0.  0.
         14    1    1    2    0    0  0.16841767461E-01 -0.24272000445E-01  0.21129361337E-01  0.36321137748E-01  0.00000000000E+00 0. -1.
     999901    1    3    3    0    0  0.59779875199E-01  0.24862584189E-01 -0.10929724123E+00  0.88912185245E+00  0.88000000000E+00 0. -1.
        -11    1    4    4    0    0 -0.29082369836E-01  0.94125067458E-02  0.33818766177E-01  0.45588919544E-01  0.51100000000E-03 0. -1.
         11    1    4    4    0    0 -0.47539272824E-01 -0.10003090490E-01  0.54349113715E-01  0.72898090254E-01  0.51100000000E-03 0.  1.
</event>
<event>
 8    1  0.1122848E+005  0.1043930E+01  0.7957747E-01            NaN
         13   -1    0    0    0    0  0.00000000000E+00  0.00000000000E+00  0.74505805969E-08  0.10566000000E+00  0.10566000000E+00 0. -1.
     999900   -1    0    0    0    0 -0.00000000000E+00 -0.00000000000E+00 -0.74505805969E-08  0.93827000000E+00  0.93827000000E+00 0. -1.
     999902    2    1    2    0    0  0.18285038598E-01  0.16156377656E-01 -0.52388267884E-02  0.10189737086E+01  0.10186680530E+01 0.  0.
     999903    2    3    3    0    0  0.10399834082E+00  0.55865920790E-01 -0.56837019712E-01  0.13241519866E+00  0.19148943212E-01 0.  0.
         14    1    1    2    0    0 -0.18285038598E-01 -0.16156377656E-01  0.52388267884E-02  0.24956291424E-01  0.00000000000E+00 0. -1.
     999901    1    3    3    0    0 -0.85713302226E-01 -0.39709543134E-01  0.51598192924E-01  0.88655850992E+00  0.88000000000E+00 0. -1.
        -11    1    4    4    0    0  0.65602915374E-01  0.34329632513E-01 -0.45667407276E-01  0.86994479034E-01  0.51100000000E-03 0.  1.
         11    1    4    4    0    0  0.38395425450E-01  0.21536288278E-01 -0.11169612436E-01  0.45420719625E-01  0.51100000000E-03 0. -1.
</event>
<event>
 8    1  0.1122848E+005  0.1043930E+01  0.7957747E-01            NaN
         13   -1    0    0    0    0  0.00000000000E+00  0.00000000000E+00  0.74505805969E-08  0.10566000000E+00  0.10566000000E+00 0. -1.
     999900   -1    0    0    0    0 -0.00000000000E+00 -0.00000000000E+00 -0.74505805969E-08  0.93827000000E+00  0.93827000000E+00 0.  1.
     999902    2    1    2    0    0 -0.16530715932E-01 -0.11930082998E-01 -0.11714103259E-01  0.10204180527E+01  0.10201471417E+01 0.  0.
     999903    2    3    3    0    0 -0.52569098562E-01  0.10938995991E+00  0.41983180500E-01  0.12974374855E+00  0.18471041903E-01 0.  0.
         14    1    1    2    0    0  0.16530715932E-01  0.11930082998E-01  0.11714103259E-01  0.23511947276E-01  0.00000000000E+00 0. -1.
     999901    1    3    3    0    0  0.36038382630E-01 -0.12132004291E+00 -0.53697283760E-01  0.89067430418E+00  0.88000000000E+00 0.  1.
        -11    1    4    4    0    0 -0.36489497616E-01  0.77803174663E-01  0.20688980569E-01  0.88391812188E-01  0.51100000000E-03 0.  1.
         11    1    4    4    0    0 -0.16079600946E-01  0.31586785250E-01  0.21294199931E-01  0.41351936360E-01  0.51100000000E-03 0. -1.
</event>
<event>
 8    1  0.1122848E+005  0.1043930E+01  0.7957747E-01            NaN
         13   -1    0    0    0    0  0.00000000000E+00  0.00000000000E+00  0.74505805969E-08  0.10566000000E+00  0.10566000000E+00 0.  1.
     999900   -1    0    0    0    0 -0.00000000000E+00 -0.00000000000E+00 -0.74505805969E-08  0.93827000000E+00  0.93827000000E+00 0.  1.
     999902    2    1    2    0    0  0.43761538039E-03  0.14687470930E-02 -0.23570124883E-01  0.10203101035E+01  0.10200366698E+01 0.  0.
     999903    2    3    3    0    0  0.25553934397E-01 -0.66080109391E-01  0.10506845277E+00  0.12804245239E+00  0.18327722932E-01 0.  0.
         14    1    1    2    0    0 -0.43761538039E-03 -0.14687470930E-02  0.23570124883E-01  0.23619896533E-01  0.00000000000E+00 0.  1.
     999901    1    3    3    0    0 -0.25116319016E-01  0.67548856484E-01 -0.12863857765E+00  0.89226765107E+00  0.88000000000E+00 0. -1.
        -11    1    4    4    0    0  0.89739017178E-02 -0.11095648338E-01  0.11868545543E-01  0.18567924450E-01  0.51100000000E-03 0. -1.
         11    1    4    4    0    0  0.16580032679E-01 -0.54984461053E-01  0.93199907223E-01  0.10947452794E+00  0.51100000000E-03 0.  1.
</event>
<event>
 8    1  0.1122848E+005  0.1043930E+01  0.7957747E-01            NaN
         13   -1    0    0    0    0  0.00000000000E+00  0.00000000000E+00  0.74505805969E-08  0.10566000000E+00  0.10566000000E+00 0.  1.
     999900   -1    0    0    0    0 -0.00000000000E+00 -0.00000000000E+00 -0.74505805969E-08  0.93827000000E+00  0.93827000000E+00 0. -1.
     999902    2    1    2    0    0  0.59526845990E-02 -0.20864957448E-01  0.57065668973E-02  0.10214946304E+01  0.10212482236E+01 0.  0.
     999903    2    3    3    0    0 -0.56654573064E-01 -0.10566563468E+00 -0.54383184630E-01  0.13316946369E+00  0.20040166863E-01 0.  0.
         14    1    1    2    0    0 -0.59526845990E-02  0.20864957448E-01 -0.57065668973E-02  0.22435369598E-01  0.00000000000E+00 0. -1.
     999901    1    3    3    0    0  0.62607257663E-01  0.84800677233E-01  0.60089751527E-01  0.88832516671E+00  0.88000000000E+00 0.  1.
        -11    1    4    4    0    0 -0.45109108666E-01 -0.63936079318E-01 -0.34207424749E-01  0.85399431802E-01  0.51100000000E-03 0. -1.
         11    1    4    4    0    0 -0.11545464398E-01 -0.41729555364E-01 -0.20175759881E-01  0.47770031890E-01  0.51100000000E-03 0.  1.
</event>
<event>
 8    1  0.1122848E+005  0.1043930E+01  0.7957747E-01            NaN
         13   -1    0    0    0    0  0.00000000000E+00  0.00000000000E+00  0.74505805969E-08  0.10566000000E+00  0.10566000000E+00 0.  1.
     999900   -1    0    0    0    0 -0.00000000000E+00 -0.00000000000E+00 -0.74505805969E-08  0.93827000000E+00  0.93827000000E+00 0. -1.
     999902    2    1    2    0    0  0.55703874479E-02 -0.14647387905E-01 -0.25875969525E-01  0.10136787027E+01  0.10132272062E+01 0.  0.
     999903    2    3    3    0    0  0.92909395237E-01  0.17131378080E-01 -0.82438892388E-01  0.12697843966E+00  0.20042787298E-01 0.  0.
         14    1    1    2    0    0 -0.55703874479E-02  0.14647387905E-01  0.25875969525E-01  0.30251297289E-01  0.00000000000E+00 0.  1.
     999901    1    3    3    0    0 -0.87339007789E-01 -0.31778765985E-01  0.56562922862E-01  0.88670026305E+00  0.88000000000E+00 0. -1.
        -11    1    4    4    0    0  0.18514672005E-01  0.41894891401E-03 -0.26827219306E-01  0.32602598276E-01  0.51100000000E-03 0.  1.
         11    1    4    4    0    0  0.74394723232E-01  0.16712429166E-01 -0.55611673082E-01  0.94375841386E-01  0.51100000000E-03 0. -1.
</event>
<event>
 8    1  0.1122848E+005  0.1043930E+01  0.7957747E-01            NaN
         13   -1    0    0    0    0  0.00000000000E+00  0.00000000000E+00  0.74505805969E-08  0.10566000000E+00  0.10566000000E+00 0.  1.
     999900   -1    0    0    0    0 -0.00000000000E+00 -0.00000000000E+00 -0.74505805969E-08  0.93827000000E+00  0.93827000000E+00 0.  1.
     999902    2    1    2    0    0  0.32958060828E-02  0.16600773394E-01  0.16871913909E-01  0.10200321027E+01  0.10197521175E+01 0.  0.
     999903    2    3    3    0    0 -0.10430566408E+00  0.47007933152E-01  0.62639464950E-01  0.13177688013E+00  0.18762362028E-01 0.  0.
         14    1    1    2    0    0 -0.32958060828E-02 -0.16600773394E-01 -0.16871913909E-01  0.23897897271E-01  0.00000000000E+00 0.  1.
     999901    1    3    3    0    0  0.10760147016E+00 -0.30407159758E-01 -0.45767551041E-01  0.88825522260E+00  0.88000000000E+00 0.  1.
        -11    1    4    4    0    0 -0.67701759196E-01  0.23380550527E-01  0.31639294042E-01  0.78303795500E-01  0.51100000000E-03 0. -1.
         11    1    4    4    0    0 -0.36603904886E-01  0.23627382625E-01  0.31000170908E-01  0.53473084631E-01  0.51100000000E-03 0.  1.
</event>
<event>
 8    1  0.1122848E+005  0.1043930E+01  0.7957747E-01            NaN
         13   -1    0    0    0    0  0.00000000000E+00  0.00000000000E+00  0.74505805969E-08  0.10566000000E+00  0.10566000000E+00 0. -1.
     999900   -1    0    0    0    0 -0.00000000000E+00 -0.00000000000E+00 -0.74505805969E-08  0.93827000000E+00  0.93827000000E+00 0.  1.
     999902    2    1    2    0    0 -0.36093185365E-02 -0.23286086176E-01  0.83198551371E-03  0.10203511707E+01  0.10200786982E+01 0.  0.
     999903    2    3    3    0    0 -0.73878850826E-01  0.81486463952E-01 -0.64221418017E-01  0.12897748942E+00  0.20314375162E-01 0.  0.
         14    1    1    2    0    0  0.36093185365E-02  0.23286086176E-01 -0.83198551371E-03  0.23578829266E-01  0.00000000000E+00 0.  1.
     999901    1    3    3    0    0  0.70269532289E-01 -0.10477255013E+00  0.65053403531E-01  0.89137368131E+00  0.88000000000E+00 0. -1.
        -11    1    4    4    0    0 -0.39687999134E-01  0.35057792550E-01 -0.40314498012E-01  0.66556036276E-01  0.51100000000E-03 0. -1.
         11    1    4    4    0    0 -0.34190851691E-01  0.46428671401E-01 -0.23906920006E-01  0.62421453144E-01  0.51100000000E-03 0.  1.
</event>
<event>
 8    1  0.1122848E+005  0.1043930E+01  0.7957747E-01            NaN
         13   -1    0    0    0    0  0.00000000000E+00  0.00000000000E+00  0.74505805969E-08  0.10566000000E+00  0.10566000000E+00 0.  1.
     999900   -1    0    0    0    0 -0.00000000000E+00 -0.00000000000E+00 -0.74505805969E-08  0.93827000000E+00  0.93827000000E+00 0.  1.
     999902    2    1    2    0    0  0.17254654039E-01 -0.71659129208E-02 -0.15490140483E-01  0.10196603101E+01  0.10193714388E+01 0.  0.
     999903    2    3    3    0    0 -0.98608864932E-01  0.31645862991E-01  0.70702395752E-01  0.12704624892E+00  0.20414497585E-01 0.  0.
         14    1    1    2    0    0 -0.17254654039E-01  0.71659129208E-02  0.15490140483E-01  0.24269689865E-01  0.00000000000E+00 0. -1.
     999901    1    3    3    0    0  0.11586351897E+00 -0.38811775912E-01 -0.86192536235E-01  0.89261406122E+00  0.88000000000E+00 0. -1.
        -11    1    4    4    0    0 -0.43183866639E-01  0.20651774696E-01  0.41920785271E-01  0.63631403369E-01  0.51100000000E-03 0. -1.
         11    1    4    4    0    0 -0.55424998293E-01  0.10994088295E-01  0.28781610481E-01  0.63414845550E-01  0.51100000000E-03 0.  1.
</event>
<event>
 8    1  0.1122848E+005  0.1043930E+01  0.7957747E-01            NaN
         13   -1    0    0    0    0  0.00000000000E+00  0.00000000000E+00  0.74505805969E-08  0.10566000000E+00  0.10566000000E+00 0.  1.
     999900   -1    0    0    0    0 -0.00000000000E+00 -0.00000000000E+00 -0.74505805969E-08  0.93827000000E+00  0.93827000000E+00 0. -1.
     999902    2    1    2    0    0  0.33496178762E-02 -0.23651078044E-01 -0.33639906107E-02  0.10198071920E+01  0.10195218482E+01 0.  0.
     999903    2    3    3    0    0  0.86941173461E-01  0.16939740878E-01 -0.93888553629E-01  0.13029616945E+00  0.17785072584E-01 0.  0.
         14    1    1    2    0    0 -0.33496178762E-02  0.23651078044E-01  0.33639906107E-02  0.24122807991E-01  0.00000000000E+00 0.  1.
     999901    1    3    3    0    0 -0.83591555585E-01 -0.40590818922E-01  0.90524563018E-01  0.88951102256E+00  0.88000000000E+00 0.  1.
        -11    1    4    4    0    0  0.24352733219E-01  0.45031126090E-02 -0.15515006017E-01  0.29228584829E-01  0.51100000000E-03 0. -1.
         11    1    4    4    0    0  0.62588440242E-01  0.12436628269E-01 -0.78373547612E-01  0.10106758462E+00  0.51100000000E-03 0.  1.
</event>
<event>
 8    1  0.1122848E+005  0.1043930E+01  0.7957747E-01            NaN
         13   -1    0    0    0    0  0.00000000000E+00  0.00000000000E+00  0.74505805969E-08  0.10566000000E+00  0.10566000000E+00 0.  1.
     999900   -1    0    0    0    0 -0.00000000000E+00 -0.00000000000E+00 -0.74505805969E-08  0.93827000000E+00  0.93827000000E+00 0. -1.
     999902    2    1    2    0    0  0.99440618622E-02  0.14888160321E-01 -0.16623936088E-01  0.10194985257E+01  0.10192057432E+01 0.  0.
     999903    2    3    3    0    0  0.68920481050E-01  0.90642880923E-01  0.61104054214E-01  0.13087113689E+00  0.20673278879E-01 0.  0.
         14    1    1    2    0    0 -0.99440618622E-02 -0.14888160321E-01  0.16623936088E-01  0.24431474273E-01  0.00000000000E+00 0.  1.
     999901    1    3    3    0    0 -0.58976419187E-01 -0.75754720602E-01 -0.77727990302E-01  0.88862738884E+00  0.88000000000E+00 0. -1.
        -11    1    4    4    0    0  0.64301954243E-01  0.80791126820E-01  0.48110572818E-01  0.11391591561E+00  0.51100000000E-03 0. -1.
         11    1    4    4    0    0  0.46185268071E-02  0.98517541031E-02  0.12993481396E-01  0.16955221277E-01  0.51100000000E-03 0.  1.
</event>
<event>
 8    1  0.1122848E+005  0.1043930E+01  0.7957747E-01            NaN
         13   -1    0    0    0    0  0.00000000000E+00  0.00000000000E+00  0.74505805969E-08  0.10566000000E+00  0.10566000000E+00 0.  1.
     999900   -1    0    0    0    0 -0.00000000000E+00 -0.00000000000E+00 -0.74505805969E-08  0.93827000000E+00  0.93827000000E+00 0. -1.
     999902    2    1    2    0    0  0.10543874134E-01 -0.17070101572E-01  0.13207623931E-01  0.10199091137E+01  0.10196262046E+01 0.  0.
     999903    2    3    3    0    0 -0.13758519820E-01  0.74618957026E-01  0.10394436116E+00  0.13017283517E+00  0.19576802229E-01 0.  0.
         14    1    1    2    0    0 -0.10543874134E-01  0.17070101572E-01 -0.13207623931E-01  0.24020886315E-01  0.00000000000E+00 0. -1.
     999901    1    3    3    0    0  0.24302393954E-01 -0.91689058598E-01 -0.90736737225E-01  0.88973627851E+00  0.88000000000E+00 0. -1.
        -11    1    4    4    0    0  0.32248294525E-02  0.33835475611E-01  0.49693995533E-01  0.60207916821E-01  0.51100000000E-03 0. -1.
         11    1    4    4    0    0 -0.16983349272E-01  0.40783481415E-01  0.54250365623E-01  0.69964918352E-01  0.51100000000E-03 0.  1.
</event>
<event>
 8    1  0.1122848E+005  0.1043930E+01  0.7957747E-01            NaN
         13   -1    0    0    0    0  0.00000000000E+00  0.00000000000E+00  0.74505805969E-08  0.10566000000E+00  0.10566000000E+00 0. -1.
     999900   -1    0    0    0    0 -0.00000000000E+00 -0.00000000000E+00 -0.74505805969E-08  0.93827000000E+00  0.93827000000E+00 0. -1.
     999902    2    1    2    0    0 -0.10295320244E-01  0.18706260578E-01  0.11030303781E-01  0.10198969934E+01  0.10196137954E+01 0.  0.
     999903    2    3    3    0    0  0.12829946852E-01 -0.11893698670E+00 -0.39334684490E-01  0.12747496683E+00  0.19799884385E-01 0.  0.
         14    1    1    2    0    0  0.10295320244E-01 -0.18706260578E-01 -0.11030303781E-01  0.24033006580E-01  0.00000000000E+00 0.  1.
     999901    1    3    3    0    0 -0.23125267096E-01  0.13764324728E+00  0.50364988271E-01  0.89242202659E+00  0.88000000000E+00 0. -1.
        -11    1    4    4    0    0  0.60494446837E-02 -0.79082145833E-01 -0.35390340499E-01  0.86852282020E-01  0.51100000000E-03 0.  1.
         11    1    4    4    0    0  0.67805021684E-02 -0.39854840872E-01 -0.39443439905E-02  0.40622684809E-01  0.51100000000E-03 0. -1.
</event>
<event>
 8    1  0.1811290E+005  0.1043930E+01  0.7957747E-01            NaN
         13   -1    0    0    0    0  0.00000000000E+00  0.00000000000E+00  0.74505805969E-08  0.10566000000E+00  0.10566000000E+00 0. -1.
     999900   -1    0    0    0    0 -0.00000000000E+00 -0.00000000000E+00 -0.74505805969E-08  0.93827000000E+00  0.93827000000E+00 0. -1.
     999902    2    1    2    0    0 -0.25639628986E-01  0.19818542052E-01  0.17810269683E-01  0.10069520216E+01  0.10062728272E+01 0.  0.
     999903    2    3    3    0    0  0.89299974550E-01 -0.14563955790E-01 -0.67588865459E-01  0.11471534841E+00  0.20118701855E-01 0.  0.
         14    1    1    2    0    0  0.25639628986E-01 -0.19818542052E-01 -0.17810269683E-01  0.36977978444E-01  0.00000000000E+00 0.  1.
     999901    1    3    3    0    0 -0.11493960354E+00  0.34382497842E-01  0.85399135142E-01  0.89223667314E+00  0.88000000000E+00 0.  1.
        -11    1    4    4    0    0  0.32499317356E-01 -0.14202457787E-01 -0.31325171092E-01  0.47322752463E-01  0.51100000000E-03 0.  1.
         11    1    4    4    0    0  0.56800657195E-01 -0.36149800250E-03 -0.36263694368E-01  0.67392595949E-01  0.51100000000E-03 0. -1.
</event>
<event>
 8    1  0.1122848E+005  0.1043930E+01  0.7957747E-01            NaN
         13   -1    0    0    0    0  0.00000000000E+00  0.00000000000E+00  0.74505805969E-08  0.10566000000E+00  0.10566000000E+00 0.  1.
     999900   -1    0    0    0    0 -0.00000000000E+00 -0.00000000000E+00 -0.74505805969E-08  0.93827000000E+00  0.93827000000E+00 0. -1.
     999902    2    1    2    0    0 -0.98666564105E-02  0.22220188324E-02  0.21351683276E-01  0.10203041105E+01  0.10200305364E+01 0.  0.
     999903    2    3    3    0    0  0.11244978590E+00  0.52174635927E-01  0.35103737132E-01  0.13033461944E+00  0.19689938598E-01 0.  0.
         14    1    1    2    0    0  0.98666564105E-02 -0.22220188324E-02 -0.21351683276E-01  0.23625889510E-01  0.00000000000E+00 0. -1.
     999901    1    3    3    0    0 -0.12231644231E+00 -0.49952617095E-01 -0.13752053856E-01  0.88996949105E+00  0.88000000000E+00 0. -1.
        -11    1    4    4    0    0  0.15383169557E-01  0.14979697297E-01  0.78905428456E-02  0.22881324790E-01  0.51100000000E-03 0. -1.
         11    1    4    4    0    0  0.97066616339E-01  0.37194938631E-01  0.27213194287E-01  0.10745329465E+00  0.51100000000E-03 0.  1.
</event>
<event>
 8    1  0.1122848E+005  0.1043930E+01  0.7957747E-01            NaN
         13   -1    0    0    0    0  0.00000000000E+00  0.00000000000E+00  0.74505805969E-08  0.10566000000E+00  0.10566000000E+00 0.  1.
     999900   -1    0    0    0    0 -0.00000000000E+00 -0.00000000000E+00 -0.74505805969E-08  0.93827000000E+00  0.93827000000E+00 0. -1.
     999902    2    1    2    0    0 -0.59560239379E-02 -0.18573564249E-01  0.23454804683E-02  0.10242843188E+01  0.10240959003E+01 0.  0.
     999903    2    3    3    0    0  0.54320514833E-02 -0.13340106521E+00  0.20507218529E-01  0.13656539261E+00  0.20104951225E-01 0.  0.
         14    1    1    2    0    0  0.59560239379E-02  0.18573564249E-01 -0.23454804683E-02  0.19645681172E-01  0.00000000000E+00 0. -1.
     999901    1    3    3    0    0 -0.11388075421E-01  0.11482750096E+00 -0.18161738061E-01  0.88771892622E+00  0.88000000000E+00 0.  1.
        -11    1    4    4    0    0  0.44684033545E-02 -0.12671075694E+00  0.23839036766E-01  0.12901218295E+00  0.51100000000E-03 0.  1.
         11    1    4    4    0    0  0.96364812874E-03 -0.66903082682E-02 -0.33318182371E-02  0.75532096624E-02  0.51100000000E-03 0. -1.
</event>
<event>
 8    1  0.1122848E+005  0.1043930E+01  0.7957747E-01            NaN
         13   -1    0    0    0    0  0.00000000000E+00  0.00000000000E+00  0.74505805969E-08  0.10566000000E+00  0.10566000000E+00 0.  1.
     999900   -1    0    0    0    0 -0.00000000000E+00 -0.00000000000E+00 -0.74505805969E-08  0.93827000000E+00  0.93827000000E+00 0.  1.
     999902    2    1    2    0    0  0.20690327797E-01 -0.66698308257E-02  0.10655379119E-01  0.10197202207E+01  0.10194327909E+01 0.  0.
     999903    2    3    3    0    0 -0.13965218781E-01  0.10633263056E+00 -0.67661845640E-01  0.12837059748E+00  0.19980722829E-01 0.  0.
         14    1    1    2    0    0 -0.20690327797E-01  0.66698308257E-02 -0.10655379119E-01  0.24209779259E-01  0.00000000000E+00 0. -1.
     999901    1    3    3    0    0  0.34655546578E-01 -0.11300246139E+00  0.78317224759E-01  0.89134962326E+00  0.88000000000E+00 0. -1.
        -11    1    4    4    0    0 -0.15750417234E-01  0.63071866386E-01 -0.33007807138E-01  0.72910303973E-01  0.51100000000E-03 0.  1.
         11    1    4    4    0    0  0.17851984532E-02  0.43260764177E-01 -0.34654038502E-01  0.55460293510E-01  0.51100000000E-03 0. -1.
</event>
<event>
 8    1  0.1122848E+005  0.1043930E+01  0.7957747E-01            NaN
         13   -1    0    0    0    0  0.00000000000E+00  0.00000000000E+00  0.74505805969E-08  0.10566000000E+00  0.10566000000E+00 0.  1.
     999900   -1    0    0    0    0 -0.00000000000E+00 -0.00000000000E+00 -0.74505805969E-08  0.93827000000E+00  0.93827000000E+00 0. -1.
     999902    2    1    2    0    0 -0.20746001688E-01  0.66815066842E-03 -0.93321949987E-02  0.10211718613E+01  0.10209182325E+01 0.  0.
     999903    2    3    3    0    0  0.53470511014E-01 -0.11581832910E+00 -0.17926363351E-01  0.13035703746E+00  0.19965515478E-01 0.  0.
         14    1    1    2    0    0  0.20746001688E-01 -0.66815066842E-03  0.93321949987E-02  0.22758138651E-01  0.00000000000E+00 0.  1.
     999901    1    3    3    0    0 -0.74216512702E-01  0.11648647977E+00  0.85941683527E-02  0.89081482389E+00  0.88000000000E+00 0.  1.
        -11    1    4    4    0    0  0.54959811024E-01 -0.11181042001E+00 -0.15904919111E-01  0.12560007334E+00  0.51100000000E-03 0. -1.
         11    1    4    4    0    0 -0.14893000093E-02 -0.40079090935E-02 -0.20214442403E-02  0.47569641197E-02  0.51100000000E-03 0.  1.
</event>
<event>
 8    1  0.1186934E+005  0.1043930E+01  0.7957747E-01            NaN
         13   -1    0    0    0    0  0.00000000000E+00  0.00000000000E+00  0.74505805969E-08  0.10566000000E+00  0.10566000000E+00 0. -1.
     999900   -1    0    0    0    0 -0.00000000000E+00 -0.00000000000E+00 -0.74505805969E-08  0.93827000000E+00  0.93827000000E+00 0. -1.
     999902    2    1    2    0    0  0.12734672596E-01 -0.58554388695E-02 -0.19012780719E-01  0.10203091643E+01  0.10200357086E+01 0.  0.
     999903    2    3    3    0    0 -0.79146653913E-02 -0.60579308215E-01  0.11142924327E+00  0.12877328800E+00  0.20822798420E-01 0.  0.
         14    1    1    2    0    0 -0.12734672596E-01  0.58554388695E-02  0.19012780719E-01  0.23620835742E-01  0.00000000000E+00 0.  1.
     999901    1    3    3    0    0  0.20649337987E-01  0.54723869345E-01 -0.13044202399E+00  0.89153587626E+00  0.88000000000E+00 0. -1.
        -11    1    4    4    0    0 -0.12800619879E-01 -0.37086609653E-01  0.56070269390E-01  0.68435434647E-01  0.51100000000E-03 0.  1.
         11    1    4    4    0    0  0.48859544873E-02 -0.23492698562E-01  0.55358973881E-01  0.60337853352E-01  0.51100000000E-03 0. -1.
</event>
<event>
 8    1  0.1122848E+005  0.1043930E+01  0.7957747E-01            NaN
         13   -1    0    0    0    0  0.00000000000E+00  0.00000000000E+00  0.74505805969E-08  0.10566000000E+00  0.10566000000E+00 0.  1.
     999900   -1    0    0    0    0 -0.00000000000E+00 -0.00000000000E+00 -0.74505805969E-08  0.93827000000E+00  0.93827000000E+00 0. -1.
     999902    2    1    2    0    0 -0.20984973090E-01  0.22737339009E-02  0.54758439312E-02  0.10221234912E+01  0.10218908490E+01 0.  0.
     999903    2    3    3    0    0 -0.10570269158E+00  0.79228332127E-01  0.16614888219E-01  0.13464212215E+00  0.20056393687E-01 0.  0.
         14    1    1    2    0    0  0.20984973090E-01 -0.22737339009E-02 -0.54758439312E-02  0.21806508849E-01  0.00000000000E+00 0. -1.
     999901    1    3    3    0    0  0.84717718491E-01 -0.76954598226E-01 -0.11139044288E-01  0.88748136900E+00  0.88000000000E+00 0. -1.
        -11    1    4    4    0    0 -0.76603937706E-01  0.56336035706E-01  0.28325554981E-02  0.95132521689E-01  0.51100000000E-03 0. -1.
         11    1    4    4    0    0 -0.29098753874E-01  0.22892296421E-01  0.13782332721E-01  0.39509600462E-01  0.51100000000E-03 0.  1.
</event>
<event>
 8    1  0.1122848E+005  0.1043930E+01  0.7957747E-01            NaN
         13   -1    0    0    0    0  0.00000000000E+00  0.00000000000E+00  0.74505805969E-08  0.10566000000E+00  0.10566000000E+00 0.  1.
     999900   -1    0    0    0    0 -0.00000000000E+00 -0.00000000000E+00 -0.74505805969E-08  0.93827000000E+00  0.93827000000E+00 0. -1.
     999902    2    1    2    0    0  0.22131782577E-01  0.97752248823E-02 -0.75767452096E-02  0.10185769353E+01  0.10182613590E+01 0.  0.
     999903    2    3    3    0    0  0.54660410746E-01 -0.11018993908E+00  0.33169623118E-01  0.12890844719E+00  0.19687068894E-01 0.  0.
         14    1    1    2    0    0 -0.22131782577E-01 -0.97752248823E-02  0.75767452096E-02  0.25353064696E-01  0.00000000000E+00 0. -1.
     999901    1    3    3    0    0 -0.32528628169E-01  0.11996516396E+00 -0.40746368328E-01  0.88966848812E+00  0.88000000000E+00 0. -1.
        -11    1    4    4    0    0  0.36880135216E-01 -0.77988391814E-01  0.13911939742E-01  0.87384991959E-01  0.51100000000E-03 0.  1.
         11    1    4    4    0    0  0.17780275530E-01 -0.32201547264E-01  0.19257683376E-01  0.41523455229E-01  0.51100000000E-03 0. -1.
</event>
<event>
 8    1  0.1122848E+005  0.1043930E+01  0.7957747E-01            NaN
         13   -1    0    0    0    0  0.00000000000E+00  0.00000000000E+00  0.74505805969E-08  0.10566000000E+00  0.10566000000E+00 0. -1.
     999900   -1    0    0    0    0 -0.00000000000E+00 -0.00000000000E+00 -0.74505805969E-08  0.93827000000E+00  0.93827000000E+00 0. -1.
     999902    2    1    2    0    0 -0.10797134055E-02 -0.13004463129E-01  0.18856882330E-01  0.10209982784E+01  0.10207407216E+01 0.  0.
     999903    2    3    3    0    0  0.30209396024E-01 -0.79832566203E-01 -0.96452472848E-01  0.13041349802E+00  0.20463497081E-01 0.  0.
         14    1    1    2    0    0  0.10797134055E-02  0.13004463129E-01 -0.18856882330E-01  0.22931721556E-01  0.00000000000E+00 0.  1.
     999901    1    3    3    0    0 -0.31289109430E-01  0.66828103074E-01  0.11530935518E+00  0.89058478042E+00  0.88000000000E+00 0.  1.
        -11    1    4    4    0    0  0.30464290218E-02 -0.89259845302E-02 -0.22575673186E-01  0.24471944558E-01  0.51100000000E-03 0. -1.
         11    1    4    4    0    0  0.27162967002E-01 -0.70906581673E-01 -0.73876799661E-01  0.10594155346E+00  0.51100000000E-03 0.  1.
</event>
<event>
 8    1  0.1122848E+005  0.1043930E+01  0.7957747E-01            NaN
         13   -1    0    0    0    0  0.00000000000E+00  0.00000000000E+00  0.74505805969E-08  0.10566000000E+00  0.10566000000E+00 0.  1.
     999900   -1    0    0    0    0 -0.00000000000E+00 -0.00000000000E+00 -0.74505805969E-08  0.93827000000E+00  0.93827000000E+00 0.  1.
     999902    2    1    2    0    0  0.17689637932E-02 -0.20574068254E-01 -0.98740550901E-02  0.10210407344E+01  0.10207841411E+01 0.  0.
     999903    2    3    3    0    0  0.49090073195E-01  0.10452844108E+00 -0.55581393690E-01  0.12976126863E+00  0.20314163287E-01 0.  0.
         14    1    1    2    0    0 -0.17689637932E-02  0.20574068254E-01  0.98740550901E-02  0.22889265636E-01  0.00000000000E+00 0.  1.
     999901    1    3    3    0    0 -0.47321109402E-01 -0.12510250934E+00  0.45707338600E-01  0.89127946573E+00  0.88000000000E+00 0.  1.
        -11    1    4    4    0    0  0.39186096302E-01  0.63608493040E-01 -0.40874850309E-01  0.85162227772E-01  0.51100000000E-03 0. -1.
         11    1    4    4    0    0  0.99039768926E-02  0.40919948044E-01 -0.14706543381E-01  0.44599040858E-01  0.51100000000E-03 0.  1.
</event>
<event>
 8    1  0.1122848E+005  0.1043930E+01  0.7957747E-01            NaN
         13   -1    0    0    0    0  0.00000000000E+00  0.00000000000E+00  0.74505805969E-08  0.10566000000E+00  0.10566000000E+00 0. -1.
     999900   -1    0    0    0    0 -0.00000000000E+00 -0.00000000000E+00 -0.74505805969E-08  0.93827000000E+00  0.93827000000E+00 0. -1.
     999902    2    1    2    0    0 -0.15644528445E-01 -0.82319522441E-02 -0.16048986299E-01  0.10200535206E+01  0.10197740429E+01 0.  0.
     999903    2    3    3    0    0 -0.55645816118E-01  0.91863048401E-01  0.70826330846E-01  0.12923006282E+00  0.12196863660E-01 0.  0.
         14    1    1    2    0    0  0.15644528445E-01  0.82319522441E-02  0.16048986299E-01  0.23876479415E-01  0.00000000000E+00 0. -1.
     999901    1    3    3    0    0  0.40001287673E-01 -0.10009500065E+00 -0.86875317145E-01  0.89082345776E+00  0.88000000000E+00 0.  1.
        -11    1    4    4    0    0 -0.45080693216E-01  0.71331903608E-01  0.61036315654E-01  0.10414510225E+00  0.51100000000E-03 0.  1.
         11    1    4    4    0    0 -0.10565122902E-01  0.20531144794E-01  0.97900151917E-02  0.25084960573E-01  0.51100000000E-03 0. -1.
</event>
<event>
 8    1  0.1122848E+005  0.1043930E+01  0.7957747E-01            NaN
         13   -1    0    0    0    0  0.00000000000E+00  0.00000000000E+00  0.74505805969E-08  0.10566000000E+00  0.10566000000E+00 0.  1.
     999900   -1    0    0    0    0 -0.00000000000E+00 -0.00000000000E+00 -0.74505805969E-08  0.93827000000E+00  0.93827000000E+00 0. -1.
     999902    2    1    2    0    0 -0.28926511650E-02  0.92852095886E-02  0.22327324708E-01  0.10195765202E+01  0.10192856266E+01 0.  0.
     999903    2    3    3    0    0  0.42227651884E-02  0.74644684559E-01 -0.10227884891E+00  0.12836992880E+00  0.20693356576E-01 0.  0.
         14    1    1    2    0    0  0.28926511650E-02 -0.92852095886E-02 -0.22327324708E-01  0.24353479761E-01  0.00000000000E+00 0. -1.
     999901    1    3    3    0    0 -0.71154163534E-02 -0.65359474971E-01  0.12460617362E+00  0.89120659144E+00  0.88000000000E+00 0.  1.
        -11    1    4    4    0    0  0.68915485761E-02  0.32160796591E-01 -0.30184325961E-01  0.44644875785E-01  0.51100000000E-03 0.  1.
         11    1    4    4    0    0 -0.26687833877E-02  0.42483887968E-01 -0.72094522953E-01  0.83725053016E-01  0.51100000000E-03 0. -1.
</event>
<event>
 8    1  0.1122848E+005  0.1043930E+01  0.7957747E-01            NaN
         13   -1    0    0    0    0  0.00000000000E+00  0.00000000000E+00  0.74505805969E-08  0.10566000000E+00  0.10566000000E+00 0. -1.
     999900   -1    0    0    0    0 -0.00000000000E+00 -0.00000000000E+00 -0.74505805969E-08  0.93827000000E+00  0.93827000000E+00 0. -1.
     999902    2    1    2    0    0  0.10743644700E-01 -0.21858606148E-01  0.10663302953E-02  0.10195504671E+01  0.10192589432E+01 0.  0.
     999903    2    3    3    0    0  0.10887944029E+00  0.41399169339E-01  0.54511681733E-01  0.13023129710E+00  0.20494964268E-01 0.  0.
         14    1    1    2    0    0 -0.10743644700E-01  0.21858606148E-01 -0.10663302953E-02  0.24379532901E-01  0.00000000000E+00 0.  1.
     999901    1    3    3    0    0 -0.98135795587E-01 -0.63257775487E-01 -0.53445351437E-01  0.88931917000E+00  0.88000000000E+00 0.  1.
        -11    1    4    4    0    0  0.92042916283E-01  0.26642221626E-01  0.45753417153E-01  0.10618541667E+00  0.51100000000E-03 0. -1.
         11    1    4    4    0    0  0.16836524004E-01  0.14756947712E-01  0.87582645794E-02  0.24045880432E-01  0.51100000000E-03 0.  1.
</event>
<event>
 8    1  0.1122848E+005  0.1043930E+01  0.7957747E-01            NaN
         13   -1    0    0    0    0  0.00000000000E+00  0.00000000000E+00  0.74505805969E-08  0.10566000000E+00  0.10566000000E+00 0.  1.
     999900   -1    0    0    0    0 -0.00000000000E+00 -0.00000000000E+00 -0.74505805969E-08  0.93827000000E+00  0.93827000000E+00 0. -1.
     999902    2    1    2    0    0 -0.18689233939E-01 -0.14251312241E-01  0.33879480563E-02  0.10201841465E+01  0.10199077543E+01 0.  0.
     999903    2    3    3    0    0 -0.53678157093E-01 -0.73512885959E-01 -0.93820015617E-01  0.13216075320E+00  0.19462281623E-01 0.  0.
         14    1    1    2    0    0  0.18689233939E-01  0.14251312241E-01 -0.33879480563E-02  0.23745853487E-01  0.00000000000E+00 0. -1.
     999901    1    3    3    0    0  0.34988923154E-01  0.59261573718E-01  0.97207963673E-01  0.88802339331E+00  0.88000000000E+00 0.  1.
        -11    1    4    4    0    0 -0.44585705269E-01 -0.46717747432E-01 -0.69149028837E-01  0.94616501465E-01  0.51100000000E-03 0.  1.
         11    1    4    4    0    0 -0.90924518242E-02 -0.26795138527E-01 -0.24670986780E-01  0.37544251738E-01  0.51100000000E-03 0. -1.
</event>
<event>
 8    1  0.1122848E+005  0.1043930E+01  0.7957747E-01            NaN
         13   -1    0    0    0    0  0.00000000000E+00  0.00000000000E+00  0.74505805969E-08  0.10566000000E+00  0.10566000000E+00 0. -1.
     999900   -1    0    0    0    0 -0.00000000000E+00 -0.00000000000E+00 -0.74505805969E-08  0.93827000000E+00  0.93827000000E+00 0. -1.
     999902    2    1    2    0    0 -0.22663307249E-01  0.41222935583E-02  0.56394709936E-02  0.10202145529E+01  0.10199388763E+01 0.  0.
     999903    2    3    3    0    0 -0.10199533879E+00 -0.77843374084E-01 -0.23744153000E-01  0.13236583869E+00  0.22232643303E-01 0.  0.
         14    1    1    2    0    0  0.22663307249E-01 -0.41222935583E-02 -0.56394709936E-02  0.23715447133E-01  0.00000000000E+00 0. -1.
     999901    1    3    3    0    0  0.79332031538E-01  0.81965667643E-01  0.29383623993E-01  0.88784871417E+00  0.88000000000E+00 0. -1.
        -11    1    4    4    0    0 -0.43697995998E-01 -0.27686468656E-01  0.47817595198E-03  0.51735337770E-01  0.51100000000E-03 0.  1.
         11    1    4    4    0    0 -0.58297342788E-01 -0.50156905429E-01 -0.24222328952E-01  0.80630500924E-01  0.51100000000E-03 0. -1.
</event>
<event>
 8    1  0.1122848E+005  0.1043930E+01  0.7957747E-01            NaN
         13   -1    0    0    0    0  0.00000000000E+00  0.00000000000E+00  0.74505805969E-08  0.10566000000E+00  0.10566000000E+00 0. -1.
     999900   -1    0    0    0    0 -0.00000000000E+00 -0.00000000000E+00 -0.74505805969E-08  0.93827000000E+00  0.93827000000E+00 0.  1.
     999902    2    1    2    0    0 -0.14330324589E-02  0.20924316455E-01  0.10169454777E-01  0.10206212375E+01  0.10203550421E+01 0.  0.
     999903    2    3    3    0    0  0.78931768180E-01 -0.89333542634E-03  0.10381301676E+00  0.13174350243E+00  0.18659740292E-01 0.  0.
         14    1    1    2    0    0  0.14330324589E-02 -0.20924316455E-01 -0.10169454777E-01  0.23308762550E-01  0.00000000000E+00 0. -1.
     999901    1    3    3    0    0 -0.80364800639E-01  0.21817651881E-01 -0.93643561981E-01  0.88887773502E+00  0.88000000000E+00 0.  1.
        -11    1    4    4    0    0  0.35013385845E-01  0.37738699088E-02  0.32875970858E-01  0.48179558563E-01  0.51100000000E-03 0.  1.
         11    1    4    4    0    0  0.43918382335E-01 -0.46672053351E-02  0.70937045900E-01  0.83563943867E-01  0.51100000000E-03 0. -1.
</event>
<event>
 8    1  0.1122848E+005  0.1043930E+01  0.7957747E-01            NaN
         13   -1    0    0    0    0  0.00000000000E+00  0.00000000000E+00  0.74505805969E-08  0.10566000000E+00  0.10566000000E+00 0. -1.
     999900   -1    0    0    0    0 -0.00000000000E+00 -0.00000000000E+00 -0.74505805969E-08  0.93827000000E+00  0.93827000000E+00 0. -1.
     999902    2    1    2    0    0  0.16032763252E-01  0.23013734119E-02  0.14586922432E-01  0.10221326579E+01  0.10219002134E+01 0.  0.
     999903    2    3    3    0    0  0.10339864957E+00  0.58950624010E-01  0.60053812964E-01  0.13482821531E+00  0.20142750286E-01 0.  0.
         14    1    1    2    0    0 -0.16032763252E-01 -0.23013734119E-02 -0.14586922432E-01  0.21797342111E-01  0.00000000000E+00 0.  1.
     999901    1    3    3    0    0 -0.87365886314E-01 -0.56649250598E-01 -0.45466890532E-01  0.88730444258E+00  0.88000000000E+00 0. -1.
        -11    1    4    4    0    0  0.25231367859E-01  0.88191506773E-02  0.60683735697E-02  0.27413238070E-01  0.51100000000E-03 0. -1.
         11    1    4    4    0    0  0.78167281706E-01  0.50131473333E-01  0.53985439394E-01  0.10741497724E+00  0.51100000000E-03 0.  1.
</event>
<event>
 8    1  0.1460459E+005  0.1043930E+01  0.7957747E-01            NaN
         13   -1    0    0    0    0  0.00000000000E+00  0.00000000000E+00  0.74505805969E-08  0.10566000000E+00  0.10566000000E+00 0. -1.
     999900   -1    0    0    0    0 -0.00000000000E+00 -0.00000000000E+00 -0.74505805969E-08  0.93827000000E+00  0.93827000000E+00 0. -1.
     999902    2    1    2    0    0  0.11222255779E-01 -0.13226381553E-01 -0.16310980740E-01  0.10201198281E+01  0.10198419188E+01 0.  0.
     999903    2    3    3    0    0  0.34180014542E-01  0.63228295301E-01  0.10443439745E+00  0.12829483256E+00  0.19670535586E-01 0.  0.
         14    1    1    2    0    0 -0.11222255779E-01  0.13226381553E-01  0.16310980740E-01  0.23810171912E-01  0.00000000000E+00 0. -1.
     999901    1    3    3    0    0 -0.22957758763E-01 -0.76454676854E-01 -0.12074537819E+00  0.89182499553E+00  0.88000000000E+00 0. -1.
        -11    1    4    4    0    0  0.39117314229E-02  0.27028707495E-01  0.39496025030E-01  0.48021347188E-01  0.51100000000E-03 0. -1.
         11    1    4    4    0    0  0.30268283119E-01  0.36199587806E-01  0.64938372416E-01  0.80273485370E-01  0.51100000000E-03 0.  1.
</event>
<event>
 8    1  0.1229560E+005  0.1043930E+01  0.7957747E-01            NaN
         13   -1    0    0    0    0  0.00000000000E+00  0.00000000000E+00  0.74505805969E-08  0.10566000000E+00  0.10566000000E+00 0.  1.
     999900   -1    0    0    0    0 -0.00000000000E+00 -0.00000000000E+00 -0.74505805969E-08  0.93827000000E+00  0.93827000000E+00 0. -1.
     999902    2    1    2    0    0 -0.65875012569E-04 -0.23362529808E-01  0.38356096261E-02  0.10202546111E+01  0.10199798760E+01 0.  0.
     999903    2    3    3    0    0  0.21786547927E-02 -0.13200974566E+00 -0.17673834044E-02  0.13355249147E+00  0.20045569269E-01 0.  0.
         14    1    1    2    0    0  0.65875012569E-04  0.23362529808E-01 -0.38356096261E-02  0.23675388904E-01  0.00000000000E+00 0.  1.
     999901    1    3    3    0    0 -0.22445298053E-02  0.10864721585E+00  0.56029930305E-02  0.88670211963E+00  0.88000000000E+00 0.  1.
        -11    1    4    4    0    0 -0.88142882913E-02 -0.47410590872E-01 -0.19462777717E-03  0.48226080142E-01  0.51100000000E-03 0.  1.
         11    1    4    4    0    0  0.10992943084E-01 -0.84599154786E-01 -0.15727556273E-02  0.85326411324E-01  0.51100000000E-03 0. -1.
</event>
<event>
 8    1  0.1122848E+005  0.1043930E+01  0.7957747E-01            NaN
         13   -1    0    0    0    0  0.00000000000E+00  0.00000000000E+00  0.74505805969E-08  0.10566000000E+00  0.10566000000E+00 0. -1.
     999900   -1    0    0    0    0 -0.00000000000E+00 -0.00000000000E+00 -0.74505805969E-08  0.93827000000E+00  0.93827000000E+00 0. -1.
     999902    2    1    2    0    0 -0.17244533644E-01  0.69537398358E-02 -0.14081387644E-01  0.10206058941E+01  0.10203393441E+01 0.  0.
     999903    2    3    3    0    0  0.10490470682E+00 -0.60261267636E-01  0.37437561060E-01  0.12814161120E+00  0.19552075372E-01 0.  0.
         14    1    1    2    0    0  0.17244533644E-01 -0.69537398358E-02  0.14081387644E-01  0.23324105905E-01  0.00000000000E+00 0.  1.
     999901    1    3    3    0    0 -0.12214924046E+00  0.67215007472E-01 -0.51518948704E-01  0.89246428290E+00  0.88000000000E+00 0.  1.
        -11    1    4    4    0    0  0.43978535570E-01 -0.34395629821E-01  0.23049517340E-01  0.60404571949E-01  0.51100000000E-03 0.  1.
         11    1    4    4    0    0  0.60926171250E-01 -0.25865637815E-01  0.14388043721E-01  0.67737039247E-01  0.51100000000E-03 0. -1.
</event>
<event>
 8    1  0.1122848E+005  0.1043930E+01  0.7957747E-01            NaN
         13   -1    0    0    0    0  0.00000000000E+00  0.00000000000E+00  0.74505805969E-08  0.10566000000E+00  0.10566000000E+00 0.  1.
     999900   -1    0    0    0    0 -0.00000000000E+00 -0.00000000000E+00 -0.74505805969E-08  0.93827000000E+00  0.93827000000E+00 0. -1.
     999902    2    1    2    0    0 -0.23655881000E-01  0.38088668516E-02  0.16904942977E-03  0.10199688491E+01  0.10196873621E+01 0.  0.
     999903    2    3    3    0    0 -0.85833754967E-01  0.28183001603E-01 -0.94701064186E-01  0.13235377215E+00  0.19685384743E-01 0.  0.
         14    1    1    2    0    0  0.23655881000E-01 -0.38088668516E-02 -0.16904942977E-03  0.23961150855E-01  0.00000000000E+00 0.  1.
     999901    1    3    3    0    0  0.62177873968E-01 -0.24374134752E-01  0.94870113616E-01  0.88761507700E+00  0.88000000000E+00 0.  1.
        -11    1    4    4    0    0 -0.55689672119E-01  0.25360058873E-01 -0.72103702152E-01  0.94571016446E-01  0.51100000000E-03 0.  1.
         11    1    4    4    0    0 -0.30144082849E-01  0.28229427307E-02 -0.22597362035E-01  0.37782755701E-01  0.51100000000E-03 0. -1.
</event>
<event>
 8    1  0.1122848E+005  0.1043930E+01  0.7957747E-01            NaN
         13   -1    0    0    0    0  0.00000000000E+00  0.00000000000E+00  0.74505805969E-08  0.10566000000E+00  0.10566000000E+00 0. -1.
     999900   -1    0    0    0    0 -0.00000000000E+00 -0.00000000000E+00 -0.74505805969E-08  0.93827000000E+00  0.93827000000E+00 0.  1.
     999902    2    1    2    0    0  0.15070328803E-01 -0.17012364431E-01  0.98631957810E-02  0.10191546497E+01  0.10188534644E+01 0.  0.
     999903    2    3    3    0    0 -0.47181647888E-01  0.20170267158E-02  0.11929120853E+00  0.12999104474E+00  0.20907008083E-01 0.  0.
         14    1    1    2    0    0 -0.15070328803E-01  0.17012364431E-01 -0.98631957810E-02  0.24775350346E-01  0.00000000000E+00 0.  1.
     999901    1    3    3    0    0  0.62251976691E-01 -0.19029391147E-01 -0.10942801274E+00  0.88916360491E+00  0.88000000000E+00 0. -1.
        -11    1    4    4    0    0 -0.94680895835E-02  0.68951980519E-02  0.15380555658E-01  0.19339366326E-01  0.51100000000E-03 0.  1.
         11    1    4    4    0    0 -0.37713558305E-01 -0.48781713360E-02  0.10391065287E+00  0.11065167841E+00  0.51100000000E-03 0. -1.
</event>
<event>
 8    1  0.1122848E+005  0.1043930E+01  0.7957747E-01            NaN
         13   -1    0    0    0    0  0.00000000000E+00  0.00000000000E+00  0.74505805969E-08  0.10566000000E+00  0.10566000000E+00 0. -1.
     999900   -1    0    0    0    0 -0.00000000000E+00 -0.00000000000E+00 -0.74505805969E-08  0.93827000000E+00  0.93827000000E+00 0. -1.
     999902    2    1    2    0    0  0.37523813518E-02  0.96978698485E-02 -0.21282604167E-01  0.10202429089E+01  0.10199678989E+01 0.  0.
     999903    2    3    3    0    0  0.18225690636E-01  0.83759654075E-01  0.94930872057E-01  0.12940050047E+00  0.19615392009E-01 0.  0.
         14    1    1    2    0    0 -0.37523813518E-02 -0.96978698485E-02  0.21282604167E-01  0.23687091116E-01  0.00000000000E+00 0. -1.
     999901    1    3    3    0    0 -0.14473309284E-01 -0.74061784226E-01 -0.11621347622E+00  0.89084240841E+00  0.88000000000E+00 0. -1.
        -11    1    4    4    0    0  0.18763246194E-02  0.45191518814E-01  0.57998697542E-01  0.73552049627E-01  0.51100000000E-03 0. -1.
         11    1    4    4    0    0  0.16349366016E-01  0.38568135261E-01  0.36932174515E-01  0.55848450847E-01  0.51100000000E-03 0.  1.
</event>
<event>
 8    1  0.1122848E+005  0.1043930E+01  0.7957747E-01            NaN
         13   -1    0    0    0    0  0.00000000000E+00  0.00000000000E+00  0.74505805969E-08  0.10566000000E+00  0.10566000000E+00 0.  1.
     999900   -1    0    0    0    0 -0.00000000000E+00 -0.00000000000E+00 -0.74505805969E-08  0.93827000000E+00  0.93827000000E+00 0.  1.
     999902    2    1    2    0    0  0.27844299000E-02  0.16849526062E-01 -0.83044080972E-02  0.10249399296E+01  0.10247639907E+01 0.  0.
     999903    2    3    3    0    0  0.13078685653E+00 -0.37572400508E-02  0.26038749534E-01  0.13477774638E+00  0.19175655124E-01 0.  0.
         14    1    1    2    0    0 -0.27844299000E-02 -0.16849526062E-01  0.83044080972E-02  0.18990070358E-01  0.00000000000E+00 0.  1.
     999901    1    3    3    0    0 -0.12800242663E+00  0.20606766113E-01 -0.34343157631E-01  0.89016218326E+00  0.88000000000E+00 0.  1.
        -11    1    4    4    0    0  0.52848486767E-01 -0.39862902688E-02  0.13417105171E-02  0.53018057035E-01  0.51100000000E-03 0. -1.
         11    1    4    4    0    0  0.77938369759E-01  0.22905021797E-03  0.24697039017E-01  0.81759689346E-01  0.51100000000E-03 0.  1.
</event>
<event>
 8    1  0.1122848E+005  0.1043930E+01  0.7957747E-01            NaN
         13   -1    0    0    0    0  0.00000000000E+00  0.00000000000E+00  0.74505805969E-08  0.10566000000E+00  0.10566000000E+00 0.  1.
     999900   -1    0    0    0    0 -0.00000000000E+00 -0.00000000000E+00 -0.74505805969E-08  0.93827000000E+00  0.93827000000E+00 0.  1.
     999902    2    1    2    0    0  0.19225529587E-01 -0.10548681682E-01 -0.74329593068E-02  0.10207752044E+01  0.10205125543E+01 0.  0.
     999903    2    3    3    0    0 -0.62360974085E-01 -0.87547527482E-01  0.70216681922E-01  0.13026150628E+00  0.22004929929E-01 0.  0.
         14    1    1    2    0    0 -0.19225529587E-01  0.10548681682E-01  0.74329593068E-02  0.23154795555E-01  0.00000000000E+00 0.  1.
     999901    1    3    3    0    0  0.81586503673E-01  0.76998845799E-01 -0.77649641229E-01  0.89051369816E+00  0.88000000000E+00 0.  1.
        -11    1    4    4    0    0 -0.45054383819E-01 -0.59301247645E-01  0.36312569014E-01  0.82857704910E-01  0.51100000000E-03 0. -1.
         11    1    4    4    0    0 -0.17306590266E-01 -0.28246279837E-01  0.33904112908E-01  0.47403801370E-01  0.51100000000E-03 0.  1.
</event>
<event>
 8    1  0.1122848E+005  0.1043930E+01  0.7957747E-01            NaN
         13   -1    0    0    0    0  0.00000000000E+00  0.00000000000E+00  0.74505805969E-08  0.10566000000E+00  0.10566000000E+00 0. -1.
     999900   -1    0    0    0    0 -0.00000000000E+00 -0.00000000000E+00 -0.74505805969E-08  0.93827000000E+00  0.93827000000E+00 0.  1.
     999902    2    1    2    0    0 -0.97380514303E-02  0.20024943340E-01 -0.87632547390E-02  0.10200004652E+01  0.10197197293E+01 0.  0.
     999903    2    3    3    0    0  0.14121858200E-03  0.12693006286E+00  0.32661290927E-01  0.13250832579E+00  0.19504760378E-01 0.  0.
         14    1    1    2    0    0  0.97380514303E-02 -0.20024943340E-01  0.87632547390E-02  0.23929534786E-01  0.00000000000E+00 0. -1.
     999901    1    3    3    0    0 -0.98792700124E-02 -0.10690511952E+00 -0.41424545666E-01  0.88749213942E+00  0.88000000000E+00 0.  1.
        -11    1    4    4    0    0  0.62325554036E-02  0.24970740586E-01  0.17963597048E-02  0.25804469797E-01  0.51100000000E-03 0. -1.
         11    1    4    4    0    0 -0.60913368216E-02  0.10195932228E+00  0.30864931223E-01  0.10670385599E+00  0.51100000000E-03 0.  1.
</event>
<event>
 8    1  0.1122848E+005  0.1043930E+01  0.7957747E-01            NaN
         13   -1    0    0    0    0  0.00000000000E+00  0.00000000000E+00  0.74505805969E-08  0.10566000000E+00  0.10566000000E+00 0.  1.
     999900   -1    0    0    0    0 -0.00000000000E+00 -0.00000000000E+00 -0.74505805969E-08  0.93827000000E+00  0.93827000000E+00 0. -1.
     999902    2    1    2    0    0  0.12386226764E-01  0.15714530017E-01 -0.13559092848E-01  0.10197594794E+01  0.10194729922E+01 0.  0.
     999903    2    3    3    0    0  0.82405915911E-01 -0.67400603211E-01 -0.73925598484E-01  0.13102161184E+00  0.19185733427E-01 0.  0.
         14    1    1    2    0    0 -0.12386226764E-01 -0.15714530017E-01  0.13559092848E-01  0.24170520598E-01  0.00000000000E+00 0. -1.
     999901    1    3    3    0    0 -0.70019689147E-01  0.83115133228E-01  0.60366505636E-01  0.88873786756E+00  0.88000000000E+00 0.  1.
        -11    1    4    4    0    0  0.63327911697E-01 -0.41031754028E-01 -0.48302433318E-01  0.89595844904E-01  0.51100000000E-03 0.  1.
         11    1    4    4    0    0  0.19078004214E-01 -0.26368849182E-01 -0.25623165166E-01  0.41425766934E-01  0.51100000000E-03 0. -1.
</event>
<event>
 8    1  0.1122848E+005  0.1043930E+01  0.7957747E-01            NaN
         13   -1    0    0    0    0  0.00000000000E+00  0.00000000000E+00  0.74505805969E-08  0.10566000000E+00  0.10566000000E+00 0. -1.
     999900   -1    0    0    0    0 -0.00000000000E+00 -0.00000000000E+00 -0.74505805969E-08  0.93827000000E+00  0.93827000000E+00 0.  1.
     999902    2    1    2    0    0 -0.20657107249E-01 -0.11179418245E-01 -0.53854488403E-02  0.10198323127E+01  0.10195475700E+01 0.  0.
     999903    2    3    3    0    0 -0.50157260267E-01 -0.71254231390E-02 -0.11994514378E+00  0.13190741861E+00  0.21123616095E-01 0.  0.
         14    1    1    2    0    0  0.20657107249E-01  0.11179418245E-01  0.53854488403E-02  0.24097687263E-01  0.00000000000E+00 0. -1.
     999901    1    3    3    0    0  0.29500153018E-01 -0.40539951059E-02  0.11455969494E+00  0.88792489413E+00  0.88000000000E+00 0. -1.
        -11    1    4    4    0    0 -0.22115909506E-01 -0.36150610968E-02 -0.28888792141E-01  0.36565086523E-01  0.51100000000E-03 0.  1.
         11    1    4    4    0    0 -0.28041350761E-01 -0.35103620422E-02 -0.91056351634E-01  0.95342332089E-01  0.51100000000E-03 0. -1.
</event>
<event>
 8    1  0.1122848E+005  0.1043930E+01  0.7957747E-01            NaN
         13   -1    0    0    0    0  0.00000000000E+00  0.00000000000E+00  0.74505805969E-08  0.10566000000E+00  0.10566000000E+00 0. -1.
     999900   -1    0    0    0    0 -0.00000000000E+00 -0.00000000000E+00 -0.74505805969E-08  0.93827000000E+00  0.93827000000E+00 0.  1.
     999902    2    1    2    0    0  0.82708893411E-02  0.15826447719E-01  0.14930145715E-01  0.10206535460E+01  0.10203880966E+01 0.  0.
     999903    2    3    3    0    0 -0.10132664004E+00 -0.27458304745E-02  0.80965202160E-01  0.13120586537E+00  0.19621100405E-01 0.  0.
         14    1    1    2    0    0 -0.82708893411E-02 -0.15826447719E-01 -0.14930145715E-01  0.23276453960E-01  0.00000000000E+00 0.  1.
     999901    1    3    3    0    0  0.10959752938E+00  0.18572278194E-01 -0.66035056445E-01  0.88944768067E+00  0.88000000000E+00 0.  1.
        -11    1    4    4    0    0 -0.40856144182E-01  0.43549802018E-02  0.42869248117E-01  0.59382016849E-01  0.51100000000E-03 0. -1.
         11    1    4    4    0    0 -0.60470495856E-01 -0.71008106763E-02  0.38095954043E-01  0.71823848524E-01  0.51100000000E-03 0.  1.
</event>
<event>
 8    1  0.1250851E+005  0.1043930E+01  0.7957747E-01            NaN
         13   -1    0    0    0    0  0.00000000000E+00  0.00000000000E+00  0.74505805969E-08  0.10566000000E+00  0.10566000000E+00 0.  1.
     999900   -1    0    0    0    0 -0.00000000000E+00 -0.00000000000E+00 -0.74505805969E-08  0.93827000000E+00  0.93827000000E+00 0. -1.
     999902    2    1    2    0    0  0.36391621441E-02 -0.18930907802E-01  0.15787491745E-01  0.10190127837E+01  0.10187080964E+01 0.  0.
     999903    2    3    3    0    0  0.60635090679E-01 -0.11507797094E+00 -0.66612530094E-02  0.13165899872E+00  0.19239699484E-01 0.  0.
         14    1    1    2    0    0 -0.36391621441E-02  0.18930907802E-01 -0.15787491745E-01  0.24917216275E-01  0.00000000000E+00 0. -1.
     999901    1    3    3    0    0 -0.56995928535E-01  0.96147063135E-01  0.22448744754E-01  0.88735378500E+00  0.88000000000E+00 0.  1.
        -11    1    4    4    0    0  0.38565841517E-01 -0.88667175246E-01 -0.52039356361E-03  0.96693971004E-01  0.51100000000E-03 0.  1.
         11    1    4    4    0    0  0.22069249162E-01 -0.26410795690E-01 -0.61408594458E-02  0.34965027718E-01  0.51100000000E-03 0. -1.
</event>
<event>
 8    1  0.1122848E+005  0.1043930E+01  0.7957747E-01            NaN
         13   -1    0    0    0    0  0.00000000000E+00  0.00000000000E+00  0.74505805969E-08  0.10566000000E+00  0.10566000000E+00 0. -1.
     999900   -1    0    0    0    0 -0.00000000000E+00 -0.00000000000E+00 -0.74505805969E-08  0.93827000000E+00  0.93827000000E+00 0. -1.
     999902    2    1    2    0    0  0.18329718488E-01 -0.18212361361E-02  0.15402786642E-01  0.10199187252E+01  0.10196360452E+01 0.  0.
     999903    2    3    3    0    0 -0.10375272142E+00  0.62831802431E-01  0.37065294391E-01  0.12887809663E+00  0.22874989494E-01 0.  0.
         14    1    1    2    0    0 -0.18329718488E-01  0.18212361361E-02 -0.15402786642E-01  0.24011274795E-01  0.00000000000E+00 0. -1.
     999901    1    3    3    0    0  0.12208243991E+00 -0.64653038567E-01 -0.21662507748E-01  0.89104062858E+00  0.88000000000E+00 0.  1.
        -11    1    4    4    0    0 -0.32477923319E-02  0.42748764072E-02 -0.25918098044E-02  0.59834206262E-02  0.51100000000E-03 0. -1.
         11    1    4    4    0    0 -0.10050492909E+00  0.58556926024E-01  0.39657104195E-01  0.12289467600E+00  0.51100000000E-03 0.  1.
</event>
<event>
 8    1  0.1122848E+005  0.1043930E+01  0.7957747E-01            NaN
         13   -1    0    0    0    0  0.00000000000E+00  0.00000000000E+00  0.74505805969E-08  0.10566000000E+00  0.10566000000E+00 0. -1.
     999900   -1    0    0    0    0 -0.00000000000E+00 -0.00000000000E+00 -0.74505805969E-08  0.93827000000E+00  0.93827000000E+00 0. -1.
     999902    2    1    2    0    0 -0.16992793948E-01  0.49477862494E-02 -0.15190288634E-01  0.10206066104E+01  0.10203400770E+01 0.  0.
     999903    2    3    3    0    0  0.36272560711E-01  0.86716673965E-01  0.86602060696E-01  0.12937991004E+00  0.20093879682E-01 0.  0.
         14    1    1    2    0    0  0.16992793948E-01 -0.49477862494E-02  0.15190288634E-01  0.23323389628E-01  0.00000000000E+00 0. -1.
     999901    1    3    3    0    0 -0.53265354659E-01 -0.81768887716E-01 -0.10179234933E+00  0.89122670033E+00  0.88000000000E+00 0. -1.
        -11    1    4    4    0    0  0.17812692074E-02  0.26996782657E-01  0.21864674544E-01  0.34789715545E-01  0.51100000000E-03 0.  1.
         11    1    4    4    0    0  0.34491291504E-01  0.59719891309E-01  0.64737386152E-01  0.94590194494E-01  0.51100000000E-03 0. -1.
</event>
<event>
 8    1  0.1122848E+005  0.1043930E+01  0.7957747E-01            NaN
         13   -1    0    0    0    0  0.00000000000E+00  0.00000000000E+00  0.74505805969E-08  0.10566000000E+00  0.10566000000E+00 0. -1.
     999900   -1    0    0    0    0 -0.00000000000E+00 -0.00000000000E+00 -0.74505805969E-08  0.93827000000E+00  0.93827000000E+00 0. -1.
     999902    2    1    2    0    0 -0.16984937835E-01  0.12610247303E-01  0.95403276635E-02  0.10207238736E+01  0.10204600442E+01 0.  0.
     999903    2    3    3    0    0 -0.98128528008E-01  0.88511673678E-01  0.72579248218E-04  0.13368670020E+00  0.20213959405E-01 0.  0.
         14    1    1    2    0    0  0.16984937835E-01 -0.12610247303E-01 -0.95403276635E-02  0.23206126394E-01  0.00000000000E+00 0. -1.
     999901    1    3    3    0    0  0.81143590173E-01 -0.75901426375E-01  0.94677484153E-02  0.88703717341E+00  0.88000000000E+00 0.  1.
        -11    1    4    4    0    0 -0.28534935761E-01  0.32412200323E-01 -0.80415359221E-02  0.43928586475E-01  0.51100000000E-03 0. -1.
         11    1    4    4    0    0 -0.69593592247E-01  0.56099473355E-01  0.81141151703E-02  0.89758113720E-01  0.51100000000E-03 0.  1.
</event>
<event>
 8    1  0.1122848E+005  0.1043930E+01  0.7957747E-01            NaN
         13   -1    0    0    0    0  0.00000000000E+00  0.00000000000E+00  0.74505805969E-08  0.10566000000E+00  0.10566000000E+00 0.  1.
     999900   -1    0    0    0    0 -0.00000000000E+00 -0.00000000000E+00 -0.74505805969E-08  0.93827000000E+00  0.93827000000E+00 0.  1.
     999902    2    1    2    0    0 -0.86303702683E-02  0.14784390119E-01 -0.14438236875E-01  0.10215352648E+01  0.10212897596E+01 0.  0.
     999903    2    3    3    0    0 -0.51567672411E-01 -0.88312756554E-01 -0.80853685841E-01  0.13199400916E+00  0.20657495768E-01 0.  0.
         14    1    1    2    0    0  0.86303702683E-02 -0.14784390119E-01  0.14438236875E-01  0.22394735234E-01  0.00000000000E+00 0.  1.
     999901    1    3    3    0    0  0.42937302143E-01  0.10309714667E+00  0.66415448966E-01  0.88954125561E+00  0.88000000000E+00 0. -1.
        -11    1    4    4    0    0 -0.10161556436E-01 -0.35945666888E-01 -0.25014886227E-01  0.44959468982E-01  0.51100000000E-03 0. -1.
         11    1    4    4    0    0 -0.41406115975E-01 -0.52367089666E-01 -0.55838799615E-01  0.87034540176E-01  0.51100000000E-03 0.  1.
</event>
<event>
 8    1  0.1122848E+005  0.1043930E+01  0.7957747E-01            NaN
         13   -1    0    0    0    0  0.00000000000E+00  0.00000000000E+00  0.74505805969E-08  0.10566000000E+00  0.10566000000E+00 0.  1.
     999900   -1    0    0    0    0 -0.00000000000E+00 -0.00000000000E+00 -0.74505805969E-08  0.93827000000E+00  0.93827000000E+00 0.  1.
     999902    2    1    2    0    0 -0.24563692651E-03  0.19253377804E-01 -0.14269946011E-01  0.10199636850E+01  0.10196820752E+01 0.  0.
     999903    2    3    3    0    0 -0.17443365909E-01 -0.11494875861E+00 -0.51480098057E-01  0.12884608857E+00  0.20823686599E-01 0.  0.
         14    1    1    2    0    0  0.24563692651E-03 -0.19253377804E-01  0.14269946011E-01  0.23966314976E-01  0.00000000000E+00 0. -1.
     999901    1    3    3    0    0  0.17197728983E-01  0.13420213641E+00  0.37210152045E-01  0.89111759646E+00  0.88000000000E+00 0.  1.
        -11    1    4    4    0    0 -0.18159126723E-01 -0.50958426760E-01 -0.24728127314E-01  0.59483245899E-01  0.51100000000E-03 0. -1.
         11    1    4    4    0    0  0.71576081323E-03 -0.63990331847E-01 -0.26751970743E-01  0.69362842669E-01  0.51100000000E-03 0.  1.
</event>
<event>
 8    1  0.1122848E+005  0.1043930E+01  0.7957747E-01            NaN
         13   -1    0    0    0    0  0.00000000000E+00  0.00000000000E+00  0.74505805969E-08  0.10566000000E+00  0.10566000000E+00 0. -1.
     999900   -1    0    0    0    0 -0.00000000000E+00 -0.00000000000E+00 -0.74505805969E-08  0.93827000000E+00  0.93827000000E+00 0. -1.
     999902    2    1    2    0    0  0.81881320509E-02  0.13470331343E-01 -0.17844235827E-01  0.10201200843E+01  0.10198421811E+01 0.  0.
     999903    2    3    3    0    0 -0.71556315258E-01  0.10704945835E+00  0.13668453218E-01  0.13101419666E+00  0.19949945497E-01 0.  0.
         14    1    1    2    0    0 -0.81881320509E-02 -0.13470331343E-01  0.17844235827E-01  0.23809915692E-01  0.00000000000E+00 0. -1.
     999901    1    3    3    0    0  0.79744447309E-01 -0.93579127008E-01 -0.31512689046E-01  0.88910588765E+00  0.88000000000E+00 0.  1.
        -11    1    4    4    0    0 -0.35298491140E-01  0.68160352824E-01  0.12902833481E-01  0.77836761281E-01  0.51100000000E-03 0. -1.
         11    1    4    4    0    0 -0.36257824117E-01  0.38889105528E-01  0.76561973749E-03  0.53177435375E-01  0.51100000000E-03 0.  1.
</event>
<event>
 8    1  0.1122848E+005  0.1043930E+01  0.7957747E-01            NaN
         13   -1    0    0    0    0  0.00000000000E+00  0.00000000000E+00  0.74505805969E-08  0.10566000000E+00  0.10566000000E+00 0. -1.
     999900   -1    0    0    0    0 -0.00000000000E+00 -0.00000000000E+00 -0.74505805969E-08  0.93827000000E+00  0.93827000000E+00 0.  1.
     999902    2    1    2    0    0  0.12357110803E-01  0.95685841429E-02  0.14711573901E-01  0.10224663937E+01  0.10222410869E+01 0.  0.
     999903    2    3    3    0    0 -0.67627789320E-01  0.89736513182E-01  0.69871820857E-01  0.13349669006E+00  0.17695627181E-01 0.  0.
         14    1    1    2    0    0 -0.12357110803E-01 -0.95685841429E-02 -0.14711573901E-01  0.21463606327E-01  0.00000000000E+00 0.  1.
     999901    1    3    3    0    0  0.79984900123E-01 -0.80167929039E-01 -0.55160246955E-01  0.88896970361E+00  0.88000000000E+00 0.  1.
        -11    1    4    4    0    0 -0.39852354636E-01  0.51118766261E-01  0.50340078072E-01  0.82071450671E-01  0.51100000000E-03 0. -1.
         11    1    4    4    0    0 -0.27775434684E-01  0.38617746921E-01  0.19531742785E-01  0.51425239391E-01  0.51100000000E-03 0.  1.
</event>
<event>
 8    1  0.1122848E+005  0.1043930E+01  0.7957747E-01            NaN
         13   -1    0    0    0    0  0.00000000000E+00  0.00000000000E+00  0.74505805969E-08  0.10566000000E+00  0.10566000000E+00 0. -1.
     999900   -1    0    0    0    0 -0.00000000000E+00 -0.00000000000E+00 -0.74505805969E-08  0.93827000000E+00  0.93827000000E+00 0.  1.
     999902    2    1    2    0    0 -0.19441767546E-02  0.10705573380E-01  0.20932819286E-01  0.10203382208E+01  0.10200654453E+01 0.  0.
     999903    2    3    3    0    0  0.87973703952E-01  0.17827524949E-01  0.95469065169E-01  0.13259298736E+00  0.20232762050E-01 0.  0.
         14    1    1    2    0    0  0.19441767546E-02 -0.10705573380E-01 -0.20932819286E-01  0.23591779244E-01  0.00000000000E+00 0.  1.
     999901    1    3    3    0    0 -0.89917880707E-01 -0.71219515698E-02 -0.74536245883E-01  0.88774523339E+00  0.88000000000E+00 0.  1.
        -11    1    4    4    0    0  0.61775122021E-01  0.21191640005E-01  0.63128388274E-01  0.90833396027E-01  0.51100000000E-03 0.  1.
         11    1    4    4    0    0  0.26198581931E-01 -0.33641150556E-02  0.32340676895E-01  0.41759591334E-01  0.51100000000E-03 0. -1.
</event>
<event>
 8    1  0.1122848E+005  0.1043930E+01  0.7957747E-01            NaN
         13   -1    0    0    0    0  0.00000000000E+00  0.00000000000E+00  0.74505805969E-08  0.10566000000E+00  0.10566000000E+00 0. -1.
     999900   -1    0    0    0    0 -0.00000000000E+00 -0.00000000000E+00 -0.74505805969E-08  0.93827000000E+00  0.93827000000E+00 0.  1.
     999902    2    1    2    0    0  0.17600335721E-01  0.11591916271E-01  0.10940105538E-01  0.10201848900E+01  0.10199085153E+01 0.  0.
     999903    2    3    3    0    0 -0.52873912390E-01  0.11095323226E+00 -0.38279092561E-01  0.13043109246E+00  0.20993108197E-01 0.  0.
         14    1    1    2    0    0 -0.17600335721E-01 -0.11591916271E-01 -0.10940105538E-01  0.23745110013E-01  0.00000000000E+00 0.  1.
     999901    1    3    3    0    0  0.70474248111E-01 -0.99361315987E-01  0.49219198099E-01  0.88975379753E+00  0.88000000000E+00 0. -1.
        -11    1    4    4    0    0 -0.25415745313E-01  0.32943436388E-01 -0.80879170757E-02  0.42389923738E-01  0.51100000000E-03 0. -1.
         11    1    4    4    0    0 -0.27458167077E-01  0.78009795870E-01 -0.30191175485E-01  0.88041168717E-01  0.51100000000E-03 0.  1.
</event>
<event>
 8    1  0.1122848E+005  0.1043930E+01  0.7957747E-01            NaN
         13   -1    0    0    0    0  0.00000000000E+00  0.00000000000E+00  0.74505805969E-08  0.10566000000E+00  0.10566000000E+00 0.  1.
     999900   -1    0    0    0    0 -0.00000000000E+00 -0.00000000000E+00 -0.74505805969E-08  0.93827000000E+00  0.93827000000E+00 0. -1.
     999902    2    1    2    0    0 -0.11924547607E-01  0.20041254425E-01  0.37816239489E-02  0.10203048567E+01  0.10200313001E+01 0.  0.
     999903    2    3    3    0    0 -0.55884509172E-01 -0.10842909509E+00  0.38031048281E-01  0.12923239504E+00  0.19357279440E-01 0.  0.
         14    1    1    2    0    0  0.11924547607E-01 -0.20041254425E-01 -0.37816239489E-02  0.23625143265E-01  0.00000000000E+00 0.  1.
     999901    1    3    3    0    0  0.43959961565E-01  0.12847034951E+00 -0.34249424332E-01  0.89107246170E+00  0.88000000000E+00 0.  1.
        -11    1    4    4    0    0 -0.40749935935E-01 -0.63860368053E-01  0.30006306457E-01  0.81482166360E-01  0.51100000000E-03 0.  1.
         11    1    4    4    0    0 -0.15134573237E-01 -0.44568727035E-01  0.80247418237E-02  0.47750228680E-01  0.51100000000E-03 0. -1.
</event>
<event>
 8    1  0.1122848E+005  0.1043930E+01  0.7957747E-01            NaN
         13   -1    0    0    0    0  0.00000000000E+00  0.00000000000E+00  0.74505805969E-08  0.10566000000E+00  0.10566000000E+00 0.  1.
     999900   -1    0    0    0    0 -0.00000000000E+00 -0.00000000000E+00 -0.74505805969E-08  0.93827000000E+00  0.93827000000E+00 0. -1.
     999902    2    1    2    0    0 -0.28925718229E-02  0.23003784486E-01  0.28357289858E-02  0.10205722940E+01  0.10203049666E+01 0.  0.
     999903    2    3    3    0    0 -0.16173949514E-01  0.74936984446E-01  0.10626425878E+00  0.13289503672E+00  0.22177687216E-01 0.  0.
         14    1    1    2    0    0  0.28925718229E-02 -0.23003784486E-01 -0.28357289858E-02  0.23357706037E-01  0.00000000000E+00 0. -1.
     999901    1    3    3    0    0  0.13281377691E-01 -0.51933199960E-01 -0.10342852979E+00  0.88767725724E+00  0.88000000000E+00 0. -1.
        -11    1    4    4    0    0 -0.11613075103E-01  0.59357107376E-01  0.66236546756E-01  0.89697664165E-01  0.51100000000E-03 0. -1.
         11    1    4    4    0    0 -0.45608744108E-02  0.15579877070E-01  0.40027712023E-01  0.43197372556E-01  0.51100000000E-03 0.  1.
</event>
<event>
 8    1  0.1122848E+005  0.1043930E+01  0.7957747E-01            NaN
         13   -1    0    0    0    0  0.00000000000E+00  0.00000000000E+00  0.74505805969E-08  0.10566000000E+00  0.10566000000E+00 0.  1.
     999900   -1    0    0    0    0 -0.00000000000E+00 -0.00000000000E+00 -0.74505805969E-08  0.93827000000E+00  0.93827000000E+00 0. -1.
     999902    2    1    2    0    0  0.17461834331E-01  0.11476013844E-01  0.62549915262E-02  0.10221185473E+01  0.10218857985E+01 0.  0.
     999903    2    3    3    0    0 -0.10146955674E+00  0.26553350400E-01  0.76318322089E-01  0.13123085952E+00  0.19897257168E-01 0.  0.
         14    1    1    2    0    0 -0.17461834331E-01 -0.11476013844E-01 -0.62549915262E-02  0.21811452747E-01  0.00000000000E+00 0.  1.
     999901    1    3    3    0    0  0.11893139107E+00 -0.15077336556E-01 -0.70063330562E-01  0.89088768773E+00  0.88000000000E+00 0. -1.
        -11    1    4    4    0    0 -0.55464013244E-01  0.22835403244E-01  0.50048717226E-01  0.78120724673E-01  0.51100000000E-03 0. -1.
         11    1    4    4    0    0 -0.46005543493E-01  0.37179471560E-02  0.26269604863E-01  0.53110134850E-01  0.51100000000E-03 0.  1.
</event>
<event>
 8    1  0.1122848E+005  0.1043930E+01  0.7957747E-01            NaN
         13   -1    0    0    0    0  0.00000000000E+00  0.00000000000E+00  0.74505805969E-08  0.10566000000E+00  0.10566000000E+00 0.  1.
     999900   -1    0    0    0    0 -0.00000000000E+00 -0.00000000000E+00 -0.74505805969E-08  0.93827000000E+00  0.93827000000E+00 0.  1.
     999902    2    1    2    0    0  0.21421662730E-01 -0.67765427660E-02  0.69355157159E-02  0.10204159501E+01  0.10201449900E+01 0.  0.
     999903    2    3    3    0    0 -0.93264744639E-01 -0.66671292351E-01 -0.55644542489E-01  0.12875647653E+00  0.18399492474E-01 0.  0.
         14    1    1    2    0    0 -0.21421662730E-01  0.67765427660E-02 -0.69355157159E-02  0.23514049933E-01  0.00000000000E+00 0. -1.
     999901    1    3    3    0    0  0.11468640737E+00  0.59894749585E-01  0.62580058205E-01  0.89165947354E+00  0.88000000000E+00 0. -1.
        -11    1    4    4    0    0 -0.43974002445E-01 -0.37512453028E-01 -0.36532886241E-01  0.68379894130E-01  0.51100000000E-03 0. -1.
         11    1    4    4    0    0 -0.49290742195E-01 -0.29158839323E-01 -0.19111656249E-01  0.60376582400E-01  0.51100000000E-03 0.  1.
</event>
<event>
 8    1  0.1122848E+005  0.1043930E+01  0.7957747E-01            NaN
         13   -1    0    0    0    0  0.00000000000E+00  0.00000000000E+00  0.74505805969E-08  0.10566000000E+00  0.10566000000E+00 0.  1.
     999900   -1    0    0    0    0 -0.00000000000E+00 -0.00000000000E+00 -0.74505805969E-08  0.93827000000E+00  0.93827000000E+00 0. -1.
     999902    2    1    2    0    0 -0.38625269765E-02 -0.21340619864E-01  0.10488231538E-01  0.10198396664E+01  0.10195550996E+01 0.  0.
     999903    2    3    3    0    0  0.57332675979E-01  0.42534147673E-01 -0.10354612900E+00  0.12808371653E+00  0.24237329820E-01 0.  0.
         14    1    1    2    0    0  0.38625269765E-02  0.21340619864E-01 -0.10488231538E-01  0.24090333573E-01  0.00000000000E+00 0. -1.
     999901    1    3    3    0    0 -0.61195202955E-01 -0.63874767537E-01  0.11403436054E+00  0.89175594990E+00  0.88000000000E+00 0. -1.
        -11    1    4    4    0    0  0.24457480845E-01  0.32644694096E-01 -0.61510359159E-01  0.73808060716E-01  0.51100000000E-03 0. -1.
         11    1    4    4    0    0  0.32875195134E-01  0.98894535775E-02 -0.42035769839E-01  0.54275655815E-01  0.51100000000E-03 0.  1.
</event>
<event>
 8    1  0.1122848E+005  0.1043930E+01  0.7957747E-01            NaN
         13   -1    0    0    0    0  0.00000000000E+00  0.00000000000E+00  0.74505805969E-08  0.10566000000E+00  0.10566000000E+00 0. -1.
     999900   -1    0    0    0    0 -0.00000000000E+00 -0.00000000000E+00 -0.74505805969E-08  0.93827000000E+00  0.93827000000E+00 0.  1.
     999902    2    1    2    0    0 -0.75996473613E-02  0.32798685313E-02  0.22088397792E-01  0.10203416661E+01  0.10200689713E+01 0.  0.
     999903    2    3    3    0    0 -0.60565050045E-01  0.85742190153E-01  0.79283157719E-01  0.13305557420E+00  0.19952901280E-01 0.  0.
         14    1    1    2    0    0  0.75996473613E-02 -0.32798685313E-02 -0.22088397792E-01  0.23588333867E-01  0.00000000000E+00 0.  1.
     999901    1    3    3    0    0  0.52965402684E-01 -0.82462321621E-01 -0.57194759927E-01  0.88728609193E+00  0.88000000000E+00 0.  1.
        -11    1    4    4    0    0 -0.41540518374E-01  0.71245366409E-01  0.66417077134E-01  0.10589148293E+00  0.51100000000E-03 0.  1.
         11    1    4    4    0    0 -0.19024531671E-01  0.14496823744E-01  0.12866080585E-01  0.27164091271E-01  0.51100000000E-03 0. -1.
</event>
<event>
 8    1  0.1122848E+005  0.1043930E+01  0.7957747E-01            NaN
         13   -1    0    0    0    0  0.00000000000E+00  0.00000000000E+00  0.74505805969E-08  0.10566000000E+00  0.10566000000E+00 0.  1.
     999900   -1    0    0    0    0 -0.00000000000E+00 -0.00000000000E+00 -0.74505805969E-08  0.93827000000E+00  0.93827000000E+00 0.  1.
     999902    2    1    2    0    0  0.28972146743E-02 -0.35966647299E-03  0.23387450087E-01  0.10203610366E+01  0.10200887947E+01 0.  0.
     999903    2    3    3    0    0  0.92513849061E-01 -0.55390315584E-01  0.73430208181E-01  0.13268779092E+00  0.24231282636E-01 0.  0.
         14    1    1    2    0    0 -0.28972146743E-02  0.35966647299E-03 -0.23387450087E-01  0.23568963372E-01  0.00000000000E+00 0. -1.
     999901    1    3    3    0    0 -0.89616634387E-01  0.55030649111E-01 -0.50042758094E-01  0.88767324570E+00  0.88000000000E+00 0. -1.
        -11    1    4    4    0    0  0.57948783293E-01 -0.36621316326E-01  0.32316944642E-01  0.75788048705E-01  0.51100000000E-03 0. -1.
         11    1    4    4    0    0  0.34565065768E-01 -0.18768999258E-01  0.41113263539E-01  0.56899742219E-01  0.51100000000E-03 0.  1.
</event>
<event>
 8    1  0.1122848E+005  0.1043930E+01  0.7957747E-01            NaN
         13   -1    0    0    0    0  0.00000000000E+00  0.00000000000E+00  0.74505805969E-08  0.10566000000E+00  0.10566000000E+00 0.  1.
     999900   -1    0    0    0    0 -0.00000000000E+00 -0.00000000000E+00 -0.74505805969E-08  0.93827000000E+00  0.93827000000E+00 0. -1.
     999902    2    1    2    0    0 -0.21885619393E-01  0.92027191676E-02  0.25036054797E-02  0.10200566170E+01  0.10197772126E+01 0.  0.
     999903    2    3    3    0    0  0.12543863143E+00 -0.11204842035E-01  0.42385580947E-02  0.12757473285E+00  0.19923562614E-01 0.  0.
         14    1    1    2    0    0  0.21885619393E-01 -0.92027191676E-02 -0.25036054797E-02  0.23873383018E-01  0.00000000000E+00 0. -1.
     999901    1    3    3    0    0 -0.14732425083E+00  0.20407561203E-01 -0.17349526150E-02  0.89248188413E+00  0.88000000000E+00 0. -1.
        -11    1    4    4    0    0  0.87338601081E-02 -0.29735554775E-02  0.51435555406E-02  0.10575425720E-01  0.51100000000E-03 0.  1.
         11    1    4    4    0    0  0.11670477133E+00 -0.82312865578E-02 -0.90499744588E-03  0.11699930713E+00  0.51100000000E-03 0. -1.
</event>
<event>
 8    1  0.1122848E+005  0.1043930E+01  0.7957747E-01            NaN
         13   -1    0    0    0    0  0.00000000000E+00  0.00000000000E+00  0.74505805969E-08  0.10566000000E+00  0.10566000000E+00 0. -1.
     999900   -1    0    0    0    0 -0.00000000000E+00 -0.00000000000E+00 -0.74505805969E-08  0.93827000000E+00  0.93827000000E+00 0.  1.
     999902    2    1    2    0    0 -0.42636229581E-02 -0.22050906356E-01 -0.11283073997E-01  0.10187957861E+01  0.10184857019E+01 0.  0.
     999903    2    3    3    0    0 -0.10613119164E+00  0.68669808687E-01 -0.14053671426E-01  0.12828193108E+00  0.16714535530E-01 0.  0.
         14    1    1    2    0    0  0.42636229581E-02  0.22050906356E-01  0.11283073997E-01  0.25134213946E-01  0.00000000000E+00 0.  1.
     999901    1    3    3    0    0  0.10186756868E+00 -0.90720715044E-01  0.27705974298E-02  0.89051385497E+00  0.88000000000E+00 0.  1.
        -11    1    4    4    0    0 -0.84351465070E-01  0.59498983279E-01 -0.16431356606E-01  0.10452535229E+00  0.51100000000E-03 0. -1.
         11    1    4    4    0    0 -0.21779726568E-01  0.91708254081E-02  0.23776851793E-02  0.23756578791E-01  0.51100000000E-03 0.  1.
</event>
<event>
 8    1  0.1122848E+005  0.1043930E+01  0.7957747E-01            NaN
         13   -1    0    0    0    0  0.00000000000E+00  0.00000000000E+00  0.74505805969E-08  0.10566000000E+00  0.10566000000E+00 0. -1.
     999900   -1    0    0    0    0 -0.00000000000E+00 -0.00000000000E+00 -0.74505805969E-08  0.93827000000E+00  0.93827000000E+00 0. -1.
     999902    2    1    2    0    0  0.59438172021E-02 -0.14212785078E-01  0.18274328591E-01  0.10200284664E+01  0.10197483949E+01 0.  0.
     999903    2    3    3    0    0 -0.93166861954E-01  0.80095279164E-01 -0.29348581931E-01  0.12818493792E+00  0.21788096218E-01 0.  0.
         14    1    1    2    0    0 -0.59438172021E-02  0.14212785078E-01 -0.18274328591E-01  0.23901533592E-01  0.00000000000E+00 0.  1.
     999901    1    3    3    0    0  0.99110679157E-01 -0.94308064242E-01  0.47622910522E-01  0.89184352849E+00  0.88000000000E+00 0.  1.
        -11    1    4    4    0    0 -0.55583746806E-01  0.34805003750E-01 -0.20191503618E-01  0.68621418919E-01  0.51100000000E-03 0. -1.
         11    1    4    4    0    0 -0.37583115148E-01  0.45290275414E-01 -0.91570783132E-02  0.59563518999E-01  0.51100000000E-03 0.  1.
</event>
<event>
 8    1  0.1122848E+005  0.1043930E+01  0.7957747E-01            NaN
         13   -1    0    0    0    0  0.00000000000E+00  0.00000000000E+00  0.74505805969E-08  0.10566000000E+00  0.10566000000E+00 0.  1.
     999900   -1    0    0    0    0 -0.00000000000E+00 -0.00000000000E+00 -0.74505805969E-08  0.93827000000E+00  0.93827000000E+00 0. -1.
     999902    2    1    2    0    0 -0.17570885320E-01  0.11335878175E-01 -0.11028162437E-01  0.10202898115E+01  0.10200159023E+01 0.  0.
     999903    2    3    3    0    0  0.54597452585E-01  0.93538834072E-01 -0.71631748999E-01  0.13144877417E+00  0.20427370345E-01 0.  0.
         14    1    1    2    0    0  0.17570885320E-01 -0.11335878175E-01  0.11028162437E-01  0.23640188486E-01  0.00000000000E+00 0.  1.
     999901    1    3    3    0    0 -0.72168337904E-01 -0.82202955897E-01  0.60603586562E-01  0.88884103734E+00  0.88000000000E+00 0. -1.
        -11    1    4    4    0    0  0.15501314588E-01  0.45623455511E-01 -0.27608154028E-01  0.55536130010E-01  0.51100000000E-03 0. -1.
         11    1    4    4    0    0  0.39096137997E-01  0.47915378561E-01 -0.44023594971E-01  0.75912644165E-01  0.51100000000E-03 0.  1.
</event>
<event>
 8    1  0.1122848E+005  0.1043930E+01  0.7957747E-01            NaN
         13   -1    0    0    0    0  0.00000000000E+00  0.00000000000E+00  0.74505805969E-08  0.10566000000E+00  0.10566000000E+00 0.  1.
     999900   -1    0    0    0    0 -0.00000000000E+00 -0.00000000000E+00 -0.74505805969E-08  0.93827000000E+00  0.93827000000E+00 0.  1.
     999902    2    1    2    0    0 -0.15640097068E-01 -0.91845781593E-02 -0.14588880069E-01  0.10206533049E+01  0.10203878499E+01 0.  0.
     999903    2    3    3    0    0  0.65842483168E-01 -0.65959702325E-01  0.87224361277E-01  0.12923378431E+00  0.20183331900E-01 0.  0.
         14    1    1    2    0    0  0.15640097068E-01  0.91845781593E-02  0.14588880069E-01  0.23276695082E-01  0.00000000000E+00 0. -1.
     999901    1    3    3    0    0 -0.81482580236E-01  0.56775124165E-01 -0.10181324135E+00  0.89141952061E+00  0.88000000000E+00 0.  1.
        -11    1    4    4    0    0  0.94002962129E-02 -0.17378407239E-02  0.12007333033E-01  0.15356523917E-01  0.51100000000E-03 0.  1.
         11    1    4    4    0    0  0.56442186956E-01 -0.64221861601E-01  0.75217028245E-01  0.11387726039E+00  0.51100000000E-03 0. -1.
</event>
<event>
 8    1  0.1122848E+005  0.1043930E+01  0.7957747E-01            NaN
         13   -1    0    0    0    0  0.00000000000E+00  0.00000000000E+00  0.74505805969E-08  0.10566000000E+00  0.10566000000E+00 0. -1.
     999900   -1    0    0    0    0 -0.00000000000E+00 -0.00000000000E+00 -0.74505805969E-08  0.93827000000E+00  0.93827000000E+00 0.  1.
     999902    2    1    2    0    0  0.24090885740E-02  0.18862571000E-01  0.15540223297E-01  0.10193719294E+01  0.10190760676E+01 0.  0.
     999903    2    3    3    0    0 -0.66566060579E-01  0.97973252259E-01 -0.51254532649E-01  0.13062133978E+00  0.20127312533E-01 0.  0.
         14    1    1    2    0    0 -0.24090885740E-02 -0.18862571000E-01 -0.15540223297E-01  0.24558070621E-01  0.00000000000E+00 0.  1.
     999901    1    3    3    0    0  0.68975149153E-01 -0.79110681260E-01  0.66794755946E-01  0.88875058960E+00  0.88000000000E+00 0. -1.
        -11    1    4    4    0    0 -0.12713379231E-01  0.18980339279E-01 -0.19014371111E-01  0.29726935939E-01  0.51100000000E-03 0. -1.
         11    1    4    4    0    0 -0.53852681349E-01  0.78992912980E-01 -0.32240161538E-01  0.10089440384E+00  0.51100000000E-03 0.  1.
</event>
<event>
 8    1  0.1122848E+005  0.1043930E+01  0.7957747E-01            NaN
         13   -1    0    0    0    0  0.00000000000E+00  0.00000000000E+00  0.74505805969E-08  0.10566000000E+00  0.10566000000E+00 0. -1.
     999900   -1    0    0    0    0 -0.00000000000E+00 -0.00000000000E+00 -0.74505805969E-08  0.93827000000E+00  0.93827000000E+00 0. -1.
     999902    2    1    2    0    0  0.14051809668E-01 -0.13086934847E-01 -0.14058754448E-01  0.10201314749E+01  0.10198538407E+01 0.  0.
     999903    2    3    3    0    0  0.58985214077E-01 -0.78083380208E-01  0.84832130015E-01  0.13107413383E+00  0.20190803156E-01 0.  0.
         14    1    1    2    0    0 -0.14051809668E-01  0.13086934847E-01  0.14058754448E-01  0.23798525065E-01  0.00000000000E+00 0. -1.
     999901    1    3    3    0    0 -0.44933404408E-01  0.64996445361E-01 -0.98890884464E-01  0.88905734110E+00  0.88000000000E+00 0. -1.
        -11    1    4    4    0    0  0.34028465038E-01 -0.59935279535E-01  0.61693434668E-01  0.92501433329E-01  0.51100000000E-03 0.  1.
         11    1    4    4    0    0  0.24956749038E-01 -0.18148100673E-01  0.23138695348E-01  0.38572700502E-01  0.51100000000E-03 0. -1.
</event>
<event>
 7    1  0.1122848E+005  0.1043930E+01  0.7957747E-01            NaN
         13   -1    0    0    0    0  0.00000000000E+00  0.00000000000E+00  0.74505805969E-08  0.10566000000E+00  0.10566000000E+00 0. -1.
     999900   -1    0    0    0    0 -0.00000000000E+00 -0.00000000000E+00 -0.74505805969E-08  0.93827000000E+00  0.93827000000E+00 0. -1.
     999903    2    1    2    0    0 -0.90188498521E-01 -0.62405933486E-02 -0.66758348053E-01  0.11480702596E+00  0.23474792949E-01 0.  0.
         14    1    1    2    0    0  0.36011692392E-01  0.16438963238E-01 -0.17697692836E-01  0.43362308898E-01  0.00000000000E+00 0.  1.
     999901    1    1    2    0    0  0.54176806129E-01 -0.10198369890E-01  0.84456040889E-01  0.88576066514E+00  0.88000000000E+00 0.  1.
        -11    1    3    3    0    0 -0.29110318729E-01 -0.26913608701E-02 -0.35844239759E-01  0.46257158633E-01  0.51100000000E-03 0.  1.
         11    1    3    3    0    0 -0.61078179792E-01 -0.35492324785E-02 -0.30914108294E-01  0.68549867327E-01  0.51100000000E-03 0. -1.
</event>
<event>
 8    1  0.1122848E+005  0.1043930E+01  0.7957747E-01            NaN
         13   -1    0    0    0    0  0.00000000000E+00  0.00000000000E+00  0.74505805969E-08  0.10566000000E+00  0.10566000000E+00 0.  1.
     999900   -1    0    0    0    0 -0.00000000000E+00 -0.00000000000E+00 -0.74505805969E-08  0.93827000000E+00  0.93827000000E+00 0.  1.
     999902    2    1    2    0    0 -0.23057796215E-01 -0.45438470033E-02  0.19741649038E-02  0.10203459834E+01  0.10200733895E+01 0.  0.
     999903    2    3    3    0    0  0.78097196139E-03  0.12746469808E+00 -0.17573539132E-01  0.12996592097E+00  0.18288033274E-01 0.  0.
         14    1    1    2    0    0  0.23057796215E-01  0.45438470033E-02 -0.19741649038E-02  0.23584016599E-01  0.00000000000E+00 0. -1.
     999901    1    3    3    0    0 -0.23838768177E-01 -0.13200854509E+00  0.19547704036E-01  0.89038006243E+00  0.88000000000E+00 0.  1.
        -11    1    4    4    0    0 -0.73815752307E-03  0.48972073208E-01 -0.15698489610E-01  0.51434546055E-01  0.51100000000E-03 0. -1.
         11    1    4    4    0    0  0.15191294845E-02  0.78492624875E-01 -0.18750495214E-02  0.78531374913E-01  0.51100000000E-03 0.  1.
</event>
<event>
 8    1  0.1122848E+005  0.1043930E+01  0.7957747E-01            NaN
         13   -1    0    0    0    0  0.00000000000E+00  0.00000000000E+00  0.74505805969E-08  0.10566000000E+00  0.10566000000E+00 0. -1.
     999900   -1    0    0    0    0 -0.00000000000E+00 -0.00000000000E+00 -0.74505805969E-08  0.93827000000E+00  0.93827000000E+00 0.  1.
     999902    2    1    2    0    0  0.19197550190E-01  0.97764962805E-02 -0.10501430183E-01  0.10199632345E+01  0.10196816140E+01 0.  0.
     999903    2    3    3    0    0 -0.67324116665E-01 -0.98538504400E-01 -0.43084945869E-01  0.12851507352E+00  0.20431300202E-01 0.  0.
         14    1    1    2    0    0 -0.19197550190E-01 -0.97764962805E-02  0.10501430183E-01  0.23966765504E-01  0.00000000000E+00 0. -1.
     999901    1    3    3    0    0  0.86521666856E-01  0.10831500068E+00  0.32583515686E-01  0.89144816097E+00  0.88000000000E+00 0. -1.
        -11    1    4    4    0    0 -0.45309960191E-01 -0.67119411562E-01 -0.18893314398E-01  0.83157839984E-01  0.51100000000E-03 0. -1.
         11    1    4    4    0    0 -0.22014156474E-01 -0.31419092838E-01 -0.24191631471E-01  0.45357233538E-01  0.51100000000E-03 0.  1.
</event>
<event>
 8    1  0.1122848E+005  0.1043930E+01  0.7957747E-01            NaN
         13   -1    0    0    0    0  0.00000000000E+00  0.00000000000E+00  0.74505805969E-08  0.10566000000E+00  0.10566000000E+00 0.  1.
     999900   -1    0    0    0    0 -0.00000000000E+00 -0.00000000000E+00 -0.74505805969E-08  0.93827000000E+00  0.93827000000E+00 0. -1.
     999902    2    1    2    0    0  0.10420189241E-01 -0.19540038591E-01 -0.90398050484E-02  0.10200111470E+01  0.10197306647E+01 0.  0.
     999903    2    3    3    0    0 -0.77455346846E-01  0.97657214626E-01  0.17756669490E-01  0.12750044287E+00  0.20119674350E-01 0.  0.
         14    1    1    2    0    0 -0.10420189241E-01  0.19540038591E-01  0.90398050484E-02  0.23918852968E-01  0.00000000000E+00 0. -1.
     999901    1    3    3    0    0  0.87875536087E-01 -0.11719725322E+00 -0.26796474539E-01  0.89251070417E+00  0.88000000000E+00 0. -1.
        -11    1    4    4    0    0 -0.29715271726E-01  0.46510655180E-01  0.16172943576E-01  0.57515768655E-01  0.51100000000E-03 0.  1.
         11    1    4    4    0    0 -0.47740075120E-01  0.51146559446E-01  0.15837259146E-02  0.69984674211E-01  0.51100000000E-03 0. -1.
</event>
<event>
 8    1  0.1122848E+005  0.1043930E+01  0.7957747E-01            NaN
         13   -1    0    0    0    0  0.00000000000E+00  0.00000000000E+00  0.74505805969E-08  0.10566000000E+00  0.10566000000E+00 0.  1.
     999900   -1    0    0    0    0 -0.00000000000E+00 -0.00000000000E+00 -0.74505805969E-08  0.93827000000E+00  0.93827000000E+00 0. -1.
     999902    2    1    2    0    0 -0.49790867209E-03  0.21399562304E-01  0.99725785894E-02  0.10203155658E+01  0.10200422600E+01 0.  0.
     999903    2    3    3    0    0 -0.81458738243E-01  0.10490580275E-01  0.10125563572E+00  0.13183019261E+00  0.19517110651E-01 0.  0.
         14    1    1    2    0    0  0.49790867209E-03 -0.21399562304E-01 -0.99725785894E-02  0.23614434221E-01  0.00000000000E+00 0. -1.
     999901    1    3    3    0    0  0.80960829571E-01  0.10908982029E-01 -0.91283057131E-01  0.88848537317E+00  0.88000000000E+00 0. -1.
        -11    1    4    4    0    0 -0.27941290462E-01  0.17202727056E-02  0.21136437637E-01  0.35081122671E-01  0.51100000000E-03 0. -1.
         11    1    4    4    0    0 -0.53517447781E-01  0.87703075690E-02  0.80119198083E-01  0.96749069940E-01  0.51100000000E-03 0.  1.
</event>
<event>
 8    1  0.1122848E+005  0.1043930E+01  0.7957747E-01            NaN
         13   -1    0    0    0    0  0.00000000000E+00  0.00000000000E+00  0.74505805969E-08  0.10566000000E+00  0.10566000000E+00 0.  1.
     999900   -1    0    0    0    0 -0.00000000000E+00 -0.00000000000E+00 -0.74505805969E-08  0.93827000000E+00  0.93827000000E+00 0. -1.
     999902    2    1    2    0    0 -0.17284384674E-01 -0.11656725010E-01  0.11316742661E-01  0.10202087467E+01  0.10199329336E+01 0.  0.
     999903    2    3    3    0    0  0.31157547497E-01 -0.34115830902E-02 -0.12312396877E+00  0.12864332119E+00  0.20178224295E-01 0.  0.
         14    1    1    2    0    0  0.17284384674E-01  0.11656725010E-01 -0.11316742661E-01  0.23721253254E-01  0.00000000000E+00 0. -1.
     999901    1    3    3    0    0 -0.48441932171E-01 -0.82451419196E-02  0.13444071143E+00  0.89156542556E+00  0.88000000000E+00 0. -1.
        -11    1    4    4    0    0  0.15775906345E-01 -0.11132490167E-01 -0.77721253381E-01  0.80085366369E-01  0.51100000000E-03 0.  1.
         11    1    4    4    0    0  0.15381641152E-01  0.77209070773E-02 -0.45402715389E-01  0.48557954820E-01  0.51100000000E-03 0. -1.
</event>
<event>
 8    1  0.1122848E+005  0.1043930E+01  0.7957747E-01            NaN
         13   -1    0    0    0    0  0.00000000000E+00  0.00000000000E+00  0.74505805969E-08  0.10566000000E+00  0.10566000000E+00 0.  1.
     999900   -1    0    0    0    0 -0.00000000000E+00 -0.00000000000E+00 -0.74505805969E-08  0.93827000000E+00  0.93827000000E+00 0. -1.
     999902    2    1    2    0    0  0.21583218760E-01  0.11282002123E-01  0.58348579144E-02  0.10188867480E+01  0.10185789320E+01 0.  0.
     999903    2    3    3    0    0  0.49104053121E-01 -0.10491880956E+00 -0.52950529681E-01  0.12887790155E+00  0.19661899241E-01 0.  0.
         14    1    1    2    0    0 -0.21583218760E-01 -0.11282002123E-01 -0.58348579144E-02  0.25043252002E-01  0.00000000000E+00 0.  1.
     999901    1    3    3    0    0 -0.27520834361E-01  0.11620081169E+00  0.58785387596E-01  0.89000884645E+00  0.88000000000E+00 0.  1.
        -11    1    4    4    0    0  0.30851964148E-01 -0.84331330343E-01 -0.43516641385E-01  0.99787655387E-01  0.51100000000E-03 0.  1.
         11    1    4    4    0    0  0.18252088973E-01 -0.20587479219E-01 -0.94338882959E-02  0.29090246163E-01  0.51100000000E-03 0. -1.
</event>
<event>
 8    1  0.1122848E+005  0.1043930E+01  0.7957747E-01            NaN
         13   -1    0    0    0    0  0.00000000000E+00  0.00000000000E+00  0.74505805969E-08  0.10566000000E+00  0.10566000000E+00 0.  1.
     999900   -1    0    0    0    0 -0.00000000000E+00 -0.00000000000E+00 -0.74505805969E-08  0.93827000000E+00  0.93827000000E+00 0.  1.
     999902    2    1    2    0    0 -0.21413229358E-01  0.27105651639E-02 -0.17572959790E-03  0.10223451804E+01  0.10221172944E+01 0.  0.
     999903    2    3    3    0    0 -0.63529026295E-02 -0.13049478315E+00  0.31205909163E-02  0.13218713604E+00  0.19860842006E-01 0.  0.
         14    1    1    2    0    0  0.21413229358E-01 -0.27105651639E-02  0.17572959790E-03  0.21584819572E-01  0.00000000000E+00 0. -1.
     999901    1    3    3    0    0 -0.15060326729E-01  0.13320534831E+00 -0.32963205142E-02  0.89015804439E+00  0.88000000000E+00 0.  1.
        -11    1    4    4    0    0 -0.93210603049E-02 -0.84425207922E-01 -0.59069600262E-02  0.85144883556E-01  0.51100000000E-03 0. -1.
         11    1    4    4    0    0  0.29681576753E-02 -0.46069575229E-01  0.90275509425E-02  0.47042252484E-01  0.51100000000E-03 0.  1.
</event>
<event>
 8    1  0.1122848E+005  0.1043930E+01  0.7957747E-01            NaN
         13   -1    0    0    0    0  0.00000000000E+00  0.00000000000E+00  0.74505805969E-08  0.10566000000E+00  0.10566000000E+00 0.  1.
     999900   -1    0    0    0    0 -0.00000000000E+00 -0.00000000000E+00 -0.74505805969E-08  0.93827000000E+00  0.93827000000E+00 0. -1.
     999902    2    1    2    0    0  0.18349243842E-01 -0.58576487180E-02  0.13734019114E-01  0.10202734982E+01  0.10199992064E+01 0.  0.
     999903    2    3    3    0    0 -0.73915948021E-01 -0.27406097347E-01 -0.98298979545E-01  0.12812519544E+00  0.23210230135E-01 0.  0.
         14    1    1    2    0    0 -0.18349243842E-01  0.58576487180E-02 -0.13734019114E-01  0.23656501836E-01  0.00000000000E+00 0. -1.
     999901    1    3    3    0    0  0.92265191862E-01  0.21548448629E-01  0.11203299866E+00  0.89214830273E+00  0.88000000000E+00 0.  1.
        -11    1    4    4    0    0 -0.38501436280E-01 -0.25431042991E-02 -0.51965853347E-01  0.64726648377E-01  0.51100000000E-03 0. -1.
         11    1    4    4    0    0 -0.35414511741E-01 -0.24862993048E-01 -0.46333126199E-01  0.63398547062E-01  0.51100000000E-03 0.  1.
</event>
<event>
 8    1  0.1122848E+005  0.1043930E+01  0.7957747E-01            NaN
         13   -1    0    0    0    0  0.00000000000E+00  0.00000000000E+00  0.74505805969E-08  0.10566000000E+00  0.10566000000E+00 0. -1.
     999900   -1    0    0    0    0 -0.00000000000E+00 -0.00000000000E+00 -0.74505805969E-08  0.93827000000E+00  0.93827000000E+00 0.  1.
     999902    2    1    2    0    0 -0.13437516046E-01  0.10091638798E-01  0.16578667129E-01  0.10203236404E+01  0.10200505237E+01 0.  0.
     999903    2    3    3    0    0 -0.77544435992E-01  0.74589916462E-01  0.76172840446E-01  0.13363249319E+00  0.21875703924E-01 0.  0.
         14    1    1    2    0    0  0.13437516046E-01 -0.10091638798E-01 -0.16578667129E-01  0.23606359627E-01  0.00000000000E+00 0.  1.
     999901    1    3    3    0    0  0.64106919947E-01 -0.64498277665E-01 -0.59594173317E-01  0.88669114719E+00  0.88000000000E+00 0.  1.
        -11    1    4    4    0    0 -0.27604635739E-01  0.15709942355E-01  0.29873461695E-01  0.43606227052E-01  0.51100000000E-03 0. -1.
         11    1    4    4    0    0 -0.49939800254E-01  0.58879974107E-01  0.46299378751E-01  0.90026266133E-01  0.51100000000E-03 0.  1.
</event>
<event>
 8    1  0.1122848E+005  0.1043930E+01  0.7957747E-01            NaN
         13   -1    0    0    0    0  0.00000000000E+00  0.00000000000E+00  0.74505805969E-08  0.10566000000E+00  0.10566000000E+00 0. -1.
     999900   -1    0    0    0    0 -0.00000000000E+00 -0.00000000000E+00 -0.74505805969E-08  0.93827000000E+00  0.93827000000E+00 0. -1.
     999902    2    1    2    0    0  0.16381447275E-01  0.17780839355E-01  0.13506674611E-02  0.10197156579E+01  0.10194281184E+01 0.  0.
     999903    2    3    3    0    0  0.52407156862E-01 -0.11586437979E+00  0.71713589094E-02  0.12887741395E+00  0.19669642671E-01 0.  0.
         14    1    1    2    0    0 -0.16381447275E-01 -0.17780839355E-01 -0.13506674611E-02  0.24214342147E-01  0.00000000000E+00 0.  1.
     999901    1    3    3    0    0 -0.36025709586E-01  0.13364521915E+00 -0.58206914483E-02  0.89083824390E+00  0.88000000000E+00 0.  1.
        -11    1    4    4    0    0  0.20527055354E-01 -0.29290568490E-01  0.78242412619E-02  0.36616625682E-01  0.51100000000E-03 0. -1.
         11    1    4    4    0    0  0.31880101508E-01 -0.86573811302E-01 -0.65288235255E-03  0.92260788268E-01  0.51100000000E-03 0.  1.
</event>
<event>
 8    1  0.1122848E+005  0.1043930E+01  0.7957747E-01            NaN
         13   -1    0    0    0    0  0.00000000000E+00  0.00000000000E+00  0.74505805969E-08  0.10566000000E+00  0.10566000000E+00 0.  1.
     999900   -1    0    0    0    0 -0.00000000000E+00 -0.00000000000E+00 -0.74505805969E-08  0.93827000000E+00  0.93827000000E+00 0.  1.
     999902    2    1    2    0    0  0.16783681142E-01 -0.57966320795E-02 -0.19143254369E-01  0.10178195216E+01  0.10174845559E+01 0.  0.
     999903    2    3    3    0    0  0.11445857137E+00  0.41351864353E-01  0.38839562553E-01  0.12926711909E+00  0.19767023345E-01 0.  0.
         14    1    1    2    0    0 -0.16783681142E-01  0.57966320795E-02  0.19143254369E-01  0.26110478433E-01  0.00000000000E+00 0.  1.
     999901    1    3    3    0    0 -0.97674890228E-01 -0.47148496432E-01 -0.57982816923E-01  0.88855240248E+00  0.88000000000E+00 0.  1.
        -11    1    4    4    0    0  0.52384437163E-02  0.70091933439E-02  0.19724023034E-02  0.89845186709E-02  0.51100000000E-03 0.  1.
         11    1    4    4    0    0  0.10922012765E+00  0.34342671009E-01  0.36867160250E-01  0.12028260042E+00  0.51100000000E-03 0. -1.
</event>
<event>
 8    1  0.1122848E+005  0.1043930E+01  0.7957747E-01            NaN
         13   -1    0    0    0    0  0.00000000000E+00  0.00000000000E+00  0.74505805969E-08  0.10566000000E+00  0.10566000000E+00 0.  1.
     999900   -1    0    0    0    0 -0.00000000000E+00 -0.00000000000E+00 -0.74505805969E-08  0.93827000000E+00  0.93827000000E+00 0.  1.
     999902    2    1    2    0    0 -0.24449621698E-02  0.18209489763E-01 -0.15306185743E-01  0.10200167677E+01  0.10197364187E+01 0.  0.
     999903    2    3    3    0    0 -0.44644926174E-01 -0.61956900137E-01  0.10060420938E+00  0.12780451339E+00  0.19518191283E-01 0.  0.
         14    1    1    2    0    0  0.24449621698E-02 -0.18209489763E-01  0.15306185743E-01  0.23913232308E-01  0.00000000000E+00 0.  1.
     999901    1    3    3    0    0  0.42199964004E-01  0.80166389899E-01 -0.11591039512E+00  0.89221225430E+00  0.88000000000E+00 0.  1.
        -11    1    4    4    0    0 -0.35484873381E-01 -0.39273171954E-01  0.79400938686E-01  0.95427084517E-01  0.51100000000E-03 0. -1.
         11    1    4    4    0    0 -0.91600527932E-02 -0.22683728183E-01  0.21203270689E-01  0.32377428872E-01  0.51100000000E-03 0.  1.
</event>
<event>
 8    1  0.1122848E+005  0.1043930E+01  0.7957747E-01            NaN
         13   -1    0    0    0    0  0.00000000000E+00  0.00000000000E+00  0.74505805969E-08  0.10566000000E+00  0.10566000000E+00 0.  1.
     999900   -1    0    0    0    0 -0.00000000000E+00 -0.00000000000E+00 -0.74505805969E-08  0.93827000000E+00  0.93827000000E+00 0. -1.
     999902    2    1    2    0    0 -0.20953094248E-01  0.19718278111E-04  0.10969779429E-01  0.10202790252E+01  0.10200048631E+01 0.  0.
     999903    2    3    3    0    0 -0.39749565455E-01 -0.11050523745E+00  0.56791931076E-01  0.13198361110E+00  0.20072735341E-01 0.  0.
         14    1    1    2    0    0  0.20953094248E-01 -0.19718278111E-04 -0.10969779429E-01  0.23650974781E-01  0.00000000000E+00 0. -1.
     999901    1    3    3    0    0  0.18796471207E-01  0.11052495573E+00 -0.45822151647E-01  0.88829541412E+00  0.88000000000E+00 0.  1.
        -11    1    4    4    0    0 -0.33712731399E-01 -0.10689716518E+00  0.53487116508E-01  0.12419615508E+00  0.51100000000E-03 0. -1.
         11    1    4    4    0    0 -0.60368340566E-02 -0.36080722728E-02  0.33048145678E-02  0.77874560211E-02  0.51100000000E-03 0.  1.
</event>
<event>
 8    1  0.1122848E+005  0.1043930E+01  0.7957747E-01            NaN
         13   -1    0    0    0    0  0.00000000000E+00  0.00000000000E+00  0.74505805969E-08  0.10566000000E+00  0.10566000000E+00 0.  1.
     999900   -1    0    0    0    0 -0.00000000000E+00 -0.00000000000E+00 -0.74505805969E-08  0.93827000000E+00  0.93827000000E+00 0.  1.
     999902    2    1    2    0    0  0.21913782916E-01 -0.54357567843E-02  0.89040029412E-02  0.10196598001E+01  0.10193709165E+01 0.  0.
     999903    2    3    3    0    0  0.52297103803E-01  0.47592079094E-02  0.11959073168E+00  0.13214718872E+00  0.20082312023E-01 0.  0.
         14    1    1    2    0    0 -0.21913782916E-01  0.54357567843E-02 -0.89040029412E-02  0.24270199873E-01  0.00000000000E+00 0. -1.
     999901    1    3    3    0    0 -0.30383320887E-01 -0.10194964694E-01 -0.11068672874E+00  0.88751261141E+00  0.88000000000E+00 0.  1.
        -11    1    4    4    0    0  0.32994261804E-01  0.12664057085E-01  0.76529735844E-01  0.84297456920E-01  0.51100000000E-03 0. -1.
         11    1    4    4    0    0  0.19302841998E-01 -0.79048491759E-02  0.43060995835E-01  0.47849731797E-01  0.51100000000E-03 0.  1.
</event>
<event>
 8    1  0.1122848E+005  0.1043930E+01  0.7957747E-01            NaN
         13   -1    0    0    0    0  0.00000000000E+00  0.00000000000E+00  0.74505805969E-08  0.10566000000E+00  0.10566000000E+00 0.  1.
     999900   -1    0    0    0    0 -0.00000000000E+00 -0.00000000000E+00 -0.74505805969E-08  0.93827000000E+00  0.93827000000E+00 0. -1.
     999902    2    1    2    0    0 -0.12167705605E-01  0.15521817412E-01 -0.13006746402E-01  0.10203046888E+01  0.10200311283E+01 0.  0.
     999903    2    3    3    0    0  0.87426356112E-01  0.34077257286E-01 -0.89528452741E-01  0.13119341739E+00  0.19792465965E-01 0.  0.
         14    1    1    2    0    0  0.12167705605E-01 -0.15521817412E-01  0.13006746402E-01  0.23625311161E-01  0.00000000000E+00 0.  1.
     999901    1    3    3    0    0 -0.99594061717E-01 -0.18555439874E-01  0.76521706339E-01  0.88911127145E+00  0.88000000000E+00 0. -1.
        -11    1    4    4    0    0  0.51189657093E-01  0.10288110293E-01 -0.54312032195E-01  0.75341118713E-01  0.51100000000E-03 0.  1.
         11    1    4    4    0    0  0.36236699019E-01  0.23789146993E-01 -0.35216420546E-01  0.55852298677E-01  0.51100000000E-03 0. -1.
</event>
<event>
 8    1  0.1122848E+005  0.1043930E+01  0.7957747E-01            NaN
         13   -1    0    0    0    0  0.00000000000E+00  0.00000000000E+00  0.74505805969E-08  0.10566000000E+00  0.10566000000E+00 0.  1.
     999900   -1    0    0    0    0 -0.00000000000E+00 -0.00000000000E+00 -0.74505805969E-08  0.93827000000E+00  0.93827000000E+00 0. -1.
     999902    2    1    2    0    0  0.33301136428E-02  0.13301519393E-01 -0.19638886129E-01  0.10199778409E+01  0.10196965677E+01 0.  0.
     999903    2    3    3    0    0  0.70476813498E-02  0.99482673750E-01 -0.86032593611E-01  0.13327093555E+00  0.20323949195E-01 0.  0.
         14    1    1    2    0    0 -0.33301136428E-02 -0.13301519393E-01  0.19638886129E-01  0.23952159056E-01  0.00000000000E+00 0.  1.
     999901    1    3    3    0    0 -0.37175677070E-02 -0.86181154357E-01  0.66393707482E-01  0.88670690539E+00  0.88000000000E+00 0. -1.
        -11    1    4    4    0    0 -0.68880930386E-02  0.27074863166E-01 -0.26335681683E-01  0.38396917740E-01  0.51100000000E-03 0.  1.
         11    1    4    4    0    0  0.13935774388E-01  0.72407810583E-01 -0.59696911928E-01  0.94874017813E-01  0.51100000000E-03 0. -1.
</event>
<event>
 8    1  0.1122848E+005  0.1043930E+01  0.7957747E-01            NaN
         13   -1    0    0    0    0  0.00000000000E+00  0.00000000000E+00  0.74505805969E-08  0.10566000000E+00  0.10566000000E+00 0.  1.
     999900   -1    0    0    0    0 -0.00000000000E+00 -0.00000000000E+00 -0.74505805969E-08  0.93827000000E+00  0.93827000000E+00 0.  1.
     999902    2    1    2    0    0 -0.32161624184E-02 -0.15315691181E-01  0.16913304192E-01  0.10208871279E+01  0.10206270396E+01 0.  0.
     999903    2    3    3    0    0  0.47131827075E-01 -0.11904188301E+00 -0.24946096545E-01  0.13237924814E+00  0.22573847080E-01 0.  0.
         14    1    1    2    0    0  0.32161624184E-02  0.15315691181E-01 -0.16913304192E-01  0.23042872125E-01  0.00000000000E+00 0. -1.
     999901    1    3    3    0    0 -0.50347989493E-01  0.10372619183E+00  0.41859400737E-01  0.88850787973E+00  0.88000000000E+00 0.  1.
        -11    1    4    4    0    0 -0.22553201109E-02 -0.27059855254E-02 -0.13653348947E-02  0.38123597471E-02  0.51100000000E-03 0. -1.
         11    1    4    4    0    0  0.49387147186E-01 -0.11633589748E+00 -0.23580761650E-01  0.12856688840E+00  0.51100000000E-03 0.  1.
</event>
<event>
 8    1  0.1122848E+005  0.1043930E+01  0.7957747E-01            NaN
         13   -1    0    0    0    0  0.00000000000E+00  0.00000000000E+00  0.74505805969E-08  0.10566000000E+00  0.10566000000E+00 0. -1.
     999900   -1    0    0    0    0 -0.00000000000E+00 -0.00000000000E+00 -0.74505805969E-08  0.93827000000E+00  0.93827000000E+00 0. -1.
     999902    2    1    2    0    0 -0.14352974489E-01 -0.18122847129E-01  0.24051430594E-02  0.10206871478E+01  0.10204224731E+01 0.  0.
     999903    2    3    3    0    0 -0.24629858345E-01 -0.80417957618E-01  0.10092692291E+00  0.13294121781E+00  0.20333366533E-01 0.  0.
         14    1    1    2    0    0  0.14352974489E-01  0.18122847129E-01 -0.24051430594E-02  0.23242852190E-01  0.00000000000E+00 0. -1.
     999901    1    3    3    0    0  0.10276883856E-01  0.62295110489E-01 -0.98521779850E-01  0.88774593000E+00  0.88000000000E+00 0. -1.
        -11    1    4    4    0    0 -0.19316206134E-01 -0.69978828986E-01  0.95658020542E-01  0.12008692827E+00  0.51100000000E-03 0. -1.
         11    1    4    4    0    0 -0.53136522113E-02 -0.10439128632E-01  0.52689023673E-02  0.12854289540E-01  0.51100000000E-03 0.  1.
</event>
<event>
 8    1  0.1122848E+005  0.1043930E+01  0.7957747E-01            NaN
         13   -1    0    0    0    0  0.00000000000E+00  0.00000000000E+00  0.74505805969E-08  0.10566000000E+00  0.10566000000E+00 0. -1.
     999900   -1    0    0    0    0 -0.00000000000E+00 -0.00000000000E+00 -0.74505805969E-08  0.93827000000E+00  0.93827000000E+00 0. -1.
     999902    2    1    2    0    0  0.59131149542E-02  0.21877030806E-01  0.71497378352E-02  0.10201668319E+01  0.10198900317E+01 0.  0.
     999903    2    3    3    0    0  0.43022138887E-01 -0.11624615348E+00  0.25525584413E-01  0.12843101599E+00  0.21883733132E-01 0.  0.
         14    1    1    2    0    0 -0.59131149542E-02 -0.21877030806E-01 -0.71497378352E-02  0.23763168064E-01  0.00000000000E+00 0.  1.
     999901    1    3    3    0    0 -0.37109023933E-01  0.13812318429E+00 -0.18375846578E-01  0.89173581594E+00  0.88000000000E+00 0.  1.
        -11    1    4    4    0    0  0.44704741407E-01 -0.10121928671E+00  0.23990304172E-01  0.11322390967E+00  0.51100000000E-03 0. -1.
         11    1    4    4    0    0 -0.16826025203E-02 -0.15026866775E-01  0.15352802410E-02  0.15207106324E-01  0.51100000000E-03 0.  1.
</event>
<event>
 8    1  0.1122848E+005  0.1043930E+01  0.7957747E-01            NaN
         13   -1    0    0    0    0  0.00000000000E+00  0.00000000000E+00  0.74505805969E-08  0.10566000000E+00  0.10566000000E+00 0.  1.
     999900   -1    0    0    0    0 -0.00000000000E+00 -0.00000000000E+00 -0.74505805969E-08  0.93827000000E+00  0.93827000000E+00 0. -1.
     999902    2    1    2    0    0  0.10122248347E-01 -0.26879384090E-02 -0.21655005844E-01  0.10198753912E+01  0.10195916778E+01 0.  0.
     999903    2    3    3    0    0 -0.94561179250E-01  0.79782572275E-01  0.28397854171E-01  0.12843537983E+00  0.19548227819E-01 0.  0.
         14    1    1    2    0    0 -0.10122248347E-01  0.26879384090E-02  0.21655005844E-01  0.24054608760E-01  0.00000000000E+00 0.  1.
     999901    1    3    3    0    0  0.10468342760E+00 -0.82470510684E-01 -0.50052860015E-01  0.89144001141E+00  0.88000000000E+00 0. -1.
        -11    1    4    4    0    0 -0.60217229215E-01  0.62225443722E-01  0.17409152664E-01  0.88325875361E-01  0.51100000000E-03 0.  1.
         11    1    4    4    0    0 -0.34343950035E-01  0.17557128552E-01  0.10988701507E-01  0.40109504470E-01  0.51100000000E-03 0. -1.
</event>
<event>
 7    1  0.1122848E+005  0.1043930E+01  0.7957747E-01            NaN
         13   -1    0    0    0    0  0.00000000000E+00  0.00000000000E+00  0.74505805969E-08  0.10566000000E+00  0.10566000000E+00 0. -1.
     999900   -1    0    0    0    0 -0.00000000000E+00 -0.00000000000E+00 -0.74505805969E-08  0.93827000000E+00  0.93827000000E+00 0.  1.
     999903    2    1    2    0    0 -0.56811643496E-01 -0.18009241149E-01 -0.35472984647E-01  0.71980698252E-01  0.19261170205E-01 0.  0.
         14    1    1    2    0    0 -0.67573533501E-01  0.30568430459E-01 -0.31533070616E-01  0.80591227271E-01  0.00000000000E+00 0.  1.
     999901    1    1    2    0    0  0.12438517700E+00 -0.12559189310E-01  0.67006055263E-01  0.89135807448E+00  0.88000000000E+00 0. -1.
        -11    1    3    3    0    0 -0.18879465996E-01  0.29278163390E-02 -0.13490813647E-01  0.23393792310E-01  0.51100000000E-03 0. -1.
         11    1    3    3    0    0 -0.37932177500E-01 -0.20937057488E-01 -0.21982171000E-01  0.48586905942E-01  0.51100000000E-03 0.  1.
</event>
<event>
 8    1  0.1122848E+005  0.1043930E+01  0.7957747E-01            NaN
         13   -1    0    0    0    0  0.00000000000E+00  0.00000000000E+00  0.74505805969E-08  0.10566000000E+00  0.10566000000E+00 0. -1.
     999900   -1    0    0    0    0 -0.00000000000E+00 -0.00000000000E+00 -0.74505805969E-08  0.93827000000E+00  0.93827000000E+00 0. -1.
     999902    2    1    2    0    0 -0.91563170027E-02 -0.19269157384E-01 -0.65797367955E-02  0.10216044204E+01  0.10213604458E+01 0.  0.
     999903    2    3    3    0    0  0.76083218479E-01  0.59624590953E-01 -0.84839204714E-01  0.13052948179E+00  0.22282436558E-01 0.  0.
         14    1    1    2    0    0  0.91563170027E-02  0.19269157384E-01  0.65797367955E-02  0.22325579582E-01  0.00000000000E+00 0.  1.
     999901    1    3    3    0    0 -0.85239535482E-01 -0.78893748337E-01  0.78259467918E-01  0.89107493863E+00  0.88000000000E+00 0.  1.
        -11    1    4    4    0    0  0.59939271372E-01  0.42820772554E-01 -0.75312772777E-01  0.10534993915E+00  0.51100000000E-03 0. -1.
         11    1    4    4    0    0  0.16143947107E-01  0.16803818399E-01 -0.95264319368E-02  0.25179542637E-01  0.51100000000E-03 0.  1.
</event>
<event>
 8    1  0.1122848E+005  0.1043930E+01  0.7957747E-01            NaN
         13   -1    0    0    0    0  0.00000000000E+00  0.00000000000E+00  0.74505805969E-08  0.10566000000E+00  0.10566000000E+00 0.  1.
     999900   -1    0    0    0    0 -0.00000000000E+00 -0.00000000000E+00 -0.74505805969E-08  0.93827000000E+00  0.93827000000E+00 0.  1.
     999902    2    1    2    0    0 -0.15136070625E-01  0.13465348046E-01  0.13376236552E-01  0.10196536754E+01  0.10193646442E+01 0.  0.
     999903    2    3    3    0    0  0.11302823453E+00 -0.48461255579E-01 -0.26317923922E-01  0.12733275794E+00  0.19927945999E-01 0.  0.
         14    1    1    2    0    0  0.15136070625E-01 -0.13465348046E-01 -0.13376236552E-01  0.24276324604E-01  0.00000000000E+00 0. -1.
     999901    1    3    3    0    0 -0.12816430516E+00  0.61926603625E-01  0.39694160474E-01  0.89232091746E+00  0.88000000000E+00 0. -1.
        -11    1    4    4    0    0  0.28069191470E-01 -0.71643513817E-02  0.10183780332E-02  0.28991475563E-01  0.51100000000E-03 0. -1.
         11    1    4    4    0    0  0.84959043061E-01 -0.41296904197E-01 -0.27336301955E-01  0.98341282378E-01  0.51100000000E-03 0.  1.
</event>
<event>
 8    1  0.1122848E+005  0.1043930E+01  0.7957747E-01            NaN
         13   -1    0    0    0    0  0.00000000000E+00  0.00000000000E+00  0.74505805969E-08  0.10566000000E+00  0.10566000000E+00 0.  1.
     999900   -1    0    0    0    0 -0.00000000000E+00 -0.00000000000E+00 -0.74505805969E-08  0.93827000000E+00  0.93827000000E+00 0.  1.
     999902    2    1    2    0    0  0.14171304209E-01 -0.13623433739E-01  0.15207264992E-01  0.10190767363E+01  0.10187736302E+01 0.  0.
     999903    2    3    3    0    0 -0.95894786616E-01 -0.46408168191E-01 -0.68117100006E-01  0.12771130449E+00  0.17908372500E-01 0.  0.
         14    1    1    2    0    0 -0.14171304209E-01  0.13623433739E-01 -0.15207264992E-01  0.24853263737E-01  0.00000000000E+00 0. -1.
     999901    1    3    3    0    0  0.11006609083E+00  0.32784734452E-01  0.83324364998E-01  0.89136543178E+00  0.88000000000E+00 0. -1.
        -11    1    4    4    0    0 -0.80976106421E-01 -0.31421437242E-01 -0.55646590996E-01  0.10315638972E+00  0.51100000000E-03 0.  1.
         11    1    4    4    0    0 -0.14918680195E-01 -0.14986730948E-01 -0.12470509010E-01  0.24554914768E-01  0.51100000000E-03 0. -1.
</event>
<event>
 8    1  0.1122848E+005  0.1043930E+01  0.7957747E-01            NaN
         13   -1    0    0    0    0  0.00000000000E+00  0.00000000000E+00  0.74505805969E-08  0.10566000000E+00  0.10566000000E+00 0.  1.
     999900   -1    0    0    0    0 -0.00000000000E+00 -0.00000000000E+00 -0.74505805969E-08  0.93827000000E+00  0.93827000000E+00 0.  1.
     999902    2    1    2    0    0 -0.20116388881E-02 -0.23341242655E-02 -0.23608183684E-01  0.10201215737E+01  0.10198437056E+01 0.  0.
     999903    2    3    3    0    0 -0.11989063374E+00 -0.38208236724E-01  0.26707755235E-01  0.13011365063E+00  0.19560789298E-01 0.  0.
         14    1    1    2    0    0  0.20116388881E-02  0.23341242655E-02  0.23608183684E-01  0.23808426323E-01  0.00000000000E+00 0. -1.
     999901    1    3    3    0    0  0.11787899486E+00  0.35874112458E-01 -0.50315938919E-01  0.89000792304E+00  0.88000000000E+00 0.  1.
        -11    1    4    4    0    0 -0.33421492673E-01 -0.95489603940E-02  0.16397189374E-01  0.38435761440E-01  0.51100000000E-03 0. -1.
         11    1    4    4    0    0 -0.86469141072E-01 -0.28659276330E-01  0.10310565861E-01  0.91677889193E-01  0.51100000000E-03 0.  1.
</event>
<event>
 8    1  0.1122848E+005  0.1043930E+01  0.7957747E-01            NaN
         13   -1    0    0    0    0  0.00000000000E+00  0.00000000000E+00  0.74505805969E-08  0.10566000000E+00  0.10566000000E+00 0. -1.
     999900   -1    0    0    0    0 -0.00000000000E+00 -0.00000000000E+00 -0.74505805969E-08  0.93827000000E+00  0.93827000000E+00 0.  1.
     999902    2    1    2    0    0  0.13937600756E-01 -0.49178058142E-02  0.18730283376E-01  0.10200707241E+01  0.10197916538E+01 0.  0.
     999903    2    3    3    0    0  0.89616853506E-01  0.69239763613E-01 -0.60460988675E-01  0.13018424152E+00  0.21612040398E-01 0.  0.
         14    1    1    2    0    0 -0.13937600756E-01  0.49178058142E-02 -0.18730283376E-01  0.23859275852E-01  0.00000000000E+00 0.  1.
     999901    1    3    3    0    0 -0.75679252750E-01 -0.74157569427E-01  0.79191272051E-01  0.88988648263E+00  0.88000000000E+00 0. -1.
        -11    1    4    4    0    0  0.27283857738E-01  0.29748915007E-01 -0.30261380552E-01  0.50452146745E-01  0.51100000000E-03 0.  1.
         11    1    4    4    0    0  0.62332995768E-01  0.39490848606E-01 -0.30199608123E-01  0.79732094772E-01  0.51100000000E-03 0. -1.
</event>
<event>
 8    1  0.1122848E+005  0.1043930E+01  0.7957747E-01            NaN
         13   -1    0    0    0    0  0.00000000000E+00  0.00000000000E+00  0.74505805969E-08  0.10566000000E+00  0.10566000000E+00 0.  1.
     999900   -1    0    0    0    0 -0.00000000000E+00 -0.00000000000E+00 -0.74505805969E-08  0.93827000000E+00  0.93827000000E+00 0.  1.
     999902    2    1    2    0    0  0.22094344349E-01  0.73549163992E-02 -0.34567135177E-02  0.10203884683E+01  0.10201168671E+01 0.  0.
     999903    2    3    3    0    0  0.41558771250E-01 -0.11205455148E+00  0.48750422437E-01  0.13057777494E+00  0.19763543374E-01 0.  0.
         14    1    1    2    0    0 -0.22094344349E-01 -0.73549163992E-02  0.34567135177E-02  0.23541531722E-01  0.00000000000E+00 0.  1.
     999901    1    3    3    0    0 -0.19464426901E-01  0.11940946787E+00 -0.52207135954E-01  0.88981069334E+00  0.88000000000E+00 0.  1.
        -11    1    4    4    0    0  0.16396678251E-01 -0.24697876270E-01  0.66171474721E-02  0.30379004454E-01  0.51100000000E-03 0. -1.
         11    1    4    4    0    0  0.25162092998E-01 -0.87356675205E-01  0.42133274964E-01  0.10019877049E+00  0.51100000000E-03 0.  1.
</event>
<event>
 8    1  0.1122848E+005  0.1043930E+01  0.7957747E-01            NaN
         13   -1    0    0    0    0  0.00000000000E+00  0.00000000000E+00  0.74505805969E-08  0.10566000000E+00  0.10566000000E+00 0.  1.
     999900   -1    0    0    0    0 -0.00000000000E+00 -0.00000000000E+00 -0.74505805969E-08  0.93827000000E+00  0.93827000000E+00 0.  1.
     999902    2    1    2    0    0 -0.20842421326E-01 -0.11590980457E-02  0.10150885405E-01  0.10207181386E+01  0.10204541773E+01 0.  0.
     999903    2    3    3    0    0 -0.78412838638E-01 -0.29319443334E-01  0.10157511652E+00  0.13366360362E+00  0.23243313380E-01 0.  0.
         14    1    1    2    0    0  0.20842421326E-01  0.11590980457E-02 -0.10150885405E-01  0.23211861398E-01  0.00000000000E+00 0. -1.
     999901    1    3    3    0    0  0.57570417312E-01  0.28160345289E-01 -0.91424231111E-01  0.88705453498E+00  0.88000000000E+00 0.  1.
        -11    1    4    4    0    0 -0.26410369341E-01 -0.20599409540E-01  0.31653397144E-01  0.46087329646E-01  0.51100000000E-03 0. -1.
         11    1    4    4    0    0 -0.52002469297E-01 -0.87200337943E-02  0.69921719373E-01  0.87576273976E-01  0.51100000000E-03 0.  1.
</event>
<event>
 8    1  0.1122848E+005  0.1043930E+01  0.7957747E-01            NaN
         13   -1    0    0    0    0  0.00000000000E+00  0.00000000000E+00  0.74505805969E-08  0.10566000000E+00  0.10566000000E+00 0.  1.
     999900   -1    0    0    0    0 -0.00000000000E+00 -0.00000000000E+00 -0.74505805969E-08  0.93827000000E+00  0.93827000000E+00 0.  1.
     999902    2    1    2    0    0  0.43351401575E-02 -0.19236892348E-01 -0.15133208473E-01  0.10190731002E+01  0.10187699044E+01 0.  0.
     999903    2    3    3    0    0  0.30573102684E-01 -0.96118328577E-01  0.80039998522E-01  0.13022152362E+00  0.19436979050E-01 0.  0.
         14    1    1    2    0    0 -0.43351401575E-02  0.19236892348E-01  0.15133208473E-01  0.24856899768E-01  0.00000000000E+00 0. -1.
     999901    1    3    3    0    0 -0.26237962526E-01  0.76881436229E-01 -0.95173206995E-01  0.88885157661E+00  0.88000000000E+00 0.  1.
        -11    1    4    4    0    0  0.13608052453E-01 -0.69801923385E-01  0.59963568604E-01  0.93023536164E-01  0.51100000000E-03 0. -1.
         11    1    4    4    0    0  0.16965050230E-01 -0.26316405192E-01  0.20076429917E-01  0.37197987456E-01  0.51100000000E-03 0.  1.
</event>
<event>
 8    1  0.1122848E+005  0.1043930E+01  0.7957747E-01            NaN
         13   -1    0    0    0    0  0.00000000000E+00  0.00000000000E+00  0.74505805969E-08  0.10566000000E+00  0.10566000000E+00 0.  1.
     999900   -1    0    0    0    0 -0.00000000000E+00 -0.00000000000E+00 -0.74505805969E-08  0.93827000000E+00  0.93827000000E+00 0.  1.
     999902    2    1    2    0    0  0.81139054461E-02  0.15310462302E-01 -0.16020932827E-01  0.10203309321E+01  0.10200579861E+01 0.  0.
     999903    2    3    3    0    0 -0.79296411042E-01 -0.38096913613E-01  0.91388605700E-01  0.12790181995E+00  0.16361621682E-01 0.  0.
         14    1    1    2    0    0 -0.81139054461E-02 -0.15310462302E-01  0.16020932827E-01  0.23599067908E-01  0.00000000000E+00 0.  1.
     999901    1    3    3    0    0  0.87410316488E-01  0.53407375915E-01 -0.10740953853E+00  0.89242911214E+00  0.88000000000E+00 0.  1.
        -11    1    4    4    0    0 -0.21670915757E-01 -0.89422338420E-02  0.35211981376E-01  0.42305282049E-01  0.51100000000E-03 0. -1.
         11    1    4    4    0    0 -0.57625495285E-01 -0.29154679771E-01  0.56176624324E-01  0.85596537902E-01  0.51100000000E-03 0.  1.
</event>
<event>
 8    1  0.1122848E+005  0.1043930E+01  0.7957747E-01            NaN
         13   -1    0    0    0    0  0.00000000000E+00  0.00000000000E+00  0.74505805969E-08  0.10566000000E+00  0.10566000000E+00 0. -1.
     999900   -1    0    0    0    0 -0.00000000000E+00 -0.00000000000E+00 -0.74505805969E-08  0.93827000000E+00  0.93827000000E+00 0. -1.
     999902    2    1    2    0    0 -0.38349453072E-02 -0.10419745567E-01 -0.21274236719E-01  0.10199326866E+01  0.10196503391E+01 0.  0.
     999903    2    3    3    0    0 -0.10189283933E+00  0.65000264111E-01 -0.46548924438E-01  0.13092068538E+00  0.19137357545E-01 0.  0.
         14    1    1    2    0    0  0.38349453072E-02  0.10419745567E-01  0.21274236719E-01  0.23997313416E-01  0.00000000000E+00 0. -1.
     999901    1    3    3    0    0  0.98057894022E-01 -0.75420009679E-01  0.25274687719E-01  0.88901200120E+00  0.88000000000E+00 0. -1.
        -11    1    4    4    0    0 -0.32771712637E-01  0.12291934616E-01 -0.18427241657E-01  0.39558831654E-01  0.51100000000E-03 0.  1.
         11    1    4    4    0    0 -0.69121126691E-01  0.52708329495E-01 -0.28121682782E-01  0.91361853729E-01  0.51100000000E-03 0. -1.
</event>
<event>
 8    1  0.1122848E+005  0.1043930E+01  0.7957747E-01            NaN
         13   -1    0    0    0    0  0.00000000000E+00  0.00000000000E+00  0.74505805969E-08  0.10566000000E+00  0.10566000000E+00 0. -1.
     999900   -1    0    0    0    0 -0.00000000000E+00 -0.00000000000E+00 -0.74505805969E-08  0.93827000000E+00  0.93827000000E+00 0.  1.
     999902    2    1    2    0    0 -0.63635410501E-02  0.26458940699E-02 -0.22471574276E-01  0.10204253821E+01  0.10201546419E+01 0.  0.
     999903    2    3    3    0    0  0.53338825626E-01 -0.47163018434E-01 -0.11011476819E+00  0.13266041900E+00  0.20103332272E-01 0.  0.
         14    1    1    2    0    0  0.63635410501E-02 -0.26458940699E-02  0.22471574276E-01  0.23504617856E-01  0.00000000000E+00 0. -1.
     999901    1    3    3    0    0 -0.59702366677E-01  0.49808912504E-01  0.87643193911E-01  0.88776496315E+00  0.88000000000E+00 0. -1.
        -11    1    4    4    0    0  0.37579839963E-01 -0.30721913358E-01 -0.90067067736E-01  0.10231528793E+00  0.51100000000E-03 0.  1.
         11    1    4    4    0    0  0.15758985664E-01 -0.16441105076E-01 -0.20047700452E-01  0.30345131070E-01  0.51100000000E-03 0. -1.
</event>
<event>
 8    1  0.1122848E+005  0.1043930E+01  0.7957747E-01            NaN
         13   -1    0    0    0    0  0.00000000000E+00  0.00000000000E+00  0.74505805969E-08  0.10566000000E+00  0.10566000000E+00 0.  1.
     999900   -1    0    0    0    0 -0.00000000000E+00 -0.00000000000E+00 -0.74505805969E-08  0.93827000000E+00  0.93827000000E+00 0. -1.
     999902    2    1    2    0    0  0.24887117945E-02 -0.13156878710E-01  0.30530140359E-01  0.10105925344E+01  0.10100425159E+01 0.  0.
     999903    2    3    3    0    0 -0.50195574141E-01 -0.41038819578E-01  0.10567786201E+00  0.12538057294E+00  0.18673435011E-01 0.  0.
         14    1    1    2    0    0 -0.24887117945E-02  0.13156878710E-01 -0.30530140359E-01  0.33337465623E-01  0.00000000000E+00 0. -1.
     999901    1    3    3    0    0  0.52684285935E-01  0.27881940868E-01 -0.75147721650E-01  0.88521196144E+00  0.88000000000E+00 0. -1.
        -11    1    4    4    0    0 -0.32278813301E-01 -0.24753454368E-01  0.81871726455E-01  0.91421529220E-01  0.51100000000E-03 0.  1.
         11    1    4    4    0    0 -0.17916760840E-01 -0.16285365210E-01  0.23806135554E-01  0.33959043715E-01  0.51100000000E-03 0. -1.
</event>
<event>
 8    1  0.1122848E+005  0.1043930E+01  0.7957747E-01            NaN
         13   -1    0    0    0    0  0.00000000000E+00  0.00000000000E+00  0.74505805969E-08  0.10566000000E+00  0.10566000000E+00 0.  1.
     999900   -1    0    0    0    0 -0.00000000000E+00 -0.00000000000E+00 -0.74505805969E-08  0.93827000000E+00  0.93827000000E+00 0.  1.
     999902    2    1    2    0    0  0.10818758830E-01 -0.19956695309E-01 -0.62914477486E-02  0.10203737366E+01  0.10201017914E+01 0.  0.
     999903    2    3    3    0    0  0.71589840003E-02  0.11789012466E+00 -0.48328555937E-01  0.12864381214E+00  0.16255723205E-01 0.  0.
         14    1    1    2    0    0 -0.10818758830E-01  0.19956695309E-01  0.62914477486E-02  0.23556263393E-01  0.00000000000E+00 0. -1.
     999901    1    3    3    0    0  0.36597748296E-02 -0.13784681997E+00  0.42037108189E-01  0.89172992447E+00  0.88000000000E+00 0.  1.
        -11    1    4    4    0    0  0.79562659977E-02  0.81458575068E-01 -0.40705762135E-01  0.91411278367E-01  0.51100000000E-03 0. -1.
         11    1    4    4    0    0 -0.79728199735E-03  0.36431549597E-01 -0.76227938022E-02  0.37232533771E-01  0.51100000000E-03 0.  1.
</event>
<event>
 8    1  0.1122848E+005  0.1043930E+01  0.7957747E-01            NaN
         13   -1    0    0    0    0  0.00000000000E+00  0.00000000000E+00  0.74505805969E-08  0.10566000000E+00  0.10566000000E+00 0. -1.
     999900   -1    0    0    0    0 -0.00000000000E+00 -0.00000000000E+00 -0.74505805969E-08  0.93827000000E+00  0.93827000000E+00 0. -1.
     999902    2    1    2    0    0 -0.11430219785E-01  0.17101851028E-01 -0.12135987222E-01  0.10200468382E+01  0.10197672022E+01 0.  0.
     999903    2    3    3    0    0  0.91336838679E-01 -0.13607250106E-01 -0.89097035733E-01  0.13020015465E+00  0.22050467982E-01 0.  0.
         14    1    1    2    0    0  0.11430219785E-01 -0.17101851028E-01  0.12135987222E-01  0.23883161825E-01  0.00000000000E+00 0. -1.
     999901    1    3    3    0    0 -0.10276705846E+00  0.30709101134E-01  0.76961048511E-01  0.88984668353E+00  0.88000000000E+00 0.  1.
        -11    1    4    4    0    0  0.28300688594E-01 -0.28699206297E-02 -0.42224423617E-01  0.50914914221E-01  0.51100000000E-03 0. -1.
         11    1    4    4    0    0  0.63036150085E-01 -0.10737329476E-01 -0.46872612116E-01  0.79285240426E-01  0.51100000000E-03 0.  1.
</event>
<event>
 8    1  0.1122848E+005  0.1043930E+01  0.7957747E-01            NaN
         13   -1    0    0    0    0  0.00000000000E+00  0.00000000000E+00  0.74505805969E-08  0.10566000000E+00  0.10566000000E+00 0.  1.
     999900   -1    0    0    0    0 -0.00000000000E+00 -0.00000000000E+00 -0.74505805969E-08  0.93827000000E+00  0.93827000000E+00 0. -1.
     999902    2    1    2    0    0 -0.78940985484E-02  0.45094148857E-02  0.21993159160E-01  0.10201318769E+01  0.10198542521E+01 0.  0.
     999903    2    3    3    0    0 -0.70240390565E-01 -0.45942322483E-01 -0.95470281706E-01  0.12871160681E+00  0.20191423370E-01 0.  0.
         14    1    1    2    0    0  0.78940985484E-02 -0.45094148857E-02 -0.21993159160E-01  0.23798123127E-01  0.00000000000E+00 0. -1.
     999901    1    3    3    0    0  0.62346292017E-01  0.50451737369E-01  0.11746344087E+00  0.89142027006E+00  0.88000000000E+00 0.  1.
        -11    1    4    4    0    0 -0.21097199347E-01 -0.11389205344E-01 -0.14986900083E-01  0.28278509751E-01  0.51100000000E-03 0. -1.
         11    1    4    4    0    0 -0.49143191218E-01 -0.34553117139E-01 -0.80483381623E-01  0.10043309706E+00  0.51100000000E-03 0.  1.
</event>
<event>
 8    1  0.1122848E+005  0.1043930E+01  0.7957747E-01            NaN
         13   -1    0    0    0    0  0.00000000000E+00  0.00000000000E+00  0.74505805969E-08  0.10566000000E+00  0.10566000000E+00 0.  1.
     999900   -1    0    0    0    0 -0.00000000000E+00 -0.00000000000E+00 -0.74505805969E-08  0.93827000000E+00  0.93827000000E+00 0.  1.
     999902    2    1    2    0    0  0.17020382738E-01  0.14062621570E-01  0.99344458833E-02  0.10197195897E+01  0.10194321447E+01 0.  0.
     999903    2    3    3    0    0  0.75734796533E-02  0.12800450450E+00 -0.22071356460E-01  0.13174640986E+00  0.20675129197E-01 0.  0.
         14    1    1    2    0    0 -0.17020382738E-01 -0.14062621570E-01 -0.99344458833E-02  0.24210410343E-01  0.00000000000E+00 0. -1.
     999901    1    3    3    0    0  0.94469030849E-02 -0.11394188293E+00  0.32005802344E-01  0.88797317980E+00  0.88000000000E+00 0. -1.
        -11    1    4    4    0    0  0.36954878102E-02  0.11685789911E+00 -0.25034162420E-01  0.11956753582E+00  0.51100000000E-03 0. -1.
         11    1    4    4    0    0  0.38779918431E-02  0.11146605393E-01  0.29628059593E-02  0.12178874032E-01  0.51100000000E-03 0.  1.
</event>
<event>
 8    1  0.1122848E+005  0.1043930E+01  0.7957747E-01            NaN
         13   -1    0    0    0    0  0.00000000000E+00  0.00000000000E+00  0.74505805969E-08  0.10566000000E+00  0.10566000000E+00 0.  1.
     999900   -1    0    0    0    0 -0.00000000000E+00 -0.00000000000E+00 -0.74505805969E-08  0.93827000000E+00  0.93827000000E+00 0.  1.
     999902    2    1    2    0    0  0.87311713626E-02  0.62095383792E-03  0.19983663016E-01  0.10221133613E+01  0.10218805006E+01 0.  0.
     999903    2    3    3    0    0 -0.59403227708E-01  0.24029415880E-01  0.11609727400E+00  0.13395342150E+00  0.18941642272E-01 0.  0.
         14    1    1    2    0    0 -0.87311713626E-02 -0.62095383792E-03 -0.19983663016E-01  0.21816638710E-01  0.00000000000E+00 0. -1.
     999901    1    3    3    0    0  0.68134399070E-01 -0.23408462042E-01 -0.96113610983E-01  0.88815993979E+00  0.88000000000E+00 0.  1.
        -11    1    4    4    0    0 -0.26461952833E-01  0.85286165588E-02  0.32506989597E-01  0.42777771585E-01  0.51100000000E-03 0. -1.
         11    1    4    4    0    0 -0.32941274875E-01  0.15500799321E-01  0.83590284402E-01  0.91175649915E-01  0.51100000000E-03 0.  1.
</event>
<event>
 8    1  0.1122848E+005  0.1043930E+01  0.7957747E-01            NaN
         13   -1    0    0    0    0  0.00000000000E+00  0.00000000000E+00  0.74505805969E-08  0.10566000000E+00  0.10566000000E+00 0. -1.
     999900   -1    0    0    0    0 -0.00000000000E+00 -0.00000000000E+00 -0.74505805969E-08  0.93827000000E+00  0.93827000000E+00 0.  1.
     999902    2    1    2    0    0 -0.23913459385E-01 -0.15877589211E-01 -0.14752492664E-01  0.10116563665E+01  0.10111414424E+01 0.  0.
     999903    2    3    3    0    0 -0.10734915852E+00  0.58784486182E-01 -0.15325213611E-01  0.12456208212E+00  0.17360658956E-01 0.  0.
         14    1    1    2    0    0  0.23913459385E-01  0.15877589211E-01  0.14752492664E-01  0.32273633491E-01  0.00000000000E+00 0. -1.
     999901    1    3    3    0    0  0.83435699130E-01 -0.74662075393E-01  0.57272094702E-03  0.88709428439E+00  0.88000000000E+00 0. -1.
        -11    1    4    4    0    0 -0.10754623006E+00  0.57003658026E-01 -0.15437797800E-01  0.12269553924E+00  0.51100000000E-03 0.  1.
         11    1    4    4    0    0  0.19707153959E-03  0.17808281560E-02  0.11258418865E-03  0.18665428772E-02  0.51100000000E-03 0. -1.
</event>
<event>
 8    1  0.1122848E+005  0.1043930E+01  0.7957747E-01            NaN
         13   -1    0    0    0    0  0.00000000000E+00  0.00000000000E+00  0.74505805969E-08  0.10566000000E+00  0.10566000000E+00 0.  1.
     999900   -1    0    0    0    0 -0.00000000000E+00 -0.00000000000E+00 -0.74505805969E-08  0.93827000000E+00  0.93827000000E+00 0. -1.
     999902    2    1    2    0    0  0.14861475863E-01  0.16954644630E-01 -0.52835154335E-02  0.10207731657E+01  0.10205104688E+01 0.  0.
     999903    2    3    3    0    0  0.10653169280E+00 -0.39173327556E-01  0.63524487229E-01  0.13156659849E+00  0.19770134013E-01 0.  0.
         14    1    1    2    0    0 -0.14861475863E-01 -0.16954644630E-01  0.52835154335E-02  0.23156834297E-01  0.00000000000E+00 0.  1.
     999901    1    3    3    0    0 -0.91670216938E-01  0.56127972186E-01 -0.68808002663E-01  0.88920656721E+00  0.88000000000E+00 0.  1.
        -11    1    4    4    0    0  0.37415520025E-01 -0.19115524726E-01  0.14350639230E-01  0.44401873740E-01  0.51100000000E-03 0. -1.
         11    1    4    4    0    0  0.69116172775E-01 -0.20057802830E-01  0.49173847999E-01  0.87164724754E-01  0.51100000000E-03 0.  1.
</event>
<event>
 8    1  0.1122848E+005  0.1043930E+01  0.7957747E-01            NaN
         13   -1    0    0    0    0  0.00000000000E+00  0.00000000000E+00  0.74505805969E-08  0.10566000000E+00  0.10566000000E+00 0.  1.
     999900   -1    0    0    0    0 -0.00000000000E+00 -0.00000000000E+00 -0.74505805969E-08  0.93827000000E+00  0.93827000000E+00 0.  1.
     999902    2    1    2    0    0 -0.17988972542E-01 -0.12053262599E-01  0.95887384017E-02  0.10202481889E+01  0.10199733030E+01 0.  0.
     999903    2    3    3    0    0  0.20348300500E-02  0.12143859502E+00 -0.38856277562E-01  0.12863843779E+00  0.16928215393E-01 0.  0.
         14    1    1    2    0    0  0.17988972542E-01  0.12053262599E-01 -0.95887384017E-02  0.23681811091E-01  0.00000000000E+00 0. -1.
     999901    1    3    3    0    0 -0.20023802592E-01 -0.13349185762E+00  0.48445015963E-01  0.89160975112E+00  0.88000000000E+00 0.  1.
        -11    1    4    4    0    0  0.20809678226E-02  0.18336149321E-01 -0.14231365092E-04  0.18460935039E-01  0.51100000000E-03 0. -1.
         11    1    4    4    0    0 -0.46137772679E-04  0.10310244570E+00 -0.38842046196E-01  0.11017750275E+00  0.51100000000E-03 0.  1.
</event>
<event>
 8    1  0.1122848E+005  0.1043930E+01  0.7957747E-01            NaN
         13   -1    0    0    0    0  0.00000000000E+00  0.00000000000E+00  0.74505805969E-08  0.10566000000E+00  0.10566000000E+00 0. -1.
     999900   -1    0    0    0    0 -0.00000000000E+00 -0.00000000000E+00 -0.74505805969E-08  0.93827000000E+00  0.93827000000E+00 0.  1.
     999902    2    1    2    0    0 -0.13404536925E-01  0.54447787654E-02 -0.23362493810E-01  0.10164503104E+01  0.10160787864E+01 0.  0.
     999903    2    3    3    0    0  0.11258799780E+00  0.48596705155E-01  0.17635975601E-01  0.12548617974E+00  0.19951357554E-01 0.  0.
         14    1    1    2    0    0  0.13404536925E-01 -0.54447787654E-02  0.23362493810E-01  0.27479689645E-01  0.00000000000E+00 0. -1.
     999901    1    3    3    0    0 -0.12599253473E+00 -0.43151926390E-01 -0.40998469411E-01  0.89096413062E+00  0.88000000000E+00 0.  1.
        -11    1    4    4    0    0  0.31458296454E-01  0.23340489122E-01  0.32972817619E-02  0.39313306097E-01  0.51100000000E-03 0.  1.
         11    1    4    4    0    0  0.81129701348E-01  0.25256216033E-01  0.14338693839E-01  0.86172873638E-01  0.51100000000E-03 0. -1.
</event>
<event>
 8    1  0.1122848E+005  0.1043930E+01  0.7957747E-01            NaN
         13   -1    0    0    0    0  0.00000000000E+00  0.00000000000E+00  0.74505805969E-08  0.10566000000E+00  0.10566000000E+00 0. -1.
     999900   -1    0    0    0    0 -0.00000000000E+00 -0.00000000000E+00 -0.74505805969E-08  0.93827000000E+00  0.93827000000E+00 0.  1.
     999902    2    1    2    0    0  0.14151288608E-01  0.74755873797E-03  0.19319725442E-01  0.10199702503E+01  0.10196887966E+01 0.  0.
     999903    2    3    3    0    0  0.10724986149E+00 -0.72449161261E-01 -0.13022050211E-01  0.13144839098E+00  0.18912745486E-01 0.  0.
         14    1    1    2    0    0 -0.14151288608E-01 -0.74755873797E-03 -0.19319725442E-01  0.23959749674E-01  0.00000000000E+00 0.  1.
     999901    1    3    3    0    0 -0.93098572879E-01  0.73196719999E-01  0.32341775653E-01  0.88852185935E+00  0.88000000000E+00 0. -1.
        -11    1    4    4    0    0  0.66041935732E-01 -0.53422892011E-01 -0.31964808087E-02  0.85006007298E-01  0.51100000000E-03 0.  1.
         11    1    4    4    0    0  0.41207925755E-01 -0.19026269250E-01 -0.98255694025E-02  0.46442383678E-01  0.51100000000E-03 0. -1.
</event>
<event>
 8    1  0.1122848E+005  0.1043930E+01  0.7957747E-01            NaN
         13   -1    0    0    0    0  0.00000000000E+00  0.00000000000E+00  0.74505805969E-08  0.10566000000E+00  0.10566000000E+00 0. -1.
     999900   -1    0    0    0    0 -0.00000000000E+00 -0.00000000000E+00 -0.74505805969E-08  0.93827000000E+00  0.93827000000E+00 0.  1.
     999902    2    1    2    0    0  0.17801580735E-01 -0.94907360946E-02 -0.12465382636E-01  0.10202159512E+01  0.10199403075E+01 0.  0.
     999903    2    3    3    0    0 -0.70942698385E-01 -0.69880960547E-01  0.79427202608E-01  0.12894339267E+00  0.20037537235E-01 0.  0.
         14    1    1    2    0    0 -0.17801580735E-01  0.94907360946E-02  0.12465382636E-01  0.23714048844E-01  0.00000000000E+00 0. -1.
     999901    1    3    3    0    0  0.88744279120E-01  0.60390224452E-01 -0.91892585244E-01  0.89127255849E+00  0.88000000000E+00 0.  1.
        -11    1    4    4    0    0 -0.43227832840E-01 -0.30556739568E-01  0.48126285574E-01  0.71545512432E-01  0.51100000000E-03 0.  1.
         11    1    4    4    0    0 -0.27714865545E-01 -0.39324220979E-01  0.31300917034E-01  0.57397880239E-01  0.51100000000E-03 0. -1.
</event>
<event>
 8    1  0.1122848E+005  0.1043930E+01  0.7957747E-01            NaN
         13   -1    0    0    0    0  0.00000000000E+00  0.00000000000E+00  0.74505805969E-08  0.10566000000E+00  0.10566000000E+00 0.  1.
     999900   -1    0    0    0    0 -0.00000000000E+00 -0.00000000000E+00 -0.74505805969E-08  0.93827000000E+00  0.93827000000E+00 0. -1.
     999902    2    1    2    0    0 -0.19708626897E-01  0.90027892204E-02 -0.73055848435E-02  0.10210640481E+01  0.10208079832E+01 0.  0.
     999903    2    3    3    0    0 -0.55160320002E-01  0.11964031074E+00 -0.11058448675E-01  0.13342021876E+00  0.17949947951E-01 0.  0.
         14    1    1    2    0    0  0.19708626897E-01 -0.90027892204E-02  0.73055848435E-02  0.22865951934E-01  0.00000000000E+00 0. -1.
     999901    1    3    3    0    0  0.35451693105E-01 -0.11063752152E+00  0.37528638311E-02  0.88764382930E+00  0.88000000000E+00 0. -1.
        -11    1    4    4    0    0 -0.47392677382E-01  0.10831017627E+00 -0.48202282255E-02  0.11832436720E+00  0.51100000000E-03 0. -1.
         11    1    4    4    0    0 -0.77676426201E-02  0.11330134471E-01 -0.62382204491E-02  0.15095851562E-01  0.51100000000E-03 0.  1.
</event>
<event>
 8    1  0.1122848E+005  0.1043930E+01  0.7957747E-01            NaN
         13   -1    0    0    0    0  0.00000000000E+00  0.00000000000E+00  0.74505805969E-08  0.10566000000E+00  0.10566000000E+00 0.  1.
     999900   -1    0    0    0    0 -0.00000000000E+00 -0.00000000000E+00 -0.74505805969E-08  0.93827000000E+00  0.93827000000E+00 0.  1.
     999902    2    1    2    0    0  0.28402334521E-01 -0.21548034370E-03  0.86232273895E-02  0.10142466867E+01  0.10138122323E+01 0.  0.
     999903    2    3    3    0    0  0.91984385743E-01  0.78993951772E-01  0.35548359584E-01  0.12799515687E+00  0.20442668037E-01 0.  0.
         14    1    1    2    0    0 -0.28402334521E-01  0.21548034370E-03 -0.86232273895E-02  0.29683313303E-01  0.00000000000E+00 0. -1.
     999901    1    3    3    0    0 -0.63582051222E-01 -0.79209432115E-01 -0.26925132194E-01  0.88625152983E+00  0.88000000000E+00 0.  1.
        -11    1    4    4    0    0  0.75986273681E-01  0.71554518287E-01  0.35795283632E-01  0.11034276744E+00  0.51100000000E-03 0. -1.
         11    1    4    4    0    0  0.15998112063E-01  0.74394334846E-02 -0.24692404844E-03  0.17652389431E-01  0.51100000000E-03 0.  1.
</event>
<event>
 7    1  0.1122848E+005  0.1043930E+01  0.7957747E-01            NaN
         13   -1    0    0    0    0  0.00000000000E+00  0.00000000000E+00  0.74505805969E-08  0.10566000000E+00  0.10566000000E+00 0. -1.
     999900   -1    0    0    0    0 -0.00000000000E+00 -0.00000000000E+00 -0.74505805969E-08  0.93827000000E+00  0.93827000000E+00 0.  1.
     999903    2    1    2    0    0  0.44083227077E-01  0.54208454929E-01 -0.85283317101E-01  0.11368411767E+00  0.27729892519E-01 0.  0.
         14    1    1    2    0    0 -0.65353477157E-02 -0.13237420137E-01 -0.37203944100E-01  0.40025910586E-01  0.00000000000E+00 0.  1.
     999901    1    1    2    0    0 -0.37547879361E-01 -0.40971034792E-01  0.12248726120E+00  0.89021997174E+00  0.88000000000E+00 0. -1.
        -11    1    3    3    0    0  0.24746262722E-01  0.36142204630E-01 -0.32195842421E-01  0.54364233320E-01  0.51100000000E-03 0.  1.
         11    1    3    3    0    0  0.19336964355E-01  0.18066250299E-01 -0.53087474679E-01  0.59319884349E-01  0.51100000000E-03 0. -1.
</event>
<event>
 8    1  0.1122848E+005  0.1043930E+01  0.7957747E-01            NaN
         13   -1    0    0    0    0  0.00000000000E+00  0.00000000000E+00  0.74505805969E-08  0.10566000000E+00  0.10566000000E+00 0.  1.
     999900   -1    0    0    0    0 -0.00000000000E+00 -0.00000000000E+00 -0.74505805969E-08  0.93827000000E+00  0.93827000000E+00 0. -1.
     999902    2    1    2    0    0 -0.18789590529E-01 -0.13129673071E-01 -0.61451107364E-02  0.10201981772E+01  0.10199221153E+01 0.  0.
     999903    2    3    3    0    0  0.50511650876E-01 -0.10615800339E+00 -0.54850977245E-01  0.13124981327E+00  0.19923233189E-01 0.  0.
         14    1    1    2    0    0  0.18789590529E-01  0.13129673071E-01  0.61451107364E-02  0.23731822795E-01  0.00000000000E+00 0. -1.
     999901    1    3    3    0    0 -0.69301241405E-01  0.93028330324E-01  0.48705866509E-01  0.88894836393E+00  0.88000000000E+00 0.  1.
        -11    1    4    4    0    0  0.10198146753E-02 -0.12990752910E-01 -0.18010203657E-02  0.13164515885E-01  0.51100000000E-03 0. -1.
         11    1    4    4    0    0  0.49491836201E-01 -0.93167250485E-01 -0.53049956880E-01  0.11808529739E+00  0.51100000000E-03 0.  1.
</event>
<event>
 8    1  0.1122848E+005  0.1043930E+01  0.7957747E-01            NaN
         13   -1    0    0    0    0  0.00000000000E+00  0.00000000000E+00  0.74505805969E-08  0.10566000000E+00  0.10566000000E+00 0. -1.
     999900   -1    0    0    0    0 -0.00000000000E+00 -0.00000000000E+00 -0.74505805969E-08  0.93827000000E+00  0.93827000000E+00 0. -1.
     999902    2    1    2    0    0  0.23220013889E-01 -0.90095635176E-03  0.40648303981E-02  0.10203396712E+01  0.10200669297E+01 0.  0.
     999903    2    3    3    0    0  0.12821669500E+00  0.21219140512E-01 -0.21258682223E-01  0.13346037725E+00  0.21678743608E-01 0.  0.
         14    1    1    2    0    0 -0.23220013889E-01  0.90095635176E-03 -0.40648303981E-02  0.23590328813E-01  0.00000000000E+00 0.  1.
     999901    1    3    3    0    0 -0.10499668111E+00 -0.22120096864E-01  0.25323512622E-01  0.88687929394E+00  0.88000000000E+00 0. -1.
        -11    1    4    4    0    0  0.10396299787E+00  0.21453461616E-01 -0.97283945703E-02  0.10659952496E+00  0.51100000000E-03 0.  1.
         11    1    4    4    0    0  0.24253697133E-01 -0.23432110406E-03 -0.11530287653E-01  0.26860852283E-01  0.51100000000E-03 0. -1.
</event>
<event>
 8    1  0.1122848E+005  0.1043930E+01  0.7957747E-01            NaN
         13   -1    0    0    0    0  0.00000000000E+00  0.00000000000E+00  0.74505805969E-08  0.10566000000E+00  0.10566000000E+00 0. -1.
     999900   -1    0    0    0    0 -0.00000000000E+00 -0.00000000000E+00 -0.74505805969E-08  0.93827000000E+00  0.93827000000E+00 0. -1.
     999902    2    1    2    0    0 -0.63757263891E-02 -0.24198011283E-01 -0.53100645057E-02  0.10183489441E+01  0.10180275937E+01 0.  0.
     999903    2    3    3    0    0  0.77772157539E-01 -0.71821280006E-01  0.72150395987E-01  0.12967073177E+00  0.20050293920E-01 0.  0.
         14    1    1    2    0    0  0.63757263891E-02  0.24198011283E-01  0.53100645057E-02  0.25581055923E-01  0.00000000000E+00 0. -1.
     999901    1    3    3    0    0 -0.84147883928E-01  0.47623268723E-01 -0.77460460493E-01  0.88867821231E+00  0.88000000000E+00 0.  1.
        -11    1    4    4    0    0  0.30202621238E-01 -0.39385677339E-01  0.39840339158E-01  0.63647023924E-01  0.51100000000E-03 0. -1.
         11    1    4    4    0    0  0.47569536301E-01 -0.32435602667E-01  0.32310056828E-01  0.66023707844E-01  0.51100000000E-03 0.  1.
</event>
<event>
 8    1  0.1122848E+005  0.1043930E+01  0.7957747E-01            NaN
         13   -1    0    0    0    0  0.00000000000E+00  0.00000000000E+00  0.74505805969E-08  0.10566000000E+00  0.10566000000E+00 0.  1.
     999900   -1    0    0    0    0 -0.00000000000E+00 -0.00000000000E+00 -0.74505805969E-08  0.93827000000E+00  0.93827000000E+00 0.  1.
     999902    2    1    2    0    0 -0.30390163629E-01  0.12624123092E-01  0.86429311304E-02  0.10099060263E+01  0.10093327257E+01 0.  0.
     999903    2    3    3    0    0 -0.11008024162E+00 -0.43688020058E-01 -0.29817480275E-01  0.12367763064E+00  0.19513367176E-01 0.  0.
         14    1    1    2    0    0  0.30390163629E-01 -0.12624123092E-01 -0.86429311304E-02  0.34023973721E-01  0.00000000000E+00 0. -1.
     999901    1    3    3    0    0  0.79690077990E-01  0.56312143149E-01  0.38460411405E-01  0.88622839564E+00  0.88000000000E+00 0. -1.
        -11    1    4    4    0    0 -0.76966573256E-01 -0.30794881590E-01 -0.11494163637E-01  0.83693219855E-01  0.51100000000E-03 0. -1.
         11    1    4    4    0    0 -0.33113668364E-01 -0.12893138467E-01 -0.18323316638E-01  0.39984410783E-01  0.51100000000E-03 0.  1.
</event>
<event>
 7    1  0.1122848E+005  0.1043930E+01  0.7957747E-01            NaN
         13   -1    0    0    0    0  0.00000000000E+00  0.00000000000E+00  0.74505805969E-08  0.10566000000E+00  0.10566000000E+00 0. -1.
     999900   -1    0    0    0    0 -0.00000000000E+00 -0.00000000000E+00 -0.74505805969E-08  0.93827000000E+00  0.93827000000E+00 0.  1.
     999903    2    1    2    0    0  0.66406851584E-01  0.29695088996E-01  0.53574331879E-01  0.92676048615E-01  0.20663317808E-01 0.  0.
         14    1    1    2    0    0 -0.37144606480E-01  0.51967304582E-01 -0.17597967152E-01  0.66257157983E-01  0.00000000000E+00 0.  1.
     999901    1    1    2    0    0 -0.29262245103E-01 -0.81662393578E-01 -0.35976364727E-01  0.88499679340E+00  0.88000000000E+00 0. -1.
        -11    1    3    3    0    0  0.12784091888E-01  0.14051264863E-01  0.19575916210E-01  0.27282754005E-01  0.51100000000E-03 0.  1.
         11    1    3    3    0    0  0.53622759695E-01  0.15643824133E-01  0.33998415670E-01  0.65393294610E-01  0.51100000000E-03 0. -1.
</event>
<event>
 8    1  0.1122848E+005  0.1043930E+01  0.7957747E-01            NaN
         13   -1    0    0    0    0  0.00000000000E+00  0.00000000000E+00  0.74505805969E-08  0.10566000000E+00  0.10566000000E+00 0.  1.
     999900   -1    0    0    0    0 -0.00000000000E+00 -0.00000000000E+00 -0.74505805969E-08  0.93827000000E+00  0.93827000000E+00 0. -1.
     999902    2    1    2    0    0 -0.18146593327E-01  0.15623345069E-01  0.22929639568E-02  0.10198749497E+01  0.10195912257E+01 0.  0.
     999903    2    3    3    0    0  0.12463199926E+00  0.23927723528E-01  0.14834491036E-01  0.12824050719E+00  0.10949628557E-01 0.  0.
         14    1    1    2    0    0  0.18146593327E-01 -0.15623345069E-01 -0.22929639568E-02  0.24055050285E-01  0.00000000000E+00 0. -1.
     999901    1    3    3    0    0 -0.14277859259E+00 -0.83043784597E-02 -0.12541527079E-01  0.89163444253E+00  0.88000000000E+00 0.  1.
        -11    1    4    4    0    0  0.79596825840E-01  0.18230248403E-01  0.13899290311E-01  0.82833858009E-01  0.51100000000E-03 0. -1.
         11    1    4    4    0    0  0.45035173422E-01  0.56974751257E-02  0.93520072518E-03  0.45406649176E-01  0.51100000000E-03 0.  1.
</event>
<event>
 8    1  0.1122848E+005  0.1043930E+01  0.7957747E-01            NaN
         13   -1    0    0    0    0  0.00000000000E+00  0.00000000000E+00  0.74505805969E-08  0.10566000000E+00  0.10566000000E+00 0.  1.
     999900   -1    0    0    0    0 -0.00000000000E+00 -0.00000000000E+00 -0.74505805969E-08  0.93827000000E+00  0.93827000000E+00 0.  1.
     999902    2    1    2    0    0  0.11446104787E-01 -0.11152963106E-03 -0.22797504426E-01  0.10184201595E+01  0.10181006185E+01 0.  0.
     999903    2    3    3    0    0  0.60797835094E-01  0.82591689478E-01  0.73669039100E-01  0.12792523546E+00  0.20493282400E-01 0.  0.
         14    1    1    2    0    0 -0.11446104787E-01  0.11152963106E-03  0.22797504426E-01  0.25509840488E-01  0.00000000000E+00 0.  1.
     999901    1    3    3    0    0 -0.49351730307E-01 -0.82703219110E-01 -0.96466543527E-01  0.89049492405E+00  0.88000000000E+00 0. -1.
        -11    1    4    4    0    0  0.12021779808E-01  0.21924731975E-01  0.28529468231E-01  0.37939540593E-01  0.51100000000E-03 0. -1.
         11    1    4    4    0    0  0.48776055286E-01  0.60666957504E-01  0.45139570870E-01  0.89985694871E-01  0.51100000000E-03 0.  1.
</event>
<event>
 8    1  0.1122848E+005  0.1043930E+01  0.7957747E-01            NaN
         13   -1    0    0    0    0  0.00000000000E+00  0.00000000000E+00  0.74505805969E-08  0.10566000000E+00  0.10566000000E+00 0. -1.
     999900   -1    0    0    0    0 -0.00000000000E+00 -0.00000000000E+00 -0.74505805969E-08  0.93827000000E+00  0.93827000000E+00 0.  1.
     999902    2    1    2    0    0 -0.23069111637E-01 -0.37798069723E-02 -0.37662872031E-02  0.10202518292E+01  0.10199770288E+01 0.  0.
     999903    2    3    3    0    0  0.47319826423E-01 -0.55973730927E-01  0.10490536959E+00  0.12924771178E+00  0.18099997355E-01 0.  0.
         14    1    1    2    0    0  0.23069111637E-01  0.37798069723E-02  0.37662872031E-02  0.23678170786E-01  0.00000000000E+00 0.  1.
     999901    1    3    3    0    0 -0.70388938060E-01  0.52193923954E-01 -0.10867165679E+00  0.89100411744E+00  0.88000000000E+00 0.  1.
        -11    1    4    4    0    0  0.39825031094E-01 -0.43620115828E-01  0.94471898721E-01  0.11141789971E+00  0.51100000000E-03 0. -1.
         11    1    4    4    0    0  0.74947953292E-02 -0.12353615098E-01  0.10433470869E-01  0.17829812069E-01  0.51100000000E-03 0.  1.
</event>
<event>
 8    1  0.1122848E+005  0.1043930E+01  0.7957747E-01            NaN
         13   -1    0    0    0    0  0.00000000000E+00  0.00000000000E+00  0.74505805969E-08  0.10566000000E+00  0.10566000000E+00 0. -1.
     999900   -1    0    0    0    0 -0.00000000000E+00 -0.00000000000E+00 -0.74505805969E-08  0.93827000000E+00  0.93827000000E+00 0. -1.
     999902    2    1    2    0    0  0.44372811625E-02 -0.16445133632E-01 -0.15835846868E-01  0.10206726156E+01  0.10204076059E+01 0.  0.
     999903    2    3    3    0    0  0.89966602783E-01  0.34466908199E-01  0.84114369590E-01  0.12943900611E+00  0.19931677186E-01 0.  0.
         14    1    1    2    0    0 -0.44372811625E-02  0.16445133632E-01  0.15835846868E-01  0.23257384426E-01  0.00000000000E+00 0. -1.
     999901    1    3    3    0    0 -0.85529321621E-01 -0.50912041831E-01 -0.99950216457E-01  0.89123360946E+00  0.88000000000E+00 0. -1.
        -11    1    4    4    0    0  0.81645796223E-01  0.28344217015E-01  0.81446877408E-01  0.11875725510E+00  0.51100000000E-03 0. -1.
         11    1    4    4    0    0  0.83208065599E-02  0.61226911834E-02  0.26674921814E-02  0.10681751012E-01  0.51100000000E-03 0.  1.
</event>
<event>
 8    1  0.1122848E+005  0.1043930E+01  0.7957747E-01            NaN
         13   -1    0    0    0    0  0.00000000000E+00  0.00000000000E+00  0.74505805969E-08  0.10566000000E+00  0.10566000000E+00 0.  1.
     999900   -1    0    0    0    0 -0.00000000000E+00 -0.00000000000E+00 -0.74505805969E-08  0.93827000000E+00  0.93827000000E+00 0.  1.
     999902    2    1    2    0    0 -0.16434853383E-01  0.55569203821E-02 -0.12936939911E-01  0.10222886464E+01  0.10220595523E+01 0.  0.
     999903    2    3    3    0    0  0.15533503370E-01  0.82925186129E-01  0.98779520487E-01  0.13128449835E+00  0.18982876977E-01 0.  0.
         14    1    1    2    0    0  0.16434853383E-01 -0.55569203821E-02  0.12936939911E-01  0.21641353565E-01  0.00000000000E+00 0. -1.
     999901    1    3    3    0    0 -0.31968356754E-01 -0.77368265747E-01 -0.11171646040E+00  0.89100414808E+00  0.88000000000E+00 0.  1.
        -11    1    4    4    0    0  0.59401329703E-02  0.66637027789E-01  0.69839826924E-01  0.96714224383E-01  0.51100000000E-03 0. -1.
         11    1    4    4    0    0  0.95933704001E-02  0.16288158340E-01  0.28939693563E-01  0.34570273969E-01  0.51100000000E-03 0.  1.
</event>
<event>
 8    1  0.1122848E+005  0.1043930E+01  0.7957747E-01            NaN
         13   -1    0    0    0    0  0.00000000000E+00  0.00000000000E+00  0.74505805969E-08  0.10566000000E+00  0.10566000000E+00 0. -1.
     999900   -1    0    0    0    0 -0.00000000000E+00 -0.00000000000E+00 -0.74505805969E-08  0.93827000000E+00  0.93827000000E+00 0.  1.
     999902    2    1    2    0    0  0.12931185171E-02  0.15539860924E-01 -0.17918991717E-01  0.10201760593E+01  0.10198994766E+01 0.  0.
     999903    2    3    3    0    0  0.96932094312E-01 -0.41899354082E-01 -0.75253396199E-01  0.13128162744E+00  0.20503787060E-01 0.  0.
         14    1    1    2    0    0 -0.12931185171E-02 -0.15539860924E-01  0.17918991717E-01  0.23753940667E-01  0.00000000000E+00 0.  1.
     999901    1    3    3    0    0 -0.95638975795E-01  0.57439215006E-01  0.57334404483E-01  0.88889443189E+00  0.88000000000E+00 0. -1.
        -11    1    4    4    0    0  0.35997644874E-01 -0.70607055616E-02 -0.18916076523E-01  0.41276664976E-01  0.51100000000E-03 0.  1.
         11    1    4    4    0    0  0.60934449438E-01 -0.34838648520E-01 -0.56337319676E-01  0.90004962465E-01  0.51100000000E-03 0. -1.
</event>
<event>
 8    1  0.1122848E+005  0.1043930E+01  0.7957747E-01            NaN
         13   -1    0    0    0    0  0.00000000000E+00  0.00000000000E+00  0.74505805969E-08  0.10566000000E+00  0.10566000000E+00 0. -1.
     999900   -1    0    0    0    0 -0.00000000000E+00 -0.00000000000E+00 -0.74505805969E-08  0.93827000000E+00  0.93827000000E+00 0.  1.
     999902    2    1    2    0    0  0.20447455321E-01 -0.48702924833E-02  0.60018133991E-02  0.10220704496E+01  0.10218366621E+01 0.  0.
     999903    2    3    3    0    0 -0.76055390258E-01  0.88645276066E-01 -0.53364551144E-01  0.12989203362E+00  0.19538621329E-01 0.  0.
         14    1    1    2    0    0 -0.20447455321E-01  0.48702924833E-02 -0.60018133991E-02  0.21859550362E-01  0.00000000000E+00 0.  1.
     999901    1    3    3    0    0  0.96502845579E-01 -0.93515568549E-01  0.59366364543E-01  0.89217841602E+00  0.88000000000E+00 0. -1.
        -11    1    4    4    0    0 -0.25298164196E-01  0.16579493851E-01 -0.14795528487E-01  0.33675592233E-01  0.51100000000E-03 0. -1.
         11    1    4    4    0    0 -0.50757226063E-01  0.72065782215E-01 -0.38569022657E-01  0.96216441389E-01  0.51100000000E-03 0.  1.
</event>
<event>
 8    1  0.1122848E+005  0.1043930E+01  0.7957747E-01            NaN
         13   -1    0    0    0    0  0.00000000000E+00  0.00000000000E+00  0.74505805969E-08  0.10566000000E+00  0.10566000000E+00 0.  1.
     999900   -1    0    0    0    0 -0.00000000000E+00 -0.00000000000E+00 -0.74505805969E-08  0.93827000000E+00  0.93827000000E+00 0. -1.
     999902    2    1    2    0    0 -0.56091620627E-02 -0.21827567773E-01  0.71561409075E-02  0.10202843711E+01  0.10200103343E+01 0.  0.
     999903    2    3    3    0    0  0.75145969840E-01  0.97801873500E-01  0.28934425700E-01  0.12826033092E+00  0.20034676296E-01 0.  0.
         14    1    1    2    0    0  0.56091620627E-02  0.21827567773E-01 -0.71561409075E-02  0.23645628911E-01  0.00000000000E+00 0.  1.
     999901    1    3    3    0    0 -0.80755131902E-01 -0.11962944127E+00 -0.21778284792E-01  0.89202404017E+00  0.88000000000E+00 0. -1.
        -11    1    4    4    0    0  0.55927491092E-01  0.76406724996E-01  0.30425593830E-01  0.99457778808E-01  0.51100000000E-03 0. -1.
         11    1    4    4    0    0  0.19218478747E-01  0.21395148503E-01 -0.14911681303E-02  0.28802552113E-01  0.51100000000E-03 0.  1.
</event>
<event>
 8    1  0.1122848E+005  0.1043930E+01  0.7957747E-01            NaN
         13   -1    0    0    0    0  0.00000000000E+00  0.00000000000E+00  0.74505805969E-08  0.10566000000E+00  0.10566000000E+00 0. -1.
     999900   -1    0    0    0    0 -0.00000000000E+00 -0.00000000000E+00 -0.74505805969E-08  0.93827000000E+00  0.93827000000E+00 0.  1.
     999902    2    1    2    0    0 -0.41867793369E-02 -0.13290004320E-01 -0.19534243667E-01  0.10199354170E+01  0.10196531346E+01 0.  0.
     999903    2    3    3    0    0  0.37802297511E-01  0.83020441268E-01 -0.91793973892E-01  0.13074463148E+00  0.18617670434E-01 0.  0.
         14    1    1    2    0    0  0.41867793369E-02  0.13290004320E-01  0.19534243667E-01  0.23994582966E-01  0.00000000000E+00 0. -1.
     999901    1    3    3    0    0 -0.41989076848E-01 -0.96310445588E-01  0.72259730225E-01  0.88919078556E+00  0.88000000000E+00 0. -1.
        -11    1    4    4    0    0  0.25098445280E-01  0.56288800693E-01 -0.49136623441E-01  0.78822775409E-01  0.51100000000E-03 0.  1.
         11    1    4    4    0    0  0.12703852231E-01  0.26731640575E-01 -0.42657350451E-01  0.51921856071E-01  0.51100000000E-03 0. -1.
</event>
<event>
 8    1  0.1122848E+005  0.1043930E+01  0.7957747E-01            NaN
         13   -1    0    0    0    0  0.00000000000E+00  0.00000000000E+00  0.74505805969E-08  0.10566000000E+00  0.10566000000E+00 0. -1.
     999900   -1    0    0    0    0 -0.00000000000E+00 -0.00000000000E+00 -0.74505805969E-08  0.93827000000E+00  0.93827000000E+00 0. -1.
     999902    2    1    2    0    0 -0.22751042469E-01  0.31552459837E-02  0.59376986466E-02  0.10202061349E+01  0.10199302603E+01 0.  0.
     999903    2    3    3    0    0  0.11992216796E-01  0.41523490671E-01  0.12211585043E+00  0.13106240117E+00  0.19926327600E-01 0.  0.
         14    1    1    2    0    0  0.22751042469E-01 -0.31552459837E-02 -0.59376986466E-02  0.23723865112E-01  0.00000000000E+00 0.  1.
     999901    1    3    3    0    0 -0.34743259265E-01 -0.38368244688E-01 -0.11617815178E+00  0.88914373372E+00  0.88000000000E+00 0. -1.
        -11    1    4    4    0    0 -0.42530272702E-02  0.17583792320E-02  0.11399139937E-01  0.12303725077E-01  0.51100000000E-03 0.  1.
         11    1    4    4    0    0  0.16245244066E-01  0.39765111439E-01  0.11071671049E+00  0.11875867609E+00  0.51100000000E-03 0. -1.
</event>
<event>
 8    1  0.1122848E+005  0.1043930E+01  0.7957747E-01            NaN
         13   -1    0    0    0    0  0.00000000000E+00  0.00000000000E+00  0.74505805969E-08  0.10566000000E+00  0.10566000000E+00 0.  1.
     999900   -1    0    0    0    0 -0.00000000000E+00 -0.00000000000E+00 -0.74505805969E-08  0.93827000000E+00  0.93827000000E+00 0. -1.
     999902    2    1    2    0    0 -0.25513056771E-01  0.35473585680E-02  0.39245911611E-03  0.10181685202E+01  0.10178425623E+01 0.  0.
     999903    2    3    3    0    0  0.44726684805E-02 -0.11925279117E+00  0.43200770341E-01  0.12810584148E+00  0.17423177016E-01 0.  0.
         14    1    1    2    0    0  0.25513056771E-01 -0.35473585680E-02 -0.39245911611E-03  0.25761479825E-01  0.00000000000E+00 0.  1.
     999901    1    3    3    0    0 -0.29985725251E-01  0.12280014974E+00 -0.42808311225E-01  0.89006267869E+00  0.88000000000E+00 0. -1.
        -11    1    4    4    0    0  0.54426312523E-02 -0.47589473812E-01  0.25559992168E-01  0.54295069512E-01  0.51100000000E-03 0.  1.
         11    1    4    4    0    0 -0.96996277180E-03 -0.71663317362E-01  0.17640778172E-01  0.73810771969E-01  0.51100000000E-03 0. -1.
</event>
<event>
 8    1  0.1122848E+005  0.1043930E+01  0.7957747E-01            NaN
         13   -1    0    0    0    0  0.00000000000E+00  0.00000000000E+00  0.74505805969E-08  0.10566000000E+00  0.10566000000E+00 0.  1.
     999900   -1    0    0    0    0 -0.00000000000E+00 -0.00000000000E+00 -0.74505805969E-08  0.93827000000E+00  0.93827000000E+00 0.  1.
     999902    2    1    2    0    0  0.22673846602E-01 -0.34291645602E-02 -0.18952037778E-02  0.10209201263E+01  0.10206607909E+01 0.  0.
     999903    2    3    3    0    0 -0.79583071831E-01  0.56634258661E-01 -0.82527716123E-01  0.12931163925E+00  0.19229444613E-01 0.  0.
         14    1    1    2    0    0 -0.22673846602E-01  0.34291645602E-02  0.18952037778E-02  0.23009873678E-01  0.00000000000E+00 0.  1.
     999901    1    3    3    0    0  0.10225691843E+00 -0.60063423222E-01  0.80632512345E-01  0.89160848707E+00  0.88000000000E+00 0. -1.
        -11    1    4    4    0    0 -0.14550921482E-01  0.14063653722E-01 -0.27185419827E-01  0.33894304008E-01  0.51100000000E-03 0. -1.
         11    1    4    4    0    0 -0.65032150349E-01  0.42570604939E-01 -0.55342296296E-01  0.95417335239E-01  0.51100000000E-03 0.  1.
</event>
<event>
 8    1  0.1122848E+005  0.1043930E+01  0.7957747E-01            NaN
         13   -1    0    0    0    0  0.00000000000E+00  0.00000000000E+00  0.74505805969E-08  0.10566000000E+00  0.10566000000E+00 0.  1.
     999900   -1    0    0    0    0 -0.00000000000E+00 -0.00000000000E+00 -0.74505805969E-08  0.93827000000E+00  0.93827000000E+00 0.  1.
     999902    2    1    2    0    0  0.22283426100E-01 -0.45773732327E-02 -0.47476646892E-02  0.10206911587E+01  0.10204265764E+01 0.  0.
     999903    2    3    3    0    0  0.40942935673E-01  0.69382510016E-01 -0.10318572493E+00  0.13192330751E+00  0.16315898868E-01 0.  0.
         14    1    1    2    0    0 -0.22283426100E-01  0.45773732327E-02  0.47476646892E-02  0.23238841290E-01  0.00000000000E+00 0.  1.
     999901    1    3    3    0    0 -0.18659509572E-01 -0.73959883248E-01  0.98438060245E-01  0.88876785120E+00  0.88000000000E+00 0. -1.
        -11    1    4    4    0    0  0.23536996886E-01  0.26332600892E-01 -0.37921255252E-01  0.51823535320E-01  0.51100000000E-03 0. -1.
         11    1    4    4    0    0  0.17405938787E-01  0.43049909124E-01 -0.65264469682E-01  0.80099772187E-01  0.51100000000E-03 0.  1.
</event>
<event>
 8    1  0.1122848E+005  0.1043930E+01  0.7957747E-01            NaN
         13   -1    0    0    0    0  0.00000000000E+00  0.00000000000E+00  0.74505805969E-08  0.10566000000E+00  0.10566000000E+00 0.  1.
     999900   -1    0    0    0    0 -0.00000000000E+00 -0.00000000000E+00 -0.74505805969E-08  0.93827000000E+00  0.93827000000E+00 0. -1.
     999902    2    1    2    0    0 -0.12490894321E-01  0.90037563089E-04 -0.20324853084E-01  0.10200735501E+01  0.10197945467E+01 0.  0.
     999903    2    3    3    0    0  0.45115196623E-02  0.28536445518E-01  0.12326050257E+00  0.12782076388E+00  0.17615721728E-01 0.  0.
         14    1    1    2    0    0  0.12490894321E-01 -0.90037563089E-04  0.20324853084E-01  0.23856449874E-01  0.00000000000E+00 0.  1.
     999901    1    3    3    0    0 -0.17002413983E-01 -0.28446407955E-01 -0.14358535566E+00  0.89225278625E+00  0.88000000000E+00 0. -1.
        -11    1    4    4    0    0  0.10450838053E-01  0.15209899392E-01  0.82034264166E-01  0.84085924350E-01  0.51100000000E-03 0. -1.
         11    1    4    4    0    0 -0.59393183902E-02  0.13326546126E-01  0.41226238405E-01  0.43734839529E-01  0.51100000000E-03 0.  1.
</event>
<event>
 8    1  0.1122848E+005  0.1043930E+01  0.7957747E-01            NaN
         13   -1    0    0    0    0  0.00000000000E+00  0.00000000000E+00  0.74505805969E-08  0.10566000000E+00  0.10566000000E+00 0. -1.
     999900   -1    0    0    0    0 -0.00000000000E+00 -0.00000000000E+00 -0.74505805969E-08  0.93827000000E+00  0.93827000000E+00 0.  1.
     999902    2    1    2    0    0  0.14169763030E-01 -0.72498882632E-02  0.24029454960E-01  0.10151071311E+01  0.10146978515E+01 0.  0.
     999903    2    3    3    0    0  0.10685562377E+00  0.29577053924E-01  0.61834910664E-01  0.12866697808E+00  0.20945372325E-01 0.  0.
         14    1    1    2    0    0 -0.14169763030E-01  0.72498882632E-02 -0.24029454960E-01  0.28822868869E-01  0.00000000000E+00 0.  1.
     999901    1    3    3    0    0 -0.92685860743E-01 -0.36826942187E-01 -0.37805455705E-01  0.88644015305E+00  0.88000000000E+00 0.  1.
        -11    1    4    4    0    0  0.50732148057E-01  0.11774670477E-01  0.17443102497E-01  0.54926465907E-01  0.51100000000E-03 0. -1.
         11    1    4    4    0    0  0.56123475716E-01  0.17802383446E-01  0.44391808168E-01  0.73740512177E-01  0.51100000000E-03 0.  1.
</event>
<event>
 8    1  0.1122848E+005  0.1043930E+01  0.7957747E-01            NaN
         13   -1    0    0    0    0  0.00000000000E+00  0.00000000000E+00  0.74505805969E-08  0.10566000000E+00  0.10566000000E+00 0.  1.
     999900   -1    0    0    0    0 -0.00000000000E+00 -0.00000000000E+00 -0.74505805969E-08  0.93827000000E+00  0.93827000000E+00 0. -1.
     999902    2    1    2    0    0 -0.13898331487E-01  0.14255387231E-01 -0.47101487893E-02  0.10234711343E+01  0.10232666307E+01 0.  0.
     999903    2    3    3    0    0  0.95917601467E-01  0.87040771396E-01  0.23819954037E-01  0.13320644444E+00  0.20007110595E-01 0.  0.
         14    1    1    2    0    0  0.13898331487E-01 -0.14255387231E-01  0.47101487893E-02  0.20458865678E-01  0.00000000000E+00 0. -1.
     999901    1    3    3    0    0 -0.10981593295E+00 -0.72785384165E-01 -0.28530102826E-01  0.89026468988E+00  0.88000000000E+00 0. -1.
        -11    1    4    4    0    0  0.48467022815E-01  0.56721378859E-01  0.16587737383E-01  0.76431546319E-01  0.51100000000E-03 0. -1.
         11    1    4    4    0    0  0.47450578652E-01  0.30319392536E-01  0.72322166533E-02  0.56774898123E-01  0.51100000000E-03 0.  1.
</event>
<event>
 8    1  0.1122848E+005  0.1043930E+01  0.7957747E-01            NaN
         13   -1    0    0    0    0  0.00000000000E+00  0.00000000000E+00  0.74505805969E-08  0.10566000000E+00  0.10566000000E+00 0.  1.
     999900   -1    0    0    0    0 -0.00000000000E+00 -0.00000000000E+00 -0.74505805969E-08  0.93827000000E+00  0.93827000000E+00 0.  1.
     999902    2    1    2    0    0  0.22044742195E-01  0.64588245893E-02  0.51978174380E-02  0.10203778371E+01  0.10201059876E+01 0.  0.
     999903    2    3    3    0    0  0.83573391245E-01  0.99062467355E-01 -0.12790362157E-01  0.13319984819E+00  0.27941403539E-01 0.  0.
         14    1    1    2    0    0 -0.22044742195E-01 -0.64588245893E-02 -0.51978174380E-02  0.23552162950E-01  0.00000000000E+00 0. -1.
     999901    1    3    3    0    0 -0.61528649050E-01 -0.92603642766E-01  0.17988179595E-01  0.88717798886E+00  0.88000000000E+00 0.  1.
        -11    1    4    4    0    0  0.47165909938E-01  0.40436004472E-01 -0.15851206718E-01  0.64118760074E-01  0.51100000000E-03 0.  1.
         11    1    4    4    0    0  0.36407481307E-01  0.58626462883E-01  0.30608445613E-02  0.69081088119E-01  0.51100000000E-03 0. -1.
</event>
<event>
 8    1  0.1122848E+005  0.1043930E+01  0.7957747E-01            NaN
         13   -1    0    0    0    0  0.00000000000E+00  0.00000000000E+00  0.74505805969E-08  0.10566000000E+00  0.10566000000E+00 0. -1.
     999900   -1    0    0    0    0 -0.00000000000E+00 -0.00000000000E+00 -0.74505805969E-08  0.93827000000E+00  0.93827000000E+00 0. -1.
     999902    2    1    2    0    0 -0.96050960784E-02  0.42488084019E-02 -0.17001243791E-01  0.10239461932E+01  0.10237511680E+01 0.  0.
     999903    2    3    3    0    0  0.78220919147E-01 -0.46947946996E-01 -0.96820085206E-01  0.13450504048E+00  0.19870961144E-01 0.  0.
         14    1    1    2    0    0  0.96050960784E-02 -0.42488084019E-02  0.17001243791E-01  0.19983806793E-01  0.00000000000E+00 0. -1.
     999901    1    3    3    0    0 -0.87826015226E-01  0.51196755397E-01  0.79818841416E-01  0.88944115272E+00  0.88000000000E+00 0.  1.
        -11    1    4    4    0    0  0.17361960842E-01 -0.95955215923E-02 -0.34143659954E-01  0.39491294673E-01  0.51100000000E-03 0.  1.
         11    1    4    4    0    0  0.60858958305E-01 -0.37352425403E-01 -0.62676425252E-01  0.95013745810E-01  0.51100000000E-03 0. -1.
</event>
<event>
 8    1  0.1122848E+005  0.1043930E+01  0.7957747E-01            NaN
         13   -1    0    0    0    0  0.00000000000E+00  0.00000000000E+00  0.74505805969E-08  0.10566000000E+00  0.10566000000E+00 0.  1.
     999900   -1    0    0    0    0 -0.00000000000E+00 -0.00000000000E+00 -0.74505805969E-08  0.93827000000E+00  0.93827000000E+00 0. -1.
     999902    2    1    2    0    0 -0.14515691033E-01  0.71815456347E-02  0.47236916597E-02  0.10270601112E+01  0.10269215544E+01 0.  0.
     999903    2    3    3    0    0 -0.11143708201E+00  0.80184141030E-01  0.19000190591E-02  0.13872959387E+00  0.19863796804E-01 0.  0.
         14    1    1    2    0    0  0.14515691033E-01 -0.71815456347E-02 -0.47236916597E-02  0.16869888760E-01  0.00000000000E+00 0.  1.
     999901    1    3    3    0    0  0.96921390977E-01 -0.73002595396E-01  0.28236726005E-02  0.88833051737E+00  0.88000000000E+00 0.  1.
        -11    1    4    4    0    0 -0.16125983849E-01  0.11197442209E-01  0.72870621346E-02  0.20947373646E-01  0.51100000000E-03 0. -1.
         11    1    4    4    0    0 -0.95311098161E-01  0.68986698822E-01 -0.53870430755E-02  0.11778222022E+00  0.51100000000E-03 0.  1.
</event>
<event>
 8    1  0.1122848E+005  0.1043930E+01  0.7957747E-01            NaN
         13   -1    0    0    0    0  0.00000000000E+00  0.00000000000E+00  0.74505805969E-08  0.10566000000E+00  0.10566000000E+00 0.  1.
     999900   -1    0    0    0    0 -0.00000000000E+00 -0.00000000000E+00 -0.74505805969E-08  0.93827000000E+00  0.93827000000E+00 0. -1.
     999902    2    1    2    0    0  0.21446252710E-01 -0.63216078486E-02 -0.94131823112E-02  0.10196707238E+01  0.10193821033E+01 0.  0.
     999903    2    3    3    0    0  0.41929228662E-01  0.11756712812E+00 -0.29778272045E-01  0.13052354357E+00  0.23865458541E-01 0.  0.
         14    1    1    2    0    0 -0.21446252710E-01  0.63216078486E-02  0.94131823112E-02  0.24259276212E-01  0.00000000000E+00 0. -1.
     999901    1    3    3    0    0 -0.20482975951E-01 -0.12388873597E+00  0.20365089733E-01  0.88914718021E+00  0.88000000000E+00 0.  1.
        -11    1    4    4    0    0  0.27919118654E-01  0.92438404076E-01 -0.13612916003E-01  0.97518758901E-01  0.51100000000E-03 0.  1.
         11    1    4    4    0    0  0.14010110008E-01  0.25128724041E-01 -0.16165356042E-01  0.33004784673E-01  0.51100000000E-03 0. -1.
</event>
<event>
 8    1  0.1122848E+005  0.1043930E+01  0.7957747E-01            NaN
         13   -1    0    0    0    0  0.00000000000E+00  0.00000000000E+00  0.74505805969E-08  0.10566000000E+00  0.10566000000E+00 0. -1.
     999900   -1    0    0    0    0 -0.00000000000E+00 -0.00000000000E+00 -0.74505805969E-08  0.93827000000E+00  0.93827000000E+00 0.  1.
     999902    2    1    2    0    0  0.73891655392E-02 -0.16731441480E-01  0.13784724390E-01  0.10210267354E+01  0.10207698247E+01 0.  0.
     999903    2    3    3    0    0  0.32068785497E-01 -0.42424647717E-01  0.12110678633E+00  0.13379100043E+00  0.20122633112E-01 0.  0.
         14    1    1    2    0    0 -0.73891655392E-02  0.16731441480E-01 -0.13784724390E-01  0.22903264568E-01  0.00000000000E+00 0. -1.
     999901    1    3    3    0    0 -0.24679619958E-01  0.25693206236E-01 -0.10732206194E+00  0.88723573500E+00  0.88000000000E+00 0.  1.
        -11    1    4    4    0    0  0.55040973600E-02 -0.18343285441E-01  0.27191757283E-01  0.33262952269E-01  0.51100000000E-03 0.  1.
         11    1    4    4    0    0  0.26564688137E-01 -0.24081362276E-01  0.93915029047E-01  0.10052804816E+00  0.51100000000E-03 0. -1.
</event>
<event>
 8    1  0.1122848E+005  0.1043930E+01  0.7957747E-01            NaN
         13   -1    0    0    0    0  0.00000000000E+00  0.00000000000E+00  0.74505805969E-08  0.10566000000E+00  0.10566000000E+00 0.  1.
     999900   -1    0    0    0    0 -0.00000000000E+00 -0.00000000000E+00 -0.74505805969E-08  0.93827000000E+00  0.93827000000E+00 0. -1.
     999902    2    1    2    0    0  0.22618157847E-01  0.54212610894E-02  0.64744884603E-02  0.10197868822E+01  0.10195010520E+01 0.  0.
     999903    2    3    3    0    0  0.64234191885E-01  0.70011485985E-02 -0.11249020822E+00  0.13080601098E+00  0.16766576136E-01 0.  0.
         14    1    1    2    0    0 -0.22618157847E-01 -0.54212610894E-02 -0.64744884603E-02  0.24143117798E-01  0.00000000000E+00 0. -1.
     999901    1    3    3    0    0 -0.41616034038E-01 -0.15798875091E-02  0.11896469668E+00  0.88898087122E+00  0.88000000000E+00 0.  1.
        -11    1    4    4    0    0  0.49518290779E-01 -0.17917010445E-02 -0.81293868752E-01  0.95206226330E-01  0.51100000000E-03 0. -1.
         11    1    4    4    0    0  0.14715901105E-01  0.87928496430E-02 -0.31196339469E-01  0.35599784654E-01  0.51100000000E-03 0.  1.
</event>
<event>
 8    1  0.1122848E+005  0.1043930E+01  0.7957747E-01            NaN
         13   -1    0    0    0    0  0.00000000000E+00  0.00000000000E+00  0.74505805969E-08  0.10566000000E+00  0.10566000000E+00 0. -1.
     999900   -1    0    0    0    0 -0.00000000000E+00 -0.00000000000E+00 -0.74505805969E-08  0.93827000000E+00  0.93827000000E+00 0. -1.
     999902    2    1    2    0    0 -0.11040439636E-01  0.19167272121E-01 -0.10595888021E-01  0.10194035149E+01  0.10191084230E+01 0.  0.
     999903    2    3    3    0    0 -0.70898295429E-01  0.42647943249E-01  0.98538905394E-01  0.13033394061E+00  0.20775101446E-01 0.  0.
         14    1    1    2    0    0  0.11040439636E-01 -0.19167272121E-01  0.10595888021E-01  0.24526485089E-01  0.00000000000E+00 0. -1.
     999901    1    3    3    0    0  0.59857855794E-01 -0.23480671128E-01 -0.10913479341E+00  0.88906957430E+00  0.88000000000E+00 0. -1.
        -11    1    4    4    0    0 -0.61409141764E-01  0.43851426539E-01  0.90469105709E-01  0.11780895768E+00  0.51100000000E-03 0.  1.
         11    1    4    4    0    0 -0.94891536652E-02 -0.12034832896E-02  0.80697996847E-02  0.12524982925E-01  0.51100000000E-03 0. -1.
</event>
<event>
 8    1  0.1122848E+005  0.1043930E+01  0.7957747E-01            NaN
         13   -1    0    0    0    0  0.00000000000E+00  0.00000000000E+00  0.74505805969E-08  0.10566000000E+00  0.10566000000E+00 0. -1.
     999900   -1    0    0    0    0 -0.00000000000E+00 -0.00000000000E+00 -0.74505805969E-08  0.93827000000E+00  0.93827000000E+00 0.  1.
     999902    2    1    2    0    0 -0.10179997573E-02 -0.24022305815E-02 -0.23861699901E-01  0.10199260887E+01  0.10196435841E+01 0.  0.
     999903    2    3    3    0    0  0.86960327914E-01  0.25133457870E-01  0.87923679690E-01  0.12807723864E+00  0.21895576523E-01 0.  0.
         14    1    1    2    0    0  0.10179997573E-02  0.24022305815E-02  0.23861699901E-01  0.24003911295E-01  0.00000000000E+00 0. -1.
     999901    1    3    3    0    0 -0.87978327671E-01 -0.27535688451E-01 -0.11178537959E+00  0.89184885007E+00  0.88000000000E+00 0.  1.
        -11    1    4    4    0    0  0.59417536265E-01  0.69376732935E-02  0.61431836123E-01  0.85747924389E-01  0.51100000000E-03 0. -1.
         11    1    4    4    0    0  0.27542791649E-01  0.18195784576E-01  0.26491843567E-01  0.42329314248E-01  0.51100000000E-03 0.  1.
</event>
<event>
 8    1  0.1122848E+005  0.1043930E+01  0.7957747E-01            NaN
         13   -1    0    0    0    0  0.00000000000E+00  0.00000000000E+00  0.74505805969E-08  0.10566000000E+00  0.10566000000E+00 0.  1.
     999900   -1    0    0    0    0 -0.00000000000E+00 -0.00000000000E+00 -0.74505805969E-08  0.93827000000E+00  0.93827000000E+00 0. -1.
     999902    2    1    2    0    0  0.82479272442E-02  0.22068249088E-01 -0.20229446702E-02  0.10202841076E+01  0.10200100647E+01 0.  0.
     999903    2    3    3    0    0 -0.44002436990E-01  0.75239619073E-01  0.96619635205E-01  0.13164039177E+00  0.19915423622E-01 0.  0.
         14    1    1    2    0    0 -0.82479272442E-02 -0.22068249088E-01  0.20229446702E-02  0.23645892387E-01  0.00000000000E+00 0. -1.
     999901    1    3    3    0    0  0.52250364235E-01 -0.53171369984E-01 -0.98642579875E-01  0.88864371585E+00  0.88000000000E+00 0. -1.
        -11    1    4    4    0    0 -0.32242029873E-01  0.35490993651E-01  0.52122368640E-01  0.70824865367E-01  0.51100000000E-03 0.  1.
         11    1    4    4    0    0 -0.11760407118E-01  0.39748625421E-01  0.44497266565E-01  0.60815526399E-01  0.51100000000E-03 0. -1.
</event>
<event>
 7    1  0.1122848E+005  0.1043930E+01  0.7957747E-01            NaN
         13   -1    0    0    0    0  0.00000000000E+00  0.00000000000E+00  0.74505805969E-08  0.10566000000E+00  0.10566000000E+00 0.  1.
     999900   -1    0    0    0    0 -0.00000000000E+00 -0.00000000000E+00 -0.74505805969E-08  0.93827000000E+00  0.93827000000E+00 0.  1.
     999903    2    1    2    0    0 -0.10181459630E+00  0.19860586366E-01 -0.36944531514E-01  0.11188199901E+00  0.19799706637E-01 0.  0.
         14    1    1    2    0    0 -0.14530692891E-02  0.36571351408E-01  0.24653786101E-01  0.44129177686E-01  0.00000000000E+00 0.  1.
     999901    1    1    2    0    0  0.10326766559E+00 -0.56431937774E-01  0.12290745413E-01  0.88791882331E+00  0.88000000000E+00 0. -1.
        -11    1    3    3    0    0 -0.56443232192E-01  0.42850122973E-02 -0.12218210104E-01  0.57911532270E-01  0.51100000000E-03 0.  1.
         11    1    3    3    0    0 -0.45371364107E-01  0.15575574069E-01 -0.24726321410E-01  0.53970466739E-01  0.51100000000E-03 0. -1.
</event>
<event>
 8    1  0.1122848E+005  0.1043930E+01  0.7957747E-01            NaN
         13   -1    0    0    0    0  0.00000000000E+00  0.00000000000E+00  0.74505805969E-08  0.10566000000E+00  0.10566000000E+00 0. -1.
     999900   -1    0    0    0    0 -0.00000000000E+00 -0.00000000000E+00 -0.74505805969E-08  0.93827000000E+00  0.93827000000E+00 0.  1.
     999902    2    1    2    0    0 -0.99704806175E-02 -0.16953432335E-01  0.13267343537E-01  0.10202055030E+01  0.10199296136E+01 0.  0.
     999903    2    3    3    0    0  0.90783356503E-01  0.66128446290E-01 -0.57599629309E-01  0.12775042736E+00  0.19694292791E-01 0.  0.
         14    1    1    2    0    0  0.99704806175E-02  0.16953432335E-01 -0.13267343537E-01  0.23724496965E-01  0.00000000000E+00 0.  1.
     999901    1    3    3    0    0 -0.10075383712E+00 -0.83081878626E-01  0.70866972846E-01  0.89245507567E+00  0.88000000000E+00 0.  1.
        -11    1    4    4    0    0  0.14842888430E-01  0.20067547257E-01 -0.92488613897E-02  0.26623680209E-01  0.51100000000E-03 0. -1.
         11    1    4    4    0    0  0.75940468073E-01  0.46060899034E-01 -0.48350767920E-01  0.10112674716E+00  0.51100000000E-03 0.  1.
</event>
<event>
 8    1  0.1122848E+005  0.1043930E+01  0.7957747E-01            NaN
         13   -1    0    0    0    0  0.00000000000E+00  0.00000000000E+00  0.74505805969E-08  0.10566000000E+00  0.10566000000E+00 0.  1.
     999900   -1    0    0    0    0 -0.00000000000E+00 -0.00000000000E+00 -0.74505805969E-08  0.93827000000E+00  0.93827000000E+00 0.  1.
     999902    2    1    2    0    0 -0.50107445419E-02 -0.32028302176E-02 -0.22857198178E-01  0.10203118462E+01  0.10200384533E+01 0.  0.
     999903    2    3    3    0    0 -0.11753326141E+00 -0.54672288590E-01  0.58744463450E-02  0.13119097173E+00  0.19324473263E-01 0.  0.
         14    1    1    2    0    0  0.50107445419E-02  0.32028302176E-02  0.22857198178E-01  0.23618153840E-01  0.00000000000E+00 0.  1.
     999901    1    3    3    0    0  0.11252251687E+00  0.51469458372E-01 -0.28731644523E-01  0.88912087443E+00  0.88000000000E+00 0. -1.
        -11    1    4    4    0    0 -0.55535605654E-01 -0.35278523452E-01 -0.14926550387E-02  0.65812360939E-01  0.51100000000E-03 0.  1.
         11    1    4    4    0    0 -0.61997655755E-01 -0.19393765137E-01  0.73671013837E-02  0.65378610793E-01  0.51100000000E-03 0. -1.
</event>
<event>
 8    1  0.1122848E+005  0.1043930E+01  0.7957747E-01            NaN
         13   -1    0    0    0    0  0.00000000000E+00  0.00000000000E+00  0.74505805969E-08  0.10566000000E+00  0.10566000000E+00 0. -1.
     999900   -1    0    0    0    0 -0.00000000000E+00 -0.00000000000E+00 -0.74505805969E-08  0.93827000000E+00  0.93827000000E+00 0. -1.
     999902    2    1    2    0    0  0.32750925731E-02 -0.22911026067E-01 -0.11436088862E-02  0.10207578359E+01  0.10204947871E+01 0.  0.
     999903    2    3    3    0    0 -0.11270536734E+00  0.43878243950E-01  0.42172783864E-01  0.12958524683E+00  0.19646688723E-01 0.  0.
         14    1    1    2    0    0 -0.32750925731E-02  0.22911026067E-01  0.11436088862E-02  0.23172164078E-01  0.00000000000E+00 0. -1.
     999901    1    3    3    0    0  0.11598045991E+00 -0.66789270016E-01 -0.43316392750E-01  0.89117258909E+00  0.88000000000E+00 0. -1.
        -11    1    4    4    0    0 -0.25483729162E-01  0.14343245666E-01  0.18128416906E-01  0.34410024248E-01  0.51100000000E-03 0. -1.
         11    1    4    4    0    0 -0.87221638176E-01  0.29534998284E-01  0.24044366957E-01  0.95175222580E-01  0.51100000000E-03 0.  1.
</event>
<event>
 8    1  0.1122848E+005  0.1043930E+01  0.7957747E-01            NaN
         13   -1    0    0    0    0  0.00000000000E+00  0.00000000000E+00  0.74505805969E-08  0.10566000000E+00  0.10566000000E+00 0.  1.
     999900   -1    0    0    0    0 -0.00000000000E+00 -0.00000000000E+00 -0.74505805969E-08  0.93827000000E+00  0.93827000000E+00 0. -1.
     999902    2    1    2    0    0 -0.92143603649E-02 -0.18562167020E-01  0.59666034575E-02  0.10223647771E+01  0.10221373091E+01 0.  0.
     999903    2    3    3    0    0  0.88305038282E-01  0.88141411028E-01  0.30704754915E-01  0.13022820527E+00  0.21211208104E-01 0.  0.
         14    1    1    2    0    0  0.92143603649E-02  0.18562167020E-01 -0.59666034575E-02  0.21565222889E-01  0.00000000000E+00 0. -1.
     999901    1    3    3    0    0 -0.97519398647E-01 -0.10670357805E+00 -0.24738151457E-01  0.89213657184E+00  0.88000000000E+00 0. -1.
        -11    1    4    4    0    0  0.60276722364E-01  0.72756086342E-01  0.25139955972E-01  0.97770189046E-01  0.51100000000E-03 0.  1.
         11    1    4    4    0    0  0.28028315918E-01  0.15385324686E-01  0.55647989430E-02  0.32458016223E-01  0.51100000000E-03 0. -1.
</event>
<event>
 8    1  0.1122848E+005  0.1043930E+01  0.7957747E-01            NaN
         13   -1    0    0    0    0  0.00000000000E+00  0.00000000000E+00  0.74505805969E-08  0.10566000000E+00  0.10566000000E+00 0.  1.
     999900   -1    0    0    0    0 -0.00000000000E+00 -0.00000000000E+00 -0.74505805969E-08  0.93827000000E+00  0.93827000000E+00 0.  1.
     999902    2    1    2    0    0  0.60698856791E-02 -0.21269190444E-01 -0.62505757058E-02  0.10209454036E+01  0.10206866441E+01 0.  0.
     999903    2    3    3    0    0  0.14964131765E-02  0.80574537740E-01  0.98490699139E-01  0.12888946575E+00  0.20434803171E-01 0.  0.
         14    1    1    2    0    0 -0.60698856791E-02  0.21269190444E-01  0.62505757058E-02  0.22984596385E-01  0.00000000000E+00 0. -1.
     999901    1    3    3    0    0  0.45734725026E-02 -0.10184372818E+00 -0.10474127484E+00  0.89205593786E+00  0.88000000000E+00 0.  1.
        -11    1    4    4    0    0  0.32211869856E-02  0.21655723248E-01  0.14451633026E-01  0.26238468193E-01  0.51100000000E-03 0. -1.
         11    1    4    4    0    0 -0.17247738091E-02  0.58918814492E-01  0.84039066112E-01  0.10265099756E+00  0.51100000000E-03 0.  1.
</event>
<event>
 8    1  0.1122848E+005  0.1043930E+01  0.7957747E-01            NaN
         13   -1    0    0    0    0  0.00000000000E+00  0.00000000000E+00  0.74505805969E-08  0.10566000000E+00  0.10566000000E+00 0. -1.
     999900   -1    0    0    0    0 -0.00000000000E+00 -0.00000000000E+00 -0.74505805969E-08  0.93827000000E+00  0.93827000000E+00 0. -1.
     999902    2    1    2    0    0 -0.15392019677E-01 -0.25326009419E-01  0.89314517765E-02  0.10129769411E+01  0.10125039217E+01 0.  0.
     999903    2    3    3    0    0 -0.12050256210E-01 -0.10722683573E+00  0.64707568441E-01  0.12740938982E+00  0.20081838182E-01 0.  0.
         14    1    1    2    0    0  0.15392019677E-01  0.25326009419E-01 -0.89314517765E-02  0.30953058874E-01  0.00000000000E+00 0. -1.
     999901    1    3    3    0    0 -0.33417634666E-02  0.81900826315E-01 -0.55776116664E-01  0.88556755130E+00  0.88000000000E+00 0. -1.
        -11    1    4    4    0    0  0.21401127801E-02 -0.39545360778E-01  0.31957172871E-01  0.50891430130E-01  0.51100000000E-03 0.  1.
         11    1    4    4    0    0 -0.14190368990E-01 -0.67681474955E-01  0.32750395570E-01  0.76517959691E-01  0.51100000000E-03 0. -1.
</event>
<event>
 8    1  0.1122848E+005  0.1043930E+01  0.7957747E-01            NaN
         13   -1    0    0    0    0  0.00000000000E+00  0.00000000000E+00  0.74505805969E-08  0.10566000000E+00  0.10566000000E+00 0.  1.
     999900   -1    0    0    0    0 -0.00000000000E+00 -0.00000000000E+00 -0.74505805969E-08  0.93827000000E+00  0.93827000000E+00 0. -1.
     999902    2    1    2    0    0 -0.21269375996E-01  0.15633848513E-02 -0.10298967571E-01  0.10202466881E+01  0.10199717670E+01 0.  0.
     999903    2    3    3    0    0  0.11690273417E+00 -0.38406449058E-01  0.30207125946E-01  0.12764943111E+00  0.15511357720E-01 0.  0.
         14    1    1    2    0    0  0.21269375996E-01 -0.15633848513E-02  0.10298967571E-01  0.23683311857E-01  0.00000000000E+00 0.  1.
     999901    1    3    3    0    0 -0.13817211017E+00  0.39969833909E-01 -0.40506093517E-01  0.89259725703E+00  0.88000000000E+00 0. -1.
        -11    1    4    4    0    0  0.39302915882E-01 -0.14556303750E-01  0.29770311854E-02  0.42020578428E-01  0.51100000000E-03 0. -1.
         11    1    4    4    0    0  0.77599818291E-01 -0.23850145307E-01  0.27230094760E-01  0.85628852682E-01  0.51100000000E-03 0.  1.
</event>
<event>
 8    1  0.1122848E+005  0.1043930E+01  0.7957747E-01            NaN
         13   -1    0    0    0    0  0.00000000000E+00  0.00000000000E+00  0.74505805969E-08  0.10566000000E+00  0.10566000000E+00 0. -1.
     999900   -1    0    0    0    0 -0.00000000000E+00 -0.00000000000E+00 -0.74505805969E-08  0.93827000000E+00  0.93827000000E+00 0.  1.
     999902    2    1    2    0    0  0.38408973430E-02 -0.52366213265E-03  0.23591506922E-01  0.10200221370E+01  0.10197419154E+01 0.  0.
     999903    2    3    3    0    0  0.74278820512E-01  0.77364052871E-02 -0.10230706045E+00  0.12823730925E+00  0.20021931076E-01 0.  0.
         14    1    1    2    0    0 -0.38408973430E-02  0.52366213265E-03 -0.23591506922E-01  0.23907863001E-01  0.00000000000E+00 0.  1.
     999901    1    3    3    0    0 -0.70437923169E-01 -0.82600674197E-02  0.12589856737E+00  0.89178482775E+00  0.88000000000E+00 0. -1.
        -11    1    4    4    0    0  0.28311192568E-01  0.95048816880E-02 -0.52744187300E-01  0.60614163489E-01  0.51100000000E-03 0. -1.
         11    1    4    4    0    0  0.45967627944E-01 -0.17684764009E-02 -0.49562873145E-01  0.67623145764E-01  0.51100000000E-03 0.  1.
</event>
<event>
 8    1  0.1122848E+005  0.1043930E+01  0.7957747E-01            NaN
         13   -1    0    0    0    0  0.00000000000E+00  0.00000000000E+00  0.74505805969E-08  0.10566000000E+00  0.10566000000E+00 0.  1.
     999900   -1    0    0    0    0 -0.00000000000E+00 -0.00000000000E+00 -0.74505805969E-08  0.93827000000E+00  0.93827000000E+00 0.  1.
     999902    2    1    2    0    0 -0.45989783832E-02  0.17601462736E-01  0.15103187143E-01  0.10202853737E+01  0.10200113604E+01 0.  0.
     999903    2    3    3    0    0 -0.65318174058E-01  0.47687519970E-01 -0.10004059645E+00  0.13020106167E+00  0.20090597280E-01 0.  0.
         14    1    1    2    0    0  0.45989783832E-02 -0.17601462736E-01 -0.15103187143E-01  0.23644626335E-01  0.00000000000E+00 0. -1.
     999901    1    3    3    0    0  0.60719195674E-01 -0.30086057234E-01  0.11514378359E+00  0.89008431200E+00  0.88000000000E+00 0. -1.
        -11    1    4    4    0    0 -0.33777163945E-01  0.35619522666E-01 -0.65922426644E-01  0.82192911220E-01  0.51100000000E-03 0. -1.
         11    1    4    4    0    0 -0.31541010112E-01  0.12067997305E-01 -0.34118169803E-01  0.48008150449E-01  0.51100000000E-03 0.  1.
</event>
<event>
 8    1  0.1122848E+005  0.1043930E+01  0.7957747E-01            NaN
         13   -1    0    0    0    0  0.00000000000E+00  0.00000000000E+00  0.74505805969E-08  0.10566000000E+00  0.10566000000E+00 0.  1.
     999900   -1    0    0    0    0 -0.00000000000E+00 -0.00000000000E+00 -0.74505805969E-08  0.93827000000E+00  0.93827000000E+00 0.  1.
     999902    2    1    2    0    0 -0.20610252058E-01 -0.11291176563E-02  0.21746773982E-02  0.10231746003E+01  0.10229640639E+01 0.  0.
     999903    2    3    3    0    0 -0.95032105719E-02  0.32289520207E-01  0.12791100135E+00  0.13353995902E+00  0.18405767122E-01 0.  0.
         14    1    1    2    0    0  0.20610252058E-01  0.11291176563E-02 -0.21746773982E-02  0.20755399740E-01  0.00000000000E+00 0. -1.
     999901    1    3    3    0    0 -0.11107041486E-01 -0.33418637864E-01 -0.12573632395E+00  0.88963464124E+00  0.88000000000E+00 0.  1.
        -11    1    4    4    0    0 -0.50799543370E-02  0.14437181867E-01  0.27674140767E-01  0.31628426211E-01  0.51100000000E-03 0. -1.
         11    1    4    4    0    0 -0.44232562349E-02  0.17852338340E-01  0.10023686058E+00  0.10191153281E+00  0.51100000000E-03 0.  1.
</event>
<event>
 8    1  0.1122848E+005  0.1043930E+01  0.7957747E-01            NaN
         13   -1    0    0    0    0  0.00000000000E+00  0.00000000000E+00  0.74505805969E-08  0.10566000000E+00  0.10566000000E+00 0. -1.
     999900   -1    0    0    0    0 -0.00000000000E+00 -0.00000000000E+00 -0.74505805969E-08  0.93827000000E+00  0.93827000000E+00 0.  1.
     999902    2    1    2    0    0  0.12477077559E-01  0.15846037631E-01  0.12361152747E-01  0.10202747158E+01  0.10200004526E+01 0.  0.
     999903    2    3    3    0    0 -0.58590212359E-01 -0.40582133606E-01  0.10802665515E+00  0.13045080820E+00  0.16368646335E-01 0.  0.
         14    1    1    2    0    0 -0.12477077559E-01 -0.15846037631E-01 -0.12361152747E-01  0.23655284193E-01  0.00000000000E+00 0.  1.
     999901    1    3    3    0    0  0.71067289918E-01  0.56428171237E-01 -0.95665502407E-01  0.88982390761E+00  0.88000000000E+00 0.  1.
        -11    1    4    4    0    0 -0.74704380191E-02 -0.72721001816E-02  0.74911794230E-02  0.12847948295E-01  0.51100000000E-03 0. -1.
         11    1    4    4    0    0 -0.51119774340E-01 -0.33310033424E-01  0.10053547573E+00  0.11760285990E+00  0.51100000000E-03 0.  1.
</event>
<event>
 8    1  0.1122848E+005  0.1043930E+01  0.7957747E-01            NaN
         13   -1    0    0    0    0  0.00000000000E+00  0.00000000000E+00  0.74505805969E-08  0.10566000000E+00  0.10566000000E+00 0. -1.
     999900   -1    0    0    0    0 -0.00000000000E+00 -0.00000000000E+00 -0.74505805969E-08  0.93827000000E+00  0.93827000000E+00 0.  1.
     999902    2    1    2    0    0 -0.76280331782E-02  0.21476933390E-01  0.48623851395E-02  0.10206257440E+01  0.10203596528E+01 0.  0.
     999903    2    3    3    0    0 -0.53965755111E-01 -0.10110349972E+00 -0.55784660869E-01  0.12885715786E+00  0.18921373168E-01 0.  0.
         14    1    1    2    0    0  0.76280331782E-02 -0.21476933390E-01 -0.48623851395E-02  0.23304255990E-01  0.00000000000E+00 0. -1.
     999901    1    3    3    0    0  0.46337721933E-01  0.12258043311E+00  0.60647046008E-01  0.89176858615E+00  0.88000000000E+00 0. -1.
        -11    1    4    4    0    0 -0.37449660934E-01 -0.69047808097E-01 -0.28225552707E-01  0.83468675883E-01  0.51100000000E-03 0.  1.
         11    1    4    4    0    0 -0.16516094177E-01 -0.32055691625E-01 -0.27559108161E-01  0.45388481976E-01  0.51100000000E-03 0. -1.
</event>
<event>
 8    1  0.1122848E+005  0.1043930E+01  0.7957747E-01            NaN
         13   -1    0    0    0    0  0.00000000000E+00  0.00000000000E+00  0.74505805969E-08  0.10566000000E+00  0.10566000000E+00 0. -1.
     999900   -1    0    0    0    0 -0.00000000000E+00 -0.00000000000E+00 -0.74505805969E-08  0.93827000000E+00  0.93827000000E+00 0.  1.
     999902    2    1    2    0    0 -0.19205232241E-01 -0.94860163664E-02  0.83316997300E-02  0.10209464695E+01  0.10206877343E+01 0.  0.
     999903    2    3    3    0    0  0.10798760003E-01 -0.13050525395E+00  0.11050280561E-01  0.13215330682E+00  0.13933889516E-01 0.  0.
         14    1    1    2    0    0  0.19205232241E-01  0.94860163664E-02 -0.83316997300E-02  0.22983530459E-01  0.00000000000E+00 0.  1.
     999901    1    3    3    0    0 -0.30003992244E-01  0.12101923758E+00 -0.27185808311E-02  0.88879316272E+00  0.88000000000E+00 0. -1.
        -11    1    4    4    0    0  0.62381183982E-02 -0.66561880556E-01  0.12572477453E-01  0.68027394296E-01  0.51100000000E-03 0.  1.
         11    1    4    4    0    0  0.45606416049E-02 -0.63943373394E-01 -0.15221968921E-02  0.64125912526E-01  0.51100000000E-03 0. -1.
</event>
<event>
 8    1  0.1122848E+005  0.1043930E+01  0.7957747E-01            NaN
         13   -1    0    0    0    0  0.00000000000E+00  0.00000000000E+00  0.74505805969E-08  0.10566000000E+00  0.10566000000E+00 0. -1.
     999900   -1    0    0    0    0 -0.00000000000E+00 -0.00000000000E+00 -0.74505805969E-08  0.93827000000E+00  0.93827000000E+00 0.  1.
     999902    2    1    2    0    0 -0.94279460705E-02  0.21586607765E-01  0.58415465972E-03  0.10203671258E+01  0.10200950262E+01 0.  0.
     999903    2    3    3    0    0 -0.76777725791E-01 -0.39800579946E-02 -0.10442824290E+00  0.13120052117E+00  0.19941384128E-01 0.  0.
         14    1    1    2    0    0  0.94279460705E-02 -0.21586607765E-01 -0.58415465972E-03  0.23562874158E-01  0.00000000000E+00 0. -1.
     999901    1    3    3    0    0  0.67349779720E-01  0.25566665760E-01  0.10501239756E+00  0.88916660467E+00  0.88000000000E+00 0.  1.
        -11    1    4    4    0    0 -0.66867369281E-02 -0.41356552794E-02 -0.19827144390E-01  0.21335249495E-01  0.51100000000E-03 0.  1.
         11    1    4    4    0    0 -0.70090988862E-01  0.15559728479E-03 -0.84601098507E-01  0.10986527167E+00  0.51100000000E-03 0. -1.
</event>
<event>
 8    1  0.1122848E+005  0.1043930E+01  0.7957747E-01            NaN
         13   -1    0    0    0    0  0.00000000000E+00  0.00000000000E+00  0.74505805969E-08  0.10566000000E+00  0.10566000000E+00 0.  1.
     999900   -1    0    0    0    0 -0.00000000000E+00 -0.00000000000E+00 -0.74505805969E-08  0.93827000000E+00  0.93827000000E+00 0.  1.
     999902    2    1    2    0    0  0.35339830967E-02  0.19926403796E-01 -0.11001141085E-01  0.10208957709E+01  0.10206358799E+01 0.  0.
     999903    2    3    3    0    0 -0.19232474152E-01 -0.75302779162E-01 -0.10310449122E+00  0.13068796597E+00  0.20209199080E-01 0.  0.
         14    1    1    2    0    0 -0.35339830967E-02 -0.19926403796E-01  0.11001141085E-01  0.23034229093E-01  0.00000000000E+00 0.  1.
     999901    1    3    3    0    0  0.22766457248E-01  0.95229182958E-01  0.92103350140E-01  0.89020780494E+00  0.88000000000E+00 0. -1.
        -11    1    4    4    0    0 -0.71211187151E-02 -0.27100211121E-01 -0.53890541030E-01  0.60741940272E-01  0.51100000000E-03 0. -1.
         11    1    4    4    0    0 -0.12111355437E-01 -0.48202568041E-01 -0.49213950194E-01  0.69946025698E-01  0.51100000000E-03 0.  1.
</event>
<event>
 8    1  0.1122848E+005  0.1043930E+01  0.7957747E-01            NaN
         13   -1    0    0    0    0  0.00000000000E+00  0.00000000000E+00  0.74505805969E-08  0.10566000000E+00  0.10566000000E+00 0. -1.
     999900   -1    0    0    0    0 -0.00000000000E+00 -0.00000000000E+00 -0.74505805969E-08  0.93827000000E+00  0.93827000000E+00 0. -1.
     999902    2    1    2    0    0  0.16381944590E-01 -0.12748457125E-01 -0.11190684003E-01  0.10203477466E+01  0.10200751939E+01 0.  0.
     999903    2    3    3    0    0 -0.87955844037E-01  0.13200822522E-01  0.89876699558E-01  0.12806171886E+00  0.20285228595E-01 0.  0.
         14    1    1    2    0    0 -0.16381944590E-01  0.12748457125E-01  0.11190684003E-01  0.23582253414E-01  0.00000000000E+00 0. -1.
     999901    1    3    3    0    0  0.10433778863E+00 -0.25949279647E-01 -0.10106738356E+00  0.89228602772E+00  0.88000000000E+00 0.  1.
        -11    1    4    4    0    0 -0.24462504158E-01  0.18063782832E-02  0.38226461929E-01  0.45422468281E-01  0.51100000000E-03 0.  1.
         11    1    4    4    0    0 -0.63493339879E-01  0.11394444238E-01  0.51650237629E-01  0.82639250582E-01  0.51100000000E-03 0. -1.
</event>
<event>
 8    1  0.1122848E+005  0.1043930E+01  0.7957747E-01            NaN
         13   -1    0    0    0    0  0.00000000000E+00  0.00000000000E+00  0.74505805969E-08  0.10566000000E+00  0.10566000000E+00 0. -1.
     999900   -1    0    0    0    0 -0.00000000000E+00 -0.00000000000E+00 -0.74505805969E-08  0.93827000000E+00  0.93827000000E+00 0.  1.
     999902    2    1    2    0    0  0.16197076028E-01 -0.12913478930E-01 -0.12111990083E-01  0.10199340938E+01  0.10196517799E+01 0.  0.
     999903    2    3    3    0    0  0.67422541335E-01 -0.16782139444E-01  0.10823777417E+00  0.13025826488E+00  0.20600012823E-01 0.  0.
         14    1    1    2    0    0 -0.16197076028E-01  0.12913478930E-01  0.12111990083E-01  0.23995906186E-01  0.00000000000E+00 0. -1.
     999901    1    3    3    0    0 -0.51225465307E-01  0.38686605138E-02 -0.12034976425E+00  0.88967582893E+00  0.88000000000E+00 0.  1.
        -11    1    4    4    0    0  0.12566536816E-01  0.10163883868E-02  0.33895255551E-01  0.36167670132E-01  0.51100000000E-03 0. -1.
         11    1    4    4    0    0  0.54856004520E-01 -0.17798527830E-01  0.74342518619E-01  0.94090594750E-01  0.51100000000E-03 0.  1.
</event>
<event>
 8    1  0.1122848E+005  0.1043930E+01  0.7957747E-01            NaN
         13   -1    0    0    0    0  0.00000000000E+00  0.00000000000E+00  0.74505805969E-08  0.10566000000E+00  0.10566000000E+00 0. -1.
     999900   -1    0    0    0    0 -0.00000000000E+00 -0.00000000000E+00 -0.74505805969E-08  0.93827000000E+00  0.93827000000E+00 0. -1.
     999902    2    1    2    0    0  0.83099475223E-02  0.21970508473E-01 -0.22808595572E-02  0.10203299832E+01  0.10200570150E+01 0.  0.
     999903    2    3    3    0    0 -0.52156553763E-01  0.13199390005E-01 -0.11717782804E+00  0.13076017505E+00  0.21749712547E-01 0.  0.
         14    1    1    2    0    0 -0.83099475223E-02 -0.21970508473E-01  0.22808595572E-02  0.23600016752E-01  0.00000000000E+00 0. -1.
     999901    1    3    3    0    0  0.60466501285E-01  0.87711184684E-02  0.11489696849E+00  0.88956980820E+00  0.88000000000E+00 0.  1.
        -11    1    4    4    0    0 -0.10934172295E-01 -0.60739679818E-02 -0.25925269798E-01  0.28789406835E-01  0.51100000000E-03 0. -1.
         11    1    4    4    0    0 -0.41222381468E-01  0.19273357987E-01 -0.91252558246E-01  0.10197076821E+00  0.51100000000E-03 0.  1.
</event>
<event>
 8    1  0.1122848E+005  0.1043930E+01  0.7957747E-01            NaN
         13   -1    0    0    0    0  0.00000000000E+00  0.00000000000E+00  0.74505805969E-08  0.10566000000E+00  0.10566000000E+00 0. -1.
     999900   -1    0    0    0    0 -0.00000000000E+00 -0.00000000000E+00 -0.74505805969E-08  0.93827000000E+00  0.93827000000E+00 0.  1.
     999902    2    1    2    0    0  0.12907144958E-01 -0.75430994070E-02 -0.17698884361E-01  0.10207622801E+01  0.10204993332E+01 0.  0.
     999903    2    3    3    0    0  0.90787260166E-01  0.31779577151E-01  0.85531741163E-01  0.13044315341E+00  0.21153472344E-01 0.  0.
         14    1    1    2    0    0 -0.12907144958E-01  0.75430994070E-02  0.17698884361E-01  0.23167719941E-01  0.00000000000E+00 0. -1.
     999901    1    3    3    0    0 -0.77880115208E-01 -0.39322676558E-01 -0.10323062552E+00  0.89031912665E+00  0.88000000000E+00 0.  1.
        -11    1    4    4    0    0  0.20985182365E-01  0.16691596450E-01  0.19288929550E-01  0.33034999547E-01  0.51100000000E-03 0. -1.
         11    1    4    4    0    0  0.69802077801E-01  0.15087980701E-01  0.66242811613E-01  0.97408153860E-01  0.51100000000E-03 0.  1.
</event>
<event>
 8    1  0.1122848E+005  0.1043930E+01  0.7957747E-01            NaN
         13   -1    0    0    0    0  0.00000000000E+00  0.00000000000E+00  0.74505805969E-08  0.10566000000E+00  0.10566000000E+00 0.  1.
     999900   -1    0    0    0    0 -0.00000000000E+00 -0.00000000000E+00 -0.74505805969E-08  0.93827000000E+00  0.93827000000E+00 0.  1.
     999902    2    1    2    0    0 -0.11316526322E-01 -0.68785517807E-02  0.18691502226E-01  0.10210225668E+01  0.10207655614E+01 0.  0.
     999903    2    3    3    0    0 -0.41607191695E-01 -0.27810900781E-01 -0.11799120482E+00  0.12971013553E+00  0.19954704737E-01 0.  0.
         14    1    1    2    0    0  0.11316526322E-01  0.68785517807E-02 -0.18691502226E-01  0.22907433249E-01  0.00000000000E+00 0. -1.
     999901    1    3    3    0    0  0.30290665373E-01  0.20932349000E-01  0.13668270705E+00  0.89131243122E+00  0.88000000000E+00 0. -1.
        -11    1    4    4    0    0 -0.12795176805E-01  0.11462148846E-02 -0.32818757386E-01  0.35247160388E-01  0.51100000000E-03 0. -1.
         11    1    4    4    0    0 -0.28812014890E-01 -0.28957115666E-01 -0.85172447434E-01  0.94462975142E-01  0.51100000000E-03 0.  1.
</event>
<event>
 8    1  0.1122848E+005  0.1043930E+01  0.7957747E-01            NaN
         13   -1    0    0    0    0  0.00000000000E+00  0.00000000000E+00  0.74505805969E-08  0.10566000000E+00  0.10566000000E+00 0.  1.
     999900   -1    0    0    0    0 -0.00000000000E+00 -0.00000000000E+00 -0.74505805969E-08  0.93827000000E+00  0.93827000000E+00 0. -1.
     999902    2    1    2    0    0 -0.18624234027E-01  0.12854960689E-01 -0.55821772770E-02  0.10206217866E+01  0.10203556040E+01 0.  0.
     999903    2    3    3    0    0  0.22492466517E-01 -0.91117938499E-01  0.86101689957E-01  0.12882198940E+00  0.19318751837E-01 0.  0.
         14    1    1    2    0    0  0.18624234027E-01 -0.12854960689E-01  0.55821772770E-02  0.23308213372E-01  0.00000000000E+00 0. -1.
     999901    1    3    3    0    0 -0.41116700545E-01  0.10397289919E+00 -0.91683867234E-01  0.89179979723E+00  0.88000000000E+00 0.  1.
        -11    1    4    4    0    0  0.63367872464E-02 -0.17839687927E-01  0.28520179632E-01  0.34235524024E-01  0.51100000000E-03 0. -1.
         11    1    4    4    0    0  0.16155679271E-01 -0.73278250572E-01  0.57581510326E-01  0.94586465374E-01  0.51100000000E-03 0.  1.
</event>
<event>
 8    1  0.1122848E+005  0.1043930E+01  0.7957747E-01            NaN
         13   -1    0    0    0    0  0.00000000000E+00  0.00000000000E+00  0.74505805969E-08  0.10566000000E+00  0.10566000000E+00 0.  1.
     999900   -1    0    0    0    0 -0.00000000000E+00 -0.00000000000E+00 -0.74505805969E-08  0.93827000000E+00  0.93827000000E+00 0. -1.
     999902    2    1    2    0    0  0.20087632346E-01  0.12154105523E-01  0.54090536372E-02  0.10198365753E+01  0.10195519345E+01 0.  0.
     999903    2    3    3    0    0  0.12685719155E+00 -0.28001542919E-01  0.14319594096E-01  0.13242933357E+00  0.21345823009E-01 0.  0.
         14    1    1    2    0    0 -0.20087632346E-01 -0.12154105523E-01 -0.54090536372E-02  0.24093424738E-01  0.00000000000E+00 0. -1.
     999901    1    3    3    0    0 -0.10676955921E+00  0.40155648443E-01 -0.89105404590E-02  0.88740724169E+00  0.88000000000E+00 0.  1.
        -11    1    4    4    0    0  0.10598218078E+00 -0.30751199438E-01  0.90899968742E-02  0.11072826231E+00  0.51100000000E-03 0. -1.
         11    1    4    4    0    0  0.20875010770E-01  0.27496565189E-02  0.52295972220E-02  0.21701071258E-01  0.51100000000E-03 0.  1.
</event>
<event>
 8    1  0.1122848E+005  0.1043930E+01  0.7957747E-01            NaN
         13   -1    0    0    0    0  0.00000000000E+00  0.00000000000E+00  0.74505805969E-08  0.10566000000E+00  0.10566000000E+00 0.  1.
     999900   -1    0    0    0    0 -0.00000000000E+00 -0.00000000000E+00 -0.74505805969E-08  0.93827000000E+00  0.93827000000E+00 0. -1.
     999902    2    1    2    0    0 -0.14892392239E-01 -0.17984546469E-01  0.47357582242E-02  0.10201044955E+01  0.10198262240E+01 0.  0.
     999903    2    3    3    0    0  0.11676565300E+00  0.21850355615E-01 -0.43277586864E-01  0.12812582894E+00  0.20775532662E-01 0.  0.
         14    1    1    2    0    0  0.14892392239E-01  0.17984546469E-01 -0.47357582242E-02  0.23825504491E-01  0.00000000000E+00 0.  1.
     999901    1    3    3    0    0 -0.13165804524E+00 -0.39834902084E-01  0.48013345088E-01  0.89197866656E+00  0.88000000000E+00 0.  1.
        -11    1    4    4    0    0  0.77141720720E-01  0.20723964613E-01 -0.36834904698E-01  0.87962486948E-01  0.51100000000E-03 0.  1.
         11    1    4    4    0    0  0.39623932278E-01  0.11263910013E-02 -0.64426821667E-02  0.40163341997E-01  0.51100000000E-03 0. -1.
</event>
<event>
 8    1  0.1122848E+005  0.1043930E+01  0.7957747E-01            NaN
         13   -1    0    0    0    0  0.00000000000E+00  0.00000000000E+00  0.74505805969E-08  0.10566000000E+00  0.10566000000E+00 0.  1.
     999900   -1    0    0    0    0 -0.00000000000E+00 -0.00000000000E+00 -0.74505805969E-08  0.93827000000E+00  0.93827000000E+00 0. -1.
     999902    2    1    2    0    0 -0.22437233082E-01 -0.22675747664E-02 -0.10506016369E-01  0.10190513404E+01  0.10187476069E+01 0.  0.
     999903    2    3    3    0    0 -0.49953933552E-01  0.50364619179E-01  0.10631357263E+00  0.12934682034E+00  0.19900599550E-01 0.  0.
         14    1    1    2    0    0  0.22437233082E-01  0.22675747664E-02  0.10506016369E-01  0.24878659603E-01  0.00000000000E+00 0.  1.
     999901    1    3    3    0    0  0.27516700470E-01 -0.52632193945E-01 -0.11681958900E+00  0.88970452006E+00  0.88000000000E+00 0.  1.
        -11    1    4    4    0    0  0.25211943044E-03  0.76551485407E-02  0.93133403141E-02  0.12069146291E-01  0.51100000000E-03 0. -1.
         11    1    4    4    0    0 -0.50206052982E-01  0.42709470638E-01  0.97000232319E-01  0.11727767404E+00  0.51100000000E-03 0.  1.
</event>
<event>
 8    1  0.1122848E+005  0.1043930E+01  0.7957747E-01            NaN
         13   -1    0    0    0    0  0.00000000000E+00  0.00000000000E+00  0.74505805969E-08  0.10566000000E+00  0.10566000000E+00 0.  1.
     999900   -1    0    0    0    0 -0.00000000000E+00 -0.00000000000E+00 -0.74505805969E-08  0.93827000000E+00  0.93827000000E+00 0.  1.
     999902    2    1    2    0    0  0.11949726440E-01 -0.20854190895E-01 -0.49692317916E-03  0.10198896137E+01  0.10196062397E+01 0.  0.
     999903    2    3    3    0    0 -0.10452600781E+00 -0.66976031576E-01 -0.34478545268E-01  0.13036807295E+00  0.19889425488E-01 0.  0.
         14    1    1    2    0    0 -0.11949726440E-01  0.20854190895E-01  0.49692317916E-03  0.24040386281E-01  0.00000000000E+00 0.  1.
     999901    1    3    3    0    0  0.11647573425E+00  0.46121840681E-01  0.33981622088E-01  0.88952154077E+00  0.88000000000E+00 0. -1.
        -11    1    4    4    0    0 -0.44279406625E-01 -0.39947579394E-01 -0.18271541957E-01  0.62374556647E-01  0.51100000000E-03 0. -1.
         11    1    4    4    0    0 -0.60246601184E-01 -0.27028452182E-01 -0.16207003311E-01  0.67993516301E-01  0.51100000000E-03 0.  1.
</event>
<event>
 8    1  0.1122848E+005  0.1043930E+01  0.7957747E-01            NaN
         13   -1    0    0    0    0  0.00000000000E+00  0.00000000000E+00  0.74505805969E-08  0.10566000000E+00  0.10566000000E+00 0. -1.
     999900   -1    0    0    0    0 -0.00000000000E+00 -0.00000000000E+00 -0.74505805969E-08  0.93827000000E+00  0.93827000000E+00 0. -1.
     999902    2    1    2    0    0  0.15383524231E-01  0.11681868956E-01  0.12737936053E-01  0.10207918520E+01  0.10205295837E+01 0.  0.
     999903    2    3    3    0    0  0.77180609231E-01 -0.93422854396E-01 -0.44321129808E-01  0.13055501853E+00  0.19889046025E-01 0.  0.
         14    1    1    2    0    0 -0.15383524231E-01 -0.11681868956E-01 -0.12737936053E-01  0.23138148045E-01  0.00000000000E+00 0.  1.
     999901    1    3    3    0    0 -0.61797085000E-01  0.10510472335E+00  0.57059065861E-01  0.89023683342E+00  0.88000000000E+00 0.  1.
        -11    1    4    4    0    0  0.48252553375E-02 -0.16437461782E-01 -0.55790591425E-02  0.18023880293E-01  0.51100000000E-03 0.  1.
         11    1    4    4    0    0  0.72355353893E-01 -0.76985392614E-01 -0.38742070665E-01  0.11253113824E+00  0.51100000000E-03 0. -1.
</event>
<event>
 8    1  0.1122848E+005  0.1043930E+01  0.7957747E-01            NaN
         13   -1    0    0    0    0  0.00000000000E+00  0.00000000000E+00  0.74505805969E-08  0.10566000000E+00  0.10566000000E+00 0.  1.
     999900   -1    0    0    0    0 -0.00000000000E+00 -0.00000000000E+00 -0.74505805969E-08  0.93827000000E+00  0.93827000000E+00 0. -1.
     999902    2    1    2    0    0 -0.22616381368E-01  0.28929483523E-02 -0.46678259584E-02  0.10206564430E+01  0.10203910604E+01 0.  0.
     999903    2    3    3    0    0  0.32062211662E-01  0.35142640537E-01  0.11846163043E+00  0.12981939044E+00  0.23599272232E-01 0.  0.
         14    1    1    2    0    0  0.22616381368E-01 -0.28929483523E-02  0.46678259584E-02  0.23273557002E-01  0.00000000000E+00 0. -1.
     999901    1    3    3    0    0 -0.54678593030E-01 -0.32249692185E-01 -0.12312945639E+00  0.89083705256E+00  0.88000000000E+00 0. -1.
        -11    1    4    4    0    0  0.20039205412E-01  0.27546055270E-01  0.54329577583E-01  0.64127365733E-01  0.51100000000E-03 0.  1.
         11    1    4    4    0    0  0.12023006250E-01  0.75965852677E-02  0.64132052844E-01  0.65692024706E-01  0.51100000000E-03 0. -1.
</event>
<event>
 8    1  0.1122848E+005  0.1043930E+01  0.7957747E-01            NaN
         13   -1    0    0    0    0  0.00000000000E+00  0.00000000000E+00  0.74505805969E-08  0.10566000000E+00  0.10566000000E+00 0. -1.
     999900   -1    0    0    0    0 -0.00000000000E+00 -0.00000000000E+00 -0.74505805969E-08  0.93827000000E+00  0.93827000000E+00 0.  1.
     999902    2    1    2    0    0 -0.64569193607E-02 -0.44321833810E-02 -0.22323646447E-01  0.10202724167E+01  0.10199980995E+01 0.  0.
     999903    2    3    3    0    0  0.85530498466E-01 -0.23302531785E-01 -0.95940240757E-01  0.13221995313E+00  0.20472226394E-01 0.  0.
         14    1    1    2    0    0  0.64569193607E-02  0.44321833810E-02  0.22323646447E-01  0.23657583305E-01  0.00000000000E+00 0. -1.
     999901    1    3    3    0    0 -0.91987417827E-01  0.18870348404E-01  0.73616594311E-01  0.88805246357E+00  0.88000000000E+00 0.  1.
        -11    1    4    4    0    0  0.45859752700E-01 -0.11429113582E-01 -0.36226842032E-01  0.59551547080E-01  0.51100000000E-03 0. -1.
         11    1    4    4    0    0  0.39670745766E-01 -0.11873418202E-01 -0.59713398725E-01  0.72668406050E-01  0.51100000000E-03 0.  1.
</event>
<event>
 8    1  0.1122848E+005  0.1043930E+01  0.7957747E-01            NaN
         13   -1    0    0    0    0  0.00000000000E+00  0.00000000000E+00  0.74505805969E-08  0.10566000000E+00  0.10566000000E+00 0. -1.
     999900   -1    0    0    0    0 -0.00000000000E+00 -0.00000000000E+00 -0.74505805969E-08  0.93827000000E+00  0.93827000000E+00 0. -1.
     999902    2    1    2    0    0  0.76676169787E-02 -0.16512776335E-01  0.19067139908E-01  0.10175667688E+01  0.10172252008E+01 0.  0.
     999903    2    3    3    0    0 -0.68420264654E-01  0.10136593708E+00  0.25372066691E-01  0.12643013011E+00  0.19607402027E-01 0.  0.
         14    1    1    2    0    0 -0.76676169787E-02  0.16512776335E-01 -0.19067139908E-01  0.26363231151E-01  0.00000000000E+00 0.  1.
     999901    1    3    3    0    0  0.76087881633E-01 -0.11787871342E+00 -0.63049267826E-02  0.89113663874E+00  0.88000000000E+00 0. -1.
        -11    1    4    4    0    0 -0.30659361983E-01  0.30574096087E-01  0.13258566317E-01  0.45286008110E-01  0.51100000000E-03 0.  1.
         11    1    4    4    0    0 -0.37760902672E-01  0.70791840997E-01  0.12113500374E-01  0.81144121996E-01  0.51100000000E-03 0. -1.
</event>
<event>
 8    1  0.1122848E+005  0.1043930E+01  0.7957747E-01            NaN
         13   -1    0    0    0    0  0.00000000000E+00  0.00000000000E+00  0.74505805969E-08  0.10566000000E+00  0.10566000000E+00 0. -1.
     999900   -1    0    0    0    0 -0.00000000000E+00 -0.00000000000E+00 -0.74505805969E-08  0.93827000000E+00  0.93827000000E+00 0.  1.
     999902    2    1    2    0    0 -0.50300880064E-02  0.11639975083E-01  0.19768280717E-01  0.10204443506E+01  0.10201740523E+01 0.  0.
     999903    2    3    3    0    0 -0.11514879082E+00  0.44243316197E-01  0.44213440955E-01  0.13264557136E+00  0.20574357424E-01 0.  0.
         14    1    1    2    0    0  0.50300880064E-02 -0.11639975083E-01 -0.19768280717E-01  0.23485649401E-01  0.00000000000E+00 0.  1.
     999901    1    3    3    0    0  0.11011870282E+00 -0.32603341115E-01 -0.24445160238E-01  0.88779877924E+00  0.88000000000E+00 0. -1.
        -11    1    4    4    0    0 -0.43835443276E-01  0.67341699439E-02  0.18598764820E-01  0.48094389547E-01  0.51100000000E-03 0.  1.
         11    1    4    4    0    0 -0.71313347548E-01  0.37509146253E-01  0.25614676135E-01  0.84551181811E-01  0.51100000000E-03 0. -1.
</event>
<event>
 8    1  0.1122848E+005  0.1043930E+01  0.7957747E-01            NaN
         13   -1    0    0    0    0  0.00000000000E+00  0.00000000000E+00  0.74505805969E-08  0.10566000000E+00  0.10566000000E+00 0.  1.
     999900   -1    0    0    0    0 -0.00000000000E+00 -0.00000000000E+00 -0.74505805969E-08  0.93827000000E+00  0.93827000000E+00 0. -1.
     999902    2    1    2    0    0 -0.44930793429E-02  0.15133248246E-01  0.17510789584E-01  0.10203539376E+01  0.10200815298E+01 0.  0.
     999903    2    3    3    0    0  0.14627057628E-01  0.28572669084E-01  0.12765313447E+00  0.13318003484E+00  0.20279317260E-01 0.  0.
         14    1    1    2    0    0  0.44930793429E-02 -0.15133248246E-01 -0.17510789584E-01  0.23576062358E-01  0.00000000000E+00 0. -1.
     999901    1    3    3    0    0 -0.19120136971E-01 -0.13439420837E-01 -0.11014234488E+00  0.88717390280E+00  0.88000000000E+00 0. -1.
        -11    1    4    4    0    0  0.17825245450E-02  0.20904698877E-01  0.52280752860E-01  0.56335797408E-01  0.51100000000E-03 0. -1.
         11    1    4    4    0    0  0.12844533083E-01  0.76679702062E-02  0.75372381606E-01  0.76844237436E-01  0.51100000000E-03 0.  1.
</event>
<event>
 8    1  0.1122848E+005  0.1043930E+01  0.7957747E-01            NaN
         13   -1    0    0    0    0  0.00000000000E+00  0.00000000000E+00  0.74505805969E-08  0.10566000000E+00  0.10566000000E+00 0.  1.
     999900   -1    0    0    0    0 -0.00000000000E+00 -0.00000000000E+00 -0.74505805969E-08  0.93827000000E+00  0.93827000000E+00 0.  1.
     999902    2    1    2    0    0  0.11549286094E-01 -0.19348478926E-01 -0.98686777109E-02  0.10193303974E+01  0.10190335219E+01 0.  0.
     999903    2    3    3    0    0 -0.37577363944E-01 -0.12222938669E+00  0.23132514600E-01  0.13136249959E+00  0.19207077259E-01 0.  0.
         14    1    1    2    0    0 -0.11549286094E-01  0.19348478926E-01  0.98686777109E-02  0.24599602554E-01  0.00000000000E+00 0.  1.
     999901    1    3    3    0    0  0.49126650038E-01  0.10288090776E+00 -0.33001192311E-01  0.88796789785E+00  0.88000000000E+00 0.  1.
        -11    1    4    4    0    0 -0.22605286889E-01 -0.57013614208E-01  0.26792865406E-02  0.61392107781E-01  0.51100000000E-03 0. -1.
         11    1    4    4    0    0 -0.14972077055E-01 -0.65215772478E-01  0.20453228059E-01  0.69970391812E-01  0.51100000000E-03 0.  1.
</event>
<event>
 8    1  0.1122848E+005  0.1043930E+01  0.7957747E-01            NaN
         13   -1    0    0    0    0  0.00000000000E+00  0.00000000000E+00  0.74505805969E-08  0.10566000000E+00  0.10566000000E+00 0. -1.
     999900   -1    0    0    0    0 -0.00000000000E+00 -0.00000000000E+00 -0.74505805969E-08  0.93827000000E+00  0.93827000000E+00 0.  1.
     999902    2    1    2    0    0  0.41210950578E-02  0.13820755532E-01  0.18382956436E-01  0.10205648594E+01  0.10202973598E+01 0.  0.
     999903    2    3    3    0    0  0.84986265228E-02 -0.64836631410E-01 -0.10813952361E+00  0.12803245928E+00  0.20546012679E-01 0.  0.
         14    1    1    2    0    0 -0.41210950578E-02 -0.13820755532E-01 -0.18382956436E-01  0.23365140600E-01  0.00000000000E+00 0.  1.
     999901    1    3    3    0    0 -0.43775314650E-02  0.78657386943E-01  0.12652248005E+00  0.89253240012E+00  0.88000000000E+00 0. -1.
        -11    1    4    4    0    0  0.84386644599E-02 -0.57190677506E-01 -0.10476813864E+00  0.11966038880E+00  0.51100000000E-03 0.  1.
         11    1    4    4    0    0  0.59962062914E-04 -0.76459539047E-02 -0.33713849683E-02  0.83720704826E-02  0.51100000000E-03 0. -1.
</event>
<event>
 8    1  0.1122848E+005  0.1043930E+01  0.7957747E-01            NaN
         13   -1    0    0    0    0  0.00000000000E+00  0.00000000000E+00  0.74505805969E-08  0.10566000000E+00  0.10566000000E+00 0.  1.
     999900   -1    0    0    0    0 -0.00000000000E+00 -0.00000000000E+00 -0.74505805969E-08  0.93827000000E+00  0.93827000000E+00 0.  1.
     999902    2    1    2    0    0 -0.28325678869E-03 -0.18729583513E-01  0.16510258628E-01  0.10189606954E+01  0.10186547170E+01 0.  0.
     999903    2    3    3    0    0  0.62017086581E-01 -0.69326102637E-02 -0.10988565254E+00  0.12767150117E+00  0.18192731089E-01 0.  0.
         14    1    1    2    0    0  0.28325678869E-03  0.18729583513E-01 -0.16510258628E-01  0.24969304614E-01  0.00000000000E+00 0. -1.
     999901    1    3    3    0    0 -0.62300343370E-01 -0.11796973249E-01  0.12639591117E+00  0.89128919421E+00  0.88000000000E+00 0. -1.
        -11    1    4    4    0    0  0.22851987526E-01 -0.24818050847E-02 -0.58866113508E-01  0.63196939252E-01  0.51100000000E-03 0. -1.
         11    1    4    4    0    0  0.39165099055E-01 -0.44508051790E-02 -0.51019539032E-01  0.64474561920E-01  0.51100000000E-03 0.  1.
</event>
<event>
 8    1  0.1122848E+005  0.1043930E+01  0.7957747E-01            NaN
         13   -1    0    0    0    0  0.00000000000E+00  0.00000000000E+00  0.74505805969E-08  0.10566000000E+00  0.10566000000E+00 0.  1.
     999900   -1    0    0    0    0 -0.00000000000E+00 -0.00000000000E+00 -0.74505805969E-08  0.93827000000E+00  0.93827000000E+00 0. -1.
     999902    2    1    2    0    0 -0.95907629020E-02 -0.16865518894E-01  0.14777300051E-01  0.10195415384E+01  0.10192497984E+01 0.  0.
     999903    2    3    3    0    0 -0.84017100973E-01  0.40564374604E-01 -0.86404520984E-01  0.12876927047E+00  0.20284033836E-01 0.  0.
         14    1    1    2    0    0  0.95907629020E-02  0.16865518894E-01 -0.14777300051E-01  0.24388461563E-01  0.00000000000E+00 0. -1.
     999901    1    3    3    0    0  0.74426338071E-01 -0.57429893498E-01  0.10118182104E+00  0.89077226796E+00  0.88000000000E+00 0.  1.
        -11    1    4    4    0    0 -0.74845440421E-01  0.29605296689E-01 -0.78494569017E-01  0.11242763019E+00  0.51100000000E-03 0. -1.
         11    1    4    4    0    0 -0.91716605521E-02  0.10959077915E-01 -0.79099519672E-02  0.16341640283E-01  0.51100000000E-03 0.  1.
</event>
<event>
 8    1  0.1122848E+005  0.1043930E+01  0.7957747E-01            NaN
         13   -1    0    0    0    0  0.00000000000E+00  0.00000000000E+00  0.74505805969E-08  0.10566000000E+00  0.10566000000E+00 0.  1.
     999900   -1    0    0    0    0 -0.00000000000E+00 -0.00000000000E+00 -0.74505805969E-08  0.93827000000E+00  0.93827000000E+00 0.  1.
     999902    2    1    2    0    0  0.23416513076E-01 -0.18842222231E-02 -0.46569647675E-02  0.10199806639E+01  0.10196994577E+01 0.  0.
     999903    2    3    3    0    0 -0.84264461424E-01 -0.70804389405E-01 -0.63839473209E-01  0.12877487903E+00  0.19842633668E-01 0.  0.
         14    1    1    2    0    0 -0.23416513076E-01  0.18842222231E-02  0.46569647675E-02  0.23949336084E-01  0.00000000000E+00 0.  1.
     999901    1    3    3    0    0  0.10768097450E+00  0.68920167182E-01  0.59182508442E-01  0.89120578489E+00  0.88000000000E+00 0. -1.
        -11    1    4    4    0    0 -0.30955930844E-01 -0.37602160951E-01 -0.23047807267E-01  0.53885570457E-01  0.51100000000E-03 0. -1.
         11    1    4    4    0    0 -0.53308530581E-01 -0.33202228453E-01 -0.40791665942E-01  0.74889308571E-01  0.51100000000E-03 0.  1.
</event>
<event>
 8    1  0.1122848E+005  0.1043930E+01  0.7957747E-01            NaN
         13   -1    0    0    0    0  0.00000000000E+00  0.00000000000E+00  0.74505805969E-08  0.10566000000E+00  0.10566000000E+00 0. -1.
     999900   -1    0    0    0    0 -0.00000000000E+00 -0.00000000000E+00 -0.74505805969E-08  0.93827000000E+00  0.93827000000E+00 0. -1.
     999902    2    1    2    0    0  0.23130452957E-01  0.25164023288E-02  0.27970094674E-02  0.10204955511E+01  0.10202264437E+01 0.  0.
     999903    2    3    3    0    0 -0.10288342931E+00 -0.25104460465E-01  0.70036346474E-01  0.12855186505E+00  0.20131026278E-01 0.  0.
         14    1    1    2    0    0 -0.23130452957E-01 -0.25164023288E-02 -0.27970094674E-02  0.23434448930E-01  0.00000000000E+00 0.  1.
     999901    1    3    3    0    0  0.12601388227E+00  0.27620862794E-01 -0.67239337007E-01  0.89194368602E+00  0.88000000000E+00 0.  1.
        -11    1    4    4    0    0 -0.88268675523E-01 -0.20165815882E-01  0.50571679154E-01  0.10371005285E+00  0.51100000000E-03 0. -1.
         11    1    4    4    0    0 -0.14614753789E-01 -0.49386445837E-02  0.19464667320E-01  0.24841812203E-01  0.51100000000E-03 0.  1.
</event>
<event>
 8    1  0.1122848E+005  0.1043930E+01  0.7957747E-01            NaN
         13   -1    0    0    0    0  0.00000000000E+00  0.00000000000E+00  0.74505805969E-08  0.10566000000E+00  0.10566000000E+00 0. -1.
     999900   -1    0    0    0    0 -0.00000000000E+00 -0.00000000000E+00 -0.74505805969E-08  0.93827000000E+00  0.93827000000E+00 0.  1.
     999902    2    1    2    0    0 -0.23230366257E-01 -0.64994787426E-02  0.81129833804E-02  0.10184797811E+01  0.10181617509E+01 0.  0.
     999903    2    3    3    0    0  0.10673715588E+00 -0.19878696081E-01 -0.60759820138E-01  0.12617152537E+00  0.20964614614E-01 0.  0.
         14    1    1    2    0    0  0.23230366257E-01  0.64994787426E-02 -0.81129833804E-02  0.25450218853E-01  0.00000000000E+00 0.  1.
     999901    1    3    3    0    0 -0.12996752214E+00  0.13379217339E-01  0.68872803518E-01  0.89230825578E+00  0.88000000000E+00 0. -1.
        -11    1    4    4    0    0  0.13004697087E-01 -0.59399016298E-02 -0.14552965069E-02  0.14379971718E-01  0.51100000000E-03 0. -1.
         11    1    4    4    0    0  0.93732458798E-01 -0.13938794452E-01 -0.59304523631E-01  0.11179155365E+00  0.51100000000E-03 0.  1.
</event>
<event>
 8    1  0.1122848E+005  0.1043930E+01  0.7957747E-01            NaN
         13   -1    0    0    0    0  0.00000000000E+00  0.00000000000E+00  0.74505805969E-08  0.10566000000E+00  0.10566000000E+00 0. -1.
     999900   -1    0    0    0    0 -0.00000000000E+00 -0.00000000000E+00 -0.74505805969E-08  0.93827000000E+00  0.93827000000E+00 0.  1.
     999902    2    1    2    0    0  0.18715067516E-01 -0.99066638524E-02 -0.10861530205E-01  0.10201315005E+01  0.10198538668E+01 0.  0.
     999903    2    3    3    0    0 -0.10553730519E+00 -0.65824373386E-01  0.26749823521E-01  0.12885149045E+00  0.20400554248E-01 0.  0.
         14    1    1    2    0    0 -0.18715067516E-01  0.99066638524E-02  0.10861530205E-01  0.23798499516E-01  0.00000000000E+00 0.  1.
     999901    1    3    3    0    0  0.12425237271E+00  0.55917709533E-01 -0.37611353726E-01  0.89128001004E+00  0.88000000000E+00 0. -1.
        -11    1    4    4    0    0 -0.82437213323E-01 -0.59586536552E-01  0.25600931020E-01  0.10489098278E+00  0.51100000000E-03 0.  1.
         11    1    4    4    0    0 -0.23100091867E-01 -0.62378368337E-02  0.11488925014E-02  0.23960507666E-01  0.51100000000E-03 0. -1.
</event>
<event>
 8    1  0.1122848E+005  0.1043930E+01  0.7957747E-01            NaN
         13   -1    0    0    0    0  0.00000000000E+00  0.00000000000E+00  0.74505805969E-08  0.10566000000E+00  0.10566000000E+00 0.  1.
     999900   -1    0    0    0    0 -0.00000000000E+00 -0.00000000000E+00 -0.74505805969E-08  0.93827000000E+00  0.93827000000E+00 0.  1.
     999902    2    1    2    0    0  0.12447963345E-01  0.11560796442E-01  0.16717217055E-01  0.10200957987E+01  0.10198173216E+01 0.  0.
     999903    2    3    3    0    0  0.98682446472E-02  0.25560809575E-01  0.12846918312E+00  0.13291421794E+00  0.20276120899E-01 0.  0.
         14    1    1    2    0    0 -0.12447963345E-01 -0.11560796442E-01 -0.16717217055E-01  0.23834201305E-01  0.00000000000E+00 0. -1.
     999901    1    3    3    0    0  0.25797186975E-02 -0.14000013133E-01 -0.11175196607E+00  0.88718158076E+00  0.88000000000E+00 0.  1.
        -11    1    4    4    0    0 -0.46397022645E-02  0.84309271556E-02  0.62255142114E-01  0.62996596816E-01  0.51100000000E-03 0. -1.
         11    1    4    4    0    0  0.14507946912E-01  0.17129882419E-01  0.66214041010E-01  0.69917621120E-01  0.51100000000E-03 0.  1.
</event>
<event>
 8    1  0.1122848E+005  0.1043930E+01  0.7957747E-01            NaN
         13   -1    0    0    0    0  0.00000000000E+00  0.00000000000E+00  0.74505805969E-08  0.10566000000E+00  0.10566000000E+00 0. -1.
     999900   -1    0    0    0    0 -0.00000000000E+00 -0.00000000000E+00 -0.74505805969E-08  0.93827000000E+00  0.93827000000E+00 0.  1.
     999902    2    1    2    0    0  0.13875154798E-01 -0.48786184306E-02 -0.18036365710E-01  0.10206570258E+01  0.10203916567E+01 0.  0.
     999903    2    3    3    0    0 -0.20603312417E-01  0.13689264628E-01  0.12439298289E+00  0.12834561701E+00  0.19674622338E-01 0.  0.
         14    1    1    2    0    0 -0.13875154798E-01  0.48786184306E-02  0.18036365710E-01  0.23272974165E-01  0.00000000000E+00 0. -1.
     999901    1    3    3    0    0  0.34478467215E-01 -0.18567883059E-01 -0.14242934860E+00  0.89231140883E+00  0.88000000000E+00 0.  1.
        -11    1    4    4    0    0 -0.14283339349E-01  0.34146202317E-02  0.32560232085E-01  0.35722587374E-01  0.51100000000E-03 0.  1.
         11    1    4    4    0    0 -0.63199730685E-02  0.10274644397E-01  0.91832750804E-01  0.92623029632E-01  0.51100000000E-03 0. -1.
</event>
<event>
 8    1  0.1122848E+005  0.1043930E+01  0.7957747E-01            NaN
         13   -1    0    0    0    0  0.00000000000E+00  0.00000000000E+00  0.74505805969E-08  0.10566000000E+00  0.10566000000E+00 0.  1.
     999900   -1    0    0    0    0 -0.00000000000E+00 -0.00000000000E+00 -0.74505805969E-08  0.93827000000E+00  0.93827000000E+00 0.  1.
     999902    2    1    2    0    0  0.15475888338E-02  0.22389661007E-01  0.69234305408E-02  0.10204432837E+01  0.10201729606E+01 0.  0.
     999903    2    3    3    0    0 -0.18492610509E-01 -0.13197874438E-02  0.12849790322E+00  0.13154278313E+00  0.21167762735E-01 0.  0.
         14    1    1    2    0    0 -0.15475888338E-02 -0.22389661007E-01 -0.69234305408E-02  0.23486716280E-01  0.00000000000E+00 0. -1.
     999901    1    3    3    0    0  0.20040199343E-01  0.23709448450E-01 -0.12157447268E+00  0.88890050059E+00  0.88000000000E+00 0.  1.
        -11    1    4    4    0    0 -0.23185979208E-01 -0.24275188846E-03  0.11026744325E+00  0.11268016118E+00  0.51100000000E-03 0. -1.
         11    1    4    4    0    0  0.46933686983E-02 -0.10770355553E-02  0.18230459972E-01  0.18862621957E-01  0.51100000000E-03 0.  1.
</event>
<event>
 8    1  0.1122848E+005  0.1043930E+01  0.7957747E-01            NaN
         13   -1    0    0    0    0  0.00000000000E+00  0.00000000000E+00  0.74505805969E-08  0.10566000000E+00  0.10566000000E+00 0.  1.
     999900   -1    0    0    0    0 -0.00000000000E+00 -0.00000000000E+00 -0.74505805969E-08  0.93827000000E+00  0.93827000000E+00 0.  1.
     999902    2    1    2    0    0 -0.75307317904E-02  0.13307447629E-01 -0.18165905060E-01  0.10201855230E+01  0.10199091631E+01 0.  0.
     999903    2    3    3    0    0 -0.11005010132E+00 -0.20027154333E-01 -0.67545413507E-01  0.13223296078E+00  0.20274647165E-01 0.  0.
         14    1    1    2    0    0  0.75307317904E-02 -0.13307447629E-01  0.18165905060E-01  0.23744477049E-01  0.00000000000E+00 0.  1.
     999901    1    3    3    0    0  0.10251936953E+00  0.33334601963E-01  0.49379508447E-01  0.88795256217E+00  0.88000000000E+00 0.  1.
        -11    1    4    4    0    0 -0.39259127821E-01  0.21432591059E-02 -0.19931153642E-01  0.44083836985E-01  0.51100000000E-03 0.  1.
         11    1    4    4    0    0 -0.70790973503E-01 -0.22170413439E-01 -0.47614259866E-01  0.88149123791E-01  0.51100000000E-03 0. -1.
</event>
<event>
 8    1  0.1122848E+005  0.1043930E+01  0.7957747E-01            NaN
         13   -1    0    0    0    0  0.00000000000E+00  0.00000000000E+00  0.74505805969E-08  0.10566000000E+00  0.10566000000E+00 0. -1.
     999900   -1    0    0    0    0 -0.00000000000E+00 -0.00000000000E+00 -0.74505805969E-08  0.93827000000E+00  0.93827000000E+00 0. -1.
     999902    2    1    2    0    0 -0.75875818272E-02  0.88252344481E-02  0.17874481889E-01  0.10226003665E+01  0.10223778931E+01 0.  0.
     999903    2    3    3    0    0  0.10564737023E+00  0.44360970720E-01 -0.60687496070E-01  0.13116504790E+00  0.19799875050E-01 0.  0.
         14    1    1    2    0    0  0.75875818272E-02 -0.88252344481E-02 -0.17874481889E-01  0.21329633467E-01  0.00000000000E+00 0.  1.
     999901    1    3    3    0    0 -0.11323495206E+00 -0.35535736272E-01  0.78561977960E-01  0.89143531863E+00  0.88000000000E+00 0.  1.
        -11    1    4    4    0    0  0.32746130876E-01  0.20788192719E-01 -0.12969876477E-01  0.40901550835E-01  0.51100000000E-03 0.  1.
         11    1    4    4    0    0  0.72901239355E-01  0.23572778001E-01 -0.47717619594E-01  0.90263497068E-01  0.51100000000E-03 0. -1.
</event>
<event>
 8    1  0.1122848E+005  0.1043930E+01  0.7957747E-01            NaN
         13   -1    0    0    0    0  0.00000000000E+00  0.00000000000E+00  0.74505805969E-08  0.10566000000E+00  0.10566000000E+00 0.  1.
     999900   -1    0    0    0    0 -0.00000000000E+00 -0.00000000000E+00 -0.74505805969E-08  0.93827000000E+00  0.93827000000E+00 0.  1.
     999902    2    1    2    0    0 -0.57392153867E-02 -0.67285266917E-02  0.22278588097E-01  0.10199602868E+01  0.10196785961E+01 0.  0.
     999903    2    3    3    0    0  0.48178873511E-01  0.11380787916E+00  0.35084922764E-01  0.13001636289E+00  0.19996639760E-01 0.  0.
         14    1    1    2    0    0  0.57392153867E-02  0.67285266917E-02 -0.22278588097E-01  0.23969713229E-01  0.00000000000E+00 0. -1.
     999901    1    3    3    0    0 -0.53918088898E-01 -0.12053640585E+00 -0.12806334667E-01  0.88994392388E+00  0.88000000000E+00 0. -1.
        -11    1    4    4    0    0  0.41014554934E-01  0.78091050504E-01  0.19207878436E-01  0.90275188176E-01  0.51100000000E-03 0. -1.
         11    1    4    4    0    0  0.71643185776E-02  0.35716828657E-01  0.15877044328E-01  0.39741174713E-01  0.51100000000E-03 0.  1.
</event>
<event>
 8    1  0.1122848E+005  0.1043930E+01  0.7957747E-01            NaN
         13   -1    0    0    0    0  0.00000000000E+00  0.00000000000E+00  0.74505805969E-08  0.10566000000E+00  0.10566000000E+00 0. -1.
     999900   -1    0    0    0    0 -0.00000000000E+00 -0.00000000000E+00 -0.74505805969E-08  0.93827000000E+00  0.93827000000E+00 0.  1.
     999902    2    1    2    0    0  0.17230750998E-01  0.98845086558E-02 -0.13654891447E-01  0.10198248480E+01  0.10195399268E+01 0.  0.
     999903    2    3    3    0    0  0.21657990901E-01 -0.97176493737E-01  0.78804211769E-01  0.12851662723E+00  0.19851452780E-01 0.  0.
         14    1    1    2    0    0 -0.17230750998E-01 -0.98845086558E-02  0.13654891447E-01  0.24105151976E-01  0.00000000000E+00 0. -1.
     999901    1    3    3    0    0 -0.44272399029E-02  0.10706100239E+00 -0.92459103216E-01  0.89130822079E+00  0.88000000000E+00 0.  1.
        -11    1    4    4    0    0  0.16670944260E-01 -0.62742666711E-01  0.39376040952E-01  0.75929548468E-01  0.51100000000E-03 0.  1.
         11    1    4    4    0    0  0.49870466408E-02 -0.34433827026E-01  0.39428170817E-01  0.52587078763E-01  0.51100000000E-03 0. -1.
</event>
<event>
 8    1  0.1122848E+005  0.1043930E+01  0.7957747E-01            NaN
         13   -1    0    0    0    0  0.00000000000E+00  0.00000000000E+00  0.74505805969E-08  0.10566000000E+00  0.10566000000E+00 0. -1.
     999900   -1    0    0    0    0 -0.00000000000E+00 -0.00000000000E+00 -0.74505805969E-08  0.93827000000E+00  0.93827000000E+00 0.  1.
     999902    2    1    2    0    0  0.14983649259E-01 -0.20020014126E-01  0.51240511158E-02  0.10184041972E+01  0.10180842510E+01 0.  0.
     999903    2    3    3    0    0 -0.33433123085E-01 -0.75065658895E-01  0.99170904148E-01  0.13036195863E+00  0.20167924124E-01 0.  0.
         14    1    1    2    0    0 -0.14983649259E-01  0.20020014126E-01 -0.51240511158E-02  0.25525802839E-01  0.00000000000E+00 0.  1.
     999901    1    3    3    0    0  0.48416772344E-01  0.55045644769E-01 -0.94046853032E-01  0.88804223853E+00  0.88000000000E+00 0.  1.
        -11    1    4    4    0    0 -0.17918986630E-01 -0.50994701063E-01  0.77300355581E-01  0.94324735421E-01  0.51100000000E-03 0. -1.
         11    1    4    4    0    0 -0.15514136454E-01 -0.24070957832E-01  0.21870548567E-01  0.36037223208E-01  0.51100000000E-03 0.  1.
</event>
<event>
 8    1  0.1122848E+005  0.1043930E+01  0.7957747E-01            NaN
         13   -1    0    0    0    0  0.00000000000E+00  0.00000000000E+00  0.74505805969E-08  0.10566000000E+00  0.10566000000E+00 0.  1.
     999900   -1    0    0    0    0 -0.00000000000E+00 -0.00000000000E+00 -0.74505805969E-08  0.93827000000E+00  0.93827000000E+00 0.  1.
     999902    2    1    2    0    0  0.31293009115E-03  0.50965976546E-02  0.25216790574E-01  0.10182014213E+01  0.10178763062E+01 0.  0.
     999903    2    3    3    0    0 -0.67942590969E-01 -0.74751198746E-02 -0.10411170953E+00  0.12604519894E+00  0.19392550859E-01 0.  0.
         14    1    1    2    0    0 -0.31293009115E-03 -0.50965976546E-02 -0.25216790574E-01  0.25728578658E-01  0.00000000000E+00 0. -1.
     999901    1    3    3    0    0  0.68255521060E-01  0.12571717529E-01  0.12932850011E+00  0.89215622241E+00  0.88000000000E+00 0. -1.
        -11    1    4    4    0    0 -0.49045319656E-01 -0.67531348664E-02 -0.58334069694E-01  0.76512567718E-01  0.51100000000E-03 0.  1.
         11    1    4    4    0    0 -0.18897271313E-01 -0.72198500821E-03 -0.45777639837E-01  0.49532631219E-01  0.51100000000E-03 0. -1.
</event>
<event>
 8    1  0.1122848E+005  0.1043930E+01  0.7957747E-01            NaN
         13   -1    0    0    0    0  0.00000000000E+00  0.00000000000E+00  0.74505805969E-08  0.10566000000E+00  0.10566000000E+00 0. -1.
     999900   -1    0    0    0    0 -0.00000000000E+00 -0.00000000000E+00 -0.74505805969E-08  0.93827000000E+00  0.93827000000E+00 0.  1.
     999902    2    1    2    0    0 -0.11573038285E-01 -0.10382885783E-01  0.14296432220E-01  0.10228082693E+01  0.10225901566E+01 0.  0.
     999903    2    3    3    0    0 -0.66879589272E-01 -0.63457905327E-02  0.11570285831E+00  0.13525073543E+00  0.19810640967E-01 0.  0.
         14    1    1    2    0    0  0.11573038285E-01  0.10382885783E-01 -0.14296432220E-01  0.21121730671E-01  0.00000000000E+00 0.  1.
     999901    1    3    3    0    0  0.55306550987E-01 -0.40370952499E-02 -0.10140642609E+00  0.88755753389E+00  0.88000000000E+00 0.  1.
        -11    1    4    4    0    0 -0.42113370523E-01 -0.11876709980E-01  0.62410776267E-01  0.76223082672E-01  0.51100000000E-03 0. -1.
         11    1    4    4    0    0 -0.24766218748E-01  0.55309194471E-02  0.53292082044E-01  0.59027652763E-01  0.51100000000E-03 0.  1.
</event>
<event>
 8    1  0.1122848E+005  0.1043930E+01  0.7957747E-01            NaN
         13   -1    0    0    0    0  0.00000000000E+00  0.00000000000E+00  0.74505805969E-08  0.10566000000E+00  0.10566000000E+00 0.  1.
     999900   -1    0    0    0    0 -0.00000000000E+00 -0.00000000000E+00 -0.74505805969E-08  0.93827000000E+00  0.93827000000E+00 0.  1.
     999902    2    1    2    0    0  0.16364749943E-01  0.16263897204E-01  0.43395063026E-02  0.10204534008E+01  0.10201833132E+01 0.  0.
     999903    2    3    3    0    0 -0.11325286159E+00  0.15740730083E-01 -0.56085948651E-01  0.12890854245E+00  0.19944859976E-01 0.  0.
         14    1    1    2    0    0 -0.16364749943E-01 -0.16263897204E-01 -0.43395063026E-02  0.23476599156E-01  0.00000000000E+00 0. -1.
     999901    1    3    3    0    0  0.12961761153E+00  0.52316712096E-03  0.60425454954E-01  0.89154485839E+00  0.88000000000E+00 0.  1.
        -11    1    4    4    0    0 -0.87848197483E-02  0.23859461980E-02 -0.11150831730E-01  0.14403748350E-01  0.51100000000E-03 0.  1.
         11    1    4    4    0    0 -0.10446804184E+00  0.13354783885E-01 -0.44935116921E-01  0.11450479410E+00  0.51100000000E-03 0. -1.
</event>
<event>
 8    1  0.1122848E+005  0.1043930E+01  0.7957747E-01            NaN
         13   -1    0    0    0    0  0.00000000000E+00  0.00000000000E+00  0.74505805969E-08  0.10566000000E+00  0.10566000000E+00 0. -1.
     999900   -1    0    0    0    0 -0.00000000000E+00 -0.00000000000E+00 -0.74505805969E-08  0.93827000000E+00  0.93827000000E+00 0. -1.
     999902    2    1    2    0    0  0.18148082622E-01  0.69378835480E-02  0.13432986410E-01  0.10203094104E+01  0.10200359605E+01 0.  0.
     999903    2    3    3    0    0  0.12185376345E+00 -0.35216135803E-01 -0.30032766852E-01  0.13215339857E+00  0.21772408662E-01 0.  0.
         14    1    1    2    0    0 -0.18148082622E-01 -0.69378835480E-02 -0.13432986410E-01  0.23620589638E-01  0.00000000000E+00 0.  1.
     999901    1    3    3    0    0 -0.10370568083E+00  0.42154019351E-01  0.43465753261E-01  0.88815601180E+00  0.88000000000E+00 0.  1.
        -11    1    4    4    0    0  0.89082001728E-01 -0.27565318539E-01 -0.12145001897E-01  0.94038353932E-01  0.51100000000E-03 0. -1.
         11    1    4    4    0    0  0.32771761725E-01 -0.76508172644E-02 -0.17887764954E-01  0.38115044634E-01  0.51100000000E-03 0.  1.
</event>
<event>
 8    1  0.1122848E+005  0.1043930E+01  0.7957747E-01            NaN
         13   -1    0    0    0    0  0.00000000000E+00  0.00000000000E+00  0.74505805969E-08  0.10566000000E+00  0.10566000000E+00 0. -1.
     999900   -1    0    0    0    0 -0.00000000000E+00 -0.00000000000E+00 -0.74505805969E-08  0.93827000000E+00  0.93827000000E+00 0.  1.
     999902    2    1    2    0    0 -0.19179961629E-01  0.11242745820E-01 -0.79718776342E-02  0.10203117635E+01  0.10200383687E+01 0.  0.
     999903    2    3    3    0    0 -0.75364526862E-01  0.10118334773E+00  0.38523444734E-01  0.13272636917E+00  0.14640748350E-01 0.  0.
         14    1    1    2    0    0  0.19179961629E-01 -0.11242745820E-01  0.79718776342E-02  0.23618236486E-01  0.00000000000E+00 0. -1.
     999901    1    3    3    0    0  0.56184565233E-01 -0.89940601914E-01 -0.46495322369E-01  0.88758539434E+00  0.88000000000E+00 0.  1.
        -11    1    4    4    0    0 -0.22749154873E-01  0.22217391745E-01  0.13800923889E-01  0.34667898185E-01  0.51100000000E-03 0.  1.
         11    1    4    4    0    0 -0.52615371990E-01  0.78965955989E-01  0.24722520845E-01  0.98058470990E-01  0.51100000000E-03 0. -1.
</event>
<event>
 8    1  0.1122848E+005  0.1043930E+01  0.7957747E-01            NaN
         13   -1    0    0    0    0  0.00000000000E+00  0.00000000000E+00  0.74505805969E-08  0.10566000000E+00  0.10566000000E+00 0. -1.
     999900   -1    0    0    0    0 -0.00000000000E+00 -0.00000000000E+00 -0.74505805969E-08  0.93827000000E+00  0.93827000000E+00 0.  1.
     999902    2    1    2    0    0  0.86838740177E-02 -0.21223212042E-01 -0.70758987756E-02  0.10199320263E+01  0.10196496632E+01 0.  0.
     999903    2    3    3    0    0 -0.70279763687E-03 -0.58876299248E-01  0.11486863925E+00  0.13067596930E+00  0.20359079859E-01 0.  0.
         14    1    1    2    0    0 -0.86838740177E-02  0.21223212042E-01  0.70758987756E-02  0.23997973682E-01  0.00000000000E+00 0. -1.
     999901    1    3    3    0    0  0.93866716546E-02  0.37653087206E-01 -0.12194453803E+00  0.88925605701E+00  0.88000000000E+00 0.  1.
        -11    1    4    4    0    0  0.52596471673E-02 -0.23763374165E-01  0.29991768815E-01  0.38628087679E-01  0.51100000000E-03 0.  1.
         11    1    4    4    0    0 -0.59624448041E-02 -0.35112925083E-01  0.84876870435E-01  0.92047881626E-01  0.51100000000E-03 0. -1.
</event>
<event>
 8    1  0.1122848E+005  0.1043930E+01  0.7957747E-01            NaN
         13   -1    0    0    0    0  0.00000000000E+00  0.00000000000E+00  0.74505805969E-08  0.10566000000E+00  0.10566000000E+00 0. -1.
     999900   -1    0    0    0    0 -0.00000000000E+00 -0.00000000000E+00 -0.74505805969E-08  0.93827000000E+00  0.93827000000E+00 0.  1.
     999902    2    1    2    0    0  0.22764264228E-01 -0.44285374962E-02  0.15210947188E-02  0.10206891437E+01  0.10204245150E+01 0.  0.
     999903    2    3    3    0    0 -0.71087591501E-01 -0.85801096271E-01  0.63513925255E-01  0.12980600035E+00  0.20007629538E-01 0.  0.
         14    1    1    2    0    0 -0.22764264228E-01  0.44285374962E-02 -0.15210947188E-02  0.23240856253E-01  0.00000000000E+00 0.  1.
     999901    1    3    3    0    0  0.93851855730E-01  0.81372558775E-01 -0.61992830536E-01  0.89088314339E+00  0.88000000000E+00 0.  1.
        -11    1    4    4    0    0 -0.32601275032E-01 -0.54788190875E-01  0.34552660130E-01  0.72517145808E-01  0.51100000000E-03 0. -1.
         11    1    4    4    0    0 -0.38486316470E-01 -0.31012905395E-01  0.28961265125E-01  0.57288854546E-01  0.51100000000E-03 0.  1.
</event>
<event>
 8    1  0.1122848E+005  0.1043930E+01  0.7957747E-01            NaN
         13   -1    0    0    0    0  0.00000000000E+00  0.00000000000E+00  0.74505805969E-08  0.10566000000E+00  0.10566000000E+00 0.  1.
     999900   -1    0    0    0    0 -0.00000000000E+00 -0.00000000000E+00 -0.74505805969E-08  0.93827000000E+00  0.93827000000E+00 0.  1.
     999902    2    1    2    0    0 -0.20051857676E-01 -0.36708339923E-02 -0.12344093907E-01  0.10200987459E+01  0.10198203384E+01 0.  0.
     999903    2    3    3    0    0 -0.12398556543E+00  0.42914860666E-01 -0.23188571178E-02  0.13270202066E+00  0.19757112399E-01 0.  0.
         14    1    1    2    0    0  0.20051857676E-01  0.36708339923E-02  0.12344093907E-01  0.23831254118E-01  0.00000000000E+00 0.  1.
     999901    1    3    3    0    0  0.10393370775E+00 -0.46585694658E-01 -0.10025236790E-01  0.88739672522E+00  0.88000000000E+00 0.  1.
        -11    1    4    4    0    0 -0.93143268696E-01  0.23139156269E-01 -0.35301159930E-02  0.96040678340E-01  0.51100000000E-03 0. -1.
         11    1    4    4    0    0 -0.30842296730E-01  0.19775704397E-01  0.12112588753E-02  0.36661342324E-01  0.51100000000E-03 0.  1.
</event>
<event>
 8    1  0.1122848E+005  0.1043930E+01  0.7957747E-01            NaN
         13   -1    0    0    0    0  0.00000000000E+00  0.00000000000E+00  0.74505805969E-08  0.10566000000E+00  0.10566000000E+00 0.  1.
     999900   -1    0    0    0    0 -0.00000000000E+00 -0.00000000000E+00 -0.74505805969E-08  0.93827000000E+00  0.93827000000E+00 0.  1.
     999902    2    1    2    0    0 -0.92347523185E-03 -0.18226772640E-01  0.14275247035E-01  0.10207599606E+01  0.10204969605E+01 0.  0.
     999903    2    3    3    0    0 -0.12173467250E+00  0.12490776497E-01 -0.39962681378E-01  0.13032149217E+00  0.20281159535E-01 0.  0.
         14    1    1    2    0    0  0.92347523185E-03  0.18226772640E-01 -0.14275247035E-01  0.23170039389E-01  0.00000000000E+00 0. -1.
     999901    1    3    3    0    0  0.12081119726E+00 -0.30717549137E-01  0.54237928413E-01  0.89043846845E+00  0.88000000000E+00 0.  1.
        -11    1    4    4    0    0 -0.58002226940E-01  0.55381406980E-02 -0.29672211140E-01  0.65388306044E-01  0.51100000000E-03 0. -1.
         11    1    4    4    0    0 -0.63732445556E-01  0.69526357994E-02 -0.10290470237E-01  0.64933186121E-01  0.51100000000E-03 0.  1.
</event>
<event>
 8    1  0.1122848E+005  0.1043930E+01  0.7957747E-01            NaN
         13   -1    0    0    0    0  0.00000000000E+00  0.00000000000E+00  0.74505805969E-08  0.10566000000E+00  0.10566000000E+00 0.  1.
     999900   -1    0    0    0    0 -0.00000000000E+00 -0.00000000000E+00 -0.74505805969E-08  0.93827000000E+00  0.93827000000E+00 0. -1.
     999902    2    1    2    0    0 -0.11626199068E-01  0.50349818712E-02  0.21638704240E-01  0.10188550510E+01  0.10185464456E+01 0.  0.
     999903    2    3    3    0    0  0.95639150988E-01 -0.10854898756E-01  0.85120857875E-01  0.12992967309E+00  0.19273906577E-01 0.  0.
         14    1    1    2    0    0  0.11626199068E-01 -0.50349818712E-02 -0.21638704240E-01  0.25074949021E-01  0.00000000000E+00 0. -1.
     999901    1    3    3    0    0 -0.10726535006E+00  0.15889880627E-01 -0.63482153634E-01  0.88892537789E+00  0.88000000000E+00 0. -1.
        -11    1    4    4    0    0  0.81674944372E-01 -0.23814467701E-02  0.73171629514E-01  0.10968507790E+00  0.51100000000E-03 0. -1.
         11    1    4    4    0    0  0.13964206616E-01 -0.84734519857E-02  0.11949228360E-01  0.20244595189E-01  0.51100000000E-03 0.  1.
</event>
<event>
 8    1  0.1122848E+005  0.1043930E+01  0.7957747E-01            NaN
         13   -1    0    0    0    0  0.00000000000E+00  0.00000000000E+00  0.74505805969E-08  0.10566000000E+00  0.10566000000E+00 0.  1.
     999900   -1    0    0    0    0 -0.00000000000E+00 -0.00000000000E+00 -0.74505805969E-08  0.93827000000E+00  0.93827000000E+00 0.  1.
     999902    2    1    2    0    0  0.52209559122E-02  0.12105566969E-01  0.19452573519E-01  0.10204309415E+01  0.10201603309E+01 0.  0.
     999903    2    3    3    0    0  0.90563156065E-01 -0.14831911484E-01  0.93720902994E-01  0.13277971293E+00  0.20619739908E-01 0.  0.
         14    1    1    2    0    0 -0.52209559122E-02 -0.12105566969E-01 -0.19452573519E-01  0.23499058466E-01  0.00000000000E+00 0. -1.
     999901    1    3    3    0    0 -0.85342200153E-01  0.26937478452E-01 -0.74268329475E-01  0.88765122860E+00  0.88000000000E+00 0.  1.
        -11    1    4    4    0    0  0.51400266824E-01  0.94297240144E-03  0.45161659857E-01  0.68430353415E-01  0.51100000000E-03 0. -1.
         11    1    4    4    0    0  0.39162889241E-01 -0.15774883885E-01  0.48559243138E-01  0.64349359518E-01  0.51100000000E-03 0.  1.
</event>
<event>
 8    1  0.1122848E+005  0.1043930E+01  0.7957747E-01            NaN
         13   -1    0    0    0    0  0.00000000000E+00  0.00000000000E+00  0.74505805969E-08  0.10566000000E+00  0.10566000000E+00 0.  1.
     999900   -1    0    0    0    0 -0.00000000000E+00 -0.00000000000E+00 -0.74505805969E-08  0.93827000000E+00  0.93827000000E+00 0. -1.
     999902    2    1    2    0    0  0.13044192333E-01  0.90366685820E-02 -0.17248066434E-01  0.10204926766E+01  0.10202235024E+01 0.  0.
     999903    2    3    3    0    0  0.85115731517E-01 -0.10014950171E-01  0.95717589363E-01  0.13014526669E+00  0.20759252138E-01 0.  0.
         14    1    1    2    0    0 -0.13044192333E-01 -0.90366685820E-02  0.17248066434E-01  0.23437323405E-01  0.00000000000E+00 0.  1.
     999901    1    3    3    0    0 -0.72071539185E-01  0.19051618753E-01 -0.11296565580E+00  0.89034740991E+00  0.88000000000E+00 0. -1.
        -11    1    4    4    0    0  0.48520389064E-01 -0.19741881086E-02  0.39575850601E-01  0.62646904516E-01  0.51100000000E-03 0. -1.
         11    1    4    4    0    0  0.36595342454E-01 -0.80407620623E-02  0.56141738761E-01  0.67498362173E-01  0.51100000000E-03 0.  1.
</event>
<event>
 8    1  0.1122848E+005  0.1043930E+01  0.7957747E-01            NaN
         13   -1    0    0    0    0  0.00000000000E+00  0.00000000000E+00  0.74505805969E-08  0.10566000000E+00  0.10566000000E+00 0.  1.
     999900   -1    0    0    0    0 -0.00000000000E+00 -0.00000000000E+00 -0.74505805969E-08  0.93827000000E+00  0.93827000000E+00 0. -1.
     999902    2    1    2    0    0 -0.20382785944E-02  0.19340352338E-02 -0.23058483549E-01  0.10207009506E+01  0.10204365937E+01 0.  0.
     999903    2    3    3    0    0 -0.16187255967E-01  0.11812141482E+00  0.45911046856E-01  0.13027605380E+00  0.25481955877E-01 0.  0.
         14    1    1    2    0    0  0.20382785944E-02 -0.19340352338E-02  0.23058483549E-01  0.23229049389E-01  0.00000000000E+00 0.  1.
     999901    1    3    3    0    0  0.14148977373E-01 -0.11618737959E+00 -0.68969530406E-01  0.89042489681E+00  0.88000000000E+00 0.  1.
        -11    1    4    4    0    0 -0.80603391392E-02  0.93838987579E-02  0.12552460709E-02  0.12444411864E-01  0.51100000000E-03 0.  1.
         11    1    4    4    0    0 -0.81269168278E-02  0.10873751606E+00  0.44655800785E-01  0.11783164194E+00  0.51100000000E-03 0. -1.
</event>
<event>
 8    1  0.1122848E+005  0.1043930E+01  0.7957747E-01            NaN
         13   -1    0    0    0    0  0.00000000000E+00  0.00000000000E+00  0.74505805969E-08  0.10566000000E+00  0.10566000000E+00 0.  1.
     999900   -1    0    0    0    0 -0.00000000000E+00 -0.00000000000E+00 -0.74505805969E-08  0.93827000000E+00  0.93827000000E+00 0.  1.
     999902    2    1    2    0    0  0.66925749155E-02  0.23933576765E-01 -0.23552984911E-04  0.10190782956E+01  0.10187752281E+01 0.  0.
     999903    2    3    3    0    0  0.37849724206E-01 -0.36669120959E-01  0.11628062420E+00  0.12881422437E+00  0.17166676546E-01 0.  0.
         14    1    1    2    0    0 -0.66925749155E-02 -0.23933576765E-01  0.23552984911E-04  0.24851704379E-01  0.00000000000E+00 0.  1.
     999901    1    3    3    0    0 -0.31157149291E-01  0.60602697724E-01 -0.11630417718E+00  0.89026407125E+00  0.88000000000E+00 0.  1.
        -11    1    4    4    0    0  0.17010516508E-01 -0.20697045943E-01  0.77303419012E-01  0.81815677560E-01  0.51100000000E-03 0. -1.
         11    1    4    4    0    0  0.20839207698E-01 -0.15972075016E-01  0.38977205183E-01  0.46998546814E-01  0.51100000000E-03 0.  1.
</event>
<event>
 8    1  0.1251114E+005  0.1043930E+01  0.7957747E-01            NaN
         13   -1    0    0    0    0  0.00000000000E+00  0.00000000000E+00  0.74505805969E-08  0.10566000000E+00  0.10566000000E+00 0. -1.
     999900   -1    0    0    0    0 -0.00000000000E+00 -0.00000000000E+00 -0.74505805969E-08  0.93827000000E+00  0.93827000000E+00 0.  1.
     999902    2    1    2    0    0  0.23701301820E-01 -0.54000739269E-02  0.28511217713E-02  0.10194546777E+01  0.10191608305E+01 0.  0.
     999903    2    3    3    0    0  0.10383193754E+00  0.12640552229E-01 -0.78104152455E-01  0.13192995162E+00  0.19089229696E-01 0.  0.
         14    1    1    2    0    0 -0.23701301820E-01  0.54000739269E-02 -0.28511217713E-02  0.24475322301E-01  0.00000000000E+00 0.  1.
     999901    1    3    3    0    0 -0.80130635720E-01 -0.18040626156E-01  0.80955274227E-01  0.88752472608E+00  0.88000000000E+00 0. -1.
        -11    1    4    4    0    0  0.55657649524E-01  0.36596863451E-02 -0.30343494697E-01  0.63499260201E-01  0.51100000000E-03 0. -1.
         11    1    4    4    0    0  0.48174288016E-01  0.89808658841E-02 -0.47760657759E-01  0.68430691421E-01  0.51100000000E-03 0.  1.
</event>
<event>
 8    1  0.1122848E+005  0.1043930E+01  0.7957747E-01            NaN
         13   -1    0    0    0    0  0.00000000000E+00  0.00000000000E+00  0.74505805969E-08  0.10566000000E+00  0.10566000000E+00 0. -1.
     999900   -1    0    0    0    0 -0.00000000000E+00 -0.00000000000E+00 -0.74505805969E-08  0.93827000000E+00  0.93827000000E+00 0.  1.
     999902    2    1    2    0    0  0.18828362348E-01  0.14593695115E-01 -0.12645290338E-03  0.10201077592E+01  0.10198295648E+01 0.  0.
     999903    2    3    3    0    0  0.69368874702E-01 -0.51509577001E-01  0.95940354362E-01  0.13097738776E+00  0.22028327445E-01 0.  0.
         14    1    1    2    0    0 -0.18828362348E-01 -0.14593695115E-01  0.12645290338E-03  0.23822240788E-01  0.00000000000E+00 0. -1.
     999901    1    3    3    0    0 -0.50540512354E-01  0.66103272116E-01 -0.96066807266E-01  0.88913037145E+00  0.88000000000E+00 0.  1.
        -11    1    4    4    0    0  0.38660424293E-01 -0.39582045963E-01  0.50977596992E-01  0.75235252942E-01  0.51100000000E-03 0.  1.
         11    1    4    4    0    0  0.30708450409E-01 -0.11927531038E-01  0.44962757370E-01  0.55742134822E-01  0.51100000000E-03 0. -1.
</event>
<event>
 8    1  0.1122848E+005  0.1043930E+01  0.7957747E-01            NaN
         13   -1    0    0    0    0  0.00000000000E+00  0.00000000000E+00  0.74505805969E-08  0.10566000000E+00  0.10566000000E+00 0.  1.
     999900   -1    0    0    0    0 -0.00000000000E+00 -0.00000000000E+00 -0.74505805969E-08  0.93827000000E+00  0.93827000000E+00 0.  1.
     999902    2    1    2    0    0  0.10871561273E-01 -0.19627297729E-01  0.92602251945E-02  0.10196571050E+01  0.10193681564E+01 0.  0.
     999903    2    3    3    0    0 -0.58440549648E-01 -0.10159984091E+00  0.59125314905E-01  0.13173244957E+00  0.10945770547E-01 0.  0.
         14    1    1    2    0    0 -0.10871561273E-01  0.19627297729E-01 -0.92602251945E-02  0.24272894993E-01  0.00000000000E+00 0. -1.
     999901    1    3    3    0    0  0.69312110922E-01  0.81972543176E-01 -0.49865089710E-01  0.88792465543E+00  0.88000000000E+00 0.  1.
        -11    1    4    4    0    0 -0.42100256696E-01 -0.76591356746E-01  0.48916033898E-01  0.10015840971E+00  0.51100000000E-03 0.  1.
         11    1    4    4    0    0 -0.16340292952E-01 -0.25008484159E-01  0.10209281007E-01  0.31574039865E-01  0.51100000000E-03 0. -1.
</event>
<event>
 8    1  0.1122848E+005  0.1043930E+01  0.7957747E-01            NaN
         13   -1    0    0    0    0  0.00000000000E+00  0.00000000000E+00  0.74505805969E-08  0.10566000000E+00  0.10566000000E+00 0.  1.
     999900   -1    0    0    0    0 -0.00000000000E+00 -0.00000000000E+00 -0.74505805969E-08  0.93827000000E+00  0.93827000000E+00 0. -1.
     999902    2    1    2    0    0 -0.13172111939E-01  0.44383997827E-02 -0.19315771505E-01  0.10201328793E+01  0.10198552782E+01 0.  0.
     999903    2    3    3    0    0 -0.51958192145E-01 -0.11767692113E+00  0.89367746379E-02  0.13040555140E+00  0.19448146352E-01 0.  0.
         14    1    1    2    0    0  0.13172111939E-01 -0.44383997827E-02  0.19315771505E-01  0.23797120717E-01  0.00000000000E+00 0.  1.
     999901    1    3    3    0    0  0.38786080207E-01  0.12211532092E+00 -0.28252546143E-01  0.88972732788E+00  0.88000000000E+00 0. -1.
        -11    1    4    4    0    0 -0.18518507252E-01 -0.43992595880E-01 -0.60325612963E-02  0.48113787212E-01  0.51100000000E-03 0.  1.
         11    1    4    4    0    0 -0.33439684893E-01 -0.73684325253E-01  0.14969335934E-01  0.82291764187E-01  0.51100000000E-03 0. -1.
</event>
<event>
 8    1  0.1122848E+005  0.1043930E+01  0.7957747E-01            NaN
         13   -1    0    0    0    0  0.00000000000E+00  0.00000000000E+00  0.74505805969E-08  0.10566000000E+00  0.10566000000E+00 0. -1.
     999900   -1    0    0    0    0 -0.00000000000E+00 -0.00000000000E+00 -0.74505805969E-08  0.93827000000E+00  0.93827000000E+00 0. -1.
     999902    2    1    2    0    0 -0.52816489458E-02  0.16013149415E-01  0.15452061954E-01  0.10210589924E+01  0.10208028130E+01 0.  0.
     999903    2    3    3    0    0 -0.65278148871E-01  0.28239068183E-01  0.11140188371E+00  0.13372848950E+00  0.20353071443E-01 0.  0.
         14    1    1    2    0    0  0.52816489458E-02 -0.16013149415E-01 -0.15452061954E-01  0.22871007595E-01  0.00000000000E+00 0.  1.
     999901    1    3    3    0    0  0.59996499925E-01 -0.12225918768E-01 -0.95949821758E-01  0.88733050291E+00  0.88000000000E+00 0. -1.
        -11    1    4    4    0    0 -0.62250991852E-01  0.21942124548E-01  0.10604444624E+00  0.12490928114E+00  0.51100000000E-03 0. -1.
         11    1    4    4    0    0 -0.30271570190E-02  0.62969436352E-02  0.53574374723E-02  0.88192083563E-02  0.51100000000E-03 0.  1.
</event>
<event>
 8    1  0.1122848E+005  0.1043930E+01  0.7957747E-01            NaN
         13   -1    0    0    0    0  0.00000000000E+00  0.00000000000E+00  0.74505805969E-08  0.10566000000E+00  0.10566000000E+00 0.  1.
     999900   -1    0    0    0    0 -0.00000000000E+00 -0.00000000000E+00 -0.74505805969E-08  0.93827000000E+00  0.93827000000E+00 0. -1.
     999902    2    1    2    0    0  0.99046450803E-02 -0.20205388307E-02 -0.19532670728E-01  0.10219365965E+01  0.10216999058E+01 0.  0.
     999903    2    3    3    0    0  0.57184814593E-01  0.11635636189E+00  0.14912025492E-01  0.13208551787E+00  0.20379145077E-01 0.  0.
         14    1    1    2    0    0 -0.99046450803E-02  0.20205388307E-02  0.19532670728E-01  0.21993403491E-01  0.00000000000E+00 0.  1.
     999901    1    3    3    0    0 -0.47280169512E-01 -0.11837690072E+00 -0.34444696220E-01  0.88985107864E+00  0.88000000000E+00 0.  1.
        -11    1    4    4    0    0  0.41615587885E-01  0.63202950070E-01  0.52208821986E-02  0.75855051147E-01  0.51100000000E-03 0. -1.
         11    1    4    4    0    0  0.15569226708E-01  0.53153411824E-01  0.96911432933E-02  0.56230466725E-01  0.51100000000E-03 0.  1.
</event>
<event>
 8    1  0.1122848E+005  0.1043930E+01  0.7957747E-01            NaN
         13   -1    0    0    0    0  0.00000000000E+00  0.00000000000E+00  0.74505805969E-08  0.10566000000E+00  0.10566000000E+00 0. -1.
     999900   -1    0    0    0    0 -0.00000000000E+00 -0.00000000000E+00 -0.74505805969E-08  0.93827000000E+00  0.93827000000E+00 0.  1.
     999902    2    1    2    0    0  0.12157766557E-03  0.14618253987E-01  0.16416372752E-01  0.10219480659E+01  0.10217116247E+01 0.  0.
     999903    2    3    3    0    0  0.11735185230E+00  0.53765237782E-01  0.25727527088E-01  0.13326245155E+00  0.20852273507E-01 0.  0.
         14    1    1    2    0    0 -0.12157766557E-03 -0.14618253987E-01 -0.16416372752E-01  0.21981934062E-01  0.00000000000E+00 0.  1.
     999901    1    3    3    0    0 -0.11723027463E+00 -0.39146983794E-01 -0.93111543354E-02  0.88868561439E+00  0.88000000000E+00 0. -1.
        -11    1    4    4    0    0  0.28648212321E-01  0.22458372852E-01  0.11130724149E-01  0.38069052017E-01  0.51100000000E-03 0.  1.
         11    1    4    4    0    0  0.88703639978E-01  0.31306864930E-01  0.14596802939E-01  0.95193399530E-01  0.51100000000E-03 0. -1.
</event>
<event>
 8    1  0.1122848E+005  0.1043930E+01  0.7957747E-01            NaN
         13   -1    0    0    0    0  0.00000000000E+00  0.00000000000E+00  0.74505805969E-08  0.10566000000E+00  0.10566000000E+00 0.  1.
     999900   -1    0    0    0    0 -0.00000000000E+00 -0.00000000000E+00 -0.74505805969E-08  0.93827000000E+00  0.93827000000E+00 0.  1.
     999902    2    1    2    0    0 -0.12166016240E-01 -0.21708708124E-01 -0.31244576522E-03  0.10190427024E+01  0.10187387554E+01 0.  0.
     999903    2    3    3    0    0  0.67723861487E-01  0.50305203753E-01 -0.93635674304E-01  0.12759577686E+00  0.19897432765E-01 0.  0.
         14    1    1    2    0    0  0.12166016240E-01  0.21708708124E-01  0.31244576522E-03  0.24887297602E-01  0.00000000000E+00 0.  1.
     999901    1    3    3    0    0 -0.79889877727E-01 -0.72013911877E-01  0.93323228539E-01  0.89144692554E+00  0.88000000000E+00 0. -1.
        -11    1    4    4    0    0  0.30124001662E-01  0.30481120422E-01 -0.35950310914E-01  0.55939611673E-01  0.51100000000E-03 0. -1.
         11    1    4    4    0    0  0.37599859825E-01  0.19824083331E-01 -0.57685363390E-01  0.71656165186E-01  0.51100000000E-03 0.  1.
</event>
<event>
 8    1  0.1122848E+005  0.1043930E+01  0.7957747E-01            NaN
         13   -1    0    0    0    0  0.00000000000E+00  0.00000000000E+00  0.74505805969E-08  0.10566000000E+00  0.10566000000E+00 0.  1.
     999900   -1    0    0    0    0 -0.00000000000E+00 -0.00000000000E+00 -0.74505805969E-08  0.93827000000E+00  0.93827000000E+00 0.  1.
     999902    2    1    2    0    0 -0.61536885282E-02  0.15238765961E-01 -0.14125986780E-01  0.10222590200E+01  0.10220292915E+01 0.  0.
     999903    2    3    3    0    0 -0.13234592728E-02  0.82639543068E-01 -0.10496264178E+00  0.13500624107E+00  0.19454648195E-01 0.  0.
         14    1    1    2    0    0  0.61536885282E-02 -0.15238765961E-01  0.14125986780E-01  0.21670979973E-01  0.00000000000E+00 0.  1.
     999901    1    3    3    0    0 -0.48302292555E-02 -0.67400777108E-01  0.90836654999E-01  0.88725277895E+00  0.88000000000E+00 0.  1.
        -11    1    4    4    0    0 -0.96983436035E-02  0.32374722701E-01 -0.45803139961E-01  0.56924241672E-01  0.51100000000E-03 0. -1.
         11    1    4    4    0    0  0.83748843307E-02  0.50264820367E-01 -0.59159501818E-01  0.78081999401E-01  0.51100000000E-03 0.  1.
</event>
<event>
 8    1  0.1122848E+005  0.1043930E+01  0.7957747E-01            NaN
         13   -1    0    0    0    0  0.00000000000E+00  0.00000000000E+00  0.74505805969E-08  0.10566000000E+00  0.10566000000E+00 0.  1.
     999900   -1    0    0    0    0 -0.00000000000E+00 -0.00000000000E+00 -0.74505805969E-08  0.93827000000E+00  0.93827000000E+00 0.  1.
     999902    2    1    2    0    0 -0.44861996516E-02 -0.78525957956E-02  0.22081874039E-01  0.10200679295E+01  0.10197887930E+01 0.  0.
     999903    2    3    3    0    0  0.12348528208E+00 -0.18505647734E-01  0.33734119241E-01  0.13067152604E+00  0.18600619008E-01 0.  0.
         14    1    1    2    0    0  0.44861996516E-02  0.78525957956E-02 -0.22081874039E-01  0.23862070512E-01  0.00000000000E+00 0. -1.
     999901    1    3    3    0    0 -0.12797148173E+00  0.10653051939E-01 -0.11652245203E-01  0.88939640345E+00  0.88000000000E+00 0.  1.
        -11    1    4    4    0    0  0.49638747425E-01 -0.14115424172E-01  0.73562744872E-02  0.52130857856E-01  0.51100000000E-03 0. -1.
         11    1    4    4    0    0  0.73846534656E-01 -0.43902235620E-02  0.26377844754E-01  0.78540668182E-01  0.51100000000E-03 0.  1.
</event>
<event>
 8    1  0.1122848E+005  0.1043930E+01  0.7957747E-01            NaN
         13   -1    0    0    0    0  0.00000000000E+00  0.00000000000E+00  0.74505805969E-08  0.10566000000E+00  0.10566000000E+00 0.  1.
     999900   -1    0    0    0    0 -0.00000000000E+00 -0.00000000000E+00 -0.74505805969E-08  0.93827000000E+00  0.93827000000E+00 0. -1.
     999902    2    1    2    0    0  0.16807880849E-01 -0.15121166956E-01  0.50770469219E-02  0.10207582294E+01  0.10204951895E+01 0.  0.
     999903    2    3    3    0    0 -0.12104134138E+00  0.34916054925E-01  0.93672306674E-02  0.12861220022E+00  0.24149861710E-01 0.  0.
         14    1    1    2    0    0 -0.16807880849E-01  0.15121166956E-01 -0.50770469219E-02  0.23171770631E-01  0.00000000000E+00 0. -1.
     999901    1    3    3    0    0  0.13784922223E+00 -0.50037221880E-01 -0.42901837455E-02  0.89214602915E+00  0.88000000000E+00 0. -1.
        -11    1    4    4    0    0 -0.28791921386E-01  0.52036823727E-02 -0.75688803837E-02  0.30225851826E-01  0.51100000000E-03 0.  1.
         11    1    4    4    0    0 -0.92249419997E-01  0.29712372552E-01  0.16936111051E-01  0.98386348398E-01  0.51100000000E-03 0. -1.
</event>
<event>
 8    1  0.1122848E+005  0.1043930E+01  0.7957747E-01            NaN
         13   -1    0    0    0    0  0.00000000000E+00  0.00000000000E+00  0.74505805969E-08  0.10566000000E+00  0.10566000000E+00 0.  1.
     999900   -1    0    0    0    0 -0.00000000000E+00 -0.00000000000E+00 -0.74505805969E-08  0.93827000000E+00  0.93827000000E+00 0. -1.
     999902    2    1    2    0    0  0.87140373193E-02 -0.24557578078E-01  0.19768979067E-01  0.10112218723E+01  0.10106927591E+01 0.  0.
     999903    2    3    3    0    0  0.58410168439E-01 -0.37928155093E-01  0.10359103743E+00  0.12574199374E+00  0.15154313847E-01 0.  0.
         14    1    1    2    0    0 -0.87140373193E-02  0.24557578078E-01 -0.19768979067E-01  0.32708127749E-01  0.00000000000E+00 0. -1.
     999901    1    3    3    0    0 -0.49696131119E-01  0.13370577015E-01 -0.83822058364E-01  0.88547987851E+00  0.88000000000E+00 0. -1.
        -11    1    4    4    0    0  0.21864183351E-01 -0.21118251544E-01  0.36379879475E-01  0.47410756306E-01  0.51100000000E-03 0.  1.
         11    1    4    4    0    0  0.36545985088E-01 -0.16809903549E-01  0.67211157956E-01  0.78331237435E-01  0.51100000000E-03 0. -1.
</event>
<event>
 8    1  0.1122848E+005  0.1043930E+01  0.7957747E-01            NaN
         13   -1    0    0    0    0  0.00000000000E+00  0.00000000000E+00  0.74505805969E-08  0.10566000000E+00  0.10566000000E+00 0.  1.
     999900   -1    0    0    0    0 -0.00000000000E+00 -0.00000000000E+00 -0.74505805969E-08  0.93827000000E+00  0.93827000000E+00 0.  1.
     999902    2    1    2    0    0 -0.85198944296E-02  0.70932134413E-02 -0.21497991819E-01  0.10197418639E+01  0.10194549539E+01 0.  0.
     999903    2    3    3    0    0  0.11336355500E+00 -0.29643534063E-01  0.47108241845E-01  0.12793920678E+00  0.20474849632E-01 0.  0.
         14    1    1    2    0    0  0.85198944296E-02 -0.70932134413E-02  0.21497991819E-01  0.24188136147E-01  0.00000000000E+00 0.  1.
     999901    1    3    3    0    0 -0.12188344943E+00  0.36736747504E-01 -0.68606233663E-01  0.89180265707E+00  0.88000000000E+00 0.  1.
        -11    1    4    4    0    0  0.52048319986E-01 -0.69958272177E-02  0.29526290256E-01  0.60249748125E-01  0.51100000000E-03 0.  1.
         11    1    4    4    0    0  0.61315235017E-01 -0.22647706845E-01  0.17581951589E-01  0.67689458657E-01  0.51100000000E-03 0. -1.
</event>
<event>
 8    1  0.1122848E+005  0.1043930E+01  0.7957747E-01            NaN
         13   -1    0    0    0    0  0.00000000000E+00  0.00000000000E+00  0.74505805969E-08  0.10566000000E+00  0.10566000000E+00 0.  1.
     999900   -1    0    0    0    0 -0.00000000000E+00 -0.00000000000E+00 -0.74505805969E-08  0.93827000000E+00  0.93827000000E+00 0.  1.
     999902    2    1    2    0    0 -0.20181406345E-01  0.37252578558E-02  0.96507047868E-02  0.10212517547E+01  0.10209999234E+01 0.  0.
     999903    2    3    3    0    0  0.34761533778E-01  0.93899836845E-01 -0.80460133756E-01  0.13037008768E+00  0.22293116592E-01 0.  0.
         14    1    1    2    0    0  0.20181406345E-01 -0.37252578558E-02 -0.96507047868E-02  0.22678245325E-01  0.00000000000E+00 0. -1.
     999901    1    3    3    0    0 -0.54942940123E-01 -0.90174578989E-01  0.90110838543E-01  0.89088166700E+00  0.88000000000E+00 0. -1.
        -11    1    4    4    0    0  0.31288427264E-01  0.86300105083E-01 -0.64007633061E-01  0.11191028563E+00  0.51100000000E-03 0. -1.
         11    1    4    4    0    0  0.34731065147E-02  0.75997317622E-02 -0.16452500695E-01  0.18459802053E-01  0.51100000000E-03 0.  1.
</event>
<event>
 8    1  0.1122848E+005  0.1043930E+01  0.7957747E-01            NaN
         13   -1    0    0    0    0  0.00000000000E+00  0.00000000000E+00  0.74505805969E-08  0.10566000000E+00  0.10566000000E+00 0.  1.
     999900   -1    0    0    0    0 -0.00000000000E+00 -0.00000000000E+00 -0.74505805969E-08  0.93827000000E+00  0.93827000000E+00 0.  1.
     999902    2    1    2    0    0 -0.21377360568E-01  0.34059248165E-03 -0.11996693239E-01  0.10194141236E+01  0.10191192900E+01 0.  0.
     999903    2    3    3    0    0  0.72686794796E-01 -0.65444546738E-01 -0.83741411058E-01  0.12906416182E+00  0.88642599658E-02 0.  0.
         14    1    1    2    0    0  0.21377360568E-01 -0.34059248165E-03  0.11996693239E-01  0.24515876423E-01  0.00000000000E+00 0.  1.
     999901    1    3    3    0    0 -0.94064155365E-01  0.65785139220E-01  0.71744717818E-01  0.89034996176E+00  0.88000000000E+00 0. -1.
        -11    1    4    4    0    0  0.54570097668E-01 -0.44807515644E-01 -0.57232944089E-01  0.90892684127E-01  0.51100000000E-03 0. -1.
         11    1    4    4    0    0  0.18116697128E-01 -0.20637031094E-01 -0.26508466969E-01  0.38171477693E-01  0.51100000000E-03 0.  1.
</event>
<event>
 8    1  0.1122848E+005  0.1043930E+01  0.7957747E-01            NaN
         13   -1    0    0    0    0  0.00000000000E+00  0.00000000000E+00  0.74505805969E-08  0.10566000000E+00  0.10566000000E+00 0. -1.
     999900   -1    0    0    0    0 -0.00000000000E+00 -0.00000000000E+00 -0.74505805969E-08  0.93827000000E+00  0.93827000000E+00 0.  1.
     999902    2    1    2    0    0  0.10181807421E-01 -0.59540895770E-02 -0.22054297406E-01  0.10189197537E+01  0.10186127587E+01 0.  0.
     999903    2    3    3    0    0 -0.12620918450E+00 -0.43452805324E-04  0.61389490842E-02  0.12794708441E+00  0.20099989362E-01 0.  0.
         14    1    1    2    0    0 -0.10181807421E-01  0.59540895770E-02  0.22054297406E-01  0.25010246283E-01  0.00000000000E+00 0. -1.
     999901    1    3    3    0    0  0.13639099192E+00 -0.59106367717E-02 -0.28193246490E-01  0.89097266931E+00  0.88000000000E+00 0.  1.
        -11    1    4    4    0    0 -0.74392508270E-01 -0.83404271214E-03 -0.62519855647E-02  0.74661163656E-01  0.51100000000E-03 0.  1.
         11    1    4    4    0    0 -0.51816676232E-01  0.79058990682E-03  0.12390934649E-01  0.53285920754E-01  0.51100000000E-03 0. -1.
</event>
<event>
 8    1  0.1122848E+005  0.1043930E+01  0.7957747E-01            NaN
         13   -1    0    0    0    0  0.00000000000E+00  0.00000000000E+00  0.74505805969E-08  0.10566000000E+00  0.10566000000E+00 0.  1.
     999900   -1    0    0    0    0 -0.00000000000E+00 -0.00000000000E+00 -0.74505805969E-08  0.93827000000E+00  0.93827000000E+00 0. -1.
     999902    2    1    2    0    0  0.16549799068E-01 -0.20501571866E-02 -0.16891499765E-01  0.10201934931E+01  0.10199173210E+01 0.  0.
     999903    2    3    3    0    0 -0.10441490989E+00 -0.24227304047E-01 -0.70711791486E-01  0.13001322462E+00  0.20343191810E-01 0.  0.
         14    1    1    2    0    0 -0.16549799068E-01  0.20501571866E-02  0.16891499765E-01  0.23736506861E-01  0.00000000000E+00 0.  1.
     999901    1    3    3    0    0  0.12096470896E+00  0.22177146860E-01  0.53820291722E-01  0.89018026852E+00  0.88000000000E+00 0.  1.
        -11    1    4    4    0    0 -0.51160406532E-01 -0.64858083304E-02 -0.23541864261E-01  0.56691563747E-01  0.51100000000E-03 0. -1.
         11    1    4    4    0    0 -0.53254503356E-01 -0.17741495717E-01 -0.47169927225E-01  0.73321660875E-01  0.51100000000E-03 0.  1.
</event>
<event>
 8    1  0.1122848E+005  0.1043930E+01  0.7957747E-01            NaN
         13   -1    0    0    0    0  0.00000000000E+00  0.00000000000E+00  0.74505805969E-08  0.10566000000E+00  0.10566000000E+00 0.  1.
     999900   -1    0    0    0    0 -0.00000000000E+00 -0.00000000000E+00 -0.74505805969E-08  0.93827000000E+00  0.93827000000E+00 0. -1.
     999902    2    1    2    0    0  0.12411025704E-01 -0.20463898547E-01 -0.76373363312E-02  0.10188076273E+01  0.10184978389E+01 0.  0.
     999903    2    3    3    0    0 -0.84922689540E-01  0.61836107855E-01 -0.69577553101E-01  0.12746945714E+00  0.19283650421E-01 0.  0.
         14    1    1    2    0    0 -0.12411025704E-01  0.20463898547E-01  0.76373363312E-02  0.25122372679E-01  0.00000000000E+00 0.  1.
     999901    1    3    3    0    0  0.97333715244E-01 -0.82300006402E-01  0.61940216770E-01  0.89133817019E+00  0.88000000000E+00 0. -1.
        -11    1    4    4    0    0 -0.61124291430E-01  0.42507315580E-01 -0.38529350509E-01  0.83832111105E-01  0.51100000000E-03 0.  1.
         11    1    4    4    0    0 -0.23798398109E-01  0.19328792275E-01 -0.31048202592E-01  0.43637346030E-01  0.51100000000E-03 0. -1.
</event>
<event>
 8    1  0.1122848E+005  0.1043930E+01  0.7957747E-01            NaN
         13   -1    0    0    0    0  0.00000000000E+00  0.00000000000E+00  0.74505805969E-08  0.10566000000E+00  0.10566000000E+00 0.  1.
     999900   -1    0    0    0    0 -0.00000000000E+00 -0.00000000000E+00 -0.74505805969E-08  0.93827000000E+00  0.93827000000E+00 0.  1.
     999902    2    1    2    0    0 -0.22115907740E-01  0.15956503223E-02  0.47548578046E-02  0.10212525189E+01  0.10210007048E+01 0.  0.
     999903    2    3    3    0    0 -0.43500493717E-01  0.50083096207E-01 -0.11200462013E+00  0.13196004251E+00  0.21628879067E-01 0.  0.
         14    1    1    2    0    0  0.22115907740E-01 -0.15956503223E-02 -0.47548578046E-02  0.22677481074E-01  0.00000000000E+00 0. -1.
     999901    1    3    3    0    0  0.21384585977E-01 -0.48487445885E-01  0.11675947793E+00  0.88929247642E+00  0.88000000000E+00 0. -1.
        -11    1    4    4    0    0 -0.18856096085E-01  0.35958269144E-01 -0.56130417977E-01  0.69277950479E-01  0.51100000000E-03 0.  1.
         11    1    4    4    0    0 -0.24644397632E-01  0.14124827063E-01 -0.55874202150E-01  0.62682092029E-01  0.51100000000E-03 0. -1.
</event>
<event>
 8    1  0.1122848E+005  0.1043930E+01  0.7957747E-01            NaN
         13   -1    0    0    0    0  0.00000000000E+00  0.00000000000E+00  0.74505805969E-08  0.10566000000E+00  0.10566000000E+00 0. -1.
     999900   -1    0    0    0    0 -0.00000000000E+00 -0.00000000000E+00 -0.74505805969E-08  0.93827000000E+00  0.93827000000E+00 0.  1.
     999902    2    1    2    0    0 -0.21383464350E-01  0.64282438064E-02  0.12906614082E-01  0.10181393902E+01  0.10178126853E+01 0.  0.
     999903    2    3    3    0    0  0.57061087465E-01 -0.80675871811E-01 -0.75516814361E-01  0.12597383531E+00  0.20051282641E-01 0.  0.
         14    1    1    2    0    0  0.21383464350E-01 -0.64282438064E-02 -0.12906614082E-01  0.25790609785E-01  0.00000000000E+00 0.  1.
     999901    1    3    3    0    0 -0.78444551814E-01  0.87104115617E-01  0.88423428443E-01  0.89216555491E+00  0.88000000000E+00 0.  1.
        -11    1    4    4    0    0  0.52326823023E-01 -0.71373796375E-01 -0.58782984538E-01  0.10624507334E+00  0.51100000000E-03 0. -1.
         11    1    4    4    0    0  0.47342644418E-02 -0.93020754355E-02 -0.16733829824E-01  0.19728761968E-01  0.51100000000E-03 0.  1.
</event>
<event>
 8    1  0.1122848E+005  0.1043930E+01  0.7957747E-01            NaN
         13   -1    0    0    0    0  0.00000000000E+00  0.00000000000E+00  0.74505805969E-08  0.10566000000E+00  0.10566000000E+00 0. -1.
     999900   -1    0    0    0    0 -0.00000000000E+00 -0.00000000000E+00 -0.74505805969E-08  0.93827000000E+00  0.93827000000E+00 0.  1.
     999902    2    1    2    0    0  0.22749379667E-01  0.36632157573E-02 -0.51829292821E-02  0.10203118675E+01  0.10200384752E+01 0.  0.
     999903    2    3    3    0    0  0.94768547053E-02  0.87626051123E-01  0.94298522236E-01  0.13063637792E+00  0.20137436004E-01 0.  0.
         14    1    1    2    0    0 -0.22749379667E-01 -0.36632157573E-02  0.51829292821E-02  0.23618132459E-01  0.00000000000E+00 0. -1.
     999901    1    3    3    0    0  0.13272524962E-01 -0.83962835366E-01 -0.99481451518E-01  0.88967548962E+00  0.88000000000E+00 0.  1.
        -11    1    4    4    0    0  0.34604923587E-02  0.81866523586E-01  0.83504231228E-01  0.11699282220E+00  0.51100000000E-03 0. -1.
         11    1    4    4    0    0  0.60163623466E-02  0.57595275366E-02  0.10794291008E-01  0.13643555720E-01  0.51100000000E-03 0.  1.
</event>
<event>
 8    1  0.1122848E+005  0.1043930E+01  0.7957747E-01            NaN
         13   -1    0    0    0    0  0.00000000000E+00  0.00000000000E+00  0.74505805969E-08  0.10566000000E+00  0.10566000000E+00 0.  1.
     999900   -1    0    0    0    0 -0.00000000000E+00 -0.00000000000E+00 -0.74505805969E-08  0.93827000000E+00  0.93827000000E+00 0. -1.
     999902    2    1    2    0    0 -0.98174284766E-02  0.21629587136E-01  0.66545749588E-02  0.10192621199E+01  0.10189635738E+01 0.  0.
     999903    2    3    3    0    0 -0.56602055429E-01 -0.46172521395E-01 -0.10376540590E+00  0.12854415138E+00  0.20509631453E-01 0.  0.
         14    1    1    2    0    0  0.98174284766E-02 -0.21629587136E-01 -0.66545749588E-02  0.24667880116E-01  0.00000000000E+00 0.  1.
     999901    1    3    3    0    0  0.46784626953E-01  0.67802108531E-01  0.11041998086E+00  0.89071796850E+00  0.88000000000E+00 0.  1.
        -11    1    4    4    0    0 -0.41742931911E-02  0.89046047634E-03 -0.19292444902E-02  0.47117670579E-02  0.51100000000E-03 0.  1.
         11    1    4    4    0    0 -0.52427762238E-01 -0.47062981871E-01 -0.10183616141E+00  0.12383238432E+00  0.51100000000E-03 0. -1.
</event>
<event>
 8    1  0.1122848E+005  0.1043930E+01  0.7957747E-01            NaN
         13   -1    0    0    0    0  0.00000000000E+00  0.00000000000E+00  0.74505805969E-08  0.10566000000E+00  0.10566000000E+00 0. -1.
     999900   -1    0    0    0    0 -0.00000000000E+00 -0.00000000000E+00 -0.74505805969E-08  0.93827000000E+00  0.93827000000E+00 0. -1.
     999902    2    1    2    0    0  0.10668444626E-01  0.11946154256E-02  0.22337259893E-01  0.10191470220E+01  0.10188456490E+01 0.  0.
     999903    2    3    3    0    0  0.87631734832E-01 -0.51109137569E-01 -0.75133558412E-01  0.12888886228E+00  0.25996582973E-01 0.  0.
         14    1    1    2    0    0 -0.10668444626E-01 -0.11946154256E-02 -0.22337259893E-01  0.24782977954E-01  0.00000000000E+00 0.  1.
     999901    1    3    3    0    0 -0.76963290206E-01  0.52303752995E-01  0.97470818305E-01  0.89025815977E+00  0.88000000000E+00 0.  1.
        -11    1    4    4    0    0  0.44931684685E-01 -0.37134108569E-01 -0.31510684297E-01  0.66264490141E-01  0.51100000000E-03 0.  1.
         11    1    4    4    0    0  0.42700050147E-01 -0.13975029001E-01 -0.43622874115E-01  0.62624372135E-01  0.51100000000E-03 0. -1.
</event>
<event>
 8    1  0.1122848E+005  0.1043930E+01  0.7957747E-01            NaN
         13   -1    0    0    0    0  0.00000000000E+00  0.00000000000E+00  0.74505805969E-08  0.10566000000E+00  0.10566000000E+00 0.  1.
     999900   -1    0    0    0    0 -0.00000000000E+00 -0.00000000000E+00 -0.74505805969E-08  0.93827000000E+00  0.93827000000E+00 0. -1.
     999902    2    1    2    0    0  0.15368707883E-01 -0.63721883740E-02 -0.15385032238E-01  0.10212694355E+01  0.10210180012E+01 0.  0.
     999903    2    3    3    0    0 -0.62050909715E-01 -0.10603216700E+00  0.39154098058E-01  0.13059529460E+00  0.20711150174E-01 0.  0.
         14    1    1    2    0    0 -0.15368707883E-01  0.63721883740E-02  0.15385032238E-01  0.22660564503E-01  0.00000000000E+00 0.  1.
     999901    1    3    3    0    0  0.77419617597E-01  0.99659978627E-01 -0.54539130296E-01  0.89067414090E+00  0.88000000000E+00 0.  1.
        -11    1    4    4    0    0 -0.13770396716E-01 -0.17137988585E-01 -0.35378216670E-03  0.21993652749E-01  0.51100000000E-03 0.  1.
         11    1    4    4    0    0 -0.48280512999E-01 -0.88894178416E-01  0.39507880225E-01  0.10860164185E+00  0.51100000000E-03 0. -1.
</event>
<event>
 8    1  0.1122848E+005  0.1043930E+01  0.7957747E-01            NaN
         13   -1    0    0    0    0  0.00000000000E+00  0.00000000000E+00  0.74505805969E-08  0.10566000000E+00  0.10566000000E+00 0. -1.
     999900   -1    0    0    0    0 -0.00000000000E+00 -0.00000000000E+00 -0.74505805969E-08  0.93827000000E+00  0.93827000000E+00 0. -1.
     999902    2    1    2    0    0 -0.17018772277E-01 -0.34702609146E-02 -0.12342725502E-01  0.10226221565E+01  0.10224001422E+01 0.  0.
     999903    2    3    3    0    0  0.12345274104E+00  0.24253037769E-01  0.31434021103E-01  0.12997596072E+00  0.87671871485E-02 0.  0.
         14    1    1    2    0    0  0.17018772277E-01  0.34702609146E-02  0.12342725502E-01  0.21307843472E-01  0.00000000000E+00 0. -1.
     999901    1    3    3    0    0 -0.14047151332E+00 -0.27723298684E-01 -0.43776746605E-01  0.89264619581E+00  0.88000000000E+00 0.  1.
        -11    1    4    4    0    0  0.27505978793E-01  0.70713557060E-02  0.37850141078E-02  0.28656070799E-01  0.51100000000E-03 0. -1.
         11    1    4    4    0    0  0.95946762251E-01  0.17181682063E-01  0.27649006995E-01  0.10131988992E+00  0.51100000000E-03 0.  1.
</event>
<event>
 8    1  0.1122848E+005  0.1043930E+01  0.7957747E-01            NaN
         13   -1    0    0    0    0  0.00000000000E+00  0.00000000000E+00  0.74505805969E-08  0.10566000000E+00  0.10566000000E+00 0.  1.
     999900   -1    0    0    0    0 -0.00000000000E+00 -0.00000000000E+00 -0.74505805969E-08  0.93827000000E+00  0.93827000000E+00 0. -1.
     999902    2    1    2    0    0 -0.12690985804E-01  0.13084577725E-01 -0.26159557402E-01  0.10120459956E+01  0.10115436261E+01 0.  0.
     999903    2    3    3    0    0 -0.11466620469E+00 -0.35900690805E-01  0.21024102054E-01  0.12355018831E+00  0.19632576656E-01 0.  0.
         14    1    1    2    0    0  0.12690985804E-01 -0.13084577725E-01  0.26159557402E-01  0.31884004428E-01  0.00000000000E+00 0.  1.
     999901    1    3    3    0    0  0.10197521889E+00  0.48985268530E-01 -0.47183659455E-01  0.88849580726E+00  0.88000000000E+00 0. -1.
        -11    1    4    4    0    0 -0.46061104856E-01 -0.21728685377E-01  0.15682876207E-01  0.53291414654E-01  0.51100000000E-03 0.  1.
         11    1    4    4    0    0 -0.68605099835E-01 -0.14172005427E-01  0.53412258471E-02  0.70258773657E-01  0.51100000000E-03 0. -1.
</event>
<event>
 8    1  0.1122848E+005  0.1043930E+01  0.7957747E-01            NaN
         13   -1    0    0    0    0  0.00000000000E+00  0.00000000000E+00  0.74505805969E-08  0.10566000000E+00  0.10566000000E+00 0.  1.
     999900   -1    0    0    0    0 -0.00000000000E+00 -0.00000000000E+00 -0.74505805969E-08  0.93827000000E+00  0.93827000000E+00 0.  1.
     999902    2    1    2    0    0  0.23774286719E-01 -0.34048577469E-02  0.48226438414E-02  0.10194337215E+01  0.10191393648E+01 0.  0.
     999903    2    3    3    0    0 -0.32404591167E-01  0.66058795941E-01 -0.10310952488E+00  0.12834976446E+00  0.20694585421E-01 0.  0.
         14    1    1    2    0    0 -0.23774286719E-01  0.34048577469E-02 -0.48226438414E-02  0.24496278470E-01  0.00000000000E+00 0. -1.
     999901    1    3    3    0    0  0.56178877886E-01 -0.69463653688E-01  0.10793216872E+00  0.89108395707E+00  0.88000000000E+00 0. -1.
        -11    1    4    4    0    0 -0.96222287204E-02  0.41873757274E-01 -0.53107971213E-01  0.68313370296E-01  0.51100000000E-03 0.  1.
         11    1    4    4    0    0 -0.22782362447E-01  0.24185038666E-01 -0.50001553668E-01  0.60036394163E-01  0.51100000000E-03 0. -1.
</event>
<event>
 8    1  0.1122848E+005  0.1043930E+01  0.7957747E-01            NaN
         13   -1    0    0    0    0  0.00000000000E+00  0.00000000000E+00  0.74505805969E-08  0.10566000000E+00  0.10566000000E+00 0. -1.
     999900   -1    0    0    0    0 -0.00000000000E+00 -0.00000000000E+00 -0.74505805969E-08  0.93827000000E+00  0.93827000000E+00 0.  1.
     999902    2    1    2    0    0  0.11368344317E-01 -0.27779381167E-01  0.11184078390E-01  0.10118985018E+01  0.10113913985E+01 0.  0.
     999903    2    3    3    0    0  0.48433724018E-01  0.81850037454E-01 -0.71221724550E-01  0.12050455508E+00  0.20088790272E-01 0.  0.
         14    1    1    2    0    0 -0.11368344317E-01  0.27779381167E-01 -0.11184078390E-01  0.32031498247E-01  0.00000000000E+00 0.  1.
     999901    1    3    3    0    0 -0.37065379702E-01 -0.10962941862E+00  0.82405802940E-01  0.89139394667E+00  0.88000000000E+00 0.  1.
        -11    1    4    4    0    0  0.23815727832E-01  0.27145428109E-01 -0.35719875190E-01  0.50796001457E-01  0.51100000000E-03 0. -1.
         11    1    4    4    0    0  0.24617996186E-01  0.54704609345E-01 -0.35501849359E-01  0.69708553627E-01  0.51100000000E-03 0.  1.
</event>
<event>
 8    1  0.1122848E+005  0.1043930E+01  0.7957747E-01            NaN
         13   -1    0    0    0    0  0.00000000000E+00  0.00000000000E+00  0.74505805969E-08  0.10566000000E+00  0.10566000000E+00 0. -1.
     999900   -1    0    0    0    0 -0.00000000000E+00 -0.00000000000E+00 -0.74505805969E-08  0.93827000000E+00  0.93827000000E+00 0.  1.
     999902    2    1    2    0    0  0.21881413434E-01  0.11203498683E-01 -0.24141691652E-02  0.10192289302E+01  0.10189295703E+01 0.  0.
     999903    2    3    3    0    0 -0.12466505085E+00 -0.72816832078E-02 -0.10404667562E-01  0.12688291199E+00  0.19915281423E-01 0.  0.
         14    1    1    2    0    0 -0.21881413434E-01 -0.11203498683E-01  0.24141691652E-02  0.24701069802E-01  0.00000000000E+00 0. -1.
     999901    1    3    3    0    0  0.14654646429E+00  0.18485181891E-01  0.79904983964E-02  0.89234601821E+00  0.88000000000E+00 0.  1.
        -11    1    4    4    0    0 -0.72537598771E-01 -0.12931861273E-01 -0.10638482245E-01  0.74447126855E-01  0.51100000000E-03 0. -1.
         11    1    4    4    0    0 -0.52127452081E-01  0.56501780650E-02  0.23381468383E-03  0.52435785137E-01  0.51100000000E-03 0.  1.
</event>
<event>
 8    1  0.1122848E+005  0.1043930E+01  0.7957747E-01            NaN
         13   -1    0    0    0    0  0.00000000000E+00  0.00000000000E+00  0.74505805969E-08  0.10566000000E+00  0.10566000000E+00 0. -1.
     999900   -1    0    0    0    0 -0.00000000000E+00 -0.00000000000E+00 -0.74505805969E-08  0.93827000000E+00  0.93827000000E+00 0. -1.
     999902    2    1    2    0    0 -0.20924144673E-01 -0.20110147777E-01 -0.31113077148E-02  0.10147423638E+01  0.10143225063E+01 0.  0.
     999903    2    3    3    0    0 -0.23192021193E-01 -0.10651196985E+00 -0.64817422781E-01  0.12835753606E+00  0.19791139440E-01 0.  0.
         14    1    1    2    0    0  0.20924144673E-01  0.20110147777E-01  0.31113077148E-02  0.29187636246E-01  0.00000000000E+00 0.  1.
     999901    1    3    3    0    0  0.22678765196E-02  0.86401822073E-01  0.61706115066E-01  0.88638482769E+00  0.88000000000E+00 0.  1.
        -11    1    4    4    0    0 -0.16878257422E-01 -0.34426477383E-01 -0.20119643117E-01  0.43302645170E-01  0.51100000000E-03 0.  1.
         11    1    4    4    0    0 -0.63137637711E-02 -0.72085492467E-01 -0.44697779664E-01  0.85054890895E-01  0.51100000000E-03 0. -1.
</event>
<event>
 8    1  0.1122848E+005  0.1043930E+01  0.7957747E-01            NaN
         13   -1    0    0    0    0  0.00000000000E+00  0.00000000000E+00  0.74505805969E-08  0.10566000000E+00  0.10566000000E+00 0. -1.
     999900   -1    0    0    0    0 -0.00000000000E+00 -0.00000000000E+00 -0.74505805969E-08  0.93827000000E+00  0.93827000000E+00 0.  1.
     999902    2    1    2    0    0  0.13869526712E-01  0.17334314606E-01 -0.25005609369E-02  0.10215895649E+01  0.10213452620E+01 0.  0.
     999903    2    3    3    0    0  0.11375391693E+00 -0.30362705292E-01 -0.58320978627E-01  0.13290074642E+00  0.19985603846E-01 0.  0.
         14    1    1    2    0    0 -0.13869526712E-01 -0.17334314606E-01  0.25005609369E-02  0.22340435069E-01  0.00000000000E+00 0. -1.
     999901    1    3    3    0    0 -0.99884390219E-01  0.47697019898E-01  0.55820417690E-01  0.88868881851E+00  0.88000000000E+00 0. -1.
        -11    1    4    4    0    0  0.16391931127E-01 -0.12037238582E-01 -0.95117574079E-02  0.22457185236E-01  0.51100000000E-03 0.  1.
         11    1    4    4    0    0  0.97361985804E-01 -0.18325466710E-01 -0.48809221219E-01  0.11044356118E+00  0.51100000000E-03 0. -1.
</event>
<event>
 8    1  0.1122848E+005  0.1043930E+01  0.7957747E-01            NaN
         13   -1    0    0    0    0  0.00000000000E+00  0.00000000000E+00  0.74505805969E-08  0.10566000000E+00  0.10566000000E+00 0.  1.
     999900   -1    0    0    0    0 -0.00000000000E+00 -0.00000000000E+00 -0.74505805969E-08  0.93827000000E+00  0.93827000000E+00 0.  1.
     999902    2    1    2    0    0  0.84312575525E-02 -0.14042915042E-01  0.17107655737E-01  0.10202453752E+01  0.10199704232E+01 0.  0.
     999903    2    3    3    0    0 -0.44887212683E-01  0.49905818568E-01  0.11094872508E+00  0.13134805487E+00  0.20910268599E-01 0.  0.
         14    1    1    2    0    0 -0.84312575525E-02  0.14042915042E-01 -0.17107655737E-01  0.23684624794E-01  0.00000000000E+00 0. -1.
     999901    1    3    3    0    0  0.53318470235E-01 -0.63948733611E-01 -0.93841069342E-01  0.88889732033E+00  0.88000000000E+00 0. -1.
        -11    1    4    4    0    0 -0.20395428458E-01  0.88988880582E-02  0.29977287438E-01  0.37337147639E-01  0.51100000000E-03 0. -1.
         11    1    4    4    0    0 -0.24491784225E-01  0.41006930510E-01  0.80971437642E-01  0.94010907235E-01  0.51100000000E-03 0.  1.
</event>
<event>
 8    1  0.1122848E+005  0.1043930E+01  0.7957747E-01            NaN
         13   -1    0    0    0    0  0.00000000000E+00  0.00000000000E+00  0.74505805969E-08  0.10566000000E+00  0.10566000000E+00 0.  1.
     999900   -1    0    0    0    0 -0.00000000000E+00 -0.00000000000E+00 -0.74505805969E-08  0.93827000000E+00  0.93827000000E+00 0. -1.
     999902    2    1    2    0    0 -0.21971850476E-01  0.88258486117E-02 -0.20633195254E-02  0.10201620572E+01  0.10198851444E+01 0.  0.
     999903    2    3    3    0    0 -0.38493928203E-01 -0.10913169687E+00 -0.56773478814E-01  0.13045414833E+00  0.20088483047E-01 0.  0.
         14    1    1    2    0    0  0.21971850476E-01 -0.88258486117E-02  0.20633195254E-02  0.23767942791E-01  0.00000000000E+00 0.  1.
     999901    1    3    3    0    0  0.16522077727E-01  0.11795754548E+00  0.54710159289E-01  0.88970790888E+00  0.88000000000E+00 0.  1.
        -11    1    4    4    0    0 -0.26759834937E-01 -0.93218540233E-01 -0.41619281955E-01  0.10553772198E+00  0.51100000000E-03 0.  1.
         11    1    4    4    0    0 -0.11734093266E-01 -0.15913156633E-01 -0.15154196859E-01  0.24916426354E-01  0.51100000000E-03 0. -1.
</event>
<event>
 8    1  0.1224662E+005  0.1043930E+01  0.7957747E-01            NaN
         13   -1    0    0    0    0  0.00000000000E+00  0.00000000000E+00  0.74505805969E-08  0.10566000000E+00  0.10566000000E+00 0.  1.
     999900   -1    0    0    0    0 -0.00000000000E+00 -0.00000000000E+00 -0.74505805969E-08  0.93827000000E+00  0.93827000000E+00 0. -1.
     999902    2    1    2    0    0 -0.20239961391E-01 -0.12549003136E-02 -0.86694320937E-02  0.10218757518E+01  0.10216377353E+01 0.  0.
     999903    2    3    3    0    0 -0.20838984263E-01  0.12109841888E+00 -0.45818925108E-01  0.13263406451E+00  0.19832570434E-01 0.  0.
         14    1    1    2    0    0  0.20239961391E-01  0.12549003136E-02  0.86694320937E-02  0.22054248225E-01  0.00000000000E+00 0. -1.
     999901    1    3    3    0    0  0.59902287155E-03 -0.12235331919E+00  0.37149493015E-01  0.88924168727E+00  0.88000000000E+00 0. -1.
        -11    1    4    4    0    0 -0.13301745573E-01  0.47938222162E-01 -0.96766931694E-02  0.50684406784E-01  0.51100000000E-03 0. -1.
         11    1    4    4    0    0 -0.75372386899E-02  0.73160196715E-01 -0.36142231939E-01  0.81949657723E-01  0.51100000000E-03 0.  1.
</event>
<event>
 8    1  0.1122848E+005  0.1043930E+01  0.7957747E-01            NaN
         13   -1    0    0    0    0  0.00000000000E+00  0.00000000000E+00  0.74505805969E-08  0.10566000000E+00  0.10566000000E+00 0. -1.
     999900   -1    0    0    0    0 -0.00000000000E+00 -0.00000000000E+00 -0.74505805969E-08  0.93827000000E+00  0.93827000000E+00 0. -1.
     999902    2    1    2    0    0 -0.11178047654E-01 -0.18993424069E-01  0.20479283254E-02  0.10217964753E+01  0.10215567258E+01 0.  0.
     999903    2    3    3    0    0  0.94974544893E-01 -0.29024382144E-01  0.83755944513E-01  0.13160256776E+00  0.21014249078E-01 0.  0.
         14    1    1    2    0    0  0.11178047654E-01  0.18993424069E-01 -0.20479283254E-02  0.22133524745E-01  0.00000000000E+00 0. -1.
     999901    1    3    3    0    0 -0.10615259255E+00  0.10030958075E-01 -0.81708016188E-01  0.89019390749E+00  0.88000000000E+00 0. -1.
        -11    1    4    4    0    0  0.13663564756E-01 -0.39004947467E-02  0.22983579321E-01  0.27026152159E-01  0.51100000000E-03 0.  1.
         11    1    4    4    0    0  0.81310980137E-01 -0.25123887397E-01  0.60772365193E-01  0.10457641561E+00  0.51100000000E-03 0. -1.
</event>
<event>
 8    1  0.1122848E+005  0.1043930E+01  0.7957747E-01            NaN
         13   -1    0    0    0    0  0.00000000000E+00  0.00000000000E+00  0.74505805969E-08  0.10566000000E+00  0.10566000000E+00 0.  1.
     999900   -1    0    0    0    0 -0.00000000000E+00 -0.00000000000E+00 -0.74505805969E-08  0.93827000000E+00  0.93827000000E+00 0.  1.
     999902    2    1    2    0    0 -0.34132618223E-02  0.84347215059E-02 -0.22675780943E-01  0.10194967046E+01  0.10192038779E+01 0.  0.
     999903    2    3    3    0    0 -0.17810466392E-01  0.12439061489E+00  0.27354427176E-01  0.13036450383E+00  0.21363552764E-01 0.  0.
         14    1    1    2    0    0  0.34132618223E-02 -0.84347215059E-02  0.22675780943E-01  0.24433295409E-01  0.00000000000E+00 0.  1.
     999901    1    3    3    0    0  0.14397204570E-01 -0.11595589338E+00 -0.50030208120E-01  0.88913220076E+00  0.88000000000E+00 0.  1.
        -11    1    4    4    0    0 -0.18300636240E-01  0.56812956957E-01  0.92713397934E-02  0.60405663869E-01  0.51100000000E-03 0. -1.
         11    1    4    4    0    0  0.49016984776E-03  0.67577657932E-01  0.18083087383E-01  0.69958839958E-01  0.51100000000E-03 0.  1.
</event>
<event>
 8    1  0.1122848E+005  0.1043930E+01  0.7957747E-01            NaN
         13   -1    0    0    0    0  0.00000000000E+00  0.00000000000E+00  0.74505805969E-08  0.10566000000E+00  0.10566000000E+00 0. -1.
     999900   -1    0    0    0    0 -0.00000000000E+00 -0.00000000000E+00 -0.74505805969E-08  0.93827000000E+00  0.93827000000E+00 0. -1.
     999902    2    1    2    0    0 -0.53336751897E-03  0.24022315226E-01  0.31831166028E-02  0.10196918412E+01  0.10194037290E+01 0.  0.
     999903    2    3    3    0    0 -0.11426336798E-01  0.11768742107E+00 -0.56721861678E-01  0.13262903890E+00  0.19804093421E-01 0.  0.
         14    1    1    2    0    0  0.53336751897E-03 -0.24022315226E-01 -0.31831166028E-02  0.24238158779E-01  0.00000000000E+00 0. -1.
     999901    1    3    3    0    0  0.10892969280E-01 -0.93665105849E-01  0.59904978281E-01  0.88706280232E+00  0.88000000000E+00 0.  1.
        -11    1    4    4    0    0 -0.85390058144E-02  0.53208064015E-01 -0.36114683019E-01  0.64873293018E-01  0.51100000000E-03 0. -1.
         11    1    4    4    0    0 -0.28873309841E-02  0.64479357060E-01 -0.20607178659E-01  0.67755745884E-01  0.51100000000E-03 0.  1.
</event>
<event>
 8    1  0.1122848E+005  0.1043930E+01  0.7957747E-01            NaN
         13   -1    0    0    0    0  0.00000000000E+00  0.00000000000E+00  0.74505805969E-08  0.10566000000E+00  0.10566000000E+00 0. -1.
     999900   -1    0    0    0    0 -0.00000000000E+00 -0.00000000000E+00 -0.74505805969E-08  0.93827000000E+00  0.93827000000E+00 0.  1.
     999902    2    1    2    0    0  0.13914003958E-01  0.18423319558E-01  0.13938523404E-02  0.10208007753E+01  0.10205387116E+01 0.  0.
     999903    2    3    3    0    0  0.10370404412E+00  0.67925574511E-01  0.44965764488E-01  0.13377696725E+00  0.22493211266E-01 0.  0.
         14    1    1    2    0    0 -0.13914003958E-01 -0.18423319558E-01 -0.13938523404E-02  0.23129224674E-01  0.00000000000E+00 0.  1.
     999901    1    3    3    0    0 -0.89790040158E-01 -0.49502254954E-01 -0.43571912148E-01  0.88702380807E+00  0.88000000000E+00 0.  1.
        -11    1    4    4    0    0  0.34793226596E-01  0.30047579595E-01  0.26260986177E-01  0.52946446269E-01  0.51100000000E-03 0. -1.
         11    1    4    4    0    0  0.68910817521E-01  0.37877994916E-01  0.18704778311E-01  0.80830520986E-01  0.51100000000E-03 0.  1.
</event>
<event>
 8    1  0.1122848E+005  0.1043930E+01  0.7957747E-01            NaN
         13   -1    0    0    0    0  0.00000000000E+00  0.00000000000E+00  0.74505805969E-08  0.10566000000E+00  0.10566000000E+00 0.  1.
     999900   -1    0    0    0    0 -0.00000000000E+00 -0.00000000000E+00 -0.74505805969E-08  0.93827000000E+00  0.93827000000E+00 0.  1.
     999902    2    1    2    0    0  0.98788573199E-02 -0.70104377659E-02  0.19467753130E-01  0.10210011651E+01  0.10207436738E+01 0.  0.
     999903    2    3    3    0    0  0.72660205783E-01 -0.36538155929E-01 -0.99666475078E-01  0.13026756393E+00  0.20535082541E-01 0.  0.
         14    1    1    2    0    0 -0.98788573199E-02  0.70104377659E-02 -0.19467753130E-01  0.22928834937E-01  0.00000000000E+00 0. -1.
     999901    1    3    3    0    0 -0.62781348463E-01  0.29527718163E-01  0.11913422821E+00  0.89073360113E+00  0.88000000000E+00 0. -1.
        -11    1    4    4    0    0  0.95405457390E-02  0.17070557714E-02 -0.15877932909E-01  0.18609296786E-01  0.51100000000E-03 0.  1.
         11    1    4    4    0    0  0.63119660044E-01 -0.38245211700E-01 -0.83788542169E-01  0.11165826715E+00  0.51100000000E-03 0. -1.
</event>
<event>
 8    1  0.1122848E+005  0.1043930E+01  0.7957747E-01            NaN
         13   -1    0    0    0    0  0.00000000000E+00  0.00000000000E+00  0.74505805969E-08  0.10566000000E+00  0.10566000000E+00 0. -1.
     999900   -1    0    0    0    0 -0.00000000000E+00 -0.00000000000E+00 -0.74505805969E-08  0.93827000000E+00  0.93827000000E+00 0. -1.
     999902    2    1    2    0    0  0.14293784242E-01 -0.10576626153E-02  0.19213884086E-01  0.10199590956E+01  0.10196773766E+01 0.  0.
     999903    2    3    3    0    0 -0.11235515055E+00  0.10053643766E-01 -0.56427692847E-01  0.12761103455E+00  0.19383911164E-01 0.  0.
         14    1    1    2    0    0 -0.14293784242E-01  0.10576626153E-02 -0.19213884086E-01  0.23970904443E-01  0.00000000000E+00 0.  1.
     999901    1    3    3    0    0  0.12664893479E+00 -0.11111306382E-01  0.75641576933E-01  0.89234806100E+00  0.88000000000E+00 0.  1.
        -11    1    4    4    0    0 -0.71278076024E-01  0.22122898631E-02 -0.44740156690E-01  0.84186703759E-01  0.51100000000E-03 0.  1.
         11    1    4    4    0    0 -0.41077074526E-01  0.78413539031E-02 -0.11687536156E-01  0.43424330796E-01  0.51100000000E-03 0. -1.
</event>
<event>
 8    1  0.1122848E+005  0.1043930E+01  0.7957747E-01            NaN
         13   -1    0    0    0    0  0.00000000000E+00  0.00000000000E+00  0.74505805969E-08  0.10566000000E+00  0.10566000000E+00 0.  1.
     999900   -1    0    0    0    0 -0.00000000000E+00 -0.00000000000E+00 -0.74505805969E-08  0.93827000000E+00  0.93827000000E+00 0.  1.
     999902    2    1    2    0    0 -0.22838258632E-01  0.62212248409E-02  0.19427794450E-03  0.10202587635E+01  0.10199841258E+01 0.  0.
     999903    2    3    3    0    0  0.43471495702E-01 -0.92962592471E-02 -0.11978083254E+00  0.12951087377E+00  0.21199698274E-01 0.  0.
         14    1    1    2    0    0  0.22838258632E-01 -0.62212248409E-02 -0.19427794450E-03  0.23671236550E-01  0.00000000000E+00 0.  1.
     999901    1    3    3    0    0 -0.66309754334E-01  0.15517484088E-01  0.11997511048E+00  0.89074788968E+00  0.88000000000E+00 0. -1.
        -11    1    4    4    0    0  0.77539516513E-02 -0.24075776165E-02 -0.51545551347E-01  0.52183571944E-01  0.51100000000E-03 0. -1.
         11    1    4    4    0    0  0.35717544050E-01 -0.68886816306E-02 -0.68235281191E-01  0.77327301827E-01  0.51100000000E-03 0.  1.
</event>
<event>
 8    1  0.1122848E+005  0.1043930E+01  0.7957747E-01            NaN
         13   -1    0    0    0    0  0.00000000000E+00  0.00000000000E+00  0.74505805969E-08  0.10566000000E+00  0.10566000000E+00 0. -1.
     999900   -1    0    0    0    0 -0.00000000000E+00 -0.00000000000E+00 -0.74505805969E-08  0.93827000000E+00  0.93827000000E+00 0.  1.
     999902    2    1    2    0    0  0.49866873550E-02 -0.22541766343E-01  0.44717068184E-03  0.10208389142E+01  0.10205777239E+01 0.  0.
     999903    2    3    3    0    0 -0.83786010647E-01 -0.10074934781E+00 -0.26331327721E-02  0.13291633541E+00  0.22119949502E-01 0.  0.
         14    1    1    2    0    0 -0.49866873550E-02  0.22541766343E-01 -0.44717068184E-03  0.23091085775E-01  0.00000000000E+00 0. -1.
     999901    1    3    3    0    0  0.88772698002E-01  0.78207581463E-01  0.30803034540E-02  0.88792257882E+00  0.88000000000E+00 0.  1.
        -11    1    4    4    0    0 -0.32124413078E-01 -0.38443602106E-01  0.97320590098E-02  0.51037854109E-01  0.51100000000E-03 0. -1.
         11    1    4    4    0    0 -0.51661597569E-01 -0.62305745700E-01 -0.12365191782E-01  0.81878481296E-01  0.51100000000E-03 0.  1.
</event>
<event>
 8    1  0.1122848E+005  0.1043930E+01  0.7957747E-01            NaN
         13   -1    0    0    0    0  0.00000000000E+00  0.00000000000E+00  0.74505805969E-08  0.10566000000E+00  0.10566000000E+00 0. -1.
     999900   -1    0    0    0    0 -0.00000000000E+00 -0.00000000000E+00 -0.74505805969E-08  0.93827000000E+00  0.93827000000E+00 0.  1.
     999902    2    1    2    0    0 -0.63028556839E-02 -0.18895966361E-01  0.11320135528E-01  0.10210186709E+01  0.10207615771E+01 0.  0.
     999903    2    3    3    0    0 -0.10722501660E+00  0.27025615703E-01 -0.65243674783E-01  0.13076247666E+00  0.24789112836E-01 0.  0.
         14    1    1    2    0    0  0.63028556839E-02  0.18895966361E-01 -0.11320135528E-01  0.22911329138E-01  0.00000000000E+00 0.  1.
     999901    1    3    3    0    0  0.10092216091E+00 -0.45921582065E-01  0.76563810312E-01  0.89025619420E+00  0.88000000000E+00 0. -1.
        -11    1    4    4    0    0 -0.36884946530E-01 -0.23598657020E-02 -0.24220220726E-01  0.44192176453E-01  0.51100000000E-03 0.  1.
         11    1    4    4    0    0 -0.70340070067E-01  0.29385481405E-01 -0.41023454057E-01  0.86570300209E-01  0.51100000000E-03 0. -1.
</event>
<event>
 8    1  0.1122848E+005  0.1043930E+01  0.7957747E-01            NaN
         13   -1    0    0    0    0  0.00000000000E+00  0.00000000000E+00  0.74505805969E-08  0.10566000000E+00  0.10566000000E+00 0.  1.
     999900   -1    0    0    0    0 -0.00000000000E+00 -0.00000000000E+00 -0.74505805969E-08  0.93827000000E+00  0.93827000000E+00 0.  1.
     999902    2    1    2    0    0  0.12125057119E-01  0.97643941191E-02  0.16943178621E-01  0.10209206170E+01  0.10206612928E+01 0.  0.
     999903    2    3    3    0    0 -0.44159172586E-01 -0.11892258448E+00  0.10517316518E-01  0.12975870993E+00  0.25181247615E-01 0.  0.
         14    1    1    2    0    0 -0.12125057119E-01 -0.97643941191E-02 -0.16943178621E-01  0.23009382965E-01  0.00000000000E+00 0. -1.
     999901    1    3    3    0    0  0.56284229705E-01  0.12868697860E+00  0.64258621028E-02  0.89116190711E+00  0.88000000000E+00 0. -1.
        -11    1    4    4    0    0 -0.39896323977E-02 -0.38440044423E-01 -0.31355256759E-02  0.38776885178E-01  0.51100000000E-03 0. -1.
         11    1    4    4    0    0 -0.40169540188E-01 -0.80482540062E-01  0.13652842194E-01  0.90981824749E-01  0.51100000000E-03 0.  1.
</event>
<event>
 8    1  0.1122848E+005  0.1043930E+01  0.7957747E-01            NaN
         13   -1    0    0    0    0  0.00000000000E+00  0.00000000000E+00  0.74505805969E-08  0.10566000000E+00  0.10566000000E+00 0.  1.
     999900   -1    0    0    0    0 -0.00000000000E+00 -0.00000000000E+00 -0.74505805969E-08  0.93827000000E+00  0.93827000000E+00 0. -1.
     999902    2    1    2    0    0  0.16878527412E-01  0.11056972088E-01  0.12555758767E-01  0.10201647229E+01  0.10198878729E+01 0.  0.
     999903    2    3    3    0    0  0.96963790846E-01 -0.39465010400E-01  0.78545801413E-01  0.13262835411E+00  0.21479609215E-01 0.  0.
         14    1    1    2    0    0 -0.16878527412E-01 -0.11056972088E-01 -0.12555758767E-01  0.23765277140E-01  0.00000000000E+00 0. -1.
     999901    1    3    3    0    0 -0.80085263435E-01  0.50521982487E-01 -0.65990042646E-01  0.88753636875E+00  0.88000000000E+00 0. -1.
        -11    1    4    4    0    0  0.47443186172E-01 -0.17861306892E-01  0.51274765472E-01  0.72105789596E-01  0.51100000000E-03 0.  1.
         11    1    4    4    0    0  0.49520604674E-01 -0.21603703508E-01  0.27271035941E-01  0.60522564510E-01  0.51100000000E-03 0. -1.
</event>
<event>
 8    1  0.1122848E+005  0.1043930E+01  0.7957747E-01            NaN
         13   -1    0    0    0    0  0.00000000000E+00  0.00000000000E+00  0.74505805969E-08  0.10566000000E+00  0.10566000000E+00 0. -1.
     999900   -1    0    0    0    0 -0.00000000000E+00 -0.00000000000E+00 -0.74505805969E-08  0.93827000000E+00  0.93827000000E+00 0. -1.
     999902    2    1    2    0    0 -0.18021749021E-01  0.59936280610E-02 -0.14775687016E-01  0.10198670006E+01  0.10195830868E+01 0.  0.
     999903    2    3    3    0    0  0.10673400245E+00  0.13699053844E-01  0.64976483475E-01  0.12746362775E+00  0.21100275777E-01 0.  0.
         14    1    1    2    0    0  0.18021749021E-01 -0.59936280610E-02  0.14775687016E-01  0.24062999437E-01  0.00000000000E+00 0. -1.
     999901    1    3    3    0    0 -0.12475575148E+00 -0.77054257834E-02 -0.79752170491E-01  0.89240337281E+00  0.88000000000E+00 0. -1.
        -11    1    4    4    0    0  0.66766987722E-01  0.17003572561E-01  0.34271848300E-01  0.76953056055E-01  0.51100000000E-03 0. -1.
         11    1    4    4    0    0  0.39967014732E-01 -0.33045187165E-02  0.30704635176E-01  0.50510571694E-01  0.51100000000E-03 0.  1.
</event>
<event>
 8    1  0.1122848E+005  0.1043930E+01  0.7957747E-01            NaN
         13   -1    0    0    0    0  0.00000000000E+00  0.00000000000E+00  0.74505805969E-08  0.10566000000E+00  0.10566000000E+00 0.  1.
     999900   -1    0    0    0    0 -0.00000000000E+00 -0.00000000000E+00 -0.74505805969E-08  0.93827000000E+00  0.93827000000E+00 0.  1.
     999902    2    1    2    0    0 -0.82298577836E-03 -0.11305145632E-01  0.20227818269E-01  0.10207427566E+01  0.10204793614E+01 0.  0.
     999903    2    3    3    0    0  0.65349044118E-01 -0.35260748442E-02  0.11414853316E+00  0.13324044555E+00  0.20980894544E-01 0.  0.
         14    1    1    2    0    0  0.82298577836E-03  0.11305145632E-01 -0.20227818269E-01  0.23187243373E-01  0.00000000000E+00 0. -1.
     999901    1    3    3    0    0 -0.66172029897E-01 -0.77790707880E-02 -0.93920714894E-01  0.88750231108E+00  0.88000000000E+00 0.  1.
        -11    1    4    4    0    0  0.53740213014E-01  0.54817523929E-02  0.90008879662E-01  0.10497580504E+00  0.51100000000E-03 0.  1.
         11    1    4    4    0    0  0.11608831104E-01 -0.90078272370E-02  0.24139653500E-01  0.28264640512E-01  0.51100000000E-03 0. -1.
</event>
<event>
 8    1  0.1122848E+005  0.1043930E+01  0.7957747E-01            NaN
         13   -1    0    0    0    0  0.00000000000E+00  0.00000000000E+00  0.74505805969E-08  0.10566000000E+00  0.10566000000E+00 0. -1.
     999900   -1    0    0    0    0 -0.00000000000E+00 -0.00000000000E+00 -0.74505805969E-08  0.93827000000E+00  0.93827000000E+00 0. -1.
     999902    2    1    2    0    0  0.12484174334E-01  0.70388686128E-03 -0.19552847667E-01  0.10207208656E+01  0.10204569671E+01 0.  0.
     999903    2    3    3    0    0 -0.29705606854E-02  0.10381199242E+00  0.73781559080E-01  0.12966450281E+00  0.24153898837E-01 0.  0.
         14    1    1    2    0    0 -0.12484174334E-01 -0.70388686128E-03  0.19552847667E-01  0.23209134353E-01  0.00000000000E+00 0. -1.
     999901    1    3    3    0    0  0.15454735019E-01 -0.10310810556E+00 -0.93334406747E-01  0.89105636283E+00  0.88000000000E+00 0.  1.
        -11    1    4    4    0    0  0.72327948542E-02  0.73487330576E-01  0.44049533143E-01  0.85984437939E-01  0.51100000000E-03 0.  1.
         11    1    4    4    0    0 -0.10203355540E-01  0.30324661840E-01  0.29732025937E-01  0.43680064873E-01  0.51100000000E-03 0. -1.
</event>
<event>
 8    1  0.1122848E+005  0.1043930E+01  0.7957747E-01            NaN
         13   -1    0    0    0    0  0.00000000000E+00  0.00000000000E+00  0.74505805969E-08  0.10566000000E+00  0.10566000000E+00 0. -1.
     999900   -1    0    0    0    0 -0.00000000000E+00 -0.00000000000E+00 -0.74505805969E-08  0.93827000000E+00  0.93827000000E+00 0. -1.
     999902    2    1    2    0    0 -0.15167882215E-01  0.12599396173E-01 -0.13660601710E-01  0.10199420557E+01  0.10196599313E+01 0.  0.
     999903    2    3    3    0    0  0.66991441035E-01  0.10984624428E+00 -0.67834060079E-02  0.13075456154E+00  0.22286547791E-01 0.  0.
         14    1    1    2    0    0  0.15167882215E-01 -0.12599396173E-01  0.13660601710E-01  0.23987944345E-01  0.00000000000E+00 0. -1.
     999901    1    3    3    0    0 -0.82159323250E-01 -0.97246848109E-01 -0.68771957021E-02  0.88918749411E+00  0.88000000000E+00 0.  1.
        -11    1    4    4    0    0  0.55286220851E-01  0.10185367150E+00 -0.24266439987E-02  0.11591758424E+00  0.51100000000E-03 0. -1.
         11    1    4    4    0    0  0.11705220184E-01  0.79925727771E-02 -0.43567620092E-02  0.14836977298E-01  0.51100000000E-03 0.  1.
</event>
<event>
 8    1  0.1122848E+005  0.1043930E+01  0.7957747E-01            NaN
         13   -1    0    0    0    0  0.00000000000E+00  0.00000000000E+00  0.74505805969E-08  0.10566000000E+00  0.10566000000E+00 0. -1.
     999900   -1    0    0    0    0 -0.00000000000E+00 -0.00000000000E+00 -0.74505805969E-08  0.93827000000E+00  0.93827000000E+00 0. -1.
     999902    2    1    2    0    0 -0.92390717635E-02  0.22461922941E-01  0.83807811865E-03  0.10196277202E+01  0.10193380631E+01 0.  0.
     999903    2    3    3    0    0  0.30308559496E-01 -0.11924967621E+00  0.25135952895E-01  0.12708271897E+00  0.19470677423E-01 0.  0.
         14    1    1    2    0    0  0.92390717635E-02 -0.22461922941E-01 -0.83807811865E-03  0.24302279815E-01  0.00000000000E+00 0.  1.
     999901    1    3    3    0    0 -0.39547631259E-01  0.14171159915E+00 -0.24297874777E-01  0.89254500121E+00  0.88000000000E+00 0. -1.
        -11    1    4    4    0    0  0.31266765074E-01 -0.90214794077E-01  0.17973606851E-01  0.97157765170E-01  0.51100000000E-03 0. -1.
         11    1    4    4    0    0 -0.95820557841E-03 -0.29034882130E-01  0.71623460442E-02  0.29924953802E-01  0.51100000000E-03 0.  1.
</event>
<event>
 8    1  0.1122848E+005  0.1043930E+01  0.7957747E-01            NaN
         13   -1    0    0    0    0  0.00000000000E+00  0.00000000000E+00  0.74505805969E-08  0.10566000000E+00  0.10566000000E+00 0. -1.
     999900   -1    0    0    0    0 -0.00000000000E+00 -0.00000000000E+00 -0.74505805969E-08  0.93827000000E+00  0.93827000000E+00 0.  1.
     999902    2    1    2    0    0  0.16054682477E-01 -0.16321167211E-01  0.42226774163E-02  0.10206498726E+01  0.10203843384E+01 0.  0.
     999903    2    3    3    0    0  0.71721548140E-01  0.10645371550E+00  0.96646211139E-02  0.13036784618E+00  0.20639680384E-01 0.  0.
         14    1    1    2    0    0 -0.16054682477E-01  0.16321167211E-01 -0.42226774163E-02  0.23280127429E-01  0.00000000000E+00 0. -1.
     999901    1    3    3    0    0 -0.55666865663E-01 -0.12277488271E+00 -0.54419436976E-02  0.89028202639E+00  0.88000000000E+00 0.  1.
        -11    1    4    4    0    0  0.26047494998E-01  0.23980565848E-01  0.67427610575E-02  0.36045325379E-01  0.51100000000E-03 0. -1.
         11    1    4    4    0    0  0.45674053142E-01  0.82473149650E-01  0.29218600564E-02  0.94322520804E-01  0.51100000000E-03 0.  1.
</event>
<event>
 8    1  0.1122848E+005  0.1043930E+01  0.7957747E-01            NaN
         13   -1    0    0    0    0  0.00000000000E+00  0.00000000000E+00  0.74505805969E-08  0.10566000000E+00  0.10566000000E+00 0.  1.
     999900   -1    0    0    0    0 -0.00000000000E+00 -0.00000000000E+00 -0.74505805969E-08  0.93827000000E+00  0.93827000000E+00 0.  1.
     999902    2    1    2    0    0 -0.75137177749E-02 -0.61301679415E-02 -0.21763836169E-01  0.10201035551E+01  0.10198252613E+01 0.  0.
     999903    2    3    3    0    0  0.19087572738E-01 -0.90253754528E-01 -0.92890351219E-01  0.13283618407E+00  0.22511304029E-01 0.  0.
         14    1    1    2    0    0  0.75137177749E-02  0.61301679415E-02  0.21763836169E-01  0.23826444942E-01  0.00000000000E+00 0.  1.
     999901    1    3    3    0    0 -0.26601290512E-01  0.84123586586E-01  0.71126515050E-01  0.88726737099E+00  0.88000000000E+00 0. -1.
        -11    1    4    4    0    0 -0.89595489791E-03 -0.49998915823E-01 -0.48446480656E-01  0.69627702300E-01  0.51100000000E-03 0. -1.
         11    1    4    4    0    0  0.19983527635E-01 -0.40254838705E-01 -0.44443870563E-01  0.63208481769E-01  0.51100000000E-03 0.  1.
</event>
<event>
 8    1  0.1122848E+005  0.1043930E+01  0.7957747E-01            NaN
         13   -1    0    0    0    0  0.00000000000E+00  0.00000000000E+00  0.74505805969E-08  0.10566000000E+00  0.10566000000E+00 0. -1.
     999900   -1    0    0    0    0 -0.00000000000E+00 -0.00000000000E+00 -0.74505805969E-08  0.93827000000E+00  0.93827000000E+00 0. -1.
     999902    2    1    2    0    0 -0.11451119752E-01  0.83778746806E-03 -0.16543381946E-01  0.10237926338E+01  0.10235945699E+01 0.  0.
     999903    2    3    3    0    0 -0.92881701815E-01  0.35417382059E-01  0.86690781176E-01  0.13335230424E+00  0.19650547635E-01 0.  0.
         14    1    1    2    0    0  0.11451119752E-01 -0.83778746806E-03  0.16543381946E-01  0.20137366204E-01  0.00000000000E+00 0. -1.
     999901    1    3    3    0    0  0.81430582063E-01 -0.34579594591E-01 -0.10323416312E+00  0.89044032955E+00  0.88000000000E+00 0. -1.
        -11    1    4    4    0    0 -0.49478144943E-01  0.16682927201E-01  0.32805767145E-01  0.61667547105E-01  0.51100000000E-03 0. -1.
         11    1    4    4    0    0 -0.43403556872E-01  0.18734454858E-01  0.53885014031E-01  0.71684757139E-01  0.51100000000E-03 0.  1.
</event>
<event>
 8    1  0.1122848E+005  0.1043930E+01  0.7957747E-01            NaN
         13   -1    0    0    0    0  0.00000000000E+00  0.00000000000E+00  0.74505805969E-08  0.10566000000E+00  0.10566000000E+00 0. -1.
     999900   -1    0    0    0    0 -0.00000000000E+00 -0.00000000000E+00 -0.74505805969E-08  0.93827000000E+00  0.93827000000E+00 0. -1.
     999902    2    1    2    0    0  0.41860626272E-02 -0.23413542576E-01  0.10668060318E-01  0.10178623072E+01  0.10175284526E+01 0.  0.
     999903    2    3    3    0    0 -0.10112673874E+00 -0.45206089411E-01 -0.61423710260E-01  0.12838890985E+00  0.20991240624E-01 0.  0.
         14    1    1    2    0    0 -0.41860626272E-02  0.23413542576E-01 -0.10668060318E-01  0.26067692786E-01  0.00000000000E+00 0.  1.
     999901    1    3    3    0    0  0.10531280137E+00  0.21792546836E-01  0.72091770578E-01  0.88947339736E+00  0.88000000000E+00 0. -1.
        -11    1    4    4    0    0 -0.64660224191E-01 -0.19352513896E-01 -0.43047545112E-01  0.80055085083E-01  0.51100000000E-03 0. -1.
         11    1    4    4    0    0 -0.36466514548E-01 -0.25853575515E-01 -0.18376165149E-01  0.48333824768E-01  0.51100000000E-03 0.  1.
</event>
<event>
 8    1  0.1122848E+005  0.1043930E+01  0.7957747E-01            NaN
         13   -1    0    0    0    0  0.00000000000E+00  0.00000000000E+00  0.74505805969E-08  0.10566000000E+00  0.10566000000E+00 0.  1.
     999900   -1    0    0    0    0 -0.00000000000E+00 -0.00000000000E+00 -0.74505805969E-08  0.93827000000E+00  0.93827000000E+00 0.  1.
     999902    2    1    2    0    0  0.21325640408E-02  0.12632833705E-01  0.21258150554E-01  0.10191097405E+01  0.10188074489E+01 0.  0.
     999903    2    3    3    0    0  0.83925173427E-01 -0.11879451129E-02 -0.94169635628E-01  0.12770376189E+00  0.19886794055E-01 0.  0.
         14    1    1    2    0    0 -0.21325640408E-02 -0.12632833705E-01 -0.21258150554E-01  0.24820259503E-01  0.00000000000E+00 0. -1.
     999901    1    3    3    0    0 -0.81792609386E-01  0.13820778818E-01  0.11542778618E+00  0.89140597861E+00  0.88000000000E+00 0. -1.
        -11    1    4    4    0    0  0.30968898103E-01 -0.68597071166E-02 -0.24921826679E-01  0.40342121876E-01  0.51100000000E-03 0.  1.
         11    1    4    4    0    0  0.52956275324E-01  0.56717620037E-02 -0.69247808949E-01  0.87361640012E-01  0.51100000000E-03 0. -1.
</event>
<event>
 7    1  0.1122848E+005  0.1043930E+01  0.7957747E-01            NaN
         13   -1    0    0    0    0  0.00000000000E+00  0.00000000000E+00  0.74505805969E-08  0.10566000000E+00  0.10566000000E+00 0.  1.
     999900   -1    0    0    0    0 -0.00000000000E+00 -0.00000000000E+00 -0.74505805969E-08  0.93827000000E+00  0.93827000000E+00 0.  1.
     999903    2    1    2    0    0  0.75639167176E-01  0.99784406473E-02  0.21151754488E-01  0.81529954919E-01  0.19464941366E-01 0.  0.
         14    1    1    2    0    0 -0.53128302380E-02  0.13778346099E-01  0.72808002224E-01  0.74290471625E-01  0.00000000000E+00 0.  1.
     999901    1    1    2    0    0 -0.70326336938E-01 -0.23756786747E-01 -0.93959756712E-01  0.88810957346E+00  0.88000000000E+00 0. -1.
        -11    1    3    3    0    0  0.56164854136E-01  0.39432269211E-02  0.23476029178E-01  0.61003483061E-01  0.51100000000E-03 0.  1.
         11    1    3    3    0    0  0.19474313040E-01  0.60352137261E-02 -0.23242746897E-02  0.20526471858E-01  0.51100000000E-03 0. -1.
</event>
<event>
 8    1  0.1122848E+005  0.1043930E+01  0.7957747E-01            NaN
         13   -1    0    0    0    0  0.00000000000E+00  0.00000000000E+00  0.74505805969E-08  0.10566000000E+00  0.10566000000E+00 0.  1.
     999900   -1    0    0    0    0 -0.00000000000E+00 -0.00000000000E+00 -0.74505805969E-08  0.93827000000E+00  0.93827000000E+00 0. -1.
     999902    2    1    2    0    0  0.12148562234E-01 -0.16588192016E-01 -0.20609678828E-01  0.10148178970E+01  0.10144002413E+01 0.  0.
     999903    2    3    3    0    0  0.35913545375E-01 -0.81177425737E-02  0.11684930598E+00  0.12378956108E+00  0.17731741016E-01 0.  0.
         14    1    1    2    0    0 -0.12148562234E-01  0.16588192016E-01  0.20609678828E-01  0.29112102984E-01  0.00000000000E+00 0.  1.
     999901    1    3    3    0    0 -0.23764983141E-01 -0.84704494428E-02 -0.13745898480E+00  0.89102833594E+00  0.88000000000E+00 0. -1.
        -11    1    4    4    0    0  0.40343618297E-02 -0.69059779979E-02  0.14315846373E-01  0.16406498281E-01  0.51100000000E-03 0. -1.
         11    1    4    4    0    0  0.31879183545E-01 -0.12117645758E-02  0.10253345960E+00  0.10738306280E+00  0.51100000000E-03 0.  1.
</event>
<event>
 8    1  0.1122848E+005  0.1043930E+01  0.7957747E-01            NaN
         13   -1    0    0    0    0  0.00000000000E+00  0.00000000000E+00  0.74505805969E-08  0.10566000000E+00  0.10566000000E+00 0.  1.
     999900   -1    0    0    0    0 -0.00000000000E+00 -0.00000000000E+00 -0.74505805969E-08  0.93827000000E+00  0.93827000000E+00 0.  1.
     999902    2    1    2    0    0 -0.55099077829E-02  0.89358926465E-02 -0.26716900015E-01  0.10152245648E+01  0.10148186612E+01 0.  0.
     999903    2    3    3    0    0 -0.10631793652E+00  0.32284452054E-01  0.54824169338E-01  0.12541764204E+00  0.19444945875E-01 0.  0.
         14    1    1    2    0    0  0.55099077829E-02 -0.89358926465E-02  0.26716900015E-01  0.28705435157E-01  0.00000000000E+00 0.  1.
     999901    1    3    3    0    0  0.10080802874E+00 -0.23348559408E-01 -0.81541069353E-01  0.88980692281E+00  0.88000000000E+00 0.  1.
        -11    1    4    4    0    0 -0.60557302103E-01  0.14313659278E-01  0.40353084726E-01  0.74166705790E-01  0.51100000000E-03 0.  1.
         11    1    4    4    0    0 -0.45760634416E-01  0.17970792777E-01  0.14471084613E-01  0.51250936246E-01  0.51100000000E-03 0. -1.
</event>
<event>
 8    1  0.1122848E+005  0.1043930E+01  0.7957747E-01            NaN
         13   -1    0    0    0    0  0.00000000000E+00  0.00000000000E+00  0.74505805969E-08  0.10566000000E+00  0.10566000000E+00 0.  1.
     999900   -1    0    0    0    0 -0.00000000000E+00 -0.00000000000E+00 -0.74505805969E-08  0.93827000000E+00  0.93827000000E+00 0. -1.
     999902    2    1    2    0    0 -0.19123157326E-01 -0.27699942860E-01 -0.10319319746E-01  0.10087238877E+01  0.10081093251E+01 0.  0.
     999903    2    3    3    0    0 -0.30444240662E-01  0.62427578451E-01 -0.95593298169E-01  0.11994788197E+00  0.20624291368E-01 0.  0.
         14    1    1    2    0    0  0.19123157326E-01  0.27699942860E-01  0.10319319746E-01  0.35206112262E-01  0.00000000000E+00 0.  1.
     999901    1    3    3    0    0  0.11321083336E-01 -0.90127521312E-01  0.85273978423E-01  0.88877600576E+00  0.88000000000E+00 0.  1.
        -11    1    4    4    0    0 -0.72547459105E-02  0.30298498346E-01 -0.29636363314E-01  0.43002389372E-01  0.51100000000E-03 0. -1.
         11    1    4    4    0    0 -0.23189494751E-01  0.32129080105E-01 -0.65956934855E-01  0.76945492601E-01  0.51100000000E-03 0.  1.
</event>
<event>
 8    1  0.1122848E+005  0.1043930E+01  0.7957747E-01            NaN
         13   -1    0    0    0    0  0.00000000000E+00  0.00000000000E+00  0.74505805969E-08  0.10566000000E+00  0.10566000000E+00 0. -1.
     999900   -1    0    0    0    0 -0.00000000000E+00 -0.00000000000E+00 -0.74505805969E-08  0.93827000000E+00  0.93827000000E+00 0.  1.
     999902    2    1    2    0    0 -0.19973127572E-01  0.41267708474E-02 -0.13258146174E-01  0.10196044064E+01  0.10193141867E+01 0.  0.
     999903    2    3    3    0    0  0.47556101068E-01 -0.60968385077E-02  0.11638819532E+00  0.12748732175E+00  0.20200272501E-01 0.  0.
         14    1    1    2    0    0  0.19973127572E-01 -0.41267708474E-02  0.13258146174E-01  0.24325593571E-01  0.00000000000E+00 0.  1.
     999901    1    3    3    0    0 -0.67529228640E-01  0.10223609355E-01 -0.12964634149E+00  0.89211708468E+00  0.88000000000E+00 0.  1.
        -11    1    4    4    0    0  0.63703331079E-02 -0.23883969333E-02  0.40421988386E-01  0.40993705003E-01  0.51100000000E-03 0. -1.
         11    1    4    4    0    0  0.41185767961E-01 -0.37084415743E-02  0.75966206935E-01  0.86493616750E-01  0.51100000000E-03 0.  1.
</event>
<event>
 8    1  0.1122848E+005  0.1043930E+01  0.7957747E-01            NaN
         13   -1    0    0    0    0  0.00000000000E+00  0.00000000000E+00  0.74505805969E-08  0.10566000000E+00  0.10566000000E+00 0. -1.
     999900   -1    0    0    0    0 -0.00000000000E+00 -0.00000000000E+00 -0.74505805969E-08  0.93827000000E+00  0.93827000000E+00 0. -1.
     999902    2    1    2    0    0 -0.86930857345E-02 -0.18838066832E-01 -0.11708683132E-01  0.10201069909E+01  0.10198287783E+01 0.  0.
     999903    2    3    3    0    0  0.99630490150E-01  0.11352453702E-01 -0.81015916281E-01  0.13024803737E+00  0.18597305600E-01 0.  0.
         14    1    1    2    0    0  0.86930857345E-02  0.18838066832E-01  0.11708683132E-01  0.23823009093E-01  0.00000000000E+00 0. -1.
     999901    1    3    3    0    0 -0.10832357588E+00 -0.30190520534E-01  0.69307233149E-01  0.88985895354E+00  0.88000000000E+00 0.  1.
        -11    1    4    4    0    0  0.23197510625E-01 -0.50245192258E-02 -0.21013474688E-01  0.31704850293E-01  0.51100000000E-03 0.  1.
         11    1    4    4    0    0  0.76432979525E-01  0.16376972927E-01 -0.60002441593E-01  0.98543187078E-01  0.51100000000E-03 0. -1.
</event>
<event>
 8    1  0.1122848E+005  0.1043930E+01  0.7957747E-01            NaN
         13   -1    0    0    0    0  0.00000000000E+00  0.00000000000E+00  0.74505805969E-08  0.10566000000E+00  0.10566000000E+00 0.  1.
     999900   -1    0    0    0    0 -0.00000000000E+00 -0.00000000000E+00 -0.74505805969E-08  0.93827000000E+00  0.93827000000E+00 0. -1.
     999902    2    1    2    0    0  0.42216640455E-02  0.13114072423E-01  0.18704283184E-01  0.10206995985E+01  0.10204352105E+01 0.  0.
     999903    2    3    3    0    0 -0.50180186248E-01 -0.11408372120E+00  0.30486304293E-01  0.12981371581E+00  0.19724084979E-01 0.  0.
         14    1    1    2    0    0 -0.42216640455E-02 -0.13114072423E-01 -0.18704283184E-01  0.23230401466E-01  0.00000000000E+00 0. -1.
     999901    1    3    3    0    0  0.54401850293E-01  0.12719779362E+00 -0.11782021108E-01  0.89088588273E+00  0.88000000000E+00 0.  1.
        -11    1    4    4    0    0 -0.19023411685E-01 -0.40367554231E-01  0.13676431449E-02  0.44649313495E-01  0.51100000000E-03 0.  1.
         11    1    4    4    0    0 -0.31156774563E-01 -0.73716166967E-01  0.29118661148E-01  0.85164402314E-01  0.51100000000E-03 0. -1.
</event>
<event>
 8    1  0.1122848E+005  0.1043930E+01  0.7957747E-01            NaN
         13   -1    0    0    0    0  0.00000000000E+00  0.00000000000E+00  0.74505805969E-08  0.10566000000E+00  0.10566000000E+00 0. -1.
     999900   -1    0    0    0    0 -0.00000000000E+00 -0.00000000000E+00 -0.74505805969E-08  0.93827000000E+00  0.93827000000E+00 0.  1.
     999902    2    1    2    0    0 -0.61983237252E-02  0.15081172135E-03  0.22261552780E-01  0.10208211555E+01  0.10205595587E+01 0.  0.
     999903    2    3    3    0    0  0.59535750199E-01  0.24586252863E-01  0.11531202351E+00  0.13314077984E+00  0.16751570374E-01 0.  0.
         14    1    1    2    0    0  0.61983237252E-02 -0.15081172135E-03 -0.22261552780E-01  0.23108844483E-01  0.00000000000E+00 0.  1.
     999901    1    3    3    0    0 -0.65734073924E-01 -0.24435441142E-01 -0.93050470726E-01  0.88768037568E+00  0.88000000000E+00 0.  1.
        -11    1    4    4    0    0  0.45399403365E-01  0.20161534508E-01  0.10090639529E+00  0.11247201888E+00  0.51100000000E-03 0. -1.
         11    1    4    4    0    0  0.14136346834E-01  0.44247183549E-02  0.14405628215E-01  0.20668760959E-01  0.51100000000E-03 0.  1.
</event>
<event>
 8    1  0.1122848E+005  0.1043930E+01  0.7957747E-01            NaN
         13   -1    0    0    0    0  0.00000000000E+00  0.00000000000E+00  0.74505805969E-08  0.10566000000E+00  0.10566000000E+00 0.  1.
     999900   -1    0    0    0    0 -0.00000000000E+00 -0.00000000000E+00 -0.74505805969E-08  0.93827000000E+00  0.93827000000E+00 0.  1.
     999902    2    1    2    0    0  0.16240141813E-01 -0.19131834714E-02 -0.17289933857E-01  0.10201320108E+01  0.10198543892E+01 0.  0.
     999903    2    3    3    0    0 -0.52147620208E-01 -0.22302536105E-01  0.11266621901E+00  0.12773007593E+00  0.20112632374E-01 0.  0.
         14    1    1    2    0    0 -0.16240141813E-01  0.19131834714E-02  0.17289933857E-01  0.23797989198E-01  0.00000000000E+00 0.  1.
     999901    1    3    3    0    0  0.68387762021E-01  0.20389352634E-01 -0.12995615287E+00  0.89240193487E+00  0.88000000000E+00 0.  1.
        -11    1    4    4    0    0 -0.44477939465E-01 -0.19367060966E-01  0.76094210485E-01  0.90243892535E-01  0.51100000000E-03 0.  1.
         11    1    4    4    0    0 -0.76696807432E-02 -0.29354751390E-02  0.36572008524E-01  0.37486183395E-01  0.51100000000E-03 0. -1.
</event>
<event>
 8    1  0.1122848E+005  0.1043930E+01  0.7957747E-01            NaN
         13   -1    0    0    0    0  0.00000000000E+00  0.00000000000E+00  0.74505805969E-08  0.10566000000E+00  0.10566000000E+00 0.  1.
     999900   -1    0    0    0    0 -0.00000000000E+00 -0.00000000000E+00 -0.74505805969E-08  0.93827000000E+00  0.93827000000E+00 0.  1.
     999902    2    1    2    0    0 -0.89082692432E-02  0.18950388498E-01  0.11672797551E-01  0.10199565003E+01  0.10196747196E+01 0.  0.
     999903    2    3    3    0    0  0.70342554802E-02  0.12881101138E+00  0.24933307390E-01  0.13288301875E+00  0.19861255025E-01 0.  0.
         14    1    1    2    0    0  0.89082692432E-02 -0.18950388498E-01 -0.11672797551E-01  0.23973499699E-01  0.00000000000E+00 0. -1.
     999901    1    3    3    0    0 -0.15942524723E-01 -0.10986062288E+00 -0.13260509839E-01  0.88707348155E+00  0.88000000000E+00 0.  1.
        -11    1    4    4    0    0 -0.68293490137E-02  0.52691847234E-01  0.91680716164E-02  0.53920176474E-01  0.51100000000E-03 0.  1.
         11    1    4    4    0    0  0.13863604494E-01  0.76119164146E-01  0.15765235773E-01  0.78962842273E-01  0.51100000000E-03 0. -1.
</event>
<event>
 8    1  0.1122848E+005  0.1043930E+01  0.7957747E-01            NaN
         13   -1    0    0    0    0  0.00000000000E+00  0.00000000000E+00  0.74505805969E-08  0.10566000000E+00  0.10566000000E+00 0.  1.
     999900   -1    0    0    0    0 -0.00000000000E+00 -0.00000000000E+00 -0.74505805969E-08  0.93827000000E+00  0.93827000000E+00 0.  1.
     999902    2    1    2    0    0  0.83441081057E-02 -0.32193345891E-02 -0.22454457384E-01  0.10197599584E+01  0.10194734826E+01 0.  0.
     999903    2    3    3    0    0  0.11678238070E+00 -0.41673548244E-01 -0.40999878389E-01  0.13207672764E+00  0.19709461918E-01 0.  0.
         14    1    1    2    0    0 -0.83441081057E-02  0.32193345891E-02  0.22454457384E-01  0.24170041615E-01  0.00000000000E+00 0.  1.
     999901    1    3    3    0    0 -0.10843827260E+00  0.38454213655E-01  0.18545421005E-01  0.88768323075E+00  0.88000000000E+00 0.  1.
        -11    1    4    4    0    0  0.92849415391E-01 -0.40497466176E-01 -0.29585582068E-01  0.10553021602E+00  0.51100000000E-03 0. -1.
         11    1    4    4    0    0  0.23932965313E-01 -0.11760820679E-02 -0.11414296321E-01  0.26546511620E-01  0.51100000000E-03 0.  1.
</event>
<event>
 8    1  0.1122848E+005  0.1043930E+01  0.7957747E-01            NaN
         13   -1    0    0    0    0  0.00000000000E+00  0.00000000000E+00  0.74505805969E-08  0.10566000000E+00  0.10566000000E+00 0. -1.
     999900   -1    0    0    0    0 -0.00000000000E+00 -0.00000000000E+00 -0.74505805969E-08  0.93827000000E+00  0.93827000000E+00 0.  1.
     999902    2    1    2    0    0  0.14373147562E-01 -0.11972204658E-01  0.15279197255E-01  0.10197768444E+01  0.10194907736E+01 0.  0.
     999903    2    3    3    0    0 -0.13058431787E-01  0.10127149488E+00  0.77678282557E-01  0.12990591397E+00  0.20376275130E-01 0.  0.
         14    1    1    2    0    0 -0.14373147562E-01  0.11972204658E-01 -0.15279197255E-01  0.24153155570E-01  0.00000000000E+00 0.  1.
     999901    1    3    3    0    0  0.27431579349E-01 -0.11324369954E+00 -0.62399085302E-01  0.88987093046E+00  0.88000000000E+00 0. -1.
        -11    1    4    4    0    0 -0.30648754416E-03  0.66472683221E-01  0.43166124817E-01  0.79260879392E-01  0.51100000000E-03 0. -1.
         11    1    4    4    0    0 -0.12751944243E-01  0.34798811656E-01  0.34512157740E-01  0.50645034579E-01  0.51100000000E-03 0.  1.
</event>
<event>
 8    1  0.1122848E+005  0.1043930E+01  0.7957747E-01            NaN
         13   -1    0    0    0    0  0.00000000000E+00  0.00000000000E+00  0.74505805969E-08  0.10566000000E+00  0.10566000000E+00 0.  1.
     999900   -1    0    0    0    0 -0.00000000000E+00 -0.00000000000E+00 -0.74505805969E-08  0.93827000000E+00  0.93827000000E+00 0.  1.
     999902    2    1    2    0    0  0.74928010824E-02  0.23127276655E-01 -0.30281481446E-02  0.10194313740E+01  0.10191369602E+01 0.  0.
     999903    2    3    3    0    0  0.90455198567E-01 -0.82760904327E-01 -0.33741271492E-01  0.12867980248E+00  0.19710604528E-01 0.  0.
         14    1    1    2    0    0 -0.74928010824E-02 -0.23127276655E-01  0.30281481446E-02  0.24498625976E-01  0.00000000000E+00 0. -1.
     999901    1    3    3    0    0 -0.82962397485E-01  0.10588818098E+00  0.30713123348E-01  0.89075157155E+00  0.88000000000E+00 0.  1.
        -11    1    4    4    0    0  0.52275102323E-01 -0.58531782435E-01 -0.26797302270E-01  0.82927754147E-01  0.51100000000E-03 0. -1.
         11    1    4    4    0    0  0.38180096244E-01 -0.24229121891E-01 -0.69439692220E-02  0.45752048330E-01  0.51100000000E-03 0.  1.
</event>
<event>
 8    1  0.1122848E+005  0.1043930E+01  0.7957747E-01            NaN
         13   -1    0    0    0    0  0.00000000000E+00  0.00000000000E+00  0.74505805969E-08  0.10566000000E+00  0.10566000000E+00 0. -1.
     999900   -1    0    0    0    0 -0.00000000000E+00 -0.00000000000E+00 -0.74505805969E-08  0.93827000000E+00  0.93827000000E+00 0.  1.
     999902    2    1    2    0    0  0.32530128814E-02  0.40373497438E-02  0.22277123870E-01  0.10210574721E+01  0.10208012582E+01 0.  0.
     999903    2    3    3    0    0 -0.12737344607E+00  0.13571013959E-01 -0.14058772716E-01  0.13062248854E+00  0.21363947159E-01 0.  0.
         14    1    1    2    0    0 -0.32530128814E-02 -0.40373497438E-02 -0.22277123870E-01  0.22872527925E-01  0.00000000000E+00 0.  1.
     999901    1    3    3    0    0  0.13062645895E+00 -0.95336642150E-02  0.36335896586E-01  0.89043498354E+00  0.88000000000E+00 0.  1.
        -11    1    4    4    0    0 -0.76722470262E-01 -0.12009885916E-02 -0.35036378513E-02  0.76813517143E-01  0.51100000000E-03 0. -1.
         11    1    4    4    0    0 -0.50650975804E-01  0.14772002550E-01 -0.10555134864E-01  0.53808971392E-01  0.51100000000E-03 0.  1.
</event>
<event>
 8    1  0.1122848E+005  0.1043930E+01  0.7957747E-01            NaN
         13   -1    0    0    0    0  0.00000000000E+00  0.00000000000E+00  0.74505805969E-08  0.10566000000E+00  0.10566000000E+00 0. -1.
     999900   -1    0    0    0    0 -0.00000000000E+00 -0.00000000000E+00 -0.74505805969E-08  0.93827000000E+00  0.93827000000E+00 0. -1.
     999902    2    1    2    0    0 -0.11674837801E-01 -0.13712139180E-01 -0.15190163621E-01  0.10203701683E+01  0.10200981397E+01 0.  0.
     999903    2    3    3    0    0 -0.11245071472E+00 -0.48449171560E-01  0.42509903808E-01  0.13206181162E+00  0.25312935417E-01 0.  0.
         14    1    1    2    0    0  0.11674837801E-01  0.13712139180E-01  0.15190163621E-01  0.23559831693E-01  0.00000000000E+00 0. -1.
     999901    1    3    3    0    0  0.10077587692E+00  0.34737032379E-01 -0.57700067429E-01  0.88830835669E+00  0.88000000000E+00 0. -1.
        -11    1    4    4    0    0 -0.56549907855E-01 -0.19833842093E-01  0.33385378698E-01  0.68601151611E-01  0.51100000000E-03 0.  1.
         11    1    4    4    0    0 -0.55900806865E-01 -0.28615329467E-01  0.91245251102E-02  0.63460660004E-01  0.51100000000E-03 0. -1.
</event>
<event>
 8    1  0.1122848E+005  0.1043930E+01  0.7957747E-01            NaN
         13   -1    0    0    0    0  0.00000000000E+00  0.00000000000E+00  0.74505805969E-08  0.10566000000E+00  0.10566000000E+00 0. -1.
     999900   -1    0    0    0    0 -0.00000000000E+00 -0.00000000000E+00 -0.74505805969E-08  0.93827000000E+00  0.93827000000E+00 0.  1.
     999902    2    1    2    0    0 -0.18591130865E-01 -0.36330482881E-02 -0.14261309297E-01  0.10202189450E+01  0.10199433718E+01 0.  0.
     999903    2    3    3    0    0  0.18003222000E-01 -0.10011214028E+00 -0.81175612166E-01  0.13166681609E+00  0.20002845172E-01 0.  0.
         14    1    1    2    0    0  0.18591130865E-01  0.36330482881E-02  0.14261309297E-01  0.23711055007E-01  0.00000000000E+00 0. -1.
     999901    1    3    3    0    0 -0.36594352865E-01  0.96479091989E-01  0.66914302869E-01  0.88855212890E+00  0.88000000000E+00 0.  1.
        -11    1    4    4    0    0  0.89817536989E-02 -0.85736683582E-01 -0.62860082956E-01  0.10669162086E+00  0.51100000000E-03 0.  1.
         11    1    4    4    0    0  0.90214683014E-02 -0.14375456695E-01 -0.18315529211E-01  0.24975195230E-01  0.51100000000E-03 0. -1.
</event>
<event>
 8    1  0.1122848E+005  0.1043930E+01  0.7957747E-01            NaN
         13   -1    0    0    0    0  0.00000000000E+00  0.00000000000E+00  0.74505805969E-08  0.10566000000E+00  0.10566000000E+00 0.  1.
     999900   -1    0    0    0    0 -0.00000000000E+00 -0.00000000000E+00 -0.74505805969E-08  0.93827000000E+00  0.93827000000E+00 0. -1.
     999902    2    1    2    0    0  0.10402579425E-01 -0.81896871238E-02 -0.18759992782E-01  0.10209686855E+01  0.10207104559E+01 0.  0.
     999903    2    3    3    0    0 -0.12253729994E+00 -0.98339622171E-02 -0.40441919682E-01  0.13071825944E+00  0.18428721961E-01 0.  0.
         14    1    1    2    0    0 -0.10402579425E-01  0.81896871238E-02  0.18759992782E-01  0.22961314489E-01  0.00000000000E+00 0.  1.
     999901    1    3    3    0    0  0.13293987937E+00  0.16442750933E-02  0.21681926899E-01  0.89025042607E+00  0.88000000000E+00 0. -1.
        -11    1    4    4    0    0 -0.10836955821E+00 -0.14513042889E-01 -0.36618690164E-01  0.11530732479E+00  0.51100000000E-03 0.  1.
         11    1    4    4    0    0 -0.14167741736E-01  0.46790806715E-02 -0.38232295177E-02  0.15410934650E-01  0.51100000000E-03 0. -1.
</event>
<event>
 8    1  0.1122848E+005  0.1043930E+01  0.7957747E-01            NaN
         13   -1    0    0    0    0  0.00000000000E+00  0.00000000000E+00  0.74505805969E-08  0.10566000000E+00  0.10566000000E+00 0.  1.
     999900   -1    0    0    0    0 -0.00000000000E+00 -0.00000000000E+00 -0.74505805969E-08  0.93827000000E+00  0.93827000000E+00 0.  1.
     999902    2    1    2    0    0 -0.18211821495E-01  0.81874737108E-02  0.11911916967E-01  0.10206792165E+01  0.10204143590E+01 0.  0.
     999903    2    3    3    0    0  0.85037123408E-01  0.52039774484E-01  0.82321425676E-01  0.13076862108E+00  0.19600118577E-01 0.  0.
         14    1    1    2    0    0  0.18211821495E-01 -0.81874737108E-02 -0.11911916967E-01  0.23250783509E-01  0.00000000000E+00 0. -1.
     999901    1    3    3    0    0 -0.10324894490E+00 -0.43852300773E-01 -0.70409508709E-01  0.88991059541E+00  0.88000000000E+00 0.  1.
        -11    1    4    4    0    0  0.50819789624E-01  0.27081029918E-01  0.35585483013E-01  0.67695058321E-01  0.51100000000E-03 0. -1.
         11    1    4    4    0    0  0.34217333784E-01  0.24958744566E-01  0.46735942663E-01  0.63073562760E-01  0.51100000000E-03 0.  1.
</event>
<event>
 8    1  0.1122848E+005  0.1043930E+01  0.7957747E-01            NaN
         13   -1    0    0    0    0  0.00000000000E+00  0.00000000000E+00  0.74505805969E-08  0.10566000000E+00  0.10566000000E+00 0.  1.
     999900   -1    0    0    0    0 -0.00000000000E+00 -0.00000000000E+00 -0.74505805969E-08  0.93827000000E+00  0.93827000000E+00 0.  1.
     999902    2    1    2    0    0 -0.73692139369E-02 -0.18160973979E-02  0.22781186150E-01  0.10199177955E+01  0.10196350933E+01 0.  0.
     999903    2    3    3    0    0 -0.15390433564E-01  0.12393378272E+00 -0.27761835236E-01  0.12950667171E+00  0.20119904974E-01 0.  0.
         14    1    1    2    0    0  0.73692139369E-02  0.18160973979E-02 -0.22781186150E-01  0.24012204526E-01  0.00000000000E+00 0. -1.
     999901    1    3    3    0    0  0.80212196273E-02 -0.12574988012E+00  0.50543021386E-01  0.89041112377E+00  0.88000000000E+00 0.  1.
        -11    1    4    4    0    0 -0.87806552023E-02  0.10646520143E+00 -0.29259619160E-01  0.11076247314E+00  0.51100000000E-03 0.  1.
         11    1    4    4    0    0 -0.66097783619E-02  0.17468581290E-01  0.14977839235E-02  0.18744198568E-01  0.51100000000E-03 0. -1.
</event>
<event>
 8    1  0.1122848E+005  0.1043930E+01  0.7957747E-01            NaN
         13   -1    0    0    0    0  0.00000000000E+00  0.00000000000E+00  0.74505805969E-08  0.10566000000E+00  0.10566000000E+00 0. -1.
     999900   -1    0    0    0    0 -0.00000000000E+00 -0.00000000000E+00 -0.74505805969E-08  0.93827000000E+00  0.93827000000E+00 0. -1.
     999902    2    1    2    0    0 -0.16102945980E-01 -0.62866488397E-02 -0.16266037906E-01  0.10201937237E+01  0.10199175570E+01 0.  0.
     999903    2    3    3    0    0 -0.25713766280E-01 -0.48976606789E-01 -0.11931839973E+00  0.13310038609E+00  0.20467693394E-01 0.  0.
         14    1    1    2    0    0  0.16102945980E-01  0.62866488397E-02  0.16266037906E-01  0.23736276288E-01  0.00000000000E+00 0.  1.
     999901    1    3    3    0    0  0.96108202998E-02  0.42689957950E-01  0.10305236183E+00  0.88709333762E+00  0.88000000000E+00 0.  1.
        -11    1    4    4    0    0 -0.25355576092E-01 -0.38388047367E-01 -0.10895609857E+00  0.11827188996E+00  0.51100000000E-03 0.  1.
         11    1    4    4    0    0 -0.35819018789E-03 -0.10588559422E-01 -0.10362301168E-01  0.14828496126E-01  0.51100000000E-03 0. -1.
</event>
<event>
 8    1  0.1122848E+005  0.1043930E+01  0.7957747E-01            NaN
         13   -1    0    0    0    0  0.00000000000E+00  0.00000000000E+00  0.74505805969E-08  0.10566000000E+00  0.10566000000E+00 0.  1.
     999900   -1    0    0    0    0 -0.00000000000E+00 -0.00000000000E+00 -0.74505805969E-08  0.93827000000E+00  0.93827000000E+00 0.  1.
     999902    2    1    2    0    0 -0.14950213848E-01  0.12242322318E-01  0.14461237478E-01  0.10197947407E+01  0.10195090988E+01 0.  0.
     999903    2    3    3    0    0 -0.11552358738E+00  0.62223442999E-01  0.63075497518E-03  0.13254934170E+00  0.18747640724E-01 0.  0.
         14    1    1    2    0    0  0.14950213848E-01 -0.12242322318E-01 -0.14461237478E-01  0.24135259254E-01  0.00000000000E+00 0.  1.
     999901    1    3    3    0    0  0.10057337353E+00 -0.49981120681E-01  0.13830482503E-01  0.88724539905E+00  0.88000000000E+00 0. -1.
        -11    1    4    4    0    0 -0.80474893414E-01  0.49825871519E-01 -0.57438424535E-02  0.94826572172E-01  0.51100000000E-03 0.  1.
         11    1    4    4    0    0 -0.35048693965E-01  0.12397571480E-01  0.63745974287E-02  0.37722769525E-01  0.51100000000E-03 0. -1.
</event>
<event>
 8    1  0.1137222E+005  0.1043930E+01  0.7957747E-01            NaN
         13   -1    0    0    0    0  0.00000000000E+00  0.00000000000E+00  0.74505805969E-08  0.10566000000E+00  0.10566000000E+00 0. -1.
     999900   -1    0    0    0    0 -0.00000000000E+00 -0.00000000000E+00 -0.74505805969E-08  0.93827000000E+00  0.93827000000E+00 0. -1.
     999902    2    1    2    0    0 -0.14623929524E-01 -0.18644177073E-01 -0.28352112501E-02  0.10200657364E+01  0.10197865480E+01 0.  0.
     999903    2    3    3    0    0  0.68660766807E-01  0.10458861407E+00  0.13492556631E-01  0.12743520957E+00  0.20114782209E-01 0.  0.
         14    1    1    2    0    0  0.14623929524E-01  0.18644177073E-01  0.28352112501E-02  0.23864263581E-01  0.00000000000E+00 0. -1.
     999901    1    3    3    0    0 -0.83284696332E-01 -0.12323279114E+00 -0.16327767881E-01  0.89263052685E+00  0.88000000000E+00 0. -1.
        -11    1    4    4    0    0  0.42160032647E-01  0.46703799726E-01  0.96336493404E-02  0.63653606200E-01  0.51100000000E-03 0.  1.
         11    1    4    4    0    0  0.26500734161E-01  0.57884814340E-01  0.38589072907E-02  0.63781603372E-01  0.51100000000E-03 0. -1.
</event>
<event>
 8    1  0.1122848E+005  0.1043930E+01  0.7957747E-01            NaN
         13   -1    0    0    0    0  0.00000000000E+00  0.00000000000E+00  0.74505805969E-08  0.10566000000E+00  0.10566000000E+00 0.  1.
     999900   -1    0    0    0    0 -0.00000000000E+00 -0.00000000000E+00 -0.74505805969E-08  0.93827000000E+00  0.93827000000E+00 0. -1.
     999902    2    1    2    0    0  0.20869861349E-01  0.78099006177E-02  0.82708461288E-02  0.10201612694E+01  0.10198843380E+01 0.  0.
     999903    2    3    3    0    0  0.95184896240E-01 -0.22304314102E-01  0.87827827725E-01  0.13294150873E+00  0.20051696197E-01 0.  0.
         14    1    1    2    0    0 -0.20869861349E-01 -0.78099006177E-02 -0.82708461288E-02  0.23768730637E-01  0.00000000000E+00 0.  1.
     999901    1    3    3    0    0 -0.74315034891E-01  0.30114214720E-01 -0.79556981596E-01  0.88721976063E+00  0.88000000000E+00 0. -1.
        -11    1    4    4    0    0  0.34682798566E-01 -0.30979331306E-02  0.42470637259E-01  0.54922762642E-01  0.51100000000E-03 0. -1.
         11    1    4    4    0    0  0.60502097674E-01 -0.19206380972E-01  0.45357190466E-01  0.78018746087E-01  0.51100000000E-03 0.  1.
</event>
<event>
 7    1  0.1122848E+005  0.1043930E+01  0.7957747E-01            NaN
         13   -1    0    0    0    0  0.00000000000E+00  0.00000000000E+00  0.74505805969E-08  0.10566000000E+00  0.10566000000E+00 0.  1.
     999900   -1    0    0    0    0 -0.00000000000E+00 -0.00000000000E+00 -0.74505805969E-08  0.93827000000E+00  0.93827000000E+00 0. -1.
     999903    2    1    2    0    0 -0.86738768951E-01 -0.43683202923E-01 -0.21166879253E-01  0.10135095570E+00  0.19802605581E-01 0.  0.
         14    1    1    2    0    0 -0.18796488786E-02 -0.34038114215E-01 -0.40071681704E-01  0.52610512008E-01  0.00000000000E+00 0. -1.
     999901    1    1    2    0    0  0.88618417829E-01  0.77721317138E-01  0.61238560957E-01  0.88996853229E+00  0.88000000000E+00 0. -1.
        -11    1    3    3    0    0 -0.53468908565E-01 -0.31475154083E-01 -0.45716607448E-02  0.62215518247E-01  0.51100000000E-03 0. -1.
         11    1    3    3    0    0 -0.33269860386E-01 -0.12208048840E-01 -0.16595218508E-01  0.39135437456E-01  0.51100000000E-03 0.  1.
</event>
<event>
 8    1  0.1122848E+005  0.1043930E+01  0.7957747E-01            NaN
         13   -1    0    0    0    0  0.00000000000E+00  0.00000000000E+00  0.74505805969E-08  0.10566000000E+00  0.10566000000E+00 0.  1.
     999900   -1    0    0    0    0 -0.00000000000E+00 -0.00000000000E+00 -0.74505805969E-08  0.93827000000E+00  0.93827000000E+00 0. -1.
     999902    2    1    2    0    0 -0.22586935326E-01  0.24226643284E-02 -0.78640014961E-02  0.10198908347E+01  0.10196074898E+01 0.  0.
     999903    2    3    3    0    0  0.88287415284E-01  0.63884359482E-01 -0.65834514010E-01  0.12891875772E+00  0.20248056043E-01 0.  0.
         14    1    1    2    0    0  0.22586935326E-01 -0.24226643284E-02  0.78640014961E-02  0.24039165322E-01  0.00000000000E+00 0. -1.
     999901    1    3    3    0    0 -0.11087435061E+00 -0.61461695153E-01  0.57970512514E-01  0.89097207696E+00  0.88000000000E+00 0.  1.
        -11    1    4    4    0    0  0.15317691154E-01  0.61146087905E-02 -0.34038605974E-02  0.16848367604E-01  0.51100000000E-03 0.  1.
         11    1    4    4    0    0  0.72969724130E-01  0.57769750691E-01 -0.62430653413E-01  0.11207039012E+00  0.51100000000E-03 0. -1.
</event>
<event>
 8    1  0.1122848E+005  0.1043930E+01  0.7957747E-01            NaN
         13   -1    0    0    0    0  0.00000000000E+00  0.00000000000E+00  0.74505805969E-08  0.10566000000E+00  0.10566000000E+00 0. -1.
     999900   -1    0    0    0    0 -0.00000000000E+00 -0.00000000000E+00 -0.74505805969E-08  0.93827000000E+00  0.93827000000E+00 0.  1.
     999902    2    1    2    0    0 -0.48143132655E-02  0.22640967953E-01 -0.41004840156E-02  0.10204224478E+01  0.10201516392E+01 0.  0.
     999903    2    3    3    0    0  0.54529041557E-02  0.48948469789E-01  0.12007353480E+00  0.13125615999E+00  0.19617311659E-01 0.  0.
         14    1    1    2    0    0  0.48143132655E-02 -0.22640967953E-01  0.41004840156E-02  0.23507552217E-01  0.00000000000E+00 0.  1.
     999901    1    3    3    0    0 -0.10267217421E-01 -0.26307501836E-01 -0.12417401881E+00  0.88916628780E+00  0.88000000000E+00 0.  1.
        -11    1    4    4    0    0  0.12235400046E-01  0.33998733108E-01  0.74221528956E-01  0.82551289202E-01  0.51100000000E-03 0.  1.
         11    1    4    4    0    0 -0.67824958900E-02  0.14949736681E-01  0.45852005842E-01  0.48704870784E-01  0.51100000000E-03 0. -1.
</event>
<event>
 8    1  0.1122848E+005  0.1043930E+01  0.7957747E-01            NaN
         13   -1    0    0    0    0  0.00000000000E+00  0.00000000000E+00  0.74505805969E-08  0.10566000000E+00  0.10566000000E+00 0. -1.
     999900   -1    0    0    0    0 -0.00000000000E+00 -0.00000000000E+00 -0.74505805969E-08  0.93827000000E+00  0.93827000000E+00 0.  1.
     999902    2    1    2    0    0  0.19911634398E-01  0.29801358847E-02 -0.10531950340E-01  0.10212082841E+01  0.10209554756E+01 0.  0.
     999903    2    3    3    0    0  0.30929896902E-01 -0.11818751611E+00 -0.47241289432E-01  0.13207917226E+00  0.16977067797E-01 0.  0.
         14    1    1    2    0    0 -0.19911634398E-01 -0.29801358847E-02  0.10531950340E-01  0.22721715874E-01  0.00000000000E+00 0.  1.
     999901    1    3    3    0    0 -0.11018262504E-01  0.12116765199E+00  0.36709339092E-01  0.88912911187E+00  0.88000000000E+00 0. -1.
        -11    1    4    4    0    0  0.10214883262E-01 -0.18428248174E-01 -0.42946059637E-02  0.21509275492E-01  0.51100000000E-03 0. -1.
         11    1    4    4    0    0  0.20715013640E-01 -0.99759267933E-01 -0.42946683469E-01  0.11056989676E+00  0.51100000000E-03 0.  1.
</event>
<event>
 8    1  0.1122848E+005  0.1043930E+01  0.7957747E-01            NaN
         13   -1    0    0    0    0  0.00000000000E+00  0.00000000000E+00  0.74505805969E-08  0.10566000000E+00  0.10566000000E+00 0.  1.
     999900   -1    0    0    0    0 -0.00000000000E+00 -0.00000000000E+00 -0.74505805969E-08  0.93827000000E+00  0.93827000000E+00 0.  1.
     999902    2    1    2    0    0 -0.19104493576E-01  0.34871480334E-03 -0.13754469873E-01  0.10203866630E+01  0.10201150196E+01 0.  0.
     999903    2    3    3    0    0  0.42351639082E-01 -0.89257532109E-01 -0.83642980599E-01  0.13095395633E+00  0.19804598018E-01 0.  0.
         14    1    1    2    0    0  0.19104493576E-01 -0.34871480334E-03  0.13754469873E-01  0.23543337025E-01  0.00000000000E+00 0.  1.
     999901    1    3    3    0    0 -0.61456132657E-01  0.89606246912E-01  0.69888510726E-01  0.88943270665E+00  0.88000000000E+00 0. -1.
        -11    1    4    4    0    0  0.15008074489E-02  0.62856984246E-03 -0.30846602263E-02  0.35247372608E-02  0.51100000000E-03 0. -1.
         11    1    4    4    0    0  0.40850831633E-01 -0.89886101951E-01 -0.80558320373E-01  0.12742921906E+00  0.51100000000E-03 0.  1.
</event>
<event>
 8    1  0.1122848E+005  0.1043930E+01  0.7957747E-01            NaN
         13   -1    0    0    0    0  0.00000000000E+00  0.00000000000E+00  0.74505805969E-08  0.10566000000E+00  0.10566000000E+00 0.  1.
     999900   -1    0    0    0    0 -0.00000000000E+00 -0.00000000000E+00 -0.74505805969E-08  0.93827000000E+00  0.93827000000E+00 0.  1.
     999902    2    1    2    0    0 -0.12047099398E-01 -0.87862306669E-03  0.14968874182E-01  0.10246953496E+01  0.10245148060E+01 0.  0.
     999903    2    3    3    0    0 -0.96391462581E-01 -0.36432906221E-01 -0.84022179040E-01  0.13442723982E+00  0.19806199018E-01 0.  0.
         14    1    1    2    0    0  0.12047099398E-01  0.87862306669E-03 -0.14968874182E-01  0.19234650417E-01  0.00000000000E+00 0. -1.
     999901    1    3    3    0    0  0.84344363183E-01  0.35554283154E-01  0.98991053222E-01  0.89026810977E+00  0.88000000000E+00 0. -1.
        -11    1    4    4    0    0 -0.34603577234E-01 -0.93576157999E-02 -0.18327782148E-01  0.40263398395E-01  0.51100000000E-03 0.  1.
         11    1    4    4    0    0 -0.61787885347E-01 -0.27075290421E-01 -0.65694396892E-01  0.94163841420E-01  0.51100000000E-03 0. -1.
</event>
<event>
 8    1  0.1122848E+005  0.1043930E+01  0.7957747E-01            NaN
         13   -1    0    0    0    0  0.00000000000E+00  0.00000000000E+00  0.74505805969E-08  0.10566000000E+00  0.10566000000E+00 0.  1.
     999900   -1    0    0    0    0 -0.00000000000E+00 -0.00000000000E+00 -0.74505805969E-08  0.93827000000E+00  0.93827000000E+00 0. -1.
     999902    2    1    2    0    0 -0.19985807597E-01  0.17919082482E-02  0.13902210255E-01  0.10195186319E+01  0.10192263370E+01 0.  0.
     999903    2    3    3    0    0  0.11501485951E+00 -0.43676448065E-02  0.53751994866E-01  0.12831095382E+00  0.18081197100E-01 0.  0.
         14    1    1    2    0    0  0.19985807597E-01 -0.17919082482E-02 -0.13902210255E-01  0.24411368058E-01  0.00000000000E+00 0.  1.
     999901    1    3    3    0    0 -0.13500066711E+00  0.61595530547E-02 -0.39849784611E-01  0.89120767812E+00  0.88000000000E+00 0. -1.
        -11    1    4    4    0    0  0.74686881082E-01 -0.11435013719E-01  0.35407661162E-01  0.83443713570E-01  0.51100000000E-03 0. -1.
         11    1    4    4    0    0  0.40327978428E-01  0.70673689129E-02  0.18344333704E-01  0.44867240249E-01  0.51100000000E-03 0.  1.
</event>
<event>
 8    1  0.1122848E+005  0.1043930E+01  0.7957747E-01            NaN
         13   -1    0    0    0    0  0.00000000000E+00  0.00000000000E+00  0.74505805969E-08  0.10566000000E+00  0.10566000000E+00 0. -1.
     999900   -1    0    0    0    0 -0.00000000000E+00 -0.00000000000E+00 -0.74505805969E-08  0.93827000000E+00  0.93827000000E+00 0.  1.
     999902    2    1    2    0    0  0.66186605565E-02 -0.12524770607E-01 -0.18417603085E-01  0.10206945820E+01  0.10204300785E+01 0.  0.
     999903    2    3    3    0    0 -0.96349729077E-01 -0.86490751352E-01 -0.11436632560E-01  0.13158143424E+00  0.20468436900E-01 0.  0.
         14    1    1    2    0    0 -0.66186605565E-02  0.12524770607E-01  0.18417603085E-01  0.23235418002E-01  0.00000000000E+00 0.  1.
     999901    1    3    3    0    0  0.10296838963E+00  0.73965980745E-01 -0.69809705250E-02  0.88911314776E+00  0.88000000000E+00 0. -1.
        -11    1    4    4    0    0 -0.17345190033E-01 -0.26425112351E-01 -0.60638743150E-02  0.32189654747E-01  0.51100000000E-03 0. -1.
         11    1    4    4    0    0 -0.79004539044E-01 -0.60065639001E-01 -0.53727582451E-02  0.99391779491E-01  0.51100000000E-03 0.  1.
</event>
<event>
 8    1  0.1122848E+005  0.1043930E+01  0.7957747E-01            NaN
         13   -1    0    0    0    0  0.00000000000E+00  0.00000000000E+00  0.74505805969E-08  0.10566000000E+00  0.10566000000E+00 0. -1.
     999900   -1    0    0    0    0 -0.00000000000E+00 -0.00000000000E+00 -0.74505805969E-08  0.93827000000E+00  0.93827000000E+00 0.  1.
     999902    2    1    2    0    0  0.53593132489E-02  0.23112565249E-01  0.84060123828E-03  0.10201893277E+01  0.10199130575E+01 0.  0.
     999903    2    3    3    0    0  0.99011263719E-01  0.29184262509E-01  0.79957816724E-01  0.13166972346E+00  0.16991530201E-01 0.  0.
         14    1    1    2    0    0 -0.53593132489E-02 -0.23112565249E-01 -0.84060123828E-03  0.23740672302E-01  0.00000000000E+00 0. -1.
     999901    1    3    3    0    0 -0.93651950470E-01 -0.60716972595E-02 -0.79117215486E-01  0.88851960424E+00  0.88000000000E+00 0.  1.
        -11    1    4    4    0    0  0.66849428868E-01  0.11929489205E-01  0.55866710828E-01  0.87934687992E-01  0.51100000000E-03 0.  1.
         11    1    4    4    0    0  0.32161834851E-01  0.17254773304E-01  0.24091105896E-01  0.43735035464E-01  0.51100000000E-03 0. -1.
</event>
<event>
 8    1  0.1122848E+005  0.1043930E+01  0.7957747E-01            NaN
         13   -1    0    0    0    0  0.00000000000E+00  0.00000000000E+00  0.74505805969E-08  0.10566000000E+00  0.10566000000E+00 0. -1.
     999900   -1    0    0    0    0 -0.00000000000E+00 -0.00000000000E+00 -0.74505805969E-08  0.93827000000E+00  0.93827000000E+00 0.  1.
     999902    2    1    2    0    0  0.17289129817E-01 -0.15114734957E-01  0.48024050424E-02  0.10204687060E+01  0.10201989745E+01 0.  0.
     999903    2    3    3    0    0 -0.25342221154E-01  0.12187676795E+00 -0.22375950019E-01  0.12843576548E+00  0.22335800349E-01 0.  0.
         14    1    1    2    0    0 -0.17289129817E-01  0.15114734957E-01 -0.48024050424E-02  0.23461294015E-01  0.00000000000E+00 0. -1.
     999901    1    3    3    0    0  0.42631350971E-01 -0.13699150291E+00  0.27178355062E-01  0.89203294050E+00  0.88000000000E+00 0. -1.
        -11    1    4    4    0    0  0.16621282905E-02  0.43677832019E-01 -0.64691753660E-02  0.44188539592E-01  0.51100000000E-03 0. -1.
         11    1    4    4    0    0 -0.27004349445E-01  0.78198935932E-01 -0.15906774653E-01  0.84247225893E-01  0.51100000000E-03 0.  1.
</event>
<event>
 8    1  0.1122848E+005  0.1043930E+01  0.7957747E-01            NaN
         13   -1    0    0    0    0  0.00000000000E+00  0.00000000000E+00  0.74505805969E-08  0.10566000000E+00  0.10566000000E+00 0.  1.
     999900   -1    0    0    0    0 -0.00000000000E+00 -0.00000000000E+00 -0.74505805969E-08  0.93827000000E+00  0.93827000000E+00 0.  1.
     999902    2    1    2    0    0  0.15101368754E-01  0.48959467731E-02 -0.19978914939E-01  0.10184117972E+01  0.10180920440E+01 0.  0.
     999903    2    3    3    0    0 -0.34932091478E-01 -0.12131911237E+00 -0.77709454049E-03  0.12779274382E+00  0.19794025793E-01 0.  0.
         14    1    1    2    0    0 -0.15101368754E-01 -0.48959467731E-02  0.19978914939E-01  0.25518202820E-01  0.00000000000E+00 0.  1.
     999901    1    3    3    0    0  0.50033460232E-01  0.12621505914E+00 -0.19201820398E-01  0.89061905336E+00  0.88000000000E+00 0. -1.
        -11    1    4    4    0    0 -0.24421957876E-01 -0.97805122882E-01 -0.77435160822E-02  0.10110636602E+00  0.51100000000E-03 0.  1.
         11    1    4    4    0    0 -0.10510133602E-01 -0.23513989485E-01  0.69664215417E-02  0.26686377798E-01  0.51100000000E-03 0. -1.
</event>
<event>
 8    1  0.1122848E+005  0.1043930E+01  0.7957747E-01            NaN
         13   -1    0    0    0    0  0.00000000000E+00  0.00000000000E+00  0.74505805969E-08  0.10566000000E+00  0.10566000000E+00 0.  1.
     999900   -1    0    0    0    0 -0.00000000000E+00 -0.00000000000E+00 -0.74505805969E-08  0.93827000000E+00  0.93827000000E+00 0.  1.
     999902    2    1    2    0    0 -0.22176742334E-01 -0.21714331261E-02 -0.68781142742E-02  0.10206098054E+01  0.10203433458E+01 0.  0.
     999903    2    3    3    0    0  0.11629734200E+00  0.48938120294E-01  0.12674531329E-01  0.12810234632E+00  0.18153677717E-01 0.  0.
         14    1    1    2    0    0  0.22176742334E-01  0.21714331261E-02  0.68781142742E-02  0.23320194646E-01  0.00000000000E+00 0.  1.
     999901    1    3    3    0    0 -0.13847408433E+00 -0.51109553420E-01 -0.19552645604E-01  0.89250745903E+00  0.88000000000E+00 0.  1.
        -11    1    4    4    0    0  0.18980209905E-01  0.29902215354E-02 -0.26272181757E-02  0.19399824463E-01  0.51100000000E-03 0. -1.
         11    1    4    4    0    0  0.97317132092E-01  0.45947898759E-01  0.15301749505E-01  0.10870252186E+00  0.51100000000E-03 0.  1.
</event>
<event>
 8    1  0.1122848E+005  0.1043930E+01  0.7957747E-01            NaN
         13   -1    0    0    0    0  0.00000000000E+00  0.00000000000E+00  0.74505805969E-08  0.10566000000E+00  0.10566000000E+00 0. -1.
     999900   -1    0    0    0    0 -0.00000000000E+00 -0.00000000000E+00 -0.74505805969E-08  0.93827000000E+00  0.93827000000E+00 0.  1.
     999902    2    1    2    0    0  0.19392679376E-01 -0.89458920004E-02 -0.81884322230E-02  0.10210574090E+01  0.10208011937E+01 0.  0.
     999903    2    3    3    0    0 -0.10448235280E+00 -0.74393062149E-01  0.38185874511E-02  0.12989383018E+00  0.20172648955E-01 0.  0.
         14    1    1    2    0    0 -0.19392679376E-01  0.89458920004E-02  0.81884322230E-02  0.22872591006E-01  0.00000000000E+00 0.  1.
     999901    1    3    3    0    0  0.12387503218E+00  0.65447170149E-01 -0.12007019674E-01  0.89116357881E+00  0.88000000000E+00 0. -1.
        -11    1    4    4    0    0 -0.64029536022E-01 -0.36032978789E-01 -0.40741068185E-02  0.73586795765E-01  0.51100000000E-03 0. -1.
         11    1    4    4    0    0 -0.40452816783E-01 -0.38360083361E-01  0.78926942695E-02  0.56307034418E-01  0.51100000000E-03 0.  1.
</event>
<event>
 8    1  0.1122848E+005  0.1043930E+01  0.7957747E-01            NaN
         13   -1    0    0    0    0  0.00000000000E+00  0.00000000000E+00  0.74505805969E-08  0.10566000000E+00  0.10566000000E+00 0. -1.
     999900   -1    0    0    0    0 -0.00000000000E+00 -0.00000000000E+00 -0.74505805969E-08  0.93827000000E+00  0.93827000000E+00 0.  1.
     999902    2    1    2    0    0 -0.91586236015E-02 -0.19794595107E-01  0.83411229448E-02  0.10205787535E+01  0.10203115756E+01 0.  0.
     999903    2    3    3    0    0 -0.11077159332E+00 -0.64869072732E-01  0.29775419439E-01  0.13332662854E+00  0.20274905480E-01 0.  0.
         14    1    1    2    0    0  0.91586236015E-02  0.19794595107E-01 -0.83411229448E-02  0.23351246513E-01  0.00000000000E+00 0.  1.
     999901    1    3    3    0    0  0.10161296972E+00  0.45074477625E-01 -0.21434296494E-01  0.88725212494E+00  0.88000000000E+00 0.  1.
        -11    1    4    4    0    0 -0.42631980643E-01 -0.36522732977E-01  0.11785869435E-01  0.57363434669E-01  0.51100000000E-03 0.  1.
         11    1    4    4    0    0 -0.68139612678E-01 -0.28346339755E-01  0.17989550004E-01  0.75963193876E-01  0.51100000000E-03 0. -1.
</event>
<event>
 8    1  0.1122848E+005  0.1043930E+01  0.7957747E-01            NaN
         13   -1    0    0    0    0  0.00000000000E+00  0.00000000000E+00  0.74505805969E-08  0.10566000000E+00  0.10566000000E+00 0.  1.
     999900   -1    0    0    0    0 -0.00000000000E+00 -0.00000000000E+00 -0.74505805969E-08  0.93827000000E+00  0.93827000000E+00 0.  1.
     999902    2    1    2    0    0 -0.55427190243E-03  0.22420284957E-01  0.77387001607E-02  0.10202052476E+01  0.10199293522E+01 0.  0.
     999903    2    3    3    0    0  0.11142600921E+00 -0.48026860148E-01  0.41155774174E-01  0.12968905774E+00  0.20077826714E-01 0.  0.
         14    1    1    2    0    0  0.55427190243E-03 -0.22420284957E-01 -0.77387001607E-02  0.23724752371E-01  0.00000000000E+00 0. -1.
     999901    1    3    3    0    0 -0.11198028112E+00  0.70447145104E-01 -0.33417074013E-01  0.89051618989E+00  0.88000000000E+00 0. -1.
        -11    1    4    4    0    0  0.62035549852E-01 -0.20036676827E-01  0.30289203049E-01  0.71885845658E-01  0.51100000000E-03 0. -1.
         11    1    4    4    0    0  0.49390459363E-01 -0.27990183321E-01  0.10866571125E-01  0.57803212086E-01  0.51100000000E-03 0.  1.
</event>
<event>
 8    1  0.1122848E+005  0.1043930E+01  0.7957747E-01            NaN
         13   -1    0    0    0    0  0.00000000000E+00  0.00000000000E+00  0.74505805969E-08  0.10566000000E+00  0.10566000000E+00 0. -1.
     999900   -1    0    0    0    0 -0.00000000000E+00 -0.00000000000E+00 -0.74505805969E-08  0.93827000000E+00  0.93827000000E+00 0. -1.
     999902    2    1    2    0    0 -0.18208322521E-01 -0.14144047089E-01  0.51115435086E-02  0.10203137989E+01  0.10200404518E+01 0.  0.
     999903    2    3    3    0    0 -0.72754025865E-01  0.88990631326E-01 -0.57646185667E-01  0.13039777578E+00  0.21633688152E-01 0.  0.
         14    1    1    2    0    0  0.18208322521E-01  0.14144047089E-01 -0.51115435086E-02  0.23616201094E-01  0.00000000000E+00 0.  1.
     999901    1    3    3    0    0  0.54545703344E-01 -0.10313467841E+00  0.62757729176E-01  0.88991602313E+00  0.88000000000E+00 0.  1.
        -11    1    4    4    0    0 -0.65822592144E-01  0.76338468781E-01 -0.57323474829E-01  0.11595868807E+00  0.51100000000E-03 0. -1.
         11    1    4    4    0    0 -0.69314337210E-02  0.12652162545E-01 -0.32271083804E-03  0.14439087706E-01  0.51100000000E-03 0.  1.
</event>
<event>
 8    1  0.1122848E+005  0.1043930E+01  0.7957747E-01            NaN
         13   -1    0    0    0    0  0.00000000000E+00  0.00000000000E+00  0.74505805969E-08  0.10566000000E+00  0.10566000000E+00 0.  1.
     999900   -1    0    0    0    0 -0.00000000000E+00 -0.00000000000E+00 -0.74505805969E-08  0.93827000000E+00  0.93827000000E+00 0. -1.
     999902    2    1    2    0    0 -0.72735935371E-02 -0.92476948850E-02 -0.17975446483E-01  0.10224464784E+01  0.10222207489E+01 0.  0.
     999903    2    3    3    0    0 -0.95967799906E-01  0.16306561436E-01  0.85951079705E-01  0.13153660356E+00  0.20942001081E-01 0.  0.
         14    1    1    2    0    0  0.72735935371E-02  0.92476948850E-02  0.17975446483E-01  0.21483521589E-01  0.00000000000E+00 0.  1.
     999901    1    3    3    0    0  0.88694206369E-01 -0.25554256321E-01 -0.10392652619E+00  0.89090987485E+00  0.88000000000E+00 0. -1.
        -11    1    4    4    0    0 -0.52386739302E-01  0.18099921546E-01  0.54721729208E-01  0.77889064593E-01  0.51100000000E-03 0. -1.
         11    1    4    4    0    0 -0.43581060604E-01 -0.17933601103E-02  0.31229350496E-01  0.53647538967E-01  0.51100000000E-03 0.  1.
</event>
<event>
 8    1  0.1122848E+005  0.1043930E+01  0.7957747E-01            NaN
         13   -1    0    0    0    0  0.00000000000E+00  0.00000000000E+00  0.74505805969E-08  0.10566000000E+00  0.10566000000E+00 0.  1.
     999900   -1    0    0    0    0 -0.00000000000E+00 -0.00000000000E+00 -0.74505805969E-08  0.93827000000E+00  0.93827000000E+00 0. -1.
     999902    2    1    2    0    0  0.21454135942E-01  0.20745468652E-02 -0.71465519820E-02  0.10212219200E+01  0.10209694182E+01 0.  0.
     999903    2    3    3    0    0  0.11913613499E+00 -0.30803898620E-01  0.49279363054E-01  0.13341189017E+00  0.15098939891E-01 0.  0.
         14    1    1    2    0    0 -0.21454135942E-01 -0.20745468652E-02  0.71465519820E-02  0.22708080037E-01  0.00000000000E+00 0.  1.
     999901    1    3    3    0    0 -0.97681999044E-01  0.32878445485E-01 -0.56425915036E-01  0.88781002979E+00  0.88000000000E+00 0. -1.
        -11    1    4    4    0    0  0.57015651815E-01 -0.81887623848E-02  0.18620011966E-01  0.60537644056E-01  0.51100000000E-03 0.  1.
         11    1    4    4    0    0  0.62120483172E-01 -0.22615136235E-01  0.30659351088E-01  0.72874246113E-01  0.51100000000E-03 0. -1.
</event>
<event>
 8    1  0.1122848E+005  0.1043930E+01  0.7957747E-01            NaN
         13   -1    0    0    0    0  0.00000000000E+00  0.00000000000E+00  0.74505805969E-08  0.10566000000E+00  0.10566000000E+00 0.  1.
     999900   -1    0    0    0    0 -0.00000000000E+00 -0.00000000000E+00 -0.74505805969E-08  0.93827000000E+00  0.93827000000E+00 0. -1.
     999902    2    1    2    0    0  0.47001022171E-02  0.78043142805E-02  0.22674353735E-01  0.10194938669E+01  0.10192009714E+01 0.  0.
     999903    2    3    3    0    0 -0.12616224309E+00 -0.73833074468E-02 -0.15107490693E-01  0.12888560004E+00  0.20293762888E-01 0.  0.
         14    1    1    2    0    0 -0.47001022171E-02 -0.78043142805E-02 -0.22674353735E-01  0.24436133073E-01  0.00000000000E+00 0. -1.
     999901    1    3    3    0    0  0.13086234531E+00  0.15187621727E-01  0.37781844428E-01  0.89060826688E+00  0.88000000000E+00 0.  1.
        -11    1    4    4    0    0 -0.75662280286E-01  0.10608013524E-03 -0.76597276762E-04  0.75664118968E-01  0.51100000000E-03 0. -1.
         11    1    4    4    0    0 -0.50499962808E-01 -0.74893875821E-02 -0.15030893416E-01  0.53221481075E-01  0.51100000000E-03 0.  1.
</event>
<event>
 8    1  0.1122848E+005  0.1043930E+01  0.7957747E-01            NaN
         13   -1    0    0    0    0  0.00000000000E+00  0.00000000000E+00  0.74505805969E-08  0.10566000000E+00  0.10566000000E+00 0.  1.
     999900   -1    0    0    0    0 -0.00000000000E+00 -0.00000000000E+00 -0.74505805969E-08  0.93827000000E+00  0.93827000000E+00 0. -1.
     999902    2    1    2    0    0 -0.16771624394E-01  0.15826210307E-01  0.13998545405E-01  0.10169537958E+01  0.10165959410E+01 0.  0.
     999903    2    3    3    0    0 -0.63273609368E-01 -0.22284238999E-01 -0.10599228445E+00  0.12677817260E+00  0.18390316354E-01 0.  0.
         14    1    1    2    0    0  0.16771624394E-01 -0.15826210307E-01 -0.13998545405E-01  0.26976204161E-01  0.00000000000E+00 0. -1.
     999901    1    3    3    0    0  0.46501984975E-01  0.38110449306E-01  0.11999082986E+00  0.89017562324E+00  0.88000000000E+00 0.  1.
        -11    1    4    4    0    0 -0.23941656814E-01  0.75946627970E-03 -0.35452171166E-01  0.42788985515E-01  0.51100000000E-03 0.  1.
         11    1    4    4    0    0 -0.39331952554E-01 -0.23043705278E-01 -0.70540113284E-01  0.83989187089E-01  0.51100000000E-03 0. -1.
</event>
<event>
 8    1  0.1122848E+005  0.1043930E+01  0.7957747E-01            NaN
         13   -1    0    0    0    0  0.00000000000E+00  0.00000000000E+00  0.74505805969E-08  0.10566000000E+00  0.10566000000E+00 0.  1.
     999900   -1    0    0    0    0 -0.00000000000E+00 -0.00000000000E+00 -0.74505805969E-08  0.93827000000E+00  0.93827000000E+00 0.  1.
     999902    2    1    2    0    0  0.99240601451E-02 -0.10564214081E-01  0.19517477541E-01  0.10196190659E+01  0.10193292000E+01 0.  0.
     999903    2    3    3    0    0  0.85970194979E-01 -0.89641223935E-01  0.41629882506E-01  0.13253105075E+00  0.20124831469E-01 0.  0.
         14    1    1    2    0    0 -0.99240601451E-02  0.10564214081E-01 -0.19517477541E-01  0.24310934135E-01  0.00000000000E+00 0. -1.
     999901    1    3    3    0    0 -0.76046134834E-01  0.79077009854E-01 -0.22112404965E-01  0.88708801512E+00  0.88000000000E+00 0. -1.
        -11    1    4    4    0    0  0.63903468475E-01 -0.75464165413E-01  0.38474285072E-01  0.10610855421E+00  0.51100000000E-03 0. -1.
         11    1    4    4    0    0  0.22066726504E-01 -0.14177058523E-01  0.31555974344E-02  0.26422496534E-01  0.51100000000E-03 0.  1.
</event>
<event>
 8    1  0.1122848E+005  0.1043930E+01  0.7957747E-01            NaN
         13   -1    0    0    0    0  0.00000000000E+00  0.00000000000E+00  0.74505805969E-08  0.10566000000E+00  0.10566000000E+00 0. -1.
     999900   -1    0    0    0    0 -0.00000000000E+00 -0.00000000000E+00 -0.74505805969E-08  0.93827000000E+00  0.93827000000E+00 0. -1.
     999902    2    1    2    0    0  0.13150210630E-01 -0.17112922127E-01 -0.77330419449E-02  0.10210044666E+01  0.10207470503E+01 0.  0.
     999903    2    3    3    0    0 -0.11494431939E+00  0.32258120165E-01  0.38850002558E-01  0.12914366555E+00  0.30265174319E-01 0.  0.
         14    1    1    2    0    0 -0.13150210630E-01  0.17112922127E-01  0.77330419449E-02  0.22925533386E-01  0.00000000000E+00 0. -1.
     999901    1    3    3    0    0  0.12809453002E+00 -0.49371042292E-01 -0.46583044503E-01  0.89186080106E+00  0.88000000000E+00 0. -1.
        -11    1    4    4    0    0 -0.78136432409E-01  0.18461025329E-01  0.40236155645E-01  0.89807131498E-01  0.51100000000E-03 0. -1.
         11    1    4    4    0    0 -0.36807886981E-01  0.13797094836E-01 -0.13861530868E-02  0.39336534053E-01  0.51100000000E-03 0.  1.
</event>
<event>
 7    1  0.1122848E+005  0.1043930E+01  0.7957747E-01            NaN
         13   -1    0    0    0    0  0.00000000000E+00  0.00000000000E+00  0.74505805969E-08  0.10566000000E+00  0.10566000000E+00 0.  1.
     999900   -1    0    0    0    0 -0.00000000000E+00 -0.00000000000E+00 -0.74505805969E-08  0.93827000000E+00  0.93827000000E+00 0.  1.
     999903    2    1    2    0    0  0.61709033398E-01  0.24632092679E-01  0.75030722126E-01  0.10196243503E+00  0.18761239340E-01 0.  0.
         14    1    1    2    0    0  0.46734337179E-01  0.87964855455E-02  0.15638675258E-01  0.50060409441E-01  0.00000000000E+00 0. -1.
     999901    1    1    2    0    0 -0.10844337058E+00 -0.33428578224E-01 -0.90669397385E-01  0.89190715553E+00  0.88000000000E+00 0. -1.
        -11    1    3    3    0    0  0.24058238181E-01  0.68421658072E-02  0.41668096176E-01  0.48601496039E-01  0.51100000000E-03 0. -1.
         11    1    3    3    0    0  0.37650795217E-01  0.17789926871E-01  0.33362625950E-01  0.53360938990E-01  0.51100000000E-03 0.  1.
</event>
<event>
 8    1  0.1122848E+005  0.1043930E+01  0.7957747E-01            NaN
         13   -1    0    0    0    0  0.00000000000E+00  0.00000000000E+00  0.74505805969E-08  0.10566000000E+00  0.10566000000E+00 0. -1.
     999900   -1    0    0    0    0 -0.00000000000E+00 -0.00000000000E+00 -0.74505805969E-08  0.93827000000E+00  0.93827000000E+00 0.  1.
     999902    2    1    2    0    0 -0.21412149252E-01 -0.72551830437E-02 -0.64228351817E-02  0.10204274336E+01  0.10201567412E+01 0.  0.
     999903    2    3    3    0    0  0.71166749187E-01  0.10441640852E+00 -0.57274996286E-02  0.12855194883E+00  0.22919571104E-01 0.  0.
         14    1    1    2    0    0  0.21412149252E-01  0.72551830437E-02  0.64228351817E-02  0.23502566420E-01  0.00000000000E+00 0. -1.
     999901    1    3    3    0    0 -0.92578898439E-01 -0.11167159156E+00 -0.69533555312E-03  0.89187548475E+00  0.88000000000E+00 0. -1.
        -11    1    4    4    0    0  0.51210127836E-01  0.85906317281E-01 -0.11655138871E-01  0.10068999913E+00  0.51100000000E-03 0.  1.
         11    1    4    4    0    0  0.19956621351E-01  0.18510091236E-01  0.59276392420E-02  0.27861949704E-01  0.51100000000E-03 0. -1.
</event>
<event>
 8    1  0.1122848E+005  0.1043930E+01  0.7957747E-01            NaN
         13   -1    0    0    0    0  0.00000000000E+00  0.00000000000E+00  0.74505805969E-08  0.10566000000E+00  0.10566000000E+00 0. -1.
     999900   -1    0    0    0    0 -0.00000000000E+00 -0.00000000000E+00 -0.74505805969E-08  0.93827000000E+00  0.93827000000E+00 0.  1.
     999902    2    1    2    0    0 -0.20860449420E-02 -0.83392244137E-02 -0.22000100965E-01  0.10203101209E+01  0.10200366876E+01 0.  0.
     999903    2    3    3    0    0  0.76835719771E-01  0.74983941730E-01 -0.73010630773E-01  0.13139310050E+00  0.20181062995E-01 0.  0.
         14    1    1    2    0    0  0.20860449420E-02  0.83392244137E-02  0.22000100965E-01  0.23619879123E-01  0.00000000000E+00 0. -1.
     999901    1    3    3    0    0 -0.78921764713E-01 -0.83323166143E-01  0.51010529808E-01  0.88891702038E+00  0.88000000000E+00 0.  1.
        -11    1    4    4    0    0  0.30710202154E-01  0.26258555595E-01 -0.16419371193E-01  0.43617486513E-01  0.51100000000E-03 0. -1.
         11    1    4    4    0    0  0.46125517617E-01  0.48725386134E-01 -0.56591259580E-01  0.87775613989E-01  0.51100000000E-03 0.  1.
</event>
<event>
 8    1  0.1122848E+005  0.1043930E+01  0.7957747E-01            NaN
         13   -1    0    0    0    0  0.00000000000E+00  0.00000000000E+00  0.74505805969E-08  0.10566000000E+00  0.10566000000E+00 0.  1.
     999900   -1    0    0    0    0 -0.00000000000E+00 -0.00000000000E+00 -0.74505805969E-08  0.93827000000E+00  0.93827000000E+00 0. -1.
     999902    2    1    2    0    0 -0.11905987696E-01 -0.10671772464E-01  0.17726294231E-01  0.10200582431E+01  0.10197788773E+01 0.  0.
     999903    2    3    3    0    0  0.87885770776E-01  0.83722992118E-01  0.39199201458E-01  0.12914306622E+00  0.20196683989E-01 0.  0.
         14    1    1    2    0    0  0.11905987696E-01  0.10671772464E-01 -0.17726294231E-01  0.23871756904E-01  0.00000000000E+00 0. -1.
     999901    1    3    3    0    0 -0.99791758472E-01 -0.94394764582E-01 -0.21472907227E-01  0.89091517687E+00  0.88000000000E+00 0.  1.
        -11    1    4    4    0    0  0.20872646464E-01  0.23341696246E-01  0.19244170363E-01  0.36757330806E-01  0.51100000000E-03 0. -1.
         11    1    4    4    0    0  0.67013124312E-01  0.60381295872E-01  0.19955031094E-01  0.92385735416E-01  0.51100000000E-03 0.  1.
</event>
<event>
 8    1  0.1122848E+005  0.1043930E+01  0.7957747E-01            NaN
         13   -1    0    0    0    0  0.00000000000E+00  0.00000000000E+00  0.74505805969E-08  0.10566000000E+00  0.10566000000E+00 0.  1.
     999900   -1    0    0    0    0 -0.00000000000E+00 -0.00000000000E+00 -0.74505805969E-08  0.93827000000E+00  0.93827000000E+00 0. -1.
     999902    2    1    2    0    0  0.13489386363E-01 -0.32776438208E-03  0.19520732051E-01  0.10201996407E+01  0.10199236133E+01 0.  0.
     999903    2    3    3    0    0 -0.95803730444E-01  0.83142788339E-01 -0.12191380346E-01  0.12895445745E+00  0.19736877180E-01 0.  0.
         14    1    1    2    0    0 -0.13489386363E-01  0.32776438208E-03 -0.19520732051E-01  0.23730359326E-01  0.00000000000E+00 0. -1.
     999901    1    3    3    0    0  0.10929311681E+00 -0.83470552722E-01  0.31712112396E-01  0.89124518323E+00  0.88000000000E+00 0.  1.
        -11    1    4    4    0    0 -0.77858593135E-01  0.59723548725E-01 -0.34913660599E-02  0.98190190728E-01  0.51100000000E-03 0.  1.
         11    1    4    4    0    0 -0.17945137309E-01  0.23419239615E-01 -0.87000142857E-02  0.30764266718E-01  0.51100000000E-03 0. -1.
</event>
<event>
 8    1  0.1122848E+005  0.1043930E+01  0.7957747E-01            NaN
         13   -1    0    0    0    0  0.00000000000E+00  0.00000000000E+00  0.74505805969E-08  0.10566000000E+00  0.10566000000E+00 0. -1.
     999900   -1    0    0    0    0 -0.00000000000E+00 -0.00000000000E+00 -0.74505805969E-08  0.93827000000E+00  0.93827000000E+00 0. -1.
     999902    2    1    2    0    0 -0.12000765896E-01 -0.44657287918E-02 -0.20585500006E-01  0.10196869819E+01  0.10193987528E+01 0.  0.
     999903    2    3    3    0    0 -0.12132830510E+00  0.40938220532E-01  0.18315995218E-01  0.13090840669E+00  0.20125599174E-01 0.  0.
         14    1    1    2    0    0  0.12000765896E-01  0.44657287918E-02  0.20585500006E-01  0.24243018092E-01  0.00000000000E+00 0. -1.
     999901    1    3    3    0    0  0.10932753920E+00 -0.45403949324E-01 -0.38901495224E-01  0.88877857522E+00  0.88000000000E+00 0. -1.
        -11    1    4    4    0    0 -0.62238332782E-01  0.10891710658E-01  0.58753474313E-02  0.63458807560E-01  0.51100000000E-03 0. -1.
         11    1    4    4    0    0 -0.59089972316E-01  0.30046509874E-01  0.12440647787E-01  0.67449599126E-01  0.51100000000E-03 0.  1.
</event>
<event>
 8    1  0.1122848E+005  0.1043930E+01  0.7957747E-01            NaN
         13   -1    0    0    0    0  0.00000000000E+00  0.00000000000E+00  0.74505805969E-08  0.10566000000E+00  0.10566000000E+00 0. -1.
     999900   -1    0    0    0    0 -0.00000000000E+00 -0.00000000000E+00 -0.74505805969E-08  0.93827000000E+00  0.93827000000E+00 0. -1.
     999902    2    1    2    0    0 -0.54648196841E-02 -0.11773576096E-01 -0.19970134164E-01  0.10201121998E+01  0.10198341103E+01 0.  0.
     999903    2    3    3    0    0 -0.29209537399E-01 -0.11819694568E+00 -0.49508729803E-01  0.13289053986E+00  0.19623104101E-01 0.  0.
         14    1    1    2    0    0  0.54648196841E-02  0.11773576096E-01  0.19970134164E-01  0.23817800209E-01  0.00000000000E+00 0. -1.
     999901    1    3    3    0    0  0.23744717715E-01  0.10642336959E+00  0.29538595639E-01  0.88722165993E+00  0.88000000000E+00 0. -1.
        -11    1    4    4    0    0 -0.15206883716E-01 -0.71578456253E-01 -0.19597584515E-01  0.75756525472E-01  0.51100000000E-03 0.  1.
         11    1    4    4    0    0 -0.14002653684E-01 -0.46618489430E-01 -0.29911145288E-01  0.57134014390E-01  0.51100000000E-03 0. -1.
</event>
<event>
 8    1  0.1122848E+005  0.1043930E+01  0.7957747E-01            NaN
         13   -1    0    0    0    0  0.00000000000E+00  0.00000000000E+00  0.74505805969E-08  0.10566000000E+00  0.10566000000E+00 0. -1.
     999900   -1    0    0    0    0 -0.00000000000E+00 -0.00000000000E+00 -0.74505805969E-08  0.93827000000E+00  0.93827000000E+00 0.  1.
     999902    2    1    2    0    0  0.73237563414E-02  0.21751107907E-01 -0.77668425845E-02  0.10197004324E+01  0.10194125269E+01 0.  0.
     999903    2    3    3    0    0 -0.11739433655E+00  0.70879060389E-02  0.49184536296E-01  0.12896305711E+00  0.19511094867E-01 0.  0.
         14    1    1    2    0    0 -0.73237563414E-02 -0.21751107907E-01  0.77668425845E-02  0.24229567595E-01  0.00000000000E+00 0.  1.
     999901    1    3    3    0    0  0.12471809289E+00  0.14663201868E-01 -0.56951378881E-01  0.89073737529E+00  0.88000000000E+00 0.  1.
        -11    1    4    4    0    0 -0.65147233083E-01 -0.14740111381E-02  0.18383784355E-01  0.67709374058E-01  0.51100000000E-03 0. -1.
         11    1    4    4    0    0 -0.52247103469E-01  0.85619171770E-02  0.30800751941E-01  0.61253683055E-01  0.51100000000E-03 0.  1.
</event>
<event>
 8    1  0.1122848E+005  0.1043930E+01  0.7957747E-01            NaN
         13   -1    0    0    0    0  0.00000000000E+00  0.00000000000E+00  0.74505805969E-08  0.10566000000E+00  0.10566000000E+00 0.  1.
     999900   -1    0    0    0    0 -0.00000000000E+00 -0.00000000000E+00 -0.74505805969E-08  0.93827000000E+00  0.93827000000E+00 0.  1.
     999902    2    1    2    0    0  0.83977811793E-02  0.92144442452E-03  0.22316460253E-01  0.10200679761E+01  0.10197888407E+01 0.  0.
     999903    2    3    3    0    0 -0.88181569149E-01 -0.92887827560E-01 -0.44551603129E-03  0.12953675370E+00  0.19376130386E-01 0.  0.
         14    1    1    2    0    0 -0.83977811793E-02 -0.92144442452E-03 -0.22316460253E-01  0.23862023945E-01  0.00000000000E+00 0. -1.
     999901    1    3    3    0    0  0.96579350329E-01  0.93809271984E-01  0.22761976284E-01  0.89053122235E+00  0.88000000000E+00 0.  1.
        -11    1    4    4    0    0 -0.50054898899E-01 -0.65004873044E-01  0.36197060843E-02  0.82124842870E-01  0.51100000000E-03 0.  1.
         11    1    4    4    0    0 -0.38126670251E-01 -0.27882954516E-01 -0.40652221156E-02  0.47411910832E-01  0.51100000000E-03 0. -1.
</event>
<event>
 8    1  0.1122848E+005  0.1043930E+01  0.7957747E-01            NaN
         13   -1    0    0    0    0  0.00000000000E+00  0.00000000000E+00  0.74505805969E-08  0.10566000000E+00  0.10566000000E+00 0.  1.
     999900   -1    0    0    0    0 -0.00000000000E+00 -0.00000000000E+00 -0.74505805969E-08  0.93827000000E+00  0.93827000000E+00 0.  1.
     999902    2    1    2    0    0 -0.16276954509E-02 -0.32371752641E-02 -0.24870566908E-01  0.10187968785E+01  0.10184868217E+01 0.  0.
     999903    2    3    3    0    0  0.61722464090E-01  0.11081984919E+00  0.67649301632E-02  0.12861540703E+00  0.20135965264E-01 0.  0.
         14    1    1    2    0    0  0.16276954509E-02  0.32371752641E-02  0.24870566908E-01  0.25133121463E-01  0.00000000000E+00 0.  1.
     999901    1    3    3    0    0 -0.63350159541E-01 -0.11405702445E+00 -0.31635497071E-01  0.89018147151E+00  0.88000000000E+00 0. -1.
        -11    1    4    4    0    0  0.14910349968E-01  0.16334644716E-01 -0.44766213262E-02  0.22570786731E-01  0.51100000000E-03 0.  1.
         11    1    4    4    0    0  0.46812114122E-01  0.94485204475E-01  0.11241551489E-01  0.10604462030E+00  0.51100000000E-03 0. -1.
</event>
<event>
 8    1  0.1122848E+005  0.1043930E+01  0.7957747E-01            NaN
         13   -1    0    0    0    0  0.00000000000E+00  0.00000000000E+00  0.74505805969E-08  0.10566000000E+00  0.10566000000E+00 0.  1.
     999900   -1    0    0    0    0 -0.00000000000E+00 -0.00000000000E+00 -0.74505805969E-08  0.93827000000E+00  0.93827000000E+00 0.  1.
     999902    2    1    2    0    0 -0.16746484747E-01 -0.16904320336E-01 -0.21734346289E-02  0.10200359711E+01  0.10197560776E+01 0.  0.
     999903    2    3    3    0    0  0.11384081251E+00  0.52484320065E-01 -0.13540337536E-01  0.12762517329E+00  0.19761317567E-01 0.  0.
         14    1    1    2    0    0  0.16746484747E-01  0.16904320336E-01  0.21734346289E-02  0.23894028866E-01  0.00000000000E+00 0. -1.
     999901    1    3    3    0    0 -0.13058729726E+00 -0.69388640400E-01  0.11366902907E-01  0.89241079784E+00  0.88000000000E+00 0. -1.
        -11    1    4    4    0    0  0.53110886019E-01  0.24033688889E-01 -0.16199143085E-01  0.60506675441E-01  0.51100000000E-03 0. -1.
         11    1    4    4    0    0  0.60729926491E-01  0.28450631176E-01  0.26588055492E-02  0.67118497851E-01  0.51100000000E-03 0.  1.
</event>
<event>
 8    1  0.1122848E+005  0.1043930E+01  0.7957747E-01            NaN
         13   -1    0    0    0    0  0.00000000000E+00  0.00000000000E+00  0.74505805969E-08  0.10566000000E+00  0.10566000000E+00 0. -1.
     999900   -1    0    0    0    0 -0.00000000000E+00 -0.00000000000E+00 -0.74505805969E-08  0.93827000000E+00  0.93827000000E+00 0.  1.
     999902    2    1    2    0    0  0.23358929842E-02  0.30963351754E-02 -0.23222216091E-01  0.10203861047E+01  0.10201144483E+01 0.  0.
     999903    2    3    3    0    0 -0.39422725469E-01  0.45896863182E-01 -0.11721014585E+00  0.13336333249E+00  0.19669438965E-01 0.  0.
         14    1    1    2    0    0 -0.23358929842E-02 -0.30963351754E-02  0.23222216091E-01  0.23543895339E-01  0.00000000000E+00 0. -1.
     999901    1    3    3    0    0  0.41758618453E-01 -0.42800528006E-01  0.93987929758E-01  0.88702277217E+00  0.88000000000E+00 0.  1.
        -11    1    4    4    0    0 -0.25054523202E-01  0.14886395869E-01 -0.47634729279E-01  0.55844986072E-01  0.51100000000E-03 0.  1.
         11    1    4    4    0    0 -0.14368202267E-01  0.31010467313E-01 -0.69575416570E-01  0.77518346417E-01  0.51100000000E-03 0. -1.
</event>
<event>
 8    1  0.1122848E+005  0.1043930E+01  0.7957747E-01            NaN
         13   -1    0    0    0    0  0.00000000000E+00  0.00000000000E+00  0.74505805969E-08  0.10566000000E+00  0.10566000000E+00 0. -1.
     999900   -1    0    0    0    0 -0.00000000000E+00 -0.00000000000E+00 -0.74505805969E-08  0.93827000000E+00  0.93827000000E+00 0. -1.
     999902    2    1    2    0    0  0.22133294010E-01  0.62824857180E-02  0.13304146762E-02  0.10208839085E+01  0.10206237467E+01 0.  0.
     999903    2    3    3    0    0 -0.30611096280E-01  0.99769205526E-01  0.76652208642E-01  0.13116759970E+00  0.20939067177E-01 0.  0.
         14    1    1    2    0    0 -0.22133294010E-01 -0.62824857180E-02 -0.13304146762E-02  0.23046091507E-01  0.00000000000E+00 0.  1.
     999901    1    3    3    0    0  0.52744390290E-01 -0.93486719808E-01 -0.75321793966E-01  0.88971630879E+00  0.88000000000E+00 0. -1.
        -11    1    4    4    0    0 -0.12766123451E-01  0.20275971600E-01  0.10263766367E-01  0.26070959962E-01  0.51100000000E-03 0. -1.
         11    1    4    4    0    0 -0.17844972829E-01  0.79493233926E-01  0.66388442275E-01  0.10509663974E+00  0.51100000000E-03 0.  1.
</event>
<event>
 8    1  0.1122848E+005  0.1043930E+01  0.7957747E-01            NaN
         13   -1    0    0    0    0  0.00000000000E+00  0.00000000000E+00  0.74505805969E-08  0.10566000000E+00  0.10566000000E+00 0. -1.
     999900   -1    0    0    0    0 -0.00000000000E+00 -0.00000000000E+00 -0.74505805969E-08  0.93827000000E+00  0.93827000000E+00 0.  1.
     999902    2    1    2    0    0 -0.21128279119E-02 -0.72123509062E-02  0.22212044950E-01  0.10204809704E+01  0.10202115241E+01 0.  0.
     999903    2    3    3    0    0 -0.91076174829E-01 -0.42955116902E-01  0.85067359732E-01  0.13304488088E+00  0.18013132653E-01 0.  0.
         14    1    1    2    0    0  0.21128279119E-02  0.72123509062E-02 -0.22212044950E-01  0.23449029580E-01  0.00000000000E+00 0. -1.
     999901    1    3    3    0    0  0.88963346917E-01  0.35742765996E-01 -0.62855314783E-01  0.88743608954E+00  0.88000000000E+00 0. -1.
        -11    1    4    4    0    0 -0.63002298942E-01 -0.27589434505E-01  0.46978970421E-01  0.83293165093E-01  0.51100000000E-03 0.  1.
         11    1    4    4    0    0 -0.28073875887E-01 -0.15365682397E-01  0.38088389311E-01  0.49751715791E-01  0.51100000000E-03 0. -1.
</event>
<event>
 8    1  0.1122848E+005  0.1043930E+01  0.7957747E-01            NaN
         13   -1    0    0    0    0  0.00000000000E+00  0.00000000000E+00  0.74505805969E-08  0.10566000000E+00  0.10566000000E+00 0.  1.
     999900   -1    0    0    0    0 -0.00000000000E+00 -0.00000000000E+00 -0.74505805969E-08  0.93827000000E+00  0.93827000000E+00 0. -1.
     999902    2    1    2    0    0  0.20228255821E-01 -0.11658610047E-01  0.37975765241E-02  0.10202756746E+01  0.10200014339E+01 0.  0.
     999903    2    3    3    0    0  0.11891243177E+00  0.54177248572E-01 -0.28249013684E-02  0.13229099903E+00  0.20434961828E-01 0.  0.
         14    1    1    2    0    0 -0.20228255821E-01  0.11658610047E-01 -0.37975765241E-02  0.23654325381E-01  0.00000000000E+00 0.  1.
     999901    1    3    3    0    0 -0.98684175950E-01 -0.65835858619E-01  0.66224778925E-02  0.88798467559E+00  0.88000000000E+00 0. -1.
        -11    1    4    4    0    0  0.33219958176E-01  0.57662115603E-02 -0.31508604154E-02  0.33867445421E-01  0.51100000000E-03 0.  1.
         11    1    4    4    0    0  0.85692473594E-01  0.48411037011E-01  0.32595904703E-03  0.98423553612E-01  0.51100000000E-03 0. -1.
</event>
<event>
 8    1  0.1122848E+005  0.1043930E+01  0.7957747E-01            NaN
         13   -1    0    0    0    0  0.00000000000E+00  0.00000000000E+00  0.74505805969E-08  0.10566000000E+00  0.10566000000E+00 0.  1.
     999900   -1    0    0    0    0 -0.00000000000E+00 -0.00000000000E+00 -0.74505805969E-08  0.93827000000E+00  0.93827000000E+00 0. -1.
     999902    2    1    2    0    0  0.15463537539E-01  0.16906555031E-01  0.10313281746E-01  0.10188039900E+01  0.10184941108E+01 0.  0.
     999903    2    3    3    0    0  0.61960292327E-01  0.11487149022E+00 -0.81683045738E-03  0.13207801425E+00  0.20233574742E-01 0.  0.
         14    1    1    2    0    0 -0.15463537539E-01 -0.16906555031E-01 -0.10313281746E-01  0.25126009962E-01  0.00000000000E+00 0.  1.
     999901    1    3    3    0    0 -0.46496754788E-01 -0.97964935189E-01  0.11130112204E-01  0.88672597578E+00  0.88000000000E+00 0. -1.
        -11    1    4    4    0    0  0.34630821031E-01  0.43638991505E-01 -0.24020671854E-02  0.55764562158E-01  0.51100000000E-03 0. -1.
         11    1    4    4    0    0  0.27329471296E-01  0.71232498715E-01  0.15852367280E-02  0.76313452097E-01  0.51100000000E-03 0.  1.
</event>
<event>
 8    1  0.1122848E+005  0.1043930E+01  0.7957747E-01            NaN
         13   -1    0    0    0    0  0.00000000000E+00  0.00000000000E+00  0.74505805969E-08  0.10566000000E+00  0.10566000000E+00 0.  1.
     999900   -1    0    0    0    0 -0.00000000000E+00 -0.00000000000E+00 -0.74505805969E-08  0.93827000000E+00  0.93827000000E+00 0. -1.
     999902    2    1    2    0    0  0.10382268781E-01 -0.12234668025E-01  0.18328107948E-01  0.10195702351E+01  0.10192791895E+01 0.  0.
     999903    2    3    3    0    0  0.12772158520E+00  0.10512467247E-01 -0.17126998589E-01  0.13078285221E+00  0.19685148190E-01 0.  0.
         14    1    1    2    0    0 -0.10382268781E-01  0.12234668025E-01 -0.18328107948E-01  0.24359764935E-01  0.00000000000E+00 0. -1.
     999901    1    3    3    0    0 -0.11733931642E+00 -0.22747135273E-01  0.35455106537E-01  0.88878738285E+00  0.88000000000E+00 0.  1.
        -11    1    4    4    0    0  0.58005161836E-01 -0.84831553497E-03 -0.15823844538E-01  0.60132966132E-01  0.51100000000E-03 0. -1.
         11    1    4    4    0    0  0.69716423361E-01  0.11360782782E-01 -0.13031540504E-02  0.70649886080E-01  0.51100000000E-03 0.  1.
</event>
<event>
 8    1  0.1122848E+005  0.1043930E+01  0.7957747E-01            NaN
         13   -1    0    0    0    0  0.00000000000E+00  0.00000000000E+00  0.74505805969E-08  0.10566000000E+00  0.10566000000E+00 0.  1.
     999900   -1    0    0    0    0 -0.00000000000E+00 -0.00000000000E+00 -0.74505805969E-08  0.93827000000E+00  0.93827000000E+00 0. -1.
     999902    2    1    2    0    0 -0.10998679019E-01 -0.69250185762E-02  0.19755756514E-01  0.10202822361E+01  0.10200081493E+01 0.  0.
     999903    2    3    3    0    0 -0.92811256641E-01 -0.57685420337E-01  0.73944621498E-01  0.13337392666E+00  0.19474603626E-01 0.  0.
         14    1    1    2    0    0  0.10998679019E-01  0.69250185762E-02 -0.19755756514E-01  0.23647763909E-01  0.00000000000E+00 0. -1.
     999901    1    3    3    0    0  0.81812577622E-01  0.50760401760E-01 -0.54188864984E-01  0.88690830943E+00  0.88000000000E+00 0. -1.
        -11    1    4    4    0    0 -0.77599830741E-02 -0.11494386456E-01  0.12880968912E-01  0.18934591055E-01  0.51100000000E-03 0. -1.
         11    1    4    4    0    0 -0.85051273567E-01 -0.46191033881E-01  0.61063652586E-01  0.11443933561E+00  0.51100000000E-03 0.  1.
</event>
<event>
 8    1  0.1122848E+005  0.1043930E+01  0.7957747E-01            NaN
         13   -1    0    0    0    0  0.00000000000E+00  0.00000000000E+00  0.74505805969E-08  0.10566000000E+00  0.10566000000E+00 0.  1.
     999900   -1    0    0    0    0 -0.00000000000E+00 -0.00000000000E+00 -0.74505805969E-08  0.93827000000E+00  0.93827000000E+00 0. -1.
     999902    2    1    2    0    0  0.22843235978E-01  0.11877645616E-02  0.49117260392E-02  0.10205345033E+01  0.10202663001E+01 0.  0.
     999903    2    3    3    0    0  0.56936409499E-01  0.75246830667E-01 -0.89752061670E-01  0.13171037980E+00  0.19706631412E-01 0.  0.
         14    1    1    2    0    0 -0.22843235978E-01 -0.11877645616E-02 -0.49117260392E-02  0.23395496731E-01  0.00000000000E+00 0. -1.
     999901    1    3    3    0    0 -0.34093173520E-01 -0.74059066106E-01  0.94663787709E-01  0.88882412347E+00  0.88000000000E+00 0.  1.
        -11    1    4    4    0    0  0.19015103281E-01  0.25048137338E-01 -0.17831344820E-01  0.36155239122E-01  0.51100000000E-03 0.  1.
         11    1    4    4    0    0  0.37921306218E-01  0.50198693330E-01 -0.71920716850E-01  0.95555140681E-01  0.51100000000E-03 0. -1.
</event>
<event>
 8    1  0.1122848E+005  0.1043930E+01  0.7957747E-01            NaN
         13   -1    0    0    0    0  0.00000000000E+00  0.00000000000E+00  0.74505805969E-08  0.10566000000E+00  0.10566000000E+00 0.  1.
     999900   -1    0    0    0    0 -0.00000000000E+00 -0.00000000000E+00 -0.74505805969E-08  0.93827000000E+00  0.93827000000E+00 0. -1.
     999902    2    1    2    0    0  0.23287584380E-02 -0.24651900274E-01  0.17619304482E-01  0.10135395542E+01  0.10130838311E+01 0.  0.
     999903    2    3    3    0    0  0.94805038933E-01 -0.30676410215E-01  0.75786116405E-01  0.12676363261E+00  0.19910940762E-01 0.  0.
         14    1    1    2    0    0 -0.23287584380E-02  0.24651900274E-01 -0.17619304482E-01  0.30390445759E-01  0.00000000000E+00 0. -1.
     999901    1    3    3    0    0 -0.92476280495E-01  0.60245099410E-02 -0.58166811923E-01  0.88677592163E+00  0.88000000000E+00 0. -1.
        -11    1    4    4    0    0  0.27319886219E-01 -0.47979232371E-02  0.11497340997E-01  0.30030754593E-01  0.51100000000E-03 0. -1.
         11    1    4    4    0    0  0.67485152714E-01 -0.25878486978E-01  0.64288775408E-01  0.96732878018E-01  0.51100000000E-03 0.  1.
</event>
<event>
 8    1  0.1122848E+005  0.1043930E+01  0.7957747E-01            NaN
         13   -1    0    0    0    0  0.00000000000E+00  0.00000000000E+00  0.74505805969E-08  0.10566000000E+00  0.10566000000E+00 0.  1.
     999900   -1    0    0    0    0 -0.00000000000E+00 -0.00000000000E+00 -0.74505805969E-08  0.93827000000E+00  0.93827000000E+00 0.  1.
     999902    2    1    2    0    0  0.59611150975E-02  0.21893209489E-01 -0.64056294723E-02  0.10203529009E+01  0.10200804687E+01 0.  0.
     999903    2    3    3    0    0 -0.61883049071E-01 -0.10878703068E+00 -0.18188106196E-01  0.12804186622E+00  0.19994561546E-01 0.  0.
         14    1    1    2    0    0 -0.59611150975E-02 -0.21893209489E-01  0.64056294723E-02  0.23577099140E-01  0.00000000000E+00 0.  1.
     999901    1    3    3    0    0  0.67844164169E-01  0.13068024017E+00  0.11782476723E-01  0.89231103464E+00  0.88000000000E+00 0. -1.
        -11    1    4    4    0    0 -0.39083839806E-01 -0.60107207813E-01 -0.19381057796E-01  0.74271862016E-01  0.51100000000E-03 0.  1.
         11    1    4    4    0    0 -0.22799209265E-01 -0.48679822867E-01  0.11929516004E-02  0.53770004203E-01  0.51100000000E-03 0. -1.
</event>
<event>
 8    1  0.1122848E+005  0.1043930E+01  0.7957747E-01            NaN
         13   -1    0    0    0    0  0.00000000000E+00  0.00000000000E+00  0.74505805969E-08  0.10566000000E+00  0.10566000000E+00 0.  1.
     999900   -1    0    0    0    0 -0.00000000000E+00 -0.00000000000E+00 -0.74505805969E-08  0.93827000000E+00  0.93827000000E+00 0. -1.
     999902    2    1    2    0    0  0.19668779412E-01  0.12881415490E-01  0.98903769255E-02  0.10184229166E+01  0.10181034455E+01 0.  0.
     999903    2    3    3    0    0 -0.86841006633E-01 -0.76369259253E-01  0.47428137340E-01  0.12672840560E+00  0.20905415144E-01 0.  0.
         14    1    1    2    0    0 -0.19668779412E-01 -0.12881415490E-01 -0.98903769255E-02  0.25507083414E-01  0.00000000000E+00 0. -1.
     999901    1    3    3    0    0  0.10650978605E+00  0.89250674743E-01 -0.37537760415E-01  0.89169451099E+00  0.88000000000E+00 0.  1.
        -11    1    4    4    0    0 -0.81434593332E-01 -0.62709183961E-01  0.42522014888E-01  0.11123136975E+00  0.51100000000E-03 0.  1.
         11    1    4    4    0    0 -0.54064133012E-02 -0.13660075292E-01  0.49061224520E-02  0.15497035855E-01  0.51100000000E-03 0. -1.
</event>
<event>
 8    1  0.1122848E+005  0.1043930E+01  0.7957747E-01            NaN
         13   -1    0    0    0    0  0.00000000000E+00  0.00000000000E+00  0.74505805969E-08  0.10566000000E+00  0.10566000000E+00 0. -1.
     999900   -1    0    0    0    0 -0.00000000000E+00 -0.00000000000E+00 -0.74505805969E-08  0.93827000000E+00  0.93827000000E+00 0. -1.
     999902    2    1    2    0    0  0.16238228951E-02 -0.21083659043E-01 -0.98250440242E-02  0.10206128610E+01  0.10203464721E+01 0.  0.
     999903    2    3    3    0    0 -0.53056749412E-01 -0.70583579342E-01  0.95220084544E-01  0.13130150603E+00  0.19394861571E-01 0.  0.
         14    1    1    2    0    0 -0.16238228951E-02  0.21083659043E-01  0.98250440242E-02  0.23317138965E-01  0.00000000000E+00 0. -1.
     999901    1    3    3    0    0  0.54680572307E-01  0.49499920299E-01 -0.10504512857E+00  0.88931135500E+00  0.88000000000E+00 0.  1.
        -11    1    4    4    0    0 -0.82914709671E-02 -0.25713077394E-01  0.28447532512E-01  0.39235622423E-01  0.51100000000E-03 0. -1.
         11    1    4    4    0    0 -0.44765278444E-01 -0.44870501949E-01  0.66772552032E-01  0.92065883612E-01  0.51100000000E-03 0.  1.
</event>
<event>
 8    1  0.1122848E+005  0.1043930E+01  0.7957747E-01            NaN
         13   -1    0    0    0    0  0.00000000000E+00  0.00000000000E+00  0.74505805969E-08  0.10566000000E+00  0.10566000000E+00 0. -1.
     999900   -1    0    0    0    0 -0.00000000000E+00 -0.00000000000E+00 -0.74505805969E-08  0.93827000000E+00  0.93827000000E+00 0. -1.
     999902    2    1    2    0    0 -0.39490070580E-02  0.15328566744E-01 -0.17088939693E-01  0.10206364070E+01  0.10203705620E+01 0.  0.
     999903    2    3    3    0    0 -0.75090451733E-01  0.24075649460E-01 -0.10549644808E+00  0.13330698443E+00  0.20567904669E-01 0.  0.
         14    1    1    2    0    0  0.39490070580E-02 -0.15328566744E-01  0.17088939693E-01  0.23293593003E-01  0.00000000000E+00 0. -1.
     999901    1    3    3    0    0  0.71141444675E-01 -0.87470827154E-02  0.88407508389E-01  0.88732942256E+00  0.88000000000E+00 0.  1.
        -11    1    4    4    0    0 -0.62620685380E-01  0.25106516617E-01 -0.78246173391E-01  0.10331704693E+00  0.51100000000E-03 0. -1.
         11    1    4    4    0    0 -0.12469766353E-01 -0.10308671572E-02 -0.27250274691E-01  0.29989937508E-01  0.51100000000E-03 0.  1.
</event>
<event>
 8    1  0.1122848E+005  0.1043930E+01  0.7957747E-01            NaN
         13   -1    0    0    0    0  0.00000000000E+00  0.00000000000E+00  0.74505805969E-08  0.10566000000E+00  0.10566000000E+00 0. -1.
     999900   -1    0    0    0    0 -0.00000000000E+00 -0.00000000000E+00 -0.74505805969E-08  0.93827000000E+00  0.93827000000E+00 0. -1.
     999902    2    1    2    0    0 -0.13123296387E-01 -0.65348927083E-02  0.19246683476E-01  0.10197357743E+01  0.10194487181E+01 0.  0.
     999903    2    3    3    0    0 -0.66107532559E-01 -0.19307224883E-01 -0.10755158260E+00  0.12897864580E+00  0.18032563833E-01 0.  0.
         14    1    1    2    0    0  0.13123296387E-01  0.65348927083E-02 -0.19246683476E-01  0.24194225666E-01  0.00000000000E+00 0.  1.
     999901    1    3    3    0    0  0.52984236172E-01  0.12772332174E-01  0.12679826608E+00  0.89075712853E+00  0.88000000000E+00 0.  1.
        -11    1    4    4    0    0 -0.21946159513E-01 -0.39920487357E-02 -0.21152765959E-01  0.30745259785E-01  0.51100000000E-03 0.  1.
         11    1    4    4    0    0 -0.44161373045E-01 -0.15315176147E-01 -0.86398816644E-01  0.98233386016E-01  0.51100000000E-03 0. -1.
</event>
<event>
 8    1  0.1122848E+005  0.1043930E+01  0.7957747E-01            NaN
         13   -1    0    0    0    0  0.00000000000E+00  0.00000000000E+00  0.74505805969E-08  0.10566000000E+00  0.10566000000E+00 0.  1.
     999900   -1    0    0    0    0 -0.00000000000E+00 -0.00000000000E+00 -0.74505805969E-08  0.93827000000E+00  0.93827000000E+00 0.  1.
     999902    2    1    2    0    0 -0.48053391826E-02  0.17967115573E-01  0.14630965574E-01  0.10202662370E+01  0.10199917748E+01 0.  0.
     999903    2    3    3    0    0 -0.89006894612E-01 -0.75778148600E-01  0.53778019173E-01  0.13042885392E+00  0.21332029768E-01 0.  0.
         14    1    1    2    0    0  0.48053391826E-02 -0.17967115573E-01 -0.14630965574E-01  0.23663763020E-01  0.00000000000E+00 0. -1.
     999901    1    3    3    0    0  0.84201555430E-01  0.93745264172E-01 -0.39147053600E-01  0.88983738306E+00  0.88000000000E+00 0. -1.
        -11    1    4    4    0    0 -0.49118130803E-02 -0.11740345760E-01  0.26470079611E-02  0.13008820026E-01  0.51100000000E-03 0.  1.
         11    1    4    4    0    0 -0.84095081532E-01 -0.64037802839E-01  0.51131011212E-01  0.11742003389E+00  0.51100000000E-03 0. -1.
</event>
<event>
 8    1  0.1122848E+005  0.1043930E+01  0.7957747E-01            NaN
         13   -1    0    0    0    0  0.00000000000E+00  0.00000000000E+00  0.74505805969E-08  0.10566000000E+00  0.10566000000E+00 0. -1.
     999900   -1    0    0    0    0 -0.00000000000E+00 -0.00000000000E+00 -0.74505805969E-08  0.93827000000E+00  0.93827000000E+00 0. -1.
     999902    2    1    2    0    0  0.32704032303E-04  0.23734789718E-01  0.86311771693E-03  0.10201794993E+01  0.10199029976E+01 0.  0.
     999903    2    3    3    0    0  0.58654566477E-01 -0.92158362163E-02  0.11437975796E+00  0.13034339407E+00  0.19528992346E-01 0.  0.
         14    1    1    2    0    0 -0.32704032303E-04 -0.23734789718E-01 -0.86311771693E-03  0.23750500726E-01  0.00000000000E+00 0. -1.
     999901    1    3    3    0    0 -0.58621862444E-01  0.32950625934E-01 -0.11351664024E+00  0.88983610520E+00  0.88000000000E+00 0. -1.
        -11    1    4    4    0    0  0.28664097992E-01  0.27696282420E-02  0.67757509332E-01  0.73625013047E-01  0.51100000000E-03 0.  1.
         11    1    4    4    0    0  0.29990468485E-01 -0.11985464458E-01  0.46622248628E-01  0.56718381027E-01  0.51100000000E-03 0. -1.
</event>
<event>
 8    1  0.1122848E+005  0.1043930E+01  0.7957747E-01            NaN
         13   -1    0    0    0    0  0.00000000000E+00  0.00000000000E+00  0.74505805969E-08  0.10566000000E+00  0.10566000000E+00 0.  1.
     999900   -1    0    0    0    0 -0.00000000000E+00 -0.00000000000E+00 -0.74505805969E-08  0.93827000000E+00  0.93827000000E+00 0.  1.
     999902    2    1    2    0    0  0.13658606729E-01 -0.46532263920E-02 -0.17795651173E-01  0.10210194074E+01  0.10207623303E+01 0.  0.
     999903    2    3    3    0    0  0.88705612757E-01  0.34102316300E-01  0.87298702972E-01  0.13075042079E+00  0.21046502917E-01 0.  0.
         14    1    1    2    0    0 -0.13658606729E-01  0.46532263920E-02  0.17795651173E-01  0.22910592622E-01  0.00000000000E+00 0.  1.
     999901    1    3    3    0    0 -0.75047006028E-01 -0.38755542692E-01 -0.10509435414E+00  0.89026898659E+00  0.88000000000E+00 0.  1.
        -11    1    4    4    0    0  0.26866146827E-01  0.19303397614E-01  0.22824845903E-01  0.40195095674E-01  0.51100000000E-03 0. -1.
         11    1    4    4    0    0  0.61839465930E-01  0.14798918686E-01  0.64473857069E-01  0.90555325118E-01  0.51100000000E-03 0.  1.
</event>
<event>
 8    1  0.1122848E+005  0.1043930E+01  0.7957747E-01            NaN
         13   -1    0    0    0    0  0.00000000000E+00  0.00000000000E+00  0.74505805969E-08  0.10566000000E+00  0.10566000000E+00 0. -1.
     999900   -1    0    0    0    0 -0.00000000000E+00 -0.00000000000E+00 -0.74505805969E-08  0.93827000000E+00  0.93827000000E+00 0. -1.
     999902    2    1    2    0    0 -0.11336871699E-01 -0.17165661391E-01 -0.10096024979E-01  0.10210146272E+01  0.10207574416E+01 0.  0.
     999903    2    3    3    0    0  0.10804920636E+00 -0.11813190384E-01 -0.70143001883E-01  0.13090939519E+00  0.20076019873E-01 0.  0.
         14    1    1    2    0    0  0.11336871699E-01  0.17165661391E-01  0.10096024979E-01  0.22915372816E-01  0.00000000000E+00 0.  1.
     999901    1    3    3    0    0 -0.11938607806E+00 -0.53524710068E-02  0.60046976904E-01  0.89010523199E+00  0.88000000000E+00 0. -1.
        -11    1    4    4    0    0  0.39466757446E-01 -0.13976249171E-01 -0.28330857160E-01  0.50555504869E-01  0.51100000000E-03 0. -1.
         11    1    4    4    0    0  0.68582448919E-01  0.21630587869E-02 -0.41812144722E-01  0.80353890325E-01  0.51100000000E-03 0.  1.
</event>
<event>
 8    1  0.1122848E+005  0.1043930E+01  0.7957747E-01            NaN
         13   -1    0    0    0    0  0.00000000000E+00  0.00000000000E+00  0.74505805969E-08  0.10566000000E+00  0.10566000000E+00 0. -1.
     999900   -1    0    0    0    0 -0.00000000000E+00 -0.00000000000E+00 -0.74505805969E-08  0.93827000000E+00  0.93827000000E+00 0. -1.
     999902    2    1    2    0    0  0.31505724080E-02 -0.20551518396E-01 -0.10268727479E-01  0.10207408263E+01  0.10204773866E+01 0.  0.
     999903    2    3    3    0    0  0.19607768678E-01 -0.33060147809E-01 -0.12571821897E+00  0.13295938344E+00  0.19891935551E-01 0.  0.
         14    1    1    2    0    0 -0.31505724080E-02  0.20551518396E-01  0.10268727479E-01  0.23189173744E-01  0.00000000000E+00 0.  1.
     999901    1    3    3    0    0 -0.16457196270E-01  0.12508629414E-01  0.11544949149E+00  0.88778144281E+00  0.88000000000E+00 0.  1.
        -11    1    4    4    0    0  0.21697539146E-02 -0.17476477257E-01 -0.75966922258E-01  0.77983135918E-01  0.51100000000E-03 0. -1.
         11    1    4    4    0    0  0.17438014764E-01 -0.15583670552E-01 -0.49751296708E-01  0.54976247525E-01  0.51100000000E-03 0.  1.
</event>
<event>
 8    1  0.1122848E+005  0.1043930E+01  0.7957747E-01            NaN
         13   -1    0    0    0    0  0.00000000000E+00  0.00000000000E+00  0.74505805969E-08  0.10566000000E+00  0.10566000000E+00 0.  1.
     999900   -1    0    0    0    0 -0.00000000000E+00 -0.00000000000E+00 -0.74505805969E-08  0.93827000000E+00  0.93827000000E+00 0. -1.
     999902    2    1    2    0    0 -0.53200400251E-02  0.14991262519E-02 -0.22604396938E-01  0.10206596548E+01  0.10203943463E+01 0.  0.
     999903    2    3    3    0    0 -0.50927980609E-01 -0.83696647922E-01 -0.87737771205E-01  0.13297685073E+00  0.19650400786E-01 0.  0.
         14    1    1    2    0    0  0.53200400251E-02 -0.14991262519E-02  0.22604396938E-01  0.23270345212E-01  0.00000000000E+00 0.  1.
     999901    1    3    3    0    0  0.45607940584E-01  0.85195774174E-01  0.65133374267E-01  0.88768280406E+00  0.88000000000E+00 0.  1.
        -11    1    4    4    0    0 -0.17084502065E-01 -0.39659799908E-01 -0.48690077943E-01  0.65082753097E-01  0.51100000000E-03 0. -1.
         11    1    4    4    0    0 -0.33843478544E-01 -0.44036848014E-01 -0.39047693262E-01  0.67894097630E-01  0.51100000000E-03 0.  1.
</event>
<event>
 8    1  0.1122848E+005  0.1043930E+01  0.7957747E-01            NaN
         13   -1    0    0    0    0  0.00000000000E+00  0.00000000000E+00  0.74505805969E-08  0.10566000000E+00  0.10566000000E+00 0. -1.
     999900   -1    0    0    0    0 -0.00000000000E+00 -0.00000000000E+00 -0.74505805969E-08  0.93827000000E+00  0.93827000000E+00 0. -1.
     999902    2    1    2    0    0  0.57002536710E-02 -0.22591296053E-01  0.87268683929E-03  0.10206143158E+01  0.10203479605E+01 0.  0.
     999903    2    3    3    0    0 -0.41692781441E-01  0.11260183102E-01 -0.12140250068E+00  0.13025301612E+00  0.19031586624E-01 0.  0.
         14    1    1    2    0    0 -0.57002536710E-02  0.22591296053E-01 -0.87268683929E-03  0.23315684240E-01  0.00000000000E+00 0. -1.
     999901    1    3    3    0    0  0.47393035112E-01 -0.33851479155E-01  0.12227518752E+00  0.89036129964E+00  0.88000000000E+00 0.  1.
        -11    1    4    4    0    0 -0.68168598106E-02  0.23583838931E-02 -0.47524955167E-01  0.48071967267E-01  0.51100000000E-03 0.  1.
         11    1    4    4    0    0 -0.34875921630E-01  0.89017992092E-02 -0.73877545510E-01  0.82181048851E-01  0.51100000000E-03 0. -1.
</event>
<event>
 8    1  0.1122848E+005  0.1043930E+01  0.7957747E-01            NaN
         13   -1    0    0    0    0  0.00000000000E+00  0.00000000000E+00  0.74505805969E-08  0.10566000000E+00  0.10566000000E+00 0. -1.
     999900   -1    0    0    0    0 -0.00000000000E+00 -0.00000000000E+00 -0.74505805969E-08  0.93827000000E+00  0.93827000000E+00 0.  1.
     999902    2    1    2    0    0  0.71974990161E-03  0.16971402214E-01 -0.15992562842E-01  0.10205995778E+01  0.10203328818E+01 0.  0.
     999903    2    3    3    0    0 -0.76978635538E-01  0.22762391331E-01 -0.10383312463E+00  0.13280087374E+00  0.20271100304E-01 0.  0.
         14    1    1    2    0    0 -0.71974990161E-03 -0.16971402214E-01  0.15992562842E-01  0.23330422184E-01  0.00000000000E+00 0. -1.
     999901    1    3    3    0    0  0.77698385439E-01 -0.57909891164E-02  0.87840561793E-01  0.88779870407E+00  0.88000000000E+00 0.  1.
        -11    1    4    4    0    0 -0.32957699907E-01  0.11562871031E-01 -0.29668381594E-01  0.45829946073E-01  0.51100000000E-03 0. -1.
         11    1    4    4    0    0 -0.44020935631E-01  0.11199520299E-01 -0.74164743041E-01  0.86970927672E-01  0.51100000000E-03 0.  1.
</event>
<event>
 8    1  0.1122848E+005  0.1043930E+01  0.7957747E-01            NaN
         13   -1    0    0    0    0  0.00000000000E+00  0.00000000000E+00  0.74505805969E-08  0.10566000000E+00  0.10566000000E+00 0. -1.
     999900   -1    0    0    0    0 -0.00000000000E+00 -0.00000000000E+00 -0.74505805969E-08  0.93827000000E+00  0.93827000000E+00 0.  1.
     999902    2    1    2    0    0 -0.22721153976E-01  0.47160979504E-02  0.41265681350E-02  0.10203605074E+01  0.10200882531E+01 0.  0.
     999903    2    3    3    0    0  0.34118724378E-02 -0.63624063736E-01  0.11285183361E+00  0.13065578326E+00  0.16605269915E-01 0.  0.
         14    1    1    2    0    0  0.22721153976E-01 -0.47160979504E-02 -0.41265681350E-02  0.23569492622E-01  0.00000000000E+00 0. -1.
     999901    1    3    3    0    0 -0.26133026414E-01  0.68340161686E-01 -0.10872526548E+00  0.88970472412E+00  0.88000000000E+00 0.  1.
        -11    1    4    4    0    0 -0.24827515830E-02 -0.47675919012E-01  0.71857184648E-01  0.86272089435E-01  0.51100000000E-03 0. -1.
         11    1    4    4    0    0  0.58946240207E-02 -0.15948144724E-01  0.40994648966E-01  0.44383693823E-01  0.51100000000E-03 0.  1.
</event>
<event>
 8    1  0.1122848E+005  0.1043930E+01  0.7957747E-01            NaN
         13   -1    0    0    0    0  0.00000000000E+00  0.00000000000E+00  0.74505805969E-08  0.10566000000E+00  0.10566000000E+00 0.  1.
     999900   -1    0    0    0    0 -0.00000000000E+00 -0.00000000000E+00 -0.74505805969E-08  0.93827000000E+00  0.93827000000E+00 0.  1.
     999902    2    1    2    0    0  0.71437400720E-02 -0.69799001757E-02  0.20391480425E-01  0.10212239545E+01  0.10209714985E+01 0.  0.
     999903    2    3    3    0    0  0.75440421142E-01  0.57052074241E-01  0.90760525149E-01  0.13346479073E+00  0.25083483041E-01 0.  0.
         14    1    1    2    0    0 -0.71437400720E-02  0.69799001757E-02 -0.20391480425E-01  0.22706045507E-01  0.00000000000E+00 0. -1.
     999901    1    3    3    0    0 -0.68296681070E-01 -0.64031974416E-01 -0.70369044724E-01  0.88775916376E+00  0.88000000000E+00 0.  1.
        -11    1    4    4    0    0  0.23516955566E-01  0.31592962935E-01  0.29432513835E-01  0.49170077261E-01  0.51100000000E-03 0. -1.
         11    1    4    4    0    0  0.51923465576E-01  0.25459111305E-01  0.61328011314E-01  0.84294713467E-01  0.51100000000E-03 0.  1.
</event>
<event>
 8    1  0.1122848E+005  0.1043930E+01  0.7957747E-01            NaN
         13   -1    0    0    0    0  0.00000000000E+00  0.00000000000E+00  0.74505805969E-08  0.10566000000E+00  0.10566000000E+00 0.  1.
     999900   -1    0    0    0    0 -0.00000000000E+00 -0.00000000000E+00 -0.74505805969E-08  0.93827000000E+00  0.93827000000E+00 0.  1.
     999902    2    1    2    0    0 -0.75608730987E-02  0.48393860249E-02 -0.22183625718E-01  0.10199988548E+01  0.10197180807E+01 0.  0.
     999903    2    3    3    0    0 -0.85758106858E-01 -0.22564492448E-01 -0.96974593203E-01  0.13294785926E+00  0.20185448820E-01 0.  0.
         14    1    1    2    0    0  0.75608730987E-02 -0.48393860249E-02  0.22183625718E-01  0.23931145169E-01  0.00000000000E+00 0.  1.
     999901    1    3    3    0    0  0.78197233760E-01  0.27403878473E-01  0.74790967485E-01  0.88705099557E+00  0.88000000000E+00 0. -1.
        -11    1    4    4    0    0 -0.60837808888E-01 -0.79566812205E-02 -0.57993576865E-01  0.84427861780E-01  0.51100000000E-03 0. -1.
         11    1    4    4    0    0 -0.24920297971E-01 -0.14607811228E-01 -0.38981016338E-01  0.48519997482E-01  0.51100000000E-03 0.  1.
</event>
<event>
 8    1  0.1122848E+005  0.1043930E+01  0.7957747E-01            NaN
         13   -1    0    0    0    0  0.00000000000E+00  0.00000000000E+00  0.74505805969E-08  0.10566000000E+00  0.10566000000E+00 0. -1.
     999900   -1    0    0    0    0 -0.00000000000E+00 -0.00000000000E+00 -0.74505805969E-08  0.93827000000E+00  0.93827000000E+00 0. -1.
     999902    2    1    2    0    0  0.17246542433E-01 -0.13078503883E-01  0.79409953291E-02  0.10208746341E+01  0.10206142605E+01 0.  0.
     999903    2    3    3    0    0  0.72799024922E-01 -0.97016465537E-02  0.10937874822E+00  0.13330091931E+00  0.20288039613E-01 0.  0.
         14    1    1    2    0    0 -0.17246542433E-01  0.13078503883E-01 -0.79409953291E-02  0.23055365895E-01  0.00000000000E+00 0.  1.
     999901    1    3    3    0    0 -0.55552482489E-01 -0.33768573297E-02 -0.10143775290E+00  0.88757371479E+00  0.88000000000E+00 0. -1.
        -11    1    4    4    0    0  0.18541042015E-01  0.65192139643E-03  0.43719326626E-01  0.47495640664E-01  0.51100000000E-03 0.  1.
         11    1    4    4    0    0  0.54257982907E-01 -0.10353567950E-01  0.65659421599E-01  0.85805278650E-01  0.51100000000E-03 0. -1.
</event>
<event>
 8    1  0.1122848E+005  0.1043930E+01  0.7957747E-01            NaN
         13   -1    0    0    0    0  0.00000000000E+00  0.00000000000E+00  0.74505805969E-08  0.10566000000E+00  0.10566000000E+00 0. -1.
     999900   -1    0    0    0    0 -0.00000000000E+00 -0.00000000000E+00 -0.74505805969E-08  0.93827000000E+00  0.93827000000E+00 0. -1.
     999902    2    1    2    0    0 -0.74854174276E-02 -0.13658792392E-01 -0.17676157474E-01  0.10203706998E+01  0.10200986836E+01 0.  0.
     999903    2    3    3    0    0 -0.59119263224E-01  0.78856080081E-01  0.80354031823E-01  0.12861121782E+00  0.19253733890E-01 0.  0.
         14    1    1    2    0    0  0.74854174276E-02  0.13658792392E-01  0.17676157474E-01  0.23559300217E-01  0.00000000000E+00 0. -1.
     999901    1    3    3    0    0  0.51633845796E-01 -0.92514872473E-01 -0.98030189296E-01  0.89175948196E+00  0.88000000000E+00 0. -1.
        -11    1    4    4    0    0 -0.11125974446E-01  0.20727285124E-01  0.29245473292E-01  0.37536202326E-01  0.51100000000E-03 0.  1.
         11    1    4    4    0    0 -0.47993288778E-01  0.58128794957E-01  0.51108558530E-01  0.91075015492E-01  0.51100000000E-03 0. -1.
</event>
<event>
 8    1  0.1122848E+005  0.1043930E+01  0.7957747E-01            NaN
         13   -1    0    0    0    0  0.00000000000E+00  0.00000000000E+00  0.74505805969E-08  0.10566000000E+00  0.10566000000E+00 0.  1.
     999900   -1    0    0    0    0 -0.00000000000E+00 -0.00000000000E+00 -0.74505805969E-08  0.93827000000E+00  0.93827000000E+00 0. -1.
     999902    2    1    2    0    0 -0.10825160744E-01  0.13895977862E-01  0.16433925333E-01  0.10198394166E+01  0.10195548438E+01 0.  0.
     999903    2    3    3    0    0 -0.42177171478E-01  0.87849070332E-01  0.89029065412E-01  0.13320416871E+00  0.17910977707E-01 0.  0.
         14    1    1    2    0    0  0.10825160744E-01 -0.13895977862E-01 -0.16433925333E-01  0.24090583383E-01  0.00000000000E+00 0. -1.
     999901    1    3    3    0    0  0.31352010734E-01 -0.73953092470E-01 -0.72595140079E-01  0.88663524790E+00  0.88000000000E+00 0. -1.
        -11    1    4    4    0    0 -0.29199411517E-01  0.69415575611E-01  0.76757383476E-01  0.10753178511E+00  0.51100000000E-03 0.  1.
         11    1    4    4    0    0 -0.12977759961E-01  0.18433494720E-01  0.12271681936E-01  0.25672383601E-01  0.51100000000E-03 0. -1.
</event>
<event>
 8    1  0.1122848E+005  0.1043930E+01  0.7957747E-01            NaN
         13   -1    0    0    0    0  0.00000000000E+00  0.00000000000E+00  0.74505805969E-08  0.10566000000E+00  0.10566000000E+00 0. -1.
     999900   -1    0    0    0    0 -0.00000000000E+00 -0.00000000000E+00 -0.74505805969E-08  0.93827000000E+00  0.93827000000E+00 0. -1.
     999902    2    1    2    0    0 -0.98045584301E-02  0.14041443911E-01  0.16615592473E-01  0.10200685368E+01  0.10197894147E+01 0.  0.
     999903    2    3    3    0    0 -0.10971592551E+00 -0.62294102357E-01 -0.24776819726E-01  0.13016813299E+00  0.20290701146E-01 0.  0.
         14    1    1    2    0    0  0.98045584301E-02 -0.14041443911E-01 -0.16615592473E-01  0.23861463207E-01  0.00000000000E+00 0.  1.
     999901    1    3    3    0    0  0.99911367077E-01  0.76335546269E-01  0.41392412199E-01  0.88990040380E+00  0.88000000000E+00 0.  1.
        -11    1    4    4    0    0 -0.35496924908E-02  0.12245142721E-02 -0.22763431781E-02  0.44207025738E-02  0.51100000000E-03 0. -1.
         11    1    4    4    0    0 -0.10616623302E+00 -0.63518616629E-01 -0.22500476548E-01  0.12574743042E+00  0.51100000000E-03 0.  1.
</event>
<event>
 8    1  0.1122848E+005  0.1043930E+01  0.7957747E-01            NaN
         13   -1    0    0    0    0  0.00000000000E+00  0.00000000000E+00  0.74505805969E-08  0.10566000000E+00  0.10566000000E+00 0.  1.
     999900   -1    0    0    0    0 -0.00000000000E+00 -0.00000000000E+00 -0.74505805969E-08  0.93827000000E+00  0.93827000000E+00 0. -1.
     999902    2    1    2    0    0 -0.68981627328E-02 -0.22116604108E-01 -0.85013344132E-03  0.10207469986E+01  0.10204837008E+01 0.  0.
     999903    2    3    3    0    0 -0.11805114584E+00 -0.44238277511E-01 -0.36252185024E-01  0.13277309171E+00  0.20527414172E-01 0.  0.
         14    1    1    2    0    0  0.68981627328E-02  0.22116604108E-01  0.85013344132E-03  0.23183001385E-01  0.00000000000E+00 0. -1.
     999901    1    3    3    0    0  0.11115298310E+00  0.22121673403E-01  0.35402051583E-01  0.88797390690E+00  0.88000000000E+00 0. -1.
        -11    1    4    4    0    0 -0.41717266083E-01 -0.76548369792E-02 -0.57924816213E-02  0.42810521872E-01  0.51100000000E-03 0. -1.
         11    1    4    4    0    0 -0.76333879755E-01 -0.36583440532E-01 -0.30459703403E-01  0.89962569838E-01  0.51100000000E-03 0.  1.
</event>
<event>
 8    1  0.1122848E+005  0.1043930E+01  0.7957747E-01            NaN
         13   -1    0    0    0    0  0.00000000000E+00  0.00000000000E+00  0.74505805969E-08  0.10566000000E+00  0.10566000000E+00 0.  1.
     999900   -1    0    0    0    0 -0.00000000000E+00 -0.00000000000E+00 -0.74505805969E-08  0.93827000000E+00  0.93827000000E+00 0.  1.
     999902    2    1    2    0    0 -0.15631605526E-01  0.17954169232E-02  0.18552556317E-01  0.10196037188E+01  0.10193134824E+01 0.  0.
     999903    2    3    3    0    0 -0.12950659501E+00  0.86846767033E-02  0.15840717346E-01  0.13223551491E+00  0.19695718244E-01 0.  0.
         14    1    1    2    0    0  0.15631605526E-01 -0.17954169232E-02 -0.18552556317E-01  0.24326281243E-01  0.00000000000E+00 0.  1.
     999901    1    3    3    0    0  0.11387498948E+00 -0.68892597801E-02  0.27118389710E-02  0.88736820385E+00  0.88000000000E+00 0. -1.
        -11    1    4    4    0    0 -0.38656358911E-01  0.11661374816E-01  0.52595074202E-02  0.40721312432E-01  0.51100000000E-03 0. -1.
         11    1    4    4    0    0 -0.90850236097E-01 -0.29766981125E-02  0.10581209926E-01  0.91514202477E-01  0.51100000000E-03 0.  1.
</event>
<event>
 8    1  0.1122848E+005  0.1043930E+01  0.7957747E-01            NaN
         13   -1    0    0    0    0  0.00000000000E+00  0.00000000000E+00  0.74505805969E-08  0.10566000000E+00  0.10566000000E+00 0. -1.
     999900   -1    0    0    0    0 -0.00000000000E+00 -0.00000000000E+00 -0.74505805969E-08  0.93827000000E+00  0.93827000000E+00 0.  1.
     999902    2    1    2    0    0 -0.17600218909E-01  0.13665715107E-01  0.51695812984E-02  0.10210554717E+01  0.10207992125E+01 0.  0.
     999903    2    3    3    0    0  0.85902967512E-01 -0.78704836101E-01  0.51773524908E-01  0.12896962610E+00  0.19465238797E-01 0.  0.
         14    1    1    2    0    0  0.17600218909E-01 -0.13665715107E-01 -0.51695812984E-02  0.22874528319E-01  0.00000000000E+00 0.  1.
     999901    1    3    3    0    0 -0.10350318642E+00  0.92370551208E-01 -0.46603943609E-01  0.89208584558E+00  0.88000000000E+00 0.  1.
        -11    1    4    4    0    0  0.51865159862E-01 -0.50999219223E-01  0.22229393884E-01  0.76061305815E-01  0.51100000000E-03 0. -1.
         11    1    4    4    0    0  0.34037807649E-01 -0.27705616878E-01  0.29544131023E-01  0.52908320282E-01  0.51100000000E-03 0.  1.
</event>
<event>
 8    1  0.1122848E+005  0.1043930E+01  0.7957747E-01            NaN
         13   -1    0    0    0    0  0.00000000000E+00  0.00000000000E+00  0.74505805969E-08  0.10566000000E+00  0.10566000000E+00 0.  1.
     999900   -1    0    0    0    0 -0.00000000000E+00 -0.00000000000E+00 -0.74505805969E-08  0.93827000000E+00  0.93827000000E+00 0. -1.
     999902    2    1    2    0    0  0.89465653179E-02  0.20355252235E-01 -0.79923388074E-02  0.10203025836E+01  0.10200289738E+01 0.  0.
     999903    2    3    3    0    0 -0.26437917220E-01 -0.60986153288E-01 -0.10985842015E+00  0.12999635295E+00  0.20295441454E-01 0.  0.
         14    1    1    2    0    0 -0.89465653179E-02 -0.20355252235E-01  0.79923388074E-02  0.23627416367E-01  0.00000000000E+00 0.  1.
     999901    1    3    3    0    0  0.35384482538E-01  0.81341405523E-01  0.10186608134E+00  0.89030623068E+00  0.88000000000E+00 0.  1.
        -11    1    4    4    0    0  0.53318000674E-03 -0.22232434407E-01 -0.33231786516E-01  0.39989725888E-01  0.51100000000E-03 0.  1.
         11    1    4    4    0    0 -0.26971097227E-01 -0.38753718880E-01 -0.76626633635E-01  0.90006627067E-01  0.51100000000E-03 0. -1.
</event>
<event>
 8    1  0.1122848E+005  0.1043930E+01  0.7957747E-01            NaN
         13   -1    0    0    0    0  0.00000000000E+00  0.00000000000E+00  0.74505805969E-08  0.10566000000E+00  0.10566000000E+00 0. -1.
     999900   -1    0    0    0    0 -0.00000000000E+00 -0.00000000000E+00 -0.74505805969E-08  0.93827000000E+00  0.93827000000E+00 0.  1.
     999902    2    1    2    0    0  0.21686715425E-01 -0.14406579353E-01  0.38807731367E-02  0.10176065588E+01  0.10172660345E+01 0.  0.
     999903    2    3    3    0    0 -0.73896760920E-03 -0.11775504989E+00 -0.49504333746E-01  0.12966861773E+00  0.22281685640E-01 0.  0.
         14    1    1    2    0    0 -0.21686715425E-01  0.14406579353E-01 -0.38807731367E-02  0.26323441164E-01  0.00000000000E+00 0.  1.
     999901    1    3    3    0    0  0.22425683034E-01  0.10334847054E+00  0.53385106883E-01  0.88793794111E+00  0.88000000000E+00 0. -1.
        -11    1    4    4    0    0  0.74649945681E-02 -0.17576666816E-01 -0.50316965510E-02  0.19754605829E-01  0.51100000000E-03 0.  1.
         11    1    4    4    0    0 -0.82039621773E-02 -0.10017838308E+00 -0.44472637195E-01  0.10991401190E+00  0.51100000000E-03 0. -1.
</event>
<event>
 8    1  0.1122848E+005  0.1043930E+01  0.7957747E-01            NaN
         13   -1    0    0    0    0  0.00000000000E+00  0.00000000000E+00  0.74505805969E-08  0.10566000000E+00  0.10566000000E+00 0.  1.
     999900   -1    0    0    0    0 -0.00000000000E+00 -0.00000000000E+00 -0.74505805969E-08  0.93827000000E+00  0.93827000000E+00 0. -1.
     999902    2    1    2    0    0 -0.15562483046E-01  0.29631108888E-02  0.18135728735E-01  0.10198493945E+01  0.10195650602E+01 0.  0.
     999903    2    3    3    0    0  0.12636953092E+00 -0.16660388904E-02 -0.60836056857E-02  0.12813604270E+00  0.20243545878E-01 0.  0.
         14    1    1    2    0    0  0.15562483046E-01 -0.29631108888E-02 -0.18135728735E-01  0.24080605505E-01  0.00000000000E+00 0. -1.
     999901    1    3    3    0    0 -0.14193201396E+00  0.46291497792E-02  0.24219334421E-01  0.89171335180E+00  0.88000000000E+00 0. -1.
        -11    1    4    4    0    0  0.38410569171E-01 -0.43514307452E-02  0.66202302000E-02  0.39222383182E-01  0.51100000000E-03 0.  1.
         11    1    4    4    0    0  0.87958961748E-01  0.26853918547E-02 -0.12703835886E-01  0.88913659516E-01  0.51100000000E-03 0. -1.
</event>
<event>
 8    1  0.1122848E+005  0.1043930E+01  0.7957747E-01            NaN
         13   -1    0    0    0    0  0.00000000000E+00  0.00000000000E+00  0.74505805969E-08  0.10566000000E+00  0.10566000000E+00 0.  1.
     999900   -1    0    0    0    0 -0.00000000000E+00 -0.00000000000E+00 -0.74505805969E-08  0.93827000000E+00  0.93827000000E+00 0.  1.
     999902    2    1    2    0    0  0.22302928221E-01 -0.71620424140E-02  0.68037945994E-03  0.10204954449E+01  0.10202263350E+01 0.  0.
     999903    2    3    3    0    0 -0.15153571710E-01  0.10072307307E+00  0.77877701039E-01  0.12976450119E+00  0.19978019586E-01 0.  0.
         14    1    1    2    0    0 -0.22302928221E-01  0.71620424140E-02 -0.68037945994E-03  0.23434555148E-01  0.00000000000E+00 0. -1.
     999901    1    3    3    0    0  0.37456499931E-01 -0.10788511549E+00 -0.77197321579E-01  0.89073094366E+00  0.88000000000E+00 0. -1.
        -11    1    4    4    0    0 -0.85028531979E-02  0.45158823712E-01  0.23020162758E-01  0.51398510542E-01  0.51100000000E-03 0.  1.
         11    1    4    4    0    0 -0.66507185124E-02  0.55564249359E-01  0.54857538282E-01  0.78365990652E-01  0.51100000000E-03 0. -1.
</event>
<event>
 8    1  0.1122848E+005  0.1043930E+01  0.7957747E-01            NaN
         13   -1    0    0    0    0  0.00000000000E+00  0.00000000000E+00  0.74505805969E-08  0.10566000000E+00  0.10566000000E+00 0.  1.
     999900   -1    0    0    0    0 -0.00000000000E+00 -0.00000000000E+00 -0.74505805969E-08  0.93827000000E+00  0.93827000000E+00 0.  1.
     999902    2    1    2    0    0 -0.17184647871E-01  0.16885106288E-01  0.12627847325E-02  0.10198050428E+01  0.10195196475E+01 0.  0.
     999903    2    3    3    0    0  0.47346973477E-01  0.96795315090E-01 -0.71536267859E-01  0.13084515970E+00  0.19797708873E-01 0.  0.
         14    1    1    2    0    0  0.17184647871E-01 -0.16885106288E-01 -0.12627847325E-02  0.24124957245E-01  0.00000000000E+00 0.  1.
     999901    1    3    3    0    0 -0.64531621348E-01 -0.79910208802E-01  0.72799052591E-01  0.88895988306E+00  0.88000000000E+00 0. -1.
        -11    1    4    4    0    0  0.67975135114E-02  0.27543225988E-01 -0.11474684200E-01  0.30606616707E-01  0.51100000000E-03 0.  1.
         11    1    4    4    0    0  0.40549459966E-01  0.69252089102E-01 -0.60061583659E-01  0.10023854299E+00  0.51100000000E-03 0. -1.
</event>
<event>
 8    1  0.1122848E+005  0.1043930E+01  0.7957747E-01            NaN
         13   -1    0    0    0    0  0.00000000000E+00  0.00000000000E+00  0.74505805969E-08  0.10566000000E+00  0.10566000000E+00 0.  1.
     999900   -1    0    0    0    0 -0.00000000000E+00 -0.00000000000E+00 -0.74505805969E-08  0.93827000000E+00  0.93827000000E+00 0. -1.
     999902    2    1    2    0    0  0.72586492449E-02  0.21047626873E-01  0.68625360260E-02  0.10206322536E+01  0.10203663127E+01 0.  0.
     999903    2    3    3    0    0  0.74438788708E-01 -0.15233273800E-01  0.10588097101E+00  0.13179361508E+00  0.19636472632E-01 0.  0.
         14    1    1    2    0    0 -0.72586492449E-02 -0.21047626873E-01 -0.68625360260E-02  0.23297746384E-01  0.00000000000E+00 0. -1.
     999901    1    3    3    0    0 -0.67180139463E-01  0.36280900673E-01 -0.99018434988E-01  0.88883863854E+00  0.88000000000E+00 0. -1.
        -11    1    4    4    0    0  0.61533050291E-01 -0.46326912195E-02  0.85376781982E-01  0.10534341047E+00  0.51100000000E-03 0. -1.
         11    1    4    4    0    0  0.12905738417E-01 -0.10600582581E-01  0.20504189032E-01  0.26450204612E-01  0.51100000000E-03 0.  1.
</event>
<event>
 8    1  0.1122848E+005  0.1043930E+01  0.7957747E-01            NaN
         13   -1    0    0    0    0  0.00000000000E+00  0.00000000000E+00  0.74505805969E-08  0.10566000000E+00  0.10566000000E+00 0. -1.
     999900   -1    0    0    0    0 -0.00000000000E+00 -0.00000000000E+00 -0.74505805969E-08  0.93827000000E+00  0.93827000000E+00 0. -1.
     999902    2    1    2    0    0  0.92958385603E-02 -0.64564524622E-02  0.22763735276E-01  0.10185078436E+01  0.10181905231E+01 0.  0.
     999903    2    3    3    0    0 -0.77468048486E-01  0.77172769368E-01  0.62106901568E-01  0.12942421222E+00  0.30601055819E-01 0.  0.
         14    1    1    2    0    0 -0.92958385603E-02  0.64564524622E-02 -0.22763735276E-01  0.25422156412E-01  0.00000000000E+00 0.  1.
     999901    1    3    3    0    0  0.86763887046E-01 -0.83629221830E-01 -0.39343166292E-01  0.88908363137E+00  0.88000000000E+00 0. -1.
        -11    1    4    4    0    0 -0.24161551481E-01  0.43885061833E-01  0.20976613823E-01  0.54313521986E-01  0.51100000000E-03 0.  1.
         11    1    4    4    0    0 -0.53306497004E-01  0.33287707535E-01  0.41130287746E-01  0.75110690230E-01  0.51100000000E-03 0. -1.
</event>
<event>
 8    1  0.1122848E+005  0.1043930E+01  0.7957747E-01            NaN
         13   -1    0    0    0    0  0.00000000000E+00  0.00000000000E+00  0.74505805969E-08  0.10566000000E+00  0.10566000000E+00 0. -1.
     999900   -1    0    0    0    0 -0.00000000000E+00 -0.00000000000E+00 -0.74505805969E-08  0.93827000000E+00  0.93827000000E+00 0.  1.
     999902    2    1    2    0    0  0.19683514687E-02 -0.21416114521E-01  0.11436470899E-01  0.10195718959E+01  0.10192808905E+01 0.  0.
     999903    2    3    3    0    0  0.12449881988E+00  0.18757685895E-01 -0.15058730921E-01  0.12977998447E+00  0.27645470859E-01 0.  0.
         14    1    1    2    0    0 -0.19683514687E-02  0.21416114521E-01 -0.11436470899E-01  0.24358104100E-01  0.00000000000E+00 0.  1.
     999901    1    3    3    0    0 -0.12253046842E+00 -0.40173800416E-01  0.26495201820E-01  0.88979191143E+00  0.88000000000E+00 0. -1.
        -11    1    4    4    0    0  0.30918096466E-01  0.89970402066E-03 -0.15292693764E-01  0.34508922903E-01  0.51100000000E-03 0.  1.
         11    1    4    4    0    0  0.93580723419E-01  0.17857981874E-01  0.23396284287E-03  0.95271061565E-01  0.51100000000E-03 0. -1.
</event>
<event>
 8    1  0.1122848E+005  0.1043930E+01  0.7957747E-01            NaN
         13   -1    0    0    0    0  0.00000000000E+00  0.00000000000E+00  0.74505805969E-08  0.10566000000E+00  0.10566000000E+00 0.  1.
     999900   -1    0    0    0    0 -0.00000000000E+00 -0.00000000000E+00 -0.74505805969E-08  0.93827000000E+00  0.93827000000E+00 0.  1.
     999902    2    1    2    0    0  0.17695872668E-01  0.38443183756E-02  0.16186982751E-01  0.10196412968E+01  0.10193519672E+01 0.  0.
     999903    2    3    3    0    0 -0.37426926290E-01 -0.11647765985E+00  0.37124089157E-01  0.12949846340E+00  0.20587228354E-01 0.  0.
         14    1    1    2    0    0 -0.17695872668E-01 -0.38443183756E-02 -0.16186982751E-01  0.24288703214E-01  0.00000000000E+00 0. -1.
     999901    1    3    3    0    0  0.55122798958E-01  0.12032197822E+00 -0.20937106407E-01  0.89014283339E+00  0.88000000000E+00 0. -1.
        -11    1    4    4    0    0 -0.25607333750E-01 -0.93401415982E-01  0.36679256338E-01  0.10356248846E+00  0.51100000000E-03 0.  1.
         11    1    4    4    0    0 -0.11819592540E-01 -0.23076243866E-01  0.44483281916E-03  0.25935974939E-01  0.51100000000E-03 0. -1.
</event>
<event>
 8    1  0.1122848E+005  0.1043930E+01  0.7957747E-01            NaN
         13   -1    0    0    0    0  0.00000000000E+00  0.00000000000E+00  0.74505805969E-08  0.10566000000E+00  0.10566000000E+00 0. -1.
     999900   -1    0    0    0    0 -0.00000000000E+00 -0.00000000000E+00 -0.74505805969E-08  0.93827000000E+00  0.93827000000E+00 0. -1.
     999902    2    1    2    0    0  0.20062475138E-01 -0.20270571385E-02  0.11802685062E-01  0.10205651708E+01  0.10202976784E+01 0.  0.
     999903    2    3    3    0    0  0.78105128650E-01  0.98076755198E-01  0.38197539167E-01  0.13259759751E+00  0.20090043209E-01 0.  0.
         14    1    1    2    0    0 -0.20062475138E-01  0.20270571385E-02 -0.11802685062E-01  0.23364829209E-01  0.00000000000E+00 0.  1.
     999901    1    3    3    0    0 -0.58042653512E-01 -0.10010381234E+00 -0.26394854105E-01  0.88796757328E+00  0.88000000000E+00 0. -1.
        -11    1    4    4    0    0  0.19779967243E-01  0.34165598520E-01  0.19670891179E-01  0.44110546439E-01  0.51100000000E-03 0.  1.
         11    1    4    4    0    0  0.58325161407E-01  0.63911156678E-01  0.18526647988E-01  0.88487051074E-01  0.51100000000E-03 0. -1.
</event>
<event>
 8    1  0.1122848E+005  0.1043930E+01  0.7957747E-01            NaN
         13   -1    0    0    0    0  0.00000000000E+00  0.00000000000E+00  0.74505805969E-08  0.10566000000E+00  0.10566000000E+00 0.  1.
     999900   -1    0    0    0    0 -0.00000000000E+00 -0.00000000000E+00 -0.74505805969E-08  0.93827000000E+00  0.93827000000E+00 0. -1.
     999902    2    1    2    0    0  0.13066300269E-01 -0.14345011199E-01  0.14156810138E-01  0.10199107822E+01  0.10196279130E+01 0.  0.
     999903    2    3    3    0    0  0.68400492379E-01 -0.10532465174E+00  0.36220467506E-01  0.13321693834E+00  0.25747247894E-01 0.  0.
         14    1    1    2    0    0 -0.13066300269E-01  0.14345011199E-01 -0.14156810138E-01  0.24019217771E-01  0.00000000000E+00 0. -1.
     999901    1    3    3    0    0 -0.55334192109E-01  0.90979640537E-01 -0.22063657368E-01  0.88669384389E+00  0.88000000000E+00 0.  1.
        -11    1    4    4    0    0  0.17580815922E-01 -0.18430956787E-01  0.17284972776E-01  0.30786631213E-01  0.51100000000E-03 0.  1.
         11    1    4    4    0    0  0.50819676456E-01 -0.86893694950E-01  0.18935494730E-01  0.10243030713E+00  0.51100000000E-03 0. -1.
</event>
<event>
 8    1  0.1122848E+005  0.1043930E+01  0.7957747E-01            NaN
         13   -1    0    0    0    0  0.00000000000E+00  0.00000000000E+00  0.74505805969E-08  0.10566000000E+00  0.10566000000E+00 0.  1.
     999900   -1    0    0    0    0 -0.00000000000E+00 -0.00000000000E+00 -0.74505805969E-08  0.93827000000E+00  0.93827000000E+00 0.  1.
     999902    2    1    2    0    0  0.11547323462E-01  0.11552845054E-01  0.23155521715E-01  0.10155929731E+01  0.10151975669E+01 0.  0.
     999903    2    3    3    0    0  0.17290853620E-01 -0.66630408893E-01  0.10630330273E+00  0.12820401507E+00  0.19932192549E-01 0.  0.
         14    1    1    2    0    0 -0.11547323462E-01 -0.11552845054E-01 -0.23155521715E-01  0.28337026906E-01  0.00000000000E+00 0. -1.
     999901    1    3    3    0    0 -0.57435301580E-02  0.78183253947E-01 -0.83147781017E-01  0.88738895802E+00  0.88000000000E+00 0.  1.
        -11    1    4    4    0    0  0.12238573445E-01 -0.36930486721E-01  0.42362046864E-01  0.57519106955E-01  0.51100000000E-03 0. -1.
         11    1    4    4    0    0  0.50522801744E-02 -0.29699922172E-01  0.63941255869E-01  0.70684908114E-01  0.51100000000E-03 0.  1.
</event>
<event>
 8    1  0.1122848E+005  0.1043930E+01  0.7957747E-01            NaN
         13   -1    0    0    0    0  0.00000000000E+00  0.00000000000E+00  0.74505805969E-08  0.10566000000E+00  0.10566000000E+00 0.  1.
     999900   -1    0    0    0    0 -0.00000000000E+00 -0.00000000000E+00 -0.74505805969E-08  0.93827000000E+00  0.93827000000E+00 0. -1.
     999902    2    1    2    0    0 -0.15157578817E-01  0.50763396353E-02  0.16655785157E-01  0.10208445804E+01  0.10205835197E+01 0.  0.
     999903    2    3    3    0    0  0.55729371739E-01  0.79002813795E-01  0.87920724696E-01  0.13204270429E+00  0.18921270125E-01 0.  0.
         14    1    1    2    0    0  0.15157578817E-01 -0.50763396353E-02 -0.16655785157E-01  0.23085419617E-01  0.00000000000E+00 0. -1.
     999901    1    3    3    0    0 -0.70886950556E-01 -0.73926474159E-01 -0.71264939539E-01  0.88880187609E+00  0.88000000000E+00 0. -1.
        -11    1    4    4    0    0  0.30003734102E-01  0.56123199820E-01  0.50974623092E-01  0.81539628025E-01  0.51100000000E-03 0.  1.
         11    1    4    4    0    0  0.25725637636E-01  0.22879613975E-01  0.36946101604E-01  0.50503076265E-01  0.51100000000E-03 0. -1.
</event>
<event>
 8    1  0.1122848E+005  0.1043930E+01  0.7957747E-01            NaN
         13   -1    0    0    0    0  0.00000000000E+00  0.00000000000E+00  0.74505805969E-08  0.10566000000E+00  0.10566000000E+00 0.  1.
     999900   -1    0    0    0    0 -0.00000000000E+00 -0.00000000000E+00 -0.74505805969E-08  0.93827000000E+00  0.93827000000E+00 0. -1.
     999902    2    1    2    0    0  0.66698727505E-02 -0.13313360349E-01  0.19275145413E-01  0.10195729888E+01  0.10192820097E+01 0.  0.
     999903    2    3    3    0    0  0.17361459441E-01 -0.66136748536E-01  0.11128423596E+00  0.13313613646E+00  0.25798447176E-01 0.  0.
         14    1    1    2    0    0 -0.66698727505E-02  0.13313360349E-01 -0.19275145413E-01  0.24357011249E-01  0.00000000000E+00 0. -1.
     999901    1    3    3    0    0 -0.10691586691E-01  0.52823388187E-01 -0.92009090545E-01  0.88643685230E+00  0.88000000000E+00 0. -1.
        -11    1    4    4    0    0 -0.48530359151E-02 -0.25765326280E-01  0.49997428301E-01  0.56457133771E-01  0.51100000000E-03 0. -1.
         11    1    4    4    0    0  0.22214495356E-01 -0.40371422255E-01  0.61286807657E-01  0.76679002684E-01  0.51100000000E-03 0.  1.
</event>
<event>
 8    1  0.1122848E+005  0.1043930E+01  0.7957747E-01            NaN
         13   -1    0    0    0    0  0.00000000000E+00  0.00000000000E+00  0.74505805969E-08  0.10566000000E+00  0.10566000000E+00 0. -1.
     999900   -1    0    0    0    0 -0.00000000000E+00 -0.00000000000E+00 -0.74505805969E-08  0.93827000000E+00  0.93827000000E+00 0.  1.
     999902    2    1    2    0    0  0.17156353236E-01 -0.14586904385E-01 -0.79388300628E-02  0.10200523272E+01  0.10197728212E+01 0.  0.
     999903    2    3    3    0    0  0.45954011374E-01  0.14575222626E-01  0.11704583587E+00  0.13027656809E+00  0.30790391757E-01 0.  0.
         14    1    1    2    0    0 -0.17156353236E-01  0.14586904385E-01  0.79388300628E-02  0.23877672807E-01  0.00000000000E+00 0.  1.
     999901    1    3    3    0    0 -0.28797658138E-01 -0.29162127011E-01 -0.12498466593E+00  0.88977575910E+00  0.88000000000E+00 0.  1.
        -11    1    4    4    0    0  0.31695289545E-01 -0.57623666608E-02  0.61510399715E-01  0.69437645719E-01  0.51100000000E-03 0. -1.
         11    1    4    4    0    0  0.14258721830E-01  0.20337589287E-01  0.55535436150E-01  0.60838922374E-01  0.51100000000E-03 0.  1.
</event>
<event>
 8    1  0.1122848E+005  0.1043930E+01  0.7957747E-01            NaN
         13   -1    0    0    0    0  0.00000000000E+00  0.00000000000E+00  0.74505805969E-08  0.10566000000E+00  0.10566000000E+00 0.  1.
     999900   -1    0    0    0    0 -0.00000000000E+00 -0.00000000000E+00 -0.74505805969E-08  0.93827000000E+00  0.93827000000E+00 0.  1.
     999902    2    1    2    0    0 -0.13305955807E-01  0.92636968123E-02  0.16747538011E-01  0.10206202474E+01  0.10203540291E+01 0.  0.
     999903    2    3    3    0    0  0.77617424279E-01  0.62680803686E-01 -0.79198873955E-01  0.12914609613E+00  0.21281560253E-01 0.  0.
         14    1    1    2    0    0  0.13305955807E-01 -0.92636968123E-02 -0.16747538011E-01  0.23309752637E-01  0.00000000000E+00 0. -1.
     999901    1    3    3    0    0 -0.90923380085E-01 -0.53417106874E-01  0.95946411966E-01  0.89147415124E+00  0.88000000000E+00 0. -1.
        -11    1    4    4    0    0  0.15487547281E-01  0.10515209269E-01 -0.54394598792E-02  0.19500835662E-01  0.51100000000E-03 0. -1.
         11    1    4    4    0    0  0.62129876998E-01  0.52165594417E-01 -0.73759414076E-01  0.10964526046E+00  0.51100000000E-03 0.  1.
</event>
<event>
 8    1  0.1122848E+005  0.1043930E+01  0.7957747E-01            NaN
         13   -1    0    0    0    0  0.00000000000E+00  0.00000000000E+00  0.74505805969E-08  0.10566000000E+00  0.10566000000E+00 0. -1.
     999900   -1    0    0    0    0 -0.00000000000E+00 -0.00000000000E+00 -0.74505805969E-08  0.93827000000E+00  0.93827000000E+00 0. -1.
     999902    2    1    2    0    0  0.65808048075E-03 -0.19665111598E-01  0.12595947738E-01  0.10205674748E+01  0.10203000358E+01 0.  0.
     999903    2    3    3    0    0 -0.95896201173E-01 -0.59027024557E-01 -0.63988682592E-01  0.13110848469E+00  0.20362029119E-01 0.  0.
         14    1    1    2    0    0 -0.65808048075E-03  0.19665111598E-01 -0.12595947738E-01  0.23362525195E-01  0.00000000000E+00 0.  1.
     999901    1    3    3    0    0  0.96554281653E-01  0.39361912960E-01  0.76584630330E-01  0.88945899012E+00  0.88000000000E+00 0.  1.
        -11    1    4    4    0    0 -0.70413815921E-01 -0.48194878123E-01 -0.39048628103E-01  0.93839800871E-01  0.51100000000E-03 0.  1.
         11    1    4    4    0    0 -0.25482385252E-01 -0.10832146434E-01 -0.24940054490E-01  0.37268683817E-01  0.51100000000E-03 0. -1.
</event>
<event>
 8    1  0.1122848E+005  0.1043930E+01  0.7957747E-01            NaN
         13   -1    0    0    0    0  0.00000000000E+00  0.00000000000E+00  0.74505805969E-08  0.10566000000E+00  0.10566000000E+00 0.  1.
     999900   -1    0    0    0    0 -0.00000000000E+00 -0.00000000000E+00 -0.74505805969E-08  0.93827000000E+00  0.93827000000E+00 0.  1.
     999902    2    1    2    0    0 -0.25901465643E-02  0.16567372354E-01 -0.19593039278E-01  0.10181409738E+01  0.10178143095E+01 0.  0.
     999903    2    3    3    0    0 -0.84555961753E-01 -0.71102019825E-01 -0.63141118888E-01  0.12892741538E+00  0.20742942179E-01 0.  0.
         14    1    1    2    0    0  0.25901465643E-02 -0.16567372354E-01  0.19593039278E-01  0.25789026234E-01  0.00000000000E+00 0.  1.
     999901    1    3    3    0    0  0.81965815188E-01  0.87669392180E-01  0.43548079610E-01  0.88921355839E+00  0.88000000000E+00 0. -1.
        -11    1    4    4    0    0 -0.64440255642E-01 -0.42074132213E-01 -0.40417399284E-01  0.86928743432E-01  0.51100000000E-03 0. -1.
         11    1    4    4    0    0 -0.20115706111E-01 -0.29027887612E-01 -0.22723719604E-01  0.41998671946E-01  0.51100000000E-03 0.  1.
</event>
<event>
 8    1  0.1122848E+005  0.1043930E+01  0.7957747E-01            NaN
         13   -1    0    0    0    0  0.00000000000E+00  0.00000000000E+00  0.74505805969E-08  0.10566000000E+00  0.10566000000E+00 0.  1.
     999900   -1    0    0    0    0 -0.00000000000E+00 -0.00000000000E+00 -0.74505805969E-08  0.93827000000E+00  0.93827000000E+00 0. -1.
     999902    2    1    2    0    0  0.21502698640E-01  0.45353614574E-02  0.88457351316E-02  0.10202407074E+01  0.10199656458E+01 0.  0.
     999903    2    3    3    0    0 -0.91913181518E-01  0.34364662564E-01 -0.79778672113E-01  0.12804833208E+00  0.20069276381E-01 0.  0.
         14    1    1    2    0    0 -0.21502698640E-01 -0.45353614574E-02 -0.88457351316E-02  0.23689292568E-01  0.00000000000E+00 0. -1.
     999901    1    3    3    0    0  0.11341588016E+00 -0.29829301107E-01  0.88624407245E-01  0.89219237535E+00  0.88000000000E+00 0. -1.
        -11    1    4    4    0    0 -0.62988722122E-01  0.16592789651E-01 -0.43319900413E-01  0.78228988717E-01  0.51100000000E-03 0. -1.
         11    1    4    4    0    0 -0.28924459396E-01  0.17771872913E-01 -0.36458771701E-01  0.49819343363E-01  0.51100000000E-03 0.  1.
</event>
<event>
 8    1  0.1122848E+005  0.1043930E+01  0.7957747E-01            NaN
         13   -1    0    0    0    0  0.00000000000E+00  0.00000000000E+00  0.74505805969E-08  0.10566000000E+00  0.10566000000E+00 0.  1.
     999900   -1    0    0    0    0 -0.00000000000E+00 -0.00000000000E+00 -0.74505805969E-08  0.93827000000E+00  0.93827000000E+00 0. -1.
     999902    2    1    2    0    0 -0.10311535272E-01 -0.16311446059E-01 -0.13289977156E-01  0.10204989410E+01  0.10202299124E+01 0.  0.
     999903    2    3    3    0    0  0.67816580375E-02 -0.17761443140E-01  0.12641913068E+00  0.12931270091E+00  0.19455545875E-01 0.  0.
         14    1    1    2    0    0  0.10311535272E-01  0.16311446059E-01  0.13289977156E-01  0.23431058982E-01  0.00000000000E+00 0.  1.
     999901    1    3    3    0    0 -0.17093193309E-01  0.14499970809E-02 -0.13970910784E+00  0.89118624011E+00  0.88000000000E+00 0. -1.
        -11    1    4    4    0    0  0.32979408159E-02 -0.21508366717E-01  0.93901058199E-01  0.96390643240E-01  0.51100000000E-03 0.  1.
         11    1    4    4    0    0  0.34837172216E-02  0.37469235771E-02  0.32518072484E-01  0.32922057668E-01  0.51100000000E-03 0. -1.
</event>
<event>
 8    1  0.1122848E+005  0.1043930E+01  0.7957747E-01            NaN
         13   -1    0    0    0    0  0.00000000000E+00  0.00000000000E+00  0.74505805969E-08  0.10566000000E+00  0.10566000000E+00 0.  1.
     999900   -1    0    0    0    0 -0.00000000000E+00 -0.00000000000E+00 -0.74505805969E-08  0.93827000000E+00  0.93827000000E+00 0.  1.
     999902    2    1    2    0    0  0.12577743536E-01  0.23668960447E-01 -0.25196781801E-02  0.10170084826E+01  0.10166520966E+01 0.  0.
     999903    2    3    3    0    0 -0.81119204595E-03 -0.87734752527E-01 -0.87944978244E-01  0.12578037894E+00  0.19706336394E-01 0.  0.
         14    1    1    2    0    0 -0.12577743536E-01 -0.23668960447E-01  0.25196781801E-02  0.26921517402E-01  0.00000000000E+00 0. -1.
     999901    1    3    3    0    0  0.13388935582E-01  0.11140371297E+00  0.85425300064E-01  0.89122810366E+00  0.88000000000E+00 0. -1.
        -11    1    4    4    0    0  0.74876495353E-02 -0.62099583177E-01 -0.55704368562E-01  0.83759542288E-01  0.51100000000E-03 0.  1.
         11    1    4    4    0    0 -0.82988415813E-02 -0.25635169350E-01 -0.32240609682E-01  0.42020836651E-01  0.51100000000E-03 0. -1.
</event>
<event>
 8    1  0.1122848E+005  0.1043930E+01  0.7957747E-01            NaN
         13   -1    0    0    0    0  0.00000000000E+00  0.00000000000E+00  0.74505805969E-08  0.10566000000E+00  0.10566000000E+00 0.  1.
     999900   -1    0    0    0    0 -0.00000000000E+00 -0.00000000000E+00 -0.74505805969E-08  0.93827000000E+00  0.93827000000E+00 0. -1.
     999902    2    1    2    0    0 -0.19033888316E-02 -0.53152635374E-02  0.23426768727E-01  0.10198325228E+01  0.10195477851E+01 0.  0.
     999903    2    3    3    0    0  0.74094981190E-01  0.91865773404E-01 -0.46491936240E-01  0.12848044223E+00  0.20404346114E-01 0.  0.
         14    1    1    2    0    0  0.19033888316E-02  0.53152635374E-02 -0.23426768727E-01  0.24097477223E-01  0.00000000000E+00 0. -1.
     999901    1    3    3    0    0 -0.75998370021E-01 -0.97181036941E-01  0.69918704967E-01  0.89135208054E+00  0.88000000000E+00 0.  1.
        -11    1    4    4    0    0  0.10469337703E-01  0.23380895179E-01 -0.45587413575E-02  0.26025305667E-01  0.51100000000E-03 0. -1.
         11    1    4    4    0    0  0.63625643487E-01  0.68484878225E-01 -0.41933194882E-01  0.10245513657E+00  0.51100000000E-03 0.  1.
</event>
<event>
 8    1  0.1122848E+005  0.1043930E+01  0.7957747E-01            NaN
         13   -1    0    0    0    0  0.00000000000E+00  0.00000000000E+00  0.74505805969E-08  0.10566000000E+00  0.10566000000E+00 0.  1.
     999900   -1    0    0    0    0 -0.00000000000E+00 -0.00000000000E+00 -0.74505805969E-08  0.93827000000E+00  0.93827000000E+00 0. -1.
     999902    2    1    2    0    0  0.77979044503E-02  0.15045231709E-01 -0.17266592859E-01  0.10197369940E+01  0.10194499671E+01 0.  0.
     999903    2    3    3    0    0 -0.18629102362E-01  0.92441015137E-01  0.87139222470E-01  0.12979931737E+00  0.19032445026E-01 0.  0.
         14    1    1    2    0    0 -0.77979044503E-02 -0.15045231709E-01  0.17266592859E-01  0.24193006013E-01  0.00000000000E+00 0.  1.
     999901    1    3    3    0    0  0.26427006813E-01 -0.77395783428E-01 -0.10440581533E+00  0.88993767661E+00  0.88000000000E+00 0.  1.
        -11    1    4    4    0    0 -0.99996143052E-02  0.13756379548E-01  0.16636773636E-01  0.23796504419E-01  0.51100000000E-03 0. -1.
         11    1    4    4    0    0 -0.86294880572E-02  0.78684635588E-01  0.70502448834E-01  0.10600281295E+00  0.51100000000E-03 0.  1.
</event>
<event>
 8    1  0.1122848E+005  0.1043930E+01  0.7957747E-01            NaN
         13   -1    0    0    0    0  0.00000000000E+00  0.00000000000E+00  0.74505805969E-08  0.10566000000E+00  0.10566000000E+00 0.  1.
     999900   -1    0    0    0    0 -0.00000000000E+00 -0.00000000000E+00 -0.74505805969E-08  0.93827000000E+00  0.93827000000E+00 0. -1.
     999902    2    1    2    0    0  0.22030069518E-02 -0.77449991956E-02  0.21993737606E-01  0.10205085836E+01  0.10202397789E+01 0.  0.
     999903    2    3    3    0    0 -0.79073064679E-01 -0.88211630747E-01 -0.50582697192E-01  0.13014460325E+00  0.18578674454E-01 0.  0.
         14    1    1    2    0    0 -0.22030069518E-02  0.77449991956E-02 -0.21993737606E-01  0.23421416397E-01  0.00000000000E+00 0. -1.
     999901    1    3    3    0    0  0.81276071631E-01  0.80466631551E-01  0.72576434798E-01  0.89036398035E+00  0.88000000000E+00 0.  1.
        -11    1    4    4    0    0 -0.52642081717E-01 -0.60082889174E-01 -0.43292668392E-01  0.90860654832E-01  0.51100000000E-03 0. -1.
         11    1    4    4    0    0 -0.26430982961E-01 -0.28128741572E-01 -0.72900287999E-02  0.39283948422E-01  0.51100000000E-03 0.  1.
</event>
<event>
 8    1  0.1122848E+005  0.1043930E+01  0.7957747E-01            NaN
         13   -1    0    0    0    0  0.00000000000E+00  0.00000000000E+00  0.74505805969E-08  0.10566000000E+00  0.10566000000E+00 0. -1.
     999900   -1    0    0    0    0 -0.00000000000E+00 -0.00000000000E+00 -0.74505805969E-08  0.93827000000E+00  0.93827000000E+00 0. -1.
     999902    2    1    2    0    0  0.40285038097E-02  0.20153782283E-01 -0.83354704997E-02  0.10217515453E+01  0.10215108108E+01 0.  0.
     999903    2    3    3    0    0 -0.11797849775E+00  0.24935163831E-01 -0.50950687416E-01  0.13229967662E+00  0.19145327282E-01 0.  0.
         14    1    1    2    0    0 -0.40285038097E-02 -0.20153782283E-01  0.83354704997E-02  0.22178454674E-01  0.00000000000E+00 0. -1.
     999901    1    3    3    0    0  0.12200700156E+00 -0.47813815482E-02  0.42615216916E-01  0.88945186871E+00  0.88000000000E+00 0.  1.
        -11    1    4    4    0    0 -0.10169393472E+00  0.17098249141E-01 -0.37359269994E-01  0.10968127761E+00  0.51100000000E-03 0. -1.
         11    1    4    4    0    0 -0.16284563036E-01  0.78369146901E-02 -0.13591417422E-01  0.22618399008E-01  0.51100000000E-03 0.  1.
</event>
<event>
 8    1  0.1122848E+005  0.1043930E+01  0.7957747E-01            NaN
         13   -1    0    0    0    0  0.00000000000E+00  0.00000000000E+00  0.74505805969E-08  0.10566000000E+00  0.10566000000E+00 0. -1.
     999900   -1    0    0    0    0 -0.00000000000E+00 -0.00000000000E+00 -0.74505805969E-08  0.93827000000E+00  0.93827000000E+00 0. -1.
     999902    2    1    2    0    0 -0.70212395321E-02  0.19131595465E-01 -0.59239071737E-02  0.10227071721E+01  0.10224869443E+01 0.  0.
     999903    2    3    3    0    0 -0.37441328752E-01  0.80796762445E-01  0.97997053330E-01  0.13392849281E+00  0.20086035100E-01 0.  0.
         14    1    1    2    0    0  0.70212395321E-02 -0.19131595465E-01  0.59239071737E-02  0.21222827941E-01  0.00000000000E+00 0. -1.
     999901    1    3    3    0    0  0.30420089219E-01 -0.61665166980E-01 -0.10392096050E+00  0.88877867924E+00  0.88000000000E+00 0. -1.
        -11    1    4    4    0    0 -0.11762380053E-01  0.27343033668E-01  0.47399073800E-01  0.55972568217E-01  0.51100000000E-03 0. -1.
         11    1    4    4    0    0 -0.25678948698E-01  0.53453728777E-01  0.50597979529E-01  0.77955924598E-01  0.51100000000E-03 0.  1.
</event>
<event>
 8    1  0.1122848E+005  0.1043930E+01  0.7957747E-01            NaN
         13   -1    0    0    0    0  0.00000000000E+00  0.00000000000E+00  0.74505805969E-08  0.10566000000E+00  0.10566000000E+00 0. -1.
     999900   -1    0    0    0    0 -0.00000000000E+00 -0.00000000000E+00 -0.74505805969E-08  0.93827000000E+00  0.93827000000E+00 0.  1.
     999902    2    1    2    0    0  0.77004867934E-02  0.14902734344E-01 -0.17792250602E-01  0.10194769190E+01  0.10191836121E+01 0.  0.
     999903    2    3    3    0    0  0.79857377543E-01 -0.80021714424E-01  0.57064758644E-01  0.12828623253E+00  0.20501103642E-01 0.  0.
         14    1    1    2    0    0 -0.77004867934E-02 -0.14902734344E-01  0.17792250602E-01  0.24453080977E-01  0.00000000000E+00 0. -1.
     999901    1    3    3    0    0 -0.72156890750E-01  0.94924448768E-01 -0.74857009246E-01  0.89119068649E+00  0.88000000000E+00 0.  1.
        -11    1    4    4    0    0  0.64304118214E-01 -0.54108402100E-01  0.35911233584E-01  0.91392650774E-01  0.51100000000E-03 0. -1.
         11    1    4    4    0    0  0.15553259329E-01 -0.25913312324E-01  0.21153525061E-01  0.36893581757E-01  0.51100000000E-03 0.  1.
</event>
<event>
 8    1  0.1122848E+005  0.1043930E+01  0.7957747E-01            NaN
         13   -1    0    0    0    0  0.00000000000E+00  0.00000000000E+00  0.74505805969E-08  0.10566000000E+00  0.10566000000E+00 0. -1.
     999900   -1    0    0    0    0 -0.00000000000E+00 -0.00000000000E+00 -0.74505805969E-08  0.93827000000E+00  0.93827000000E+00 0. -1.
     999902    2    1    2    0    0  0.24725956754E-01  0.97177366088E-02  0.14368306227E-01  0.10137264312E+01  0.10132763798E+01 0.  0.
     999903    2    3    3    0    0  0.83738031788E-01 -0.21764278649E-01 -0.88144659652E-01  0.12525445618E+00  0.20819605554E-01 0.  0.
         14    1    1    2    0    0 -0.24725956754E-01 -0.97177366088E-02 -0.14368306227E-01  0.30203568763E-01  0.00000000000E+00 0. -1.
     999901    1    3    3    0    0 -0.59012075034E-01  0.31482015257E-01  0.10251296588E+00  0.88847197505E+00  0.88000000000E+00 0.  1.
        -11    1    4    4    0    0  0.57487227973E-01 -0.52943630410E-02 -0.61866085484E-01  0.84619650875E-01  0.51100000000E-03 0.  1.
         11    1    4    4    0    0  0.26250803815E-01 -0.16469915607E-01 -0.26278574168E-01  0.40634805307E-01  0.51100000000E-03 0. -1.
</event>
<event>
 8    1  0.1122848E+005  0.1043930E+01  0.7957747E-01            NaN
         13   -1    0    0    0    0  0.00000000000E+00  0.00000000000E+00  0.74505805969E-08  0.10566000000E+00  0.10566000000E+00 0.  1.
     999900   -1    0    0    0    0 -0.00000000000E+00 -0.00000000000E+00 -0.74505805969E-08  0.93827000000E+00  0.93827000000E+00 0.  1.
     999902    2    1    2    0    0  0.14198930546E-01  0.18179853235E-01 -0.36406824959E-02  0.10205768147E+01  0.10203095920E+01 0.  0.
     999903    2    3    3    0    0 -0.96139344429E-01 -0.22827335706E-01  0.80006715579E-01  0.12880721913E+00  0.20648592188E-01 0.  0.
         14    1    1    2    0    0 -0.14198930546E-01 -0.18179853235E-01  0.36406824959E-02  0.23353185250E-01  0.00000000000E+00 0.  1.
     999901    1    3    3    0    0  0.11033827498E+00  0.41007188941E-01 -0.83647398074E-01  0.89176959562E+00  0.88000000000E+00 0.  1.
        -11    1    4    4    0    0 -0.71722032921E-01 -0.10899588075E-01  0.48848283610E-01  0.87460087807E-01  0.51100000000E-03 0. -1.
         11    1    4    4    0    0 -0.24417311508E-01 -0.11927747631E-01  0.31158431968E-01  0.41347131322E-01  0.51100000000E-03 0.  1.
</event>
<event>
 8    1  0.1122848E+005  0.1043930E+01  0.7957747E-01            NaN
         13   -1    0    0    0    0  0.00000000000E+00  0.00000000000E+00  0.74505805969E-08  0.10566000000E+00  0.10566000000E+00 0.  1.
     999900   -1    0    0    0    0 -0.00000000000E+00 -0.00000000000E+00 -0.74505805969E-08  0.93827000000E+00  0.93827000000E+00 0. -1.
     999902    2    1    2    0    0 -0.41578162859E-02  0.75491878936E-03  0.23901108724E-01  0.10196581987E+01  0.10193692765E+01 0.  0.
     999903    2    3    3    0    0 -0.92667887084E-01 -0.35503710944E-02  0.92600828595E-01  0.13254365164E+00  0.19823312070E-01 0.  0.
         14    1    1    2    0    0  0.41578162859E-02 -0.75491878936E-03 -0.23901108724E-01  0.24271801270E-01  0.00000000000E+00 0. -1.
     999901    1    3    3    0    0  0.88510070798E-01  0.43052898838E-02 -0.68699719871E-01  0.88711454709E+00  0.88000000000E+00 0. -1.
        -11    1    4    4    0    0 -0.17513672562E-01 -0.66509339683E-02  0.11783192729E-01  0.22137488592E-01  0.51100000000E-03 0. -1.
         11    1    4    4    0    0 -0.75154214521E-01  0.31005628739E-02  0.80817635866E-01  0.11040616305E+00  0.51100000000E-03 0.  1.
</event>
<event>
 8    1  0.1122848E+005  0.1043930E+01  0.7957747E-01            NaN
         13   -1    0    0    0    0  0.00000000000E+00  0.00000000000E+00  0.74505805969E-08  0.10566000000E+00  0.10566000000E+00 0.  1.
     999900   -1    0    0    0    0 -0.00000000000E+00 -0.00000000000E+00 -0.74505805969E-08  0.93827000000E+00  0.93827000000E+00 0.  1.
     999902    2    1    2    0    0 -0.30989585508E-02  0.20885621095E-01  0.60531883983E-02  0.10219651690E+01  0.10217290995E+01 0.  0.
     999903    2    3    3    0    0  0.25348601126E-01  0.84474640757E-01 -0.97577225275E-01  0.13315017713E+00  0.20715652713E-01 0.  0.
         14    1    1    2    0    0  0.30989585508E-02 -0.20885621095E-01 -0.60531883983E-02  0.21964831035E-01  0.00000000000E+00 0. -1.
     999901    1    3    3    0    0 -0.28447559677E-01 -0.63589019663E-01  0.10363041367E+00  0.88881499184E+00  0.88000000000E+00 0. -1.
        -11    1    4    4    0    0  0.69572587465E-02  0.57429703640E-01 -0.60559110931E-01  0.83751067738E-01  0.51100000000E-03 0. -1.
         11    1    4    4    0    0  0.18391342379E-01  0.27044937118E-01 -0.37018114343E-01  0.49399109392E-01  0.51100000000E-03 0.  1.
</event>
<event>
 8    1  0.1122848E+005  0.1043930E+01  0.7957747E-01            NaN
         13   -1    0    0    0    0  0.00000000000E+00  0.00000000000E+00  0.74505805969E-08  0.10566000000E+00  0.10566000000E+00 0. -1.
     999900   -1    0    0    0    0 -0.00000000000E+00 -0.00000000000E+00 -0.74505805969E-08  0.93827000000E+00  0.93827000000E+00 0. -1.
     999902    2    1    2    0    0 -0.13529485138E-01 -0.18711239502E-01  0.48641506512E-02  0.10203330211E+01  0.10200601240E+01 0.  0.
     999903    2    3    3    0    0  0.69284578739E-01  0.94201466482E-01  0.48616103158E-01  0.12818859238E+00  0.19862542407E-01 0.  0.
         14    1    1    2    0    0  0.13529485138E-01  0.18711239502E-01 -0.48641506512E-02  0.23596978903E-01  0.00000000000E+00 0.  1.
     999901    1    3    3    0    0 -0.82814063877E-01 -0.11291270598E+00 -0.43751952507E-01  0.89214442872E+00  0.88000000000E+00 0.  1.
        -11    1    4    4    0    0  0.28952564643E-01  0.46075740430E-01  0.12821771091E-01  0.55909603741E-01  0.51100000000E-03 0.  1.
         11    1    4    4    0    0  0.40332014096E-01  0.48125726052E-01  0.35794332067E-01  0.72278988635E-01  0.51100000000E-03 0. -1.
</event>
<event>
 8    1  0.1122848E+005  0.1043930E+01  0.7957747E-01            NaN
         13   -1    0    0    0    0  0.00000000000E+00  0.00000000000E+00  0.74505805969E-08  0.10566000000E+00  0.10566000000E+00 0. -1.
     999900   -1    0    0    0    0 -0.00000000000E+00 -0.00000000000E+00 -0.74505805969E-08  0.93827000000E+00  0.93827000000E+00 0. -1.
     999902    2    1    2    0    0  0.13530468710E-01 -0.17019645255E-01  0.13157614854E-03  0.10221869731E+01  0.10219556980E+01 0.  0.
     999903    2    3    3    0    0  0.13075697278E+00 -0.22931791347E-01  0.13902598003E-02  0.13439274521E+00  0.20885979894E-01 0.  0.
         14    1    1    2    0    0 -0.13530468710E-01  0.17019645255E-01 -0.13157614854E-03  0.21743026938E-01  0.00000000000E+00 0.  1.
     999901    1    3    3    0    0 -0.11722650407E+00  0.59121460926E-02 -0.12586836517E-02  0.88779422786E+00  0.88000000000E+00 0. -1.
        -11    1    4    4    0    0  0.24847902784E-01  0.37373187724E-02 -0.96153241627E-03  0.25150973937E-01  0.51100000000E-03 0. -1.
         11    1    4    4    0    0  0.10590907000E+00 -0.26669110120E-01  0.23517922166E-02  0.10924177127E+00  0.51100000000E-03 0.  1.
</event>
<event>
 8    1  0.1122848E+005  0.1043930E+01  0.7957747E-01            NaN
         13   -1    0    0    0    0  0.00000000000E+00  0.00000000000E+00  0.74505805969E-08  0.10566000000E+00  0.10566000000E+00 0.  1.
     999900   -1    0    0    0    0 -0.00000000000E+00 -0.00000000000E+00 -0.74505805969E-08  0.93827000000E+00  0.93827000000E+00 0.  1.
     999902    2    1    2    0    0  0.13053275366E-01  0.84655158264E-02  0.17162563693E-01  0.10207652304E+01  0.10205023514E+01 0.  0.
     999903    2    3    3    0    0  0.52711448781E-01  0.43231291284E-01  0.11381078873E+00  0.13390430039E+00  0.18166580616E-01 0.  0.
         14    1    1    2    0    0 -0.13053275366E-01 -0.84655158264E-02 -0.17162563693E-01  0.23164769555E-01  0.00000000000E+00 0. -1.
     999901    1    3    3    0    0 -0.39658173415E-01 -0.34765775457E-01 -0.96648225040E-01  0.88686093006E+00  0.88000000000E+00 0.  1.
        -11    1    4    4    0    0  0.32682909255E-01  0.32987102897E-01  0.62393914622E-01  0.77779066707E-01  0.51100000000E-03 0. -1.
         11    1    4    4    0    0  0.20028539526E-01  0.10244188386E-01  0.51416874111E-01  0.56125233680E-01  0.51100000000E-03 0.  1.
</event>
<event>
 8    1  0.1122848E+005  0.1043930E+01  0.7957747E-01            NaN
         13   -1    0    0    0    0  0.00000000000E+00  0.00000000000E+00  0.74505805969E-08  0.10566000000E+00  0.10566000000E+00 0.  1.
     999900   -1    0    0    0    0 -0.00000000000E+00 -0.00000000000E+00 -0.74505805969E-08  0.93827000000E+00  0.93827000000E+00 0. -1.
     999902    2    1    2    0    0  0.11572225765E-01 -0.18635256535E-01 -0.75195963198E-02  0.10207409180E+01  0.10204774805E+01 0.  0.
     999903    2    3    3    0    0  0.34711602132E-01  0.31498006245E-01  0.11952401539E+00  0.12990487582E+00  0.19805726066E-01 0.  0.
         14    1    1    2    0    0 -0.11572225765E-01  0.18635256535E-01  0.75195963198E-02  0.23189082002E-01  0.00000000000E+00 0.  1.
     999901    1    3    3    0    0 -0.23139376367E-01 -0.50133262779E-01 -0.12704361171E+00  0.89083604218E+00  0.88000000000E+00 0. -1.
        -11    1    4    4    0    0  0.31577347959E-01  0.16867279576E-01  0.88071070088E-01  0.95070545027E-01  0.51100000000E-03 0. -1.
         11    1    4    4    0    0  0.31342541733E-02  0.14630726669E-01  0.31452945305E-01  0.34834330788E-01  0.51100000000E-03 0.  1.
</event>
<event>
 8    1  0.1122848E+005  0.1043930E+01  0.7957747E-01            NaN
         13   -1    0    0    0    0  0.00000000000E+00  0.00000000000E+00  0.74505805969E-08  0.10566000000E+00  0.10566000000E+00 0. -1.
     999900   -1    0    0    0    0 -0.00000000000E+00 -0.00000000000E+00 -0.74505805969E-08  0.93827000000E+00  0.93827000000E+00 0.  1.
     999902    2    1    2    0    0  0.23003064239E-01 -0.35701130277E-02 -0.35952491812E-02  0.10203755421E+01  0.10201036390E+01 0.  0.
     999903    2    3    3    0    0  0.72496392704E-02 -0.69922315741E-01 -0.10924224094E+00  0.13143680849E+00  0.20001997718E-01 0.  0.
         14    1    1    2    0    0 -0.23003064239E-01  0.35701130277E-02  0.35952491812E-02  0.23554457924E-01  0.00000000000E+00 0.  1.
     999901    1    3    3    0    0  0.15753424969E-01  0.66352202714E-01  0.10564699176E+00  0.88893873359E+00  0.88000000000E+00 0. -1.
        -11    1    4    4    0    0 -0.39122581161E-02 -0.40973854004E-01 -0.51953069122E-01  0.66283821463E-01  0.51100000000E-03 0.  1.
         11    1    4    4    0    0  0.11161897386E-01 -0.28948461738E-01 -0.57289171816E-01  0.65152987027E-01  0.51100000000E-03 0. -1.
</event>
<event>
 8    1  0.1122848E+005  0.1043930E+01  0.7957747E-01            NaN
         13   -1    0    0    0    0  0.00000000000E+00  0.00000000000E+00  0.74505805969E-08  0.10566000000E+00  0.10566000000E+00 0. -1.
     999900   -1    0    0    0    0 -0.00000000000E+00 -0.00000000000E+00 -0.74505805969E-08  0.93827000000E+00  0.93827000000E+00 0.  1.
     999902    2    1    2    0    0 -0.96725690062E-02 -0.17433008758E-01 -0.12490372164E-01  0.10204038915E+01  0.10201326502E+01 0.  0.
     999903    2    3    3    0    0  0.17170538923E-01 -0.58300209193E-01  0.11339197405E+00  0.13010223158E+00  0.19367733101E-01 0.  0.
         14    1    1    2    0    0  0.96725690062E-02  0.17433008758E-01  0.12490372164E-01  0.23526108526E-01  0.00000000000E+00 0. -1.
     999901    1    3    3    0    0 -0.26843107929E-01  0.40867200434E-01 -0.12588234621E+00  0.89030165989E+00  0.88000000000E+00 0.  1.
        -11    1    4    4    0    0  0.74737214163E-02 -0.50937847099E-01  0.94651913687E-01  0.10774862720E+00  0.51100000000E-03 0. -1.
         11    1    4    4    0    0  0.96968175067E-02 -0.73623620939E-02  0.18740060363E-01  0.22353604380E-01  0.51100000000E-03 0.  1.
</event>
<event>
 8    1  0.1122848E+005  0.1043930E+01  0.7957747E-01            NaN
         13   -1    0    0    0    0  0.00000000000E+00  0.00000000000E+00  0.74505805969E-08  0.10566000000E+00  0.10566000000E+00 0. -1.
     999900   -1    0    0    0    0 -0.00000000000E+00 -0.00000000000E+00 -0.74505805969E-08  0.93827000000E+00  0.93827000000E+00 0. -1.
     999902    2    1    2    0    0 -0.94042315615E-02  0.11581049108E-01 -0.18011036851E-01  0.10205428728E+01  0.10202748637E+01 0.  0.
     999903    2    3    3    0    0  0.97109634810E-01 -0.11536785266E-01  0.80629654327E-01  0.12834915845E+00  0.20223420330E-01 0.  0.
         14    1    1    2    0    0  0.94042315615E-02 -0.11581049108E-01  0.18011036851E-01  0.23387127189E-01  0.00000000000E+00 0.  1.
     999901    1    3    3    0    0 -0.10651386637E+00  0.23117834375E-01 -0.98640691177E-01  0.89219371436E+00  0.88000000000E+00 0. -1.
        -11    1    4    4    0    0  0.64888430678E-01 -0.39658421305E-02  0.41644625224E-01  0.77206037787E-01  0.51100000000E-03 0. -1.
         11    1    4    4    0    0  0.32221204132E-01 -0.75709431358E-02  0.38985029103E-01  0.51143120660E-01  0.51100000000E-03 0.  1.
</event>
<event>
 8    1  0.1122848E+005  0.1043930E+01  0.7957747E-01            NaN
         13   -1    0    0    0    0  0.00000000000E+00  0.00000000000E+00  0.74505805969E-08  0.10566000000E+00  0.10566000000E+00 0.  1.
     999900   -1    0    0    0    0 -0.00000000000E+00 -0.00000000000E+00 -0.74505805969E-08  0.93827000000E+00  0.93827000000E+00 0. -1.
     999902    2    1    2    0    0 -0.13207253419E-04 -0.24259094798E-01 -0.64385811002E-02  0.10188310123E+01  0.10185218076E+01 0.  0.
     999903    2    3    3    0    0 -0.55029232463E-01 -0.82254221041E-02 -0.11675010337E+00  0.13009456455E+00  0.14076046842E-01 0.  0.
         14    1    1    2    0    0  0.13207253419E-04  0.24259094798E-01  0.64385811002E-02  0.25098987658E-01  0.00000000000E+00 0.  1.
     999901    1    3    3    0    0  0.55016025209E-01 -0.16033672694E-01  0.11031152227E+00  0.88873644779E+00  0.88000000000E+00 0.  1.
        -11    1    4    4    0    0 -0.47156438686E-01 -0.11440781382E-01 -0.10394115703E+00  0.11471114346E+00  0.51100000000E-03 0.  1.
         11    1    4    4    0    0 -0.78727937769E-02  0.32153592777E-02 -0.12808946340E-01  0.15383421091E-01  0.51100000000E-03 0. -1.
</event>
<event>
 8    1  0.1122848E+005  0.1043930E+01  0.7957747E-01            NaN
         13   -1    0    0    0    0  0.00000000000E+00  0.00000000000E+00  0.74505805969E-08  0.10566000000E+00  0.10566000000E+00 0. -1.
     999900   -1    0    0    0    0 -0.00000000000E+00 -0.00000000000E+00 -0.74505805969E-08  0.93827000000E+00  0.93827000000E+00 0. -1.
     999902    2    1    2    0    0 -0.20799469632E-01  0.18193254621E-02  0.65199455498E-02  0.10220567841E+01  0.10218227011E+01 0.  0.
     999903    2    3    3    0    0  0.10757416518E+00 -0.19706789884E-01 -0.66562692684E-01  0.12948508631E+00  0.19371033458E-01 0.  0.
         14    1    1    2    0    0  0.20799469632E-01 -0.18193254621E-02 -0.65199455498E-02  0.21873215861E-01  0.00000000000E+00 0. -1.
     999901    1    3    3    0    0 -0.12837363481E+00  0.21526115346E-01  0.73082638234E-01  0.89257169783E+00  0.88000000000E+00 0.  1.
        -11    1    4    4    0    0  0.71686062059E-01 -0.21718018965E-01 -0.41178314950E-01  0.85477942093E-01  0.51100000000E-03 0. -1.
         11    1    4    4    0    0  0.35888103121E-01  0.20112290819E-02 -0.25384377734E-01  0.44007144216E-01  0.51100000000E-03 0.  1.
</event>
<event>
 8    1  0.1122848E+005  0.1043930E+01  0.7957747E-01            NaN
         13   -1    0    0    0    0  0.00000000000E+00  0.00000000000E+00  0.74505805969E-08  0.10566000000E+00  0.10566000000E+00 0.  1.
     999900   -1    0    0    0    0 -0.00000000000E+00 -0.00000000000E+00 -0.74505805969E-08  0.93827000000E+00  0.93827000000E+00 0.  1.
     999902    2    1    2    0    0  0.11835854920E-01  0.19183064781E-01 -0.67741296939E-02  0.10203935120E+01  0.10201220285E+01 0.  0.
     999903    2    3    3    0    0  0.21489647776E-01  0.38212436802E-01 -0.12335071829E+00  0.13244902399E+00  0.20133280015E-01 0.  0.
         14    1    1    2    0    0 -0.11835854920E-01 -0.19183064781E-01  0.67741296939E-02  0.23536488038E-01  0.00000000000E+00 0.  1.
     999901    1    3    3    0    0 -0.96537928556E-02 -0.19029372022E-01  0.11657658860E+00  0.88794448797E+00  0.88000000000E+00 0. -1.
        -11    1    4    4    0    0  0.14603663133E-01  0.31994846446E-01 -0.70495936721E-01  0.78783725421E-01  0.51100000000E-03 0.  1.
         11    1    4    4    0    0  0.68859846427E-02  0.62175903566E-02 -0.52854781570E-01  0.53665298566E-01  0.51100000000E-03 0. -1.
</event>
<event>
 8    1  0.1122848E+005  0.1043930E+01  0.7957747E-01            NaN
         13   -1    0    0    0    0  0.00000000000E+00  0.00000000000E+00  0.74505805969E-08  0.10566000000E+00  0.10566000000E+00 0.  1.
     999900   -1    0    0    0    0 -0.00000000000E+00 -0.00000000000E+00 -0.74505805969E-08  0.93827000000E+00  0.93827000000E+00 0. -1.
     999902    2    1    2    0    0 -0.97116207660E-02 -0.18102660739E-02  0.21132566823E-01  0.10206023764E+01  0.10203357451E+01 0.  0.
     999903    2    3    3    0    0  0.41110180383E-01 -0.12144031269E+00  0.17936304166E-01  0.13104944398E+00  0.20358027511E-01 0.  0.
         14    1    1    2    0    0  0.97116207660E-02  0.18102660739E-02 -0.21132566823E-01  0.23327623575E-01  0.00000000000E+00 0. -1.
     999901    1    3    3    0    0 -0.50821801149E-01  0.11963004661E+00  0.31962626570E-02  0.88955293244E+00  0.88000000000E+00 0.  1.
        -11    1    4    4    0    0  0.32638232090E-01 -0.78133038853E-01  0.19487718842E-01  0.86891071239E-01  0.51100000000E-03 0. -1.
         11    1    4    4    0    0  0.84719482929E-02 -0.43307273833E-01 -0.15514146761E-02  0.44158372742E-01  0.51100000000E-03 0.  1.
</event>
<event>
 8    1  0.1122848E+005  0.1043930E+01  0.7957747E-01            NaN
         13   -1    0    0    0    0  0.00000000000E+00  0.00000000000E+00  0.74505805969E-08  0.10566000000E+00  0.10566000000E+00 0.  1.
     999900   -1    0    0    0    0 -0.00000000000E+00 -0.00000000000E+00 -0.74505805969E-08  0.93827000000E+00  0.93827000000E+00 0.  1.
     999902    2    1    2    0    0 -0.11213933299E-01  0.18903897184E-01  0.10294503731E-01  0.10196588971E+01  0.10193699917E+01 0.  0.
     999903    2    3    3    0    0  0.90834659776E-01 -0.74082240721E-01 -0.44967090443E-01  0.12718246549E+00  0.20352555094E-01 0.  0.
         14    1    1    2    0    0  0.11213933299E-01 -0.18903897184E-01 -0.10294503731E-01  0.24271102897E-01  0.00000000000E+00 0. -1.
     999901    1    3    3    0    0 -0.10204859307E+00  0.92986137905E-01  0.55261594174E-01  0.89247643161E+00  0.88000000000E+00 0. -1.
        -11    1    4    4    0    0  0.69758420290E-02 -0.12105049169E-02 -0.64658142233E-02  0.96018523597E-02  0.51100000000E-03 0.  1.
         11    1    4    4    0    0  0.83858817747E-01 -0.72871735804E-01 -0.38501276220E-01  0.11758061313E+00  0.51100000000E-03 0. -1.
</event>
<event>
 8    1  0.1122848E+005  0.1043930E+01  0.7957747E-01            NaN
         13   -1    0    0    0    0  0.00000000000E+00  0.00000000000E+00  0.74505805969E-08  0.10566000000E+00  0.10566000000E+00 0.  1.
     999900   -1    0    0    0    0 -0.00000000000E+00 -0.00000000000E+00 -0.74505805969E-08  0.93827000000E+00  0.93827000000E+00 0.  1.
     999902    2    1    2    0    0 -0.18160304960E-01  0.12580090881E-01  0.81852744700E-02  0.10203704142E+01  0.10200983914E+01 0.  0.
     999903    2    3    3    0    0 -0.99500798753E-01 -0.83341695808E-01 -0.47092180796E-02  0.13133524451E+00  0.19506985982E-01 0.  0.
         14    1    1    2    0    0  0.18160304960E-01 -0.12580090881E-01 -0.81852744700E-02  0.23559585755E-01  0.00000000000E+00 0. -1.
     999901    1    3    3    0    0  0.81340493793E-01  0.95921786689E-01  0.12894492550E-01  0.88903516974E+00  0.88000000000E+00 0. -1.
        -11    1    4    4    0    0 -0.33304672635E-01 -0.34875589147E-01  0.59905953158E-02  0.48596875321E-01  0.51100000000E-03 0. -1.
         11    1    4    4    0    0 -0.66196126118E-01 -0.48466106661E-01 -0.10699813395E-01  0.82738369187E-01  0.51100000000E-03 0.  1.
</event>
<event>
 8    1  0.1122848E+005  0.1043930E+01  0.7957747E-01            NaN
         13   -1    0    0    0    0  0.00000000000E+00  0.00000000000E+00  0.74505805969E-08  0.10566000000E+00  0.10566000000E+00 0.  1.
     999900   -1    0    0    0    0 -0.00000000000E+00 -0.00000000000E+00 -0.74505805969E-08  0.93827000000E+00  0.93827000000E+00 0. -1.
     999902    2    1    2    0    0 -0.11697948848E-01  0.81557110102E-02  0.19070558764E-01  0.10201173176E+01  0.10198393491E+01 0.  0.
     999903    2    3    3    0    0  0.48357491271E-01  0.11656887400E-01 -0.11579853780E+00  0.12781210790E+00  0.21267430124E-01 0.  0.
         14    1    1    2    0    0  0.11697948848E-01 -0.81557110102E-02 -0.19070558764E-01  0.23812682354E-01  0.00000000000E+00 0. -1.
     999901    1    3    3    0    0 -0.60055440119E-01 -0.35011763900E-02  0.13486909657E+00  0.89230520974E+00  0.88000000000E+00 0.  1.
        -11    1    4    4    0    0  0.37309874208E-02  0.40946091713E-02 -0.32838136510E-01  0.33306011797E-01  0.51100000000E-03 0.  1.
         11    1    4    4    0    0  0.44626503851E-01  0.75622782289E-02 -0.82960401291E-01  0.94506096106E-01  0.51100000000E-03 0. -1.
</event>
<event>
 8    1  0.1122848E+005  0.1043930E+01  0.7957747E-01            NaN
         13   -1    0    0    0    0  0.00000000000E+00  0.00000000000E+00  0.74505805969E-08  0.10566000000E+00  0.10566000000E+00 0. -1.
     999900   -1    0    0    0    0 -0.00000000000E+00 -0.00000000000E+00 -0.74505805969E-08  0.93827000000E+00  0.93827000000E+00 0. -1.
     999902    2    1    2    0    0 -0.19504782726E-01  0.51992639476E-02  0.12987733426E-01  0.10199268728E+01  0.10196443869E+01 0.  0.
     999903    2    3    3    0    0  0.97003131251E-01  0.65853955664E-01  0.51066065376E-01  0.12936354267E+00  0.19514922241E-01 0.  0.
         14    1    1    2    0    0  0.19504782726E-01 -0.51992639476E-02 -0.12987733426E-01  0.24003127178E-01  0.00000000000E+00 0.  1.
     999901    1    3    3    0    0 -0.11650791398E+00 -0.60654691716E-01 -0.38078331951E-01  0.89056333015E+00  0.88000000000E+00 0.  1.
        -11    1    4    4    0    0  0.42254062491E-01  0.33906813604E-01  0.14105316333E-01  0.55984809329E-01  0.51100000000E-03 0.  1.
         11    1    4    4    0    0  0.54749068760E-01  0.31947142061E-01  0.36960749044E-01  0.73378733342E-01  0.51100000000E-03 0. -1.
</event>
<event>
 8    1  0.1122848E+005  0.1043930E+01  0.7957747E-01            NaN
         13   -1    0    0    0    0  0.00000000000E+00  0.00000000000E+00  0.74505805969E-08  0.10566000000E+00  0.10566000000E+00 0.  1.
     999900   -1    0    0    0    0 -0.00000000000E+00 -0.00000000000E+00 -0.74505805969E-08  0.93827000000E+00  0.93827000000E+00 0.  1.
     999902    2    1    2    0    0  0.21205560644E-02  0.40902505575E-02 -0.95374045119E-02  0.10333380695E+01  0.10332837833E+01 0.  0.
     999903    2    3    3    0    0 -0.67969454388E-01  0.11655202203E+00 -0.42280199032E-01  0.14281443126E+00  0.20102884756E-01 0.  0.
         14    1    1    2    0    0 -0.21205560644E-02 -0.40902505575E-02  0.95374045119E-02  0.10591930535E-01  0.00000000000E+00 0.  1.
     999901    1    3    3    0    0  0.70090010453E-01 -0.11246177148E+00  0.32742794520E-01  0.89052363821E+00  0.88000000000E+00 0. -1.
        -11    1    4    4    0    0 -0.31612029719E-01  0.68280058851E-01 -0.30774424806E-01  0.81294607464E-01  0.51100000000E-03 0.  1.
         11    1    4    4    0    0 -0.36357424670E-01  0.48271963184E-01 -0.11505774226E-01  0.61519823795E-01  0.51100000000E-03 0. -1.
</event>
<event>
 8    1  0.1122848E+005  0.1043930E+01  0.7957747E-01            NaN
         13   -1    0    0    0    0  0.00000000000E+00  0.00000000000E+00  0.74505805969E-08  0.10566000000E+00  0.10566000000E+00 0. -1.
     999900   -1    0    0    0    0 -0.00000000000E+00 -0.00000000000E+00 -0.74505805969E-08  0.93827000000E+00  0.93827000000E+00 0. -1.
     999902    2    1    2    0    0 -0.67107846086E-02  0.11615055208E-01  0.19171324080E-01  0.10205316282E+01  0.10202633583E+01 0.  0.
     999903    2    3    3    0    0  0.17851745400E-01 -0.12271232876E+00  0.34647842612E-01  0.12986519981E+00  0.16955727101E-01 0.  0.
         14    1    1    2    0    0  0.67107846086E-02 -0.11615055208E-01 -0.19171324080E-01  0.23398371835E-01  0.00000000000E+00 0.  1.
     999901    1    3    3    0    0 -0.24562530009E-01  0.13432738397E+00 -0.15476518532E-01  0.89066642835E+00  0.88000000000E+00 0. -1.
        -11    1    4    4    0    0  0.12819198655E-01 -0.82682843146E-01  0.31461775287E-01  0.89391771602E-01  0.51100000000E-03 0. -1.
         11    1    4    4    0    0  0.50325467451E-02 -0.40029485614E-01  0.31860673252E-02  0.40473428213E-01  0.51100000000E-03 0.  1.
</event>
<event>
 8    1  0.1122848E+005  0.1043930E+01  0.7957747E-01            NaN
         13   -1    0    0    0    0  0.00000000000E+00  0.00000000000E+00  0.74505805969E-08  0.10566000000E+00  0.10566000000E+00 0.  1.
     999900   -1    0    0    0    0 -0.00000000000E+00 -0.00000000000E+00 -0.74505805969E-08  0.93827000000E+00  0.93827000000E+00 0.  1.
     999902    2    1    2    0    0 -0.12519654294E-01  0.68062378342E-02  0.18893703303E-01  0.10202648644E+01  0.10199903700E+01 0.  0.
     999903    2    3    3    0    0 -0.46522675722E-01  0.10784612360E+00  0.58777243097E-01  0.13293405761E+00  0.20531771380E-01 0.  0.
         14    1    1    2    0    0  0.12519654294E-01 -0.68062378342E-02 -0.18893703303E-01  0.23665135572E-01  0.00000000000E+00 0. -1.
     999901    1    3    3    0    0  0.34003021428E-01 -0.10103988576E+00 -0.39883539794E-01  0.88733080682E+00  0.88000000000E+00 0.  1.
        -11    1    4    4    0    0 -0.16415970776E-01  0.63779043551E-01  0.32839851046E-01  0.73593256692E-01  0.51100000000E-03 0.  1.
         11    1    4    4    0    0 -0.30106704946E-01  0.44067080045E-01  0.25937392051E-01  0.59340800919E-01  0.51100000000E-03 0. -1.
</event>
<event>
 8    1  0.1122848E+005  0.1043930E+01  0.7957747E-01            NaN
         13   -1    0    0    0    0  0.00000000000E+00  0.00000000000E+00  0.74505805969E-08  0.10566000000E+00  0.10566000000E+00 0.  1.
     999900   -1    0    0    0    0 -0.00000000000E+00 -0.00000000000E+00 -0.74505805969E-08  0.93827000000E+00  0.93827000000E+00 0. -1.
     999902    2    1    2    0    0  0.23185945269E-01  0.30744020575E-02  0.11719752155E-02  0.10205117692E+01  0.10202430385E+01 0.  0.
     999903    2    3    3    0    0  0.34806021813E-01 -0.84076798817E-01 -0.92176580285E-01  0.13121749241E+00  0.21003359419E-01 0.  0.
         14    1    1    2    0    0 -0.23185945269E-01 -0.30744020575E-02 -0.11719752155E-02  0.23418230760E-01  0.00000000000E+00 0. -1.
     999901    1    3    3    0    0 -0.11620076544E-01  0.87151200875E-01  0.93348555501E-01  0.88929427683E+00  0.88000000000E+00 0.  1.
        -11    1    4    4    0    0  0.13508730336E-01 -0.38695610488E-01 -0.27385153201E-01  0.49295474470E-01  0.51100000000E-03 0. -1.
         11    1    4    4    0    0  0.21297291477E-01 -0.45381188329E-01 -0.64791427085E-01  0.81922017938E-01  0.51100000000E-03 0.  1.
</event>
<event>
 8    1  0.1122848E+005  0.1043930E+01  0.7957747E-01            NaN
         13   -1    0    0    0    0  0.00000000000E+00  0.00000000000E+00  0.74505805969E-08  0.10566000000E+00  0.10566000000E+00 0. -1.
     999900   -1    0    0    0    0 -0.00000000000E+00 -0.00000000000E+00 -0.74505805969E-08  0.93827000000E+00  0.93827000000E+00 0. -1.
     999902    2    1    2    0    0  0.19511368932E-01  0.22270674095E-01 -0.60812992553E-02  0.10137032132E+01  0.10132524590E+01 0.  0.
     999903    2    3    3    0    0 -0.11833391130E+00  0.25630607454E-01  0.75280909613E-02  0.12286213533E+00  0.19457377631E-01 0.  0.
         14    1    1    2    0    0 -0.19511368932E-01 -0.22270674095E-01  0.60812992553E-02  0.30226786844E-01  0.00000000000E+00 0. -1.
     999901    1    3    3    0    0  0.13784528023E+00 -0.33599333591E-02 -0.13609390217E-01  0.89084107782E+00  0.88000000000E+00 0.  1.
        -11    1    4    4    0    0 -0.93699722530E-01  0.19285523538E-01  0.13804519101E-01  0.96656067005E-01  0.51100000000E-03 0.  1.
         11    1    4    4    0    0 -0.24634188766E-01  0.63450839159E-02 -0.62764281398E-02  0.26206068329E-01  0.51100000000E-03 0. -1.
</event>
<event>
 8    1  0.1122848E+005  0.1043930E+01  0.7957747E-01            NaN
         13   -1    0    0    0    0  0.00000000000E+00  0.00000000000E+00  0.74505805969E-08  0.10566000000E+00  0.10566000000E+00 0. -1.
     999900   -1    0    0    0    0 -0.00000000000E+00 -0.00000000000E+00 -0.74505805969E-08  0.93827000000E+00  0.93827000000E+00 0.  1.
     999902    2    1    2    0    0 -0.35263034090E-02 -0.26252107875E-01 -0.10658985491E-01  0.10153779080E+01  0.10149763909E+01 0.  0.
     999903    2    3    3    0    0 -0.38596972779E-01 -0.76998215223E-01 -0.94239537134E-01  0.12926796685E+00  0.20264881924E-01 0.  0.
         14    1    1    2    0    0  0.35263034090E-02  0.26252107875E-01  0.10658985491E-01  0.28552091960E-01  0.00000000000E+00 0.  1.
     999901    1    3    3    0    0  0.35070669370E-01  0.50746107348E-01  0.83580551643E-01  0.88610994119E+00  0.88000000000E+00 0.  1.
        -11    1    4    4    0    0 -0.29101655022E-01 -0.35767028973E-01 -0.51426117107E-01  0.69073101337E-01  0.51100000000E-03 0. -1.
         11    1    4    4    0    0 -0.94953177565E-02 -0.41231186250E-01 -0.42813420026E-01  0.60194865514E-01  0.51100000000E-03 0.  1.
</event>
<event>
 8    1  0.1122848E+005  0.1043930E+01  0.7957747E-01            NaN
         13   -1    0    0    0    0  0.00000000000E+00  0.00000000000E+00  0.74505805969E-08  0.10566000000E+00  0.10566000000E+00 0. -1.
     999900   -1    0    0    0    0 -0.00000000000E+00 -0.00000000000E+00 -0.74505805969E-08  0.93827000000E+00  0.93827000000E+00 0.  1.
     999902    2    1    2    0    0  0.72237165888E-02 -0.20203723229E-01 -0.19771820285E-01  0.10147529989E+01  0.10143334518E+01 0.  0.
     999903    2    3    3    0    0 -0.89084201221E-01 -0.25468031064E-01  0.79861663499E-01  0.12389399827E+00  0.19677957163E-01 0.  0.
         14    1    1    2    0    0 -0.72237165888E-02  0.20203723229E-01  0.19771820285E-01  0.29177001063E-01  0.00000000000E+00 0. -1.
     999901    1    3    3    0    0  0.96307917810E-01  0.52643078354E-02 -0.99633483784E-01  0.89085900066E+00  0.88000000000E+00 0.  1.
        -11    1    4    4    0    0 -0.20327381480E-01 -0.79288066181E-02  0.30288305193E-01  0.37332438504E-01  0.51100000000E-03 0. -1.
         11    1    4    4    0    0 -0.68756819742E-01 -0.17539224446E-01  0.49573358306E-01  0.86561559771E-01  0.51100000000E-03 0.  1.
</event>
<event>
 8    1  0.1122848E+005  0.1043930E+01  0.7957747E-01            NaN
         13   -1    0    0    0    0  0.00000000000E+00  0.00000000000E+00  0.74505805969E-08  0.10566000000E+00  0.10566000000E+00 0. -1.
     999900   -1    0    0    0    0 -0.00000000000E+00 -0.00000000000E+00 -0.74505805969E-08  0.93827000000E+00  0.93827000000E+00 0.  1.
     999902    2    1    2    0    0 -0.10043737584E-01 -0.18938415969E-01 -0.11103994337E-01  0.10197879422E+01  0.10195021374E+01 0.  0.
     999903    2    3    3    0    0 -0.49552884829E-01  0.11609178883E+00 -0.12801850963E-01  0.12861062448E+00  0.21071628120E-01 0.  0.
         14    1    1    2    0    0  0.10043737584E-01  0.18938415969E-01  0.11103994337E-01  0.24142057789E-01  0.00000000000E+00 0. -1.
     999901    1    3    3    0    0  0.39509147245E-01 -0.13503020480E+00  0.16978566263E-02  0.89117731773E+00  0.88000000000E+00 0. -1.
        -11    1    4    4    0    0 -0.29087881828E-01  0.84792481088E-01 -0.19389013773E-02  0.89665434688E-01  0.51100000000E-03 0. -1.
         11    1    4    4    0    0 -0.20465003001E-01  0.31299307743E-01 -0.10862949586E-01  0.38945189789E-01  0.51100000000E-03 0.  1.
</event>
<event>
 7    1  0.1122848E+005  0.1043930E+01  0.7957747E-01            NaN
         13   -1    0    0    0    0  0.00000000000E+00  0.00000000000E+00  0.74505805969E-08  0.10566000000E+00  0.10566000000E+00 0. -1.
     999900   -1    0    0    0    0 -0.00000000000E+00 -0.00000000000E+00 -0.74505805969E-08  0.93827000000E+00  0.93827000000E+00 0.  1.
     999903    2    1    2    0    0 -0.90150703033E-01  0.21881717646E-01 -0.63479776474E-01  0.11430943819E+00  0.20760703596E-01 0.  0.
         14    1    1    2    0    0  0.77364459167E-02 -0.93956494645E-02 -0.37975667102E-01  0.39878341441E-01  0.00000000000E+00 0.  1.
     999901    1    1    2    0    0  0.82414257117E-01 -0.12486068181E-01  0.10145544358E+00  0.88974222037E+00  0.88000000000E+00 0. -1.
        -11    1    3    3    0    0 -0.62409607373E-01  0.50852420389E-02 -0.42627538604E-01  0.75750821431E-01  0.51100000000E-03 0.  1.
         11    1    3    3    0    0 -0.27741095660E-01  0.16796475607E-01 -0.20852237869E-01  0.38558616759E-01  0.51100000000E-03 0. -1.
</event>
<event>
 8    1  0.1122848E+005  0.1043930E+01  0.7957747E-01            NaN
         13   -1    0    0    0    0  0.00000000000E+00  0.00000000000E+00  0.74505805969E-08  0.10566000000E+00  0.10566000000E+00 0.  1.
     999900   -1    0    0    0    0 -0.00000000000E+00 -0.00000000000E+00 -0.74505805969E-08  0.93827000000E+00  0.93827000000E+00 0.  1.
     999902    2    1    2    0    0 -0.59818966316E-02 -0.19566023985E-01 -0.12486957926E-01  0.10199605090E+01  0.10196788236E+01 0.  0.
     999903    2    3    3    0    0 -0.10342121000E+00 -0.53118225869E-01 -0.60264126042E-01  0.13265964239E+00  0.21197245894E-01 0.  0.
         14    1    1    2    0    0  0.59818966316E-02  0.19566023985E-01  0.12486957926E-01  0.23969491028E-01  0.00000000000E+00 0.  1.
     999901    1    3    3    0    0  0.97439313373E-01  0.33552201884E-01  0.47777168116E-01  0.88730086658E+00  0.88000000000E+00 0.  1.
        -11    1    4    4    0    0 -0.43648868101E-01 -0.18203071291E-01 -0.35509727841E-01  0.59142010308E-01  0.51100000000E-03 0.  1.
         11    1    4    4    0    0 -0.59772341904E-01 -0.34915154577E-01 -0.24754398201E-01  0.73517632083E-01  0.51100000000E-03 0. -1.
</event>
<event>
 8    1  0.1122848E+005  0.1043930E+01  0.7957747E-01            NaN
         13   -1    0    0    0    0  0.00000000000E+00  0.00000000000E+00  0.74505805969E-08  0.10566000000E+00  0.10566000000E+00 0.  1.
     999900   -1    0    0    0    0 -0.00000000000E+00 -0.00000000000E+00 -0.74505805969E-08  0.93827000000E+00  0.93827000000E+00 0.  1.
     999902    2    1    2    0    0  0.17353319118E-01  0.59688412614E-03 -0.76830023578E-02  0.10249425705E+01  0.10247666809E+01 0.  0.
     999903    2    3    3    0    0 -0.13296791908E-01  0.61558543167E-01 -0.11830139425E+00  0.13539651668E+00  0.19254556221E-01 0.  0.
         14    1    1    2    0    0 -0.17353319118E-01 -0.59688412614E-03  0.76830023578E-02  0.18987429533E-01  0.00000000000E+00 0.  1.
     999901    1    3    3    0    0  0.30650111026E-01 -0.60961659041E-01  0.11061839190E+00  0.88954605379E+00  0.88000000000E+00 0. -1.
        -11    1    4    4    0    0 -0.20206419285E-02  0.45288819845E-02 -0.24792605536E-01  0.25288894323E-01  0.51100000000E-03 0. -1.
         11    1    4    4    0    0 -0.11276149980E-01  0.57029661182E-01 -0.93508788718E-01  0.11010762236E+00  0.51100000000E-03 0.  1.
</event>
<event>
 8    1  0.1122848E+005  0.1043930E+01  0.7957747E-01            NaN
         13   -1    0    0    0    0  0.00000000000E+00  0.00000000000E+00  0.74505805969E-08  0.10566000000E+00  0.10566000000E+00 0.  1.
     999900   -1    0    0    0    0 -0.00000000000E+00 -0.00000000000E+00 -0.74505805969E-08  0.93827000000E+00  0.93827000000E+00 0. -1.
     999902    2    1    2    0    0 -0.26826056352E-02  0.19938690360E-01  0.12588900861E-01  0.10201975713E+01  0.10199214952E+01 0.  0.
     999903    2    3    3    0    0 -0.66847084312E-01 -0.88559552951E-01 -0.60926197172E-01  0.12818108113E+00  0.20175751736E-01 0.  0.
         14    1    1    2    0    0  0.26826056352E-02 -0.19938690360E-01 -0.12588900861E-01  0.23732428683E-01  0.00000000000E+00 0. -1.
     999901    1    3    3    0    0  0.64164478677E-01  0.10849824331E+00  0.73515098034E-01  0.89201649019E+00  0.88000000000E+00 0.  1.
        -11    1    4    4    0    0 -0.15495795416E-01 -0.29844743092E-01 -0.10241632883E-01  0.35156514772E-01  0.51100000000E-03 0. -1.
         11    1    4    4    0    0 -0.51351288896E-01 -0.58714809859E-01 -0.50684564289E-01  0.93024566359E-01  0.51100000000E-03 0.  1.
</event>
<event>
 8    1  0.1122848E+005  0.1043930E+01  0.7957747E-01            NaN
         13   -1    0    0    0    0  0.00000000000E+00  0.00000000000E+00  0.74505805969E-08  0.10566000000E+00  0.10566000000E+00 0.  1.
     999900   -1    0    0    0    0 -0.00000000000E+00 -0.00000000000E+00 -0.74505805969E-08  0.93827000000E+00  0.93827000000E+00 0. -1.
     999902    2    1    2    0    0 -0.10533389260E-01 -0.20593153403E-01  0.34065817533E-02  0.10205497721E+01  0.10202819230E+01 0.  0.
     999903    2    3    3    0    0 -0.16465037227E-01  0.12516266511E+00 -0.13004541281E-01  0.12838988284E+00  0.19443603969E-01 0.  0.
         14    1    1    2    0    0  0.10533389260E-01  0.20593153403E-01 -0.34065817533E-02  0.23380227878E-01  0.00000000000E+00 0.  1.
     999901    1    3    3    0    0  0.59316479669E-02 -0.14575581851E+00  0.16411123035E-01  0.89215988928E+00  0.88000000000E+00 0.  1.
        -11    1    4    4    0    0 -0.11081271834E-02  0.48340915185E-01 -0.12896395472E-01  0.50046480036E-01  0.51100000000E-03 0. -1.
         11    1    4    4    0    0 -0.15356910043E-01  0.76821749922E-01 -0.10814580935E-03  0.78343402808E-01  0.51100000000E-03 0.  1.
</event>
<event>
 8    1  0.1122848E+005  0.1043930E+01  0.7957747E-01            NaN
         13   -1    0    0    0    0  0.00000000000E+00  0.00000000000E+00  0.74505805969E-08  0.10566000000E+00  0.10566000000E+00 0.  1.
     999900   -1    0    0    0    0 -0.00000000000E+00 -0.00000000000E+00 -0.74505805969E-08  0.93827000000E+00  0.93827000000E+00 0.  1.
     999902    2    1    2    0    0  0.16562993665E-01 -0.13954463465E-01 -0.85332027912E-02  0.10206517836E+01  0.10203862935E+01 0.  0.
     999903    2    3    3    0    0 -0.95456134603E-01 -0.14130306028E-02  0.84025248472E-01  0.12864694081E+00  0.19388726334E-01 0.  0.
         14    1    1    2    0    0 -0.16562993665E-01  0.13954463465E-01  0.85332027912E-02  0.23278216419E-01  0.00000000000E+00 0.  1.
     999901    1    3    3    0    0  0.11201912827E+00 -0.12541432863E-01 -0.92558451263E-01  0.89200484278E+00  0.88000000000E+00 0.  1.
        -11    1    4    4    0    0 -0.74244635101E-01 -0.48939244738E-02  0.55013963616E-01  0.92536553058E-01  0.51100000000E-03 0. -1.
         11    1    4    4    0    0 -0.21211499502E-01  0.34808938710E-02  0.29011284856E-01  0.36110387747E-01  0.51100000000E-03 0.  1.
</event>
<event>
 8    1  0.1122848E+005  0.1043930E+01  0.7957747E-01            NaN
         13   -1    0    0    0    0  0.00000000000E+00  0.00000000000E+00  0.74505805969E-08  0.10566000000E+00  0.10566000000E+00 0. -1.
     999900   -1    0    0    0    0 -0.00000000000E+00 -0.00000000000E+00 -0.74505805969E-08  0.93827000000E+00  0.93827000000E+00 0. -1.
     999902    2    1    2    0    0 -0.96026302849E-02  0.19785205036E-01  0.91070700229E-02  0.10201265639E+01  0.10198488137E+01 0.  0.
     999903    2    3    3    0    0  0.68777152144E-01 -0.81460704812E-02  0.10885066230E+00  0.13059166819E+00  0.20225281121E-01 0.  0.
         14    1    1    2    0    0  0.96026302849E-02 -0.19785205036E-01 -0.91070700229E-02  0.23803436120E-01  0.00000000000E+00 0.  1.
     999901    1    3    3    0    0 -0.78379782429E-01  0.27931275517E-01 -0.99743592279E-01  0.88953489569E+00  0.88000000000E+00 0. -1.
        -11    1    4    4    0    0  0.42956368196E-01 -0.20955507186E-02  0.49450823674E-01  0.65538431355E-01  0.51100000000E-03 0.  1.
         11    1    4    4    0    0  0.25820783949E-01 -0.60505197626E-02  0.59399838627E-01  0.65053236838E-01  0.51100000000E-03 0. -1.
</event>
<event>
 8    1  0.1122848E+005  0.1043930E+01  0.7957747E-01            NaN
         13   -1    0    0    0    0  0.00000000000E+00  0.00000000000E+00  0.74505805969E-08  0.10566000000E+00  0.10566000000E+00 0.  1.
     999900   -1    0    0    0    0 -0.00000000000E+00 -0.00000000000E+00 -0.74505805969E-08  0.93827000000E+00  0.93827000000E+00 0. -1.
     999902    2    1    2    0    0  0.19858436235E-01  0.26193200046E-02 -0.12753926106E-01  0.10201838222E+01  0.10199074224E+01 0.  0.
     999903    2    3    3    0    0 -0.15692502232E-01 -0.67111782410E-02 -0.12941736385E+00  0.13172375835E+00  0.17635189536E-01 0.  0.
         14    1    1    2    0    0 -0.19858436235E-01 -0.26193200046E-02  0.12753926106E-01  0.23746177757E-01  0.00000000000E+00 0. -1.
     999901    1    3    3    0    0  0.35550938466E-01  0.93304982456E-02  0.11666343774E+00  0.88846006389E+00  0.88000000000E+00 0.  1.
        -11    1    4    4    0    0 -0.11662877288E-01  0.23209442580E-02 -0.99510518898E-01  0.10021982828E+00  0.51100000000E-03 0. -1.
         11    1    4    4    0    0 -0.40296249436E-02 -0.90321224990E-02 -0.29906844948E-01  0.31503930068E-01  0.51100000000E-03 0.  1.
</event>
<event>
 8    1  0.1122848E+005  0.1043930E+01  0.7957747E-01            NaN
         13   -1    0    0    0    0  0.00000000000E+00  0.00000000000E+00  0.74505805969E-08  0.10566000000E+00  0.10566000000E+00 0.  1.
     999900   -1    0    0    0    0 -0.00000000000E+00 -0.00000000000E+00 -0.74505805969E-08  0.93827000000E+00  0.93827000000E+00 0.  1.
     999902    2    1    2    0    0  0.10053823739E-01  0.14931054388E-01 -0.14978907752E-01  0.10205124119E+01  0.10202436960E+01 0.  0.
     999903    2    3    3    0    0 -0.96603532218E-01  0.81207223703E-01 -0.31120963779E-01  0.13145173442E+00  0.19600726426E-01 0.  0.
         14    1    1    2    0    0 -0.10053823739E-01 -0.14931054388E-01  0.14978907752E-01  0.23417588141E-01  0.00000000000E+00 0.  1.
     999901    1    3    3    0    0  0.10665735596E+00 -0.66276169316E-01  0.16142056027E-01  0.88906067744E+00  0.88000000000E+00 0.  1.
        -11    1    4    4    0    0 -0.49340594787E-01  0.53156907027E-01 -0.21547476385E-01  0.75661786380E-01  0.51100000000E-03 0. -1.
         11    1    4    4    0    0 -0.47262937431E-01  0.28050316676E-01 -0.95734873946E-02  0.55789948039E-01  0.51100000000E-03 0.  1.
</event>
<event>
 8    1  0.1122848E+005  0.1043930E+01  0.7957747E-01            NaN
         13   -1    0    0    0    0  0.00000000000E+00  0.00000000000E+00  0.74505805969E-08  0.10566000000E+00  0.10566000000E+00 0.  1.
     999900   -1    0    0    0    0 -0.00000000000E+00 -0.00000000000E+00 -0.74505805969E-08  0.93827000000E+00  0.93827000000E+00 0. -1.
     999902    2    1    2    0    0 -0.14187555040E-01 -0.91591528428E-02  0.14706615962E-01  0.10215366672E+01  0.10212911931E+01 0.  0.
     999903    2    3    3    0    0 -0.46204242133E-01  0.96344407210E-01  0.75757856170E-01  0.13255785795E+00  0.20377834588E-01 0.  0.
         14    1    1    2    0    0  0.14187555040E-01  0.91591528428E-02 -0.14706615962E-01  0.22393332755E-01  0.00000000000E+00 0. -1.
     999901    1    3    3    0    0  0.32016687093E-01 -0.10550356005E+00 -0.61051240207E-01  0.88897880929E+00  0.88000000000E+00 0. -1.
        -11    1    4    4    0    0 -0.13434851703E-01  0.21835892798E-01  0.28899272142E-01  0.38635870715E-01  0.51100000000E-03 0.  1.
         11    1    4    4    0    0 -0.32769390430E-01  0.74508514412E-01  0.46858584027E-01  0.93921987240E-01  0.51100000000E-03 0. -1.
</event>
<event>
 8    1  0.1122848E+005  0.1043930E+01  0.7957747E-01            NaN
         13   -1    0    0    0    0  0.00000000000E+00  0.00000000000E+00  0.74505805969E-08  0.10566000000E+00  0.10566000000E+00 0. -1.
     999900   -1    0    0    0    0 -0.00000000000E+00 -0.00000000000E+00 -0.74505805969E-08  0.93827000000E+00  0.93827000000E+00 0. -1.
     999902    2    1    2    0    0 -0.19788986271E-01 -0.11257982376E-01 -0.68742679519E-02  0.10201476178E+01  0.10198703645E+01 0.  0.
     999903    2    3    3    0    0  0.22812072571E-01  0.29093208263E-01  0.12168562847E+00  0.12887284769E+00  0.20832985229E-01 0.  0.
         14    1    1    2    0    0  0.19788986271E-01  0.11257982376E-01  0.68742679519E-02  0.23782382233E-01  0.00000000000E+00 0. -1.
     999901    1    3    3    0    0 -0.42601058842E-01 -0.40351190639E-01 -0.12855989643E+00  0.89127477007E+00  0.88000000000E+00 0. -1.
        -11    1    4    4    0    0  0.15989715441E-01  0.16134435684E-01  0.41069081524E-01  0.46935291551E-01  0.51100000000E-03 0.  1.
         11    1    4    4    0    0  0.68223571298E-02  0.12958772580E-01  0.80616546950E-01  0.81937556143E-01  0.51100000000E-03 0. -1.
</event>
<event>
 8    1  0.1122848E+005  0.1043930E+01  0.7957747E-01            NaN
         13   -1    0    0    0    0  0.00000000000E+00  0.00000000000E+00  0.74505805969E-08  0.10566000000E+00  0.10566000000E+00 0.  1.
     999900   -1    0    0    0    0 -0.00000000000E+00 -0.00000000000E+00 -0.74505805969E-08  0.93827000000E+00  0.93827000000E+00 0.  1.
     999902    2    1    2    0    0  0.46694775544E-02  0.14640221786E-01  0.17018044625E-01  0.10210006747E+01  0.10207431723E+01 0.  0.
     999903    2    3    3    0    0 -0.26740841367E-01  0.12024512812E+00 -0.42821707926E-01  0.13211384258E+00  0.21128305633E-01 0.  0.
         14    1    1    2    0    0 -0.46694775544E-02 -0.14640221786E-01 -0.17018044625E-01  0.22929325272E-01  0.00000000000E+00 0.  1.
     999901    1    3    3    0    0  0.31410318921E-01 -0.10560490633E+00  0.59839752551E-01  0.88888683215E+00  0.88000000000E+00 0. -1.
        -11    1    4    4    0    0 -0.11194224762E-01  0.84804110680E-01 -0.36023471762E-01  0.92817021581E-01  0.51100000000E-03 0. -1.
         11    1    4    4    0    0 -0.15546616605E-01  0.35441017439E-01 -0.67982361641E-02  0.39296821002E-01  0.51100000000E-03 0.  1.
</event>
<event>
 8    1  0.1122848E+005  0.1043930E+01  0.7957747E-01            NaN
         13   -1    0    0    0    0  0.00000000000E+00  0.00000000000E+00  0.74505805969E-08  0.10566000000E+00  0.10566000000E+00 0. -1.
     999900   -1    0    0    0    0 -0.00000000000E+00 -0.00000000000E+00 -0.74505805969E-08  0.93827000000E+00  0.93827000000E+00 0.  1.
     999902    2    1    2    0    0  0.29653385950E-02 -0.41445900701E-02  0.23297156967E-01  0.10200819732E+01  0.10198031691E+01 0.  0.
     999903    2    3    3    0    0  0.36649957714E-01 -0.77994718765E-01 -0.93476206865E-01  0.12866483539E+00  0.19759632078E-01 0.  0.
         14    1    1    2    0    0 -0.29653385950E-02  0.41445900701E-02 -0.23297156967E-01  0.23848026806E-01  0.00000000000E+00 0.  1.
     999901    1    3    3    0    0 -0.33684619119E-01  0.73850128695E-01  0.11677336383E+00  0.89141713781E+00  0.88000000000E+00 0. -1.
        -11    1    4    4    0    0  0.15244970975E-01 -0.49205233955E-01 -0.45323079462E-01  0.68614917048E-01  0.51100000000E-03 0. -1.
         11    1    4    4    0    0  0.21404986739E-01 -0.28789484810E-01 -0.48153127404E-01  0.60049918340E-01  0.51100000000E-03 0.  1.
</event>
<event>
 8    1  0.1122848E+005  0.1043930E+01  0.7957747E-01            NaN
         13   -1    0    0    0    0  0.00000000000E+00  0.00000000000E+00  0.74505805969E-08  0.10566000000E+00  0.10566000000E+00 0.  1.
     999900   -1    0    0    0    0 -0.00000000000E+00 -0.00000000000E+00 -0.74505805969E-08  0.93827000000E+00  0.93827000000E+00 0.  1.
     999902    2    1    2    0    0  0.10281366242E-01 -0.15023549976E-01  0.14988688525E-01  0.10203487717E+01  0.10200762430E+01 0.  0.
     999903    2    3    3    0    0 -0.12527955949E+00  0.75132857171E-02 -0.17217024038E-01  0.12910139778E+00  0.24886291515E-01 0.  0.
         14    1    1    2    0    0 -0.10281366242E-01  0.15023549976E-01 -0.14988688525E-01  0.23581228327E-01  0.00000000000E+00 0. -1.
     999901    1    3    3    0    0  0.13556092573E+00 -0.22536835693E-01  0.32205712563E-01  0.89124737389E+00  0.88000000000E+00 0.  1.
        -11    1    4    4    0    0 -0.17570568366E-01 -0.97802385122E-03  0.59833562879E-02  0.18594167818E-01  0.51100000000E-03 0. -1.
         11    1    4    4    0    0 -0.10770899112E+00  0.84913095683E-02 -0.23200380326E-01  0.11050722996E+00  0.51100000000E-03 0.  1.
</event>
<event>
 8    1  0.1122848E+005  0.1043930E+01  0.7957747E-01            NaN
         13   -1    0    0    0    0  0.00000000000E+00  0.00000000000E+00  0.74505805969E-08  0.10566000000E+00  0.10566000000E+00 0. -1.
     999900   -1    0    0    0    0 -0.00000000000E+00 -0.00000000000E+00 -0.74505805969E-08  0.93827000000E+00  0.93827000000E+00 0. -1.
     999902    2    1    2    0    0 -0.22110191746E-01 -0.74016819577E-02 -0.50680180563E-02  0.10200693571E+01  0.10197902544E+01 0.  0.
     999903    2    3    3    0    0  0.15169244379E-01 -0.56856643107E-01  0.11397818740E+00  0.12989659372E+00  0.20477158401E-01 0.  0.
         14    1    1    2    0    0  0.22110191746E-01  0.74016819577E-02  0.50680180563E-02  0.23860642948E-01  0.00000000000E+00 0. -1.
     999901    1    3    3    0    0 -0.37279436125E-01  0.49454961150E-01 -0.11904620546E+00  0.89017276333E+00  0.88000000000E+00 0.  1.
        -11    1    4    4    0    0  0.17880991793E-01 -0.27692923311E-01  0.57897073032E-01  0.66625521054E-01  0.51100000000E-03 0.  1.
         11    1    4    4    0    0 -0.27117474135E-02 -0.29163719797E-01  0.56081114372E-01  0.63271072669E-01  0.51100000000E-03 0. -1.
</event>
<event>
 8    1  0.1122848E+005  0.1043930E+01  0.7957747E-01            NaN
         13   -1    0    0    0    0  0.00000000000E+00  0.00000000000E+00  0.74505805969E-08  0.10566000000E+00  0.10566000000E+00 0. -1.
     999900   -1    0    0    0    0 -0.00000000000E+00 -0.00000000000E+00 -0.74505805969E-08  0.93827000000E+00  0.93827000000E+00 0. -1.
     999902    2    1    2    0    0  0.68330445175E-02 -0.22792956352E-01 -0.15034348212E-01  0.10157832243E+01  0.10153931838E+01 0.  0.
     999903    2    3    3    0    0  0.10742966088E-01 -0.58482877791E-01  0.10955281443E+00  0.12628279199E+00  0.20245149737E-01 0.  0.
         14    1    1    2    0    0 -0.68330445175E-02  0.22792956352E-01  0.15034348212E-01  0.28146775709E-01  0.00000000000E+00 0. -1.
     999901    1    3    3    0    0 -0.39099215708E-02  0.35689921439E-01 -0.12458716264E+00  0.88950043231E+00  0.88000000000E+00 0. -1.
        -11    1    4    4    0    0 -0.19705217710E-02 -0.25941557171E-01  0.62291839105E-01  0.67508382329E-01  0.51100000000E-03 0.  1.
         11    1    4    4    0    0  0.12713487859E-01 -0.32541320619E-01  0.47260975321E-01  0.58774409656E-01  0.51100000000E-03 0. -1.
</event>
<event>
 8    1  0.1163810E+005  0.1043930E+01  0.7957747E-01            NaN
         13   -1    0    0    0    0  0.00000000000E+00  0.00000000000E+00  0.74505805969E-08  0.10566000000E+00  0.10566000000E+00 0. -1.
     999900   -1    0    0    0    0 -0.00000000000E+00 -0.00000000000E+00 -0.74505805969E-08  0.93827000000E+00  0.93827000000E+00 0. -1.
     999902    2    1    2    0    0 -0.96424730915E-02  0.20391032702E-01  0.58893643138E-02  0.10206178548E+01  0.10203515813E+01 0.  0.
     999903    2    3    3    0    0  0.52140829717E-01 -0.45830679800E-01 -0.10650866676E+00  0.12885790442E+00  0.21003478305E-01 0.  0.
         14    1    1    2    0    0  0.96424730915E-02 -0.20391032702E-01 -0.58893643138E-02  0.23312145203E-01  0.00000000000E+00 0.  1.
     999901    1    3    3    0    0 -0.61783302808E-01  0.66221712502E-01  0.11239803107E+00  0.89175995038E+00  0.88000000000E+00 0.  1.
        -11    1    4    4    0    0  0.30150663479E-01 -0.36209293454E-01 -0.57966320355E-01  0.74702950793E-01  0.51100000000E-03 0.  1.
         11    1    4    4    0    0  0.21990166238E-01 -0.96213863462E-02 -0.48542346406E-01  0.54154953623E-01  0.51100000000E-03 0. -1.
</event>
<event>
 8    1  0.1122848E+005  0.1043930E+01  0.7957747E-01            NaN
         13   -1    0    0    0    0  0.00000000000E+00  0.00000000000E+00  0.74505805969E-08  0.10566000000E+00  0.10566000000E+00 0.  1.
     999900   -1    0    0    0    0 -0.00000000000E+00 -0.00000000000E+00 -0.74505805969E-08  0.93827000000E+00  0.93827000000E+00 0. -1.
     999902    2    1    2    0    0  0.64910754365E-03 -0.22018217392E-01 -0.11728944123E-01  0.10189742117E+01  0.10186685687E+01 0.  0.
     999903    2    3    3    0    0 -0.58632306361E-01 -0.71359331325E-01 -0.92174178506E-01  0.13194531294E+00  0.19585323776E-01 0.  0.
         14    1    1    2    0    0 -0.64910754365E-03  0.22018217392E-01  0.11728944123E-01  0.24955788266E-01  0.00000000000E+00 0.  1.
     999901    1    3    3    0    0  0.59281413905E-01  0.49341113933E-01  0.80445234383E-01  0.88702889879E+00  0.88000000000E+00 0.  1.
        -11    1    4    4    0    0 -0.24497534984E-01 -0.21980155732E-01 -0.21973709582E-01  0.39577285153E-01  0.51100000000E-03 0.  1.
         11    1    4    4    0    0 -0.34134771377E-01 -0.49379175594E-01 -0.70200468924E-01  0.92368027788E-01  0.51100000000E-03 0. -1.
</event>
<event>
 8    1  0.1122848E+005  0.1043930E+01  0.7957747E-01            NaN
         13   -1    0    0    0    0  0.00000000000E+00  0.00000000000E+00  0.74505805969E-08  0.10566000000E+00  0.10566000000E+00 0. -1.
     999900   -1    0    0    0    0 -0.00000000000E+00 -0.00000000000E+00 -0.74505805969E-08  0.93827000000E+00  0.93827000000E+00 0. -1.
     999902    2    1    2    0    0 -0.18352681403E-01  0.15182664833E-01 -0.33223300015E-02  0.10198806320E+01  0.10195970436E+01 0.  0.
     999903    2    3    3    0    0 -0.77032184069E-01  0.97677840955E-01  0.40264777043E-01  0.13300489433E+00  0.24374815859E-01 0.  0.
         14    1    1    2    0    0  0.18352681403E-01 -0.15182664833E-01  0.33223300015E-02  0.24049368033E-01  0.00000000000E+00 0. -1.
     999901    1    3    3    0    0  0.58679502665E-01 -0.82495176122E-01 -0.43587107045E-01  0.88687573764E+00  0.88000000000E+00 0. -1.
        -11    1    4    4    0    0 -0.41231187851E-01  0.48816041484E-01  0.33222595093E-01  0.72020960168E-01  0.51100000000E-03 0. -1.
         11    1    4    4    0    0 -0.35800996218E-01  0.48861799471E-01  0.70421819499E-02  0.60983934158E-01  0.51100000000E-03 0.  1.
</event>
<event>
 8    1  0.1122848E+005  0.1043930E+01  0.7957747E-01            NaN
         13   -1    0    0    0    0  0.00000000000E+00  0.00000000000E+00  0.74505805969E-08  0.10566000000E+00  0.10566000000E+00 0.  1.
     999900   -1    0    0    0    0 -0.00000000000E+00 -0.00000000000E+00 -0.74505805969E-08  0.93827000000E+00  0.93827000000E+00 0. -1.
     999902    2    1    2    0    0  0.15597994697E-01 -0.16060430646E-01 -0.45185941441E-02  0.10210902854E+01  0.10208348144E+01 0.  0.
     999903    2    3    3    0    0 -0.41026168163E-01  0.72033718830E-01  0.95917467065E-01  0.12920785064E+00  0.24950051243E-01 0.  0.
         14    1    1    2    0    0 -0.15597994697E-01  0.16060430646E-01  0.45185941441E-02  0.22839714625E-01  0.00000000000E+00 0. -1.
     999901    1    3    3    0    0  0.56624162860E-01 -0.88094149476E-01 -0.10043606121E+00  0.89188243473E+00  0.88000000000E+00 0. -1.
        -11    1    4    4    0    0 -0.11311080406E-01  0.30643450209E-01  0.21835996190E-01  0.39294190808E-01  0.51100000000E-03 0.  1.
         11    1    4    4    0    0 -0.29715087758E-01  0.41390268621E-01  0.74081470875E-01  0.89913659835E-01  0.51100000000E-03 0. -1.
</event>
<event>
 8    1  0.1122848E+005  0.1043930E+01  0.7957747E-01            NaN
         13   -1    0    0    0    0  0.00000000000E+00  0.00000000000E+00  0.74505805969E-08  0.10566000000E+00  0.10566000000E+00 0. -1.
     999900   -1    0    0    0    0 -0.00000000000E+00 -0.00000000000E+00 -0.74505805969E-08  0.93827000000E+00  0.93827000000E+00 0. -1.
     999902    2    1    2    0    0 -0.32459231888E-02  0.66237378118E-03 -0.23861329106E-01  0.10198397990E+01  0.10195552353E+01 0.  0.
     999903    2    3    3    0    0  0.69062360757E-01  0.10680151560E+00  0.15466633019E-01  0.12964841850E+00  0.19832354247E-01 0.  0.
         14    1    1    2    0    0  0.32459231888E-02 -0.66237378118E-03  0.23861329106E-01  0.24090200977E-01  0.00000000000E+00 0. -1.
     999901    1    3    3    0    0 -0.72308283945E-01 -0.10613914182E+00 -0.39327962126E-01  0.89019138052E+00  0.88000000000E+00 0. -1.
        -11    1    4    4    0    0  0.27933771678E-01  0.27333988937E-01  0.76391696583E-02  0.39825376149E-01  0.51100000000E-03 0.  1.
         11    1    4    4    0    0  0.41128589079E-01  0.79467526663E-01  0.78274633609E-02  0.89823042351E-01  0.51100000000E-03 0. -1.
</event>
<event>
 8    1  0.1122848E+005  0.1043930E+01  0.7957747E-01            NaN
         13   -1    0    0    0    0  0.00000000000E+00  0.00000000000E+00  0.74505805969E-08  0.10566000000E+00  0.10566000000E+00 0.  1.
     999900   -1    0    0    0    0 -0.00000000000E+00 -0.00000000000E+00 -0.74505805969E-08  0.93827000000E+00  0.93827000000E+00 0. -1.
     999902    2    1    2    0    0  0.19944682425E-01 -0.48014121846E-02  0.13565216168E-01  0.10193361185E+01  0.10190393827E+01 0.  0.
     999903    2    3    3    0    0 -0.74103763894E-01  0.56016870866E-01 -0.83987837029E-01  0.12688972126E+00  0.20439837299E-01 0.  0.
         14    1    1    2    0    0 -0.19944682425E-01  0.48014121846E-02 -0.13565216168E-01  0.24593881468E-01  0.00000000000E+00 0. -1.
     999901    1    3    3    0    0  0.94048446318E-01 -0.60818283050E-01  0.97553053197E-01  0.89244639727E+00  0.88000000000E+00 0.  1.
        -11    1    4    4    0    0 -0.41142832250E-01  0.18490300356E-01 -0.37665176956E-01  0.58766916959E-01  0.51100000000E-03 0. -1.
         11    1    4    4    0    0 -0.32960931644E-01  0.37526570510E-01 -0.46322660073E-01  0.68122804305E-01  0.51100000000E-03 0.  1.
</event>
<event>
 8    1  0.1122848E+005  0.1043930E+01  0.7957747E-01            NaN
         13   -1    0    0    0    0  0.00000000000E+00  0.00000000000E+00  0.74505805969E-08  0.10566000000E+00  0.10566000000E+00 0. -1.
     999900   -1    0    0    0    0 -0.00000000000E+00 -0.00000000000E+00 -0.74505805969E-08  0.93827000000E+00  0.93827000000E+00 0. -1.
     999902    2    1    2    0    0  0.10924829597E-01  0.66311881013E-02 -0.20720683073E-01  0.10195851594E+01  0.10192944746E+01 0.  0.
     999903    2    3    3    0    0  0.98562577436E-01 -0.79706649282E-01  0.20739963188E-01  0.13006080211E+00  0.20443447871E-01 0.  0.
         14    1    1    2    0    0 -0.10924829597E-01 -0.66311881013E-02  0.20720683073E-01  0.24344840611E-01  0.00000000000E+00 0. -1.
     999901    1    3    3    0    0 -0.87637747839E-01  0.86337837383E-01 -0.41460646261E-01  0.88952435728E+00  0.88000000000E+00 0.  1.
        -11    1    4    4    0    0  0.30943235652E-01 -0.35634881736E-01  0.13118002010E-01  0.48986444316E-01  0.51100000000E-03 0. -1.
         11    1    4    4    0    0  0.67619341784E-01 -0.44071767546E-01  0.76219611773E-02  0.81074357791E-01  0.51100000000E-03 0.  1.
</event>
<event>
 7    1  0.1122848E+005  0.1043930E+01  0.7957747E-01            NaN
         13   -1    0    0    0    0  0.00000000000E+00  0.00000000000E+00  0.74505805969E-08  0.10566000000E+00  0.10566000000E+00 0.  1.
     999900   -1    0    0    0    0 -0.00000000000E+00 -0.00000000000E+00 -0.74505805969E-08  0.93827000000E+00  0.93827000000E+00 0. -1.
     999903    2    1    2    0    0  0.12551810900E-01 -0.96111954458E-01  0.58750066364E-01  0.11504864763E+00  0.19737408042E-01 0.  0.
         14    1    1    2    0    0  0.33679743669E-01  0.26850072494E-01 -0.39367125470E-02  0.43252158700E-01  0.00000000000E+00 0. -1.
     999901    1    1    2    0    0 -0.46231554569E-01  0.69261881964E-01 -0.54813353817E-01  0.88562919367E+00  0.88000000000E+00 0. -1.
        -11    1    3    3    0    0 -0.43960745378E-02 -0.95436176877E-02  0.85174988703E-02  0.13535694216E-01  0.51100000000E-03 0.  1.
         11    1    3    3    0    0  0.16947885438E-01 -0.86568336770E-01  0.50232567494E-01  0.10151295341E+00  0.51100000000E-03 0. -1.
</event>
<event>
 8    1  0.1122848E+005  0.1043930E+01  0.7957747E-01            NaN
         13   -1    0    0    0    0  0.00000000000E+00  0.00000000000E+00  0.74505805969E-08  0.10566000000E+00  0.10566000000E+00 0. -1.
     999900   -1    0    0    0    0 -0.00000000000E+00 -0.00000000000E+00 -0.74505805969E-08  0.93827000000E+00  0.93827000000E+00 0. -1.
     999902    2    1    2    0    0 -0.18815808326E-01  0.63260012569E-02  0.12441072986E-01  0.10205028100E+01  0.10202338712E+01 0.  0.
     999903    2    3    3    0    0  0.17342501329E-02 -0.12554242100E+00 -0.25818182830E-01  0.12961821794E+00  0.19245694671E-01 0.  0.
         14    1    1    2    0    0  0.18815808326E-01 -0.63260012569E-02 -0.12441072986E-01  0.23427190013E-01  0.00000000000E+00 0. -1.
     999901    1    3    3    0    0 -0.20550058459E-01  0.13186842226E+00  0.38259255816E-01  0.89088459205E+00  0.88000000000E+00 0.  1.
        -11    1    4    4    0    0  0.44227522867E-02 -0.27381470009E-01  0.12099418807E-02  0.27767439890E-01  0.51100000000E-03 0. -1.
         11    1    4    4    0    0 -0.26885021538E-02 -0.98160950990E-01 -0.27028124711E-01  0.10185077805E+00  0.51100000000E-03 0.  1.
</event>
<event>
 8    1  0.1122848E+005  0.1043930E+01  0.7957747E-01            NaN
         13   -1    0    0    0    0  0.00000000000E+00  0.00000000000E+00  0.74505805969E-08  0.10566000000E+00  0.10566000000E+00 0.  1.
     999900   -1    0    0    0    0 -0.00000000000E+00 -0.00000000000E+00 -0.74505805969E-08  0.93827000000E+00  0.93827000000E+00 0. -1.
     999902    2    1    2    0    0 -0.18403033818E-01 -0.54379820540E-02  0.11261327280E-01  0.10216800383E+01  0.10214377318E+01 0.  0.
     999903    2    3    3    0    0 -0.30198992273E-01  0.11059528893E+00 -0.60448345059E-01  0.13109307361E+00  0.19700113215E-01 0.  0.
         14    1    1    2    0    0  0.18403033818E-01  0.54379820540E-02 -0.11261327280E-01  0.22249961678E-01  0.00000000000E+00 0. -1.
     999901    1    3    3    0    0  0.11795958455E-01 -0.11603327098E+00  0.71709672339E-01  0.89058696471E+00  0.88000000000E+00 0. -1.
        -11    1    4    4    0    0 -0.17336726319E-01  0.50552169202E-01 -0.17810347860E-01  0.56334301295E-01  0.51100000000E-03 0. -1.
         11    1    4    4    0    0 -0.12862265954E-01  0.60043119725E-01 -0.42637997198E-01  0.74758772314E-01  0.51100000000E-03 0.  1.
</event>
<event>
 8    1  0.1122848E+005  0.1043930E+01  0.7957747E-01            NaN
         13   -1    0    0    0    0  0.00000000000E+00  0.00000000000E+00  0.74505805969E-08  0.10566000000E+00  0.10566000000E+00 0. -1.
     999900   -1    0    0    0    0 -0.00000000000E+00 -0.00000000000E+00 -0.74505805969E-08  0.93827000000E+00  0.93827000000E+00 0. -1.
     999902    2    1    2    0    0  0.15349757202E-01  0.17629564443E-01 -0.42119371612E-02  0.10201780105E+01  0.10199014738E+01 0.  0.
     999903    2    3    3    0    0  0.46033830521E-01 -0.10709961999E+00 -0.52858831428E-01  0.12952353089E+00  0.19820364248E-01 0.  0.
         14    1    1    2    0    0 -0.15349757202E-01 -0.17629564443E-01  0.42119371612E-02  0.23751989459E-01  0.00000000000E+00 0. -1.
     999901    1    3    3    0    0 -0.30684073319E-01  0.12472918443E+00  0.48646894267E-01  0.89065447965E+00  0.88000000000E+00 0.  1.
        -11    1    4    4    0    0  0.40199773585E-01 -0.70310790189E-01 -0.36511886055E-01  0.88842602155E-01  0.51100000000E-03 0.  1.
         11    1    4    4    0    0  0.58340569359E-02 -0.36788829802E-01 -0.16346945373E-01  0.40680928732E-01  0.51100000000E-03 0. -1.
</event>
<event>
 8    1  0.1122848E+005  0.1043930E+01  0.7957747E-01            NaN
         13   -1    0    0    0    0  0.00000000000E+00  0.00000000000E+00  0.74505805969E-08  0.10566000000E+00  0.10566000000E+00 0.  1.
     999900   -1    0    0    0    0 -0.00000000000E+00 -0.00000000000E+00 -0.74505805969E-08  0.93827000000E+00  0.93827000000E+00 0.  1.
     999902    2    1    2    0    0  0.19986579093E-01  0.12806264836E-01 -0.10497164263E-01  0.10179751503E+01  0.10176442171E+01 0.  0.
     999903    2    3    3    0    0  0.76822085890E-01 -0.51136788603E-01 -0.89741951348E-01  0.13028222754E+00  0.20080760771E-01 0.  0.
         14    1    1    2    0    0 -0.19986579093E-01 -0.12806264836E-01  0.10497164263E-01  0.25954849652E-01  0.00000000000E+00 0.  1.
     999901    1    3    3    0    0 -0.56835506797E-01  0.63943053439E-01  0.79244787085E-01  0.88769292280E+00  0.88000000000E+00 0. -1.
        -11    1    4    4    0    0  0.43420483712E-01 -0.16861448168E-01 -0.44577256850E-01  0.64475109844E-01  0.51100000000E-03 0. -1.
         11    1    4    4    0    0  0.33401602178E-01 -0.34275340435E-01 -0.45164694498E-01  0.65807117701E-01  0.51100000000E-03 0.  1.
</event>
<event>
 8    1  0.1122848E+005  0.1043930E+01  0.7957747E-01            NaN
         13   -1    0    0    0    0  0.00000000000E+00  0.00000000000E+00  0.74505805969E-08  0.10566000000E+00  0.10566000000E+00 0.  1.
     999900   -1    0    0    0    0 -0.00000000000E+00 -0.00000000000E+00 -0.74505805969E-08  0.93827000000E+00  0.93827000000E+00 0.  1.
     999902    2    1    2    0    0 -0.16970735345E-01 -0.15152456202E-01 -0.60789842940E-02  0.10203809695E+01  0.10201091932E+01 0.  0.
     999903    2    3    3    0    0 -0.77786369259E-01 -0.37115920771E-01 -0.10015955032E+00  0.13300726694E+00  0.15188374558E-01 0.  0.
         14    1    1    2    0    0  0.16970735345E-01  0.15152456202E-01  0.60789842940E-02  0.23549030493E-01  0.00000000000E+00 0.  1.
     999901    1    3    3    0    0  0.60815633914E-01  0.21963464570E-01  0.94080566024E-01  0.88737370257E+00  0.88000000000E+00 0. -1.
        -11    1    4    4    0    0 -0.20507236819E-01 -0.93836676323E-02 -0.37069787697E-01  0.43393896588E-01  0.51100000000E-03 0.  1.
         11    1    4    4    0    0 -0.57279132440E-01 -0.27732253139E-01 -0.63089762621E-01  0.89613370352E-01  0.51100000000E-03 0. -1.
</event>
<event>
 8    1  0.1122848E+005  0.1043930E+01  0.7957747E-01            NaN
         13   -1    0    0    0    0  0.00000000000E+00  0.00000000000E+00  0.74505805969E-08  0.10566000000E+00  0.10566000000E+00 0.  1.
     999900   -1    0    0    0    0 -0.00000000000E+00 -0.00000000000E+00 -0.74505805969E-08  0.93827000000E+00  0.93827000000E+00 0. -1.
     999902    2    1    2    0    0  0.10159511609E-01 -0.16724353430E-01 -0.11894165488E-01  0.10210304182E+01  0.10207735910E+01 0.  0.
     999903    2    3    3    0    0 -0.10925415302E+00  0.12955654188E-01  0.64774202503E-01  0.12916800460E+00  0.19605029318E-01 0.  0.
         14    1    1    2    0    0 -0.10159511609E-01  0.16724353430E-01  0.11894165488E-01  0.22899581796E-01  0.00000000000E+00 0.  1.
     999901    1    3    3    0    0  0.11941366463E+00 -0.29680007618E-01 -0.76668367991E-01  0.89186241361E+00  0.88000000000E+00 0. -1.
        -11    1    4    4    0    0 -0.82092827988E-01  0.12203806344E-01  0.57709755972E-01  0.10108828988E+00  0.51100000000E-03 0. -1.
         11    1    4    4    0    0 -0.27161325031E-01  0.75184784428E-03  0.70644465311E-02  0.28079714713E-01  0.51100000000E-03 0.  1.
</event>
<event>
 8    1  0.1122848E+005  0.1043930E+01  0.7957747E-01            NaN
         13   -1    0    0    0    0  0.00000000000E+00  0.00000000000E+00  0.74505805969E-08  0.10566000000E+00  0.10566000000E+00 0.  1.
     999900   -1    0    0    0    0 -0.00000000000E+00 -0.00000000000E+00 -0.74505805969E-08  0.93827000000E+00  0.93827000000E+00 0.  1.
     999902    2    1    2    0    0 -0.22128207991E-01 -0.46328987403E-03  0.65670989923E-02  0.10208432286E+01  0.10205821370E+01 0.  0.
     999903    2    3    3    0    0  0.11568736204E+00 -0.35270675229E-01  0.39255217969E-01  0.12883807244E+00  0.20753084236E-01 0.  0.
         14    1    1    2    0    0  0.22128207991E-01  0.46328987403E-03 -0.65670989923E-02  0.23086771441E-01  0.00000000000E+00 0.  1.
     999901    1    3    3    0    0 -0.13781557003E+00  0.34807385355E-01 -0.32688118976E-01  0.89200515612E+00  0.88000000000E+00 0. -1.
        -11    1    4    4    0    0  0.47145797003E-01 -0.55648665070E-02  0.21137564934E-01  0.51968756831E-01  0.51100000000E-03 0.  1.
         11    1    4    4    0    0  0.68541565039E-01 -0.29705808723E-01  0.18117653035E-01  0.76869315610E-01  0.51100000000E-03 0. -1.
</event>
<event>
 8    1  0.1122848E+005  0.1043930E+01  0.7957747E-01            NaN
         13   -1    0    0    0    0  0.00000000000E+00  0.00000000000E+00  0.74505805969E-08  0.10566000000E+00  0.10566000000E+00 0. -1.
     999900   -1    0    0    0    0 -0.00000000000E+00 -0.00000000000E+00 -0.74505805969E-08  0.93827000000E+00  0.93827000000E+00 0. -1.
     999902    2    1    2    0    0  0.11765842745E-01  0.82004219788E-02 -0.17019774411E-01  0.10216734347E+01  0.10214309828E+01 0.  0.
     999903    2    3    3    0    0  0.47084891329E-01 -0.12033409533E+00  0.10962065319E-01  0.13119516960E+00  0.19867666220E-01 0.  0.
         14    1    1    2    0    0 -0.11765842745E-01 -0.82004219788E-02  0.17019774411E-01  0.22256565259E-01  0.00000000000E+00 0. -1.
     999901    1    3    3    0    0 -0.35319048584E-01  0.12853451731E+00 -0.27981839730E-01  0.89047826514E+00  0.88000000000E+00 0. -1.
        -11    1    4    4    0    0  0.20509025371E-01 -0.28945614731E-01  0.91031821821E-03  0.35490259708E-01  0.51100000000E-03 0. -1.
         11    1    4    4    0    0  0.26575865958E-01 -0.91388480596E-01  0.10051747101E-01  0.95704909894E-01  0.51100000000E-03 0.  1.
</event>
<event>
 8    1  0.1122848E+005  0.1043930E+01  0.7957747E-01            NaN
         13   -1    0    0    0    0  0.00000000000E+00  0.00000000000E+00  0.74505805969E-08  0.10566000000E+00  0.10566000000E+00 0.  1.
     999900   -1    0    0    0    0 -0.00000000000E+00 -0.00000000000E+00 -0.74505805969E-08  0.93827000000E+00  0.93827000000E+00 0. -1.
     999902    2    1    2    0    0 -0.53034829286E-03  0.11724866329E-01 -0.22059913937E-01  0.10189421317E+01  0.10186356926E+01 0.  0.
     999903    2    3    3    0    0 -0.10718858439E+00  0.58477038582E-01 -0.42681882033E-01  0.13103053108E+00  0.20935624054E-01 0.  0.
         14    1    1    2    0    0  0.53034829286E-03 -0.11724866329E-01  0.22059913937E-01  0.24987868310E-01  0.00000000000E+00 0.  1.
     999901    1    3    3    0    0  0.10665823610E+00 -0.46752172253E-01  0.20621968096E-01  0.88791160061E+00  0.88000000000E+00 0.  1.
        -11    1    4    4    0    0 -0.49797755349E-01  0.26209347495E-01 -0.30705989884E-01  0.64108230904E-01  0.51100000000E-03 0. -1.
         11    1    4    4    0    0 -0.57390829044E-01  0.32267691087E-01 -0.11975892149E-01  0.66922300171E-01  0.51100000000E-03 0.  1.
</event>
<event>
 8    1  0.1122848E+005  0.1043930E+01  0.7957747E-01            NaN
         13   -1    0    0    0    0  0.00000000000E+00  0.00000000000E+00  0.74505805969E-08  0.10566000000E+00  0.10566000000E+00 0. -1.
     999900   -1    0    0    0    0 -0.00000000000E+00 -0.00000000000E+00 -0.74505805969E-08  0.93827000000E+00  0.93827000000E+00 0.  1.
     999902    2    1    2    0    0  0.20469054447E-01 -0.87018405410E-02 -0.98741347609E-02  0.10195947836E+01  0.10193043314E+01 0.  0.
     999903    2    3    3    0    0 -0.31231689428E-01 -0.27637569936E-01  0.11975730488E+00  0.12839568190E+00  0.20109335247E-01 0.  0.
         14    1    1    2    0    0 -0.20469054447E-01  0.87018405410E-02  0.98741347609E-02  0.24335216375E-01  0.00000000000E+00 0. -1.
     999901    1    3    3    0    0  0.51700743876E-01  0.18935729395E-01 -0.12963143964E+00  0.89119910172E+00  0.88000000000E+00 0.  1.
        -11    1    4    4    0    0 -0.15625042431E-01 -0.18922639970E-02  0.33073435228E-01  0.36631077690E-01  0.51100000000E-03 0.  1.
         11    1    4    4    0    0 -0.15606646998E-01 -0.25745305939E-01  0.86683869648E-01  0.91764604214E-01  0.51100000000E-03 0. -1.
</event>
<event>
 7    1  0.1122848E+005  0.1043930E+01  0.7957747E-01            NaN
         13   -1    0    0    0    0  0.00000000000E+00  0.00000000000E+00  0.74505805969E-08  0.10566000000E+00  0.10566000000E+00 0. -1.
     999900   -1    0    0    0    0 -0.00000000000E+00 -0.00000000000E+00 -0.74505805969E-08  0.93827000000E+00  0.93827000000E+00 0.  1.
     999902    2    1    2    0    0  0.67740264721E-03 -0.24967266810E-01 -0.12424183806E-02  0.10189226633E+01  0.10186157405E+01 0.  0.
         14    1    1    2    0    0 -0.67740264721E-03  0.24967266810E-01  0.12424183806E-02  0.25007336718E-01  0.00000000000E+00 0. -1.
     999901    1    3    3    0    0  0.10074906831E+00  0.51498886865E-01 -0.60837165795E-02  0.88726519244E+00  0.88000000000E+00 0.  1.
        -11    1    3    3    0    0 -0.24588092306E-01 -0.37650150524E-01  0.11797056831E-01  0.46492362691E-01  0.51100000000E-03 0.  1.
         11    1    3    3    0    0 -0.75483573353E-01 -0.38816003151E-01 -0.69557586325E-02  0.85165108148E-01  0.51100000000E-03 0. -1.
</event>
<event>
 8    1  0.1122848E+005  0.1043930E+01  0.7957747E-01            NaN
         13   -1    0    0    0    0  0.00000000000E+00  0.00000000000E+00  0.74505805969E-08  0.10566000000E+00  0.10566000000E+00 0. -1.
     999900   -1    0    0    0    0 -0.00000000000E+00 -0.00000000000E+00 -0.74505805969E-08  0.93827000000E+00  0.93827000000E+00 0. -1.
     999902    2    1    2    0    0  0.21662957703E-01 -0.96578607604E-02  0.60172309935E-02  0.10194603233E+01  0.10191666133E+01 0.  0.
     999903    2    3    3    0    0  0.11959852116E+00  0.32653892738E-01  0.41020539351E-01  0.13232623493E+00  0.21388427454E-01 0.  0.
         14    1    1    2    0    0 -0.21662957703E-01  0.96578607604E-02 -0.60172309935E-02  0.24469676739E-01  0.00000000000E+00 0.  1.
     999901    1    3    3    0    0 -0.97935563457E-01 -0.42311753498E-01 -0.35003308358E-01  0.88713408833E+00  0.88000000000E+00 0. -1.
        -11    1    4    4    0    0  0.72832727825E-01  0.24559774263E-01  0.35085228843E-01  0.84492740269E-01  0.51100000000E-03 0.  1.
         11    1    4    4    0    0  0.46765793335E-01  0.80941184751E-02  0.59353105082E-02  0.47833494666E-01  0.51100000000E-03 0. -1.
</event>
<event>
 8    1  0.1122848E+005  0.1043930E+01  0.7957747E-01            NaN
         13   -1    0    0    0    0  0.00000000000E+00  0.00000000000E+00  0.74505805969E-08  0.10566000000E+00  0.10566000000E+00 0. -1.
     999900   -1    0    0    0    0 -0.00000000000E+00 -0.00000000000E+00 -0.74505805969E-08  0.93827000000E+00  0.93827000000E+00 0.  1.
     999902    2    1    2    0    0  0.87097437217E-02 -0.17888105621E-01  0.11162082520E-01  0.10211169326E+01  0.10208620641E+01 0.  0.
     999903    2    3    3    0    0  0.10410204976E+00  0.62582788073E-01 -0.43863174744E-01  0.13060975367E+00  0.19521463250E-01 0.  0.
         14    1    1    2    0    0 -0.87097437217E-02  0.17888105621E-01 -0.11162082520E-01  0.22813067408E-01  0.00000000000E+00 0.  1.
     999901    1    3    3    0    0 -0.95392306035E-01 -0.80470893694E-01  0.55025257264E-01  0.89050717893E+00  0.88000000000E+00 0.  1.
        -11    1    4    4    0    0  0.43679768122E-01  0.22646771038E-01 -0.82230064525E-02  0.49886644884E-01  0.51100000000E-03 0. -1.
         11    1    4    4    0    0  0.60422281634E-01  0.39936017035E-01 -0.35640168291E-01  0.80723108781E-01  0.51100000000E-03 0.  1.
</event>
<event>
 8    1  0.1122848E+005  0.1043930E+01  0.7957747E-01            NaN
         13   -1    0    0    0    0  0.00000000000E+00  0.00000000000E+00  0.74505805969E-08  0.10566000000E+00  0.10566000000E+00 0.  1.
     999900   -1    0    0    0    0 -0.00000000000E+00 -0.00000000000E+00 -0.74505805969E-08  0.93827000000E+00  0.93827000000E+00 0.  1.
     999902    2    1    2    0    0  0.17331140667E-01 -0.14668641300E-01  0.32429160365E-02  0.10209941334E+01  0.10207364823E+01 0.  0.
     999903    2    3    3    0    0  0.57285840352E-01 -0.11198164707E+00 -0.40583794182E-01  0.13364584793E+00  0.19814427368E-01 0.  0.
         14    1    1    2    0    0 -0.17331140667E-01  0.14668641300E-01 -0.32429160365E-02  0.22935866647E-01  0.00000000000E+00 0.  1.
     999901    1    3    3    0    0 -0.39954699685E-01  0.97313005773E-01  0.43826710218E-01  0.88734828543E+00  0.88000000000E+00 0.  1.
        -11    1    4    4    0    0  0.63960742580E-02 -0.21555927947E-01 -0.14138598062E-01  0.26565557998E-01  0.51100000000E-03 0.  1.
         11    1    4    4    0    0  0.50889766094E-01 -0.90425719126E-01 -0.26445196120E-01  0.10708028993E+00  0.51100000000E-03 0. -1.
</event>
<event>
 8    1  0.1122848E+005  0.1043930E+01  0.7957747E-01            NaN
         13   -1    0    0    0    0  0.00000000000E+00  0.00000000000E+00  0.74505805969E-08  0.10566000000E+00  0.10566000000E+00 0.  1.
     999900   -1    0    0    0    0 -0.00000000000E+00 -0.00000000000E+00 -0.74505805969E-08  0.93827000000E+00  0.93827000000E+00 0. -1.
     999902    2    1    2    0    0  0.13777775363E-01 -0.87457411315E-02  0.16977548071E-01  0.10203810675E+01  0.10201092935E+01 0.  0.
     999903    2    3    3    0    0  0.64258354551E-01 -0.61173550101E-01 -0.93583927348E-01  0.13048174521E+00  0.19904648011E-01 0.  0.
         14    1    1    2    0    0 -0.13777775363E-01  0.87457411315E-02 -0.16977548071E-01  0.23548932469E-01  0.00000000000E+00 0. -1.
     999901    1    3    3    0    0 -0.50480579187E-01  0.52427808969E-01  0.11056147542E+00  0.88989932233E+00  0.88000000000E+00 0.  1.
        -11    1    4    4    0    0  0.31035946085E-01 -0.16259120488E-01 -0.34857195254E-01  0.49425440113E-01  0.51100000000E-03 0.  1.
         11    1    4    4    0    0  0.33222408466E-01 -0.44914429613E-01 -0.58726732095E-01  0.81056305092E-01  0.51100000000E-03 0. -1.
</event>
<event>
 8    1  0.1122848E+005  0.1043930E+01  0.7957747E-01            NaN
         13   -1    0    0    0    0  0.00000000000E+00  0.00000000000E+00  0.74505805969E-08  0.10566000000E+00  0.10566000000E+00 0. -1.
     999900   -1    0    0    0    0 -0.00000000000E+00 -0.00000000000E+00 -0.74505805969E-08  0.93827000000E+00  0.93827000000E+00 0. -1.
     999902    2    1    2    0    0 -0.68539064180E-02 -0.60663062367E-02  0.21768478768E-01  0.10203155389E+01  0.10200422325E+01 0.  0.
     999903    2    3    3    0    0 -0.16999391149E-01 -0.12227617914E+00  0.43474484584E-01  0.13235224231E+00  0.19663213145E-01 0.  0.
         14    1    1    2    0    0  0.68539064180E-02  0.60663062367E-02 -0.21768478768E-01  0.23614461087E-01  0.00000000000E+00 0.  1.
     999901    1    3    3    0    0  0.10145484731E-01  0.11620987290E+00 -0.21706005816E-01  0.88796329660E+00  0.88000000000E+00 0. -1.
        -11    1    4    4    0    0 -0.12592770731E-01 -0.85384255429E-01  0.39703908388E-01  0.95003738938E-01  0.51100000000E-03 0.  1.
         11    1    4    4    0    0 -0.44066204186E-02 -0.36891923710E-01  0.37705761958E-02  0.37348503375E-01  0.51100000000E-03 0. -1.
</event>
<event>
 8    1  0.1122848E+005  0.1043930E+01  0.7957747E-01            NaN
         13   -1    0    0    0    0  0.00000000000E+00  0.00000000000E+00  0.74505805969E-08  0.10566000000E+00  0.10566000000E+00 0. -1.
     999900   -1    0    0    0    0 -0.00000000000E+00 -0.00000000000E+00 -0.74505805969E-08  0.93827000000E+00  0.93827000000E+00 0. -1.
     999902    2    1    2    0    0 -0.16675851358E-01  0.15605488305E-01  0.63963815804E-02  0.10202123066E+01  0.10199365772E+01 0.  0.
     999903    2    3    3    0    0 -0.42265361433E-01  0.12462181298E+00 -0.19986440254E-02  0.13307654554E+00  0.19708255780E-01 0.  0.
         14    1    1    2    0    0  0.16675851358E-01 -0.15605488305E-01 -0.63963815804E-02  0.23717693418E-01  0.00000000000E+00 0.  1.
     999901    1    3    3    0    0  0.25589510075E-01 -0.10901632468E+00  0.83950256057E-02  0.88713576105E+00  0.88000000000E+00 0.  1.
        -11    1    4    4    0    0 -0.20179643098E-01  0.79121912912E-01 -0.84279243944E-02  0.82090109812E-01  0.51100000000E-03 0.  1.
         11    1    4    4    0    0 -0.22085718334E-01  0.45499900070E-01  0.64292803691E-02  0.50986435724E-01  0.51100000000E-03 0. -1.
</event>
<event>
 8    1  0.1122848E+005  0.1043930E+01  0.7957747E-01            NaN
         13   -1    0    0    0    0  0.00000000000E+00  0.00000000000E+00  0.74505805969E-08  0.10566000000E+00  0.10566000000E+00 0. -1.
     999900   -1    0    0    0    0 -0.00000000000E+00 -0.00000000000E+00 -0.74505805969E-08  0.93827000000E+00  0.93827000000E+00 0.  1.
     999902    2    1    2    0    0  0.32020976959E-03  0.15680234402E-01  0.16874074278E-01  0.10208929284E+01  0.10206329725E+01 0.  0.
     999903    2    3    3    0    0 -0.12826029364E+00  0.17978301097E-01 -0.34650171016E-02  0.13131330543E+00  0.21383535818E-01 0.  0.
         14    1    1    2    0    0 -0.32020976959E-03 -0.15680234402E-01 -0.16874074278E-01  0.23037071601E-01  0.00000000000E+00 0. -1.
     999901    1    3    3    0    0  0.12858050341E+00 -0.22980666941E-02  0.20339091379E-01  0.88957962297E+00  0.88000000000E+00 0. -1.
        -11    1    4    4    0    0 -0.76375759141E-01  0.13410244085E-01  0.80669410178E-02  0.77964273159E-01  0.51100000000E-03 0.  1.
         11    1    4    4    0    0 -0.51884534498E-01  0.45680570112E-02 -0.11531958119E-01  0.53349032269E-01  0.51100000000E-03 0. -1.
</event>
<event>
 8    1  0.1122848E+005  0.1043930E+01  0.7957747E-01            NaN
         13   -1    0    0    0    0  0.00000000000E+00  0.00000000000E+00  0.74505805969E-08  0.10566000000E+00  0.10566000000E+00 0. -1.
     999900   -1    0    0    0    0 -0.00000000000E+00 -0.00000000000E+00 -0.74505805969E-08  0.93827000000E+00  0.93827000000E+00 0. -1.
     999902    2    1    2    0    0  0.10992155454E-01  0.60441945062E-02 -0.20233354480E-01  0.10201235218E+01  0.10198456998E+01 0.  0.
     999903    2    3    3    0    0  0.25351302378E-01  0.43414109972E-01  0.11655482486E+00  0.12865635941E+00  0.20975179221E-01 0.  0.
         14    1    1    2    0    0 -0.10992155454E-01 -0.60441945062E-02  0.20233354480E-01  0.23806478157E-01  0.00000000000E+00 0. -1.
     999901    1    3    3    0    0 -0.14359146924E-01 -0.37369915466E-01 -0.13678817934E+00  0.89146716243E+00  0.88000000000E+00 0. -1.
        -11    1    4    4    0    0  0.44276955889E-02  0.27693388280E-01  0.66400880567E-01  0.72082357784E-01  0.51100000000E-03 0. -1.
         11    1    4    4    0    0  0.20923606789E-01  0.15720721692E-01  0.50153944290E-01  0.56574001630E-01  0.51100000000E-03 0.  1.
</event>
<event>
 8    1  0.1122848E+005  0.1043930E+01  0.7957747E-01            NaN
         13   -1    0    0    0    0  0.00000000000E+00  0.00000000000E+00  0.74505805969E-08  0.10566000000E+00  0.10566000000E+00 0. -1.
     999900   -1    0    0    0    0 -0.00000000000E+00 -0.00000000000E+00 -0.74505805969E-08  0.93827000000E+00  0.93827000000E+00 0.  1.
     999902    2    1    2    0    0  0.19103443590E-02  0.20146343098E-01 -0.62956774212E-02  0.10227366022E+01  0.10225169912E+01 0.  0.
     999903    2    3    3    0    0  0.76897141179E-01 -0.10277058486E+00  0.15518045551E-01  0.13076831276E+00  0.19610671819E-01 0.  0.
         14    1    1    2    0    0 -0.19103443590E-02 -0.20146343098E-01  0.62956774212E-02  0.21193397792E-01  0.00000000000E+00 0. -1.
     999901    1    3    3    0    0 -0.74986796820E-01  0.12291692796E+00 -0.21813722972E-01  0.89196828945E+00  0.88000000000E+00 0.  1.
        -11    1    4    4    0    0  0.86188553909E-03 -0.50444675430E-02  0.37959641199E-02  0.63921799157E-02  0.51100000000E-03 0. -1.
         11    1    4    4    0    0  0.76035255639E-01 -0.97726117319E-01  0.11722081431E-01  0.12437613284E+00  0.51100000000E-03 0.  1.
</event>
<event>
 8    1  0.1122848E+005  0.1043930E+01  0.7957747E-01            NaN
         13   -1    0    0    0    0  0.00000000000E+00  0.00000000000E+00  0.74505805969E-08  0.10566000000E+00  0.10566000000E+00 0.  1.
     999900   -1    0    0    0    0 -0.00000000000E+00 -0.00000000000E+00 -0.74505805969E-08  0.93827000000E+00  0.93827000000E+00 0.  1.
     999902    2    1    2    0    0 -0.21192360602E-01 -0.55486686793E-05  0.97983102735E-02  0.10205821294E+01  0.10203150297E+01 0.  0.
     999903    2    3    3    0    0  0.92059894391E-01 -0.13208643244E-01  0.88579566244E-01  0.12973596911E+00  0.18319107848E-01 0.  0.
         14    1    1    2    0    0  0.21192360602E-01  0.55486686793E-05 -0.97983102735E-02  0.23347870628E-01  0.00000000000E+00 0. -1.
     999901    1    3    3    0    0 -0.11325225499E+00  0.13203094576E-01 -0.78781255970E-01  0.89084616027E+00  0.88000000000E+00 0.  1.
        -11    1    4    4    0    0  0.62283302208E-01 -0.16503476571E-01  0.54838432412E-01  0.84611401497E-01  0.51100000000E-03 0. -1.
         11    1    4    4    0    0  0.29776592183E-01  0.32948333263E-02  0.33741133832E-01  0.45124567610E-01  0.51100000000E-03 0.  1.
</event>
<event>
 8    1  0.1122848E+005  0.1043930E+01  0.7957747E-01            NaN
         13   -1    0    0    0    0  0.00000000000E+00  0.00000000000E+00  0.74505805969E-08  0.10566000000E+00  0.10566000000E+00 0. -1.
     999900   -1    0    0    0    0 -0.00000000000E+00 -0.00000000000E+00 -0.74505805969E-08  0.93827000000E+00  0.93827000000E+00 0. -1.
     999902    2    1    2    0    0 -0.18537680160E-01 -0.11739322090E-01 -0.91296714345E-02  0.10201643069E+01  0.10198874472E+01 0.  0.
     999903    2    3    3    0    0 -0.10998399702E+00 -0.68093784585E-01 -0.25806918343E-01  0.13347586956E+00  0.20409988262E-01 0.  0.
         14    1    1    2    0    0  0.18537680160E-01  0.11739322090E-01  0.91296714345E-02  0.23765693118E-01  0.00000000000E+00 0. -1.
     999901    1    3    3    0    0  0.91446316864E-01  0.56354462495E-01  0.16677246908E-01  0.88668843732E+00  0.88000000000E+00 0.  1.
        -11    1    4    4    0    0 -0.53214278857E-01 -0.26458108448E-01 -0.31404529103E-02  0.59513986107E-01  0.51100000000E-03 0. -1.
         11    1    4    4    0    0 -0.56769718167E-01 -0.41635676137E-01 -0.22666465432E-01  0.73961883456E-01  0.51100000000E-03 0.  1.
</event>
<event>
 8    1  0.1122848E+005  0.1043930E+01  0.7957747E-01            NaN
         13   -1    0    0    0    0  0.00000000000E+00  0.00000000000E+00  0.74505805969E-08  0.10566000000E+00  0.10566000000E+00 0.  1.
     999900   -1    0    0    0    0 -0.00000000000E+00 -0.00000000000E+00 -0.74505805969E-08  0.93827000000E+00  0.93827000000E+00 0.  1.
     999902    2    1    2    0    0  0.58016033273E-02  0.15554477641E-01 -0.17782765700E-01  0.10196025026E+01  0.10193122368E+01 0.  0.
     999903    2    3    3    0    0  0.94547939624E-01  0.72304213660E-01  0.50204848504E-01  0.13071625538E+00  0.19974994520E-01 0.  0.
         14    1    1    2    0    0 -0.58016033273E-02 -0.15554477641E-01  0.17782765700E-01  0.24327497442E-01  0.00000000000E+00 0.  1.
     999901    1    3    3    0    0 -0.88746336297E-01 -0.56749736019E-01 -0.67987614204E-01  0.88888624718E+00  0.88000000000E+00 0.  1.
        -11    1    4    4    0    0  0.34146242086E-01  0.27754014579E-01  0.29073782142E-01  0.52742744552E-01  0.51100000000E-03 0. -1.
         11    1    4    4    0    0  0.60401697538E-01  0.44550199081E-01  0.21131066363E-01  0.77973510824E-01  0.51100000000E-03 0.  1.
</event>
<event>
 8    1  0.1122848E+005  0.1043930E+01  0.7957747E-01            NaN
         13   -1    0    0    0    0  0.00000000000E+00  0.00000000000E+00  0.74505805969E-08  0.10566000000E+00  0.10566000000E+00 0. -1.
     999900   -1    0    0    0    0 -0.00000000000E+00 -0.00000000000E+00 -0.74505805969E-08  0.93827000000E+00  0.93827000000E+00 0. -1.
     999902    2    1    2    0    0 -0.14791783595E-01 -0.67148284851E-02  0.15428031995E-01  0.10215266530E+01  0.10212809569E+01 0.  0.
     999903    2    3    3    0    0  0.33551326044E-01  0.71699010038E-01 -0.10037478527E+00  0.12917241912E+00  0.18546612168E-01 0.  0.
         14    1    1    2    0    0  0.14791783595E-01  0.67148284851E-02 -0.15428031995E-01  0.22403346955E-01  0.00000000000E+00 0.  1.
     999901    1    3    3    0    0 -0.48343109639E-01 -0.78413838523E-01  0.11580281727E+00  0.89235423393E+00  0.88000000000E+00 0.  1.
        -11    1    4    4    0    0  0.20429789809E-01  0.57932358090E-01 -0.84029115505E-01  0.10408980641E+00  0.51100000000E-03 0. -1.
         11    1    4    4    0    0  0.13121536235E-01  0.13766651948E-01 -0.16345669766E-01  0.25082612705E-01  0.51100000000E-03 0.  1.
</event>
<event>
 8    1  0.1124050E+005  0.1043930E+01  0.7957747E-01            NaN
         13   -1    0    0    0    0  0.00000000000E+00  0.00000000000E+00  0.74505805969E-08  0.10566000000E+00  0.10566000000E+00 0.  1.
     999900   -1    0    0    0    0 -0.00000000000E+00 -0.00000000000E+00 -0.74505805969E-08  0.93827000000E+00  0.93827000000E+00 0.  1.
     999902    2    1    2    0    0 -0.12213941452E-01  0.16517292071E-01 -0.13245204863E-01  0.10194874806E+01  0.10191944301E+01 0.  0.
     999903    2    3    3    0    0  0.68872052091E-01  0.10391169242E+00 -0.35892351569E-01  0.13116005626E+00  0.19331323711E-01 0.  0.
         14    1    1    2    0    0  0.12213941452E-01 -0.16517292071E-01  0.13245204863E-01  0.24442519408E-01  0.00000000000E+00 0.  1.
     999901    1    3    3    0    0 -0.81085993543E-01 -0.87394400352E-01  0.22647146706E-01  0.88832742433E+00  0.88000000000E+00 0.  1.
        -11    1    4    4    0    0  0.46469541923E-01  0.54365986503E-01 -0.16256118267E-01  0.73345765502E-01  0.51100000000E-03 0.  1.
         11    1    4    4    0    0  0.22402510168E-01  0.49545705920E-01 -0.19636233301E-01  0.57814290761E-01  0.51100000000E-03 0. -1.
</event>
<event>
 8    1  0.1122848E+005  0.1043930E+01  0.7957747E-01            NaN
         13   -1    0    0    0    0  0.00000000000E+00  0.00000000000E+00  0.74505805969E-08  0.10566000000E+00  0.10566000000E+00 0. -1.
     999900   -1    0    0    0    0 -0.00000000000E+00 -0.00000000000E+00 -0.74505805969E-08  0.93827000000E+00  0.93827000000E+00 0. -1.
     999902    2    1    2    0    0  0.22921853957E-01 -0.11266993996E-01 -0.46960690763E-02  0.10179606025E+01  0.10176292933E+01 0.  0.
     999903    2    3    3    0    0 -0.24291739540E-01  0.11872537534E+00 -0.29634177589E-01  0.12681019500E+00  0.22734065110E-01 0.  0.
         14    1    1    2    0    0 -0.22921853957E-01  0.11266993996E-01  0.46960690763E-02  0.25969397516E-01  0.00000000000E+00 0.  1.
     999901    1    3    3    0    0  0.47213593497E-01 -0.12999236933E+00  0.24938108513E-01  0.89115040748E+00  0.88000000000E+00 0.  1.
        -11    1    4    4    0    0 -0.16747514616E-01  0.95581044374E-01 -0.32401740820E-01  0.10230517689E+00  0.51100000000E-03 0.  1.
         11    1    4    4    0    0 -0.75442249242E-02  0.23144330965E-01  0.27675632311E-02  0.24505018114E-01  0.51100000000E-03 0. -1.
</event>
<event>
 8    1  0.1122848E+005  0.1043930E+01  0.7957747E-01            NaN
         13   -1    0    0    0    0  0.00000000000E+00  0.00000000000E+00  0.74505805969E-08  0.10566000000E+00  0.10566000000E+00 0.  1.
     999900   -1    0    0    0    0 -0.00000000000E+00 -0.00000000000E+00 -0.74505805969E-08  0.93827000000E+00  0.93827000000E+00 0. -1.
     999902    2    1    2    0    0  0.18256272795E-01 -0.10957144843E-02 -0.15557749324E-01  0.10199188432E+01  0.10196361660E+01 0.  0.
     999903    2    3    3    0    0  0.10181515718E+00 -0.98471809376E-02  0.79128726642E-01  0.13086080007E+00  0.19997510138E-01 0.  0.
         14    1    1    2    0    0 -0.18256272795E-01  0.10957144843E-02  0.15557749324E-01  0.24011156795E-01  0.00000000000E+00 0.  1.
     999901    1    3    3    0    0 -0.83558884387E-01  0.87514664533E-02 -0.94686475966E-01  0.88905804313E+00  0.88000000000E+00 0. -1.
        -11    1    4    4    0    0  0.11446059576E-01 -0.46422995216E-02  0.33488396602E-02  0.12807773918E-01  0.51100000000E-03 0.  1.
         11    1    4    4    0    0  0.90369097606E-01 -0.52048814160E-02  0.75779886982E-01  0.11805302616E+00  0.51100000000E-03 0. -1.
</event>
<event>
 8    1  0.1122848E+005  0.1043930E+01  0.7957747E-01            NaN
         13   -1    0    0    0    0  0.00000000000E+00  0.00000000000E+00  0.74505805969E-08  0.10566000000E+00  0.10566000000E+00 0. -1.
     999900   -1    0    0    0    0 -0.00000000000E+00 -0.00000000000E+00 -0.74505805969E-08  0.93827000000E+00  0.93827000000E+00 0.  1.
     999902    2    1    2    0    0  0.59907405013E-02 -0.20044117412E-01 -0.12079910151E-01  0.10197726027E+01  0.10194864302E+01 0.  0.
     999903    2    3    3    0    0  0.17811375582E-01  0.35416395590E-01 -0.12340982373E+00  0.13094756617E+00  0.18593394474E-01 0.  0.
         14    1    1    2    0    0 -0.59907405013E-02  0.20044117412E-01  0.12079910151E-01  0.24157397290E-01  0.00000000000E+00 0. -1.
     999901    1    3    3    0    0 -0.11820635081E-01 -0.55460513002E-01  0.11132991358E+00  0.88882503654E+00  0.88000000000E+00 0. -1.
        -11    1    4    4    0    0  0.76143621195E-02  0.97738860111E-02 -0.67113174075E-01  0.68249151010E-01  0.51100000000E-03 0.  1.
         11    1    4    4    0    0  0.10197013463E-01  0.25642509579E-01 -0.56296649651E-01  0.62698415163E-01  0.51100000000E-03 0. -1.
</event>
<event>
 8    1  0.1122848E+005  0.1043930E+01  0.7957747E-01            NaN
         13   -1    0    0    0    0  0.00000000000E+00  0.00000000000E+00  0.74505805969E-08  0.10566000000E+00  0.10566000000E+00 0. -1.
     999900   -1    0    0    0    0 -0.00000000000E+00 -0.00000000000E+00 -0.74505805969E-08  0.93827000000E+00  0.93827000000E+00 0.  1.
     999902    2    1    2    0    0 -0.19154844455E-01 -0.13030852345E-01  0.14033434165E-02  0.10207205073E+01  0.10204566005E+01 0.  0.
     999903    2    3    3    0    0  0.16669873669E-01 -0.12815550712E+00  0.20460229513E-01  0.13229478644E+00  0.19533838167E-01 0.  0.
         14    1    1    2    0    0  0.19154844455E-01  0.13030852345E-01 -0.14033434165E-02  0.23209492706E-01  0.00000000000E+00 0.  1.
     999901    1    3    3    0    0 -0.35824718123E-01  0.11512465478E+00 -0.19056886096E-01  0.88842572085E+00  0.88000000000E+00 0.  1.
        -11    1    4    4    0    0  0.38033181562E-02 -0.95831237235E-01  0.15151721058E-01  0.97097513001E-01  0.51100000000E-03 0.  1.
         11    1    4    4    0    0  0.12866555513E-01 -0.32324269889E-01  0.53085084545E-02  0.35197273440E-01  0.51100000000E-03 0. -1.
</event>
<event>
 8    1  0.1122848E+005  0.1043930E+01  0.7957747E-01            NaN
         13   -1    0    0    0    0  0.00000000000E+00  0.00000000000E+00  0.74505805969E-08  0.10566000000E+00  0.10566000000E+00 0.  1.
     999900   -1    0    0    0    0 -0.00000000000E+00 -0.00000000000E+00 -0.74505805969E-08  0.93827000000E+00  0.93827000000E+00 0. -1.
     999902    2    1    2    0    0 -0.12217158579E-01 -0.56307882453E-02  0.17207792153E-01  0.10220880026E+01  0.10218545944E+01 0.  0.
     999903    2    3    3    0    0  0.93783096658E-01 -0.90371290315E-02 -0.87072061176E-01  0.12960722124E+00  0.18426856512E-01 0.  0.
         14    1    1    2    0    0  0.12217158579E-01  0.56307882453E-02 -0.17207792153E-01  0.21841997408E-01  0.00000000000E+00 0. -1.
     999901    1    3    3    0    0 -0.10600025524E+00  0.34063407862E-02  0.10427985333E+00  0.89248078135E+00  0.88000000000E+00 0.  1.
        -11    1    4    4    0    0  0.56970717403E-01 -0.13488839801E-01 -0.58775310156E-01  0.82960289570E-01  0.51100000000E-03 0.  1.
         11    1    4    4    0    0  0.36812379255E-01  0.44517107694E-02 -0.28296751020E-01  0.46646931673E-01  0.51100000000E-03 0. -1.
</event>
<event>
 8    1  0.1122848E+005  0.1043930E+01  0.7957747E-01            NaN
         13   -1    0    0    0    0  0.00000000000E+00  0.00000000000E+00  0.74505805969E-08  0.10566000000E+00  0.10566000000E+00 0. -1.
     999900   -1    0    0    0    0 -0.00000000000E+00 -0.00000000000E+00 -0.74505805969E-08  0.93827000000E+00  0.93827000000E+00 0.  1.
     999902    2    1    2    0    0  0.50882600487E-02 -0.17570188656E-01 -0.14885310167E-01  0.10203466504E+01  0.10200740721E+01 0.  0.
     999903    2    3    3    0    0 -0.50955826766E-01  0.10046671073E+00 -0.60650795863E-01  0.12952224067E+00  0.20185032660E-01 0.  0.
         14    1    1    2    0    0 -0.50882600487E-02  0.17570188656E-01  0.14885310167E-01  0.23583349603E-01  0.00000000000E+00 0. -1.
     999901    1    3    3    0    0  0.56044086815E-01 -0.11803689938E+00  0.45765485695E-01  0.89082440973E+00  0.88000000000E+00 0. -1.
        -11    1    4    4    0    0 -0.34349807690E-01  0.48052978808E-01 -0.26062528343E-01  0.64564034612E-01  0.51100000000E-03 0.  1.
         11    1    4    4    0    0 -0.16606019076E-01  0.52413731920E-01 -0.34588267520E-01  0.64958206059E-01  0.51100000000E-03 0. -1.
</event>
<event>
 8    1  0.1122848E+005  0.1043930E+01  0.7957747E-01            NaN
         13   -1    0    0    0    0  0.00000000000E+00  0.00000000000E+00  0.74505805969E-08  0.10566000000E+00  0.10566000000E+00 0.  1.
     999900   -1    0    0    0    0 -0.00000000000E+00 -0.00000000000E+00 -0.74505805969E-08  0.93827000000E+00  0.93827000000E+00 0.  1.
     999902    2    1    2    0    0  0.51189786076E-02 -0.17973163596E-01 -0.14864934731E-01  0.10200510378E+01  0.10197715013E+01 0.  0.
     999903    2    3    3    0    0  0.89303303254E-01  0.80913568771E-01 -0.46055841321E-01  0.12997325523E+00  0.15805725925E-01 0.  0.
         14    1    1    2    0    0 -0.51189786076E-02  0.17973163596E-01  0.14864934731E-01  0.23878962209E-01  0.00000000000E+00 0.  1.
     999901    1    3    3    0    0 -0.84184324647E-01 -0.98886732367E-01  0.31190906589E-01  0.89007778256E+00  0.88000000000E+00 0. -1.
        -11    1    4    4    0    0  0.65556789513E-01  0.52833280848E-01 -0.37724301746E-01  0.92262843440E-01  0.51100000000E-03 0.  1.
         11    1    4    4    0    0  0.23746513741E-01  0.28080287923E-01 -0.83315395742E-02  0.37710411790E-01  0.51100000000E-03 0. -1.
</event>
<event>
 8    1  0.1122848E+005  0.1043930E+01  0.7957747E-01            NaN
         13   -1    0    0    0    0  0.00000000000E+00  0.00000000000E+00  0.74505805969E-08  0.10566000000E+00  0.10566000000E+00 0. -1.
     999900   -1    0    0    0    0 -0.00000000000E+00 -0.00000000000E+00 -0.74505805969E-08  0.93827000000E+00  0.93827000000E+00 0. -1.
     999902    2    1    2    0    0 -0.13051155105E-01 -0.17793429337E-01  0.92808549069E-02  0.10199910559E+01  0.10197100966E+01 0.  0.
     999903    2    3    3    0    0 -0.11293243588E+00 -0.65927648729E-01  0.16776586273E-01  0.13300212738E+00  0.17547709234E-01 0.  0.
         14    1    1    2    0    0  0.13051155105E-01  0.17793429337E-01 -0.92808549069E-02  0.23938944107E-01  0.00000000000E+00 0.  1.
     999901    1    3    3    0    0  0.99881280772E-01  0.48134219392E-01 -0.74957313665E-02  0.88698892852E+00  0.88000000000E+00 0.  1.
        -11    1    4    4    0    0 -0.81938360300E-01 -0.44384311474E-01  0.44636534918E-02  0.93295483906E-01  0.51100000000E-03 0.  1.
         11    1    4    4    0    0 -0.30994075576E-01 -0.21543337255E-01  0.12312932782E-01  0.39706643469E-01  0.51100000000E-03 0. -1.
</event>
<event>
 8    1  0.1122848E+005  0.1043930E+01  0.7957747E-01            NaN
         13   -1    0    0    0    0  0.00000000000E+00  0.00000000000E+00  0.74505805969E-08  0.10566000000E+00  0.10566000000E+00 0.  1.
     999900   -1    0    0    0    0 -0.00000000000E+00 -0.00000000000E+00 -0.74505805969E-08  0.93827000000E+00  0.93827000000E+00 0.  1.
     999902    2    1    2    0    0  0.23140650764E-02  0.23635914915E-01 -0.16847096160E-02  0.10201213961E+01  0.10198435239E+01 0.  0.
     999903    2    3    3    0    0  0.12483846119E+00  0.12884433439E-01 -0.32004287916E-01  0.13105047725E+00  0.19982570534E-01 0.  0.
         14    1    1    2    0    0 -0.23140650764E-02 -0.23635914915E-01  0.16847096160E-02  0.23808603856E-01  0.00000000000E+00 0.  1.
     999901    1    3    3    0    0 -0.12252439611E+00  0.10751481476E-01  0.30319578300E-01  0.88907091890E+00  0.88000000000E+00 0. -1.
        -11    1    4    4    0    0  0.45587317784E-01 -0.49127672448E-02 -0.11887219532E-01  0.47369884251E-01  0.51100000000E-03 0. -1.
         11    1    4    4    0    0  0.79251143405E-01  0.17797200684E-01 -0.20117068383E-01  0.83680592998E-01  0.51100000000E-03 0.  1.
</event>
<event>
 8    1  0.1122848E+005  0.1043930E+01  0.7957747E-01            NaN
         13   -1    0    0    0    0  0.00000000000E+00  0.00000000000E+00  0.74505805969E-08  0.10566000000E+00  0.10566000000E+00 0.  1.
     999900   -1    0    0    0    0 -0.00000000000E+00 -0.00000000000E+00 -0.74505805969E-08  0.93827000000E+00  0.93827000000E+00 0. -1.
     999902    2    1    2    0    0 -0.15418035669E-01  0.18187631800E-01  0.86023668940E-02  0.10185822883E+01  0.10182668469E+01 0.  0.
     999903    2    3    3    0    0 -0.12421075453E+00 -0.57901543256E-02  0.35213182324E-01  0.13115965760E+00  0.22384149394E-01 0.  0.
         14    1    1    2    0    0  0.15418035669E-01 -0.18187631800E-01 -0.86023668940E-02  0.25347711742E-01  0.00000000000E+00 0. -1.
     999901    1    3    3    0    0  0.10879271886E+00  0.23977786126E-01 -0.26610815430E-01  0.88742263066E+00  0.88000000000E+00 0.  1.
        -11    1    4    4    0    0 -0.97075539365E-01  0.62669983698E-03  0.35222998205E-01  0.10327136011E+00  0.51100000000E-03 0.  1.
         11    1    4    4    0    0 -0.27135215167E-01 -0.64168541626E-02 -0.98158816707E-05  0.27888297490E-01  0.51100000000E-03 0. -1.
</event>
<event>
 8    1  0.1122848E+005  0.1043930E+01  0.7957747E-01            NaN
         13   -1    0    0    0    0  0.00000000000E+00  0.00000000000E+00  0.74505805969E-08  0.10566000000E+00  0.10566000000E+00 0.  1.
     999900   -1    0    0    0    0 -0.00000000000E+00 -0.00000000000E+00 -0.74505805969E-08  0.93827000000E+00  0.93827000000E+00 0.  1.
     999902    2    1    2    0    0 -0.14709691353E-01 -0.18631820263E-01  0.36563631386E-02  0.10199114918E+01  0.10196286394E+01 0.  0.
     999903    2    3    3    0    0 -0.48182724082E-01 -0.11526802756E+00 -0.40586463629E-01  0.13288475700E+00  0.20069990939E-01 0.  0.
         14    1    1    2    0    0  0.14709691353E-01  0.18631820263E-01 -0.36563631386E-02  0.24018508226E-01  0.00000000000E+00 0.  1.
     999901    1    3    3    0    0  0.33473032728E-01  0.96636207295E-01  0.44242826768E-01  0.88702673477E+00  0.88000000000E+00 0.  1.
        -11    1    4    4    0    0 -0.32394483586E-01 -0.73030621946E-01 -0.15851622704E-01  0.81451883784E-01  0.51100000000E-03 0.  1.
         11    1    4    4    0    0 -0.15788240496E-01 -0.42237405612E-01 -0.24734840925E-01  0.51432873217E-01  0.51100000000E-03 0. -1.
</event>
<event>
 8    1  0.1122848E+005  0.1043930E+01  0.7957747E-01            NaN
         13   -1    0    0    0    0  0.00000000000E+00  0.00000000000E+00  0.74505805969E-08  0.10566000000E+00  0.10566000000E+00 0.  1.
     999900   -1    0    0    0    0 -0.00000000000E+00 -0.00000000000E+00 -0.74505805969E-08  0.93827000000E+00  0.93827000000E+00 0. -1.
     999902    2    1    2    0    0 -0.12532201060E-01  0.14656963669E-01 -0.12131205489E-01  0.10211473576E+01  0.10208931762E+01 0.  0.
     999903    2    3    3    0    0  0.48492403197E-01  0.67003961529E-02 -0.12144739353E+00  0.13225066043E+00  0.18556920890E-01 0.  0.
         14    1    1    2    0    0  0.12532201060E-01 -0.14656963669E-01  0.12131205489E-01  0.22782642384E-01  0.00000000000E+00 0.  1.
     999901    1    3    3    0    0 -0.61024604257E-01  0.79565675156E-02  0.10931618804E+00  0.88889669718E+00  0.88000000000E+00 0.  1.
        -11    1    4    4    0    0  0.32851685278E-01 -0.25637062191E-02 -0.63892004615E-01  0.71890577894E-01  0.51100000000E-03 0.  1.
         11    1    4    4    0    0  0.15640717919E-01  0.92641023720E-02 -0.57555388919E-01  0.60360082541E-01  0.51100000000E-03 0. -1.
</event>
<event>
 8    1  0.1122848E+005  0.1043930E+01  0.7957747E-01            NaN
         13   -1    0    0    0    0  0.00000000000E+00  0.00000000000E+00  0.74505805969E-08  0.10566000000E+00  0.10566000000E+00 0.  1.
     999900   -1    0    0    0    0 -0.00000000000E+00 -0.00000000000E+00 -0.74505805969E-08  0.93827000000E+00  0.93827000000E+00 0.  1.
     999902    2    1    2    0    0  0.14050405122E-01 -0.17044417967E-01 -0.79773040622E-02  0.10204446120E+01  0.10201743198E+01 0.  0.
     999903    2    3    3    0    0  0.15440517149E-01  0.64158042000E-01 -0.11097264770E+00  0.13072341259E+00  0.20469932567E-01 0.  0.
         14    1    1    2    0    0 -0.14050405122E-01  0.17044417967E-01  0.79773040622E-02  0.23485387969E-01  0.00000000000E+00 0.  1.
     999901    1    3    3    0    0 -0.13901120277E-02 -0.81202459967E-01  0.10299534364E+00  0.88972119944E+00  0.88000000000E+00 0. -1.
        -11    1    4    4    0    0  0.83105578841E-02  0.56952913945E-01 -0.83327577754E-01  0.10127411374E+00  0.51100000000E-03 0.  1.
         11    1    4    4    0    0  0.71299592652E-02  0.72051280554E-02 -0.27645069948E-01  0.29449298851E-01  0.51100000000E-03 0. -1.
</event>
<event>
 8    1  0.1122848E+005  0.1043930E+01  0.7957747E-01            NaN
         13   -1    0    0    0    0  0.00000000000E+00  0.00000000000E+00  0.74505805969E-08  0.10566000000E+00  0.10566000000E+00 0. -1.
     999900   -1    0    0    0    0 -0.00000000000E+00 -0.00000000000E+00 -0.74505805969E-08  0.93827000000E+00  0.93827000000E+00 0. -1.
     999902    2    1    2    0    0 -0.13482222135E-01  0.17985353491E-02 -0.14527429688E-01  0.10240289634E+01  0.10238355662E+01 0.  0.
     999903    2    3    3    0    0 -0.41200802170E-02 -0.10866713844E+00 -0.77297194535E-01  0.13485498824E+00  0.19633887362E-01 0.  0.
         14    1    1    2    0    0  0.13482222135E-01 -0.17985353491E-02  0.14527429688E-01  0.19901036567E-01  0.00000000000E+00 0. -1.
     999901    1    3    3    0    0 -0.93621419181E-02  0.11046567378E+00  0.62769764847E-01  0.88917397520E+00  0.88000000000E+00 0.  1.
        -11    1    4    4    0    0 -0.45634339639E-02 -0.32857097786E-01 -0.34202609081E-01  0.47649694579E-01  0.51100000000E-03 0.  1.
         11    1    4    4    0    0  0.44335374688E-03 -0.75810040649E-01 -0.43094585453E-01  0.87205293659E-01  0.51100000000E-03 0. -1.
</event>
<event>
 7    1  0.1122848E+005  0.1043930E+01  0.7957747E-01            NaN
         13   -1    0    0    0    0  0.00000000000E+00  0.00000000000E+00  0.74505805969E-08  0.10566000000E+00  0.10566000000E+00 0. -1.
     999900   -1    0    0    0    0 -0.00000000000E+00 -0.00000000000E+00 -0.74505805969E-08  0.93827000000E+00  0.93827000000E+00 0.  1.
     999903    2    1    2    0    0 -0.25913667535E-01 -0.89035907932E-01  0.62662345502E-01  0.11375129114E+00  0.20343933371E-01 0.  0.
         14    1    1    2    0    0  0.39394910210E-02  0.44534366012E-01 -0.16212745823E-01  0.47557149543E-01  0.00000000000E+00 0. -1.
     999901    1    1    2    0    0  0.21974176515E-01  0.44501541920E-01 -0.46449599679E-01  0.88262155932E+00  0.88000000000E+00 0.  1.
        -11    1    3    3    0    0 -0.28496439535E-01 -0.86370945495E-01  0.58449736395E-01  0.10811392185E+00  0.51100000000E-03 0. -1.
         11    1    3    3    0    0  0.25827719998E-02 -0.26649624361E-02  0.42126091074E-02  0.56373692872E-02  0.51100000000E-03 0.  1.
</event>
<event>
 8    1  0.1122848E+005  0.1043930E+01  0.7957747E-01            NaN
         13   -1    0    0    0    0  0.00000000000E+00  0.00000000000E+00  0.74505805969E-08  0.10566000000E+00  0.10566000000E+00 0. -1.
     999900   -1    0    0    0    0 -0.00000000000E+00 -0.00000000000E+00 -0.74505805969E-08  0.93827000000E+00  0.93827000000E+00 0.  1.
     999902    2    1    2    0    0 -0.39356596962E-02  0.15383309919E-01 -0.17543432513E-01  0.10202676319E+01  0.10199932024E+01 0.  0.
     999903    2    3    3    0    0  0.19402948000E-01 -0.12391017545E+00  0.18324850348E-01  0.12828450456E+00  0.19771393455E-01 0.  0.
         14    1    1    2    0    0  0.39356596962E-02 -0.15383309919E-01  0.17543432513E-01  0.23662368133E-01  0.00000000000E+00 0. -1.
     999901    1    3    3    0    0 -0.23338607696E-01  0.13929348537E+00 -0.35868282861E-01  0.89198312730E+00  0.88000000000E+00 0.  1.
        -11    1    4    4    0    0  0.92952277234E-02 -0.22997814394E-01  0.91802699181E-02  0.26454474141E-01  0.51100000000E-03 0.  1.
         11    1    4    4    0    0  0.10107720276E-01 -0.10091236106E+00  0.91445804301E-02  0.10183003042E+00  0.51100000000E-03 0. -1.
</event>
<event>
 8    1  0.1122848E+005  0.1043930E+01  0.7957747E-01            NaN
         13   -1    0    0    0    0  0.00000000000E+00  0.00000000000E+00  0.74505805969E-08  0.10566000000E+00  0.10566000000E+00 0.  1.
     999900   -1    0    0    0    0 -0.00000000000E+00 -0.00000000000E+00 -0.74505805969E-08  0.93827000000E+00  0.93827000000E+00 0. -1.
     999902    2    1    2    0    0 -0.11395054346E-01 -0.19854459687E-01 -0.20004968038E-02  0.10209506871E+01  0.10206920479E+01 0.  0.
     999903    2    3    3    0    0 -0.86177438547E-01 -0.86360312969E-02 -0.98471703348E-01  0.13245479415E+00  0.18613548377E-01 0.  0.
         14    1    1    2    0    0  0.11395054346E-01  0.19854459687E-01  0.20004968038E-02  0.22979312881E-01  0.00000000000E+00 0.  1.
     999901    1    3    3    0    0  0.74782384201E-01 -0.11218428391E-01  0.96471206544E-01  0.88849589296E+00  0.88000000000E+00 0.  1.
        -11    1    4    4    0    0 -0.52258480950E-01  0.22331934152E-02 -0.66344930394E-01  0.84485779241E-01  0.51100000000E-03 0.  1.
         11    1    4    4    0    0 -0.33918957597E-01 -0.10869224712E-01 -0.32126772954E-01  0.47969014913E-01  0.51100000000E-03 0. -1.
</event>
<event>
 8    1  0.1122848E+005  0.1043930E+01  0.7957747E-01            NaN
         13   -1    0    0    0    0  0.00000000000E+00  0.00000000000E+00  0.74505805969E-08  0.10566000000E+00  0.10566000000E+00 0. -1.
     999900   -1    0    0    0    0 -0.00000000000E+00 -0.00000000000E+00 -0.74505805969E-08  0.93827000000E+00  0.93827000000E+00 0. -1.
     999902    2    1    2    0    0 -0.11194068496E-01 -0.93992817240E-02  0.18263373042E-01  0.10205375982E+01  0.10202694668E+01 0.  0.
     999903    2    3    3    0    0 -0.22886775702E-03 -0.46670949167E-01  0.12415596662E+00  0.13333826650E+00  0.13644023904E-01 0.  0.
         14    1    1    2    0    0  0.11194068496E-01  0.93992817240E-02 -0.18263373042E-01  0.23392401785E-01  0.00000000000E+00 0.  1.
     999901    1    3    3    0    0 -0.10965200739E-01  0.37271667443E-01 -0.10589259358E+00  0.88719933172E+00  0.88000000000E+00 0. -1.
        -11    1    4    4    0    0 -0.58883652390E-02 -0.29787111976E-01  0.69287233792E-01  0.75650028239E-01  0.51100000000E-03 0. -1.
         11    1    4    4    0    0  0.56594974820E-02 -0.16883837192E-01  0.54868732831E-01  0.57688238260E-01  0.51100000000E-03 0.  1.
</event>
<event>
 8    1  0.1122848E+005  0.1043930E+01  0.7957747E-01            NaN
         13   -1    0    0    0    0  0.00000000000E+00  0.00000000000E+00  0.74505805969E-08  0.10566000000E+00  0.10566000000E+00 0.  1.
     999900   -1    0    0    0    0 -0.00000000000E+00 -0.00000000000E+00 -0.74505805969E-08  0.93827000000E+00  0.93827000000E+00 0.  1.
     999902    2    1    2    0    0  0.17250846094E-01 -0.93906592931E-02  0.12361898621E-01  0.10207223997E+01  0.10204585364E+01 0.  0.
     999903    2    3    3    0    0  0.74818404027E-01  0.93025021020E-01  0.52655973760E-01  0.13200050409E+00  0.20000834718E-01 0.  0.
         14    1    1    2    0    0 -0.17250846094E-01  0.93906592931E-02 -0.12361898621E-01  0.23207600273E-01  0.00000000000E+00 0. -1.
     999901    1    3    3    0    0 -0.57567557933E-01 -0.10241568031E+00 -0.40294075139E-01  0.88872189564E+00  0.88000000000E+00 0. -1.
        -11    1    4    4    0    0  0.64483410793E-02  0.19936835901E-01  0.92361222668E-02  0.22904707026E-01  0.51100000000E-03 0. -1.
         11    1    4    4    0    0  0.68370062948E-01  0.73088185119E-01  0.43419851493E-01  0.10909579706E+00  0.51100000000E-03 0.  1.
</event>
<event>
 8    1  0.1122848E+005  0.1043930E+01  0.7957747E-01            NaN
         13   -1    0    0    0    0  0.00000000000E+00  0.00000000000E+00  0.74505805969E-08  0.10566000000E+00  0.10566000000E+00 0.  1.
     999900   -1    0    0    0    0 -0.00000000000E+00 -0.00000000000E+00 -0.74505805969E-08  0.93827000000E+00  0.93827000000E+00 0. -1.
     999902    2    1    2    0    0  0.89290908028E-02 -0.21138450926E-01 -0.72407520604E-02  0.10198677628E+01  0.10195838672E+01 0.  0.
     999903    2    3    3    0    0 -0.10939467045E+00 -0.19200212620E-01  0.62727246665E-01  0.12919397844E+00  0.20506937940E-01 0.  0.
         14    1    1    2    0    0 -0.89290908028E-02  0.21138450926E-01  0.72407520604E-02  0.24062237230E-01  0.00000000000E+00 0.  1.
     999901    1    3    3    0    0  0.11832376125E+00 -0.19382383067E-02 -0.69967998726E-01  0.89067378433E+00  0.88000000000E+00 0. -1.
        -11    1    4    4    0    0 -0.38162556366E-01 -0.16676091956E-01  0.24164513626E-01  0.48152441175E-01  0.51100000000E-03 0.  1.
         11    1    4    4    0    0 -0.71232114084E-01 -0.25241206640E-02  0.38562733039E-01  0.81041537266E-01  0.51100000000E-03 0. -1.
</event>
<event>
 8    1  0.1122848E+005  0.1043930E+01  0.7957747E-01            NaN
         13   -1    0    0    0    0  0.00000000000E+00  0.00000000000E+00  0.74505805969E-08  0.10566000000E+00  0.10566000000E+00 0. -1.
     999900   -1    0    0    0    0 -0.00000000000E+00 -0.00000000000E+00 -0.74505805969E-08  0.93827000000E+00  0.93827000000E+00 0.  1.
     999902    2    1    2    0    0  0.18733252106E-01  0.10591413261E-01  0.93905614749E-02  0.10204503191E+01  0.10201801598E+01 0.  0.
     999903    2    3    3    0    0  0.10652325195E+00 -0.48309167561E-01 -0.57211083261E-01  0.13162404725E+00  0.19256242834E-01 0.  0.
         14    1    1    2    0    0 -0.18733252106E-01 -0.10591413261E-01 -0.93905614749E-02  0.23479680878E-01  0.00000000000E+00 0. -1.
     999901    1    3    3    0    0 -0.87789999848E-01  0.58900580822E-01  0.66601644736E-01  0.88882627188E+00  0.88000000000E+00 0.  1.
        -11    1    4    4    0    0  0.70795715915E-02  0.12901646481E-02 -0.54014682540E-02  0.90123159642E-02  0.51100000000E-03 0.  1.
         11    1    4    4    0    0  0.99443680363E-01 -0.49599332209E-01 -0.51809615007E-01  0.12261173128E+00  0.51100000000E-03 0. -1.
</event>
<event>
 8    1  0.1122848E+005  0.1043930E+01  0.7957747E-01            NaN
         13   -1    0    0    0    0  0.00000000000E+00  0.00000000000E+00  0.74505805969E-08  0.10566000000E+00  0.10566000000E+00 0. -1.
     999900   -1    0    0    0    0 -0.00000000000E+00 -0.00000000000E+00 -0.74505805969E-08  0.93827000000E+00  0.93827000000E+00 0.  1.
     999902    2    1    2    0    0 -0.95277991523E-02 -0.23008464012E-01 -0.29951012578E-02  0.10188473565E+01  0.10185385593E+01 0.  0.
     999903    2    3    3    0    0 -0.46086695588E-01  0.83106776139E-01 -0.83487309901E-01  0.12807466230E+00  0.20056631273E-01 0.  0.
         14    1    1    2    0    0  0.95277991523E-02  0.23008464012E-01  0.29951012578E-02  0.25082643489E-01  0.00000000000E+00 0.  1.
     999901    1    3    3    0    0  0.36558896436E-01 -0.10611524015E+00  0.80492208643E-01  0.89077269421E+00  0.88000000000E+00 0. -1.
        -11    1    4    4    0    0 -0.28676422693E-01  0.33008553670E-01 -0.32306838920E-01  0.54368141368E-01  0.51100000000E-03 0.  1.
         11    1    4    4    0    0 -0.17410272896E-01  0.50098222470E-01 -0.51180470981E-01  0.73706520931E-01  0.51100000000E-03 0. -1.
</event>
<event>
 8    1  0.1122848E+005  0.1043930E+01  0.7957747E-01            NaN
         13   -1    0    0    0    0  0.00000000000E+00  0.00000000000E+00  0.74505805969E-08  0.10566000000E+00  0.10566000000E+00 0. -1.
     999900   -1    0    0    0    0 -0.00000000000E+00 -0.00000000000E+00 -0.74505805969E-08  0.93827000000E+00  0.93827000000E+00 0.  1.
     999902    2    1    2    0    0  0.35036269359E-02  0.65615827945E-02  0.20098876349E-01  0.10224988404E+01  0.10222742216E+01 0.  0.
     999903    2    3    3    0    0 -0.87672654336E-01 -0.25348350744E-01 -0.90712715389E-01  0.13030459756E+00  0.20529447356E-01 0.  0.
         14    1    1    2    0    0 -0.35036269359E-02 -0.65615827945E-02 -0.20098876349E-01  0.21431159581E-01  0.00000000000E+00 0.  1.
     999901    1    3    3    0    0  0.91176281272E-01  0.31909933538E-01  0.11081159174E+00  0.89219424286E+00  0.88000000000E+00 0. -1.
        -11    1    4    4    0    0 -0.18523510606E-01  0.25496150464E-02 -0.14364399805E-01  0.23584276219E-01  0.51100000000E-03 0.  1.
         11    1    4    4    0    0 -0.69149143730E-01 -0.27897965790E-01 -0.76348315584E-01  0.10672032134E+00  0.51100000000E-03 0. -1.
</event>
<event>
 8    1  0.1122848E+005  0.1043930E+01  0.7957747E-01            NaN
         13   -1    0    0    0    0  0.00000000000E+00  0.00000000000E+00  0.74505805969E-08  0.10566000000E+00  0.10566000000E+00 0.  1.
     999900   -1    0    0    0    0 -0.00000000000E+00 -0.00000000000E+00 -0.74505805969E-08  0.93827000000E+00  0.93827000000E+00 0. -1.
     999902    2    1    2    0    0  0.83304620489E-02  0.16210873435E-01 -0.17438333384E-01  0.10187053199E+01  0.10183929714E+01 0.  0.
     999903    2    3    3    0    0  0.91950245551E-01  0.72019834611E-01  0.53990386355E-01  0.13010587675E+00  0.19258066162E-01 0.  0.
         14    1    1    2    0    0 -0.83304620489E-02 -0.16210873435E-01  0.17438333384E-01  0.25224680111E-01  0.00000000000E+00 0.  1.
     999901    1    3    3    0    0 -0.83619783502E-01 -0.55808961176E-01 -0.71428719739E-01  0.88859944314E+00  0.88000000000E+00 0. -1.
        -11    1    4    4    0    0  0.11054614893E-01  0.17543144816E-02  0.44559280878E-02  0.12058131939E-01  0.51100000000E-03 0. -1.
         11    1    4    4    0    0  0.80895630658E-01  0.70265520129E-01  0.49534458267E-01  0.11804774481E+00  0.51100000000E-03 0.  1.
</event>
<event>
 8    1  0.1122848E+005  0.1043930E+01  0.7957747E-01            NaN
         13   -1    0    0    0    0  0.00000000000E+00  0.00000000000E+00  0.74505805969E-08  0.10566000000E+00  0.10566000000E+00 0.  1.
     999900   -1    0    0    0    0 -0.00000000000E+00 -0.00000000000E+00 -0.74505805969E-08  0.93827000000E+00  0.93827000000E+00 0.  1.
     999902    2    1    2    0    0  0.21068359619E-01  0.56624269800E-02 -0.94466752232E-02  0.10201565163E+01  0.10198794728E+01 0.  0.
     999903    2    3    3    0    0 -0.64726662450E-02 -0.14210376888E-01 -0.12897659839E+00  0.13142661411E+00  0.19853507114E-01 0.  0.
         14    1    1    2    0    0 -0.21068359619E-01 -0.56624269800E-02  0.94466752232E-02  0.23773483739E-01  0.00000000000E+00 0.  1.
     999901    1    3    3    0    0  0.27541025864E-01  0.19872803868E-01  0.11952992317E+00  0.88872990215E+00  0.88000000000E+00 0. -1.
        -11    1    4    4    0    0  0.50703512280E-02 -0.85682801625E-03 -0.11213101161E-01  0.12346553141E-01  0.51100000000E-03 0. -1.
         11    1    4    4    0    0 -0.11543017473E-01 -0.13353548871E-01 -0.11776349723E+00  0.11908006097E+00  0.51100000000E-03 0.  1.
</event>
<event>
 8    1  0.1122848E+005  0.1043930E+01  0.7957747E-01            NaN
         13   -1    0    0    0    0  0.00000000000E+00  0.00000000000E+00  0.74505805969E-08  0.10566000000E+00  0.10566000000E+00 0. -1.
     999900   -1    0    0    0    0 -0.00000000000E+00 -0.00000000000E+00 -0.74505805969E-08  0.93827000000E+00  0.93827000000E+00 0.  1.
     999902    2    1    2    0    0  0.24792897000E-02  0.16747124970E-01 -0.16853724690E-01  0.10200414859E+01  0.10197617230E+01 0.  0.
     999903    2    3    3    0    0 -0.12373906916E+00  0.25929805021E-01  0.23191496216E-01  0.13008698396E+00  0.20026629145E-01 0.  0.
         14    1    1    2    0    0 -0.24792897000E-02 -0.16747124970E-01  0.16853724690E-01  0.23888514146E-01  0.00000000000E+00 0. -1.
     999901    1    3    3    0    0  0.12621835886E+00 -0.91826800504E-02 -0.40045220906E-01  0.88995450189E+00  0.88000000000E+00 0.  1.
        -11    1    4    4    0    0 -0.30346942840E-01 -0.18689589428E-02  0.28361779431E-02  0.30540710103E-01  0.51100000000E-03 0. -1.
         11    1    4    4    0    0 -0.93392126316E-01  0.27798763964E-01  0.20355318273E-01  0.99546273856E-01  0.51100000000E-03 0.  1.
</event>
<event>
 8    1  0.1122848E+005  0.1043930E+01  0.7957747E-01            NaN
         13   -1    0    0    0    0  0.00000000000E+00  0.00000000000E+00  0.74505805969E-08  0.10566000000E+00  0.10566000000E+00 0. -1.
     999900   -1    0    0    0    0 -0.00000000000E+00 -0.00000000000E+00 -0.74505805969E-08  0.93827000000E+00  0.93827000000E+00 0. -1.
     999902    2    1    2    0    0  0.46601797488E-02  0.21461816765E-01 -0.13862637400E-01  0.10179588705E+01  0.10176275165E+01 0.  0.
     999903    2    3    3    0    0  0.99666592161E-01 -0.37590631184E-02  0.77337451679E-01  0.12780171162E+00  0.20115563925E-01 0.  0.
         14    1    1    2    0    0 -0.46601797488E-02 -0.21461816765E-01  0.13862637400E-01  0.25971129544E-01  0.00000000000E+00 0. -1.
     999901    1    3    3    0    0 -0.95006412412E-01  0.25220879883E-01 -0.91200089078E-01  0.89015715884E+00  0.88000000000E+00 0.  1.
        -11    1    4    4    0    0  0.72253988444E-01 -0.31576402499E-02  0.44093228391E-01  0.84705864313E-01  0.51100000000E-03 0. -1.
         11    1    4    4    0    0  0.27412603717E-01 -0.60142286854E-03  0.33244223288E-01  0.43095847306E-01  0.51100000000E-03 0.  1.
</event>
<event>
 8    1  0.1122848E+005  0.1043930E+01  0.7957747E-01            NaN
         13   -1    0    0    0    0  0.00000000000E+00  0.00000000000E+00  0.74505805969E-08  0.10566000000E+00  0.10566000000E+00 0. -1.
     999900   -1    0    0    0    0 -0.00000000000E+00 -0.00000000000E+00 -0.74505805969E-08  0.93827000000E+00  0.93827000000E+00 0.  1.
     999902    2    1    2    0    0  0.23538542157E-01 -0.11034883757E-02 -0.23511457346E-03  0.10203644333E+01  0.10200922708E+01 0.  0.
     999903    2    3    3    0    0 -0.34467656648E-01 -0.71800801520E-01 -0.10069190573E+00  0.12994071618E+00  0.20058798261E-01 0.  0.
         14    1    1    2    0    0 -0.23538542157E-01  0.11034883757E-02  0.23511457346E-03  0.23565566667E-01  0.00000000000E+00 0.  1.
     999901    1    3    3    0    0  0.58006198805E-01  0.70697313144E-01  0.10045679115E+00  0.89042371716E+00  0.88000000000E+00 0. -1.
        -11    1    4    4    0    0 -0.26442053736E-01 -0.67912063620E-01 -0.85798379810E-01  0.11257376999E+00  0.51100000000E-03 0.  1.
         11    1    4    4    0    0 -0.80256029120E-02 -0.38887378998E-02 -0.14893525918E-01  0.17366946186E-01  0.51100000000E-03 0. -1.
</event>
<event>
 8    1  0.1122848E+005  0.1043930E+01  0.7957747E-01            NaN
         13   -1    0    0    0    0  0.00000000000E+00  0.00000000000E+00  0.74505805969E-08  0.10566000000E+00  0.10566000000E+00 0.  1.
     999900   -1    0    0    0    0 -0.00000000000E+00 -0.00000000000E+00 -0.74505805969E-08  0.93827000000E+00  0.93827000000E+00 0. -1.
     999902    2    1    2    0    0  0.68198703982E-02  0.12414304616E-01  0.18714957856E-01  0.10204592685E+01  0.10201893174E+01 0.  0.
     999903    2    3    3    0    0 -0.98745774525E-02  0.52057287566E-01 -0.11616622376E+00  0.12914383393E+00  0.19392519965E-01 0.  0.
         14    1    1    2    0    0 -0.68198703982E-02 -0.12414304616E-01 -0.18714957856E-01  0.23470731537E-01  0.00000000000E+00 0. -1.
     999901    1    3    3    0    0  0.16694447851E-01 -0.39642982950E-01  0.13488118161E+00  0.89131543453E+00  0.88000000000E+00 0.  1.
        -11    1    4    4    0    0 -0.55296134886E-02  0.35581596685E-01 -0.55758387438E-01  0.66376844898E-01  0.51100000000E-03 0.  1.
         11    1    4    4    0    0 -0.43449639640E-02  0.16475690881E-01 -0.60407836321E-01  0.62766989029E-01  0.51100000000E-03 0. -1.
</event>
<event>
 8    1  0.1122848E+005  0.1043930E+01  0.7957747E-01            NaN
         13   -1    0    0    0    0  0.00000000000E+00  0.00000000000E+00  0.74505805969E-08  0.10566000000E+00  0.10566000000E+00 0. -1.
     999900   -1    0    0    0    0 -0.00000000000E+00 -0.00000000000E+00 -0.74505805969E-08  0.93827000000E+00  0.93827000000E+00 0. -1.
     999902    2    1    2    0    0  0.23019105677E-01  0.68911233125E-02 -0.53984787830E-02  0.10193025685E+01  0.10190050127E+01 0.  0.
     999903    2    3    3    0    0  0.51759989100E-01 -0.99766679647E-01  0.61869586516E-01  0.12984941187E+00  0.20013425215E-01 0.  0.
         14    1    1    2    0    0 -0.23019105677E-01 -0.68911233125E-02  0.53984787830E-02  0.24627431450E-01  0.00000000000E+00 0. -1.
     999901    1    3    3    0    0 -0.28740883423E-01  0.10665780296E+00 -0.67268065299E-01  0.88945315668E+00  0.88000000000E+00 0. -1.
        -11    1    4    4    0    0  0.45331427109E-01 -0.73090325797E-01  0.40501964985E-01  0.95067367153E-01  0.51100000000E-03 0. -1.
         11    1    4    4    0    0  0.64285619906E-02 -0.26676353850E-01  0.21367621531E-01  0.34782044720E-01  0.51100000000E-03 0.  1.
</event>
<event>
 8    1  0.1122848E+005  0.1043930E+01  0.7957747E-01            NaN
         13   -1    0    0    0    0  0.00000000000E+00  0.00000000000E+00  0.74505805969E-08  0.10566000000E+00  0.10566000000E+00 0. -1.
     999900   -1    0    0    0    0 -0.00000000000E+00 -0.00000000000E+00 -0.74505805969E-08  0.93827000000E+00  0.93827000000E+00 0.  1.
     999902    2    1    2    0    0  0.91353589134E-02 -0.78860983827E-02 -0.19492776940E-01  0.10210037338E+01  0.10207463009E+01 0.  0.
     999903    2    3    3    0    0 -0.87297705645E-01 -0.60002480621E-02 -0.97156376083E-01  0.13233364482E+00  0.20394601004E-01 0.  0.
         14    1    1    2    0    0 -0.91353589134E-02  0.78860983827E-02  0.19492776940E-01  0.22926266225E-01  0.00000000000E+00 0. -1.
     999901    1    3    3    0    0  0.96433064558E-01 -0.18858503206E-02  0.77663599143E-01  0.88867008896E+00  0.88000000000E+00 0. -1.
        -11    1    4    4    0    0 -0.62928516137E-01  0.49411236360E-02 -0.67503772053E-01  0.92419874531E-01  0.51100000000E-03 0. -1.
         11    1    4    4    0    0 -0.24369189507E-01 -0.10941371698E-01 -0.29652604031E-01  0.39913770289E-01  0.51100000000E-03 0.  1.
</event>
<event>
 8    1  0.1122848E+005  0.1043930E+01  0.7957747E-01            NaN
         13   -1    0    0    0    0  0.00000000000E+00  0.00000000000E+00  0.74505805969E-08  0.10566000000E+00  0.10566000000E+00 0. -1.
     999900   -1    0    0    0    0 -0.00000000000E+00 -0.00000000000E+00 -0.74505805969E-08  0.93827000000E+00  0.93827000000E+00 0.  1.
     999902    2    1    2    0    0  0.90924955603E-02 -0.22675828056E-01  0.10598868898E-01  0.10172991405E+01  0.10169505095E+01 0.  0.
     999903    2    3    3    0    0 -0.13767828420E-01  0.12021939660E+00 -0.23365746718E-01  0.12483332341E+00  0.19878231710E-01 0.  0.
         14    1    1    2    0    0 -0.90924955603E-02  0.22675828056E-01 -0.10598868898E-01  0.26630859458E-01  0.00000000000E+00 0.  1.
     999901    1    3    3    0    0  0.22860323981E-01 -0.14289522465E+00  0.33964615616E-01  0.89246581714E+00  0.88000000000E+00 0.  1.
        -11    1    4    4    0    0 -0.27382049899E-02  0.40625993125E-01  0.14073687252E-02  0.40745685560E-01  0.51100000000E-03 0. -1.
         11    1    4    4    0    0 -0.11029623430E-01  0.79593403471E-01 -0.24773115443E-01  0.84087637848E-01  0.51100000000E-03 0.  1.
</event>
<event>
 8    1  0.1122848E+005  0.1043930E+01  0.7957747E-01            NaN
         13   -1    0    0    0    0  0.00000000000E+00  0.00000000000E+00  0.74505805969E-08  0.10566000000E+00  0.10566000000E+00 0.  1.
     999900   -1    0    0    0    0 -0.00000000000E+00 -0.00000000000E+00 -0.74505805969E-08  0.93827000000E+00  0.93827000000E+00 0. -1.
     999902    2    1    2    0    0 -0.18428394784E-01  0.15554893698E-01 -0.17757137910E-02  0.10197491478E+01  0.10194624127E+01 0.  0.
     999903    2    3    3    0    0 -0.43427612061E-01  0.12348277485E+00 -0.10116157528E-01  0.13276383149E+00  0.19747028531E-01 0.  0.
         14    1    1    2    0    0  0.18428394784E-01 -0.15554893698E-01  0.17757137910E-02  0.24180852171E-01  0.00000000000E+00 0.  1.
     999901    1    3    3    0    0  0.24999217277E-01 -0.10792788115E+00  0.83404437366E-02  0.88698531634E+00  0.88000000000E+00 0.  1.
        -11    1    4    4    0    0 -0.34665610313E-01  0.10312737777E+00 -0.10217983224E-02  0.10880379487E+00  0.51100000000E-03 0. -1.
         11    1    4    4    0    0 -0.87620017476E-02  0.20355397077E-01 -0.90943592052E-02  0.23960036627E-01  0.51100000000E-03 0.  1.
</event>
<event>
 8    1  0.1122848E+005  0.1043930E+01  0.7957747E-01            NaN
         13   -1    0    0    0    0  0.00000000000E+00  0.00000000000E+00  0.74505805969E-08  0.10566000000E+00  0.10566000000E+00 0. -1.
     999900   -1    0    0    0    0 -0.00000000000E+00 -0.00000000000E+00 -0.74505805969E-08  0.93827000000E+00  0.93827000000E+00 0. -1.
     999902    2    1    2    0    0 -0.22866285779E-01  0.51769004180E-02 -0.19026579683E-02  0.10204079374E+01  0.10201367904E+01 0.  0.
     999903    2    3    3    0    0 -0.99828210070E-01  0.83863889927E-01 -0.20021475461E-01  0.13336618431E+00  0.19668657285E-01 0.  0.
         14    1    1    2    0    0  0.22866285779E-01 -0.51769004180E-02  0.19026579683E-02  0.23522062635E-01  0.00000000000E+00 0.  1.
     999901    1    3    3    0    0  0.76961924291E-01 -0.78686989509E-01  0.18118817493E-01  0.88704175305E+00  0.88000000000E+00 0. -1.
        -11    1    4    4    0    0 -0.63370171802E-01  0.49365564157E-01 -0.21468625261E-01  0.83149868253E-01  0.51100000000E-03 0.  1.
         11    1    4    4    0    0 -0.36458038267E-01  0.34498325770E-01  0.14471498000E-02  0.50216316061E-01  0.51100000000E-03 0. -1.
</event>
<event>
 8    1  0.1122848E+005  0.1043930E+01  0.7957747E-01            NaN
         13   -1    0    0    0    0  0.00000000000E+00  0.00000000000E+00  0.74505805969E-08  0.10566000000E+00  0.10566000000E+00 0.  1.
     999900   -1    0    0    0    0 -0.00000000000E+00 -0.00000000000E+00 -0.74505805969E-08  0.93827000000E+00  0.93827000000E+00 0.  1.
     999902    2    1    2    0    0 -0.11137114063E-01 -0.16424065041E-01 -0.11469451176E-01  0.10210098444E+01  0.10207525503E+01 0.  0.
     999903    2    3    3    0    0  0.38611669066E-01 -0.12471775907E+00  0.11087566515E-01  0.13269048481E+00  0.20939202739E-01 0.  0.
         14    1    1    2    0    0  0.11137114063E-01  0.16424065041E-01  0.11469451176E-01  0.22920155592E-01  0.00000000000E+00 0. -1.
     999901    1    3    3    0    0 -0.49748783129E-01  0.10829369403E+00 -0.22557017690E-01  0.88831935960E+00  0.88000000000E+00 0. -1.
        -11    1    4    4    0    0  0.25752466001E-01 -0.51163062297E-01  0.90435288354E-02  0.57990473213E-01  0.51100000000E-03 0. -1.
         11    1    4    4    0    0  0.12859203065E-01 -0.73554696777E-01  0.20440376793E-02  0.74700011596E-01  0.51100000000E-03 0.  1.
</event>
<event>
 8    1  0.1122848E+005  0.1043930E+01  0.7957747E-01            NaN
         13   -1    0    0    0    0  0.00000000000E+00  0.00000000000E+00  0.74505805969E-08  0.10566000000E+00  0.10566000000E+00 0.  1.
     999900   -1    0    0    0    0 -0.00000000000E+00 -0.00000000000E+00 -0.74505805969E-08  0.93827000000E+00  0.93827000000E+00 0.  1.
     999902    2    1    2    0    0 -0.49691166419E-02 -0.22619146538E-02 -0.23389353661E-01  0.10199118768E+01  0.10196290336E+01 0.  0.
     999903    2    3    3    0    0 -0.11511268643E+00 -0.10074710843E-01  0.54917483787E-01  0.12956104338E+00  0.20437797382E-01 0.  0.
         14    1    1    2    0    0  0.49691166419E-02  0.22619146538E-02  0.23389353661E-01  0.24018123215E-01  0.00000000000E+00 0.  1.
     999901    1    3    3    0    0  0.11014356979E+00  0.78127961888E-02 -0.78306837448E-01  0.89035083340E+00  0.88000000000E+00 0.  1.
        -11    1    4    4    0    0 -0.68732906342E-01 -0.10409235869E-01  0.42737739755E-01  0.81604780044E-01  0.51100000000E-03 0. -1.
         11    1    4    4    0    0 -0.46379780085E-01  0.33452502664E-03  0.12179744032E-01  0.47956263339E-01  0.51100000000E-03 0.  1.
</event>
<event>
 8    1  0.1122848E+005  0.1043930E+01  0.7957747E-01            NaN
         13   -1    0    0    0    0  0.00000000000E+00  0.00000000000E+00  0.74505805969E-08  0.10566000000E+00  0.10566000000E+00 0.  1.
     999900   -1    0    0    0    0 -0.00000000000E+00 -0.00000000000E+00 -0.74505805969E-08  0.93827000000E+00  0.93827000000E+00 0. -1.
     999902    2    1    2    0    0  0.17908306723E-01 -0.25924944165E-01  0.50323626262E-02  0.10120217745E+01  0.10115186292E+01 0.  0.
     999903    2    3    3    0    0  0.26797476635E-01 -0.12159190309E+00 -0.10858522096E-01  0.12664970325E+00  0.20482777636E-01 0.  0.
         14    1    1    2    0    0 -0.17908306723E-01  0.25924944165E-01 -0.50323626262E-02  0.31908225480E-01  0.00000000000E+00 0. -1.
     999901    1    3    3    0    0 -0.88891699123E-02  0.95666958925E-01  0.15890884722E-01  0.88537207127E+00  0.88000000000E+00 0.  1.
        -11    1    4    4    0    0  0.26461796895E-01 -0.82141400420E-01 -0.12277249427E-01  0.87168964272E-01  0.51100000000E-03 0. -1.
         11    1    4    4    0    0  0.33567973990E-03 -0.39450502670E-01  0.14187273308E-02  0.39480738976E-01  0.51100000000E-03 0.  1.
</event>
<event>
 8    1  0.1122848E+005  0.1043930E+01  0.7957747E-01            NaN
         13   -1    0    0    0    0  0.00000000000E+00  0.00000000000E+00  0.74505805969E-08  0.10566000000E+00  0.10566000000E+00 0. -1.
     999900   -1    0    0    0    0 -0.00000000000E+00 -0.00000000000E+00 -0.74505805969E-08  0.93827000000E+00  0.93827000000E+00 0. -1.
     999902    2    1    2    0    0  0.53755127489E-02  0.19966332653E-01  0.12696874895E-01  0.10196655979E+01  0.10193768539E+01 0.  0.
     999903    2    3    3    0    0  0.12185635348E+00  0.30648341001E-01 -0.30494596068E-01  0.13087574945E+00  0.20254622045E-01 0.  0.
         14    1    1    2    0    0 -0.53755127489E-02 -0.19966332653E-01 -0.12696874895E-01  0.24264402095E-01  0.00000000000E+00 0.  1.
     999901    1    3    3    0    0 -0.11648084073E+00 -0.10682008349E-01  0.43191470963E-01  0.88878984846E+00  0.88000000000E+00 0.  1.
        -11    1    4    4    0    0  0.10958201220E+00  0.32336074146E-01 -0.23526137782E-01  0.11665152965E+00  0.51100000000E-03 0.  1.
         11    1    4    4    0    0  0.12274341281E-01 -0.16877331443E-02 -0.69684582865E-02  0.14224219801E-01  0.51100000000E-03 0. -1.
</event>
<event>
 8    1  0.1122848E+005  0.1043930E+01  0.7957747E-01            NaN
         13   -1    0    0    0    0  0.00000000000E+00  0.00000000000E+00  0.74505805969E-08  0.10566000000E+00  0.10566000000E+00 0.  1.
     999900   -1    0    0    0    0 -0.00000000000E+00 -0.00000000000E+00 -0.74505805969E-08  0.93827000000E+00  0.93827000000E+00 0. -1.
     999902    2    1    2    0    0 -0.99470688491E-02 -0.46154971503E-03 -0.22686409620E-01  0.10191543993E+01  0.10188532079E+01 0.  0.
     999903    2    3    3    0    0  0.17515878713E-01 -0.80214097400E-01  0.95255135403E-01  0.12728843946E+00  0.19690062709E-01 0.  0.
         14    1    1    2    0    0  0.99470688491E-02  0.46154971503E-03  0.22686409620E-01  0.24775600664E-01  0.00000000000E+00 0.  1.
     999901    1    3    3    0    0 -0.27462947562E-01  0.79752547685E-01 -0.11794154502E+00  0.89186595988E+00  0.88000000000E+00 0. -1.
        -11    1    4    4    0    0  0.21428928196E-01 -0.61666083927E-01  0.70191323555E-01  0.95859208707E-01  0.51100000000E-03 0. -1.
         11    1    4    4    0    0 -0.39130494836E-02 -0.18548013473E-01  0.25063811849E-01  0.31429230748E-01  0.51100000000E-03 0.  1.
</event>
<event>
 8    1  0.1122848E+005  0.1043930E+01  0.7957747E-01            NaN
         13   -1    0    0    0    0  0.00000000000E+00  0.00000000000E+00  0.74505805969E-08  0.10566000000E+00  0.10566000000E+00 0.  1.
     999900   -1    0    0    0    0 -0.00000000000E+00 -0.00000000000E+00 -0.74505805969E-08  0.93827000000E+00  0.93827000000E+00 0. -1.
     999902    2    1    2    0    0  0.11840773227E-01 -0.19090973750E-01 -0.13513598415E-01  0.10177138498E+01  0.10173761318E+01 0.  0.
     999903    2    3    3    0    0  0.10779355772E+00 -0.61287018283E-01  0.34315971429E-01  0.13020322407E+00  0.19993598134E-01 0.  0.
         14    1    1    2    0    0 -0.11840773227E-01  0.19090973750E-01  0.13513598415E-01  0.26216150203E-01  0.00000000000E+00 0.  1.
     999901    1    3    3    0    0 -0.95952784497E-01  0.42196044533E-01 -0.47829569844E-01  0.88751062573E+00  0.88000000000E+00 0. -1.
        -11    1    4    4    0    0  0.11328018671E-01 -0.11417554721E-02  0.66846176482E-02  0.13212601813E-01  0.51100000000E-03 0. -1.
         11    1    4    4    0    0  0.96465539053E-01 -0.60145262811E-01  0.27631353781E-01  0.11699062226E+00  0.51100000000E-03 0.  1.
</event>
<event>
 8    1  0.1122848E+005  0.1043930E+01  0.7957747E-01            NaN
         13   -1    0    0    0    0  0.00000000000E+00  0.00000000000E+00  0.74505805969E-08  0.10566000000E+00  0.10566000000E+00 0.  1.
     999900   -1    0    0    0    0 -0.00000000000E+00 -0.00000000000E+00 -0.74505805969E-08  0.93827000000E+00  0.93827000000E+00 0.  1.
     999902    2    1    2    0    0 -0.95781377158E-02 -0.20015716520E-01  0.90672079607E-02  0.10199595204E+01  0.10196778116E+01 0.  0.
     999903    2    3    3    0    0  0.27060220307E-01 -0.77359936954E-01  0.10166240401E+00  0.13248861995E+00  0.22386930539E-01 0.  0.
         14    1    1    2    0    0  0.95781377158E-02  0.20015716520E-01 -0.90672079607E-02  0.23970479555E-01  0.00000000000E+00 0. -1.
     999901    1    3    3    0    0 -0.36638358023E-01  0.57344220434E-01 -0.92595196046E-01  0.88747090050E+00  0.88000000000E+00 0.  1.
        -11    1    4    4    0    0  0.84792574557E-02 -0.41315941756E-01  0.36723394809E-01  0.55926502639E-01  0.51100000000E-03 0. -1.
         11    1    4    4    0    0  0.18580962851E-01 -0.36043995198E-01  0.64939009198E-01  0.76562117310E-01  0.51100000000E-03 0.  1.
</event>
<event>
 8    1  0.1122848E+005  0.1043930E+01  0.7957747E-01            NaN
         13   -1    0    0    0    0  0.00000000000E+00  0.00000000000E+00  0.74505805969E-08  0.10566000000E+00  0.10566000000E+00 0. -1.
     999900   -1    0    0    0    0 -0.00000000000E+00 -0.00000000000E+00 -0.74505805969E-08  0.93827000000E+00  0.93827000000E+00 0. -1.
     999902    2    1    2    0    0 -0.21444721814E-01  0.69482600370E-02  0.89045071872E-02  0.10196927423E+01  0.10194046518E+01 0.  0.
     999903    2    3    3    0    0  0.10634144799E+00  0.13992800327E-01  0.67879798773E-01  0.12848175959E+00  0.19889530995E-01 0.  0.
         14    1    1    2    0    0  0.21444721814E-01 -0.69482600370E-02 -0.89045071872E-02  0.24237257673E-01  0.00000000000E+00 0.  1.
     999901    1    3    3    0    0 -0.12778616980E+00 -0.70445402904E-02 -0.58975291586E-01  0.89121098274E+00  0.88000000000E+00 0. -1.
        -11    1    4    4    0    0  0.59056001065E-01 -0.21046359061E-02  0.38471703009E-01  0.70515060855E-01  0.51100000000E-03 0.  1.
         11    1    4    4    0    0  0.47285446926E-01  0.16097436234E-01  0.29408095764E-01  0.57966698731E-01  0.51100000000E-03 0. -1.
</event>
<event>
 8    1  0.1122848E+005  0.1043930E+01  0.7957747E-01            NaN
         13   -1    0    0    0    0  0.00000000000E+00  0.00000000000E+00  0.74505805969E-08  0.10566000000E+00  0.10566000000E+00 0. -1.
     999900   -1    0    0    0    0 -0.00000000000E+00 -0.00000000000E+00 -0.74505805969E-08  0.93827000000E+00  0.93827000000E+00 0. -1.
     999902    2    1    2    0    0 -0.76780808078E-02  0.14861227059E-01 -0.15062447584E-01  0.10214203060E+01  0.10211722457E+01 0.  0.
     999903    2    3    3    0    0 -0.52785097164E-01  0.12059229519E+00 -0.14620168518E-01  0.13394416704E+00  0.19963026206E-01 0.  0.
         14    1    1    2    0    0  0.76780808078E-02 -0.14861227059E-01  0.15062447584E-01  0.22509693952E-01  0.00000000000E+00 0.  1.
     999901    1    3    3    0    0  0.45107016356E-01 -0.10573106813E+00 -0.44227906516E-03  0.88747613901E+00  0.88000000000E+00 0.  1.
        -11    1    4    4    0    0 -0.28682324902E-01  0.59110586409E-01 -0.16980339800E-01  0.67862583565E-01  0.51100000000E-03 0.  1.
         11    1    4    4    0    0 -0.24102772262E-01  0.61481708782E-01  0.23601712818E-02  0.66081583478E-01  0.51100000000E-03 0. -1.
</event>
<event>
 8    1  0.1122848E+005  0.1043930E+01  0.7957747E-01            NaN
         13   -1    0    0    0    0  0.00000000000E+00  0.00000000000E+00  0.74505805969E-08  0.10566000000E+00  0.10566000000E+00 0.  1.
     999900   -1    0    0    0    0 -0.00000000000E+00 -0.00000000000E+00 -0.74505805969E-08  0.93827000000E+00  0.93827000000E+00 0.  1.
     999902    2    1    2    0    0 -0.14140780401E-01  0.64472043146E-02 -0.15929098919E-01  0.10216754655E+01  0.10214330582E+01 0.  0.
     999903    2    3    3    0    0 -0.10030078266E+00 -0.82339870957E-01 -0.21088429262E-01  0.13300606160E+00  0.20144210604E-01 0.  0.
         14    1    1    2    0    0  0.14140780401E-01 -0.64472043146E-02  0.15929098919E-01  0.22254534509E-01  0.00000000000E+00 0.  1.
     999901    1    3    3    0    0  0.86160002263E-01  0.88787075272E-01  0.51593303424E-02  0.88866940389E+00  0.88000000000E+00 0. -1.
        -11    1    4    4    0    0 -0.33903802700E-01 -0.18958556767E-01 -0.12511570695E-01  0.40812929746E-01  0.51100000000E-03 0. -1.
         11    1    4    4    0    0 -0.66396979965E-01 -0.63381314190E-01 -0.85768585665E-02  0.92193131853E-01  0.51100000000E-03 0.  1.
</event>
<event>
 8    1  0.1122848E+005  0.1043930E+01  0.7957747E-01            NaN
         13   -1    0    0    0    0  0.00000000000E+00  0.00000000000E+00  0.74505805969E-08  0.10566000000E+00  0.10566000000E+00 0. -1.
     999900   -1    0    0    0    0 -0.00000000000E+00 -0.00000000000E+00 -0.74505805969E-08  0.93827000000E+00  0.93827000000E+00 0. -1.
     999902    2    1    2    0    0  0.52445779754E-02  0.19190812083E-01  0.10136575575E-01  0.10216019228E+01  0.10213578930E+01 0.  0.
     999903    2    3    3    0    0 -0.98878920199E-01 -0.74957413323E-01 -0.31321031554E-01  0.12951205940E+00  0.19917626351E-01 0.  0.
         14    1    1    2    0    0 -0.52445779754E-02 -0.19190812083E-01 -0.10136575575E-01  0.22328077189E-01  0.00000000000E+00 0.  1.
     999901    1    3    3    0    0  0.10412349817E+00  0.94148225407E-01  0.41457607129E-01  0.89208986342E+00  0.88000000000E+00 0.  1.
        -11    1    4    4    0    0 -0.71329554038E-01 -0.61437015491E-01 -0.17088277922E-01  0.95680105116E-01  0.51100000000E-03 0.  1.
         11    1    4    4    0    0 -0.27549366162E-01 -0.13520397833E-01 -0.14232753633E-01  0.33831954281E-01  0.51100000000E-03 0. -1.
</event>
<event>
 8    1  0.1122848E+005  0.1043930E+01  0.7957747E-01            NaN
         13   -1    0    0    0    0  0.00000000000E+00  0.00000000000E+00  0.74505805969E-08  0.10566000000E+00  0.10566000000E+00 0.  1.
     999900   -1    0    0    0    0 -0.00000000000E+00 -0.00000000000E+00 -0.74505805969E-08  0.93827000000E+00  0.93827000000E+00 0.  1.
     999902    2    1    2    0    0 -0.14761990171E-01  0.96624457723E-02 -0.15670142245E-01  0.10203326999E+01  0.10200597953E+01 0.  0.
     999903    2    3    3    0    0  0.12211260536E+00  0.37187055496E-01  0.13936538543E-02  0.12916300107E+00  0.19666547474E-01 0.  0.
         14    1    1    2    0    0  0.14761990171E-01 -0.96624457723E-02  0.15670142245E-01  0.23597300059E-01  0.00000000000E+00 0. -1.
     999901    1    3    3    0    0 -0.13687459554E+00 -0.27524609724E-01 -0.17063796099E-01  0.89116969887E+00  0.88000000000E+00 0.  1.
        -11    1    4    4    0    0  0.87303642695E-01  0.34631152634E-01 -0.30657943714E-02  0.93972884263E-01  0.51100000000E-03 0. -1.
         11    1    4    4    0    0  0.34808962670E-01  0.25559028621E-02  0.44594482258E-02  0.35190116810E-01  0.51100000000E-03 0.  1.
</event>
<event>
 8    1  0.1122848E+005  0.1043930E+01  0.7957747E-01            NaN
         13   -1    0    0    0    0  0.00000000000E+00  0.00000000000E+00  0.74505805969E-08  0.10566000000E+00  0.10566000000E+00 0. -1.
     999900   -1    0    0    0    0 -0.00000000000E+00 -0.00000000000E+00 -0.74505805969E-08  0.93827000000E+00  0.93827000000E+00 0. -1.
     999902    2    1    2    0    0  0.44518937297E-02  0.37988330577E-02  0.22435595042E-01  0.10207436589E+01  0.10204802843E+01 0.  0.
     999903    2    3    3    0    0 -0.10292473528E+00 -0.51019976489E-01  0.62022966574E-01  0.13164186361E+00  0.16917231977E-01 0.  0.
         14    1    1    2    0    0 -0.44518937297E-02 -0.37988330577E-02 -0.22435595042E-01  0.23186341136E-01  0.00000000000E+00 0.  1.
     999901    1    3    3    0    0  0.10737662901E+00  0.54818809547E-01 -0.39587371532E-01  0.88910179525E+00  0.88000000000E+00 0. -1.
        -11    1    4    4    0    0 -0.32817471832E-01 -0.82827471339E-02  0.21247753950E-01  0.39966467526E-01  0.51100000000E-03 0.  1.
         11    1    4    4    0    0 -0.70107263452E-01 -0.42737229355E-01  0.40775212624E-01  0.91675396084E-01  0.51100000000E-03 0. -1.
</event>
<event>
 8    1  0.1122848E+005  0.1043930E+01  0.7957747E-01            NaN
         13   -1    0    0    0    0  0.00000000000E+00  0.00000000000E+00  0.74505805969E-08  0.10566000000E+00  0.10566000000E+00 0. -1.
     999900   -1    0    0    0    0 -0.00000000000E+00 -0.00000000000E+00 -0.74505805969E-08  0.93827000000E+00  0.93827000000E+00 0.  1.
     999902    2    1    2    0    0 -0.18600778481E-01  0.39398394682E-02 -0.15369344846E-01  0.10194815224E+01  0.10191883273E+01 0.  0.
     999903    2    3    3    0    0  0.41662549378E-02  0.48995945452E-01  0.11673653108E+00  0.12819012621E+00  0.19680711865E-01 0.  0.
         14    1    1    2    0    0  0.18600778481E-01 -0.39398394682E-02  0.15369344846E-01  0.24448477583E-01  0.00000000000E+00 0. -1.
     999901    1    3    3    0    0 -0.22767033419E-01 -0.45056105984E-01 -0.13210587592E+00  0.89129139621E+00  0.88000000000E+00 0.  1.
        -11    1    4    4    0    0 -0.23923289168E-02  0.17601438825E-01  0.22669556410E-01  0.28804579414E-01  0.51100000000E-03 0. -1.
         11    1    4    4    0    0  0.65585838546E-02  0.31394506627E-01  0.94066974666E-01  0.99385546798E-01  0.51100000000E-03 0.  1.
</event>
<event>
 8    1  0.1122848E+005  0.1043930E+01  0.7957747E-01            NaN
         13   -1    0    0    0    0  0.00000000000E+00  0.00000000000E+00  0.74505805969E-08  0.10566000000E+00  0.10566000000E+00 0. -1.
     999900   -1    0    0    0    0 -0.00000000000E+00 -0.00000000000E+00 -0.74505805969E-08  0.93827000000E+00  0.93827000000E+00 0. -1.
     999902    2    1    2    0    0  0.81677036994E-02  0.16962998567E-01 -0.51786713956E-02  0.10244037781E+01  0.10242176660E+01 0.  0.
     999903    2    3    3    0    0 -0.11599310687E+00  0.53166247727E-01 -0.36938440356E-01  0.13438396650E+00  0.20335961660E-01 0.  0.
         14    1    1    2    0    0 -0.81677036994E-02 -0.16962998567E-01  0.51786713956E-02  0.19526221896E-01  0.00000000000E+00 0.  1.
     999901    1    3    3    0    0  0.12416081057E+00 -0.36203249161E-01  0.31759768960E-01  0.89001981161E+00  0.88000000000E+00 0.  1.
        -11    1    4    4    0    0 -0.56825548290E-01  0.34651374026E-01 -0.25842563926E-01  0.71399999241E-01  0.51100000000E-03 0.  1.
         11    1    4    4    0    0 -0.59167558579E-01  0.18514873702E-01 -0.11095876430E-01  0.62983967255E-01  0.51100000000E-03 0. -1.
</event>
<event>
 8    1  0.1122848E+005  0.1043930E+01  0.7957747E-01            NaN
         13   -1    0    0    0    0  0.00000000000E+00  0.00000000000E+00  0.74505805969E-08  0.10566000000E+00  0.10566000000E+00 0.  1.
     999900   -1    0    0    0    0 -0.00000000000E+00 -0.00000000000E+00 -0.74505805969E-08  0.93827000000E+00  0.93827000000E+00 0.  1.
     999902    2    1    2    0    0 -0.18297971205E-01 -0.49322507220E-02 -0.14516750782E-01  0.10200578635E+01  0.10197784887E+01 0.  0.
     999903    2    3    3    0    0 -0.67601907928E-01  0.97548884667E-01  0.50094409445E-01  0.13039058676E+00  0.20160664752E-01 0.  0.
         14    1    1    2    0    0  0.18297971205E-01  0.49322507220E-02  0.14516750782E-01  0.23872136492E-01  0.00000000000E+00 0.  1.
     999901    1    3    3    0    0  0.49303936724E-01 -0.10248113539E+00 -0.64611160227E-01  0.88966727675E+00  0.88000000000E+00 0.  1.
        -11    1    4    4    0    0 -0.80763608645E-02  0.26389997569E-01  0.12044673590E-01  0.30116355347E-01  0.51100000000E-03 0. -1.
         11    1    4    4    0    0 -0.59525547064E-01  0.71158887098E-01  0.38049735854E-01  0.10027423142E+00  0.51100000000E-03 0.  1.
</event>
<event>
 8    1  0.1122848E+005  0.1043930E+01  0.7957747E-01            NaN
         13   -1    0    0    0    0  0.00000000000E+00  0.00000000000E+00  0.74505805969E-08  0.10566000000E+00  0.10566000000E+00 0. -1.
     999900   -1    0    0    0    0 -0.00000000000E+00 -0.00000000000E+00 -0.74505805969E-08  0.93827000000E+00  0.93827000000E+00 0. -1.
     999902    2    1    2    0    0  0.61226824066E-02 -0.20146462694E-01  0.12150784947E-01  0.10196193280E+01  0.10193294684E+01 0.  0.
     999903    2    3    3    0    0 -0.29077376398E-01  0.10425860518E+00  0.66299200615E-01  0.12852577736E+00  0.20197546139E-01 0.  0.
         14    1    1    2    0    0 -0.61226824066E-02  0.20146462694E-01 -0.12150784947E-01  0.24310672014E-01  0.00000000000E+00 0.  1.
     999901    1    3    3    0    0  0.35200058804E-01 -0.12440506788E+00 -0.54148415668E-01  0.89109355063E+00  0.88000000000E+00 0. -1.
        -11    1    4    4    0    0 -0.14000188828E-01  0.22182314010E-01  0.20773265359E-01  0.33464160182E-01  0.51100000000E-03 0. -1.
         11    1    4    4    0    0 -0.15077187569E-01  0.82076291174E-01  0.45525935256E-01  0.95061617175E-01  0.51100000000E-03 0.  1.
</event>
<event>
 8    1  0.1122848E+005  0.1043930E+01  0.7957747E-01            NaN
         13   -1    0    0    0    0  0.00000000000E+00  0.00000000000E+00  0.74505805969E-08  0.10566000000E+00  0.10566000000E+00 0. -1.
     999900   -1    0    0    0    0 -0.00000000000E+00 -0.00000000000E+00 -0.74505805969E-08  0.93827000000E+00  0.93827000000E+00 0. -1.
     999902    2    1    2    0    0  0.13338282633E-02  0.20069286098E-01  0.12022260989E-01  0.10204973283E+01  0.10202282622E+01 0.  0.
     999903    2    3    3    0    0 -0.56552370997E-01  0.11786939419E+00  0.17039755315E-01  0.13317503713E+00  0.18811499210E-01 0.  0.
         14    1    1    2    0    0 -0.13338282633E-02 -0.20069286098E-01 -0.12022260989E-01  0.23432671670E-01  0.00000000000E+00 0. -1.
     999901    1    3    3    0    0  0.57886199260E-01 -0.97800108089E-01 -0.50174943254E-02  0.88732229120E+00  0.88000000000E+00 0. -1.
        -11    1    4    4    0    0 -0.35099752845E-01  0.52489050138E-01  0.11026363844E-01  0.64100973899E-01  0.51100000000E-03 0.  1.
         11    1    4    4    0    0 -0.21452618152E-01  0.65380344049E-01  0.60133914702E-02  0.69074063233E-01  0.51100000000E-03 0. -1.
</event>
<event>
 8    1  0.1122848E+005  0.1043930E+01  0.7957747E-01            NaN
         13   -1    0    0    0    0  0.00000000000E+00  0.00000000000E+00  0.74505805969E-08  0.10566000000E+00  0.10566000000E+00 0. -1.
     999900   -1    0    0    0    0 -0.00000000000E+00 -0.00000000000E+00 -0.74505805969E-08  0.93827000000E+00  0.93827000000E+00 0. -1.
     999902    2    1    2    0    0 -0.21950130710E-01  0.11398346722E-01  0.29911807257E-02  0.10190165958E+01  0.10187120029E+01 0.  0.
     999903    2    3    3    0    0  0.69044426636E-01 -0.78361790494E-02 -0.10503186032E+00  0.12754648759E+00  0.20195946737E-01 0.  0.
         14    1    1    2    0    0  0.21950130710E-01 -0.11398346722E-01 -0.29911807257E-02  0.24913404189E-01  0.00000000000E+00 0. -1.
     999901    1    3    3    0    0 -0.90994557345E-01  0.19234525772E-01  0.10802304104E+00  0.89147010822E+00  0.88000000000E+00 0.  1.
        -11    1    4    4    0    0  0.15366059650E-01  0.13762318376E-02 -0.39042004674E-01  0.41982723270E-01  0.51100000000E-03 0.  1.
         11    1    4    4    0    0  0.53678366985E-01 -0.92124108870E-02 -0.65989855642E-01  0.85563764324E-01  0.51100000000E-03 0. -1.
</event>
<event>
 8    1  0.1122848E+005  0.1043930E+01  0.7957747E-01            NaN
         13   -1    0    0    0    0  0.00000000000E+00  0.00000000000E+00  0.74505805969E-08  0.10566000000E+00  0.10566000000E+00 0.  1.
     999900   -1    0    0    0    0 -0.00000000000E+00 -0.00000000000E+00 -0.74505805969E-08  0.93827000000E+00  0.93827000000E+00 0. -1.
     999902    2    1    2    0    0  0.11020931548E-01  0.19373824326E-01  0.75382390353E-02  0.10204006343E+01  0.10201293170E+01 0.  0.
     999903    2    3    3    0    0  0.64353330945E-02 -0.71681952884E-01  0.10743958991E+00  0.13006785262E+00  0.13952237273E-01 0.  0.
         14    1    1    2    0    0 -0.11020931548E-01 -0.19373824326E-01 -0.75382390353E-02  0.23529365673E-01  0.00000000000E+00 0.  1.
     999901    1    3    3    0    0  0.45855984537E-02  0.91055777210E-01 -0.99901350870E-01  0.89033278171E+00  0.88000000000E+00 0. -1.
        -11    1    4    4    0    0  0.95800247354E-02 -0.45812478611E-01  0.62011011318E-01  0.77692900037E-01  0.51100000000E-03 0. -1.
         11    1    4    4    0    0 -0.31446916409E-02 -0.25869474273E-01  0.45428578587E-01  0.52374952584E-01  0.51100000000E-03 0.  1.
</event>
<event>
 8    1  0.1122848E+005  0.1043930E+01  0.7957747E-01            NaN
         13   -1    0    0    0    0  0.00000000000E+00  0.00000000000E+00  0.74505805969E-08  0.10566000000E+00  0.10566000000E+00 0. -1.
     999900   -1    0    0    0    0 -0.00000000000E+00 -0.00000000000E+00 -0.74505805969E-08  0.93827000000E+00  0.93827000000E+00 0.  1.
     999902    2    1    2    0    0  0.51135290933E-03  0.20037007889E-01  0.11811707296E-01  0.10206650135E+01  0.10203998286E+01 0.  0.
     999903    2    3    3    0    0  0.53305699300E-01  0.88796305471E-02 -0.11625618841E+00  0.12975922950E+00  0.20040231530E-01 0.  0.
         14    1    1    2    0    0 -0.51135290933E-03 -0.20037007889E-01 -0.11811707296E-01  0.23264986486E-01  0.00000000000E+00 0.  1.
     999901    1    3    3    0    0 -0.52794346390E-01  0.11157377342E-01  0.12806789571E+00  0.89090578401E+00  0.88000000000E+00 0. -1.
        -11    1    4    4    0    0  0.35223136795E-01  0.12482592457E-01 -0.61344237375E-01  0.71832172878E-01  0.51100000000E-03 0. -1.
         11    1    4    4    0    0  0.18082562504E-01 -0.36029619098E-02 -0.54911951036E-01  0.57927056622E-01  0.51100000000E-03 0.  1.
</event>
<event>
 8    1  0.1122848E+005  0.1043930E+01  0.7957747E-01            NaN
         13   -1    0    0    0    0  0.00000000000E+00  0.00000000000E+00  0.74505805969E-08  0.10566000000E+00  0.10566000000E+00 0.  1.
     999900   -1    0    0    0    0 -0.00000000000E+00 -0.00000000000E+00 -0.74505805969E-08  0.93827000000E+00  0.93827000000E+00 0. -1.
     999902    2    1    2    0    0  0.10636857644E-01  0.86822671422E-03  0.21037490271E-01  0.10203403295E+01  0.10200676034E+01 0.  0.
     999903    2    3    3    0    0 -0.32180214235E-01 -0.11783612196E+00  0.43274944405E-01  0.13106054876E+00  0.19576230503E-01 0.  0.
         14    1    1    2    0    0 -0.10636857644E-01 -0.86822671422E-03 -0.21037490271E-01  0.23589670516E-01  0.00000000000E+00 0. -1.
     999901    1    3    3    0    0  0.42817071879E-01  0.11870434868E+00 -0.22237454134E-01  0.88927978072E+00  0.88000000000E+00 0. -1.
        -11    1    4    4    0    0 -0.28780861397E-02 -0.33762568478E-01  0.18655415082E-01  0.38684364321E-01  0.51100000000E-03 0.  1.
         11    1    4    4    0    0 -0.29302128096E-01 -0.84073553483E-01  0.24619529323E-01  0.92376184438E-01  0.51100000000E-03 0. -1.
</event>
<event>
 8    1  0.1122848E+005  0.1043930E+01  0.7957747E-01            NaN
         13   -1    0    0    0    0  0.00000000000E+00  0.00000000000E+00  0.74505805969E-08  0.10566000000E+00  0.10566000000E+00 0.  1.
     999900   -1    0    0    0    0 -0.00000000000E+00 -0.00000000000E+00 -0.74505805969E-08  0.93827000000E+00  0.93827000000E+00 0.  1.
     999902    2    1    2    0    0 -0.96622466989E-02 -0.20086603803E-01  0.85105546176E-02  0.10200708256E+01  0.10197917577E+01 0.  0.
     999903    2    3    3    0    0 -0.12466910043E+00 -0.13064662929E-01 -0.32078147365E-01  0.13163212383E+00  0.24185501129E-01 0.  0.
         14    1    1    2    0    0  0.96622466989E-02  0.20086603803E-01 -0.85105546176E-02  0.23859174410E-01  0.00000000000E+00 0. -1.
     999901    1    3    3    0    0  0.11500685373E+00 -0.70219408735E-02  0.40588701983E-01  0.88843870176E+00  0.88000000000E+00 0. -1.
        -11    1    4    4    0    0 -0.74376352365E-01 -0.15032308775E-01 -0.95281432087E-02  0.76477831639E-01  0.51100000000E-03 0. -1.
         11    1    4    4    0    0 -0.50292748069E-01  0.19676458451E-02 -0.22550004156E-01  0.55154292190E-01  0.51100000000E-03 0.  1.
</event>
<event>
 8    1  0.1122848E+005  0.1043930E+01  0.7957747E-01            NaN
         13   -1    0    0    0    0  0.00000000000E+00  0.00000000000E+00  0.74505805969E-08  0.10566000000E+00  0.10566000000E+00 0.  1.
     999900   -1    0    0    0    0 -0.00000000000E+00 -0.00000000000E+00 -0.74505805969E-08  0.93827000000E+00  0.93827000000E+00 0.  1.
     999902    2    1    2    0    0  0.12033368497E-01  0.19201984521E-01  0.51637402240E-02  0.10206881761E+01  0.10204235250E+01 0.  0.
     999903    2    3    3    0    0 -0.49438577548E-01 -0.93999313520E-01  0.70255267493E-01  0.12893134769E+00  0.20185289539E-01 0.  0.
         14    1    1    2    0    0 -0.12033368497E-01 -0.19201984521E-01 -0.51637402240E-02  0.23241823939E-01  0.00000000000E+00 0.  1.
     999901    1    3    3    0    0  0.61471946045E-01  0.11320129804E+00 -0.65091527269E-01  0.89175682837E+00  0.88000000000E+00 0. -1.
        -11    1    4    4    0    0 -0.22016357149E-01 -0.23171671294E-01  0.17381454216E-01  0.36387118659E-01  0.51100000000E-03 0. -1.
         11    1    4    4    0    0 -0.27422220399E-01 -0.70827642226E-01  0.52873813277E-01  0.92544229028E-01  0.51100000000E-03 0.  1.
</event>
<event>
 8    1  0.1122848E+005  0.1043930E+01  0.7957747E-01            NaN
         13   -1    0    0    0    0  0.00000000000E+00  0.00000000000E+00  0.74505805969E-08  0.10566000000E+00  0.10566000000E+00 0.  1.
     999900   -1    0    0    0    0 -0.00000000000E+00 -0.00000000000E+00 -0.74505805969E-08  0.93827000000E+00  0.93827000000E+00 0. -1.
     999902    2    1    2    0    0  0.96122420655E-02 -0.15662125891E-01  0.14537898902E-01  0.10204982291E+01  0.10202291839E+01 0.  0.
     999903    2    3    3    0    0 -0.78143529609E-01  0.96515513121E-01 -0.24625114166E-01  0.12818738650E+00  0.20098614806E-01 0.  0.
         14    1    1    2    0    0 -0.96122420655E-02  0.15662125891E-01 -0.14537898902E-01  0.23431770941E-01  0.00000000000E+00 0. -1.
     999901    1    3    3    0    0  0.87755771675E-01 -0.11217763901E+00  0.39163013068E-01  0.89231084256E+00  0.88000000000E+00 0.  1.
        -11    1    4    4    0    0 -0.31782791838E-01  0.54536863435E-01 -0.15296960729E-01  0.64951316067E-01  0.51100000000E-03 0.  1.
         11    1    4    4    0    0 -0.46360737772E-01  0.41978649686E-01 -0.93281534370E-02  0.63236070432E-01  0.51100000000E-03 0. -1.
</event>
<event>
 8    1  0.1122848E+005  0.1043930E+01  0.7957747E-01            NaN
         13   -1    0    0    0    0  0.00000000000E+00  0.00000000000E+00  0.74505805969E-08  0.10566000000E+00  0.10566000000E+00 0. -1.
     999900   -1    0    0    0    0 -0.00000000000E+00 -0.00000000000E+00 -0.74505805969E-08  0.93827000000E+00  0.93827000000E+00 0.  1.
     999902    2    1    2    0    0 -0.12900083941E-02  0.20835468493E-01 -0.11958720333E-01  0.10198719065E+01  0.10195881099E+01 0.  0.
     999903    2    3    3    0    0 -0.72824791470E-01 -0.77104437878E-01 -0.71559760949E-01  0.12955638129E+00  0.20384110323E-01 0.  0.
         14    1    1    2    0    0  0.12900083941E-02 -0.20835468493E-01  0.11958720333E-01  0.24058093461E-01  0.00000000000E+00 0.  1.
     999901    1    3    3    0    0  0.71534783076E-01  0.97939906371E-01  0.59601040616E-01  0.89031552524E+00  0.88000000000E+00 0.  1.
        -11    1    4    4    0    0 -0.46939128738E-02 -0.85531833375E-02 -0.13975079750E-01  0.17051502523E-01  0.51100000000E-03 0. -1.
         11    1    4    4    0    0 -0.68130878597E-01 -0.68551254541E-01 -0.57584681199E-01  0.11250487877E+00  0.51100000000E-03 0.  1.
</event>
<event>
 8    1  0.1122848E+005  0.1043930E+01  0.7957747E-01            NaN
         13   -1    0    0    0    0  0.00000000000E+00  0.00000000000E+00  0.74505805969E-08  0.10566000000E+00  0.10566000000E+00 0.  1.
     999900   -1    0    0    0    0 -0.00000000000E+00 -0.00000000000E+00 -0.74505805969E-08  0.93827000000E+00  0.93827000000E+00 0. -1.
     999902    2    1    2    0    0  0.10141978564E-01 -0.15771642642E-01  0.14560996014E-01  0.10201891692E+01  0.10199128953E+01 0.  0.
     999903    2    3    3    0    0  0.59030093682E-01 -0.11560111912E+00  0.21472387018E-01  0.13316958686E+00  0.20613218075E-01 0.  0.
         14    1    1    2    0    0 -0.10141978564E-01  0.15771642642E-01 -0.14560996014E-01  0.23740830772E-01  0.00000000000E+00 0.  1.
     999901    1    3    3    0    0 -0.48888115117E-01  0.99829476476E-01 -0.69113910041E-02  0.88701958236E+00  0.88000000000E+00 0. -1.
        -11    1    4    4    0    0  0.50928365226E-01 -0.87204127267E-01  0.99866441093E-02  0.10148030537E+00  0.51100000000E-03 0. -1.
         11    1    4    4    0    0  0.81017284558E-02 -0.28396991851E-01  0.11485742909E-01  0.31689281490E-01  0.51100000000E-03 0.  1.
</event>
<event>
 8    1  0.1122848E+005  0.1043930E+01  0.7957747E-01            NaN
         13   -1    0    0    0    0  0.00000000000E+00  0.00000000000E+00  0.74505805969E-08  0.10566000000E+00  0.10566000000E+00 0. -1.
     999900   -1    0    0    0    0 -0.00000000000E+00 -0.00000000000E+00 -0.74505805969E-08  0.93827000000E+00  0.93827000000E+00 0. -1.
     999902    2    1    2    0    0  0.27909556515E-01  0.10061478040E-02 -0.71073977846E-02  0.10151121100E+01  0.10147029739E+01 0.  0.
     999903    2    3    3    0    0  0.87397592734E-01 -0.85857513994E-01 -0.32909003194E-01  0.12846119506E+00  0.20234233883E-01 0.  0.
         14    1    1    2    0    0 -0.27909556515E-01 -0.10061478040E-02  0.71073977846E-02  0.28817889957E-01  0.00000000000E+00 0. -1.
     999901    1    3    3    0    0 -0.59488036219E-01  0.86863661798E-01  0.25801605409E-01  0.88665091498E+00  0.88000000000E+00 0.  1.
        -11    1    4    4    0    0  0.17620992216E-01 -0.27153820706E-01 -0.14311993129E-01  0.35396661056E-01  0.51100000000E-03 0. -1.
         11    1    4    4    0    0  0.69776600519E-01 -0.58703693288E-01 -0.18597010065E-01  0.93064534007E-01  0.51100000000E-03 0.  1.
</event>
<event>
 8    1  0.1122848E+005  0.1043930E+01  0.7957747E-01            NaN
         13   -1    0    0    0    0  0.00000000000E+00  0.00000000000E+00  0.74505805969E-08  0.10566000000E+00  0.10566000000E+00 0.  1.
     999900   -1    0    0    0    0 -0.00000000000E+00 -0.00000000000E+00 -0.74505805969E-08  0.93827000000E+00  0.93827000000E+00 0. -1.
     999902    2    1    2    0    0 -0.23362968890E-01  0.14029947003E-02 -0.12027711265E-02  0.10204940582E+01  0.10202249161E+01 0.  0.
     999903    2    3    3    0    0  0.38272830237E-01 -0.12198144377E+00  0.83797066008E-02  0.12969974116E+00  0.20187154754E-01 0.  0.
         14    1    1    2    0    0  0.23362968890E-01 -0.14029947003E-02  0.12027711265E-02  0.23435941796E-01  0.00000000000E+00 0.  1.
     999901    1    3    3    0    0 -0.61635799127E-01  0.12338443847E+00 -0.95824777273E-02  0.89079431704E+00  0.88000000000E+00 0. -1.
        -11    1    4    4    0    0  0.36158788176E-01 -0.84879289658E-01  0.57147668552E-02  0.92438473897E-01  0.51100000000E-03 0. -1.
         11    1    4    4    0    0  0.21140420606E-02 -0.37102154111E-01  0.26649397456E-02  0.37261267268E-01  0.51100000000E-03 0.  1.
</event>
<event>
 8    1  0.1122848E+005  0.1043930E+01  0.7957747E-01            NaN
         13   -1    0    0    0    0  0.00000000000E+00  0.00000000000E+00  0.74505805969E-08  0.10566000000E+00  0.10566000000E+00 0. -1.
     999900   -1    0    0    0    0 -0.00000000000E+00 -0.00000000000E+00 -0.74505805969E-08  0.93827000000E+00  0.93827000000E+00 0.  1.
     999902    2    1    2    0    0  0.17398837635E-01 -0.40141706779E-02 -0.15847648577E-01  0.10200557234E+01  0.10197762979E+01 0.  0.
     999903    2    3    3    0    0 -0.41496698035E-01  0.10959551981E+00 -0.52356537028E-01  0.13005081060E+00  0.20948805597E-01 0.  0.
         14    1    1    2    0    0 -0.17398837635E-01  0.40141706779E-02  0.15847648577E-01  0.23874276591E-01  0.00000000000E+00 0. -1.
     999901    1    3    3    0    0  0.58895535671E-01 -0.11360969049E+00  0.36508888451E-01  0.89000491281E+00  0.88000000000E+00 0. -1.
        -11    1    4    4    0    0  0.13009596450E-02  0.15381778917E-01 -0.88120306895E-02  0.17782143417E-01  0.51100000000E-03 0. -1.
         11    1    4    4    0    0 -0.42797657680E-01  0.94213740897E-01 -0.43544506339E-01  0.11226866718E+00  0.51100000000E-03 0.  1.
</event>
<event>
 8    1  0.1122848E+005  0.1043930E+01  0.7957747E-01            NaN
         13   -1    0    0    0    0  0.00000000000E+00  0.00000000000E+00  0.74505805969E-08  0.10566000000E+00  0.10566000000E+00 0. -1.
     999900   -1    0    0    0    0 -0.00000000000E+00 -0.00000000000E+00 -0.74505805969E-08  0.93827000000E+00  0.93827000000E+00 0. -1.
     999902    2    1    2    0    0  0.10688664438E-02  0.15277257452E-01  0.19496647079E-01  0.10191377367E+01  0.10188361351E+01 0.  0.
     999903    2    3    3    0    0  0.28675316891E-01 -0.73410972888E-01 -0.97058308906E-01  0.12660607002E+00  0.19933311324E-01 0.  0.
         14    1    1    2    0    0 -0.10688664438E-02 -0.15277257452E-01 -0.19496647079E-01  0.24792263270E-01  0.00000000000E+00 0.  1.
     999901    1    3    3    0    0 -0.27606450447E-01  0.88688230340E-01  0.11655495598E+00  0.89253166671E+00  0.88000000000E+00 0.  1.
        -11    1    4    4    0    0  0.21726577567E-01 -0.29290908072E-01 -0.39762000812E-01  0.53956272091E-01  0.51100000000E-03 0. -1.
         11    1    4    4    0    0  0.69487393238E-02 -0.44120064816E-01 -0.57296308094E-01  0.72649797934E-01  0.51100000000E-03 0.  1.
</event>
<event>
 8    1  0.1122848E+005  0.1043930E+01  0.7957747E-01            NaN
         13   -1    0    0    0    0  0.00000000000E+00  0.00000000000E+00  0.74505805969E-08  0.10566000000E+00  0.10566000000E+00 0.  1.
     999900   -1    0    0    0    0 -0.00000000000E+00 -0.00000000000E+00 -0.74505805969E-08  0.93827000000E+00  0.93827000000E+00 0.  1.
     999902    2    1    2    0    0  0.15832849958E-01  0.15041760451E-01 -0.95456518895E-02  0.10200961341E+01  0.10198176649E+01 0.  0.
     999903    2    3    3    0    0  0.78485947518E-01 -0.38417624017E-01 -0.96830188124E-01  0.13195092821E+00  0.19975092756E-01 0.  0.
         14    1    1    2    0    0 -0.15832849958E-01 -0.15041760451E-01  0.95456518895E-02  0.23833865932E-01  0.00000000000E+00 0.  1.
     999901    1    3    3    0    0 -0.62653097561E-01  0.53459384468E-01  0.87284536235E-01  0.88814520586E+00  0.88000000000E+00 0. -1.
        -11    1    4    4    0    0  0.56064910581E-01 -0.30903771214E-01 -0.57471804107E-01  0.86032474462E-01  0.51100000000E-03 0. -1.
         11    1    4    4    0    0  0.22421036938E-01 -0.75138528033E-02 -0.39358384017E-01  0.45918453749E-01  0.51100000000E-03 0.  1.
</event>
<event>
 8    1  0.1122848E+005  0.1043930E+01  0.7957747E-01            NaN
         13   -1    0    0    0    0  0.00000000000E+00  0.00000000000E+00  0.74505805969E-08  0.10566000000E+00  0.10566000000E+00 0.  1.
     999900   -1    0    0    0    0 -0.00000000000E+00 -0.00000000000E+00 -0.74505805969E-08  0.93827000000E+00  0.93827000000E+00 0. -1.
     999902    2    1    2    0    0  0.18232061680E-01 -0.12627335241E-01  0.33288439710E-02  0.10215037014E+01  0.10212574959E+01 0.  0.
     999903    2    3    3    0    0  0.76364909533E-01 -0.96820894353E-01 -0.48386523822E-01  0.13406780922E+00  0.20664868507E-01 0.  0.
         14    1    1    2    0    0 -0.18232061680E-01  0.12627335241E-01 -0.33288439710E-02  0.22426298637E-01  0.00000000000E+00 0. -1.
     999901    1    3    3    0    0 -0.58132847853E-01  0.84193559112E-01  0.51715367793E-01  0.88743589214E+00  0.88000000000E+00 0.  1.
        -11    1    4    4    0    0  0.29398781677E-02 -0.13898962202E-02 -0.51861968892E-02  0.61426748503E-02  0.51100000000E-03 0.  1.
         11    1    4    4    0    0  0.73425031366E-01 -0.95430998132E-01 -0.43200326933E-01  0.12792513437E+00  0.51100000000E-03 0. -1.
</event>
<event>
 8    1  0.1122848E+005  0.1043930E+01  0.7957747E-01            NaN
         13   -1    0    0    0    0  0.00000000000E+00  0.00000000000E+00  0.74505805969E-08  0.10566000000E+00  0.10566000000E+00 0.  1.
     999900   -1    0    0    0    0 -0.00000000000E+00 -0.00000000000E+00 -0.74505805969E-08  0.93827000000E+00  0.93827000000E+00 0. -1.
     999902    2    1    2    0    0  0.12143517138E-01  0.14464924208E-01  0.15943925940E-01  0.10192134506E+01  0.10189137108E+01 0.  0.
     999903    2    3    3    0    0 -0.53575586713E-01  0.99144687884E-01  0.64820652802E-01  0.13136290155E+00  0.18827698915E-01 0.  0.
         14    1    1    2    0    0 -0.12143517138E-01 -0.14464924208E-01 -0.15943925940E-01  0.24716549419E-01  0.00000000000E+00 0. -1.
     999901    1    3    3    0    0  0.65719103851E-01 -0.84679763677E-01 -0.48876726861E-01  0.88785054903E+00  0.88000000000E+00 0. -1.
        -11    1    4    4    0    0 -0.24223079438E-01  0.32524254599E-01  0.15452176938E-01  0.43400640638E-01  0.51100000000E-03 0. -1.
         11    1    4    4    0    0 -0.29352507275E-01  0.66620433285E-01  0.49368475864E-01  0.87962260911E-01  0.51100000000E-03 0.  1.
</event>
<event>
 8    1  0.1122848E+005  0.1043930E+01  0.7957747E-01            NaN
         13   -1    0    0    0    0  0.00000000000E+00  0.00000000000E+00  0.74505805969E-08  0.10566000000E+00  0.10566000000E+00 0. -1.
     999900   -1    0    0    0    0 -0.00000000000E+00 -0.00000000000E+00 -0.74505805969E-08  0.93827000000E+00  0.93827000000E+00 0.  1.
     999902    2    1    2    0    0  0.34239845689E-02  0.12509489237E-01  0.18440489101E-01  0.10213853193E+01  0.10211364785E+01 0.  0.
     999903    2    3    3    0    0 -0.79537755833E-01  0.85661983856E-01 -0.56664274292E-01  0.13128719921E+00  0.19006804404E-01 0.  0.
         14    1    1    2    0    0 -0.34239845689E-02 -0.12509489237E-01 -0.18440489101E-01  0.22544680739E-01  0.00000000000E+00 0.  1.
     999901    1    3    3    0    0  0.82961740402E-01 -0.73152494619E-01  0.75104763393E-01  0.89009812005E+00  0.88000000000E+00 0. -1.
        -11    1    4    4    0    0 -0.20649856538E-01  0.27522325447E-01 -0.25620356107E-01  0.42901733544E-01  0.51100000000E-03 0. -1.
         11    1    4    4    0    0 -0.58887899294E-01  0.58139658409E-01 -0.31043918185E-01  0.88385465663E-01  0.51100000000E-03 0.  1.
</event>
<event>
 8    1  0.1122848E+005  0.1043930E+01  0.7957747E-01            NaN
         13   -1    0    0    0    0  0.00000000000E+00  0.00000000000E+00  0.74505805969E-08  0.10566000000E+00  0.10566000000E+00 0.  1.
     999900   -1    0    0    0    0 -0.00000000000E+00 -0.00000000000E+00 -0.74505805969E-08  0.93827000000E+00  0.93827000000E+00 0. -1.
     999902    2    1    2    0    0 -0.25013659026E-01  0.53389925452E-02  0.51675542012E-02  0.10178361004E+01  0.10175015655E+01 0.  0.
     999903    2    3    3    0    0 -0.49214661814E-02 -0.52140191589E-01 -0.11467686897E+00  0.12762812551E+00  0.19883001192E-01 0.  0.
         14    1    1    2    0    0  0.25013659026E-01 -0.53389925452E-02 -0.51675542012E-02  0.26093899587E-01  0.00000000000E+00 0. -1.
     999901    1    3    3    0    0 -0.20092192844E-01  0.57479184134E-01  0.11984442317E+00  0.89020797491E+00  0.88000000000E+00 0.  1.
        -11    1    4    4    0    0 -0.74981425005E-02 -0.28950567041E-01 -0.83418010510E-01  0.88618187024E-01  0.51100000000E-03 0.  1.
         11    1    4    4    0    0  0.25766763191E-02 -0.23189624548E-01 -0.31258858456E-01  0.39009938483E-01  0.51100000000E-03 0. -1.
</event>
<event>
 8    1  0.1122848E+005  0.1043930E+01  0.7957747E-01            NaN
         13   -1    0    0    0    0  0.00000000000E+00  0.00000000000E+00  0.74505805969E-08  0.10566000000E+00  0.10566000000E+00 0. -1.
     999900   -1    0    0    0    0 -0.00000000000E+00 -0.00000000000E+00 -0.74505805969E-08  0.93827000000E+00  0.93827000000E+00 0.  1.
     999902    2    1    2    0    0  0.17265615024E-01 -0.12025897609E-01  0.12423407441E-01  0.10194950920E+01  0.10192022262E+01 0.  0.
     999903    2    3    3    0    0 -0.92452641730E-01 -0.88019840702E-01 -0.63870221086E-03  0.12933567149E+00  0.20792418315E-01 0.  0.
         14    1    1    2    0    0 -0.17265615024E-01  0.12025897609E-01 -0.12423407441E-01  0.24434907978E-01  0.00000000000E+00 0. -1.
     999901    1    3    3    0    0  0.10971825675E+00  0.75993943093E-01  0.13062109652E-01  0.89015942053E+00  0.88000000000E+00 0. -1.
        -11    1    4    4    0    0 -0.40017258177E-02 -0.88444679624E-03 -0.30748487204E-02  0.51489679848E-02  0.51100000000E-03 0. -1.
         11    1    4    4    0    0 -0.88450915913E-01 -0.87135393905E-01  0.24361465095E-02  0.12418670351E+00  0.51100000000E-03 0.  1.
</event>
<event>
 8    1  0.1122848E+005  0.1043930E+01  0.7957747E-01            NaN
         13   -1    0    0    0    0  0.00000000000E+00  0.00000000000E+00  0.74505805969E-08  0.10566000000E+00  0.10566000000E+00 0.  1.
     999900   -1    0    0    0    0 -0.00000000000E+00 -0.00000000000E+00 -0.74505805969E-08  0.93827000000E+00  0.93827000000E+00 0.  1.
     999902    2    1    2    0    0  0.10858585628E-01  0.14604608623E-01  0.14452733814E-01  0.10206902713E+01  0.10204256685E+01 0.  0.
     999903    2    3    3    0    0 -0.44272996783E-01 -0.90552239675E-01 -0.76525629869E-01  0.12806800138E+00  0.19632488269E-01 0.  0.
         14    1    1    2    0    0 -0.10858585628E-01 -0.14604608623E-01 -0.14452733814E-01  0.23239728689E-01  0.00000000000E+00 0. -1.
     999901    1    3    3    0    0  0.55131582411E-01  0.10515684830E+00  0.90978363683E-01  0.89262226993E+00  0.88000000000E+00 0. -1.
        -11    1    4    4    0    0 -0.20355347857E-01 -0.62918359283E-01 -0.48502649938E-01  0.82011147372E-01  0.51100000000E-03 0.  1.
         11    1    4    4    0    0 -0.23917648926E-01 -0.27633880391E-01 -0.28022979931E-01  0.46056854005E-01  0.51100000000E-03 0. -1.
</event>
<event>
 8    1  0.1122848E+005  0.1043930E+01  0.7957747E-01            NaN
         13   -1    0    0    0    0  0.00000000000E+00  0.00000000000E+00  0.74505805969E-08  0.10566000000E+00  0.10566000000E+00 0.  1.
     999900   -1    0    0    0    0 -0.00000000000E+00 -0.00000000000E+00 -0.74505805969E-08  0.93827000000E+00  0.93827000000E+00 0. -1.
     999902    2    1    2    0    0  0.16246914814E-01  0.19211880384E-01  0.35270111966E-02  0.10185233395E+01  0.10182064107E+01 0.  0.
     999903    2    3    3    0    0  0.96246332253E-01 -0.68906239755E-01  0.48223009831E-01  0.12938755564E+00  0.20106081840E-01 0.  0.
         14    1    1    2    0    0 -0.16246914814E-01 -0.19211880384E-01 -0.35270111966E-02  0.25406660482E-01  0.00000000000E+00 0.  1.
     999901    1    3    3    0    0 -0.79999417439E-01  0.88118120139E-01 -0.44695998634E-01  0.88913578388E+00  0.88000000000E+00 0. -1.
        -11    1    4    4    0    0  0.90460180370E-01 -0.59230535358E-01  0.47434897098E-01  0.11807468456E+00  0.51100000000E-03 0.  1.
         11    1    4    4    0    0  0.57861518824E-02 -0.96757043969E-02  0.78811273304E-03  0.11312871071E-01  0.51100000000E-03 0. -1.
</event>
<event>
 8    1  0.1122848E+005  0.1043930E+01  0.7957747E-01            NaN
         13   -1    0    0    0    0  0.00000000000E+00  0.00000000000E+00  0.74505805969E-08  0.10566000000E+00  0.10566000000E+00 0.  1.
     999900   -1    0    0    0    0 -0.00000000000E+00 -0.00000000000E+00 -0.74505805969E-08  0.93827000000E+00  0.93827000000E+00 0. -1.
     999902    2    1    2    0    0 -0.16162852308E-01 -0.11696754231E-01  0.13151474636E-01  0.10200341188E+01  0.10197541813E+01 0.  0.
     999903    2    3    3    0    0  0.87289080588E-01  0.11331766933E-01 -0.90339945224E-01  0.12765354459E+00  0.19655259125E-01 0.  0.
         14    1    1    2    0    0  0.16162852308E-01  0.11696754231E-01 -0.13151474636E-01  0.23895881222E-01  0.00000000000E+00 0. -1.
     999901    1    3    3    0    0 -0.10345193290E+00 -0.23028521163E-01  0.10349141986E+00  0.89238057419E+00  0.88000000000E+00 0.  1.
        -11    1    4    4    0    0  0.27324196073E-01  0.12469308448E-01 -0.33923798058E-01  0.45312035265E-01  0.51100000000E-03 0.  1.
         11    1    4    4    0    0  0.59964884515E-01 -0.11375415152E-02 -0.56416147165E-01  0.82341509323E-01  0.51100000000E-03 0. -1.
</event>
<event>
 8    1  0.1122848E+005  0.1043930E+01  0.7957747E-01            NaN
         13   -1    0    0    0    0  0.00000000000E+00  0.00000000000E+00  0.74505805969E-08  0.10566000000E+00  0.10566000000E+00 0.  1.
     999900   -1    0    0    0    0 -0.00000000000E+00 -0.00000000000E+00 -0.74505805969E-08  0.93827000000E+00  0.93827000000E+00 0. -1.
     999902    2    1    2    0    0 -0.17951139269E-01  0.15450771007E-01 -0.51472783445E-02  0.10196923392E+01  0.10194042390E+01 0.  0.
     999903    2    3    3    0    0  0.95993567378E-01  0.78210437630E-01 -0.26903026438E-01  0.12986343179E+00  0.28444692859E-01 0.  0.
         14    1    1    2    0    0  0.17951139269E-01 -0.15450771007E-01  0.51472783445E-02  0.24237660780E-01  0.00000000000E+00 0.  1.
     999901    1    3    3    0    0 -0.11394470665E+00 -0.62759666623E-01  0.21755748094E-01  0.88982890743E+00  0.88000000000E+00 0.  1.
        -11    1    4    4    0    0  0.73358523599E-01  0.71198265111E-01 -0.28439393322E-01  0.10611185680E+00  0.51100000000E-03 0. -1.
         11    1    4    4    0    0  0.22635043779E-01  0.70121725195E-02  0.15363668841E-02  0.23751574990E-01  0.51100000000E-03 0.  1.
</event>
<event>
 8    1  0.1122848E+005  0.1043930E+01  0.7957747E-01            NaN
         13   -1    0    0    0    0  0.00000000000E+00  0.00000000000E+00  0.74505805969E-08  0.10566000000E+00  0.10566000000E+00 0.  1.
     999900   -1    0    0    0    0 -0.00000000000E+00 -0.00000000000E+00 -0.74505805969E-08  0.93827000000E+00  0.93827000000E+00 0.  1.
     999902    2    1    2    0    0 -0.10063208292E-01 -0.18694954803E-02 -0.21238498923E-01  0.10203538041E+01  0.10200813931E+01 0.  0.
     999903    2    3    3    0    0 -0.98414508358E-01 -0.16842639524E-01 -0.85983261580E-01  0.13343665381E+00  0.21050637682E-01 0.  0.
         14    1    1    2    0    0  0.10063208292E-01  0.18694954803E-02  0.21238498923E-01  0.23576195854E-01  0.00000000000E+00 0.  1.
     999901    1    3    3    0    0  0.88351300067E-01  0.14973144044E-01  0.64744762658E-01  0.88691715033E+00  0.88000000000E+00 0. -1.
        -11    1    4    4    0    0 -0.57574322521E-01 -0.10911383407E-01 -0.63616327980E-01  0.86493694616E-01  0.51100000000E-03 0.  1.
         11    1    4    4    0    0 -0.40840185837E-01 -0.59312561173E-02 -0.22366933600E-01  0.46942959195E-01  0.51100000000E-03 0. -1.
</event>
<event>
 8    1  0.1122848E+005  0.1043930E+01  0.7957747E-01            NaN
         13   -1    0    0    0    0  0.00000000000E+00  0.00000000000E+00  0.74505805969E-08  0.10566000000E+00  0.10566000000E+00 0.  1.
     999900   -1    0    0    0    0 -0.00000000000E+00 -0.00000000000E+00 -0.74505805969E-08  0.93827000000E+00  0.93827000000E+00 0.  1.
     999902    2    1    2    0    0  0.76109742977E-02 -0.19944771161E-01 -0.48273973058E-02  0.10220433696E+01  0.10218089962E+01 0.  0.
     999903    2    3    3    0    0  0.11754385810E+00 -0.57586072996E-01  0.15426237344E-01  0.13417383172E+00  0.25138296263E-01 0.  0.
         14    1    1    2    0    0 -0.76109742977E-02  0.19944771161E-01  0.48273973058E-02  0.21886630421E-01  0.00000000000E+00 0. -1.
     999901    1    3    3    0    0 -0.10993288380E+00  0.37641301835E-01 -0.20253634650E-01  0.88786953786E+00  0.88000000000E+00 0. -1.
        -11    1    4    4    0    0  0.42383003947E-01 -0.34402987246E-01  0.47721324320E-02  0.54798895281E-01  0.51100000000E-03 0.  1.
         11    1    4    4    0    0  0.75160854153E-01 -0.23183085750E-01  0.10654104912E-01  0.79374936437E-01  0.51100000000E-03 0. -1.
</event>
<event>
 8    1  0.1122848E+005  0.1043930E+01  0.7957747E-01            NaN
         13   -1    0    0    0    0  0.00000000000E+00  0.00000000000E+00  0.74505805969E-08  0.10566000000E+00  0.10566000000E+00 0.  1.
     999900   -1    0    0    0    0 -0.00000000000E+00 -0.00000000000E+00 -0.74505805969E-08  0.93827000000E+00  0.93827000000E+00 0. -1.
     999902    2    1    2    0    0  0.21303774812E-01 -0.51066064094E-02 -0.91627715607E-02  0.10201837449E+01  0.10199073432E+01 0.  0.
     999903    2    3    3    0    0 -0.80519653318E-02 -0.97992254150E-01  0.82844393965E-01  0.13004059821E+00  0.19494808318E-01 0.  0.
         14    1    1    2    0    0 -0.21303774812E-01  0.51066064094E-02  0.91627715607E-02  0.23746255135E-01  0.00000000000E+00 0.  1.
     999901    1    3    3    0    0  0.29355740144E-01  0.92885647741E-01 -0.92007165526E-01  0.89014314666E+00  0.88000000000E+00 0. -1.
        -11    1    4    4    0    0  0.66477772436E-03 -0.49880758961E-01  0.30801749583E-01  0.58630546154E-01  0.51100000000E-03 0.  1.
         11    1    4    4    0    0 -0.87167430562E-02 -0.48111495189E-01  0.52042644382E-01  0.71410052052E-01  0.51100000000E-03 0. -1.
</event>
<event>
 8    1  0.1122848E+005  0.1043930E+01  0.7957747E-01            NaN
         13   -1    0    0    0    0  0.00000000000E+00  0.00000000000E+00  0.74505805969E-08  0.10566000000E+00  0.10566000000E+00 0. -1.
     999900   -1    0    0    0    0 -0.00000000000E+00 -0.00000000000E+00 -0.74505805969E-08  0.93827000000E+00  0.93827000000E+00 0. -1.
     999902    2    1    2    0    0 -0.33416998537E-02 -0.23155092655E-01 -0.37054246078E-02  0.10202433910E+01  0.10199683924E+01 0.  0.
     999903    2    3    3    0    0  0.62627750830E-01  0.65109733319E-01  0.89111286658E-01  0.12852729840E+00  0.20418924512E-01 0.  0.
         14    1    1    2    0    0  0.33416998537E-02  0.23155092655E-01  0.37054246078E-02  0.23686608987E-01  0.00000000000E+00 0.  1.
     999901    1    3    3    0    0 -0.65969450684E-01 -0.88264825974E-01 -0.92816711266E-01  0.89171609261E+00  0.88000000000E+00 0. -1.
        -11    1    4    4    0    0  0.55169562370E-01  0.63936460392E-01  0.77218892846E-01  0.11443150839E+00  0.51100000000E-03 0. -1.
         11    1    4    4    0    0  0.74581884599E-02  0.11732729268E-02  0.11892393812E-01  0.14095790011E-01  0.51100000000E-03 0.  1.
</event>
<event>
 8    1  0.1122848E+005  0.1043930E+01  0.7957747E-01            NaN
         13   -1    0    0    0    0  0.00000000000E+00  0.00000000000E+00  0.74505805969E-08  0.10566000000E+00  0.10566000000E+00 0. -1.
     999900   -1    0    0    0    0 -0.00000000000E+00 -0.00000000000E+00 -0.74505805969E-08  0.93827000000E+00  0.93827000000E+00 0.  1.
     999902    2    1    2    0    0  0.31586475282E-02 -0.12502449323E-01  0.18276890147E-01  0.10215618752E+01  0.10213169596E+01 0.  0.
     999903    2    3    3    0    0 -0.86142901182E-01 -0.68182142734E-01  0.73465722516E-01  0.13357493720E+00  0.19381626618E-01 0.  0.
         14    1    1    2    0    0 -0.31586475282E-02  0.12502449323E-01 -0.18276890147E-01  0.22368124792E-01  0.00000000000E+00 0.  1.
     999901    1    3    3    0    0  0.89301548711E-01  0.55679693411E-01 -0.55188832369E-01  0.88798693801E+00  0.88000000000E+00 0.  1.
        -11    1    4    4    0    0 -0.11957855364E-01 -0.10164872849E-01  0.19477224363E-01  0.25018759658E-01  0.51100000000E-03 0. -1.
         11    1    4    4    0    0 -0.74185045818E-01 -0.58017269885E-01  0.53988498153E-01  0.10855617754E+00  0.51100000000E-03 0.  1.
</event>
<event>
 8    1  0.1122848E+005  0.1043930E+01  0.7957747E-01            NaN
         13   -1    0    0    0    0  0.00000000000E+00  0.00000000000E+00  0.74505805969E-08  0.10566000000E+00  0.10566000000E+00 0.  1.
     999900   -1    0    0    0    0 -0.00000000000E+00 -0.00000000000E+00 -0.74505805969E-08  0.93827000000E+00  0.93827000000E+00 0. -1.
     999902    2    1    2    0    0 -0.84036013478E-02  0.22871716662E-01 -0.15420803907E-02  0.10195145551E+01  0.10192221613E+01 0.  0.
     999903    2    3    3    0    0  0.11586740385E+00  0.51987882461E-01  0.18940609762E-01  0.13007058583E+00  0.20775355669E-01 0.  0.
         14    1    1    2    0    0  0.84036013478E-02 -0.22871716662E-01  0.15420803907E-02  0.24415444919E-01  0.00000000000E+00 0.  1.
     999901    1    3    3    0    0 -0.12427100519E+00 -0.29116165799E-01 -0.20482690152E-01  0.88944396925E+00  0.88000000000E+00 0.  1.
        -11    1    4    4    0    0  0.77068662683E-01  0.23605108313E-01  0.11301918817E-01  0.81392717096E-01  0.51100000000E-03 0.  1.
         11    1    4    4    0    0  0.38798741162E-01  0.28382774148E-01  0.76386909441E-02  0.48677868733E-01  0.51100000000E-03 0. -1.
</event>
<event>
 8    1  0.1122848E+005  0.1043930E+01  0.7957747E-01            NaN
         13   -1    0    0    0    0  0.00000000000E+00  0.00000000000E+00  0.74505805969E-08  0.10566000000E+00  0.10566000000E+00 0. -1.
     999900   -1    0    0    0    0 -0.00000000000E+00 -0.00000000000E+00 -0.74505805969E-08  0.93827000000E+00  0.93827000000E+00 0. -1.
     999902    2    1    2    0    0 -0.23715632278E-01  0.68790464982E-02 -0.58248299007E-02  0.10185591281E+01  0.10182431028E+01 0.  0.
     999903    2    3    3    0    0  0.46819559545E-01  0.78004858043E-01 -0.89104366963E-01  0.12896957355E+00  0.20414055365E-01 0.  0.
         14    1    1    2    0    0  0.23715632278E-01 -0.68790464982E-02  0.58248299007E-02  0.25370871850E-01  0.00000000000E+00 0.  1.
     999901    1    3    3    0    0 -0.70535191823E-01 -0.71125811544E-01  0.83279537062E-01  0.88958955460E+00  0.88000000000E+00 0.  1.
        -11    1    4    4    0    0  0.26798271017E-01  0.25627010261E-01 -0.32870966823E-01  0.49554541318E-01  0.51100000000E-03 0. -1.
         11    1    4    4    0    0  0.20021288528E-01  0.52377847782E-01 -0.56233400140E-01  0.79415032235E-01  0.51100000000E-03 0.  1.
</event>
<event>
 8    1  0.1122848E+005  0.1043930E+01  0.7957747E-01            NaN
         13   -1    0    0    0    0  0.00000000000E+00  0.00000000000E+00  0.74505805969E-08  0.10566000000E+00  0.10566000000E+00 0.  1.
     999900   -1    0    0    0    0 -0.00000000000E+00 -0.00000000000E+00 -0.74505805969E-08  0.93827000000E+00  0.93827000000E+00 0. -1.
     999902    2    1    2    0    0  0.10699366704E-01  0.20400758450E-01  0.50692893230E-02  0.10203426074E+01  0.10200699346E+01 0.  0.
     999903    2    3    3    0    0  0.11128138414E+00  0.21225956809E-01  0.65867026098E-01  0.13252855711E+00  0.19780435347E-01 0.  0.
         14    1    1    2    0    0 -0.10699366704E-01 -0.20400758450E-01 -0.50692893230E-02  0.23587392553E-01  0.00000000000E+00 0. -1.
     999901    1    3    3    0    0 -0.10058201744E+00 -0.82519835866E-03 -0.60797736775E-01  0.88781405034E+00  0.88000000000E+00 0. -1.
        -11    1    4    4    0    0  0.70380960252E-02 -0.26303083553E-02  0.13984108202E-02  0.76596339028E-02  0.51100000000E-03 0. -1.
         11    1    4    4    0    0  0.10424328812E+00  0.23856265164E-01  0.64468615278E-01  0.12486892320E+00  0.51100000000E-03 0.  1.
</event>
<event>
 8    1  0.1122848E+005  0.1043930E+01  0.7957747E-01            NaN
         13   -1    0    0    0    0  0.00000000000E+00  0.00000000000E+00  0.74505805969E-08  0.10566000000E+00  0.10566000000E+00 0. -1.
     999900   -1    0    0    0    0 -0.00000000000E+00 -0.00000000000E+00 -0.74505805969E-08  0.93827000000E+00  0.93827000000E+00 0.  1.
     999902    2    1    2    0    0 -0.47982763226E-03 -0.17405235972E-01  0.13795844582E-01  0.10217151896E+01  0.10214736565E+01 0.  0.
     999903    2    3    3    0    0  0.10967737108E+00  0.67938306086E-01  0.77518667767E-02  0.13072997183E+00  0.19634024959E-01 0.  0.
         14    1    1    2    0    0  0.47982763226E-03  0.17405235972E-01 -0.13795844582E-01  0.22214810409E-01  0.00000000000E+00 0.  1.
     999901    1    3    3    0    0 -0.11015719871E+00 -0.85343542057E-01  0.60439778056E-02  0.89098521776E+00  0.88000000000E+00 0. -1.
        -11    1    4    4    0    0  0.72165421834E-02  0.96720058009E-02 -0.27664223417E-02  0.12391141629E-01  0.51100000000E-03 0. -1.
         11    1    4    4    0    0  0.10246082889E+00  0.58266300285E-01  0.10518289118E-01  0.11833883020E+00  0.51100000000E-03 0.  1.
</event>
<event>
 8    1  0.1122848E+005  0.1043930E+01  0.7957747E-01            NaN
         13   -1    0    0    0    0  0.00000000000E+00  0.00000000000E+00  0.74505805969E-08  0.10566000000E+00  0.10566000000E+00 0.  1.
     999900   -1    0    0    0    0 -0.00000000000E+00 -0.00000000000E+00 -0.74505805969E-08  0.93827000000E+00  0.93827000000E+00 0. -1.
     999902    2    1    2    0    0  0.83407591341E-03 -0.15013417083E-01  0.17926289802E-01  0.10205323454E+01  0.10202640922E+01 0.  0.
     999903    2    3    3    0    0  0.11874314530E+00 -0.52461702857E-01 -0.76372205256E-02  0.13151130188E+00  0.19614549713E-01 0.  0.
         14    1    1    2    0    0 -0.83407591341E-03  0.15013417083E-01 -0.17926289802E-01  0.23397654609E-01  0.00000000000E+00 0.  1.
     999901    1    3    3    0    0 -0.11790906939E+00  0.37448285773E-01  0.25563510327E-01  0.88902104351E+00  0.88000000000E+00 0. -1.
        -11    1    4    4    0    0  0.61664708405E-01 -0.36777798774E-01  0.17833589844E-03  0.71801362592E-01  0.51100000000E-03 0.  1.
         11    1    4    4    0    0  0.57078436899E-01 -0.15683904082E-01 -0.78155564240E-02  0.59709939284E-01  0.51100000000E-03 0. -1.
</event>
<event>
 8    1  0.1122848E+005  0.1043930E+01  0.7957747E-01            NaN
         13   -1    0    0    0    0  0.00000000000E+00  0.00000000000E+00  0.74505805969E-08  0.10566000000E+00  0.10566000000E+00 0.  1.
     999900   -1    0    0    0    0 -0.00000000000E+00 -0.00000000000E+00 -0.74505805969E-08  0.93827000000E+00  0.93827000000E+00 0.  1.
     999902    2    1    2    0    0  0.18129110905E-02 -0.16582662580E-01  0.19991801001E-01  0.10178926527E+01  0.10175595850E+01 0.  0.
     999903    2    3    3    0    0 -0.18492417172E-02  0.44088749264E-02  0.12926378296E+00  0.13087832250E+00  0.19928668859E-01 0.  0.
         14    1    1    2    0    0 -0.18129110905E-02  0.16582662580E-01 -0.19991801001E-01  0.26037347256E-01  0.00000000000E+00 0. -1.
     999901    1    3    3    0    0  0.36621528077E-02 -0.20991537506E-01 -0.10927198196E+00  0.88701433024E+00  0.88000000000E+00 0.  1.
        -11    1    4    4    0    0 -0.31177727239E-02  0.44005603784E-02  0.83285462911E-02  0.99353531756E-02  0.51100000000E-03 0.  1.
         11    1    4    4    0    0  0.12685310067E-02  0.83145480483E-05  0.12093523667E+00  0.12094296933E+00  0.51100000000E-03 0. -1.
</event>
<event>
 8    1  0.1122848E+005  0.1043930E+01  0.7957747E-01            NaN
         13   -1    0    0    0    0  0.00000000000E+00  0.00000000000E+00  0.74505805969E-08  0.10566000000E+00  0.10566000000E+00 0.  1.
     999900   -1    0    0    0    0 -0.00000000000E+00 -0.00000000000E+00 -0.74505805969E-08  0.93827000000E+00  0.93827000000E+00 0. -1.
     999902    2    1    2    0    0  0.18516326844E-01 -0.44482994370E-02 -0.13374740722E-01  0.10206593013E+01  0.10203939847E+01 0.  0.
     999903    2    3    3    0    0 -0.78487281677E-02  0.65281184782E-01 -0.11269454822E+00  0.13194014362E+00  0.19618987738E-01 0.  0.
         14    1    1    2    0    0 -0.18516326844E-01  0.44482994370E-02  0.13374740722E-01  0.23270698680E-01  0.00000000000E+00 0.  1.
     999901    1    3    3    0    0  0.26365055011E-01 -0.69729484219E-01  0.99319807501E-01  0.88871915770E+00  0.88000000000E+00 0.  1.
        -11    1    4    4    0    0 -0.43479458573E-02  0.27607087315E-01 -0.67097328779E-01  0.72686783899E-01  0.51100000000E-03 0. -1.
         11    1    4    4    0    0 -0.35007823103E-02  0.37674097466E-01 -0.45597219444E-01  0.59253359725E-01  0.51100000000E-03 0.  1.
</event>
<event>
 8    1  0.1122848E+005  0.1043930E+01  0.7957747E-01            NaN
         13   -1    0    0    0    0  0.00000000000E+00  0.00000000000E+00  0.74505805969E-08  0.10566000000E+00  0.10566000000E+00 0.  1.
     999900   -1    0    0    0    0 -0.00000000000E+00 -0.00000000000E+00 -0.74505805969E-08  0.93827000000E+00  0.93827000000E+00 0.  1.
     999902    2    1    2    0    0 -0.38569096330E-02  0.18776044414E-01 -0.17245617575E-01  0.10181457622E+01  0.10178192207E+01 0.  0.
     999903    2    3    3    0    0 -0.11742283902E+00 -0.38873890412E-01 -0.29777658160E-01  0.12888888850E+00  0.20647861234E-01 0.  0.
         14    1    1    2    0    0  0.38569096330E-02 -0.18776044414E-01  0.17245617575E-01  0.25784237845E-01  0.00000000000E+00 0.  1.
     999901    1    3    3    0    0  0.11356592939E+00  0.57649934825E-01  0.12532040585E-01  0.88925687366E+00  0.88000000000E+00 0.  1.
        -11    1    4    4    0    0 -0.60360993355E-01 -0.23466372089E-01 -0.25578990502E-01  0.69632363265E-01  0.51100000000E-03 0. -1.
         11    1    4    4    0    0 -0.57061845666E-01 -0.15407518323E-01 -0.41986676581E-02  0.59256525234E-01  0.51100000000E-03 0.  1.
</event>
<event>
 8    1  0.1122848E+005  0.1043930E+01  0.7957747E-01            NaN
         13   -1    0    0    0    0  0.00000000000E+00  0.00000000000E+00  0.74505805969E-08  0.10566000000E+00  0.10566000000E+00 0. -1.
     999900   -1    0    0    0    0 -0.00000000000E+00 -0.00000000000E+00 -0.74505805969E-08  0.93827000000E+00  0.93827000000E+00 0.  1.
     999902    2    1    2    0    0  0.62357062535E-02 -0.66634283884E-02 -0.22110190012E-01  0.10200104303E+01  0.10197299310E+01 0.  0.
     999903    2    3    3    0    0 -0.10938999194E+00 -0.61790464391E-01 -0.29752762480E-01  0.13070356480E+00  0.20346084365E-01 0.  0.
         14    1    1    2    0    0 -0.62357062535E-02  0.66634283884E-02  0.22110190012E-01  0.23919569660E-01  0.00000000000E+00 0. -1.
     999901    1    3    3    0    0  0.11562569820E+00  0.55127036002E-01  0.76425724684E-02  0.88930686554E+00  0.88000000000E+00 0. -1.
        -11    1    4    4    0    0 -0.56605801636E-01 -0.30372212205E-01 -0.48682404929E-02  0.64425530185E-01  0.51100000000E-03 0. -1.
         11    1    4    4    0    0 -0.52784190309E-01 -0.31418252185E-01 -0.24884521987E-01  0.66278034615E-01  0.51100000000E-03 0.  1.
</event>
<event>
 8    1  0.1122848E+005  0.1043930E+01  0.7957747E-01            NaN
         13   -1    0    0    0    0  0.00000000000E+00  0.00000000000E+00  0.74505805969E-08  0.10566000000E+00  0.10566000000E+00 0.  1.
     999900   -1    0    0    0    0 -0.00000000000E+00 -0.00000000000E+00 -0.74505805969E-08  0.93827000000E+00  0.93827000000E+00 0. -1.
     999902    2    1    2    0    0 -0.10389442327E-01 -0.12216734448E-02 -0.13506577100E-01  0.10268460712E+01  0.10267039463E+01 0.  0.
     999903    2    3    3    0    0 -0.90209650803E-01  0.76369801941E-01 -0.68553884477E-01  0.13812681926E+00  0.20230061211E-01 0.  0.
         14    1    1    2    0    0  0.10389442327E-01  0.12216734448E-02  0.13506577100E-01  0.17083928789E-01  0.00000000000E+00 0. -1.
     999901    1    3    3    0    0  0.79820208475E-01 -0.77591475386E-01  0.55047307376E-01  0.88871925195E+00  0.88000000000E+00 0.  1.
        -11    1    4    4    0    0 -0.54992578078E-01  0.56773054114E-01 -0.51643673896E-01  0.94417654554E-01  0.51100000000E-03 0.  1.
         11    1    4    4    0    0 -0.35217072725E-01  0.19596747827E-01 -0.16910210580E-01  0.43709164709E-01  0.51100000000E-03 0. -1.
</event>
<event>
 8    1  0.1122848E+005  0.1043930E+01  0.7957747E-01            NaN
         13   -1    0    0    0    0  0.00000000000E+00  0.00000000000E+00  0.74505805969E-08  0.10566000000E+00  0.10566000000E+00 0.  1.
     999900   -1    0    0    0    0 -0.00000000000E+00 -0.00000000000E+00 -0.74505805969E-08  0.93827000000E+00  0.93827000000E+00 0. -1.
     999902    2    1    2    0    0  0.15359391701E-02 -0.18286381620E-03 -0.24243739279E-01  0.10196369672E+01  0.10193475332E+01 0.  0.
     999903    2    3    3    0    0  0.87770315405E-01 -0.84592683885E-01  0.36230984013E-01  0.12934567918E+00  0.23623507086E-01 0.  0.
         14    1    1    2    0    0 -0.15359391701E-02  0.18286381620E-03  0.24243739279E-01  0.24293032798E-01  0.00000000000E+00 0.  1.
     999901    1    3    3    0    0 -0.86234376234E-01  0.84409820069E-01 -0.60474723292E-01  0.89029128802E+00  0.88000000000E+00 0. -1.
        -11    1    4    4    0    0  0.64875462811E-01 -0.64299272755E-01  0.16184623226E-01  0.92765431610E-01  0.51100000000E-03 0.  1.
         11    1    4    4    0    0  0.22894852594E-01 -0.20293411130E-01  0.20046360786E-01  0.36580247571E-01  0.51100000000E-03 0. -1.
</event>
<event>
 8    1  0.1122848E+005  0.1043930E+01  0.7957747E-01            NaN
         13   -1    0    0    0    0  0.00000000000E+00  0.00000000000E+00  0.74505805969E-08  0.10566000000E+00  0.10566000000E+00 0. -1.
     999900   -1    0    0    0    0 -0.00000000000E+00 -0.00000000000E+00 -0.74505805969E-08  0.93827000000E+00  0.93827000000E+00 0. -1.
     999902    2    1    2    0    0  0.14520452669E-01 -0.15499704445E-01 -0.10038066276E-01  0.10204385727E+01  0.10201681398E+01 0.  0.
     999903    2    3    3    0    0  0.51388983992E-01  0.53954271227E-01  0.10411086365E+00  0.12958890996E+00  0.20057980860E-01 0.  0.
         14    1    1    2    0    0 -0.14520452669E-01  0.15499704445E-01  0.10038066276E-01  0.23491427333E-01  0.00000000000E+00 0.  1.
     999901    1    3    3    0    0 -0.36868531323E-01 -0.69453975672E-01 -0.11414892992E+00  0.89084966270E+00  0.88000000000E+00 0. -1.
        -11    1    4    4    0    0  0.17475246400E-01  0.22443970628E-01  0.24735838747E-01  0.37699322193E-01  0.51100000000E-03 0. -1.
         11    1    4    4    0    0  0.33913737592E-01  0.31510300599E-01  0.79375024901E-01  0.91889587769E-01  0.51100000000E-03 0.  1.
</event>
<event>
 8    1  0.1122848E+005  0.1043930E+01  0.7957747E-01            NaN
         13   -1    0    0    0    0  0.00000000000E+00  0.00000000000E+00  0.74505805969E-08  0.10566000000E+00  0.10566000000E+00 0.  1.
     999900   -1    0    0    0    0 -0.00000000000E+00 -0.00000000000E+00 -0.74505805969E-08  0.93827000000E+00  0.93827000000E+00 0. -1.
     999902    2    1    2    0    0 -0.22209822414E-01 -0.47134431255E-02 -0.54228684336E-02  0.10205869012E+01  0.10203199119E+01 0.  0.
     999903    2    3    3    0    0  0.29487188212E-01 -0.96903234544E-01  0.79476348789E-01  0.13020528887E+00  0.19421537024E-01 0.  0.
         14    1    1    2    0    0  0.22209822414E-01  0.47134431255E-02  0.54228684336E-02  0.23343098762E-01  0.00000000000E+00 0. -1.
     999901    1    3    3    0    0 -0.51697010626E-01  0.92189791418E-01 -0.84899217223E-01  0.89038161236E+00  0.88000000000E+00 0.  1.
        -11    1    4    4    0    0  0.19127960018E-01 -0.35734598465E-01  0.24878958454E-01  0.47561161431E-01  0.51100000000E-03 0. -1.
         11    1    4    4    0    0  0.10359228194E-01 -0.61168636079E-01  0.54597390336E-01  0.82644127444E-01  0.51100000000E-03 0.  1.
</event>
<event>
 8    1  0.1122848E+005  0.1043930E+01  0.7957747E-01            NaN
         13   -1    0    0    0    0  0.00000000000E+00  0.00000000000E+00  0.74505805969E-08  0.10566000000E+00  0.10566000000E+00 0. -1.
     999900   -1    0    0    0    0 -0.00000000000E+00 -0.00000000000E+00 -0.74505805969E-08  0.93827000000E+00  0.93827000000E+00 0.  1.
     999902    2    1    2    0    0 -0.10975539167E-01 -0.20514554148E-01 -0.27196731827E-02  0.10205055253E+01  0.10202366496E+01 0.  0.
     999903    2    3    3    0    0 -0.24453344111E-01  0.12109119687E+00 -0.30367533061E-01  0.12865450407E+00  0.19202873601E-01 0.  0.
         14    1    1    2    0    0  0.10975539167E-01  0.20514554148E-01  0.27196731827E-02  0.23424474682E-01  0.00000000000E+00 0. -1.
     999901    1    3    3    0    0  0.13477804944E-01 -0.14160575102E+00  0.27647859878E-01  0.89185102125E+00  0.88000000000E+00 0.  1.
        -11    1    4    4    0    0 -0.55686222696E-02  0.74530169713E-01 -0.19582470563E-01  0.77262474888E-01  0.51100000000E-03 0. -1.
         11    1    4    4    0    0 -0.18884721841E-01  0.46561027160E-01 -0.10785062498E-01  0.51392029180E-01  0.51100000000E-03 0.  1.
</event>
<event>
 8    1  0.1122848E+005  0.1043930E+01  0.7957747E-01            NaN
         13   -1    0    0    0    0  0.00000000000E+00  0.00000000000E+00  0.74505805969E-08  0.10566000000E+00  0.10566000000E+00 0.  1.
     999900   -1    0    0    0    0 -0.00000000000E+00 -0.00000000000E+00 -0.74505805969E-08  0.93827000000E+00  0.93827000000E+00 0.  1.
     999902    2    1    2    0    0 -0.14424507770E-01  0.18069158925E-01 -0.85728437125E-03  0.10207935382E+01  0.10205313086E+01 0.  0.
     999903    2    3    3    0    0  0.54783867038E-01 -0.10814621938E+00 -0.36754988876E-01  0.12837616607E+00  0.20799854662E-01 0.  0.
         14    1    1    2    0    0  0.14424507770E-01 -0.18069158925E-01  0.85728437125E-03  0.23136461811E-01  0.00000000000E+00 0.  1.
     999901    1    3    3    0    0 -0.69208374808E-01  0.12621537831E+00  0.35897704505E-01  0.89241737212E+00  0.88000000000E+00 0.  1.
        -11    1    4    4    0    0  0.36821855278E-01 -0.80166916218E-01 -0.35513964686E-01  0.95100401107E-01  0.51100000000E-03 0. -1.
         11    1    4    4    0    0  0.17962011760E-01 -0.27979303165E-01 -0.12410241907E-02  0.33275764966E-01  0.51100000000E-03 0.  1.
</event>
<event>
 8    1  0.1122848E+005  0.1043930E+01  0.7957747E-01            NaN
         13   -1    0    0    0    0  0.00000000000E+00  0.00000000000E+00  0.74505805969E-08  0.10566000000E+00  0.10566000000E+00 0.  1.
     999900   -1    0    0    0    0 -0.00000000000E+00 -0.00000000000E+00 -0.74505805969E-08  0.93827000000E+00  0.93827000000E+00 0. -1.
     999902    2    1    2    0    0 -0.82309454381E-02 -0.21171958625E-01  0.49413817259E-02  0.10206831175E+01  0.10204183498E+01 0.  0.
     999903    2    3    3    0    0  0.11463647496E+00 -0.95546064543E-02  0.57744036086E-01  0.13050364893E+00  0.21541048835E-01 0.  0.
         14    1    1    2    0    0  0.82309454381E-02  0.21171958625E-01 -0.49413817259E-02  0.23246882547E-01  0.00000000000E+00 0. -1.
     999901    1    3    3    0    0 -0.12286742040E+00 -0.11617352170E-01 -0.52802654360E-01  0.89017946852E+00  0.88000000000E+00 0. -1.
        -11    1    4    4    0    0  0.44275654247E-01 -0.82043512700E-02  0.33287258408E-01  0.55999532427E-01  0.51100000000E-03 0.  1.
         11    1    4    4    0    0  0.70360820716E-01 -0.13502551843E-02  0.24456777677E-01  0.74504116505E-01  0.51100000000E-03 0. -1.
</event>
<event>
 8    1  0.1122848E+005  0.1043930E+01  0.7957747E-01            NaN
         13   -1    0    0    0    0  0.00000000000E+00  0.00000000000E+00  0.74505805969E-08  0.10566000000E+00  0.10566000000E+00 0.  1.
     999900   -1    0    0    0    0 -0.00000000000E+00 -0.00000000000E+00 -0.74505805969E-08  0.93827000000E+00  0.93827000000E+00 0. -1.
     999902    2    1    2    0    0  0.69653372575E-02  0.15156886744E-01 -0.18163893402E-01  0.10192688126E+01  0.10189704305E+01 0.  0.
     999903    2    3    3    0    0  0.19382650154E-02  0.12971840895E+00  0.44811507889E-02  0.13154001854E+00  0.21262014809E-01 0.  0.
         14    1    1    2    0    0 -0.69653372575E-02 -0.15156886744E-01  0.18163893402E-01  0.24661187368E-01  0.00000000000E+00 0. -1.
     999901    1    3    3    0    0  0.50270722421E-02 -0.11456152221E+00 -0.22645044191E-01  0.88772879409E+00  0.88000000000E+00 0. -1.
        -11    1    4    4    0    0  0.51649391692E-02  0.42590850095E-01  0.10407242486E-01  0.44150072770E-01  0.51100000000E-03 0.  1.
         11    1    4    4    0    0 -0.32266741538E-02  0.87127558857E-01 -0.59260916974E-02  0.87389945774E-01  0.51100000000E-03 0. -1.
</event>
<event>
 8    1  0.1122848E+005  0.1043930E+01  0.7957747E-01            NaN
         13   -1    0    0    0    0  0.00000000000E+00  0.00000000000E+00  0.74505805969E-08  0.10566000000E+00  0.10566000000E+00 0. -1.
     999900   -1    0    0    0    0 -0.00000000000E+00 -0.00000000000E+00 -0.74505805969E-08  0.93827000000E+00  0.93827000000E+00 0. -1.
     999902    2    1    2    0    0 -0.95703207467E-04 -0.24892289994E-01 -0.25611889904E-02  0.10189061124E+01  0.10185987782E+01 0.  0.
     999903    2    3    3    0    0  0.51731464128E-01  0.99349362916E-01 -0.56780310448E-01  0.12701948470E+00  0.19065821388E-01 0.  0.
         14    1    1    2    0    0  0.95703207467E-04  0.24892289994E-01  0.25611889904E-02  0.25023887574E-01  0.00000000000E+00 0. -1.
     999901    1    3    3    0    0 -0.51827167336E-01 -0.12424165291E+00  0.54219121458E-01  0.89188662773E+00  0.88000000000E+00 0.  1.
        -11    1    4    4    0    0  0.43931961986E-01  0.75179045100E-01 -0.36096210548E-01  0.94260827723E-01  0.51100000000E-03 0.  1.
         11    1    4    4    0    0  0.77995021424E-02  0.24170317816E-01 -0.20684099901E-01  0.32758656973E-01  0.51100000000E-03 0. -1.
</event>
<event>
 8    1  0.1122848E+005  0.1043930E+01  0.7957747E-01            NaN
         13   -1    0    0    0    0  0.00000000000E+00  0.00000000000E+00  0.74505805969E-08  0.10566000000E+00  0.10566000000E+00 0.  1.
     999900   -1    0    0    0    0 -0.00000000000E+00 -0.00000000000E+00 -0.74505805969E-08  0.93827000000E+00  0.93827000000E+00 0.  1.
     999902    2    1    2    0    0 -0.95133400048E-03 -0.39062879545E-02 -0.22745139112E-01  0.10208322626E+01  0.10205709200E+01 0.  0.
     999903    2    3    3    0    0 -0.95018981194E-01  0.90396706798E-02  0.84811569184E-01  0.12921308062E+00  0.19816546176E-01 0.  0.
         14    1    1    2    0    0  0.95133400048E-03  0.39062879545E-02  0.22745139112E-01  0.23097737447E-01  0.00000000000E+00 0.  1.
     999901    1    3    3    0    0  0.94067647193E-01 -0.12945958634E-01 -0.10755670830E+00  0.89161918193E+00  0.88000000000E+00 0.  1.
        -11    1    4    4    0    0 -0.49872124909E-01  0.14210721481E-01  0.49093439704E-01  0.71411486407E-01  0.51100000000E-03 0. -1.
         11    1    4    4    0    0 -0.45146856285E-01 -0.51710508010E-02  0.35718129480E-01  0.57801594211E-01  0.51100000000E-03 0.  1.
</event>
<event>
 7    1  0.1122848E+005  0.1043930E+01  0.7957747E-01            NaN
         13   -1    0    0    0    0  0.00000000000E+00  0.00000000000E+00  0.74505805969E-08  0.10566000000E+00  0.10566000000E+00 0. -1.
     999900   -1    0    0    0    0 -0.00000000000E+00 -0.00000000000E+00 -0.74505805969E-08  0.93827000000E+00  0.93827000000E+00 0.  1.
     999903    2    1    2    0    0 -0.62010134413E-01 -0.30224968315E-01  0.86027893873E-01  0.11201177860E+00  0.19673193458E-01 0.  0.
         14    1    1    2    0    0 -0.20457910652E-01  0.34605785125E-01  0.13636184802E-01  0.42450347564E-01  0.00000000000E+00 0. -1.
     999901    1    1    2    0    0  0.82468045065E-01 -0.43808168099E-02 -0.99664078675E-01  0.88946787384E+00  0.88000000000E+00 0.  1.
        -11    1    3    3    0    0 -0.33104569303E-01 -0.20105473978E-01  0.33529262049E-01  0.51230997718E-01  0.51100000000E-03 0. -1.
         11    1    3    3    0    0 -0.28905565110E-01 -0.10119494337E-01  0.52498631824E-01  0.60780780880E-01  0.51100000000E-03 0.  1.
</event>
<event>
 8    1  0.1122848E+005  0.1043930E+01  0.7957747E-01            NaN
         13   -1    0    0    0    0  0.00000000000E+00  0.00000000000E+00  0.74505805969E-08  0.10566000000E+00  0.10566000000E+00 0. -1.
     999900   -1    0    0    0    0 -0.00000000000E+00 -0.00000000000E+00 -0.74505805969E-08  0.93827000000E+00  0.93827000000E+00 0.  1.
     999902    2    1    2    0    0 -0.78668438430E-02 -0.71486087217E-02 -0.20685463772E-01  0.10206732107E+01  0.10204082147E+01 0.  0.
     999903    2    3    3    0    0 -0.63319469722E-01  0.10356354215E+00  0.41407367506E-01  0.12983781972E+00  0.20212046800E-01 0.  0.
         14    1    1    2    0    0  0.78668438430E-02  0.71486087217E-02  0.20685463772E-01  0.23256789335E-01  0.00000000000E+00 0. -1.
     999901    1    3    3    0    0  0.55452625879E-01 -0.11071215088E+00 -0.62092831278E-01  0.89083539095E+00  0.88000000000E+00 0.  1.
        -11    1    4    4    0    0 -0.18070771931E-01  0.28391591820E-01  0.21863419141E-02  0.33729460360E-01  0.51100000000E-03 0.  1.
         11    1    4    4    0    0 -0.45248697791E-01  0.75171950334E-01  0.39221025591E-01  0.96108359357E-01  0.51100000000E-03 0. -1.
</event>
<event>
 8    1  0.1122848E+005  0.1043930E+01  0.7957747E-01            NaN
         13   -1    0    0    0    0  0.00000000000E+00  0.00000000000E+00  0.74505805969E-08  0.10566000000E+00  0.10566000000E+00 0. -1.
     999900   -1    0    0    0    0 -0.00000000000E+00 -0.00000000000E+00 -0.74505805969E-08  0.93827000000E+00  0.93827000000E+00 0. -1.
     999902    2    1    2    0    0 -0.84746404854E-02 -0.20631555551E-01 -0.78108932661E-02  0.10202975928E+01  0.10200238660E+01 0.  0.
     999903    2    3    3    0    0 -0.48335551760E-01  0.80901201059E-01 -0.86022737770E-01  0.13012070841E+00  0.25498185154E-01 0.  0.
         14    1    1    2    0    0  0.84746404854E-02  0.20631555551E-01  0.78108932661E-02  0.23632407186E-01  0.00000000000E+00 0.  1.
     999901    1    3    3    0    0  0.39860911274E-01 -0.10153275661E+00  0.78211844504E-01  0.89017688441E+00  0.88000000000E+00 0.  1.
        -11    1    4    4    0    0 -0.40319410503E-01  0.48692306318E-01 -0.65804376290E-01  0.91252795123E-01  0.51100000000E-03 0.  1.
         11    1    4    4    0    0 -0.80161412570E-02  0.32208894741E-01 -0.20218361480E-01  0.38867913284E-01  0.51100000000E-03 0. -1.
</event>
<event>
 8    1  0.1122848E+005  0.1043930E+01  0.7957747E-01            NaN
         13   -1    0    0    0    0  0.00000000000E+00  0.00000000000E+00  0.74505805969E-08  0.10566000000E+00  0.10566000000E+00 0. -1.
     999900   -1    0    0    0    0 -0.00000000000E+00 -0.00000000000E+00 -0.74505805969E-08  0.93827000000E+00  0.93827000000E+00 0. -1.
     999902    2    1    2    0    0 -0.20649569949E-01 -0.10363397079E-01  0.38718841755E-02  0.10205035998E+01  0.10202346794E+01 0.  0.
     999903    2    3    3    0    0 -0.25534869664E-01  0.12468976329E+00  0.18393794114E-01  0.13006881381E+00  0.19493538020E-01 0.  0.
         14    1    1    2    0    0  0.20649569949E-01  0.10363397079E-01 -0.38718841755E-02  0.23426400175E-01  0.00000000000E+00 0.  1.
     999901    1    3    3    0    0  0.48852997156E-02 -0.13505316037E+00 -0.14521909938E-01  0.89043478602E+00  0.88000000000E+00 0. -1.
        -11    1    4    4    0    0 -0.45031335532E-02  0.70210866500E-01  0.94917166548E-02  0.70994350427E-01  0.51100000000E-03 0. -1.
         11    1    4    4    0    0 -0.21031736111E-01  0.54478896794E-01  0.89020774587E-02  0.59074463382E-01  0.51100000000E-03 0.  1.
</event>
<event>
 8    1  0.1122848E+005  0.1043930E+01  0.7957747E-01            NaN
         13   -1    0    0    0    0  0.00000000000E+00  0.00000000000E+00  0.74505805969E-08  0.10566000000E+00  0.10566000000E+00 0. -1.
     999900   -1    0    0    0    0 -0.00000000000E+00 -0.00000000000E+00 -0.74505805969E-08  0.93827000000E+00  0.93827000000E+00 0.  1.
     999902    2    1    2    0    0  0.23750244147E-01 -0.27664988779E-02  0.13748253426E-02  0.10199796815E+01  0.10196984519E+01 0.  0.
     999903    2    3    3    0    0  0.88949998630E-01 -0.17884857477E-01 -0.95327332041E-01  0.13215600528E+00  0.12080526273E-01 0.  0.
         14    1    1    2    0    0 -0.23750244147E-01  0.27664988779E-02 -0.13748253426E-02  0.23950318533E-01  0.00000000000E+00 0. -1.
     999901    1    3    3    0    0 -0.65199754483E-01  0.15118358599E-01  0.96702157383E-01  0.88782367618E+00  0.88000000000E+00 0. -1.
        -11    1    4    4    0    0  0.12174836629E-01 -0.60152889849E-02 -0.10874870178E-01  0.17405007064E-01  0.51100000000E-03 0. -1.
         11    1    4    4    0    0  0.76775162001E-01 -0.11869568492E-01 -0.84452461863E-01  0.11475099822E+00  0.51100000000E-03 0.  1.
</event>
<event>
 8    1  0.1122848E+005  0.1043930E+01  0.7957747E-01            NaN
         13   -1    0    0    0    0  0.00000000000E+00  0.00000000000E+00  0.74505805969E-08  0.10566000000E+00  0.10566000000E+00 0. -1.
     999900   -1    0    0    0    0 -0.00000000000E+00 -0.00000000000E+00 -0.74505805969E-08  0.93827000000E+00  0.93827000000E+00 0.  1.
     999902    2    1    2    0    0 -0.51867614812E-02  0.22446373168E-01 -0.53264618307E-02  0.10202844220E+01  0.10200103864E+01 0.  0.
     999903    2    3    3    0    0  0.96324842768E-01 -0.78518878483E-01 -0.25947259328E-01  0.12847513459E+00  0.19720809513E-01 0.  0.
         14    1    1    2    0    0  0.51867614812E-02 -0.22446373168E-01  0.53264618307E-02  0.23645577994E-01  0.00000000000E+00 0.  1.
     999901    1    3    3    0    0 -0.10151160425E+00  0.10096525165E+00  0.20620797497E-01  0.89180928742E+00  0.88000000000E+00 0. -1.
        -11    1    4    4    0    0  0.24135052366E-01 -0.26815449305E-01 -0.42545540843E-03  0.36083392405E-01  0.51100000000E-03 0. -1.
         11    1    4    4    0    0  0.72189790401E-01 -0.51703429179E-01 -0.25521803919E-01  0.92391742181E-01  0.51100000000E-03 0.  1.
</event>
<event>
 8    1  0.1122848E+005  0.1043930E+01  0.7957747E-01            NaN
         13   -1    0    0    0    0  0.00000000000E+00  0.00000000000E+00  0.74505805969E-08  0.10566000000E+00  0.10566000000E+00 0.  1.
     999900   -1    0    0    0    0 -0.00000000000E+00 -0.00000000000E+00 -0.74505805969E-08  0.93827000000E+00  0.93827000000E+00 0. -1.
     999902    2    1    2    0    0  0.21828682221E-01  0.67861243368E-02  0.63984609729E-02  0.10201921999E+01  0.10199159973E+01 0.  0.
     999903    2    3    3    0    0  0.11081381808E+00 -0.60733198714E-01  0.35342130184E-01  0.13265913044E+00  0.19523191813E-01 0.  0.
         14    1    1    2    0    0 -0.21828682221E-01 -0.67861243368E-02 -0.63984609729E-02  0.23737800105E-01  0.00000000000E+00 0.  1.
     999901    1    3    3    0    0 -0.88985135863E-01  0.67519323051E-01 -0.28943669211E-01  0.88753306946E+00  0.88000000000E+00 0. -1.
        -11    1    4    4    0    0  0.18198830045E-01 -0.42856146650E-02  0.40297603816E-03  0.18707950683E-01  0.51100000000E-03 0.  1.
         11    1    4    4    0    0  0.92614988039E-01 -0.56447584049E-01  0.34939154145E-01  0.11395117976E+00  0.51100000000E-03 0. -1.
</event>
<event>
 8    1  0.1122848E+005  0.1043930E+01  0.7957747E-01            NaN
         13   -1    0    0    0    0  0.00000000000E+00  0.00000000000E+00  0.74505805969E-08  0.10566000000E+00  0.10566000000E+00 0.  1.
     999900   -1    0    0    0    0 -0.00000000000E+00 -0.00000000000E+00 -0.74505805969E-08  0.93827000000E+00  0.93827000000E+00 0. -1.
     999902    2    1    2    0    0  0.20000702715E-01  0.89454753402E-04  0.12850744223E-01  0.10201565329E+01  0.10198794899E+01 0.  0.
     999903    2    3    3    0    0  0.99492828491E-02  0.17438214787E-01  0.12920582787E+00  0.13227111461E+00  0.19960516987E-01 0.  0.
         14    1    1    2    0    0 -0.20000702715E-01 -0.89454753402E-04 -0.12850744223E-01  0.23773467108E-01  0.00000000000E+00 0. -1.
     999901    1    3    3    0    0  0.10051419866E-01 -0.17348760033E-01 -0.11635508365E+00  0.88788541829E+00  0.88000000000E+00 0. -1.
        -11    1    4    4    0    0  0.11629524225E-01  0.20681972798E-01  0.97291758275E-01  0.10014458139E+00  0.51100000000E-03 0. -1.
         11    1    4    4    0    0 -0.16802413757E-02 -0.32437580117E-02  0.31914069598E-01  0.32126533215E-01  0.51100000000E-03 0.  1.
</event>
<event>
 8    1  0.1122848E+005  0.1043930E+01  0.7957747E-01            NaN
         13   -1    0    0    0    0  0.00000000000E+00  0.00000000000E+00  0.74505805969E-08  0.10566000000E+00  0.10566000000E+00 0. -1.
     999900   -1    0    0    0    0 -0.00000000000E+00 -0.00000000000E+00 -0.74505805969E-08  0.93827000000E+00  0.93827000000E+00 0.  1.
     999902    2    1    2    0    0 -0.17971129469E-01 -0.78735660959E-02 -0.12709076352E-01  0.10205531919E+01  0.10202854219E+01 0.  0.
     999903    2    3    3    0    0  0.10695942369E+00  0.38263110228E-01  0.55151155937E-01  0.12794955801E+00  0.20616873508E-01 0.  0.
         14    1    1    2    0    0  0.17971129469E-01  0.78735660959E-02  0.12709076352E-01  0.23376808148E-01  0.00000000000E+00 0.  1.
     999901    1    3    3    0    0 -0.12493055316E+00 -0.46136676324E-01 -0.67860232289E-01  0.89260363384E+00  0.88000000000E+00 0.  1.
        -11    1    4    4    0    0  0.70741408570E-01  0.35217993026E-01  0.35562492061E-01  0.86657982217E-01  0.51100000000E-03 0. -1.
         11    1    4    4    0    0  0.36218015124E-01  0.30451172018E-02  0.19588663876E-01  0.41291575796E-01  0.51100000000E-03 0.  1.
</event>
<event>
 8    1  0.1122848E+005  0.1043930E+01  0.7957747E-01            NaN
         13   -1    0    0    0    0  0.00000000000E+00  0.00000000000E+00  0.74505805969E-08  0.10566000000E+00  0.10566000000E+00 0. -1.
     999900   -1    0    0    0    0 -0.00000000000E+00 -0.00000000000E+00 -0.74505805969E-08  0.93827000000E+00  0.93827000000E+00 0. -1.
     999902    2    1    2    0    0  0.19440636889E-01 -0.72681036462E-02 -0.10734977531E-01  0.10205632836E+01  0.10202957475E+01 0.  0.
     999903    2    3    3    0    0  0.24300750092E-01  0.10253012175E+00 -0.76158732557E-01  0.13131667059E+00  0.18465186453E-01 0.  0.
         14    1    1    2    0    0 -0.19440636889E-01  0.72681036462E-02  0.10734977531E-01  0.23366716411E-01  0.00000000000E+00 0. -1.
     999901    1    3    3    0    0 -0.48601132036E-02 -0.10979822539E+00  0.65423755027E-01  0.88924661299E+00  0.88000000000E+00 0.  1.
        -11    1    4    4    0    0  0.11871466515E-02  0.78670625334E-02 -0.12815298588E-01  0.15092812494E-01  0.51100000000E-03 0. -1.
         11    1    4    4    0    0  0.23113603441E-01  0.94663059214E-01 -0.63343433969E-01  0.11622385810E+00  0.51100000000E-03 0.  1.
</event>
<event>
 8    1  0.1122848E+005  0.1043930E+01  0.7957747E-01            NaN
         13   -1    0    0    0    0  0.00000000000E+00  0.00000000000E+00  0.74505805969E-08  0.10566000000E+00  0.10566000000E+00 0. -1.
     999900   -1    0    0    0    0 -0.00000000000E+00 -0.00000000000E+00 -0.74505805969E-08  0.93827000000E+00  0.93827000000E+00 0.  1.
     999902    2    1    2    0    0 -0.19595768633E-01  0.15329429117E-01  0.15301231562E-01  0.10147218978E+01  0.10143014427E+01 0.  0.
     999903    2    3    3    0    0 -0.53851493698E-01 -0.10560127310E+00 -0.33102715268E-01  0.12447438645E+00  0.18613728017E-01 0.  0.
         14    1    1    2    0    0  0.19595768633E-01 -0.15329429117E-01 -0.15301231562E-01  0.29208102176E-01  0.00000000000E+00 0.  1.
     999901    1    3    3    0    0  0.34255725065E-01  0.12093070222E+00  0.48403946830E-01  0.89024751137E+00  0.88000000000E+00 0. -1.
        -11    1    4    4    0    0 -0.52647440014E-01 -0.98122095762E-01 -0.34854064343E-01  0.11668232745E+00  0.51100000000E-03 0. -1.
         11    1    4    4    0    0 -0.12040536836E-02 -0.74791773365E-02  0.17513490746E-02  0.77920590016E-02  0.51100000000E-03 0.  1.
</event>
<event>
 7    1  0.1122848E+005  0.1043930E+01  0.7957747E-01            NaN
         13   -1    0    0    0    0  0.00000000000E+00  0.00000000000E+00  0.74505805969E-08  0.10566000000E+00  0.10566000000E+00 0. -1.
     999900   -1    0    0    0    0 -0.00000000000E+00 -0.00000000000E+00 -0.74505805969E-08  0.93827000000E+00  0.93827000000E+00 0. -1.
     999903    2    1    2    0    0  0.56359005955E-01 -0.68933683771E-01  0.14723113701E-01  0.92614588417E-01  0.20796672813E-01 0.  0.
         14    1    1    2    0    0 -0.53464921819E-01 -0.32975240157E-01  0.16265014418E-01  0.64887710875E-01  0.00000000000E+00 0. -1.
     999901    1    1    2    0    0 -0.28940841356E-02  0.10190892393E+00 -0.30988128119E-01  0.88642770071E+00  0.88000000000E+00 0. -1.
        -11    1    3    3    0    0  0.10164224785E-01 -0.20559106682E-01 -0.36928011354E-02  0.23235452099E-01  0.51100000000E-03 0.  1.
         11    1    3    3    0    0  0.46194781170E-01 -0.48374577089E-01  0.18415914836E-01  0.69379136317E-01  0.51100000000E-03 0. -1.
</event>
<event>
 8    1  0.1122848E+005  0.1043930E+01  0.7957747E-01            NaN
         13   -1    0    0    0    0  0.00000000000E+00  0.00000000000E+00  0.74505805969E-08  0.10566000000E+00  0.10566000000E+00 0. -1.
     999900   -1    0    0    0    0 -0.00000000000E+00 -0.00000000000E+00 -0.74505805969E-08  0.93827000000E+00  0.93827000000E+00 0. -1.
     999902    2    1    2    0    0 -0.18098751211E-01 -0.13884443562E-01  0.57432147607E-02  0.10204070945E+01  0.10201359279E+01 0.  0.
     999903    2    3    3    0    0 -0.14878617293E-01 -0.12969184885E+00  0.12588950461E-01  0.13278747523E+00  0.20801033440E-01 0.  0.
         14    1    1    2    0    0  0.18098751211E-01  0.13884443562E-01 -0.57432147607E-02  0.23522905523E-01  0.00000000000E+00 0. -1.
     999901    1    3    3    0    0 -0.32201339189E-02  0.11580740529E+00 -0.68457357006E-02  0.88761961925E+00  0.88000000000E+00 0. -1.
        -11    1    4    4    0    0 -0.68988678778E-02 -0.10963786661E-01  0.35846551440E-02  0.13450273954E-01  0.51100000000E-03 0. -1.
         11    1    4    4    0    0 -0.79797494147E-02 -0.11872806219E+00  0.90042953173E-02  0.11933720127E+00  0.51100000000E-03 0.  1.
</event>
<event>
 8    1  0.1122848E+005  0.1043930E+01  0.7957747E-01            NaN
         13   -1    0    0    0    0  0.00000000000E+00  0.00000000000E+00  0.74505805969E-08  0.10566000000E+00  0.10566000000E+00 0.  1.
     999900   -1    0    0    0    0 -0.00000000000E+00 -0.00000000000E+00 -0.74505805969E-08  0.93827000000E+00  0.93827000000E+00 0. -1.
     999902    2    1    2    0    0 -0.78310990528E-03  0.69579474290E-02  0.21722859937E-01  0.10211065704E+01  0.10208514678E+01 0.  0.
     999903    2    3    3    0    0  0.10399527825E+00 -0.75848603104E-01  0.13469042335E-01  0.13099221770E+00  0.20236538828E-01 0.  0.
         14    1    1    2    0    0  0.78310990528E-03 -0.69579474290E-02 -0.21722859937E-01  0.22823429571E-01  0.00000000000E+00 0. -1.
     999901    1    3    3    0    0 -0.10477838816E+00  0.82806550533E-01  0.82538176018E-02  0.89011435273E+00  0.88000000000E+00 0.  1.
        -11    1    4    4    0    0  0.54499254570E-01 -0.28226719165E-01  0.24470930555E-02  0.61426100389E-01  0.51100000000E-03 0.  1.
         11    1    4    4    0    0  0.49496023683E-01 -0.47621883938E-01  0.11021949280E-01  0.69566117307E-01  0.51100000000E-03 0. -1.
</event>
<event>
 8    1  0.1122848E+005  0.1043930E+01  0.7957747E-01            NaN
         13   -1    0    0    0    0  0.00000000000E+00  0.00000000000E+00  0.74505805969E-08  0.10566000000E+00  0.10566000000E+00 0.  1.
     999900   -1    0    0    0    0 -0.00000000000E+00 -0.00000000000E+00 -0.74505805969E-08  0.93827000000E+00  0.93827000000E+00 0.  1.
     999902    2    1    2    0    0  0.12231563397E-01 -0.14483018864E-02  0.20900645427E-01  0.10196700391E+01  0.10193814021E+01 0.  0.
     999903    2    3    3    0    0  0.26869953846E-01  0.92248652064E-01 -0.83153979262E-01  0.12847939367E+00  0.18988472926E-01 0.  0.
         14    1    1    2    0    0 -0.12231563397E-01  0.14483018864E-02 -0.20900645427E-01  0.24259960857E-01  0.00000000000E+00 0. -1.
     999901    1    3    3    0    0 -0.14638390449E-01 -0.93696953951E-01  0.10405462469E+00  0.89119064547E+00  0.88000000000E+00 0. -1.
        -11    1    4    4    0    0  0.39865691620E-02  0.41121684583E-01 -0.42431432842E-01  0.59224769232E-01  0.51100000000E-03 0. -1.
         11    1    4    4    0    0  0.22883384684E-01  0.51126967481E-01 -0.40722546420E-01  0.69254624440E-01  0.51100000000E-03 0.  1.
</event>
<event>
 8    1  0.1122848E+005  0.1043930E+01  0.7957747E-01            NaN
         13   -1    0    0    0    0  0.00000000000E+00  0.00000000000E+00  0.74505805969E-08  0.10566000000E+00  0.10566000000E+00 0. -1.
     999900   -1    0    0    0    0 -0.00000000000E+00 -0.00000000000E+00 -0.74505805969E-08  0.93827000000E+00  0.93827000000E+00 0. -1.
     999902    2    1    2    0    0  0.74296818202E-02  0.30446857680E-02 -0.19408902216E-01  0.10229258154E+01  0.10227101486E+01 0.  0.
     999903    2    3    3    0    0  0.10545769303E+00  0.67288421012E-01  0.40663513738E-01  0.13312502670E+00  0.20486453167E-01 0.  0.
         14    1    1    2    0    0 -0.74296818202E-02 -0.30446857680E-02  0.19408902216E-01  0.21004184550E-01  0.00000000000E+00 0. -1.
     999901    1    3    3    0    0 -0.98028011209E-01 -0.64243735244E-01 -0.60072415954E-01  0.88980078875E+00  0.88000000000E+00 0. -1.
        -11    1    4    4    0    0  0.59111310651E-01  0.40041445392E-01  0.33562503293E-01  0.78893391004E-01  0.51100000000E-03 0. -1.
         11    1    4    4    0    0  0.46346382378E-01  0.27246975619E-01  0.71010104455E-02  0.54231635696E-01  0.51100000000E-03 0.  1.
</event>
<event>
 7    1  0.1122848E+005  0.1043930E+01  0.7957747E-01            NaN
         13   -1    0    0    0    0  0.00000000000E+00  0.00000000000E+00  0.74505805969E-08  0.10566000000E+00  0.10566000000E+00 0. -1.
     999900   -1    0    0    0    0 -0.00000000000E+00 -0.00000000000E+00 -0.74505805969E-08  0.93827000000E+00  0.93827000000E+00 0.  1.
     999903    2    1    2    0    0 -0.74394960513E-01 -0.12379998133E+00 -0.74379779583E-02  0.14593590655E+00  0.19517166226E-01 0.  0.
         14    1    1    2    0    0 -0.23033064105E-02 -0.33246796260E-02  0.38004363384E-02  0.55499577835E-02  0.00000000000E+00 0.  1.
     999901    1    1    2    0    0  0.76698266924E-01  0.12712466096E+00  0.36375416200E-02  0.89244413566E+00  0.88000000000E+00 0.  1.
        -11    1    3    3    0    0 -0.27336789605E-01 -0.60535862554E-01  0.24540671526E-02  0.66469348482E-01  0.51100000000E-03 0. -1.
         11    1    3    3    0    0 -0.47058170908E-01 -0.63264118778E-01 -0.98920451109E-02  0.79466558070E-01  0.51100000000E-03 0.  1.
</event>
<event>
 8    1  0.1122848E+005  0.1043930E+01  0.7957747E-01            NaN
         13   -1    0    0    0    0  0.00000000000E+00  0.00000000000E+00  0.74505805969E-08  0.10566000000E+00  0.10566000000E+00 0. -1.
     999900   -1    0    0    0    0 -0.00000000000E+00 -0.00000000000E+00 -0.74505805969E-08  0.93827000000E+00  0.93827000000E+00 0. -1.
     999902    2    1    2    0    0  0.11612953932E-01 -0.56439611280E-02 -0.20488878710E-01  0.10197120491E+01  0.10194244228E+01 0.  0.
     999903    2    3    3    0    0 -0.86205574598E-01 -0.15059419012E-01  0.90272060988E-01  0.12734155363E+00  0.20214823621E-01 0.  0.
         14    1    1    2    0    0 -0.11612953932E-01  0.56439611280E-02  0.20488878710E-01  0.24217950926E-01  0.00000000000E+00 0. -1.
     999901    1    3    3    0    0  0.97818528529E-01  0.94154578835E-02 -0.11076093970E+00  0.89237049544E+00  0.88000000000E+00 0.  1.
        -11    1    4    4    0    0 -0.58169160917E-01 -0.13114731583E-01  0.73355008562E-01  0.94534998114E-01  0.51100000000E-03 0.  1.
         11    1    4    4    0    0 -0.28036413680E-01 -0.19446874281E-02  0.16917052426E-01  0.32806555519E-01  0.51100000000E-03 0. -1.
</event>
<event>
 8    1  0.1122848E+005  0.1043930E+01  0.7957747E-01            NaN
         13   -1    0    0    0    0  0.00000000000E+00  0.00000000000E+00  0.74505805969E-08  0.10566000000E+00  0.10566000000E+00 0. -1.
     999900   -1    0    0    0    0 -0.00000000000E+00 -0.00000000000E+00 -0.74505805969E-08  0.93827000000E+00  0.93827000000E+00 0. -1.
     999902    2    1    2    0    0  0.76215768802E-02  0.17344294146E-01 -0.12680883975E-01  0.10211326802E+01  0.10208781674E+01 0.  0.
     999903    2    3    3    0    0 -0.17551581014E-01 -0.30586212654E-01 -0.12586245139E+00  0.13223387345E+00  0.20021643752E-01 0.  0.
         14    1    1    2    0    0 -0.76215768802E-02 -0.17344294146E-01  0.12680883975E-01  0.22797319841E-01  0.00000000000E+00 0. -1.
     999901    1    3    3    0    0  0.25173157894E-01  0.47930506800E-01  0.11318156741E+00  0.88889880671E+00  0.88000000000E+00 0.  1.
        -11    1    4    4    0    0 -0.20923352897E-01 -0.20634998656E-01 -0.10211938519E+00  0.10626485693E+00  0.51100000000E-03 0. -1.
         11    1    4    4    0    0  0.33717718830E-02 -0.99512139979E-02 -0.23743066198E-01  0.25969016523E-01  0.51100000000E-03 0.  1.
</event>
<event>
 8    1  0.1122848E+005  0.1043930E+01  0.7957747E-01            NaN
         13   -1    0    0    0    0  0.00000000000E+00  0.00000000000E+00  0.74505805969E-08  0.10566000000E+00  0.10566000000E+00 0. -1.
     999900   -1    0    0    0    0 -0.00000000000E+00 -0.00000000000E+00 -0.74505805969E-08  0.93827000000E+00  0.93827000000E+00 0. -1.
     999902    2    1    2    0    0  0.22538289251E-01 -0.11894476139E-01 -0.11410465115E-02  0.10184200993E+01  0.10181005568E+01 0.  0.
     999903    2    3    3    0    0  0.12202503812E+00  0.16347037587E-01 -0.42420776025E-01  0.13140306885E+00  0.17604223861E-01 0.  0.
         14    1    1    2    0    0 -0.22538289251E-01  0.11894476139E-01  0.11410465115E-02  0.25509900669E-01  0.00000000000E+00 0.  1.
     999901    1    3    3    0    0 -0.99486748870E-01 -0.28241513726E-01  0.41279729513E-01  0.88701703048E+00  0.88000000000E+00 0.  1.
        -11    1    4    4    0    0  0.77898325528E-01  0.66733577818E-02 -0.18759360142E-01  0.80404337807E-01  0.51100000000E-03 0.  1.
         11    1    4    4    0    0  0.44126712593E-01  0.96736798052E-02 -0.23661415883E-01  0.50998731041E-01  0.51100000000E-03 0. -1.
</event>
<event>
 8    1  0.1122848E+005  0.1043930E+01  0.7957747E-01            NaN
         13   -1    0    0    0    0  0.00000000000E+00  0.00000000000E+00  0.74505805969E-08  0.10566000000E+00  0.10566000000E+00 0.  1.
     999900   -1    0    0    0    0 -0.00000000000E+00 -0.00000000000E+00 -0.74505805969E-08  0.93827000000E+00  0.93827000000E+00 0. -1.
     999902    2    1    2    0    0 -0.43224741853E-02 -0.94324879585E-02 -0.20846952533E-01  0.10206437156E+01  0.10203780393E+01 0.  0.
     999903    2    3    3    0    0  0.20175017537E-01 -0.88184862543E-01 -0.96232925547E-01  0.13357826786E+00  0.19969385871E-01 0.  0.
         14    1    1    2    0    0  0.43224741853E-02  0.94324879585E-02  0.20846952533E-01  0.23286284420E-01  0.00000000000E+00 0.  1.
     999901    1    3    3    0    0 -0.24497491723E-01  0.78752374584E-01  0.75385973014E-01  0.88706544772E+00  0.88000000000E+00 0.  1.
        -11    1    4    4    0    0  0.16815327611E-01 -0.45556223139E-01 -0.62273069047E-01  0.78970380263E-01  0.51100000000E-03 0. -1.
         11    1    4    4    0    0  0.33596899265E-02 -0.42628639404E-01 -0.33959856500E-01  0.54607887602E-01  0.51100000000E-03 0.  1.
</event>
<event>
 8    1  0.1122848E+005  0.1043930E+01  0.7957747E-01            NaN
         13   -1    0    0    0    0  0.00000000000E+00  0.00000000000E+00  0.74505805969E-08  0.10566000000E+00  0.10566000000E+00 0.  1.
     999900   -1    0    0    0    0 -0.00000000000E+00 -0.00000000000E+00 -0.74505805969E-08  0.93827000000E+00  0.93827000000E+00 0.  1.
     999902    2    1    2    0    0 -0.47466570487E-02 -0.16589847936E-01  0.17087819998E-01  0.10196452846E+01  0.10193560512E+01 0.  0.
     999903    2    3    3    0    0 -0.45641290811E-01 -0.41522729066E-01  0.11554625830E+00  0.13286003234E+00  0.22216793868E-01 0.  0.
         14    1    1    2    0    0  0.47466570487E-02  0.16589847936E-01 -0.17087819998E-01  0.24284715357E-01  0.00000000000E+00 0. -1.
     999901    1    3    3    0    0  0.40894633762E-01  0.24932881130E-01 -0.98458438303E-01  0.88678525230E+00  0.88000000000E+00 0.  1.
        -11    1    4    4    0    0 -0.21232360656E-01 -0.11646246033E-01  0.26999692598E-01  0.36272478646E-01  0.51100000000E-03 0.  1.
         11    1    4    4    0    0 -0.24408930155E-01 -0.29876483033E-01  0.88546565702E-01  0.96587553693E-01  0.51100000000E-03 0. -1.
</event>
<event>
 8    1  0.1122848E+005  0.1043930E+01  0.7957747E-01            NaN
         13   -1    0    0    0    0  0.00000000000E+00  0.00000000000E+00  0.74505805969E-08  0.10566000000E+00  0.10566000000E+00 0. -1.
     999900   -1    0    0    0    0 -0.00000000000E+00 -0.00000000000E+00 -0.74505805969E-08  0.93827000000E+00  0.93827000000E+00 0.  1.
     999902    2    1    2    0    0  0.63157519996E-02 -0.17288373135E-01  0.15022964481E-01  0.10201715061E+01  0.10198948161E+01 0.  0.
     999903    2    3    3    0    0 -0.10937250516E+00 -0.38388304391E-02  0.68882226762E-01  0.13086532535E+00  0.20097032404E-01 0.  0.
         14    1    1    2    0    0 -0.63157519996E-02  0.17288373135E-01 -0.15022964481E-01  0.23758493865E-01  0.00000000000E+00 0.  1.
     999901    1    3    3    0    0  0.11568825716E+00 -0.13449542695E-01 -0.53859262281E-01  0.88930618078E+00  0.88000000000E+00 0.  1.
        -11    1    4    4    0    0 -0.69405671609E-01 -0.56568450338E-02  0.32752190646E-01  0.76955274415E-01  0.51100000000E-03 0.  1.
         11    1    4    4    0    0 -0.39966833553E-01  0.18180145947E-02  0.36130036116E-01  0.53910050938E-01  0.51100000000E-03 0. -1.
</event>
<event>
 8    1  0.1122848E+005  0.1043930E+01  0.7957747E-01            NaN
         13   -1    0    0    0    0  0.00000000000E+00  0.00000000000E+00  0.74505805969E-08  0.10566000000E+00  0.10566000000E+00 0. -1.
     999900   -1    0    0    0    0 -0.00000000000E+00 -0.00000000000E+00 -0.74505805969E-08  0.93827000000E+00  0.93827000000E+00 0.  1.
     999902    2    1    2    0    0 -0.11273922979E-01 -0.20596698538E-01 -0.69345835262E-03  0.10204394441E+01  0.10201690316E+01 0.  0.
     999903    2    3    3    0    0  0.77288533547E-03 -0.81684691288E-01 -0.10228178939E+00  0.13240956995E+00  0.19943511015E-01 0.  0.
         14    1    1    2    0    0  0.11273922979E-01  0.20596698538E-01  0.69345835262E-03  0.23490555858E-01  0.00000000000E+00 0. -1.
     999901    1    3    3    0    0 -0.12046808315E-01  0.61087992750E-01  0.10158833104E+00  0.88802987419E+00  0.88000000000E+00 0. -1.
        -11    1    4    4    0    0 -0.43592680358E-02 -0.46627901982E-02 -0.44874120318E-02  0.78193873151E-02  0.51100000000E-03 0. -1.
         11    1    4    4    0    0  0.51321533713E-02 -0.77021901090E-01 -0.97794377359E-01  0.12459018264E+00  0.51100000000E-03 0.  1.
</event>
<event>
 8    1  0.1285669E+005  0.1043930E+01  0.7957747E-01            NaN
         13   -1    0    0    0    0  0.00000000000E+00  0.00000000000E+00  0.74505805969E-08  0.10566000000E+00  0.10566000000E+00 0. -1.
     999900   -1    0    0    0    0 -0.00000000000E+00 -0.00000000000E+00 -0.74505805969E-08  0.93827000000E+00  0.93827000000E+00 0. -1.
     999902    2    1    2    0    0  0.21255136728E-01 -0.40139904748E-02 -0.95786493353E-02  0.10202732149E+01  0.10199989165E+01 0.  0.
     999903    2    3    3    0    0 -0.12348206006E-01 -0.76812290479E-01 -0.10511236222E+00  0.13147882508E+00  0.13618612019E-01 0.  0.
         14    1    1    2    0    0 -0.21255136728E-01  0.40139904748E-02  0.95786493353E-02  0.23656785072E-01  0.00000000000E+00 0. -1.
     999901    1    3    3    0    0  0.33603342735E-01  0.72798300004E-01  0.95533712882E-01  0.88879438985E+00  0.88000000000E+00 0.  1.
        -11    1    4    4    0    0  0.12504296506E-02 -0.29887561244E-01 -0.44584386617E-01  0.53692257751E-01  0.51100000000E-03 0. -1.
         11    1    4    4    0    0 -0.13598635657E-01 -0.46924729236E-01 -0.60527975601E-01  0.77786567330E-01  0.51100000000E-03 0.  1.
</event>
<event>
 8    1  0.1122848E+005  0.1043930E+01  0.7957747E-01            NaN
         13   -1    0    0    0    0  0.00000000000E+00  0.00000000000E+00  0.74505805969E-08  0.10566000000E+00  0.10566000000E+00 0.  1.
     999900   -1    0    0    0    0 -0.00000000000E+00 -0.00000000000E+00 -0.74505805969E-08  0.93827000000E+00  0.93827000000E+00 0.  1.
     999902    2    1    2    0    0 -0.21013828572E-01  0.14216518619E-02  0.98295082609E-02  0.10206873384E+01  0.10204226680E+01 0.  0.
     999903    2    3    3    0    0  0.92094093528E-01 -0.83887164769E-01  0.27936733677E-01  0.12917240985E+00  0.19663974700E-01 0.  0.
         14    1    1    2    0    0  0.21013828572E-01 -0.14216518619E-02 -0.98295082609E-02  0.23242661593E-01  0.00000000000E+00 0. -1.
     999901    1    3    3    0    0 -0.11310792210E+00  0.85308816631E-01 -0.18107225416E-01  0.89151492856E+00  0.88000000000E+00 0.  1.
        -11    1    4    4    0    0  0.24459426930E-01 -0.11458955282E-01  0.62064230881E-02  0.27719163596E-01  0.51100000000E-03 0.  1.
         11    1    4    4    0    0  0.67634666598E-01 -0.72428209486E-01  0.21730310589E-01  0.10145324625E+00  0.51100000000E-03 0. -1.
</event>
<event>
 8    1  0.1122848E+005  0.1043930E+01  0.7957747E-01            NaN
         13   -1    0    0    0    0  0.00000000000E+00  0.00000000000E+00  0.74505805969E-08  0.10566000000E+00  0.10566000000E+00 0. -1.
     999900   -1    0    0    0    0 -0.00000000000E+00 -0.00000000000E+00 -0.74505805969E-08  0.93827000000E+00  0.93827000000E+00 0. -1.
     999902    2    1    2    0    0  0.22176843815E-01 -0.44301090235E-02 -0.72623278843E-02  0.10201775333E+01  0.10199009853E+01 0.  0.
     999903    2    3    3    0    0  0.23692468591E-01 -0.12745009776E+00  0.76543957392E-02  0.13149383064E+00  0.20668266357E-01 0.  0.
         14    1    1    2    0    0 -0.22176843815E-01  0.44301090235E-02  0.72623278843E-02  0.23752466690E-01  0.00000000000E+00 0.  1.
     999901    1    3    3    0    0 -0.15156247759E-02  0.12301998874E+00 -0.14916723623E-01  0.88868370267E+00  0.88000000000E+00 0. -1.
        -11    1    4    4    0    0  0.16346953294E-01 -0.86916812735E-01  0.14830071634E-01  0.89676905409E-01  0.51100000000E-03 0. -1.
         11    1    4    4    0    0  0.73455152978E-02 -0.40533285028E-01 -0.71756758953E-02  0.41816925230E-01  0.51100000000E-03 0.  1.
</event>
<event>
 8    1  0.1122848E+005  0.1043930E+01  0.7957747E-01            NaN
         13   -1    0    0    0    0  0.00000000000E+00  0.00000000000E+00  0.74505805969E-08  0.10566000000E+00  0.10566000000E+00 0.  1.
     999900   -1    0    0    0    0 -0.00000000000E+00 -0.00000000000E+00 -0.74505805969E-08  0.93827000000E+00  0.93827000000E+00 0. -1.
     999902    2    1    2    0    0  0.25807110285E-01  0.34565016872E-03 -0.27665165897E-02  0.10179727269E+01  0.10176417310E+01 0.  0.
     999903    2    3    3    0    0 -0.92050505465E-01 -0.77904040665E-01  0.30568889528E-01  0.12605082388E+00  0.20298228605E-01 0.  0.
         14    1    1    2    0    0 -0.25807110285E-01 -0.34565016872E-03  0.27665165897E-02  0.25957273149E-01  0.00000000000E+00 0. -1.
     999901    1    3    3    0    0  0.11785761575E+00  0.78249690833E-01 -0.33335406117E-01  0.89192190298E+00  0.88000000000E+00 0. -1.
        -11    1    4    4    0    0 -0.42085871100E-01 -0.24679405293E-01  0.67284382457E-02  0.49252681086E-01  0.51100000000E-03 0.  1.
         11    1    4    4    0    0 -0.49964634364E-01 -0.53224635372E-01  0.23840451282E-01  0.76798142790E-01  0.51100000000E-03 0. -1.
</event>
<event>
 8    1  0.1122848E+005  0.1043930E+01  0.7957747E-01            NaN
         13   -1    0    0    0    0  0.00000000000E+00  0.00000000000E+00  0.74505805969E-08  0.10566000000E+00  0.10566000000E+00 0.  1.
     999900   -1    0    0    0    0 -0.00000000000E+00 -0.00000000000E+00 -0.74505805969E-08  0.93827000000E+00  0.93827000000E+00 0. -1.
     999902    2    1    2    0    0 -0.26769150795E-02  0.22330259023E-01 -0.23242962795E-02  0.10213200753E+01  0.10210697760E+01 0.  0.
     999903    2    3    3    0    0  0.97182562340E-01  0.15285765988E-01  0.84783717387E-01  0.13137100587E+00  0.19797913631E-01 0.  0.
         14    1    1    2    0    0  0.26769150795E-02 -0.22330259023E-01  0.23242962795E-02  0.22609924714E-01  0.00000000000E+00 0.  1.
     999901    1    3    3    0    0 -0.99859477419E-01  0.70444930355E-02 -0.87108013666E-01  0.88994906942E+00  0.88000000000E+00 0. -1.
        -11    1    4    4    0    0  0.39980572260E-01  0.97893868675E-02  0.23683832625E-01  0.47491718249E-01  0.51100000000E-03 0.  1.
         11    1    4    4    0    0  0.57201990080E-01  0.54963791203E-02  0.61099884762E-01  0.83879287619E-01  0.51100000000E-03 0. -1.
</event>
<event>
 8    1  0.1122848E+005  0.1043930E+01  0.7957747E-01            NaN
         13   -1    0    0    0    0  0.00000000000E+00  0.00000000000E+00  0.74505805969E-08  0.10566000000E+00  0.10566000000E+00 0.  1.
     999900   -1    0    0    0    0 -0.00000000000E+00 -0.00000000000E+00 -0.74505805969E-08  0.93827000000E+00  0.93827000000E+00 0.  1.
     999902    2    1    2    0    0  0.49163955990E-02  0.23446938275E-01 -0.34553088257E-02  0.10197252687E+01  0.10194379601E+01 0.  0.
     999903    2    3    3    0    0 -0.39733452938E-01  0.10136980791E+00 -0.73097177245E-01  0.13241722045E+00  0.18344964234E-01 0.  0.
         14    1    1    2    0    0 -0.49163955990E-02 -0.23446938275E-01  0.34553088257E-02  0.24204731339E-01  0.00000000000E+00 0. -1.
     999901    1    3    3    0    0  0.44649848537E-01 -0.77922869631E-01  0.69641868419E-01  0.88730804821E+00  0.88000000000E+00 0. -1.
        -11    1    4    4    0    0 -0.30528372063E-01  0.63309856779E-01 -0.38382255157E-01  0.80084818150E-01  0.51100000000E-03 0.  1.
         11    1    4    4    0    0 -0.92050808745E-02  0.38059951127E-01 -0.34714922088E-01  0.52332402298E-01  0.51100000000E-03 0. -1.
</event>
<event>
 8    1  0.1122848E+005  0.1043930E+01  0.7957747E-01            NaN
         13   -1    0    0    0    0  0.00000000000E+00  0.00000000000E+00  0.74505805969E-08  0.10566000000E+00  0.10566000000E+00 0.  1.
     999900   -1    0    0    0    0 -0.00000000000E+00 -0.00000000000E+00 -0.74505805969E-08  0.93827000000E+00  0.93827000000E+00 0.  1.
     999902    2    1    2    0    0 -0.16262880352E-01  0.38972072179E-02  0.17504534804E-01  0.10197209471E+01  0.10194335348E+01 0.  0.
     999903    2    3    3    0    0  0.55880199101E-01  0.36479726161E-01 -0.10724196168E+00  0.12740489728E+00  0.16667406380E-01 0.  0.
         14    1    1    2    0    0  0.16262880352E-01 -0.38972072179E-02 -0.17504534804E-01  0.24209052856E-01  0.00000000000E+00 0. -1.
     999901    1    3    3    0    0 -0.72143079453E-01 -0.32582518943E-01  0.12474649648E+00  0.89231604986E+00  0.88000000000E+00 0.  1.
        -11    1    4    4    0    0  0.23290717962E-01  0.15765031306E-01 -0.30484138724E-01  0.41479363423E-01  0.51100000000E-03 0. -1.
         11    1    4    4    0    0  0.32589481138E-01  0.20714694855E-01 -0.76757822953E-01  0.85925533861E-01  0.51100000000E-03 0.  1.
</event>
<event>
 8    1  0.1122848E+005  0.1043930E+01  0.7957747E-01            NaN
         13   -1    0    0    0    0  0.00000000000E+00  0.00000000000E+00  0.74505805969E-08  0.10566000000E+00  0.10566000000E+00 0.  1.
     999900   -1    0    0    0    0 -0.00000000000E+00 -0.00000000000E+00 -0.74505805969E-08  0.93827000000E+00  0.93827000000E+00 0. -1.
     999902    2    1    2    0    0  0.85250330049E-02  0.21644791155E-01  0.50137446534E-02  0.10201327143E+01  0.10198551093E+01 0.  0.
     999903    2    3    3    0    0  0.11129232009E+00  0.29841408333E-01  0.61935901959E-01  0.13228789011E+00  0.19686029470E-01 0.  0.
         14    1    1    2    0    0 -0.85250330049E-02 -0.21644791155E-01 -0.50137446534E-02  0.23797285713E-01  0.00000000000E+00 0. -1.
     999901    1    3    3    0    0 -0.10276728708E+00 -0.81966171779E-02 -0.56922157305E-01  0.88784482418E+00  0.88000000000E+00 0. -1.
        -11    1    4    4    0    0  0.21780928996E-01  0.10610272447E-01  0.58848961660E-02  0.24937519388E-01  0.51100000000E-03 0. -1.
         11    1    4    4    0    0  0.89511391091E-01  0.19231135886E-01  0.56051005793E-01  0.10735037072E+00  0.51100000000E-03 0.  1.
</event>
<event>
 8    1  0.1122848E+005  0.1043930E+01  0.7957747E-01            NaN
         13   -1    0    0    0    0  0.00000000000E+00  0.00000000000E+00  0.74505805969E-08  0.10566000000E+00  0.10566000000E+00 0. -1.
     999900   -1    0    0    0    0 -0.00000000000E+00 -0.00000000000E+00 -0.74505805969E-08  0.93827000000E+00  0.93827000000E+00 0.  1.
     999902    2    1    2    0    0  0.15677845701E-01  0.18764789403E-01 -0.15035018387E-02  0.10194315779E+01  0.10191371691E+01 0.  0.
     999903    2    3    3    0    0 -0.10267815265E+00  0.58646156100E-01  0.47815375472E-01  0.12924563249E+00  0.20879385289E-01 0.  0.
         14    1    1    2    0    0 -0.15677845701E-01 -0.18764789403E-01  0.15035018387E-02  0.24498422091E-01  0.00000000000E+00 0.  1.
     999901    1    3    3    0    0  0.11835599835E+00 -0.39881366696E-01 -0.49318877311E-01  0.89018594542E+00  0.88000000000E+00 0. -1.
        -11    1    4    4    0    0 -0.98438334940E-01  0.50296977575E-01  0.42269761143E-01  0.11835068892E+00  0.51100000000E-03 0. -1.
         11    1    4    4    0    0 -0.42398177107E-02  0.83491785245E-02  0.55456143289E-02  0.10894943577E-01  0.51100000000E-03 0.  1.
</event>
<event>
 8    1  0.1122848E+005  0.1043930E+01  0.7957747E-01            NaN
         13   -1    0    0    0    0  0.00000000000E+00  0.00000000000E+00  0.74505805969E-08  0.10566000000E+00  0.10566000000E+00 0.  1.
     999900   -1    0    0    0    0 -0.00000000000E+00 -0.00000000000E+00 -0.74505805969E-08  0.93827000000E+00  0.93827000000E+00 0.  1.
     999902    2    1    2    0    0  0.22533225549E-01  0.81645853257E-02  0.27885225936E-03  0.10199615944E+01  0.10196799349E+01 0.  0.
     999903    2    3    3    0    0 -0.29860955079E-01 -0.12240672643E+00  0.16507622648E-01  0.12863820160E+00  0.20005049156E-01 0.  0.
         14    1    1    2    0    0 -0.22533225549E-01 -0.81645853257E-02 -0.27885225936E-03  0.23968405574E-01  0.00000000000E+00 0. -1.
     999901    1    3    3    0    0  0.52394180629E-01  0.13057131175E+00 -0.16228770389E-01  0.89132339283E+00  0.88000000000E+00 0. -1.
        -11    1    4    4    0    0 -0.75806373541E-02 -0.65640583981E-01  0.14332037642E-01  0.67615240530E-01  0.51100000000E-03 0.  1.
         11    1    4    4    0    0 -0.22280317725E-01 -0.56766142446E-01  0.21755850055E-02  0.61022961066E-01  0.51100000000E-03 0. -1.
</event>
<event>
 8    1  0.1122848E+005  0.1043930E+01  0.7957747E-01            NaN
         13   -1    0    0    0    0  0.00000000000E+00  0.00000000000E+00  0.74505805969E-08  0.10566000000E+00  0.10566000000E+00 0. -1.
     999900   -1    0    0    0    0 -0.00000000000E+00 -0.00000000000E+00 -0.74505805969E-08  0.93827000000E+00  0.93827000000E+00 0.  1.
     999902    2    1    2    0    0 -0.13101085629E-01  0.43490779664E-02 -0.16049839412E-01  0.10227604400E+01  0.10225413280E+01 0.  0.
     999903    2    3    3    0    0 -0.48517422130E-01  0.51765217018E-01  0.10937772095E+00  0.13189867746E+00  0.20004932645E-01 0.  0.
         14    1    1    2    0    0  0.13101085629E-01 -0.43490779664E-02  0.16049839412E-01  0.21169559962E-01  0.00000000000E+00 0. -1.
     999901    1    3    3    0    0  0.35416336501E-01 -0.47416139052E-01 -0.12542756037E+00  0.89086176258E+00  0.88000000000E+00 0.  1.
        -11    1    4    4    0    0 -0.28904113198E-01  0.19580160022E-01  0.41291040574E-01  0.54074407799E-01  0.51100000000E-03 0. -1.
         11    1    4    4    0    0 -0.19613308933E-01  0.32185056996E-01  0.68086680381E-01  0.77824269656E-01  0.51100000000E-03 0.  1.
</event>
<event>
 8    1  0.1122848E+005  0.1043930E+01  0.7957747E-01            NaN
         13   -1    0    0    0    0  0.00000000000E+00  0.00000000000E+00  0.74505805969E-08  0.10566000000E+00  0.10566000000E+00 0.  1.
     999900   -1    0    0    0    0 -0.00000000000E+00 -0.00000000000E+00 -0.74505805969E-08  0.93827000000E+00  0.93827000000E+00 0.  1.
     999902    2    1    2    0    0 -0.12599837365E-02 -0.96186873029E-02  0.16280093624E-01  0.10249787955E+01  0.10248035827E+01 0.  0.
     999903    2    3    3    0    0  0.23162645305E-01  0.44617467762E-02  0.13325278983E+00  0.13679112663E+00  0.19977262204E-01 0.  0.
         14    1    1    2    0    0  0.12599837365E-02  0.96186873029E-02 -0.16280093624E-01  0.18951204522E-01  0.00000000000E+00 0. -1.
     999901    1    3    3    0    0 -0.24422629041E-01 -0.14080434079E-01 -0.11697269621E+00  0.88818766885E+00  0.88000000000E+00 0.  1.
        -11    1    4    4    0    0  0.21841443295E-01  0.33213871439E-02  0.67746385524E-01  0.71259484494E-01  0.51100000000E-03 0.  1.
         11    1    4    4    0    0  0.13212020100E-02  0.11403596322E-02  0.65506404308E-01  0.65531642137E-01  0.51100000000E-03 0. -1.
</event>
<event>
 8    1  0.1122848E+005  0.1043930E+01  0.7957747E-01            NaN
         13   -1    0    0    0    0  0.00000000000E+00  0.00000000000E+00  0.74505805969E-08  0.10566000000E+00  0.10566000000E+00 0.  1.
     999900   -1    0    0    0    0 -0.00000000000E+00 -0.00000000000E+00 -0.74505805969E-08  0.93827000000E+00  0.93827000000E+00 0.  1.
     999902    2    1    2    0    0  0.21006116220E-02 -0.92223323328E-02  0.20338614130E-01  0.10214995919E+01  0.10212532952E+01 0.  0.
     999903    2    3    3    0    0 -0.56224601712E-01  0.11607198676E+00  0.23077280043E-03  0.13048622377E+00  0.19816391921E-01 0.  0.
         14    1    1    2    0    0 -0.21006116220E-02  0.92223323328E-02 -0.20338614130E-01  0.22430408101E-01  0.00000000000E+00 0. -1.
     999901    1    3    3    0    0  0.58325213334E-01 -0.12529431909E+00  0.20107841330E-01  0.89101336813E+00  0.88000000000E+00 0. -1.
        -11    1    4    4    0    0 -0.17929597993E-01  0.50546174673E-01  0.78566499978E-02  0.54206773825E-01  0.51100000000E-03 0. -1.
         11    1    4    4    0    0 -0.38295003719E-01  0.65525812087E-01 -0.76258771974E-02  0.76279449942E-01  0.51100000000E-03 0.  1.
</event>
<event>
 8    1  0.1196125E+005  0.1043930E+01  0.7957747E-01            NaN
         13   -1    0    0    0    0  0.00000000000E+00  0.00000000000E+00  0.74505805969E-08  0.10566000000E+00  0.10566000000E+00 0. -1.
     999900   -1    0    0    0    0 -0.00000000000E+00 -0.00000000000E+00 -0.74505805969E-08  0.93827000000E+00  0.93827000000E+00 0. -1.
     999902    2    1    2    0    0  0.23599854073E-01  0.25841017524E-02 -0.46211259881E-02  0.10197435265E+01  0.10194566564E+01 0.  0.
     999903    2    3    3    0    0  0.75881662914E-01  0.74344036067E-01  0.75266283131E-01  0.13167546953E+00  0.19706684999E-01 0.  0.
         14    1    1    2    0    0 -0.23599854073E-01 -0.25841017524E-02  0.46211259881E-02  0.24186473483E-01  0.00000000000E+00 0. -1.
     999901    1    3    3    0    0 -0.52281808841E-01 -0.71759934314E-01 -0.79887409119E-01  0.88806805699E+00  0.88000000000E+00 0. -1.
        -11    1    4    4    0    0  0.43889253339E-01  0.47556945190E-01  0.56545265930E-01  0.85939268175E-01  0.51100000000E-03 0. -1.
         11    1    4    4    0    0  0.31992409576E-01  0.26787090877E-01  0.18721017201E-01  0.45736201352E-01  0.51100000000E-03 0.  1.
</event>
<event>
 8    1  0.1122848E+005  0.1043930E+01  0.7957747E-01            NaN
         13   -1    0    0    0    0  0.00000000000E+00  0.00000000000E+00  0.74505805969E-08  0.10566000000E+00  0.10566000000E+00 0. -1.
     999900   -1    0    0    0    0 -0.00000000000E+00 -0.00000000000E+00 -0.74505805969E-08  0.93827000000E+00  0.93827000000E+00 0.  1.
     999902    2    1    2    0    0  0.16076138844E-01  0.67996096257E-02 -0.15870055018E-01  0.10203389937E+01  0.10200662363E+01 0.  0.
     999903    2    3    3    0    0 -0.29097270175E-01 -0.97628318627E-01  0.75297467011E-01  0.12834272346E+00  0.20596271436E-01 0.  0.
         14    1    1    2    0    0 -0.16076138844E-01 -0.67996096257E-02  0.15870055018E-01  0.23591006283E-01  0.00000000000E+00 0. -1.
     999901    1    3    3    0    0  0.45173409019E-01  0.10442792825E+00 -0.91167522029E-01  0.89199627026E+00  0.88000000000E+00 0. -1.
        -11    1    4    4    0    0 -0.17653048902E-01 -0.32115509969E-01  0.34409309687E-01  0.50272237172E-01  0.51100000000E-03 0. -1.
         11    1    4    4    0    0 -0.11444221274E-01 -0.65512808658E-01  0.40888157323E-01  0.78070486287E-01  0.51100000000E-03 0.  1.
</event>
<event>
 8    1  0.1122848E+005  0.1043930E+01  0.7957747E-01            NaN
         13   -1    0    0    0    0  0.00000000000E+00  0.00000000000E+00  0.74505805969E-08  0.10566000000E+00  0.10566000000E+00 0. -1.
     999900   -1    0    0    0    0 -0.00000000000E+00 -0.00000000000E+00 -0.74505805969E-08  0.93827000000E+00  0.93827000000E+00 0. -1.
     999902    2    1    2    0    0  0.90919413118E-02  0.12106019408E-01 -0.12871769427E-01  0.10240578700E+01  0.10238650397E+01 0.  0.
     999903    2    3    3    0    0 -0.82796769529E-01  0.59914018051E-01 -0.86022695997E-01  0.13496833684E+00  0.19275713176E-01 0.  0.
         14    1    1    2    0    0 -0.90919413118E-02 -0.12106019408E-01  0.12871769427E-01  0.19872130004E-01  0.00000000000E+00 0. -1.
     999901    1    3    3    0    0  0.91888710841E-01 -0.47807998643E-01  0.73150926570E-01  0.88908953316E+00  0.88000000000E+00 0.  1.
        -11    1    4    4    0    0 -0.36943251051E-01  0.28094412661E-01 -0.26834319277E-01  0.53613819422E-01  0.51100000000E-03 0. -1.
         11    1    4    4    0    0 -0.45853518478E-01  0.31819605390E-01 -0.59188376720E-01  0.81354517415E-01  0.51100000000E-03 0.  1.
</event>
<event>
 8    1  0.1122848E+005  0.1043930E+01  0.7957747E-01            NaN
         13   -1    0    0    0    0  0.00000000000E+00  0.00000000000E+00  0.74505805969E-08  0.10566000000E+00  0.10566000000E+00 0.  1.
     999900   -1    0    0    0    0 -0.00000000000E+00 -0.00000000000E+00 -0.74505805969E-08  0.93827000000E+00  0.93827000000E+00 0. -1.
     999902    2    1    2    0    0 -0.16756475069E-01  0.64499982498E-02  0.15456725969E-01  0.10202383915E+01  0.10199632754E+01 0.  0.
     999903    2    3    3    0    0 -0.68654022552E-01 -0.11926140426E-01 -0.10768200284E+00  0.12996080311E+00  0.20947290342E-01 0.  0.
         14    1    1    2    0    0  0.16756475069E-01 -0.64499982498E-02 -0.15456725969E-01  0.23691608468E-01  0.00000000000E+00 0. -1.
     999901    1    3    3    0    0  0.51897547484E-01  0.18376138676E-01  0.12313872881E+00  0.89027758842E+00  0.88000000000E+00 0.  1.
        -11    1    4    4    0    0 -0.33006386362E-01 -0.64187933359E-02 -0.33472415159E-01  0.47447720137E-01  0.51100000000E-03 0. -1.
         11    1    4    4    0    0 -0.35647636190E-01 -0.55073470900E-02 -0.74209587678E-01  0.82513082977E-01  0.51100000000E-03 0.  1.
</event>
<event>
 8    1  0.1583485E+005  0.1043930E+01  0.7957747E-01            NaN
         13   -1    0    0    0    0  0.00000000000E+00  0.00000000000E+00  0.74505805969E-08  0.10566000000E+00  0.10566000000E+00 0. -1.
     999900   -1    0    0    0    0 -0.00000000000E+00 -0.00000000000E+00 -0.74505805969E-08  0.93827000000E+00  0.93827000000E+00 0. -1.
     999902    2    1    2    0    0  0.17752547610E-01 -0.15847605600E-01  0.23497451835E-02  0.10200172241E+01  0.10197368859E+01 0.  0.
     999903    2    3    3    0    0  0.22628759944E-01  0.69581585782E-01  0.10541774398E+00  0.12987962990E+00  0.20053918864E-01 0.  0.
         14    1    1    2    0    0 -0.17752547610E-01  0.15847605600E-01 -0.23497451835E-02  0.23912775922E-01  0.00000000000E+00 0. -1.
     999901    1    3    3    0    0 -0.48762123345E-02 -0.85429191382E-01 -0.10306799879E+00  0.89013759417E+00  0.88000000000E+00 0. -1.
        -11    1    4    4    0    0 -0.29453762206E-02  0.18244747941E-01  0.27073267849E-01  0.32783670044E-01  0.51100000000E-03 0. -1.
         11    1    4    4    0    0  0.25574136165E-01  0.51336837841E-01  0.78344476129E-01  0.97095959860E-01  0.51100000000E-03 0.  1.
</event>
<event>
 8    1  0.1122848E+005  0.1043930E+01  0.7957747E-01            NaN
         13   -1    0    0    0    0  0.00000000000E+00  0.00000000000E+00  0.74505805969E-08  0.10566000000E+00  0.10566000000E+00 0.  1.
     999900   -1    0    0    0    0 -0.00000000000E+00 -0.00000000000E+00 -0.74505805969E-08  0.93827000000E+00  0.93827000000E+00 0.  1.
     999902    2    1    2    0    0 -0.15300340938E-01  0.16432805532E-01  0.21873955170E-02  0.10213706953E+01  0.10211215280E+01 0.  0.
     999903    2    3    3    0    0  0.66003494703E-01  0.63651698586E-01 -0.92070095373E-01  0.13135698070E+00  0.19228985149E-01 0.  0.
         14    1    1    2    0    0  0.15300340938E-01 -0.16432805532E-01 -0.21873955170E-02  0.22559304724E-01  0.00000000000E+00 0.  1.
     999901    1    3    3    0    0 -0.81303835641E-01 -0.47218893053E-01  0.94257490889E-01  0.89001371458E+00  0.88000000000E+00 0. -1.
        -11    1    4    4    0    0  0.20284730874E-01  0.32671939534E-01 -0.37538421917E-01  0.53743094259E-01  0.51100000000E-03 0. -1.
         11    1    4    4    0    0  0.45718763829E-01  0.30979759051E-01 -0.54531673456E-01  0.77613886437E-01  0.51100000000E-03 0.  1.
</event>
<event>
 8    1  0.1122848E+005  0.1043930E+01  0.7957747E-01            NaN
         13   -1    0    0    0    0  0.00000000000E+00  0.00000000000E+00  0.74505805969E-08  0.10566000000E+00  0.10566000000E+00 0.  1.
     999900   -1    0    0    0    0 -0.00000000000E+00 -0.00000000000E+00 -0.74505805969E-08  0.93827000000E+00  0.93827000000E+00 0. -1.
     999902    2    1    2    0    0 -0.21404907841E-02  0.12091658286E-01 -0.21495613643E-01  0.10191741662E+01  0.10188734611E+01 0.  0.
     999903    2    3    3    0    0 -0.72124511065E-01  0.41569230144E-01  0.96050155838E-01  0.12811653717E+00  0.16070739552E-01 0.  0.
         14    1    1    2    0    0  0.21404907841E-02 -0.12091658286E-01  0.21495613643E-01  0.24755833792E-01  0.00000000000E+00 0.  1.
     999901    1    3    3    0    0  0.69984020281E-01 -0.29477571859E-01 -0.11754576948E+00  0.89105762903E+00  0.88000000000E+00 0. -1.
        -11    1    4    4    0    0 -0.42885366225E-01  0.21280838604E-01  0.43763962548E-01  0.64865817400E-01  0.51100000000E-03 0.  1.
         11    1    4    4    0    0 -0.29239144839E-01  0.20288391540E-01  0.52286193289E-01  0.63250719774E-01  0.51100000000E-03 0. -1.
</event>
<event>
 8    1  0.1405513E+005  0.1043930E+01  0.7957747E-01            NaN
         13   -1    0    0    0    0  0.00000000000E+00  0.00000000000E+00  0.74505805969E-08  0.10566000000E+00  0.10566000000E+00 0. -1.
     999900   -1    0    0    0    0 -0.00000000000E+00 -0.00000000000E+00 -0.74505805969E-08  0.93827000000E+00  0.93827000000E+00 0. -1.
     999902    2    1    2    0    0 -0.85560100551E-02  0.24175621872E-01 -0.43726530474E-02  0.10179148872E+01  0.10175823954E+01 0.  0.
     999903    2    3    3    0    0  0.30879178609E-01 -0.11978045682E+00 -0.60393167227E-02  0.12534485380E+00  0.19338498405E-01 0.  0.
         14    1    1    2    0    0  0.85560100551E-02 -0.24175621872E-01  0.43726530474E-02  0.26015112831E-01  0.00000000000E+00 0.  1.
     999901    1    3    3    0    0 -0.39435188665E-01  0.14395607869E+00  0.16666636753E-02  0.89257003337E+00  0.88000000000E+00 0.  1.
        -11    1    4    4    0    0  0.56058142433E-02 -0.55884828755E-01  0.17193263206E-02  0.56193918197E-01  0.51100000000E-03 0.  1.
         11    1    4    4    0    0  0.25273364366E-01 -0.63895628064E-01 -0.77586430433E-02  0.69150935604E-01  0.51100000000E-03 0. -1.
</event>
<event>
 8    1  0.1122848E+005  0.1043930E+01  0.7957747E-01            NaN
         13   -1    0    0    0    0  0.00000000000E+00  0.00000000000E+00  0.74505805969E-08  0.10566000000E+00  0.10566000000E+00 0. -1.
     999900   -1    0    0    0    0 -0.00000000000E+00 -0.00000000000E+00 -0.74505805969E-08  0.93827000000E+00  0.93827000000E+00 0.  1.
     999902    2    1    2    0    0  0.86200462614E-02 -0.19294515999E-01 -0.45521071917E-02  0.10223127563E+01  0.10220841778E+01 0.  0.
     999903    2    3    3    0    0  0.86904410370E-01  0.11470440467E-01  0.97065407092E-01  0.13248072529E+00  0.21106912915E-01 0.  0.
         14    1    1    2    0    0 -0.86200462614E-02  0.19294515999E-01  0.45521071917E-02  0.21617243697E-01  0.00000000000E+00 0.  1.
     999901    1    3    3    0    0 -0.78284364108E-01 -0.30764956466E-01 -0.10161751428E+00  0.88983203101E+00  0.88000000000E+00 0.  1.
        -11    1    4    4    0    0  0.75628357896E-01  0.16212207332E-01  0.78200619703E-01  0.10999128251E+00  0.51100000000E-03 0. -1.
         11    1    4    4    0    0  0.11276052474E-01 -0.47417668647E-02  0.18864787388E-01  0.22489442781E-01  0.51100000000E-03 0.  1.
</event>
<event>
 8    1  0.1122848E+005  0.1043930E+01  0.7957747E-01            NaN
         13   -1    0    0    0    0  0.00000000000E+00  0.00000000000E+00  0.74505805969E-08  0.10566000000E+00  0.10566000000E+00 0. -1.
     999900   -1    0    0    0    0 -0.00000000000E+00 -0.00000000000E+00 -0.74505805969E-08  0.93827000000E+00  0.93827000000E+00 0. -1.
     999902    2    1    2    0    0 -0.58812814786E-02 -0.15432557291E-01 -0.16231313750E-01  0.10207738163E+01  0.10205111343E+01 0.  0.
     999903    2    3    3    0    0 -0.63015822073E-01 -0.11508559639E+00  0.81094588727E-02  0.13297453882E+00  0.20019398667E-01 0.  0.
         14    1    1    2    0    0  0.58812814786E-02  0.15432557291E-01  0.16231313750E-01  0.23156183675E-01  0.00000000000E+00 0. -1.
     999901    1    3    3    0    0  0.57134540595E-01  0.99653039097E-01 -0.24340772622E-01  0.88779927751E+00  0.88000000000E+00 0.  1.
        -11    1    4    4    0    0 -0.17752717297E-01 -0.39973365101E-01 -0.59948225295E-02  0.44150061235E-01  0.51100000000E-03 0. -1.
         11    1    4    4    0    0 -0.45263104776E-01 -0.75112231287E-01  0.14104281402E-01  0.88824477582E-01  0.51100000000E-03 0.  1.
</event>
<event>
 8    1  0.1122848E+005  0.1043930E+01  0.7957747E-01            NaN
         13   -1    0    0    0    0  0.00000000000E+00  0.00000000000E+00  0.74505805969E-08  0.10566000000E+00  0.10566000000E+00 0.  1.
     999900   -1    0    0    0    0 -0.00000000000E+00 -0.00000000000E+00 -0.74505805969E-08  0.93827000000E+00  0.93827000000E+00 0.  1.
     999902    2    1    2    0    0 -0.10404069527E-01 -0.20929534153E-01 -0.20359966188E-02  0.10204686415E+01  0.10201989085E+01 0.  0.
     999903    2    3    3    0    0 -0.22482444842E-01  0.55441623406E-01  0.11322910833E+00  0.12959015071E+00  0.19837899449E-01 0.  0.
         14    1    1    2    0    0  0.10404069527E-01  0.20929534153E-01  0.20359966188E-02  0.23461358546E-01  0.00000000000E+00 0.  1.
     999901    1    3    3    0    0  0.12078375314E-01 -0.76371157559E-01 -0.11526510495E+00  0.89087849075E+00  0.88000000000E+00 0.  1.
        -11    1    4    4    0    0  0.64911083789E-03  0.21824540398E-01  0.46453455275E-01  0.51331438090E-01  0.51100000000E-03 0. -1.
         11    1    4    4    0    0 -0.23131555680E-01  0.33617083008E-01  0.66775653057E-01  0.78258712616E-01  0.51100000000E-03 0.  1.
</event>
<event>
 8    1  0.1122848E+005  0.1043930E+01  0.7957747E-01            NaN
         13   -1    0    0    0    0  0.00000000000E+00  0.00000000000E+00  0.74505805969E-08  0.10566000000E+00  0.10566000000E+00 0. -1.
     999900   -1    0    0    0    0 -0.00000000000E+00 -0.00000000000E+00 -0.74505805969E-08  0.93827000000E+00  0.93827000000E+00 0.  1.
     999902    2    1    2    0    0 -0.21361067133E-01  0.33255312876E-04  0.47093765411E-02  0.10220559395E+01  0.10218218382E+01 0.  0.
     999903    2    3    3    0    0  0.12105729464E+00 -0.40596539904E-01 -0.81304508771E-02  0.12958821953E+00  0.20592590260E-01 0.  0.
         14    1    1    2    0    0  0.21361067133E-01 -0.33255312876E-04 -0.47093765411E-02  0.21874060491E-01  0.00000000000E+00 0.  1.
     999901    1    3    3    0    0 -0.14241836177E+00  0.40629795217E-01  0.12839827418E-01  0.89246771997E+00  0.88000000000E+00 0.  1.
        -11    1    4    4    0    0  0.82577454065E-01 -0.28025468712E-01  0.40859333795E-02  0.87300737620E-01  0.51100000000E-03 0. -1.
         11    1    4    4    0    0  0.38479840571E-01 -0.12571071192E-01 -0.12216384257E-01  0.42287481914E-01  0.51100000000E-03 0.  1.
</event>
<event>
 7    1  0.1122848E+005  0.1043930E+01  0.7957747E-01            NaN
         13   -1    0    0    0    0  0.00000000000E+00  0.00000000000E+00  0.74505805969E-08  0.10566000000E+00  0.10566000000E+00 0.  1.
     999900   -1    0    0    0    0 -0.00000000000E+00 -0.00000000000E+00 -0.74505805969E-08  0.93827000000E+00  0.93827000000E+00 0.  1.
     999903    2    1    2    0    0 -0.25579508456E-01  0.82450848888E-01  0.21368496767E-01  0.91092309718E-01  0.19716553968E-01 0.  0.
         14    1    1    2    0    0 -0.31312450385E-01 -0.18558015223E-01  0.54393799095E-01  0.65448872092E-01  0.00000000000E+00 0.  1.
     999901    1    1    2    0    0  0.56891958841E-01 -0.63892833666E-01 -0.75762295862E-01  0.88738881819E+00  0.88000000000E+00 0.  1.
        -11    1    3    3    0    0 -0.16810677448E-01  0.51177367996E-01  0.22984570553E-01  0.58568536569E-01  0.51100000000E-03 0.  1.
         11    1    3    3    0    0 -0.87688310081E-02  0.31273480892E-01 -0.16160737869E-02  0.32523773149E-01  0.51100000000E-03 0. -1.
</event>
<event>
 8    1  0.1122848E+005  0.1043930E+01  0.7957747E-01            NaN
         13   -1    0    0    0    0  0.00000000000E+00  0.00000000000E+00  0.74505805969E-08  0.10566000000E+00  0.10566000000E+00 0.  1.
     999900   -1    0    0    0    0 -0.00000000000E+00 -0.00000000000E+00 -0.74505805969E-08  0.93827000000E+00  0.93827000000E+00 0. -1.
     999902    2    1    2    0    0  0.14813583166E-01 -0.12828922617E-01  0.12209648330E-01  0.10208410630E+01  0.10205799218E+01 0.  0.
     999903    2    3    3    0    0 -0.34694892496E-01  0.68679616996E-01 -0.10105937940E+00  0.12847084615E+00  0.19264858934E-01 0.  0.
         14    1    1    2    0    0 -0.14813583166E-01  0.12828922617E-01 -0.12209648330E-01  0.23088937049E-01  0.00000000000E+00 0. -1.
     999901    1    3    3    0    0  0.49508475662E-01 -0.81508539613E-01  0.11326902773E+00  0.89237021680E+00  0.88000000000E+00 0.  1.
        -11    1    4    4    0    0 -0.11786015687E-01  0.40004268628E-01 -0.44013055217E-01  0.60635483216E-01  0.51100000000E-03 0.  1.
         11    1    4    4    0    0 -0.22908876809E-01  0.28675348368E-01 -0.57046324181E-01  0.67835362933E-01  0.51100000000E-03 0. -1.
</event>
<event>
 8    1  0.1122848E+005  0.1043930E+01  0.7957747E-01            NaN
         13   -1    0    0    0    0  0.00000000000E+00  0.00000000000E+00  0.74505805969E-08  0.10566000000E+00  0.10566000000E+00 0. -1.
     999900   -1    0    0    0    0 -0.00000000000E+00 -0.00000000000E+00 -0.74505805969E-08  0.93827000000E+00  0.93827000000E+00 0.  1.
     999902    2    1    2    0    0 -0.15432422932E-01 -0.12906233241E-01 -0.37724659780E-02  0.10234614379E+01  0.10232567385E+01 0.  0.
     999903    2    3    3    0    0 -0.84870492921E-01 -0.75579313207E-02  0.10194942352E+00  0.13440161552E+00  0.20248120994E-01 0.  0.
         14    1    1    2    0    0  0.15432422932E-01  0.12906233241E-01  0.37724659780E-02  0.20468562079E-01  0.00000000000E+00 0.  1.
     999901    1    3    3    0    0  0.69438069989E-01 -0.53483019201E-02 -0.10572188949E+00  0.88905982241E+00  0.88000000000E+00 0.  1.
        -11    1    4    4    0    0 -0.40178633459E-01  0.43229294560E-02  0.37929783792E-01  0.55425083898E-01  0.51100000000E-03 0.  1.
         11    1    4    4    0    0 -0.44691859462E-01 -0.11880860777E-01  0.64019639724E-01  0.78976531618E-01  0.51100000000E-03 0. -1.
</event>
<event>
 8    1  0.1122848E+005  0.1043930E+01  0.7957747E-01            NaN
         13   -1    0    0    0    0  0.00000000000E+00  0.00000000000E+00  0.74505805969E-08  0.10566000000E+00  0.10566000000E+00 0. -1.
     999900   -1    0    0    0    0 -0.00000000000E+00 -0.00000000000E+00 -0.74505805969E-08  0.93827000000E+00  0.93827000000E+00 0.  1.
     999902    2    1    2    0    0 -0.19190921614E-01  0.13521532833E-01  0.12261630657E-02  0.10204219844E+01  0.10201511650E+01 0.  0.
     999903    2    3    3    0    0  0.19094744030E-01 -0.44455842706E-01 -0.11855806408E+00  0.12959347712E+00  0.19937992710E-01 0.  0.
         14    1    1    2    0    0  0.19190921614E-01 -0.13521532833E-01 -0.12261630657E-02  0.23508015620E-01  0.00000000000E+00 0.  1.
     999901    1    3    3    0    0 -0.38285665644E-01  0.57977375539E-01  0.11978422715E+00  0.89082850726E+00  0.88000000000E+00 0. -1.
        -11    1    4    4    0    0  0.19636878177E-01 -0.23544917516E-01 -0.59465430190E-01  0.66905669670E-01  0.51100000000E-03 0.  1.
         11    1    4    4    0    0 -0.54213414629E-03 -0.20910925190E-01 -0.59092633893E-01  0.62687807452E-01  0.51100000000E-03 0. -1.
</event>
<event>
 8    1  0.1122848E+005  0.1043930E+01  0.7957747E-01            NaN
         13   -1    0    0    0    0  0.00000000000E+00  0.00000000000E+00  0.74505805969E-08  0.10566000000E+00  0.10566000000E+00 0. -1.
     999900   -1    0    0    0    0 -0.00000000000E+00 -0.00000000000E+00 -0.74505805969E-08  0.93827000000E+00  0.93827000000E+00 0. -1.
     999902    2    1    2    0    0  0.12891036073E-01  0.39824166635E-02  0.20246343643E-01  0.10195999181E+01  0.10193095899E+01 0.  0.
     999903    2    3    3    0    0 -0.12032923792E-01  0.12666331506E+00 -0.16883306933E-01  0.12996492692E+00  0.20431581910E-01 0.  0.
         14    1    1    2    0    0 -0.12891036073E-01 -0.39824166635E-02 -0.20246343643E-01  0.24330081883E-01  0.00000000000E+00 0.  1.
     999901    1    3    3    0    0  0.24923959865E-01 -0.12268089840E+00  0.37129650576E-01  0.88963499120E+00  0.88000000000E+00 0.  1.
        -11    1    4    4    0    0 -0.12427239621E-01  0.92397856035E-01 -0.38879237979E-02  0.93312256199E-01  0.51100000000E-03 0. -1.
         11    1    4    4    0    0  0.39431582944E-03  0.34265459027E-01 -0.12995383135E-01  0.36652670723E-01  0.51100000000E-03 0.  1.
</event>
<event>
 8    1  0.1122848E+005  0.1043930E+01  0.7957747E-01            NaN
         13   -1    0    0    0    0  0.00000000000E+00  0.00000000000E+00  0.74505805969E-08  0.10566000000E+00  0.10566000000E+00 0.  1.
     999900   -1    0    0    0    0 -0.00000000000E+00 -0.00000000000E+00 -0.74505805969E-08  0.93827000000E+00  0.93827000000E+00 0.  1.
     999902    2    1    2    0    0 -0.10364898946E-01  0.19538523998E-01  0.90657223889E-02  0.10200266033E+01  0.10197464877E+01 0.  0.
     999903    2    3    3    0    0 -0.68913299155E-02 -0.68563962723E-01 -0.10604828747E+00  0.12816038628E+00  0.20744587776E-01 0.  0.
         14    1    1    2    0    0  0.10364898946E-01 -0.19538523998E-01 -0.90657223889E-02  0.23903396675E-01  0.00000000000E+00 0.  1.
     999901    1    3    3    0    0 -0.34735690305E-02  0.88102486721E-01  0.11511400986E+00  0.89186621705E+00  0.88000000000E+00 0. -1.
        -11    1    4    4    0    0  0.70809788778E-02 -0.28640898353E-01 -0.39469202592E-01  0.49280020237E-01  0.51100000000E-03 0.  1.
         11    1    4    4    0    0 -0.13972308793E-01 -0.39923064370E-01 -0.66579084881E-01  0.78880366038E-01  0.51100000000E-03 0. -1.
</event>
<event>
 8    1  0.1122848E+005  0.1043930E+01  0.7957747E-01            NaN
         13   -1    0    0    0    0  0.00000000000E+00  0.00000000000E+00  0.74505805969E-08  0.10566000000E+00  0.10566000000E+00 0.  1.
     999900   -1    0    0    0    0 -0.00000000000E+00 -0.00000000000E+00 -0.74505805969E-08  0.93827000000E+00  0.93827000000E+00 0. -1.
     999902    2    1    2    0    0  0.15061237439E-01  0.19261468201E-01 -0.10472608752E-01  0.10173307413E+01  0.10169829480E+01 0.  0.
     999903    2    3    3    0    0  0.10463186560E+00 -0.54038922302E-01  0.45765917187E-01  0.12797219914E+00  0.20355150554E-01 0.  0.
         14    1    1    2    0    0 -0.15061237439E-01 -0.19261468201E-01  0.10472608752E-01  0.26599258721E-01  0.00000000000E+00 0.  1.
     999901    1    3    3    0    0 -0.89570628162E-01  0.73300390502E-01 -0.56238525938E-01  0.88935854214E+00  0.88000000000E+00 0. -1.
        -11    1    4    4    0    0  0.45895054501E-01 -0.32723101242E-01  0.15046035925E-01  0.58342109155E-01  0.51100000000E-03 0.  1.
         11    1    4    4    0    0  0.58736811099E-01 -0.21315821060E-01  0.30719881262E-01  0.69630089985E-01  0.51100000000E-03 0. -1.
</event>
<event>
 8    1  0.1122848E+005  0.1043930E+01  0.7957747E-01            NaN
         13   -1    0    0    0    0  0.00000000000E+00  0.00000000000E+00  0.74505805969E-08  0.10566000000E+00  0.10566000000E+00 0.  1.
     999900   -1    0    0    0    0 -0.00000000000E+00 -0.00000000000E+00 -0.74505805969E-08  0.93827000000E+00  0.93827000000E+00 0. -1.
     999902    2    1    2    0    0  0.82363633447E-02 -0.22270498451E-01  0.17132676620E-02  0.10201235289E+01  0.10198457070E+01 0.  0.
     999903    2    3    3    0    0 -0.81996058266E-01 -0.92669533404E-01  0.40831708534E-01  0.13185095444E+00  0.20160599529E-01 0.  0.
         14    1    1    2    0    0 -0.82363633447E-02  0.22270498451E-01 -0.17132676620E-02  0.23806471147E-01  0.00000000000E+00 0. -1.
     999901    1    3    3    0    0  0.90232421611E-01  0.70399034953E-01 -0.39118440872E-01  0.88827257441E+00  0.88000000000E+00 0. -1.
        -11    1    4    4    0    0 -0.14959500962E-01 -0.20028676359E-01  0.16800941109E-01  0.30124197730E-01  0.51100000000E-03 0.  1.
         11    1    4    4    0    0 -0.67036557304E-01 -0.72640857045E-01  0.24030767425E-01  0.10172675671E+00  0.51100000000E-03 0. -1.
</event>
<event>
 8    1  0.1122848E+005  0.1043930E+01  0.7957747E-01            NaN
         13   -1    0    0    0    0  0.00000000000E+00  0.00000000000E+00  0.74505805969E-08  0.10566000000E+00  0.10566000000E+00 0. -1.
     999900   -1    0    0    0    0 -0.00000000000E+00 -0.00000000000E+00 -0.74505805969E-08  0.93827000000E+00  0.93827000000E+00 0.  1.
     999902    2    1    2    0    0  0.49774600920E-02 -0.23884118559E-01  0.13249577454E-02  0.10194967902E+01  0.10192039656E+01 0.  0.
     999903    2    3    3    0    0 -0.55116566839E-01  0.94968592829E-01  0.61476227089E-01  0.12744553927E+00  0.20153645290E-01 0.  0.
         14    1    1    2    0    0 -0.49774600920E-02  0.23884118559E-01 -0.13249577454E-02  0.24433209804E-01  0.00000000000E+00 0.  1.
     999901    1    3    3    0    0  0.60094026931E-01 -0.11885271139E+00 -0.60151269343E-01  0.89205125093E+00  0.88000000000E+00 0. -1.
        -11    1    4    4    0    0 -0.13737819478E-01  0.14590814278E-01  0.18764540129E-01  0.27458853446E-01  0.51100000000E-03 0. -1.
         11    1    4    4    0    0 -0.41378747361E-01  0.80377778551E-01  0.42711686960E-01  0.99986685823E-01  0.51100000000E-03 0.  1.
</event>
<event>
 8    1  0.1122848E+005  0.1043930E+01  0.7957747E-01            NaN
         13   -1    0    0    0    0  0.00000000000E+00  0.00000000000E+00  0.74505805969E-08  0.10566000000E+00  0.10566000000E+00 0.  1.
     999900   -1    0    0    0    0 -0.00000000000E+00 -0.00000000000E+00 -0.74505805969E-08  0.93827000000E+00  0.93827000000E+00 0. -1.
     999902    2    1    2    0    0 -0.24274998942E-01  0.13093342731E-02  0.48120660636E-02  0.10191480326E+01  0.10188466844E+01 0.  0.
     999903    2    3    3    0    0 -0.92814748483E-01 -0.90667308425E-01 -0.89166442310E-02  0.13159753961E+00  0.20081522204E-01 0.  0.
         14    1    1    2    0    0  0.24274998942E-01 -0.13093342731E-02 -0.48120660636E-02  0.24781967429E-01  0.00000000000E+00 0. -1.
     999901    1    3    3    0    0  0.68539749541E-01  0.91976642698E-01  0.13728710295E-01  0.88755049296E+00  0.88000000000E+00 0.  1.
        -11    1    4    4    0    0 -0.18975046963E-01 -0.17731202716E-01 -0.99154753267E-02  0.27803340248E-01  0.51100000000E-03 0.  1.
         11    1    4    4    0    0 -0.73839701520E-01 -0.72936105708E-01  0.99883109570E-03  0.10379419936E+00  0.51100000000E-03 0. -1.
</event>
<event>
 8    1  0.1122848E+005  0.1043930E+01  0.7957747E-01            NaN
         13   -1    0    0    0    0  0.00000000000E+00  0.00000000000E+00  0.74505805969E-08  0.10566000000E+00  0.10566000000E+00 0.  1.
     999900   -1    0    0    0    0 -0.00000000000E+00 -0.00000000000E+00 -0.74505805969E-08  0.93827000000E+00  0.93827000000E+00 0. -1.
     999902    2    1    2    0    0  0.18545000856E-01  0.12034817468E-01 -0.86894514550E-02  0.10201758329E+01  0.10198992448E+01 0.  0.
     999903    2    3    3    0    0 -0.40292754458E-01 -0.42592326334E-02 -0.12284948900E+00  0.13070414043E+00  0.18706369361E-01 0.  0.
         14    1    1    2    0    0 -0.18545000856E-01 -0.12034817468E-01  0.86894514550E-02  0.23754167105E-01  0.00000000000E+00 0.  1.
     999901    1    3    3    0    0  0.58837755315E-01  0.16294050101E-01  0.11416003754E+00  0.88947169246E+00  0.88000000000E+00 0.  1.
        -11    1    4    4    0    0 -0.33902497019E-01 -0.79757646287E-02 -0.11378117282E+00  0.11899331299E+00  0.51100000000E-03 0. -1.
         11    1    4    4    0    0 -0.63902574399E-02  0.37165319953E-02 -0.90683161745E-02  0.11710827446E-01  0.51100000000E-03 0.  1.
</event>
<event>
 7    1  0.1122848E+005  0.1043930E+01  0.7957747E-01            NaN
         13   -1    0    0    0    0  0.00000000000E+00  0.00000000000E+00  0.74505805969E-08  0.10566000000E+00  0.10566000000E+00 0. -1.
     999900   -1    0    0    0    0 -0.00000000000E+00 -0.00000000000E+00 -0.74505805969E-08  0.93827000000E+00  0.93827000000E+00 0.  1.
     999903    2    1    2    0    0  0.68123283969E-01 -0.83152622377E-01  0.20516194069E-01  0.11134858617E+00  0.20553661401E-01 0.  0.
         14    1    1    2    0    0 -0.41088194248E-01  0.21127657389E-01 -0.19070283536E-01  0.49982930361E-01  0.00000000000E+00 0.  1.
     999901    1    1    2    0    0 -0.27035089720E-01  0.62024964988E-01 -0.14459105330E-02  0.88259848347E+00  0.88000000000E+00 0. -1.
        -11    1    3    3    0    0  0.50328509689E-01 -0.50163937059E-01  0.66134572260E-02  0.71367908799E-01  0.51100000000E-03 0.  1.
         11    1    3    3    0    0  0.17794774279E-01 -0.32988685318E-01  0.13902736843E-01  0.39980677375E-01  0.51100000000E-03 0. -1.
</event>
<event>
 8    1  0.1122848E+005  0.1043930E+01  0.7957747E-01            NaN
         13   -1    0    0    0    0  0.00000000000E+00  0.00000000000E+00  0.74505805969E-08  0.10566000000E+00  0.10566000000E+00 0.  1.
     999900   -1    0    0    0    0 -0.00000000000E+00 -0.00000000000E+00 -0.74505805969E-08  0.93827000000E+00  0.93827000000E+00 0. -1.
     999902    2    1    2    0    0  0.97403233950E-02 -0.17290716621E-01 -0.13694582218E-01  0.10198180867E+01  0.10195330037E+01 0.  0.
     999903    2    3    3    0    0 -0.87095520899E-01  0.80893690255E-01 -0.44610056246E-01  0.12854196504E+00  0.20088822141E-01 0.  0.
         14    1    1    2    0    0 -0.97403233950E-02  0.17290716621E-01  0.13694582218E-01  0.24111913305E-01  0.00000000000E+00 0.  1.
     999901    1    3    3    0    0  0.96835844294E-01 -0.98184406876E-01  0.30915474028E-01  0.89127612165E+00  0.88000000000E+00 0.  1.
        -11    1    4    4    0    0 -0.41587434411E-01  0.36689087722E-01 -0.10283062651E-01  0.56405729826E-01  0.51100000000E-03 0.  1.
         11    1    4    4    0    0 -0.45508086488E-01  0.44204602534E-01 -0.34326993595E-01  0.72136235216E-01  0.51100000000E-03 0. -1.
</event>
<event>
 8    1  0.1122848E+005  0.1043930E+01  0.7957747E-01            NaN
         13   -1    0    0    0    0  0.00000000000E+00  0.00000000000E+00  0.74505805969E-08  0.10566000000E+00  0.10566000000E+00 0.  1.
     999900   -1    0    0    0    0 -0.00000000000E+00 -0.00000000000E+00 -0.74505805969E-08  0.93827000000E+00  0.93827000000E+00 0. -1.
     999902    2    1    2    0    0  0.10196354179E-01 -0.46968473374E-02  0.20273968530E-01  0.10207554490E+01  0.10204923453E+01 0.  0.
     999903    2    3    3    0    0  0.57464796328E-01  0.11122953769E+00 -0.25203742298E-01  0.13073216025E+00  0.27954538554E-01 0.  0.
         14    1    1    2    0    0 -0.10196354179E-01  0.46968473374E-02 -0.20273968530E-01  0.23174550987E-01  0.00000000000E+00 0. -1.
     999901    1    3    3    0    0 -0.47268442149E-01 -0.11592638502E+00  0.45477710828E-01  0.89002328877E+00  0.88000000000E+00 0.  1.
        -11    1    4    4    0    0  0.43172566807E-01  0.63207683209E-01 -0.50110251362E-02  0.76710189905E-01  0.51100000000E-03 0. -1.
         11    1    4    4    0    0  0.14292229521E-01  0.48021854477E-01 -0.20192717162E-01  0.54021970340E-01  0.51100000000E-03 0.  1.
</event>
<event>
 8    1  0.1122848E+005  0.1043930E+01  0.7957747E-01            NaN
         13   -1    0    0    0    0  0.00000000000E+00  0.00000000000E+00  0.74505805969E-08  0.10566000000E+00  0.10566000000E+00 0.  1.
     999900   -1    0    0    0    0 -0.00000000000E+00 -0.00000000000E+00 -0.74505805969E-08  0.93827000000E+00  0.93827000000E+00 0.  1.
     999902    2    1    2    0    0  0.50496872415E-02 -0.16886012711E-01 -0.16584251742E-01  0.10197292940E+01  0.10194420821E+01 0.  0.
     999903    2    3    3    0    0 -0.11346824082E+00  0.50859880284E-01  0.24152027427E-01  0.12827236863E+00  0.20216602804E-01 0.  0.
         14    1    1    2    0    0 -0.50496872415E-02  0.16886012711E-01  0.16584251742E-01  0.24200706030E-01  0.00000000000E+00 0.  1.
     999901    1    3    3    0    0  0.11851792806E+00 -0.67745892994E-01 -0.40736279169E-01  0.89145692534E+00  0.88000000000E+00 0.  1.
        -11    1    4    4    0    0 -0.40299167609E-01  0.83913577250E-02  0.11386269173E-01  0.42712364031E-01  0.51100000000E-03 0.  1.
         11    1    4    4    0    0 -0.73169073210E-01  0.42468522559E-01  0.12765758254E-01  0.85560004602E-01  0.51100000000E-03 0. -1.
</event>
<event>
 8    1  0.1122848E+005  0.1043930E+01  0.7957747E-01            NaN
         13   -1    0    0    0    0  0.00000000000E+00  0.00000000000E+00  0.74505805969E-08  0.10566000000E+00  0.10566000000E+00 0.  1.
     999900   -1    0    0    0    0 -0.00000000000E+00 -0.00000000000E+00 -0.74505805969E-08  0.93827000000E+00  0.93827000000E+00 0. -1.
     999902    2    1    2    0    0  0.46174495774E-03  0.60460151037E-02  0.22759770609E-01  0.10203763450E+01  0.10201044607E+01 0.  0.
     999903    2    3    3    0    0 -0.41746016723E-01  0.11235577420E+00 -0.46809218843E-01  0.13025101429E+00  0.20190934760E-01 0.  0.
         14    1    1    2    0    0 -0.46174495774E-03 -0.60460151037E-02 -0.22759770609E-01  0.23553655028E-01  0.00000000000E+00 0. -1.
     999901    1    3    3    0    0  0.42207761681E-01 -0.10630975910E+00  0.69568989452E-01  0.89012533068E+00  0.88000000000E+00 0.  1.
        -11    1    4    4    0    0 -0.11027736313E-01  0.50776710584E-01 -0.27422232657E-01  0.58754789343E-01  0.51100000000E-03 0.  1.
         11    1    4    4    0    0 -0.30718280410E-01  0.61579063618E-01 -0.19386986186E-01  0.71496224948E-01  0.51100000000E-03 0. -1.
</event>
<event>
 8    1  0.1122848E+005  0.1043930E+01  0.7957747E-01            NaN
         13   -1    0    0    0    0  0.00000000000E+00  0.00000000000E+00  0.74505805969E-08  0.10566000000E+00  0.10566000000E+00 0.  1.
     999900   -1    0    0    0    0 -0.00000000000E+00 -0.00000000000E+00 -0.74505805969E-08  0.93827000000E+00  0.93827000000E+00 0. -1.
     999902    2    1    2    0    0 -0.19528339549E-01 -0.16395414091E-01  0.13880385124E-03  0.10184312762E+01  0.10181120171E+01 0.  0.
     999903    2    3    3    0    0 -0.32123795095E-01 -0.12595033865E+00  0.27229644767E-02  0.13154480947E+00  0.20029886283E-01 0.  0.
         14    1    1    2    0    0  0.19528339549E-01  0.16395414091E-01 -0.13880385124E-03  0.25498723797E-01  0.00000000000E+00 0.  1.
     999901    1    3    3    0    0  0.12595455546E-01  0.10955492456E+00 -0.25841606255E-02  0.88688646674E+00  0.88000000000E+00 0.  1.
        -11    1    4    4    0    0 -0.21601367877E-01 -0.85695937909E-01 -0.75050308937E-02  0.88696107456E-01  0.51100000000E-03 0.  1.
         11    1    4    4    0    0 -0.10522427218E-01 -0.40254400741E-01  0.10227995370E-01  0.42848702009E-01  0.51100000000E-03 0. -1.
</event>
<event>
 8    1  0.1122848E+005  0.1043930E+01  0.7957747E-01            NaN
         13   -1    0    0    0    0  0.00000000000E+00  0.00000000000E+00  0.74505805969E-08  0.10566000000E+00  0.10566000000E+00 0. -1.
     999900   -1    0    0    0    0 -0.00000000000E+00 -0.00000000000E+00 -0.74505805969E-08  0.93827000000E+00  0.93827000000E+00 0.  1.
     999902    2    1    2    0    0 -0.16446148133E-01  0.10660263506E-01  0.13220523702E-01  0.10202889498E+01  0.10200150204E+01 0.  0.
     999903    2    3    3    0    0  0.80336922441E-01 -0.94348698834E-01  0.28476069000E-01  0.12864632153E+00  0.19577830822E-01 0.  0.
         14    1    1    2    0    0  0.16446148133E-01 -0.10660263506E-01 -0.13220523702E-01  0.23641050175E-01  0.00000000000E+00 0. -1.
     999901    1    3    3    0    0 -0.96783070574E-01  0.10500896234E+00 -0.15255545298E-01  0.89164262829E+00  0.88000000000E+00 0. -1.
        -11    1    4    4    0    0  0.43216174929E-01 -0.59983871352E-01  0.91664050626E-02  0.74498232869E-01  0.51100000000E-03 0. -1.
         11    1    4    4    0    0  0.37120747512E-01 -0.34364827482E-01  0.19309663938E-01  0.54148088665E-01  0.51100000000E-03 0.  1.
</event>
<event>
 8    1  0.1122848E+005  0.1043930E+01  0.7957747E-01            NaN
         13   -1    0    0    0    0  0.00000000000E+00  0.00000000000E+00  0.74505805969E-08  0.10566000000E+00  0.10566000000E+00 0.  1.
     999900   -1    0    0    0    0 -0.00000000000E+00 -0.00000000000E+00 -0.74505805969E-08  0.93827000000E+00  0.93827000000E+00 0.  1.
     999902    2    1    2    0    0  0.29553004072E-02  0.10919609531E-01 -0.21144547898E-01  0.10199495167E+01  0.10196675699E+01 0.  0.
     999903    2    3    3    0    0 -0.69619326648E-01 -0.56413516715E-01  0.88950672326E-01  0.12758087994E+00  0.18311835185E-01 0.  0.
         14    1    1    2    0    0 -0.29553004072E-02 -0.10919609531E-01  0.21144547898E-01  0.23980483286E-01  0.00000000000E+00 0.  1.
     999901    1    3    3    0    0  0.72574627056E-01  0.67333126246E-01 -0.11009522022E+00  0.89236863677E+00  0.88000000000E+00 0.  1.
        -11    1    4    4    0    0 -0.58919027644E-02 -0.12843729781E-01  0.16206551907E-01  0.21507890612E-01  0.51100000000E-03 0.  1.
         11    1    4    4    0    0 -0.63727423884E-01 -0.43569786934E-01  0.72744120419E-01  0.10607298933E+00  0.51100000000E-03 0. -1.
</event>
<event>
 8    1  0.1122848E+005  0.1043930E+01  0.7957747E-01            NaN
         13   -1    0    0    0    0  0.00000000000E+00  0.00000000000E+00  0.74505805969E-08  0.10566000000E+00  0.10566000000E+00 0. -1.
     999900   -1    0    0    0    0 -0.00000000000E+00 -0.00000000000E+00 -0.74505805969E-08  0.93827000000E+00  0.93827000000E+00 0.  1.
     999902    2    1    2    0    0 -0.15251740615E-01  0.67096909267E-02  0.17544424702E-01  0.10197340834E+01  0.10194469865E+01 0.  0.
     999903    2    3    3    0    0 -0.61601576679E-01 -0.48982632218E-02 -0.11157766568E+00  0.12902898843E+00  0.19497618944E-01 0.  0.
         14    1    1    2    0    0  0.15251740615E-01 -0.67096909267E-02 -0.17544424702E-01  0.24195916644E-01  0.00000000000E+00 0.  1.
     999901    1    3    3    0    0  0.46349836063E-01  0.11607954149E-01  0.12912209038E+00  0.89070509493E+00  0.88000000000E+00 0. -1.
        -11    1    4    4    0    0 -0.49418412482E-01 -0.32615385655E-02 -0.70574056143E-01  0.86219346133E-01  0.51100000000E-03 0.  1.
         11    1    4    4    0    0 -0.12183164196E-01 -0.16367246564E-02 -0.41003609538E-01  0.42809642297E-01  0.51100000000E-03 0. -1.
</event>
<event>
 8    1  0.1122848E+005  0.1043930E+01  0.7957747E-01            NaN
         13   -1    0    0    0    0  0.00000000000E+00  0.00000000000E+00  0.74505805969E-08  0.10566000000E+00  0.10566000000E+00 0.  1.
     999900   -1    0    0    0    0 -0.00000000000E+00 -0.00000000000E+00 -0.74505805969E-08  0.93827000000E+00  0.93827000000E+00 0. -1.
     999902    2    1    2    0    0  0.14483453329E-01 -0.15896274670E-01 -0.98116421086E-02  0.10202925236E+01  0.10200186780E+01 0.  0.
     999903    2    3    3    0    0  0.11195464085E+00 -0.65120117648E-01  0.22514162199E-01  0.13295460787E+00  0.19888914577E-01 0.  0.
         14    1    1    2    0    0 -0.14483453329E-01  0.15896274670E-01  0.98116421086E-02  0.23637476379E-01  0.00000000000E+00 0.  1.
     999901    1    3    3    0    0 -0.97471187520E-01  0.49223842979E-01 -0.32325804308E-01  0.88733791576E+00  0.88000000000E+00 0. -1.
        -11    1    4    4    0    0  0.75084341184E-01 -0.38249724076E-01  0.61809774656E-02  0.84493581333E-01  0.51100000000E-03 0.  1.
         11    1    4    4    0    0  0.36870299664E-01 -0.26870393573E-01  0.16333184734E-01  0.48461026533E-01  0.51100000000E-03 0. -1.
</event>
<event>
 8    1  0.1122848E+005  0.1043930E+01  0.7957747E-01            NaN
         13   -1    0    0    0    0  0.00000000000E+00  0.00000000000E+00  0.74505805969E-08  0.10566000000E+00  0.10566000000E+00 0.  1.
     999900   -1    0    0    0    0 -0.00000000000E+00 -0.00000000000E+00 -0.74505805969E-08  0.93827000000E+00  0.93827000000E+00 0.  1.
     999902    2    1    2    0    0  0.13528278763E-02 -0.94652728875E-02 -0.22296048174E-01  0.10196702535E+01  0.10193816217E+01 0.  0.
     999903    2    3    3    0    0 -0.41474809815E-01  0.10792910958E+00 -0.56368308708E-01  0.13018918768E+00  0.20074506666E-01 0.  0.
         14    1    1    2    0    0 -0.13528278763E-02  0.94652728875E-02  0.22296048174E-01  0.24259746460E-01  0.00000000000E+00 0.  1.
     999901    1    3    3    0    0  0.42827637692E-01 -0.11739438247E+00  0.34072260534E-01  0.88948106586E+00  0.88000000000E+00 0. -1.
        -11    1    4    4    0    0 -0.94974257158E-02  0.21625658501E-01 -0.20933918614E-01  0.31565174962E-01  0.51100000000E-03 0. -1.
         11    1    4    4    0    0 -0.31977384099E-01  0.86303451081E-01 -0.35434390093E-01  0.98624012718E-01  0.51100000000E-03 0.  1.
</event>
<event>
 8    1  0.1122848E+005  0.1043930E+01  0.7957747E-01            NaN
         13   -1    0    0    0    0  0.00000000000E+00  0.00000000000E+00  0.74505805969E-08  0.10566000000E+00  0.10566000000E+00 0. -1.
     999900   -1    0    0    0    0 -0.00000000000E+00 -0.00000000000E+00 -0.74505805969E-08  0.93827000000E+00  0.93827000000E+00 0. -1.
     999902    2    1    2    0    0 -0.28315217408E-02 -0.21818749965E-01  0.93374150313E-02  0.10200288978E+01  0.10197488366E+01 0.  0.
     999903    2    3    3    0    0 -0.47674973480E-01 -0.68587636522E-01 -0.98943376653E-01  0.13102777648E+00  0.20032958999E-01 0.  0.
         14    1    1    2    0    0  0.28315217408E-02  0.21818749965E-01 -0.93374150313E-02  0.23901102169E-01  0.00000000000E+00 0.  1.
     999901    1    3    3    0    0  0.44843451739E-01  0.46768886557E-01  0.10828079168E+00  0.88900112135E+00  0.88000000000E+00 0.  1.
        -11    1    4    4    0    0 -0.12575700886E-01 -0.23838384695E-01 -0.19265845925E-01  0.33133831319E-01  0.51100000000E-03 0. -1.
         11    1    4    4    0    0 -0.35099272593E-01 -0.44749251827E-01 -0.79677530728E-01  0.97893945163E-01  0.51100000000E-03 0.  1.
</event>
<event>
 8    1  0.1122848E+005  0.1043930E+01  0.7957747E-01            NaN
         13   -1    0    0    0    0  0.00000000000E+00  0.00000000000E+00  0.74505805969E-08  0.10566000000E+00  0.10566000000E+00 0.  1.
     999900   -1    0    0    0    0 -0.00000000000E+00 -0.00000000000E+00 -0.74505805969E-08  0.93827000000E+00  0.93827000000E+00 0. -1.
     999902    2    1    2    0    0  0.98238266881E-02 -0.20411306518E-02  0.21550022476E-01  0.10201586464E+01  0.10198816532E+01 0.  0.
     999903    2    3    3    0    0 -0.13958259158E-01  0.87620541711E-01 -0.90434777664E-01  0.12822512947E+00  0.19774794229E-01 0.  0.
         14    1    1    2    0    0 -0.98238266881E-02  0.20411306518E-02 -0.21550022476E-01  0.23771353640E-01  0.00000000000E+00 0. -1.
     999901    1    3    3    0    0  0.23782085846E-01 -0.89661672363E-01  0.11198480014E+00  0.89193351689E+00  0.88000000000E+00 0.  1.
        -11    1    4    4    0    0 -0.58100110241E-02  0.74305563087E-01 -0.80538843510E-01  0.10973531505E+00  0.51100000000E-03 0. -1.
         11    1    4    4    0    0 -0.81482481334E-02  0.13314978624E-01 -0.98959341546E-02  0.18489814418E-01  0.51100000000E-03 0.  1.
</event>
<event>
 8    1  0.1122848E+005  0.1043930E+01  0.7957747E-01            NaN
         13   -1    0    0    0    0  0.00000000000E+00  0.00000000000E+00  0.74505805969E-08  0.10566000000E+00  0.10566000000E+00 0. -1.
     999900   -1    0    0    0    0 -0.00000000000E+00 -0.00000000000E+00 -0.74505805969E-08  0.93827000000E+00  0.93827000000E+00 0. -1.
     999902    2    1    2    0    0 -0.20264130253E-01  0.77478780802E-02 -0.10263382037E-01  0.10199299667E+01  0.10196475544E+01 0.  0.
     999903    2    3    3    0    0 -0.10836011678E+00 -0.47433970646E-01  0.54085793163E-01  0.13147807960E+00  0.19217593832E-01 0.  0.
         14    1    1    2    0    0  0.20264130253E-01 -0.77478780802E-02  0.10263382037E-01  0.24000033344E-01  0.00000000000E+00 0. -1.
     999901    1    3    3    0    0  0.88095986526E-01  0.55181848726E-01 -0.64349175200E-01  0.88845188706E+00  0.88000000000E+00 0.  1.
        -11    1    4    4    0    0 -0.46795776021E-01 -0.30468158865E-01  0.22132253878E-01  0.60068720152E-01  0.51100000000E-03 0.  1.
         11    1    4    4    0    0 -0.61564340759E-01 -0.16965811781E-01  0.31953539285E-01  0.71409359444E-01  0.51100000000E-03 0. -1.
</event>
<event>
 8    1  0.1122848E+005  0.1043930E+01  0.7957747E-01            NaN
         13   -1    0    0    0    0  0.00000000000E+00  0.00000000000E+00  0.74505805969E-08  0.10566000000E+00  0.10566000000E+00 0.  1.
     999900   -1    0    0    0    0 -0.00000000000E+00 -0.00000000000E+00 -0.74505805969E-08  0.93827000000E+00  0.93827000000E+00 0.  1.
     999902    2    1    2    0    0 -0.23881518530E-02  0.77130457905E-02  0.21770666485E-01  0.10207102613E+01  0.10204461188E+01 0.  0.
     999903    2    3    3    0    0 -0.52613928703E-01 -0.11265096038E+00  0.35355649253E-01  0.13099419741E+00  0.21236606448E-01 0.  0.
         14    1    1    2    0    0  0.23881518530E-02 -0.77130457905E-02 -0.21770666485E-01  0.23219738669E-01  0.00000000000E+00 0. -1.
     999901    1    3    3    0    0  0.50225776850E-01  0.12036400617E+00 -0.13584982768E-01  0.88971606392E+00  0.88000000000E+00 0.  1.
        -11    1    4    4    0    0 -0.21631779238E-01 -0.64373184147E-01  0.26727545519E-01  0.72982624786E-01  0.51100000000E-03 0. -1.
         11    1    4    4    0    0 -0.30982149464E-01 -0.48277776232E-01  0.86281037338E-02  0.58011572625E-01  0.51100000000E-03 0.  1.
</event>
<event>
 8    1  0.1122848E+005  0.1043930E+01  0.7957747E-01            NaN
         13   -1    0    0    0    0  0.00000000000E+00  0.00000000000E+00  0.74505805969E-08  0.10566000000E+00  0.10566000000E+00 0. -1.
     999900   -1    0    0    0    0 -0.00000000000E+00 -0.00000000000E+00 -0.74505805969E-08  0.93827000000E+00  0.93827000000E+00 0.  1.
     999902    2    1    2    0    0  0.51732344213E-02  0.17185917191E-02  0.23497709756E-01  0.10198082613E+01  0.10195229432E+01 0.  0.
     999903    2    3    3    0    0 -0.83368604481E-01  0.39279707862E-01  0.92279714618E-01  0.13189978697E+00  0.19717718158E-01 0.  0.
         14    1    1    2    0    0 -0.51732344213E-02 -0.17185917191E-02 -0.23497709756E-01  0.24121738653E-01  0.00000000000E+00 0.  1.
     999901    1    3    3    0    0  0.88541838902E-01 -0.37561116143E-01 -0.68782004863E-01  0.88790847438E+00  0.88000000000E+00 0.  1.
        -11    1    4    4    0    0 -0.32448038067E-01  0.16444016864E-01  0.23432788732E-01  0.43273982643E-01  0.51100000000E-03 0. -1.
         11    1    4    4    0    0 -0.50920566413E-01  0.22835690998E-01  0.68846925886E-01  0.88625804325E-01  0.51100000000E-03 0.  1.
</event>
<event>
 8    1  0.1122848E+005  0.1043930E+01  0.7957747E-01            NaN
         13   -1    0    0    0    0  0.00000000000E+00  0.00000000000E+00  0.74505805969E-08  0.10566000000E+00  0.10566000000E+00 0. -1.
     999900   -1    0    0    0    0 -0.00000000000E+00 -0.00000000000E+00 -0.74505805969E-08  0.93827000000E+00  0.93827000000E+00 0.  1.
     999902    2    1    2    0    0  0.17039138986E-01  0.10064344073E-01 -0.12813703884E-01  0.10203542861E+01  0.10200818864E+01 0.  0.
     999903    2    3    3    0    0 -0.59453881514E-01  0.68526640783E-01 -0.92941806189E-01  0.13148447836E+00  0.20477406762E-01 0.  0.
         14    1    1    2    0    0 -0.17039138986E-01 -0.10064344073E-01  0.12813703884E-01  0.23575713907E-01  0.00000000000E+00 0. -1.
     999901    1    3    3    0    0  0.76493020500E-01 -0.58462296710E-01  0.80128102305E-01  0.88886980773E+00  0.88000000000E+00 0.  1.
        -11    1    4    4    0    0 -0.45965353944E-01  0.45157382615E-01 -0.75909811062E-01  0.99571901178E-01  0.51100000000E-03 0. -1.
         11    1    4    4    0    0 -0.13488527571E-01  0.23369258167E-01 -0.17031995127E-01  0.31912577181E-01  0.51100000000E-03 0.  1.
</event>
<event>
 8    1  0.1122848E+005  0.1043930E+01  0.7957747E-01            NaN
         13   -1    0    0    0    0  0.00000000000E+00  0.00000000000E+00  0.74505805969E-08  0.10566000000E+00  0.10566000000E+00 0. -1.
     999900   -1    0    0    0    0 -0.00000000000E+00 -0.00000000000E+00 -0.74505805969E-08  0.93827000000E+00  0.93827000000E+00 0. -1.
     999902    2    1    2    0    0 -0.11770517731E-01 -0.86136957254E-02 -0.18507102803E-01  0.10203661782E+01  0.10200940564E+01 0.  0.
     999903    2    3    3    0    0  0.10549300782E+00  0.67824771726E-01 -0.25488719713E-01  0.12927565719E+00  0.18263251377E-01 0.  0.
         14    1    1    2    0    0  0.11770517731E-01  0.86136957254E-02  0.18507102803E-01  0.23563821758E-01  0.00000000000E+00 0. -1.
     999901    1    3    3    0    0 -0.11726352555E+00 -0.76438467451E-01  0.69816169100E-02  0.89109052105E+00  0.88000000000E+00 0.  1.
        -11    1    4    4    0    0  0.60902186496E-01  0.28896566665E-01 -0.16507940667E-01  0.69403610216E-01  0.51100000000E-03 0. -1.
         11    1    4    4    0    0  0.44590821325E-01  0.38928205061E-01 -0.89807790462E-02  0.59872046975E-01  0.51100000000E-03 0.  1.
</event>
<event>
 8    1  0.1122848E+005  0.1043930E+01  0.7957747E-01            NaN
         13   -1    0    0    0    0  0.00000000000E+00  0.00000000000E+00  0.74505805969E-08  0.10566000000E+00  0.10566000000E+00 0.  1.
     999900   -1    0    0    0    0 -0.00000000000E+00 -0.00000000000E+00 -0.74505805969E-08  0.93827000000E+00  0.93827000000E+00 0.  1.
     999902    2    1    2    0    0  0.21259289967E-01  0.65298129183E-02  0.39498184214E-02  0.10213424607E+01  0.10210926623E+01 0.  0.
     999903    2    3    3    0    0 -0.10189209946E+00  0.77915636312E-01  0.67066431939E-02  0.12989992155E+00  0.19394954030E-01 0.  0.
         14    1    1    2    0    0 -0.21259289967E-01 -0.65298129183E-02 -0.39498184214E-02  0.22587539312E-01  0.00000000000E+00 0. -1.
     999901    1    3    3    0    0  0.12315138943E+00 -0.71385823394E-01 -0.27568247726E-02  0.89144253914E+00  0.88000000000E+00 0. -1.
        -11    1    4    4    0    0 -0.54869609443E-01  0.51247215149E-01 -0.21825106922E-02  0.75113085244E-01  0.51100000000E-03 0.  1.
         11    1    4    4    0    0 -0.47022490017E-01  0.26668421163E-01  0.88891538862E-02  0.54786836307E-01  0.51100000000E-03 0. -1.
</event>
<event>
 8    1  0.1122848E+005  0.1043930E+01  0.7957747E-01            NaN
         13   -1    0    0    0    0  0.00000000000E+00  0.00000000000E+00  0.74505805969E-08  0.10566000000E+00  0.10566000000E+00 0. -1.
     999900   -1    0    0    0    0 -0.00000000000E+00 -0.00000000000E+00 -0.74505805969E-08  0.93827000000E+00  0.93827000000E+00 0.  1.
     999902    2    1    2    0    0  0.34244271426E-02  0.11707522460E-01  0.20250226899E-01  0.10202896854E+01  0.10200157733E+01 0.  0.
     999903    2    3    3    0    0  0.16608903357E-01  0.10977681391E+00  0.71269576816E-01  0.13327537303E+00  0.18872412014E-01 0.  0.
         14    1    1    2    0    0 -0.34244271426E-02 -0.11707522460E-01 -0.20250226899E-01  0.23640314568E-01  0.00000000000E+00 0.  1.
     999901    1    3    3    0    0 -0.13184476215E-01 -0.98069291445E-01 -0.51019349916E-01  0.88701431240E+00  0.88000000000E+00 0.  1.
        -11    1    4    4    0    0  0.11542594983E-01  0.10027715941E+00  0.58898546215E-01  0.11686761770E+00  0.51100000000E-03 0.  1.
         11    1    4    4    0    0  0.50663083742E-02  0.94996544940E-02  0.12371030600E-01  0.16407755336E-01  0.51100000000E-03 0. -1.
</event>
<event>
 8    1  0.1232029E+005  0.1043930E+01  0.7957747E-01            NaN
         13   -1    0    0    0    0  0.00000000000E+00  0.00000000000E+00  0.74505805969E-08  0.10566000000E+00  0.10566000000E+00 0. -1.
     999900   -1    0    0    0    0 -0.00000000000E+00 -0.00000000000E+00 -0.74505805969E-08  0.93827000000E+00  0.93827000000E+00 0. -1.
     999902    2    1    2    0    0  0.14511315756E-02  0.22535749170E-01 -0.76818152232E-02  0.10200767810E+01  0.10197978540E+01 0.  0.
     999903    2    3    3    0    0  0.39867685607E-01 -0.69182175586E-01 -0.10015530638E+00  0.12966150935E+00  0.20134940721E-01 0.  0.
         14    1    1    2    0    0 -0.14511315756E-02 -0.22535749170E-01  0.76818152232E-02  0.23853219041E-01  0.00000000000E+00 0. -1.
     999901    1    3    3    0    0 -0.38416554031E-01  0.91717924756E-01  0.92473491152E-01  0.89041527161E+00  0.88000000000E+00 0.  1.
        -11    1    4    4    0    0  0.70704745236E-02 -0.31638954591E-01 -0.42092389901E-01  0.53132339175E-01  0.51100000000E-03 0.  1.
         11    1    4    4    0    0  0.32797211083E-01 -0.37543220995E-01 -0.58062916474E-01  0.76529170177E-01  0.51100000000E-03 0. -1.
</event>
<event>
 8    1  0.1122848E+005  0.1043930E+01  0.7957747E-01            NaN
         13   -1    0    0    0    0  0.00000000000E+00  0.00000000000E+00  0.74505805969E-08  0.10566000000E+00  0.10566000000E+00 0.  1.
     999900   -1    0    0    0    0 -0.00000000000E+00 -0.00000000000E+00 -0.74505805969E-08  0.93827000000E+00  0.93827000000E+00 0. -1.
     999902    2    1    2    0    0  0.70792538799E-02  0.19621922785E-01 -0.16137832048E-01  0.10175564278E+01  0.10172145882E+01 0.  0.
     999903    2    3    3    0    0  0.32846550402E-01 -0.11471258007E+00  0.33823816384E-01  0.12558900765E+00  0.19765535394E-01 0.  0.
         14    1    1    2    0    0 -0.70792538799E-02 -0.19621922785E-01  0.16137832048E-01  0.26373572236E-01  0.00000000000E+00 0.  1.
     999901    1    3    3    0    0 -0.25767296522E-01  0.13433450285E+00 -0.49961648432E-01  0.89196742011E+00  0.88000000000E+00 0. -1.
        -11    1    4    4    0    0  0.17201417710E-02 -0.39133929887E-01  0.95563422032E-02  0.40323791407E-01  0.51100000000E-03 0.  1.
         11    1    4    4    0    0  0.31126408631E-01 -0.75578650180E-01  0.24267474180E-01  0.85265216246E-01  0.51100000000E-03 0. -1.
</event>
<event>
 8    1  0.1122848E+005  0.1043930E+01  0.7957747E-01            NaN
         13   -1    0    0    0    0  0.00000000000E+00  0.00000000000E+00  0.74505805969E-08  0.10566000000E+00  0.10566000000E+00 0.  1.
     999900   -1    0    0    0    0 -0.00000000000E+00 -0.00000000000E+00 -0.74505805969E-08  0.93827000000E+00  0.93827000000E+00 0. -1.
     999902    2    1    2    0    0  0.67256370946E-02  0.73572127125E-02  0.20985596151E-01  0.10206973071E+01  0.10204328663E+01 0.  0.
     999903    2    3    3    0    0  0.81561503185E-01  0.84376539250E-01  0.60099517540E-01  0.13330659138E+00  0.19672725254E-01 0.  0.
         14    1    1    2    0    0 -0.67256370946E-02 -0.73572127125E-02 -0.20985596151E-01  0.23232692893E-01  0.00000000000E+00 0. -1.
     999901    1    3    3    0    0 -0.74835866091E-01 -0.77019326538E-01 -0.39113921389E-01  0.88739071573E+00  0.88000000000E+00 0.  1.
        -11    1    4    4    0    0  0.22406846548E-01  0.24951723028E-01  0.27388657219E-01  0.43301904341E-01  0.51100000000E-03 0. -1.
         11    1    4    4    0    0  0.59154656637E-01  0.59424816222E-01  0.32710860321E-01  0.90004687038E-01  0.51100000000E-03 0.  1.
</event>
<event>
 8    1  0.1122848E+005  0.1043930E+01  0.7957747E-01            NaN
         13   -1    0    0    0    0  0.00000000000E+00  0.00000000000E+00  0.74505805969E-08  0.10566000000E+00  0.10566000000E+00 0. -1.
     999900   -1    0    0    0    0 -0.00000000000E+00 -0.00000000000E+00 -0.74505805969E-08  0.93827000000E+00  0.93827000000E+00 0.  1.
     999902    2    1    2    0    0 -0.23978683541E-01  0.22223262144E-02 -0.42671194398E-04  0.10198485171E+01  0.10195641618E+01 0.  0.
     999903    2    3    3    0    0  0.86706991187E-01 -0.91814249187E-01  0.56177532706E-02  0.12792574212E+00  0.19633585299E-01 0.  0.
         14    1    1    2    0    0  0.23978683541E-01 -0.22223262144E-02  0.42671194398E-04  0.24081482907E-01  0.00000000000E+00 0.  1.
     999901    1    3    3    0    0 -0.11068567473E+00  0.94036575401E-01 -0.56604244650E-02  0.89192277497E+00  0.88000000000E+00 0. -1.
        -11    1    4    4    0    0  0.35646499558E-01 -0.47606690532E-01  0.97024191994E-02  0.60261662551E-01  0.51100000000E-03 0. -1.
         11    1    4    4    0    0  0.51060491630E-01 -0.44207558655E-01 -0.40846659288E-02  0.67664079573E-01  0.51100000000E-03 0.  1.
</event>
<event>
 8    1  0.1122848E+005  0.1043930E+01  0.7957747E-01            NaN
         13   -1    0    0    0    0  0.00000000000E+00  0.00000000000E+00  0.74505805969E-08  0.10566000000E+00  0.10566000000E+00 0.  1.
     999900   -1    0    0    0    0 -0.00000000000E+00 -0.00000000000E+00 -0.74505805969E-08  0.93827000000E+00  0.93827000000E+00 0.  1.
     999902    2    1    2    0    0  0.22210277678E-01  0.73835883145E-02 -0.22855072265E-02  0.10204132537E+01  0.10201422308E+01 0.  0.
     999903    2    3    3    0    0  0.11184705317E+00 -0.23722412425E-01  0.64015119417E-01  0.13283333741E+00  0.21777140747E-01 0.  0.
         14    1    1    2    0    0 -0.22210277678E-01 -0.73835883145E-02  0.22855072265E-02  0.23516746250E-01  0.00000000000E+00 0.  1.
     999901    1    3    3    0    0 -0.89636775490E-01  0.31106000739E-01 -0.66300626643E-01  0.88757991634E+00  0.88000000000E+00 0.  1.
        -11    1    4    4    0    0  0.34947107628E-01 -0.42994649864E-02  0.91296221381E-02  0.36378521852E-01  0.51100000000E-03 0. -1.
         11    1    4    4    0    0  0.76899945539E-01 -0.19422947439E-01  0.54885497279E-01  0.96454815555E-01  0.51100000000E-03 0.  1.
</event>
<event>
 8    1  0.1122848E+005  0.1043930E+01  0.7957747E-01            NaN
         13   -1    0    0    0    0  0.00000000000E+00  0.00000000000E+00  0.74505805969E-08  0.10566000000E+00  0.10566000000E+00 0.  1.
     999900   -1    0    0    0    0 -0.00000000000E+00 -0.00000000000E+00 -0.74505805969E-08  0.93827000000E+00  0.93827000000E+00 0.  1.
     999902    2    1    2    0    0 -0.18085786946E-01 -0.32517855703E-02  0.15042787370E-01  0.10201822580E+01  0.10199058213E+01 0.  0.
     999903    2    3    3    0    0 -0.44204107324E-01  0.11785110321E+00 -0.29631668503E-01  0.13038234602E+00  0.16692355828E-01 0.  0.
         14    1    1    2    0    0  0.18085786946E-01  0.32517855703E-02 -0.15042787370E-01  0.23747742012E-01  0.00000000000E+00 0. -1.
     999901    1    3    3    0    0  0.26118320378E-01 -0.12110288878E+00  0.44674455873E-01  0.88979991197E+00  0.88000000000E+00 0.  1.
        -11    1    4    4    0    0 -0.78483096957E-02  0.34467396354E-01 -0.14286878118E-01  0.38131002922E-01  0.51100000000E-03 0.  1.
         11    1    4    4    0    0 -0.36355797628E-01  0.83383706857E-01 -0.15344790385E-01  0.92251343098E-01  0.51100000000E-03 0. -1.
</event>
<event>
 8    1  0.1122848E+005  0.1043930E+01  0.7957747E-01            NaN
         13   -1    0    0    0    0  0.00000000000E+00  0.00000000000E+00  0.74505805969E-08  0.10566000000E+00  0.10566000000E+00 0.  1.
     999900   -1    0    0    0    0 -0.00000000000E+00 -0.00000000000E+00 -0.74505805969E-08  0.93827000000E+00  0.93827000000E+00 0.  1.
     999902    2    1    2    0    0  0.12402641052E-01  0.16618054940E-01  0.11400253792E-01  0.10202667153E+01  0.10199922644E+01 0.  0.
     999903    2    3    3    0    0 -0.11067012746E+00 -0.60675419266E-01  0.11900780973E-01  0.12834663032E+00  0.20046079726E-01 0.  0.
         14    1    1    2    0    0 -0.12402641052E-01 -0.16618054940E-01 -0.11400253792E-01  0.23663284674E-01  0.00000000000E+00 0.  1.
     999901    1    3    3    0    0  0.12307276851E+00  0.77293474206E-01 -0.50052718133E-03  0.89192008500E+00  0.88000000000E+00 0. -1.
        -11    1    4    4    0    0 -0.31493512645E-01 -0.17068694595E-01  0.12527316458E-01  0.37952291796E-01  0.51100000000E-03 0. -1.
         11    1    4    4    0    0 -0.79176614815E-01 -0.43606724671E-01 -0.62653548495E-03  0.90394338528E-01  0.51100000000E-03 0.  1.
</event>
<event>
 8    1  0.1122848E+005  0.1043930E+01  0.7957747E-01            NaN
         13   -1    0    0    0    0  0.00000000000E+00  0.00000000000E+00  0.74505805969E-08  0.10566000000E+00  0.10566000000E+00 0. -1.
     999900   -1    0    0    0    0 -0.00000000000E+00 -0.00000000000E+00 -0.74505805969E-08  0.93827000000E+00  0.93827000000E+00 0. -1.
     999902    2    1    2    0    0  0.19894814379E-01  0.77011967142E-03 -0.12470639995E-01  0.10204371588E+01  0.10201666930E+01 0.  0.
     999903    2    3    3    0    0 -0.84120032237E-01 -0.70036554991E-01  0.63780732577E-01  0.12822252923E+00  0.19792329184E-01 0.  0.
         14    1    1    2    0    0 -0.19894814379E-01 -0.77011967142E-03  0.12470639995E-01  0.23492841151E-01  0.00000000000E+00 0. -1.
     999901    1    3    3    0    0  0.10401484662E+00  0.70806674662E-01 -0.76251372573E-01  0.89221462962E+00  0.88000000000E+00 0. -1.
        -11    1    4    4    0    0 -0.47329651172E-01 -0.47996104405E-01  0.46950981504E-01  0.82148510049E-01  0.51100000000E-03 0.  1.
         11    1    4    4    0    0 -0.36790381065E-01 -0.22040450586E-01  0.16829751073E-01  0.46074019177E-01  0.51100000000E-03 0. -1.
</event>
<event>
 8    1  0.1122848E+005  0.1043930E+01  0.7957747E-01            NaN
         13   -1    0    0    0    0  0.00000000000E+00  0.00000000000E+00  0.74505805969E-08  0.10566000000E+00  0.10566000000E+00 0. -1.
     999900   -1    0    0    0    0 -0.00000000000E+00 -0.00000000000E+00 -0.74505805969E-08  0.93827000000E+00  0.93827000000E+00 0.  1.
     999902    2    1    2    0    0 -0.12468490697E-02 -0.64765943781E-02 -0.22748654778E-01  0.10202445150E+01  0.10199695427E+01 0.  0.
     999903    2    3    3    0    0 -0.30269858429E-01  0.11728111417E+00  0.39384205053E-01  0.12894277157E+00  0.20099717973E-01 0.  0.
         14    1    1    2    0    0  0.12468490697E-02  0.64765943781E-02  0.22748654778E-01  0.23685485039E-01  0.00000000000E+00 0. -1.
     999901    1    3    3    0    0  0.29023009359E-01 -0.12375770855E+00 -0.62132859830E-01  0.89130174339E+00  0.88000000000E+00 0.  1.
        -11    1    4    4    0    0 -0.12176594548E-01  0.69433639244E-01  0.14151178160E-01  0.71901437244E-01  0.51100000000E-03 0. -1.
         11    1    4    4    0    0 -0.18093263881E-01  0.47847474927E-01  0.25233026893E-01  0.57041334328E-01  0.51100000000E-03 0.  1.
</event>
<event>
 8    1  0.1122848E+005  0.1043930E+01  0.7957747E-01            NaN
         13   -1    0    0    0    0  0.00000000000E+00  0.00000000000E+00  0.74505805969E-08  0.10566000000E+00  0.10566000000E+00 0.  1.
     999900   -1    0    0    0    0 -0.00000000000E+00 -0.00000000000E+00 -0.74505805969E-08  0.93827000000E+00  0.93827000000E+00 0. -1.
     999902    2    1    2    0    0 -0.11597353528E-01 -0.11024718223E-01 -0.17753129367E-01  0.10200298614E+01  0.10197498231E+01 0.  0.
     999903    2    3    3    0    0  0.11460424894E+00 -0.56205663399E-01 -0.12529737519E-01  0.12986389596E+00  0.20357472302E-01 0.  0.
         14    1    1    2    0    0  0.11597353528E-01  0.11024718223E-01  0.17753129367E-01  0.23900138557E-01  0.00000000000E+00 0.  1.
     999901    1    3    3    0    0 -0.12620160247E+00  0.45180945176E-01 -0.52233918481E-02  0.89016596548E+00  0.88000000000E+00 0.  1.
        -11    1    4    4    0    0  0.59889094369E-01 -0.37383173168E-01  0.26732004528E-03  0.70601259489E-01  0.51100000000E-03 0. -1.
         11    1    4    4    0    0  0.54715154575E-01 -0.18822490231E-01 -0.12797057564E-01  0.59262636475E-01  0.51100000000E-03 0.  1.
</event>
<event>
 8    1  0.1122848E+005  0.1043930E+01  0.7957747E-01            NaN
         13   -1    0    0    0    0  0.00000000000E+00  0.00000000000E+00  0.74505805969E-08  0.10566000000E+00  0.10566000000E+00 0.  1.
     999900   -1    0    0    0    0 -0.00000000000E+00 -0.00000000000E+00 -0.74505805969E-08  0.93827000000E+00  0.93827000000E+00 0.  1.
     999902    2    1    2    0    0  0.23933638783E-01  0.37178252905E-02  0.19239438903E-02  0.10196330280E+01  0.10193434990E+01 0.  0.
     999903    2    3    3    0    0  0.13131963228E+00 -0.29547280432E-02 -0.13467737764E-02  0.13307396497E+00  0.21290610973E-01 0.  0.
         14    1    1    2    0    0 -0.23933638783E-01 -0.37178252905E-02 -0.19239438903E-02  0.24296972041E-01  0.00000000000E+00 0. -1.
     999901    1    3    3    0    0 -0.10738599349E+00  0.66725533336E-02  0.32707176667E-02  0.88655906298E+00  0.88000000000E+00 0. -1.
        -11    1    4    4    0    0  0.45050455576E-01 -0.11123935221E-01  0.35365258584E-04  0.46406334203E-01  0.51100000000E-03 0.  1.
         11    1    4    4    0    0  0.86269176699E-01  0.81692071775E-02 -0.13821390350E-02  0.86667630771E-01  0.51100000000E-03 0. -1.
</event>
<event>
 8    1  0.1122848E+005  0.1043930E+01  0.7957747E-01            NaN
         13   -1    0    0    0    0  0.00000000000E+00  0.00000000000E+00  0.74505805969E-08  0.10566000000E+00  0.10566000000E+00 0.  1.
     999900   -1    0    0    0    0 -0.00000000000E+00 -0.00000000000E+00 -0.74505805969E-08  0.93827000000E+00  0.93827000000E+00 0. -1.
     999902    2    1    2    0    0 -0.21626723311E-01 -0.40207215442E-02 -0.10389573458E-01  0.10196025546E+01  0.10193122901E+01 0.  0.
     999903    2    3    3    0    0 -0.58177579087E-01  0.87770276317E-01 -0.76314430969E-01  0.13162302827E+00  0.20309531849E-01 0.  0.
         14    1    1    2    0    0  0.21626723311E-01  0.40207215442E-02  0.10389573458E-01  0.24327445397E-01  0.00000000000E+00 0.  1.
     999901    1    3    3    0    0  0.36550855776E-01 -0.91790997862E-01  0.65924857512E-01  0.88797952633E+00  0.88000000000E+00 0.  1.
        -11    1    4    4    0    0 -0.33849318741E-01  0.67546214756E-01 -0.55531557928E-01  0.93767172049E-01  0.51100000000E-03 0.  1.
         11    1    4    4    0    0 -0.24328260346E-01  0.20224061561E-01 -0.20782873041E-01  0.37855856223E-01  0.51100000000E-03 0. -1.
</event>
<event>
 8    1  0.1122848E+005  0.1043930E+01  0.7957747E-01            NaN
         13   -1    0    0    0    0  0.00000000000E+00  0.00000000000E+00  0.74505805969E-08  0.10566000000E+00  0.10566000000E+00 0. -1.
     999900   -1    0    0    0    0 -0.00000000000E+00 -0.00000000000E+00 -0.74505805969E-08  0.93827000000E+00  0.93827000000E+00 0. -1.
     999902    2    1    2    0    0 -0.22510336910E-01 -0.42709714331E-02  0.77424358887E-02  0.10197452573E+01  0.10194584288E+01 0.  0.
     999903    2    3    3    0    0 -0.56826281429E-01 -0.10982371964E+00  0.41885148748E-01  0.13211656719E+00  0.20247122898E-01 0.  0.
         14    1    1    2    0    0  0.22510336910E-01  0.42709714331E-02 -0.77424358887E-02  0.24184742675E-01  0.00000000000E+00 0.  1.
     999901    1    3    3    0    0  0.34315944519E-01  0.10555274820E+00 -0.34142712860E-01  0.88762869013E+00  0.88000000000E+00 0. -1.
        -11    1    4    4    0    0 -0.43158007377E-01 -0.68373916520E-01  0.34220866383E-01  0.87800540306E-01  0.51100000000E-03 0.  1.
         11    1    4    4    0    0 -0.13668274052E-01 -0.41449803116E-01  0.76642823652E-02  0.44316026888E-01  0.51100000000E-03 0. -1.
</event>
<event>
 8    1  0.1122848E+005  0.1043930E+01  0.7957747E-01            NaN
         13   -1    0    0    0    0  0.00000000000E+00  0.00000000000E+00  0.74505805969E-08  0.10566000000E+00  0.10566000000E+00 0. -1.
     999900   -1    0    0    0    0 -0.00000000000E+00 -0.00000000000E+00 -0.74505805969E-08  0.93827000000E+00  0.93827000000E+00 0. -1.
     999902    2    1    2    0    0  0.68769080747E-02 -0.18924978304E-01  0.11422982153E-01  0.10207798123E+01  0.10205172679E+01 0.  0.
     999903    2    3    3    0    0 -0.14223451868E-01  0.11028043393E+00  0.63058751564E-01  0.12959772294E+00  0.21332673337E-01 0.  0.
         14    1    1    2    0    0 -0.68769080747E-02  0.18924978304E-01 -0.11422982153E-01  0.23150187683E-01  0.00000000000E+00 0. -1.
     999901    1    3    3    0    0  0.21100359943E-01 -0.12920541224E+00 -0.51635769410E-01  0.89118208938E+00  0.88000000000E+00 0.  1.
        -11    1    4    4    0    0 -0.11179279309E-01  0.23082214120E-01  0.10358229551E-01  0.27664398330E-01  0.51100000000E-03 0.  1.
         11    1    4    4    0    0 -0.30441725590E-02  0.87198219812E-01  0.52700522013E-01  0.10193332461E+00  0.51100000000E-03 0. -1.
</event>
<event>
 8    1  0.1122848E+005  0.1043930E+01  0.7957747E-01            NaN
         13   -1    0    0    0    0  0.00000000000E+00  0.00000000000E+00  0.74505805969E-08  0.10566000000E+00  0.10566000000E+00 0.  1.
     999900   -1    0    0    0    0 -0.00000000000E+00 -0.00000000000E+00 -0.74505805969E-08  0.93827000000E+00  0.93827000000E+00 0. -1.
     999902    2    1    2    0    0 -0.18244243647E-01  0.15799794429E-01  0.12298210506E-02  0.10197639414E+01  0.10194775612E+01 0.  0.
     999903    2    3    3    0    0 -0.12538090408E+00  0.68410680983E-02 -0.36922710311E-01  0.13240035273E+00  0.19984882910E-01 0.  0.
         14    1    1    2    0    0  0.18244243647E-01 -0.15799794429E-01 -0.12298210506E-02  0.24166058637E-01  0.00000000000E+00 0. -1.
     999901    1    3    3    0    0  0.10713666043E+00  0.89587263303E-02  0.38152531362E-01  0.88736358864E+00  0.88000000000E+00 0.  1.
        -11    1    4    4    0    0 -0.97753888642E-01  0.50139533399E-02 -0.19873852982E-01  0.99880897203E-01  0.51100000000E-03 0.  1.
         11    1    4    4    0    0 -0.27627015438E-01  0.18271147584E-02 -0.17048857330E-01  0.32519455524E-01  0.51100000000E-03 0. -1.
</event>
<event>
 8    1  0.1410988E+005  0.1043930E+01  0.7957747E-01            NaN
         13   -1    0    0    0    0  0.00000000000E+00  0.00000000000E+00  0.74505805969E-08  0.10566000000E+00  0.10566000000E+00 0.  1.
     999900   -1    0    0    0    0 -0.00000000000E+00 -0.00000000000E+00 -0.74505805969E-08  0.93827000000E+00  0.93827000000E+00 0. -1.
     999902    2    1    2    0    0 -0.17800690170E-01  0.15073519386E-01 -0.12200983314E-02  0.10205726843E+01  0.10203053659E+01 0.  0.
     999903    2    3    3    0    0  0.25212080193E-01 -0.98936893696E-01 -0.76513782000E-01  0.12899116165E+00  0.18979015443E-01 0.  0.
         14    1    1    2    0    0  0.17800690170E-01 -0.15073519386E-01  0.12200983314E-02  0.23357315709E-01  0.00000000000E+00 0. -1.
     999901    1    3    3    0    0 -0.43012770363E-01  0.11401041308E+00  0.75293683669E-01  0.89158152264E+00  0.88000000000E+00 0. -1.
        -11    1    4    4    0    0  0.42295575894E-02 -0.54727874742E-01 -0.39321755159E-01  0.67524002998E-01  0.51100000000E-03 0.  1.
         11    1    4    4    0    0  0.20982522604E-01 -0.44209018954E-01 -0.37192026841E-01  0.61467158656E-01  0.51100000000E-03 0. -1.
</event>
<event>
 8    1  0.1122848E+005  0.1043930E+01  0.7957747E-01            NaN
         13   -1    0    0    0    0  0.00000000000E+00  0.00000000000E+00  0.74505805969E-08  0.10566000000E+00  0.10566000000E+00 0.  1.
     999900   -1    0    0    0    0 -0.00000000000E+00 -0.00000000000E+00 -0.74505805969E-08  0.93827000000E+00  0.93827000000E+00 0. -1.
     999902    2    1    2    0    0 -0.68829655645E-02  0.72087006538E-02  0.22163392772E-01  0.10196286305E+01  0.10193389954E+01 0.  0.
     999903    2    3    3    0    0  0.43650785723E-01 -0.27487915270E-01 -0.11424182598E+00  0.12701230818E+00  0.20492804735E-01 0.  0.
         14    1    1    2    0    0  0.68829655645E-02 -0.72087006538E-02 -0.22163392772E-01  0.24301369493E-01  0.00000000000E+00 0. -1.
     999901    1    3    3    0    0 -0.50533751288E-01  0.34696615924E-01  0.13640521875E+00  0.89261632232E+00  0.88000000000E+00 0.  1.
        -11    1    4    4    0    0  0.26790909141E-01 -0.12499760603E-01 -0.42261357621E-01  0.51577905121E-01  0.51100000000E-03 0. -1.
         11    1    4    4    0    0  0.16859876583E-01 -0.14988154667E-01 -0.71980468362E-01  0.75434403062E-01  0.51100000000E-03 0.  1.
</event>
<event>
 8    1  0.1122848E+005  0.1043930E+01  0.7957747E-01            NaN
         13   -1    0    0    0    0  0.00000000000E+00  0.00000000000E+00  0.74505805969E-08  0.10566000000E+00  0.10566000000E+00 0.  1.
     999900   -1    0    0    0    0 -0.00000000000E+00 -0.00000000000E+00 -0.74505805969E-08  0.93827000000E+00  0.93827000000E+00 0.  1.
     999902    2    1    2    0    0 -0.20108539298E-01  0.10092010044E-01 -0.79372407068E-02  0.10200720493E+01  0.10197930104E+01 0.  0.
     999903    2    3    3    0    0  0.51612916614E-02  0.97942515901E-01  0.83815862746E-01  0.13059191594E+00  0.20242882876E-01 0.  0.
         14    1    1    2    0    0  0.20108539298E-01 -0.10092010044E-01  0.79372407068E-02  0.23857950655E-01  0.00000000000E+00 0.  1.
     999901    1    3    3    0    0 -0.25269830959E-01 -0.87850505857E-01 -0.91753103453E-01  0.88948013341E+00  0.88000000000E+00 0.  1.
        -11    1    4    4    0    0  0.27010954002E-03  0.40270453596E-01  0.21936969156E-01  0.45861466709E-01  0.51100000000E-03 0. -1.
         11    1    4    4    0    0  0.48911821214E-02  0.57672062306E-01  0.61878893591E-01  0.84730449227E-01  0.51100000000E-03 0.  1.
</event>
<event>
 8    1  0.1122848E+005  0.1043930E+01  0.7957747E-01            NaN
         13   -1    0    0    0    0  0.00000000000E+00  0.00000000000E+00  0.74505805969E-08  0.10566000000E+00  0.10566000000E+00 0.  1.
     999900   -1    0    0    0    0 -0.00000000000E+00 -0.00000000000E+00 -0.74505805969E-08  0.93827000000E+00  0.93827000000E+00 0.  1.
     999902    2    1    2    0    0 -0.24350320320E-01 -0.10668640733E-02  0.62023990276E-02  0.10187795318E+01  0.10184690414E+01 0.  0.
     999903    2    3    3    0    0 -0.73530129551E-01  0.78800491956E-01 -0.70873720828E-01  0.13044503596E+00  0.19406844605E-01 0.  0.
         14    1    1    2    0    0  0.24350320320E-01  0.10668640733E-02 -0.62023990276E-02  0.25150468233E-01  0.00000000000E+00 0. -1.
     999901    1    3    3    0    0  0.49179809231E-01 -0.79867356029E-01  0.77076119855E-01  0.88833449581E+00  0.88000000000E+00 0. -1.
        -11    1    4    4    0    0 -0.39953487782E-03  0.33580958669E-02  0.45486365135E-03  0.34502837436E-02  0.51100000000E-03 0. -1.
         11    1    4    4    0    0 -0.73130594673E-01  0.75442396089E-01 -0.71328584479E-01  0.12699475221E+00  0.51100000000E-03 0.  1.
</event>
<event>
 8    1  0.1122848E+005  0.1043930E+01  0.7957747E-01            NaN
         13   -1    0    0    0    0  0.00000000000E+00  0.00000000000E+00  0.74505805969E-08  0.10566000000E+00  0.10566000000E+00 0.  1.
     999900   -1    0    0    0    0 -0.00000000000E+00 -0.00000000000E+00 -0.74505805969E-08  0.93827000000E+00  0.93827000000E+00 0.  1.
     999902    2    1    2    0    0  0.86747977157E-02 -0.14556754535E-01  0.84331454900E-02  0.10250020006E+01  0.10248272206E+01 0.  0.
     999903    2    3    3    0    0 -0.79229466989E-01 -0.10690207712E+00  0.17977035604E-01  0.13576305399E+00  0.20076615437E-01 0.  0.
         14    1    1    2    0    0 -0.86747977157E-02  0.14556754535E-01 -0.84331454900E-02  0.18927999389E-01  0.00000000000E+00 0.  1.
     999901    1    3    3    0    0  0.87904264705E-01  0.92345322582E-01 -0.95438901138E-02  0.88923894662E+00  0.88000000000E+00 0.  1.
        -11    1    4    4    0    0 -0.43477557449E-01 -0.68951806626E-01  0.18629431374E-01  0.83617979365E-01  0.51100000000E-03 0. -1.
         11    1    4    4    0    0 -0.35751909540E-01 -0.37950270490E-01 -0.65239577025E-03  0.52145074622E-01  0.51100000000E-03 0.  1.
</event>
<event>
 8    1  0.1122848E+005  0.1043930E+01  0.7957747E-01            NaN
         13   -1    0    0    0    0  0.00000000000E+00  0.00000000000E+00  0.74505805969E-08  0.10566000000E+00  0.10566000000E+00 0. -1.
     999900   -1    0    0    0    0 -0.00000000000E+00 -0.00000000000E+00 -0.74505805969E-08  0.93827000000E+00  0.93827000000E+00 0. -1.
     999902    2    1    2    0    0 -0.15958873609E-01 -0.74979715366E-02  0.15693028232E-01  0.10203254166E+01  0.10200523415E+01 0.  0.
     999903    2    3    3    0    0 -0.60273446457E-01  0.18812244144E-01 -0.11151543330E+00  0.12968631934E+00  0.19901273417E-01 0.  0.
         14    1    1    2    0    0  0.15958873609E-01  0.74979715366E-02 -0.15693028232E-01  0.23604583435E-01  0.00000000000E+00 0.  1.
     999901    1    3    3    0    0  0.44314572848E-01 -0.26310215680E-01  0.12720846153E+00  0.89063909722E+00  0.88000000000E+00 0.  1.
        -11    1    4    4    0    0 -0.12140795924E-01  0.62130602786E-02 -0.42265607888E-01  0.44414454571E-01  0.51100000000E-03 0. -1.
         11    1    4    4    0    0 -0.48132650533E-01  0.12599183865E-01 -0.69249825409E-01  0.85271864772E-01  0.51100000000E-03 0.  1.
</event>
<event>
 8    1  0.1122848E+005  0.1043930E+01  0.7957747E-01            NaN
         13   -1    0    0    0    0  0.00000000000E+00  0.00000000000E+00  0.74505805969E-08  0.10566000000E+00  0.10566000000E+00 0.  1.
     999900   -1    0    0    0    0 -0.00000000000E+00 -0.00000000000E+00 -0.74505805969E-08  0.93827000000E+00  0.93827000000E+00 0.  1.
     999902    2    1    2    0    0 -0.27697397839E-03 -0.36061086458E-02 -0.23108396284E-01  0.10205402862E+01  0.10202722171E+01 0.  0.
     999903    2    3    3    0    0 -0.39875686192E-01 -0.11833998088E+00  0.32217111597E-01  0.13048813530E+00  0.19869316800E-01 0.  0.
         14    1    1    2    0    0  0.27697397839E-03  0.36061086458E-02  0.23108396284E-01  0.23389713828E-01  0.00000000000E+00 0.  1.
     999901    1    3    3    0    0  0.39598712214E-01  0.11473387224E+00 -0.55325507881E-01  0.89005215087E+00  0.88000000000E+00 0.  1.
        -11    1    4    4    0    0 -0.64394631567E-02 -0.34488981939E-01  0.14595149490E-02  0.35119052746E-01  0.51100000000E-03 0. -1.
         11    1    4    4    0    0 -0.33436223035E-01 -0.83850998944E-01  0.30757596648E-01  0.95369082555E-01  0.51100000000E-03 0.  1.
</event>
<event>
 8    1  0.1122848E+005  0.1043930E+01  0.7957747E-01            NaN
         13   -1    0    0    0    0  0.00000000000E+00  0.00000000000E+00  0.74505805969E-08  0.10566000000E+00  0.10566000000E+00 0. -1.
     999900   -1    0    0    0    0 -0.00000000000E+00 -0.00000000000E+00 -0.74505805969E-08  0.93827000000E+00  0.93827000000E+00 0. -1.
     999902    2    1    2    0    0 -0.17484067724E-01  0.29225391170E-02 -0.15515093116E-01  0.10203725813E+01  0.10201006092E+01 0.  0.
     999903    2    3    3    0    0 -0.87584895525E-01  0.75696853399E-01  0.59134357786E-01  0.13145033087E+00  0.19524079402E-01 0.  0.
         14    1    1    2    0    0  0.17484067724E-01 -0.29225391170E-02  0.15515093116E-01  0.23557418650E-01  0.00000000000E+00 0. -1.
     999901    1    3    3    0    0  0.70100827801E-01 -0.72774314282E-01 -0.74649450902E-01  0.88892225048E+00  0.88000000000E+00 0. -1.
        -11    1    4    4    0    0 -0.37634313565E-01  0.44632366171E-01  0.33193543872E-01  0.67159974265E-01  0.51100000000E-03 0. -1.
         11    1    4    4    0    0 -0.49950581960E-01  0.31064487229E-01  0.25940813914E-01  0.64290356606E-01  0.51100000000E-03 0.  1.
</event>
<event>
 8    1  0.1122848E+005  0.1043930E+01  0.7957747E-01            NaN
         13   -1    0    0    0    0  0.00000000000E+00  0.00000000000E+00  0.74505805969E-08  0.10566000000E+00  0.10566000000E+00 0.  1.
     999900   -1    0    0    0    0 -0.00000000000E+00 -0.00000000000E+00 -0.74505805969E-08  0.93827000000E+00  0.93827000000E+00 0. -1.
     999902    2    1    2    0    0  0.10933294148E-01  0.18137977271E-01  0.11174596570E-01  0.10199843376E+01  0.10197032187E+01 0.  0.
     999903    2    3    3    0    0 -0.77831702727E-01 -0.98542878569E-01  0.17525335039E-01  0.12783301708E+00  0.16299387125E-01 0.  0.
         14    1    1    2    0    0 -0.10933294148E-01 -0.18137977271E-01 -0.11174596570E-01  0.23945662424E-01  0.00000000000E+00 0.  1.
     999901    1    3    3    0    0  0.88764996876E-01  0.11668085584E+00 -0.63507384690E-02  0.89215132050E+00  0.88000000000E+00 0. -1.
        -11    1    4    4    0    0 -0.60482183394E-01 -0.84627641432E-01  0.18080033775E-01  0.10557973738E+00  0.51100000000E-03 0.  1.
         11    1    4    4    0    0 -0.17349519333E-01 -0.13915237137E-01 -0.55469873607E-03  0.22253279699E-01  0.51100000000E-03 0. -1.
</event>
<event>
 8    1  0.1122848E+005  0.1043930E+01  0.7957747E-01            NaN
         13   -1    0    0    0    0  0.00000000000E+00  0.00000000000E+00  0.74505805969E-08  0.10566000000E+00  0.10566000000E+00 0. -1.
     999900   -1    0    0    0    0 -0.00000000000E+00 -0.00000000000E+00 -0.74505805969E-08  0.93827000000E+00  0.93827000000E+00 0.  1.
     999902    2    1    2    0    0  0.11710506724E-01  0.50979902900E-02  0.19093944123E-01  0.10209581874E+01  0.10206997189E+01 0.  0.
     999903    2    3    3    0    0 -0.69530071459E-01 -0.90540733855E-01  0.61240007754E-01  0.13105758182E+00  0.19841771064E-01 0.  0.
         14    1    1    2    0    0 -0.11710506724E-01 -0.50979902900E-02 -0.19093944123E-01  0.22971812617E-01  0.00000000000E+00 0.  1.
     999901    1    3    3    0    0  0.81240578183E-01  0.95638724145E-01 -0.42146063631E-01  0.88990060556E+00  0.88000000000E+00 0. -1.
        -11    1    4    4    0    0 -0.35072239969E-01 -0.30307730235E-01  0.21629913926E-01  0.51154030397E-01  0.51100000000E-03 0.  1.
         11    1    4    4    0    0 -0.34457831491E-01 -0.60233003620E-01  0.39610093829E-01  0.79903551425E-01  0.51100000000E-03 0. -1.
</event>
<event>
 8    1  0.1122848E+005  0.1043930E+01  0.7957747E-01            NaN
         13   -1    0    0    0    0  0.00000000000E+00  0.00000000000E+00  0.74505805969E-08  0.10566000000E+00  0.10566000000E+00 0. -1.
     999900   -1    0    0    0    0 -0.00000000000E+00 -0.00000000000E+00 -0.74505805969E-08  0.93827000000E+00  0.93827000000E+00 0. -1.
     999902    2    1    2    0    0 -0.11601939221E-01 -0.15021247947E-01  0.14481462660E-01  0.10200562562E+01  0.10197768433E+01 0.  0.
     999903    2    3    3    0    0 -0.47048938070E-01  0.65151043622E-01 -0.98446942441E-01  0.12851999177E+00  0.19165770283E-01 0.  0.
         14    1    1    2    0    0  0.11601939221E-01  0.15021247947E-01 -0.14481462660E-01  0.23873743828E-01  0.00000000000E+00 0. -1.
     999901    1    3    3    0    0  0.35446998849E-01 -0.80172291569E-01  0.11292840510E+00  0.89153626440E+00  0.88000000000E+00 0.  1.
        -11    1    4    4    0    0 -0.10683821125E-01  0.20836492490E-01 -0.41869301286E-01  0.47975024381E-01  0.51100000000E-03 0.  1.
         11    1    4    4    0    0 -0.36365116945E-01  0.44314551132E-01 -0.56577641155E-01  0.80544967391E-01  0.51100000000E-03 0. -1.
</event>
<event>
 8    1  0.1122848E+005  0.1043930E+01  0.7957747E-01            NaN
         13   -1    0    0    0    0  0.00000000000E+00  0.00000000000E+00  0.74505805969E-08  0.10566000000E+00  0.10566000000E+00 0. -1.
     999900   -1    0    0    0    0 -0.00000000000E+00 -0.00000000000E+00 -0.74505805969E-08  0.93827000000E+00  0.93827000000E+00 0. -1.
     999902    2    1    2    0    0  0.89118637042E-02 -0.21156401127E-01 -0.75573105756E-02  0.10197612688E+01  0.10194748245E+01 0.  0.
     999903    2    3    3    0    0 -0.51867027602E-01  0.11322030088E+00 -0.17186414134E-01  0.12743627685E+00  0.20871194085E-01 0.  0.
         14    1    1    2    0    0 -0.89118637042E-02  0.21156401127E-01  0.75573105756E-02  0.24168731172E-01  0.00000000000E+00 0. -1.
     999901    1    3    3    0    0  0.60778891306E-01 -0.13437670201E+00  0.96291035584E-02  0.89232499198E+00  0.88000000000E+00 0.  1.
        -11    1    4    4    0    0 -0.20427656729E-01  0.43949896082E-01  0.35201860119E-02  0.48595631034E-01  0.51100000000E-03 0. -1.
         11    1    4    4    0    0 -0.31439370873E-01  0.69270404801E-01 -0.20706600146E-01  0.78840645817E-01  0.51100000000E-03 0.  1.
</event>
<event>
 8    1  0.1122848E+005  0.1043930E+01  0.7957747E-01            NaN
         13   -1    0    0    0    0  0.00000000000E+00  0.00000000000E+00  0.74505805969E-08  0.10566000000E+00  0.10566000000E+00 0. -1.
     999900   -1    0    0    0    0 -0.00000000000E+00 -0.00000000000E+00 -0.74505805969E-08  0.93827000000E+00  0.93827000000E+00 0. -1.
     999902    2    1    2    0    0 -0.14815112118E-01  0.70688395434E-02  0.17329960842E-01  0.10200598600E+01  0.10197805325E+01 0.  0.
     999903    2    3    3    0    0  0.44028864638E-01  0.10297003832E+00  0.66023592792E-01  0.13156071916E+00  0.20192530980E-01 0.  0.
         14    1    1    2    0    0  0.14815112118E-01 -0.70688395434E-02 -0.17329960842E-01  0.23870139973E-01  0.00000000000E+00 0.  1.
     999901    1    3    3    0    0 -0.58843976755E-01 -0.95901198780E-01 -0.48693631950E-01  0.88849914087E+00  0.88000000000E+00 0. -1.
        -11    1    4    4    0    0  0.15222276328E-01  0.16403771356E-01  0.15971277745E-01  0.27498077117E-01  0.51100000000E-03 0.  1.
         11    1    4    4    0    0  0.28806588310E-01  0.86566266967E-01  0.50052315046E-01  0.10406264204E+00  0.51100000000E-03 0. -1.
</event>
<event>
 8    1  0.1122848E+005  0.1043930E+01  0.7957747E-01            NaN
         13   -1    0    0    0    0  0.00000000000E+00  0.00000000000E+00  0.74505805969E-08  0.10566000000E+00  0.10566000000E+00 0. -1.
     999900   -1    0    0    0    0 -0.00000000000E+00 -0.00000000000E+00 -0.74505805969E-08  0.93827000000E+00  0.93827000000E+00 0.  1.
     999902    2    1    2    0    0 -0.33575474195E-02 -0.21087935067E-01 -0.10299792403E-01  0.10202221985E+01  0.10199467017E+01 0.  0.
     999903    2    3    3    0    0  0.35083782048E-03  0.90381403735E-02 -0.12967417291E+00  0.13164379716E+00  0.20805940084E-01 0.  0.
         14    1    1    2    0    0  0.33575474195E-02  0.21087935067E-01  0.10299792403E-01  0.23707801535E-01  0.00000000000E+00 0.  1.
     999901    1    3    3    0    0 -0.37083852400E-02 -0.30126075440E-01  0.11937438051E+00  0.88857840130E+00  0.88000000000E+00 0. -1.
        -11    1    4    4    0    0  0.10038751929E-01  0.26831216071E-02 -0.45489825731E-01  0.46664344503E-01  0.51100000000E-03 0.  1.
         11    1    4    4    0    0 -0.96879141085E-02  0.63550187664E-02 -0.84184347178E-01  0.84979452658E-01  0.51100000000E-03 0. -1.
</event>
<event>
 8    1  0.1122848E+005  0.1043930E+01  0.7957747E-01            NaN
         13   -1    0    0    0    0  0.00000000000E+00  0.00000000000E+00  0.74505805969E-08  0.10566000000E+00  0.10566000000E+00 0. -1.
     999900   -1    0    0    0    0 -0.00000000000E+00 -0.00000000000E+00 -0.74505805969E-08  0.93827000000E+00  0.93827000000E+00 0. -1.
     999902    2    1    2    0    0 -0.15799206141E-02  0.14409211292E-01  0.19707827082E-01  0.10194653323E+01  0.10191717440E+01 0.  0.
     999903    2    3    3    0    0 -0.76879948729E-01  0.92523947166E-01  0.51123320243E-01  0.13224555148E+00  0.20101858096E-01 0.  0.
         14    1    1    2    0    0  0.15799206141E-02 -0.14409211292E-01 -0.19707827082E-01  0.24464667737E-01  0.00000000000E+00 0.  1.
     999901    1    3    3    0    0  0.75300028114E-01 -0.78114735874E-01 -0.31415493162E-01  0.88721978078E+00  0.88000000000E+00 0. -1.
        -11    1    4    4    0    0 -0.27883481964E-01  0.48942911881E-01  0.25648163176E-01  0.61894964134E-01  0.51100000000E-03 0. -1.
         11    1    4    4    0    0 -0.48996466764E-01  0.43581035286E-01  0.25475157067E-01  0.70350587351E-01  0.51100000000E-03 0.  1.
</event>
<event>
 8    1  0.1122848E+005  0.1043930E+01  0.7957747E-01            NaN
         13   -1    0    0    0    0  0.00000000000E+00  0.00000000000E+00  0.74505805969E-08  0.10566000000E+00  0.10566000000E+00 0. -1.
     999900   -1    0    0    0    0 -0.00000000000E+00 -0.00000000000E+00 -0.74505805969E-08  0.93827000000E+00  0.93827000000E+00 0. -1.
     999902    2    1    2    0    0 -0.71140685860E-02  0.21285711941E-01 -0.16244499069E-01  0.10162248515E+01  0.10158471211E+01 0.  0.
     999903    2    3    3    0    0 -0.60569974829E-01  0.22603234743E-01  0.10642567232E+00  0.12610843172E+00  0.19932003143E-01 0.  0.
         14    1    1    2    0    0  0.71140685860E-02 -0.21285711941E-01  0.16244499069E-01  0.27705148523E-01  0.00000000000E+00 0.  1.
     999901    1    3    3    0    0  0.53455906243E-01 -0.13175228024E-02 -0.12267017139E+00  0.89011641976E+00  0.88000000000E+00 0. -1.
        -11    1    4    4    0    0 -0.42441257748E-01  0.63512786730E-02  0.61284141682E-01  0.74817152062E-01  0.51100000000E-03 0.  1.
         11    1    4    4    0    0 -0.18128717081E-01  0.16251956070E-01  0.45141530639E-01  0.51291279654E-01  0.51100000000E-03 0. -1.
</event>
<event>
 8    1  0.1122848E+005  0.1043930E+01  0.7957747E-01            NaN
         13   -1    0    0    0    0  0.00000000000E+00  0.00000000000E+00  0.74505805969E-08  0.10566000000E+00  0.10566000000E+00 0. -1.
     999900   -1    0    0    0    0 -0.00000000000E+00 -0.00000000000E+00 -0.74505805969E-08  0.93827000000E+00  0.93827000000E+00 0.  1.
     999902    2    1    2    0    0 -0.53478461534E-02  0.27147465963E-01  0.36374952583E-02  0.10160227296E+01  0.10156393904E+01 0.  0.
     999903    2    3    3    0    0  0.36006334516E-01 -0.14344632532E-01 -0.11793237153E+00  0.12573570009E+00  0.19979925287E-01 0.  0.
         14    1    1    2    0    0  0.53478461534E-02 -0.27147465963E-01 -0.36374952583E-02  0.27907270351E-01  0.00000000000E+00 0.  1.
     999901    1    3    3    0    0 -0.41354180670E-01  0.41492098496E-01  0.12156986679E+00  0.89028702956E+00  0.88000000000E+00 0. -1.
        -11    1    4    4    0    0  0.82943403873E-02  0.28358372972E-02 -0.11812305684E-01  0.14718347129E-01  0.51100000000E-03 0.  1.
         11    1    4    4    0    0  0.27711994129E-01 -0.17180469830E-01 -0.10612006584E+00  0.11101735296E+00  0.51100000000E-03 0. -1.
</event>
<event>
 8    1  0.1122848E+005  0.1043930E+01  0.7957747E-01            NaN
         13   -1    0    0    0    0  0.00000000000E+00  0.00000000000E+00  0.74505805969E-08  0.10566000000E+00  0.10566000000E+00 0. -1.
     999900   -1    0    0    0    0 -0.00000000000E+00 -0.00000000000E+00 -0.74505805969E-08  0.93827000000E+00  0.93827000000E+00 0. -1.
     999902    2    1    2    0    0  0.18239360350E-01  0.59836565418E-02 -0.13702622548E-01  0.10203452533E+01  0.10200726424E+01 0.  0.
     999903    2    3    3    0    0 -0.88808680985E-01 -0.90291022140E-01 -0.10963145052E-01  0.12864148992E+00  0.19722877131E-01 0.  0.
         14    1    1    2    0    0 -0.18239360350E-01 -0.59836565418E-02  0.13702622548E-01  0.23584746687E-01  0.00000000000E+00 0. -1.
     999901    1    3    3    0    0  0.10704804134E+00  0.96274678682E-01 -0.27394774957E-02  0.89170376339E+00  0.88000000000E+00 0. -1.
        -11    1    4    4    0    0 -0.47441346250E-01 -0.36370800338E-01  0.11979889528E-03  0.59781200423E-01  0.51100000000E-03 0.  1.
         11    1    4    4    0    0 -0.41367334736E-01 -0.53920221802E-01 -0.11082943948E-01  0.68860289499E-01  0.51100000000E-03 0. -1.
</event>
<event>
 8    1  0.1122848E+005  0.1043930E+01  0.7957747E-01            NaN
         13   -1    0    0    0    0  0.00000000000E+00  0.00000000000E+00  0.74505805969E-08  0.10566000000E+00  0.10566000000E+00 0. -1.
     999900   -1    0    0    0    0 -0.00000000000E+00 -0.00000000000E+00 -0.74505805969E-08  0.93827000000E+00  0.93827000000E+00 0. -1.
     999902    2    1    2    0    0  0.10427182042E-01  0.28211711476E-02  0.20509406030E-01  0.10207498174E+01  0.10204865843E+01 0.  0.
     999903    2    3    3    0    0 -0.27141379098E-01  0.52634828728E-01 -0.11231946888E+00  0.12859719180E+00  0.20359150131E-01 0.  0.
         14    1    1    2    0    0 -0.10427182042E-01 -0.28211711476E-02 -0.20509406030E-01  0.23180182650E-01  0.00000000000E+00 0.  1.
     999901    1    3    3    0    0  0.37568561139E-01 -0.49813657580E-01  0.13282887491E+00  0.89215262555E+00  0.88000000000E+00 0.  1.
        -11    1    4    4    0    0 -0.19314557865E-01  0.27048269383E-01 -0.43420254023E-01  0.54683092474E-01  0.51100000000E-03 0.  1.
         11    1    4    4    0    0 -0.78268212323E-02  0.25586559344E-01 -0.68899214860E-01  0.73914099324E-01  0.51100000000E-03 0. -1.
</event>
<event>
 8    1  0.1267021E+005  0.1043930E+01  0.7957747E-01            NaN
         13   -1    0    0    0    0  0.00000000000E+00  0.00000000000E+00  0.74505805969E-08  0.10566000000E+00  0.10566000000E+00 0.  1.
     999900   -1    0    0    0    0 -0.00000000000E+00 -0.00000000000E+00 -0.74505805969E-08  0.93827000000E+00  0.93827000000E+00 0. -1.
     999902    2    1    2    0    0 -0.15193789927E-01  0.18078715520E-01  0.32183785353E-02  0.10200962179E+01  0.10198177507E+01 0.  0.
     999903    2    3    3    0    0 -0.21721761331E-02 -0.73626892173E-01 -0.10421265308E+00  0.12873719517E+00  0.16951423512E-01 0.  0.
         14    1    1    2    0    0  0.15193789927E-01 -0.18078715520E-01 -0.32183785353E-02  0.23833782067E-01  0.00000000000E+00 0.  1.
     999901    1    3    3    0    0 -0.13021613794E-01  0.91705607692E-01  0.10743103161E+00  0.89135902276E+00  0.88000000000E+00 0. -1.
        -11    1    4    4    0    0  0.48382629181E-02 -0.39047991008E-01 -0.44722960773E-01  0.59569780351E-01  0.51100000000E-03 0. -1.
         11    1    4    4    0    0 -0.70104390512E-02 -0.34578901165E-01 -0.59489692303E-01  0.69167414819E-01  0.51100000000E-03 0.  1.
</event>
<event>
 8    1  0.1122848E+005  0.1043930E+01  0.7957747E-01            NaN
         13   -1    0    0    0    0  0.00000000000E+00  0.00000000000E+00  0.74505805969E-08  0.10566000000E+00  0.10566000000E+00 0.  1.
     999900   -1    0    0    0    0 -0.00000000000E+00 -0.00000000000E+00 -0.74505805969E-08  0.93827000000E+00  0.93827000000E+00 0. -1.
     999902    2    1    2    0    0  0.16172563139E-02 -0.12886396052E-01 -0.20140914975E-01  0.10199647924E+01  0.10196832089E+01 0.  0.
     999903    2    3    3    0    0  0.45570113029E-01 -0.59206470390E-01 -0.10854923986E+00  0.13323290796E+00  0.19647619517E-01 0.  0.
         14    1    1    2    0    0 -0.16172563139E-02  0.12886396052E-01  0.20140914975E-01  0.23965207640E-01  0.00000000000E+00 0.  1.
     999901    1    3    3    0    0 -0.43952856715E-01  0.46320074338E-01  0.88408324883E-01  0.88673188440E+00  0.88000000000E+00 0.  1.
        -11    1    4    4    0    0  0.41139592745E-01 -0.40687187076E-01 -0.76016762563E-01  0.95533881922E-01  0.51100000000E-03 0. -1.
         11    1    4    4    0    0  0.44305202835E-02 -0.18519283314E-01 -0.32532477294E-01  0.37699026040E-01  0.51100000000E-03 0.  1.
</event>
<event>
 8    1  0.1122848E+005  0.1043930E+01  0.7957747E-01            NaN
         13   -1    0    0    0    0  0.00000000000E+00  0.00000000000E+00  0.74505805969E-08  0.10566000000E+00  0.10566000000E+00 0. -1.
     999900   -1    0    0    0    0 -0.00000000000E+00 -0.00000000000E+00 -0.74505805969E-08  0.93827000000E+00  0.93827000000E+00 0.  1.
     999902    2    1    2    0    0  0.12022385244E-01 -0.18545823355E-01  0.76437456056E-02  0.10205438469E+01  0.10202758604E+01 0.  0.
     999903    2    3    3    0    0 -0.44190012126E-01 -0.44064640130E-01 -0.11239945533E+00  0.13025096601E+00  0.20909971482E-01 0.  0.
         14    1    1    2    0    0 -0.12022385244E-01  0.18545823355E-01 -0.76437456056E-02  0.23386153120E-01  0.00000000000E+00 0. -1.
     999901    1    3    3    0    0  0.56212397371E-01  0.25518816774E-01  0.12004320094E+00  0.89029288087E+00  0.88000000000E+00 0. -1.
        -11    1    4    4    0    0 -0.31024425831E-01 -0.22325935869E-01 -0.83041722468E-01  0.91417455674E-01  0.51100000000E-03 0.  1.
         11    1    4    4    0    0 -0.13165586295E-01 -0.21738704261E-01 -0.29357732864E-01  0.38833510340E-01  0.51100000000E-03 0. -1.
</event>
<event>
 8    1  0.1122848E+005  0.1043930E+01  0.7957747E-01            NaN
         13   -1    0    0    0    0  0.00000000000E+00  0.00000000000E+00  0.74505805969E-08  0.10566000000E+00  0.10566000000E+00 0.  1.
     999900   -1    0    0    0    0 -0.00000000000E+00 -0.00000000000E+00 -0.74505805969E-08  0.93827000000E+00  0.93827000000E+00 0.  1.
     999902    2    1    2    0    0 -0.19412259519E-01 -0.51342392049E-02  0.18905928968E-01  0.10163504717E+01  0.10159762059E+01 0.  0.
     999903    2    3    3    0    0 -0.45498583892E-01 -0.97939858763E-03 -0.11572367272E+00  0.12571985877E+00  0.18504975106E-01 0.  0.
         14    1    1    2    0    0  0.19412259519E-01  0.51342392049E-02 -0.18905928968E-01  0.27579528313E-01  0.00000000000E+00 0.  1.
     999901    1    3    3    0    0  0.26086324373E-01 -0.41548406172E-02  0.13462960168E+00  0.89063061292E+00  0.88000000000E+00 0. -1.
        -11    1    4    4    0    0 -0.41128385787E-01  0.37710366980E-02 -0.87441771865E-01  0.96706201576E-01  0.51100000000E-03 0.  1.
         11    1    4    4    0    0 -0.43701981051E-02 -0.47504352856E-02 -0.28281900851E-01  0.29013657191E-01  0.51100000000E-03 0. -1.
</event>
<event>
 8    1  0.1122848E+005  0.1043930E+01  0.7957747E-01            NaN
         13   -1    0    0    0    0  0.00000000000E+00  0.00000000000E+00  0.74505805969E-08  0.10566000000E+00  0.10566000000E+00 0. -1.
     999900   -1    0    0    0    0 -0.00000000000E+00 -0.00000000000E+00 -0.74505805969E-08  0.93827000000E+00  0.93827000000E+00 0.  1.
     999902    2    1    2    0    0 -0.23030325426E-01 -0.79686665497E-02 -0.21719391788E-04  0.10195600183E+01  0.10192687256E+01 0.  0.
     999903    2    3    3    0    0 -0.12220274941E+00  0.17305430671E-01  0.44181313977E-01  0.13252684090E+00  0.19452124838E-01 0.  0.
         14    1    1    2    0    0  0.23030325426E-01  0.79686665497E-02  0.21719391788E-04  0.24369981689E-01  0.00000000000E+00 0.  1.
     999901    1    3    3    0    0  0.99172423982E-01 -0.25274097220E-01 -0.44203033369E-01  0.88703317741E+00  0.88000000000E+00 0. -1.
        -11    1    4    4    0    0 -0.12261003232E+00  0.16249846709E-01  0.43494243812E-01  0.13110792466E+00  0.51100000000E-03 0.  1.
         11    1    4    4    0    0  0.40728291412E-03  0.10555839616E-02  0.68707016516E-03  0.14189162357E-02  0.51100000000E-03 0. -1.
</event>
<event>
 8    1  0.1122848E+005  0.1043930E+01  0.7957747E-01            NaN
         13   -1    0    0    0    0  0.00000000000E+00  0.00000000000E+00  0.74505805969E-08  0.10566000000E+00  0.10566000000E+00 0. -1.
     999900   -1    0    0    0    0 -0.00000000000E+00 -0.00000000000E+00 -0.74505805969E-08  0.93827000000E+00  0.93827000000E+00 0.  1.
     999902    2    1    2    0    0  0.17136548917E-01  0.13814384659E-01 -0.27966690362E-02  0.10217417173E+01  0.10215007670E+01 0.  0.
     999903    2    3    3    0    0 -0.22791104468E-01  0.81829189934E-01 -0.10028609858E+00  0.13285228652E+00  0.19415913520E-01 0.  0.
         14    1    1    2    0    0 -0.17136548917E-01 -0.13814384659E-01  0.27966690362E-02  0.22188282719E-01  0.00000000000E+00 0. -1.
     999901    1    3    3    0    0  0.39927653385E-01 -0.68014805275E-01  0.97489429543E-01  0.88888943076E+00  0.88000000000E+00 0. -1.
        -11    1    4    4    0    0 -0.19312646339E-01  0.53113154093E-01 -0.53374776576E-01  0.77737464211E-01  0.51100000000E-03 0.  1.
         11    1    4    4    0    0 -0.34784581291E-02  0.28716035841E-01 -0.46911322003E-01  0.55114822312E-01  0.51100000000E-03 0. -1.
</event>
<event>
 8    1  0.1122848E+005  0.1043930E+01  0.7957747E-01            NaN
         13   -1    0    0    0    0  0.00000000000E+00  0.00000000000E+00  0.74505805969E-08  0.10566000000E+00  0.10566000000E+00 0. -1.
     999900   -1    0    0    0    0 -0.00000000000E+00 -0.00000000000E+00 -0.74505805969E-08  0.93827000000E+00  0.93827000000E+00 0.  1.
     999902    2    1    2    0    0 -0.69480049745E-02 -0.96990050684E-02  0.20006611380E-01  0.10206360100E+01  0.10203701558E+01 0.  0.
     999903    2    3    3    0    0 -0.91509084702E-01  0.89609255937E-01  0.18815122813E-01  0.13102141558E+00  0.20220562857E-01 0.  0.
         14    1    1    2    0    0  0.69480049745E-02  0.96990050684E-02 -0.20006611380E-01  0.23293990026E-01  0.00000000000E+00 0.  1.
     999901    1    3    3    0    0  0.84561079728E-01 -0.99308261005E-01  0.11914885670E-02  0.88961459439E+00  0.88000000000E+00 0. -1.
        -11    1    4    4    0    0 -0.64383749019E-01  0.63245633933E-01  0.38361388212E-02  0.90334126615E-01  0.51100000000E-03 0. -1.
         11    1    4    4    0    0 -0.27125335683E-01  0.26363622004E-01  0.14978983992E-01  0.40687288967E-01  0.51100000000E-03 0.  1.
</event>
<event>
 8    1  0.1122848E+005  0.1043930E+01  0.7957747E-01            NaN
         13   -1    0    0    0    0  0.00000000000E+00  0.00000000000E+00  0.74505805969E-08  0.10566000000E+00  0.10566000000E+00 0.  1.
     999900   -1    0    0    0    0 -0.00000000000E+00 -0.00000000000E+00 -0.74505805969E-08  0.93827000000E+00  0.93827000000E+00 0. -1.
     999902    2    1    2    0    0 -0.19530922711E-01  0.13253533501E-03 -0.23478188224E-01  0.10133898653E+01  0.10129295727E+01 0.  0.
     999903    2    3    3    0    0  0.14273669484E-01  0.12132247226E+00  0.71574940725E-02  0.12391344832E+00  0.19504692694E-01 0.  0.
         14    1    1    2    0    0  0.19530922711E-01 -0.13253533501E-03  0.23478188224E-01  0.30540134738E-01  0.00000000000E+00 0.  1.
     999901    1    3    3    0    0 -0.33804592194E-01 -0.12118993693E+00 -0.30635682296E-01  0.88947641694E+00  0.88000000000E+00 0. -1.
        -11    1    4    4    0    0  0.16360091478E-01  0.79284360533E-01  0.10752502825E-01  0.81667250818E-01  0.51100000000E-03 0.  1.
         11    1    4    4    0    0 -0.20864219939E-02  0.42038111729E-01 -0.35950087521E-02  0.42246197502E-01  0.51100000000E-03 0. -1.
</event>
<event>
 7    1  0.1122848E+005  0.1043930E+01  0.7957747E-01            NaN
         13   -1    0    0    0    0  0.00000000000E+00  0.00000000000E+00  0.74505805969E-08  0.10566000000E+00  0.10566000000E+00 0.  1.
     999900   -1    0    0    0    0 -0.00000000000E+00 -0.00000000000E+00 -0.74505805969E-08  0.93827000000E+00  0.93827000000E+00 0.  1.
     999903    2    1    2    0    0  0.15934336683E-01  0.69715918590E-01 -0.12523099252E-01  0.74841626702E-01  0.18172195305E-01 0.  0.
         14    1    1    2    0    0  0.66395763788E-01  0.95491581154E-02  0.45552159750E-01  0.81083803115E-01  0.00000000000E+00 0. -1.
     999901    1    1    2    0    0 -0.82330100471E-01 -0.79265076705E-01 -0.33029060498E-01  0.88800457018E+00  0.88000000000E+00 0.  1.
        -11    1    3    3    0    0  0.14214163909E-01  0.23097735208E-01 -0.51343714995E-02  0.27607439560E-01  0.51100000000E-03 0. -1.
         11    1    3    3    0    0  0.17201727740E-02  0.46618183381E-01 -0.73887277521E-02  0.47234187142E-01  0.51100000000E-03 0.  1.
</event>
<event>
 8    1  0.1122848E+005  0.1043930E+01  0.7957747E-01            NaN
         13   -1    0    0    0    0  0.00000000000E+00  0.00000000000E+00  0.74505805969E-08  0.10566000000E+00  0.10566000000E+00 0.  1.
     999900   -1    0    0    0    0 -0.00000000000E+00 -0.00000000000E+00 -0.74505805969E-08  0.93827000000E+00  0.93827000000E+00 0.  1.
     999902    2    1    2    0    0  0.19805946274E-01  0.22278923729E-02 -0.12862319492E-01  0.10202091595E+01  0.10199333561E+01 0.  0.
     999903    2    3    3    0    0 -0.47971188289E-01 -0.10344415609E+00  0.56075620097E-01  0.12863035684E+00  0.19984123623E-01 0.  0.
         14    1    1    2    0    0 -0.19805946274E-01 -0.22278923729E-02  0.12862319492E-01  0.23720840520E-01  0.00000000000E+00 0. -1.
     999901    1    3    3    0    0  0.67777134563E-01  0.10567204847E+00 -0.68937939589E-01  0.89157880264E+00  0.88000000000E+00 0.  1.
        -11    1    4    4    0    0 -0.25311725191E-01 -0.32052681195E-01  0.18770633682E-01  0.44951703124E-01  0.51100000000E-03 0. -1.
         11    1    4    4    0    0 -0.22659463098E-01 -0.71391474897E-01  0.37304986415E-01  0.83678653719E-01  0.51100000000E-03 0.  1.
</event>
<event>
 8    1  0.1122848E+005  0.1043930E+01  0.7957747E-01            NaN
         13   -1    0    0    0    0  0.00000000000E+00  0.00000000000E+00  0.74505805969E-08  0.10566000000E+00  0.10566000000E+00 0.  1.
     999900   -1    0    0    0    0 -0.00000000000E+00 -0.00000000000E+00 -0.74505805969E-08  0.93827000000E+00  0.93827000000E+00 0.  1.
     999902    2    1    2    0    0  0.21144143391E-01  0.11244767890E-01  0.39479351564E-04  0.10199816981E+01  0.10197005165E+01 0.  0.
     999903    2    3    3    0    0 -0.58125795671E-01 -0.68111759695E-01 -0.85774392936E-01  0.12872124102E+00  0.34555628685E-01 0.  0.
         14    1    1    2    0    0 -0.21144143391E-01 -0.11244767890E-01 -0.39479351564E-04  0.23948301887E-01  0.00000000000E+00 0.  1.
     999901    1    3    3    0    0  0.79269939062E-01  0.79356527585E-01  0.85813872288E-01  0.89126045710E+00  0.88000000000E+00 0. -1.
        -11    1    4    4    0    0 -0.32435292378E-01 -0.43972201071E-01 -0.28923670401E-01  0.61825904677E-01  0.51100000000E-03 0. -1.
         11    1    4    4    0    0 -0.25690503293E-01 -0.24139558624E-01 -0.56850722536E-01  0.66895336338E-01  0.51100000000E-03 0.  1.
</event>
<event>
 8    1  0.1122848E+005  0.1043930E+01  0.7957747E-01            NaN
         13   -1    0    0    0    0  0.00000000000E+00  0.00000000000E+00  0.74505805969E-08  0.10566000000E+00  0.10566000000E+00 0.  1.
     999900   -1    0    0    0    0 -0.00000000000E+00 -0.00000000000E+00 -0.74505805969E-08  0.93827000000E+00  0.93827000000E+00 0. -1.
     999902    2    1    2    0    0  0.16286726893E-01  0.25697435766E-02 -0.16942688493E-01  0.10202886010E+01  0.10200146634E+01 0.  0.
     999903    2    3    3    0    0 -0.51684122393E-01 -0.92413277467E-01 -0.74081645145E-01  0.13073440306E+00  0.19797263372E-01 0.  0.
         14    1    1    2    0    0 -0.16286726893E-01 -0.25697435766E-02  0.16942688493E-01  0.23641399035E-01  0.00000000000E+00 0.  1.
     999901    1    3    3    0    0  0.67970849287E-01  0.94983021043E-01  0.57138956651E-01  0.88955419790E+00  0.88000000000E+00 0.  1.
        -11    1    4    4    0    0 -0.31888313947E-01 -0.44572657775E-01 -0.28612920328E-01  0.61826747596E-01  0.51100000000E-03 0. -1.
         11    1    4    4    0    0 -0.19795808446E-01 -0.47840619691E-01 -0.45468724816E-01  0.68907655467E-01  0.51100000000E-03 0.  1.
</event>
<event>
 8    1  0.1122848E+005  0.1043930E+01  0.7957747E-01            NaN
         13   -1    0    0    0    0  0.00000000000E+00  0.00000000000E+00  0.74505805969E-08  0.10566000000E+00  0.10566000000E+00 0.  1.
     999900   -1    0    0    0    0 -0.00000000000E+00 -0.00000000000E+00 -0.74505805969E-08  0.93827000000E+00  0.93827000000E+00 0. -1.
     999902    2    1    2    0    0  0.41113520140E-02  0.16612018903E-01 -0.26248749514E-01  0.10125953668E+01  0.10121104276E+01 0.  0.
     999903    2    3    3    0    0  0.63634270639E-01 -0.10245238331E+00 -0.69782667955E-03  0.12221782924E+00  0.19771180420E-01 0.  0.
         14    1    1    2    0    0 -0.41113520140E-02 -0.16612018903E-01  0.26248749514E-01  0.31334633211E-01  0.00000000000E+00 0.  1.
     999901    1    3    3    0    0 -0.59522918625E-01  0.11906440222E+00 -0.25550922835E-01  0.89037753755E+00  0.88000000000E+00 0. -1.
        -11    1    4    4    0    0  0.47732979669E-01 -0.59445332068E-01  0.21979528562E-02  0.76271075583E-01  0.51100000000E-03 0.  1.
         11    1    4    4    0    0  0.15901290970E-01 -0.43007051246E-01 -0.28957795358E-02  0.45946753655E-01  0.51100000000E-03 0. -1.
</event>
<event>
 8    1  0.1122848E+005  0.1043930E+01  0.7957747E-01            NaN
         13   -1    0    0    0    0  0.00000000000E+00  0.00000000000E+00  0.74505805969E-08  0.10566000000E+00  0.10566000000E+00 0.  1.
     999900   -1    0    0    0    0 -0.00000000000E+00 -0.00000000000E+00 -0.74505805969E-08  0.93827000000E+00  0.93827000000E+00 0. -1.
     999902    2    1    2    0    0  0.14156284040E-01  0.18213271264E-01  0.67800267339E-02  0.10198864480E+01  0.10196029985E+01 0.  0.
     999903    2    3    3    0    0  0.82236387221E-02 -0.11804114348E+00  0.46014646309E-01  0.12851681810E+00  0.19947056745E-01 0.  0.
         14    1    1    2    0    0 -0.14156284040E-01 -0.18213271264E-01 -0.67800267339E-02  0.24043551952E-01  0.00000000000E+00 0. -1.
     999901    1    3    3    0    0  0.59326453178E-02  0.13625441474E+00 -0.39234619575E-01  0.89136962995E+00  0.88000000000E+00 0. -1.
        -11    1    4    4    0    0  0.75320432316E-02 -0.14399665152E-01  0.79997823756E-02  0.18120145441E-01  0.51100000000E-03 0. -1.
         11    1    4    4    0    0  0.69159549054E-03 -0.10364147833E+00  0.38014863933E-01  0.11039667266E+00  0.51100000000E-03 0.  1.
</event>
<event>
 8    1  0.1122848E+005  0.1043930E+01  0.7957747E-01            NaN
         13   -1    0    0    0    0  0.00000000000E+00  0.00000000000E+00  0.74505805969E-08  0.10566000000E+00  0.10566000000E+00 0.  1.
     999900   -1    0    0    0    0 -0.00000000000E+00 -0.00000000000E+00 -0.74505805969E-08  0.93827000000E+00  0.93827000000E+00 0.  1.
     999902    2    1    2    0    0 -0.71220068247E-02 -0.15207808260E-01 -0.16112703895E-01  0.10206572769E+01  0.10203919136E+01 0.  0.
     999903    2    3    3    0    0 -0.53723432572E-01 -0.11853871894E+00  0.16850405949E-01  0.13277466271E+00  0.20187614576E-01 0.  0.
         14    1    1    2    0    0  0.71220068247E-02  0.15207808260E-01  0.16112703895E-01  0.23272723092E-01  0.00000000000E+00 0.  1.
     999901    1    3    3    0    0  0.46601425747E-01  0.10333091068E+00 -0.32963109845E-01  0.88788261420E+00  0.88000000000E+00 0. -1.
        -11    1    4    4    0    0 -0.18915079385E-01 -0.48743878080E-01 -0.27319301178E-02  0.52359053101E-01  0.51100000000E-03 0. -1.
         11    1    4    4    0    0 -0.34808353187E-01 -0.69794840859E-01  0.19582336067E-01  0.80415609610E-01  0.51100000000E-03 0.  1.
</event>
<event>
 8    1  0.1122848E+005  0.1043930E+01  0.7957747E-01            NaN
         13   -1    0    0    0    0  0.00000000000E+00  0.00000000000E+00  0.74505805969E-08  0.10566000000E+00  0.10566000000E+00 0.  1.
     999900   -1    0    0    0    0 -0.00000000000E+00 -0.00000000000E+00 -0.74505805969E-08  0.93827000000E+00  0.93827000000E+00 0.  1.
     999902    2    1    2    0    0  0.21698543598E-01 -0.95173078373E-02 -0.10747668579E-02  0.10202116302E+01  0.10199358849E+01 0.  0.
     999903    2    3    3    0    0  0.95945267837E-01 -0.81075184778E-01  0.40029152073E-01  0.13323776475E+00  0.19268859167E-01 0.  0.
         14    1    1    2    0    0 -0.21698543598E-01  0.95173078373E-02  0.10747668579E-02  0.23718369812E-01  0.00000000000E+00 0. -1.
     999901    1    3    3    0    0 -0.74246724238E-01  0.71557876941E-01 -0.41103918931E-01  0.88697386543E+00  0.88000000000E+00 0.  1.
        -11    1    4    4    0    0  0.43069272765E-01 -0.47419457129E-01  0.25107743797E-01  0.68805719897E-01  0.51100000000E-03 0.  1.
         11    1    4    4    0    0  0.52875995072E-01 -0.33655727649E-01  0.14921408276E-01  0.64432044856E-01  0.51100000000E-03 0. -1.
</event>
<event>
 8    1  0.1122848E+005  0.1043930E+01  0.7957747E-01            NaN
         13   -1    0    0    0    0  0.00000000000E+00  0.00000000000E+00  0.74505805969E-08  0.10566000000E+00  0.10566000000E+00 0. -1.
     999900   -1    0    0    0    0 -0.00000000000E+00 -0.00000000000E+00 -0.74505805969E-08  0.93827000000E+00  0.93827000000E+00 0. -1.
     999902    2    1    2    0    0 -0.59525577986E-02  0.35671882006E-02 -0.22683008728E-01  0.10202091935E+01  0.10199333909E+01 0.  0.
     999903    2    3    3    0    0 -0.12805694889E+00  0.16126855180E-01 -0.18193828881E-01  0.13167816968E+00  0.18694045706E-01 0.  0.
         14    1    1    2    0    0  0.59525577986E-02 -0.35671882006E-02  0.22683008728E-01  0.23720806499E-01  0.00000000000E+00 0. -1.
     999901    1    3    3    0    0  0.12210439109E+00 -0.12559666979E-01 -0.44891798471E-02  0.88853102382E+00  0.88000000000E+00 0.  1.
        -11    1    4    4    0    0 -0.63552772896E-02 -0.15919523355E-03  0.30447629449E-02  0.70672904950E-02  0.51100000000E-03 0. -1.
         11    1    4    4    0    0 -0.12170167160E+00  0.16286050413E-01 -0.21238591826E-01  0.12461087918E+00  0.51100000000E-03 0.  1.
</event>
<event>
 8    1  0.1122848E+005  0.1043930E+01  0.7957747E-01            NaN
         13   -1    0    0    0    0  0.00000000000E+00  0.00000000000E+00  0.74505805969E-08  0.10566000000E+00  0.10566000000E+00 0.  1.
     999900   -1    0    0    0    0 -0.00000000000E+00 -0.00000000000E+00 -0.74505805969E-08  0.93827000000E+00  0.93827000000E+00 0. -1.
     999902    2    1    2    0    0  0.19149373855E-01 -0.15472857829E-02  0.13956865518E-02  0.10246675870E+01  0.10244865169E+01 0.  0.
     999903    2    3    3    0    0  0.65671404682E-01  0.49555156589E-01 -0.10592299728E+00  0.13545835470E+00  0.18995725013E-01 0.  0.
         14    1    1    2    0    0 -0.19149373855E-01  0.15472857829E-02 -0.13956865518E-02  0.19262412967E-01  0.00000000000E+00 0. -1.
     999901    1    3    3    0    0 -0.46522030827E-01 -0.51102442372E-01  0.10731868383E+00  0.88920923233E+00  0.88000000000E+00 0.  1.
        -11    1    4    4    0    0  0.75045132354E-02  0.36563270022E-02 -0.21834564252E-01  0.23381526107E-01  0.51100000000E-03 0. -1.
         11    1    4    4    0    0  0.58166891447E-01  0.45898829587E-01 -0.84088433023E-01  0.11207682859E+00  0.51100000000E-03 0.  1.
</event>
<event>
 8    1  0.1122848E+005  0.1043930E+01  0.7957747E-01            NaN
         13   -1    0    0    0    0  0.00000000000E+00  0.00000000000E+00  0.74505805969E-08  0.10566000000E+00  0.10566000000E+00 0.  1.
     999900   -1    0    0    0    0 -0.00000000000E+00 -0.00000000000E+00 -0.74505805969E-08  0.93827000000E+00  0.93827000000E+00 0.  1.
     999902    2    1    2    0    0  0.12210943998E-02  0.11187059067E-01  0.22191489961E-01  0.10190482077E+01  0.10187443968E+01 0.  0.
     999903    2    3    3    0    0  0.64271520533E-01 -0.84870956525E-01  0.72132182810E-01  0.13017444196E+00  0.20209550448E-01 0.  0.
         14    1    1    2    0    0 -0.12210943998E-02 -0.11187059067E-01 -0.22191489961E-01  0.24881792315E-01  0.00000000000E+00 0. -1.
     999901    1    3    3    0    0 -0.63050426133E-01  0.96058015592E-01 -0.49940692849E-01  0.88887376573E+00  0.88000000000E+00 0.  1.
        -11    1    4    4    0    0  0.54492692948E-01 -0.72828328121E-01  0.69406390332E-01  0.11441558942E+00  0.51100000000E-03 0. -1.
         11    1    4    4    0    0  0.97788275851E-02 -0.12042628404E-01  0.27257924777E-02  0.15758852542E-01  0.51100000000E-03 0.  1.
</event>
<event>
 8    1  0.1122848E+005  0.1043930E+01  0.7957747E-01            NaN
         13   -1    0    0    0    0  0.00000000000E+00  0.00000000000E+00  0.74505805969E-08  0.10566000000E+00  0.10566000000E+00 0. -1.
     999900   -1    0    0    0    0 -0.00000000000E+00 -0.00000000000E+00 -0.74505805969E-08  0.93827000000E+00  0.93827000000E+00 0.  1.
     999902    2    1    2    0    0 -0.13482851138E-01 -0.54513171991E-02 -0.18934907329E-01  0.10200545974E+01  0.10197751452E+01 0.  0.
     999903    2    3    3    0    0 -0.38739175972E-01 -0.12345193786E+00  0.97506428424E-02  0.13135617317E+00  0.20451515305E-01 0.  0.
         14    1    1    2    0    0  0.13482851138E-01  0.54513171991E-02  0.18934907329E-01  0.23875402606E-01  0.00000000000E+00 0. -1.
     999901    1    3    3    0    0  0.25256324834E-01  0.11800062066E+00 -0.28685550172E-01  0.88869842422E+00  0.88000000000E+00 0.  1.
        -11    1    4    4    0    0 -0.21473216891E-01 -0.88068458947E-01 -0.56857763409E-03  0.90651734161E-01  0.51100000000E-03 0. -1.
         11    1    4    4    0    0 -0.17265959081E-01 -0.35383478916E-01  0.10319220477E-01  0.40704439014E-01  0.51100000000E-03 0.  1.
</event>
<event>
 8    1  0.1122848E+005  0.1043930E+01  0.7957747E-01            NaN
         13   -1    0    0    0    0  0.00000000000E+00  0.00000000000E+00  0.74505805969E-08  0.10566000000E+00  0.10566000000E+00 0.  1.
     999900   -1    0    0    0    0 -0.00000000000E+00 -0.00000000000E+00 -0.74505805969E-08  0.93827000000E+00  0.93827000000E+00 0.  1.
     999902    2    1    2    0    0  0.14275068173E-01  0.89853457328E-02  0.17033064318E-01  0.10199583649E+01  0.10196766286E+01 0.  0.
     999903    2    3    3    0    0 -0.91708131036E-01 -0.54294022774E-01 -0.66475782400E-01  0.12742800437E+00  0.21462629016E-01 0.  0.
         14    1    1    2    0    0 -0.14275068173E-01 -0.89853457328E-02 -0.17033064318E-01  0.23971635099E-01  0.00000000000E+00 0. -1.
     999901    1    3    3    0    0  0.10598319921E+00  0.63279368507E-01  0.83508846718E-01  0.89253036053E+00  0.88000000000E+00 0. -1.
        -11    1    4    4    0    0 -0.25046271835E-01 -0.26475974846E-01 -0.23717581080E-01  0.43486523777E-01  0.51100000000E-03 0.  1.
         11    1    4    4    0    0 -0.66661859201E-01 -0.27818047928E-01 -0.42758201321E-01  0.83941480591E-01  0.51100000000E-03 0. -1.
</event>
<event>
 8    1  0.1122848E+005  0.1043930E+01  0.7957747E-01            NaN
         13   -1    0    0    0    0  0.00000000000E+00  0.00000000000E+00  0.74505805969E-08  0.10566000000E+00  0.10566000000E+00 0.  1.
     999900   -1    0    0    0    0 -0.00000000000E+00 -0.00000000000E+00 -0.74505805969E-08  0.93827000000E+00  0.93827000000E+00 0.  1.
     999902    2    1    2    0    0  0.25299940250E-01  0.18394679510E-01  0.15988957629E-01  0.10088002693E+01  0.10081884176E+01 0.  0.
     999903    2    3    3    0    0  0.37223033721E-01  0.11479443639E+00 -0.12412067004E-01  0.12300024027E+00  0.20289968795E-01 0.  0.
         14    1    1    2    0    0 -0.25299940250E-01 -0.18394679510E-01 -0.15988957629E-01  0.35129730671E-01  0.00000000000E+00 0. -1.
     999901    1    3    3    0    0 -0.11923093471E-01 -0.96399756878E-01  0.28401024633E-01  0.88580002906E+00  0.88000000000E+00 0. -1.
        -11    1    4    4    0    0  0.68344392746E-02  0.40832703054E-01  0.32006934150E-02  0.41527397682E-01  0.51100000000E-03 0. -1.
         11    1    4    4    0    0  0.30388594447E-01  0.73961733334E-01 -0.15612760419E-01  0.81472842587E-01  0.51100000000E-03 0.  1.
</event>
<event>
 8    1  0.1122848E+005  0.1043930E+01  0.7957747E-01            NaN
         13   -1    0    0    0    0  0.00000000000E+00  0.00000000000E+00  0.74505805969E-08  0.10566000000E+00  0.10566000000E+00 0.  1.
     999900   -1    0    0    0    0 -0.00000000000E+00 -0.00000000000E+00 -0.74505805969E-08  0.93827000000E+00  0.93827000000E+00 0. -1.
     999902    2    1    2    0    0  0.38934491479E-02 -0.20938508378E-01 -0.44278770584E-02  0.10221771571E+01  0.10219456709E+01 0.  0.
     999903    2    3    3    0    0  0.22900044817E-01 -0.66969303639E-01  0.11111952172E+00  0.13322761625E+00  0.19817919714E-01 0.  0.
         14    1    1    2    0    0 -0.38934491479E-02  0.20938508378E-01  0.44278770584E-02  0.21752842909E-01  0.00000000000E+00 0. -1.
     999901    1    3    3    0    0 -0.19006595669E-01  0.46030795261E-01 -0.11554739878E+00  0.88894954084E+00  0.88000000000E+00 0. -1.
        -11    1    4    4    0    0  0.79184738986E-02 -0.35503928346E-01  0.73084550927E-01  0.81638494977E-01  0.51100000000E-03 0. -1.
         11    1    4    4    0    0  0.14981570918E-01 -0.31465375293E-01  0.38034970797E-01  0.51589121276E-01  0.51100000000E-03 0.  1.
</event>
