<event>
 8    1  0.1120016E+005  0.1043930E+01  0.7957747E-01            NaN
         13   -1    0    0    0    0  0.00000000000E+00  0.00000000000E+00  0.74505805969E-08  0.10566000000E+00  0.10566000000E+00 0.  1.
     999900   -1    0    0    0    0 -0.00000000000E+00 -0.00000000000E+00 -0.74505805969E-08  0.93827000000E+00  0.93827000000E+00 0. -1.
     999902    2    1    2    0    0  0.16136944712E-01  0.15900782816E-01  0.75213536443E-02  0.10200593771E+01  0.10197800381E+01 0.  0.
     999903    2    3    3    0    0  0.25749765976E-01 -0.33934441221E-01  0.12235132179E+00  0.13114887680E+00  0.20385906752E-01 0.  0.
         14    1    1    2    0    0 -0.16136944712E-01 -0.15900782816E-01 -0.75213536443E-02  0.23870622937E-01  0.00000000000E+00 0. -1.
     999901    1    3    3    0    0 -0.96128212646E-02  0.49835224036E-01 -0.11482996815E+00  0.88891050026E+00  0.88000000000E+00 0. -1.
        -11    1    4    4    0    0  0.28179229164E-01 -0.33409804269E-01  0.10690560147E+00  0.11549611562E+00  0.51100000000E-03 0. -1.
         11    1    4    4    0    0 -0.24294631873E-02 -0.52463695123E-03  0.15445720324E-01  0.15652761183E-01  0.51100000000E-03 0.  1.
</event>
<event>
 8    1  0.1120016E+005  0.1043930E+01  0.7957747E-01            NaN
         13   -1    0    0    0    0  0.00000000000E+00  0.00000000000E+00  0.74505805969E-08  0.10566000000E+00  0.10566000000E+00 0.  1.
     999900   -1    0    0    0    0 -0.00000000000E+00 -0.00000000000E+00 -0.74505805969E-08  0.93827000000E+00  0.93827000000E+00 0.  1.
     999902    2    1    2    0    0 -0.38864550647E-02 -0.15203319475E-01  0.16168582594E-01  0.10213984994E+01  0.10211499528E+01 0.  0.
     999903    2    3    3    0    0  0.10986216595E+00 -0.16747735540E-01  0.69931535396E-01  0.13244878817E+00  0.17380439966E-01 0.  0.
         14    1    1    2    0    0  0.38864550647E-02  0.15203319475E-01 -0.16168582594E-01  0.22531500597E-01  0.00000000000E+00 0. -1.
     999901    1    3    3    0    0 -0.11374862101E+00  0.15444160650E-02 -0.53762952802E-01  0.88894971123E+00  0.88000000000E+00 0. -1.
        -11    1    4    4    0    0  0.47709623566E-01  0.58324378878E-03  0.25470296811E-01  0.54088311998E-01  0.51100000000E-03 0.  1.
         11    1    4    4    0    0  0.62152542381E-01 -0.17330979329E-01  0.44461238585E-01  0.78360476175E-01  0.51100000000E-03 0. -1.
</event>
<event>
 8    1  0.1120016E+005  0.1043930E+01  0.7957747E-01            NaN
         13   -1    0    0    0    0  0.00000000000E+00  0.00000000000E+00  0.74505805969E-08  0.10566000000E+00  0.10566000000E+00 0.  1.
     999900   -1    0    0    0    0 -0.00000000000E+00 -0.00000000000E+00 -0.74505805969E-08  0.93827000000E+00  0.93827000000E+00 0. -1.
     999902    2    1    2    0    0 -0.18624689162E-02 -0.22564084395E-01  0.51501048120E-02  0.10207108210E+01  0.10204466913E+01 0.  0.
     999903    2    3    3    0    0 -0.63345679026E-01 -0.11355325220E+00 -0.22549419197E-01  0.13345297941E+00  0.19854603308E-01 0.  0.
         14    1    1    2    0    0  0.18624689162E-02  0.22564084395E-01 -0.51501048120E-02  0.23219179026E-01  0.00000000000E+00 0. -1.
     999901    1    3    3    0    0  0.61483210110E-01  0.90989167800E-01  0.27699524009E-01  0.88725784156E+00  0.88000000000E+00 0. -1.
        -11    1    4    4    0    0 -0.23660623636E-01 -0.55224073276E-01 -0.26092090946E-02  0.60138111653E-01  0.51100000000E-03 0. -1.
         11    1    4    4    0    0 -0.39685055390E-01 -0.58329178919E-01 -0.19940210103E-01  0.73314867759E-01  0.51100000000E-03 0.  1.
</event>
<event>
 8    1  0.1120016E+005  0.1043930E+01  0.7957747E-01            NaN
         13   -1    0    0    0    0  0.00000000000E+00  0.00000000000E+00  0.74505805969E-08  0.10566000000E+00  0.10566000000E+00 0. -1.
     999900   -1    0    0    0    0 -0.00000000000E+00 -0.00000000000E+00 -0.74505805969E-08  0.93827000000E+00  0.93827000000E+00 0.  1.
     999902    2    1    2    0    0  0.44405865924E-02 -0.21960560502E-01 -0.74128812165E-02  0.10203305120E+01  0.10200575561E+01 0.  0.
     999903    2    3    3    0    0 -0.84492116602E-01 -0.91476601798E-01  0.38564959715E-01  0.13193000120E+00  0.20282570229E-01 0.  0.
         14    1    1    2    0    0 -0.44405865924E-02  0.21960560502E-01  0.74128812165E-02  0.23599488019E-01  0.00000000000E+00 0. -1.
     999901    1    3    3    0    0  0.88932703194E-01  0.69516041295E-01 -0.45977840931E-01  0.88840051078E+00  0.88000000000E+00 0. -1.
        -11    1    4    4    0    0 -0.37661429520E-01 -0.34432453752E-01  0.25231953135E-01  0.56928812784E-01  0.51100000000E-03 0. -1.
         11    1    4    4    0    0 -0.46830687082E-01 -0.57044148045E-01  0.13333006579E-01  0.75001188419E-01  0.51100000000E-03 0.  1.
</event>
<event>
 8    1  0.1120016E+005  0.1043930E+01  0.7957747E-01            NaN
         13   -1    0    0    0    0  0.00000000000E+00  0.00000000000E+00  0.74505805969E-08  0.10566000000E+00  0.10566000000E+00 0.  1.
     999900   -1    0    0    0    0 -0.00000000000E+00 -0.00000000000E+00 -0.74505805969E-08  0.93827000000E+00  0.93827000000E+00 0.  1.
     999902    2    1    2    0    0  0.12773065990E-01  0.72631530697E-02 -0.15706623331E-01  0.10224218010E+01  0.10221955471E+01 0.  0.
     999903    2    3    3    0    0 -0.10082286334E+00  0.29241784711E-01 -0.78767279414E-01  0.13261073019E+00  0.18999729194E-01 0.  0.
         14    1    1    2    0    0 -0.12773065990E-01 -0.72631530697E-02  0.15706623331E-01  0.21508198989E-01  0.00000000000E+00 0.  1.
     999901    1    3    3    0    0  0.11359592933E+00 -0.21978631642E-01  0.63060656083E-01  0.88981107082E+00  0.88000000000E+00 0.  1.
        -11    1    4    4    0    0 -0.83851146045E-01  0.22156475667E-01 -0.72902108574E-01  0.11330005588E+00  0.51100000000E-03 0. -1.
         11    1    4    4    0    0 -0.16971717297E-01  0.70853090440E-02 -0.58651708399E-02  0.19310674309E-01  0.51100000000E-03 0.  1.
</event>
<event>
 8    1  0.1120016E+005  0.1043930E+01  0.7957747E-01            NaN
         13   -1    0    0    0    0  0.00000000000E+00  0.00000000000E+00  0.74505805969E-08  0.10566000000E+00  0.10566000000E+00 0.  1.
     999900   -1    0    0    0    0 -0.00000000000E+00 -0.00000000000E+00 -0.74505805969E-08  0.93827000000E+00  0.93827000000E+00 0.  1.
     999902    2    1    2    0    0 -0.19551278712E-01 -0.76852420110E-02  0.77984925578E-04  0.10229223460E+01  0.10227066072E+01 0.  0.
     999903    2    3    3    0    0 -0.65551471487E-01 -0.15113785104E-01  0.11457945967E+00  0.13428193016E+00  0.19436107506E-01 0.  0.
         14    1    1    2    0    0  0.19551278712E-01  0.76852420110E-02 -0.77984925578E-04  0.21007653979E-01  0.00000000000E+00 0.  1.
     999901    1    3    3    0    0  0.46000192775E-01  0.74285430929E-02 -0.11450147474E+00  0.88864041586E+00  0.88000000000E+00 0.  1.
        -11    1    4    4    0    0 -0.61186516741E-02  0.12448631408E-03  0.24728889681E-01  0.25480041228E-01  0.51100000000E-03 0. -1.
         11    1    4    4    0    0 -0.59432819813E-01 -0.15238271418E-01  0.89850569987E-01  0.10880188893E+00  0.51100000000E-03 0.  1.
</event>
<event>
 8    1  0.1120016E+005  0.1043930E+01  0.7957747E-01            NaN
         13   -1    0    0    0    0  0.00000000000E+00  0.00000000000E+00  0.74505805969E-08  0.10566000000E+00  0.10566000000E+00 0. -1.
     999900   -1    0    0    0    0 -0.00000000000E+00 -0.00000000000E+00 -0.74505805969E-08  0.93827000000E+00  0.93827000000E+00 0. -1.
     999902    2    1    2    0    0 -0.22205329247E-01 -0.23160066582E-02 -0.57381256826E-02  0.10208786091E+01  0.10206183263E+01 0.  0.
     999903    2    3    3    0    0 -0.11910971962E+00  0.56887369224E-01 -0.34822951908E-02  0.13357900396E+00  0.20197173935E-01 0.  0.
         14    1    1    2    0    0  0.22205329247E-01  0.23160066582E-02  0.57381256826E-02  0.23051390851E-01  0.00000000000E+00 0. -1.
     999901    1    3    3    0    0  0.96904390374E-01 -0.59203375882E-01 -0.22558304918E-02  0.88729960518E+00  0.88000000000E+00 0. -1.
        -11    1    4    4    0    0 -0.89192910001E-01  0.46965591840E-01  0.50217132229E-02  0.10092879042E+00  0.51100000000E-03 0.  1.
         11    1    4    4    0    0 -0.29916809620E-01  0.99217773846E-02 -0.85040084137E-02  0.32650213543E-01  0.51100000000E-03 0. -1.
</event>
<event>
 8    1  0.1120016E+005  0.1043930E+01  0.7957747E-01            NaN
         13   -1    0    0    0    0  0.00000000000E+00  0.00000000000E+00  0.74505805969E-08  0.10566000000E+00  0.10566000000E+00 0. -1.
     999900   -1    0    0    0    0 -0.00000000000E+00 -0.00000000000E+00 -0.74505805969E-08  0.93827000000E+00  0.93827000000E+00 0.  1.
     999902    2    1    2    0    0 -0.22242128687E-01  0.96399336835E-02 -0.65716413309E-02  0.10188137288E+01  0.10185040927E+01 0.  0.
     999903    2    3    3    0    0  0.12057907386E+00  0.28981281761E-01  0.16372151381E-01  0.12679444577E+00  0.20725742238E-01 0.  0.
         14    1    1    2    0    0  0.22242128687E-01 -0.96399336835E-02  0.65716413309E-02  0.25116271215E-01  0.00000000000E+00 0. -1.
     999901    1    3    3    0    0 -0.14282120255E+00 -0.19341348077E-01 -0.22943792712E-01  0.89201928301E+00  0.88000000000E+00 0.  1.
        -11    1    4    4    0    0  0.56132668342E-01  0.94016886195E-02  0.17111471678E-01  0.59433423157E-01  0.51100000000E-03 0.  1.
         11    1    4    4    0    0  0.64446405522E-01  0.19579593141E-01 -0.73932029710E-03  0.67361022615E-01  0.51100000000E-03 0. -1.
</event>
<event>
 8    1  0.1120016E+005  0.1043930E+01  0.7957747E-01            NaN
         13   -1    0    0    0    0  0.00000000000E+00  0.00000000000E+00  0.74505805969E-08  0.10566000000E+00  0.10566000000E+00 0.  1.
     999900   -1    0    0    0    0 -0.00000000000E+00 -0.00000000000E+00 -0.74505805969E-08  0.93827000000E+00  0.93827000000E+00 0. -1.
     999902    2    1    2    0    0  0.18741125522E-01 -0.15446537125E-01 -0.28112727783E-02  0.10194815123E+01  0.10191883170E+01 0.  0.
     999903    2    3    3    0    0  0.32161602805E-01  0.96718016426E-01 -0.76648293605E-01  0.12919341180E+00  0.20669623718E-01 0.  0.
         14    1    1    2    0    0 -0.18741125522E-01  0.15446537125E-01  0.28112727783E-02  0.24448487675E-01  0.00000000000E+00 0. -1.
     999901    1    3    3    0    0 -0.13420477283E-01 -0.11216455355E+00  0.73837020826E-01  0.89028810052E+00  0.88000000000E+00 0.  1.
        -11    1    4    4    0    0  0.21234701629E-01  0.63544045067E-01 -0.37711064985E-01  0.76883962958E-01  0.51100000000E-03 0. -1.
         11    1    4    4    0    0  0.10926901175E-01  0.33173971359E-01 -0.38937228620E-01  0.52309448847E-01  0.51100000000E-03 0.  1.
</event>
<event>
 8    1  0.1120016E+005  0.1043930E+01  0.7957747E-01            NaN
         13   -1    0    0    0    0  0.00000000000E+00  0.00000000000E+00  0.74505805969E-08  0.10566000000E+00  0.10566000000E+00 0.  1.
     999900   -1    0    0    0    0 -0.00000000000E+00 -0.00000000000E+00 -0.74505805969E-08  0.93827000000E+00  0.93827000000E+00 0. -1.
     999902    2    1    2    0    0  0.93425498941E-02 -0.18949772151E-01  0.57128083232E-02  0.10220436279E+01  0.10218092601E+01 0.  0.
     999903    2    3    3    0    0 -0.70467183722E-02  0.41345627219E-01 -0.12191251050E+00  0.13064452243E+00  0.21123775542E-01 0.  0.
         14    1    1    2    0    0 -0.93425498941E-02  0.18949772151E-01 -0.57128083232E-02  0.21886372062E-01  0.00000000000E+00 0. -1.
     999901    1    3    3    0    0  0.16389268266E-01 -0.60295399369E-01  0.12762531883E+00  0.89139910551E+00  0.88000000000E+00 0.  1.
        -11    1    4    4    0    0  0.70084408086E-03 -0.72627443415E-03 -0.21092442592E-01  0.21122758164E-01  0.51100000000E-03 0.  1.
         11    1    4    4    0    0 -0.77475624531E-02  0.42071901653E-01 -0.10082006791E+00  0.10952176426E+00  0.51100000000E-03 0. -1.
</event>
<event>
 8    1  0.1120016E+005  0.1043930E+01  0.7957747E-01            NaN
         13   -1    0    0    0    0  0.00000000000E+00  0.00000000000E+00  0.74505805969E-08  0.10566000000E+00  0.10566000000E+00 0.  1.
     999900   -1    0    0    0    0 -0.00000000000E+00 -0.00000000000E+00 -0.74505805969E-08  0.93827000000E+00  0.93827000000E+00 0.  1.
     999902    2    1    2    0    0  0.14922311402E-01 -0.18415299011E-01 -0.35441972728E-02  0.10199641921E+01  0.10196825943E+01 0.  0.
     999903    2    3    3    0    0 -0.11920706837E+00 -0.34933009251E-01  0.30035649601E-01  0.12901462482E+00  0.17663320399E-01 0.  0.
         14    1    1    2    0    0 -0.14922311402E-01  0.18415299011E-01  0.35441972728E-02  0.23965807926E-01  0.00000000000E+00 0.  1.
     999901    1    3    3    0    0  0.13412937977E+00  0.16517710240E-01 -0.33579846873E-01  0.89094956725E+00  0.88000000000E+00 0.  1.
        -11    1    4    4    0    0 -0.80166173325E-01 -0.21872793690E-01  0.28379998669E-01  0.87810704899E-01  0.51100000000E-03 0. -1.
         11    1    4    4    0    0 -0.39040895042E-01 -0.13060215561E-01  0.16556509316E-02  0.41203919925E-01  0.51100000000E-03 0.  1.
</event>
<event>
 8    1  0.1120016E+005  0.1043930E+01  0.7957747E-01            NaN
         13   -1    0    0    0    0  0.00000000000E+00  0.00000000000E+00  0.74505805969E-08  0.10566000000E+00  0.10566000000E+00 0.  1.
     999900   -1    0    0    0    0 -0.00000000000E+00 -0.00000000000E+00 -0.74505805969E-08  0.93827000000E+00  0.93827000000E+00 0. -1.
     999902    2    1    2    0    0 -0.12500251999E-01  0.79894465938E-03  0.21150467245E-01  0.10193487698E+01  0.10190523429E+01 0.  0.
     999903    2    3    3    0    0 -0.91043459218E-01  0.25199655909E-01 -0.85377617193E-01  0.12911696692E+00  0.21399053850E-01 0.  0.
         14    1    1    2    0    0  0.12500251999E-01 -0.79894465938E-03 -0.21150467245E-01  0.24581230182E-01  0.00000000000E+00 0.  1.
     999901    1    3    3    0    0  0.78543207219E-01 -0.24400711250E-01  0.10652808444E+00  0.89023180289E+00  0.88000000000E+00 0.  1.
        -11    1    4    4    0    0 -0.58159907632E-01  0.26085420869E-01 -0.52161834256E-01  0.82365903817E-01  0.51100000000E-03 0.  1.
         11    1    4    4    0    0 -0.32883551585E-01 -0.88576495940E-03 -0.33215782938E-01  0.46751063106E-01  0.51100000000E-03 0. -1.
</event>
<event>
 8    1  0.1120016E+005  0.1043930E+01  0.7957747E-01            NaN
         13   -1    0    0    0    0  0.00000000000E+00  0.00000000000E+00  0.74505805969E-08  0.10566000000E+00  0.10566000000E+00 0. -1.
     999900   -1    0    0    0    0 -0.00000000000E+00 -0.00000000000E+00 -0.74505805969E-08  0.93827000000E+00  0.93827000000E+00 0. -1.
     999902    2    1    2    0    0  0.18851095178E-01  0.12157045514E-01 -0.33073626621E-02  0.10212563106E+01  0.10210045816E+01 0.  0.
     999903    2    3    3    0    0  0.32805736791E-02 -0.96417846076E-01  0.85476451776E-01  0.13001363097E+00  0.17034001974E-01 0.  0.
         14    1    1    2    0    0 -0.18851095178E-01 -0.12157045514E-01  0.33073626621E-02  0.22673689440E-01  0.00000000000E+00 0. -1.
     999901    1    3    3    0    0  0.15570521498E-01  0.10857489159E+00 -0.88783814438E-01  0.89124267959E+00  0.88000000000E+00 0.  1.
        -11    1    4    4    0    0 -0.48916550785E-02 -0.27012044152E-01  0.17749589765E-01  0.32693850744E-01  0.51100000000E-03 0.  1.
         11    1    4    4    0    0  0.81722287576E-02 -0.69405801924E-01  0.67726862011E-01  0.97319780222E-01  0.51100000000E-03 0. -1.
</event>
<event>
 8    1  0.1120016E+005  0.1043930E+01  0.7957747E-01            NaN
         13   -1    0    0    0    0  0.00000000000E+00  0.00000000000E+00  0.74505805969E-08  0.10566000000E+00  0.10566000000E+00 0. -1.
     999900   -1    0    0    0    0 -0.00000000000E+00 -0.00000000000E+00 -0.74505805969E-08  0.93827000000E+00  0.93827000000E+00 0.  1.
     999902    2    1    2    0    0 -0.22598353438E-01  0.93324125845E-02  0.29130879288E-02  0.10193075390E+01  0.10190101047E+01 0.  0.
     999903    2    3    3    0    0 -0.21864042063E-01  0.35784937543E-01 -0.12150725977E+00  0.13016148904E+00  0.20479281290E-01 0.  0.
         14    1    1    2    0    0  0.22598353438E-01 -0.93324125845E-02 -0.29130879288E-02  0.24622460966E-01  0.00000000000E+00 0.  1.
     999901    1    3    3    0    0 -0.73431137545E-03 -0.26452524958E-01  0.12442034770E+00  0.88914604999E+00  0.88000000000E+00 0. -1.
        -11    1    4    4    0    0 -0.10137283803E-01  0.46748926330E-02 -0.15833263927E-01  0.19379693280E-01  0.51100000000E-03 0. -1.
         11    1    4    4    0    0 -0.11726758260E-01  0.31110044910E-01 -0.10567399585E+00  0.11078179576E+00  0.51100000000E-03 0.  1.
</event>
<event>
 8    1  0.1120016E+005  0.1043930E+01  0.7957747E-01            NaN
         13   -1    0    0    0    0  0.00000000000E+00  0.00000000000E+00  0.74505805969E-08  0.10566000000E+00  0.10566000000E+00 0.  1.
     999900   -1    0    0    0    0 -0.00000000000E+00 -0.00000000000E+00 -0.74505805969E-08  0.93827000000E+00  0.93827000000E+00 0. -1.
     999902    2    1    2    0    0 -0.10147411813E-01 -0.15635456883E-01 -0.13758273775E-01  0.10207626183E+01  0.10204996792E+01 0.  0.
     999903    2    3    3    0    0 -0.10294883390E+00 -0.75971748179E-01  0.27153728491E-01  0.13288516958E+00  0.23472843904E-01 0.  0.
         14    1    1    2    0    0  0.10147411813E-01  0.15635456883E-01  0.13758273775E-01  0.23167381719E-01  0.00000000000E+00 0.  1.
     999901    1    3    3    0    0  0.92801422082E-01  0.60336291296E-01 -0.40912002266E-01  0.88787744870E+00  0.88000000000E+00 0.  1.
        -11    1    4    4    0    0 -0.42344511431E-01 -0.26086785235E-01  0.21499779009E-01  0.54185603537E-01  0.51100000000E-03 0.  1.
         11    1    4    4    0    0 -0.60604322464E-01 -0.49884962943E-01  0.56539494824E-02  0.78699566040E-01  0.51100000000E-03 0. -1.
</event>
<event>
 8    1  0.1120016E+005  0.1043930E+01  0.7957747E-01            NaN
         13   -1    0    0    0    0  0.00000000000E+00  0.00000000000E+00  0.74505805969E-08  0.10566000000E+00  0.10566000000E+00 0. -1.
     999900   -1    0    0    0    0 -0.00000000000E+00 -0.00000000000E+00 -0.74505805969E-08  0.93827000000E+00  0.93827000000E+00 0.  1.
     999902    2    1    2    0    0  0.21361269665E-01 -0.75695807795E-02  0.49321554354E-04  0.10212671487E+01  0.10210156631E+01 0.  0.
     999903    2    3    3    0    0 -0.89843022553E-01  0.62157154164E-01 -0.65693319272E-01  0.12910667718E+00  0.20436276111E-01 0.  0.
         14    1    1    2    0    0 -0.21361269665E-01  0.75695807795E-02 -0.49321554354E-04  0.22662851266E-01  0.00000000000E+00 0. -1.
     999901    1    3    3    0    0  0.11120429222E+00 -0.69726734943E-01  0.65742640827E-01  0.89216047155E+00  0.88000000000E+00 0. -1.
        -11    1    4    4    0    0 -0.67637153233E-01  0.52767992757E-01 -0.58873727115E-01  0.10404625136E+00  0.51100000000E-03 0. -1.
         11    1    4    4    0    0 -0.22205869320E-01  0.93891614065E-02 -0.68195921569E-02  0.25060425822E-01  0.51100000000E-03 0.  1.
</event>
<event>
 8    1  0.1120016E+005  0.1043930E+01  0.7957747E-01            NaN
         13   -1    0    0    0    0  0.00000000000E+00  0.00000000000E+00  0.74505805969E-08  0.10566000000E+00  0.10566000000E+00 0.  1.
     999900   -1    0    0    0    0 -0.00000000000E+00 -0.00000000000E+00 -0.74505805969E-08  0.93827000000E+00  0.93827000000E+00 0.  1.
     999902    2    1    2    0    0  0.13217064853E-01  0.90286219712E-02 -0.17366862868E-01  0.10203118980E+01  0.10200385063E+01 0.  0.
     999903    2    3    3    0    0 -0.74032303074E-01  0.31897567985E-01 -0.10212980643E+00  0.13164987137E+00  0.20073727329E-01 0.  0.
         14    1    1    2    0    0 -0.13217064853E-01 -0.90286219712E-02  0.17366862868E-01  0.23618102039E-01  0.00000000000E+00 0.  1.
     999901    1    3    3    0    0  0.87249367927E-01 -0.22868946014E-01  0.84762943566E-01  0.88866202659E+00  0.88000000000E+00 0. -1.
        -11    1    4    4    0    0 -0.24891484495E-02  0.66482885738E-02 -0.71627242086E-02  0.10097590804E-01  0.51100000000E-03 0.  1.
         11    1    4    4    0    0 -0.71543154624E-01  0.25249279412E-01 -0.94967082225E-01  0.12155228057E+00  0.51100000000E-03 0. -1.
</event>
<event>
 8    1  0.1120016E+005  0.1043930E+01  0.7957747E-01            NaN
         13   -1    0    0    0    0  0.00000000000E+00  0.00000000000E+00  0.74505805969E-08  0.10566000000E+00  0.10566000000E+00 0.  1.
     999900   -1    0    0    0    0 -0.00000000000E+00 -0.00000000000E+00 -0.74505805969E-08  0.93827000000E+00  0.93827000000E+00 0.  1.
     999902    2    1    2    0    0  0.35282632457E-02  0.11603755065E-01 -0.20957270015E-01  0.10197163068E+01  0.10194287829E+01 0.  0.
     999903    2    3    3    0    0  0.21438456643E-01  0.79656906493E-01 -0.10257255625E+00  0.13314253015E+00  0.20024331810E-01 0.  0.
         14    1    1    2    0    0 -0.35282632457E-02 -0.11603755065E-01  0.20957270015E-01  0.24213693225E-01  0.00000000000E+00 0.  1.
     999901    1    3    3    0    0 -0.17910193398E-01 -0.68053151428E-01  0.81615286236E-01  0.88657377662E+00  0.88000000000E+00 0.  1.
        -11    1    4    4    0    0  0.12650063628E-01  0.52256662231E-01 -0.51136080059E-01  0.74202039474E-01  0.51100000000E-03 0. -1.
         11    1    4    4    0    0  0.87883930155E-02  0.27400244261E-01 -0.51436476192E-01  0.58940490678E-01  0.51100000000E-03 0.  1.
</event>
<event>
 8    1  0.1120016E+005  0.1043930E+01  0.7957747E-01            NaN
         13   -1    0    0    0    0  0.00000000000E+00  0.00000000000E+00  0.74505805969E-08  0.10566000000E+00  0.10566000000E+00 0.  1.
     999900   -1    0    0    0    0 -0.00000000000E+00 -0.00000000000E+00 -0.74505805969E-08  0.93827000000E+00  0.93827000000E+00 0.  1.
     999902    2    1    2    0    0  0.36805347335E-02  0.11512720275E-01  0.20562724731E-01  0.10200780669E+01  0.10197991704E+01 0.  0.
     999903    2    3    3    0    0  0.58403953374E-01 -0.26732617315E-01 -0.10905766976E+00  0.12808097887E+00  0.19634337682E-01 0.  0.
         14    1    1    2    0    0 -0.36805347335E-02 -0.11512720275E-01 -0.20562724731E-01  0.23851933096E-01  0.00000000000E+00 0. -1.
     999901    1    3    3    0    0 -0.54723418640E-01  0.38245337590E-01  0.12962039449E+00  0.89199708804E+00  0.88000000000E+00 0.  1.
        -11    1    4    4    0    0  0.20160523695E-01 -0.18757692177E-01 -0.37162163781E-01  0.46255651215E-01  0.51100000000E-03 0.  1.
         11    1    4    4    0    0  0.38243429679E-01 -0.79749251378E-02 -0.71895505980E-01  0.81825327654E-01  0.51100000000E-03 0. -1.
</event>
<event>
 8    1  0.1120016E+005  0.1043930E+01  0.7957747E-01            NaN
         13   -1    0    0    0    0  0.00000000000E+00  0.00000000000E+00  0.74505805969E-08  0.10566000000E+00  0.10566000000E+00 0. -1.
     999900   -1    0    0    0    0 -0.00000000000E+00 -0.00000000000E+00 -0.74505805969E-08  0.93827000000E+00  0.93827000000E+00 0. -1.
     999902    2    1    2    0    0  0.82434054099E-02 -0.17906300693E-01  0.98161631265E-02  0.10219085015E+01  0.10216711991E+01 0.  0.
     999903    2    3    3    0    0  0.11629417170E+00 -0.63064242838E-01 -0.70712486307E-02  0.13398992838E+00  0.20046577105E-01 0.  0.
         14    1    1    2    0    0 -0.82434054099E-02  0.17906300693E-01 -0.98161631265E-02  0.22021498491E-01  0.00000000000E+00 0.  1.
     999901    1    3    3    0    0 -0.10805076629E+00  0.45157942144E-01  0.16887411757E-01  0.88791857313E+00  0.88000000000E+00 0.  1.
        -11    1    4    4    0    0  0.62388884327E-01 -0.41216983258E-01  0.35555437789E-02  0.74860641254E-01  0.51100000000E-03 0.  1.
         11    1    4    4    0    0  0.53905287372E-01 -0.21847259580E-01 -0.10626792410E-01  0.59129287124E-01  0.51100000000E-03 0. -1.
</event>
<event>
 8    1  0.1161306E+005  0.1043930E+01  0.7957747E-01            NaN
         13   -1    0    0    0    0  0.00000000000E+00  0.00000000000E+00  0.74505805969E-08  0.10566000000E+00  0.10566000000E+00 0. -1.
     999900   -1    0    0    0    0 -0.00000000000E+00 -0.00000000000E+00 -0.74505805969E-08  0.93827000000E+00  0.93827000000E+00 0.  1.
     999902    2    1    2    0    0  0.22072572934E-03  0.22024604855E-01 -0.11366579171E-01  0.10191442972E+01  0.10188428571E+01 0.  0.
     999903    2    3    3    0    0 -0.96268775814E-02 -0.12276188033E+00  0.21674748282E-01  0.12664677294E+00  0.20160712978E-01 0.  0.
         14    1    1    2    0    0 -0.22072572934E-03 -0.22024604855E-01  0.11366579171E-01  0.24785702752E-01  0.00000000000E+00 0.  1.
     999901    1    3    3    0    0  0.98476033108E-02  0.14478648519E+00 -0.33041327453E-01  0.89249752431E+00  0.88000000000E+00 0.  1.
        -11    1    4    4    0    0 -0.60703408175E-02 -0.70038245773E-01  0.22434210623E-01  0.73795391698E-01  0.51100000000E-03 0.  1.
         11    1    4    4    0    0 -0.35565367639E-02 -0.52723634558E-01 -0.75946234117E-03  0.52851381238E-01  0.51100000000E-03 0. -1.
</event>
<event>
 8    1  0.1120016E+005  0.1043930E+01  0.7957747E-01            NaN
         13   -1    0    0    0    0  0.00000000000E+00  0.00000000000E+00  0.74505805969E-08  0.10566000000E+00  0.10566000000E+00 0.  1.
     999900   -1    0    0    0    0 -0.00000000000E+00 -0.00000000000E+00 -0.74505805969E-08  0.93827000000E+00  0.93827000000E+00 0.  1.
     999902    2    1    2    0    0  0.15295280841E-01 -0.48092110616E-02 -0.11856964281E-01  0.10239885425E+01  0.10237943511E+01 0.  0.
     999903    2    3    3    0    0 -0.10337178850E+00 -0.80987417089E-01 -0.52054886389E-02  0.13273704341E+00  0.18636984657E-01 0.  0.
         14    1    1    2    0    0 -0.15295280841E-01  0.48092110616E-02  0.11856964281E-01  0.19941457545E-01  0.00000000000E+00 0.  1.
     999901    1    3    3    0    0  0.11866706934E+00  0.76178206028E-01 -0.66514756424E-02  0.89125149904E+00  0.88000000000E+00 0.  1.
        -11    1    4    4    0    0 -0.10282429337E-01 -0.62119801586E-02 -0.57588462584E-02  0.13332009668E-01  0.51100000000E-03 0.  1.
         11    1    4    4    0    0 -0.93089359164E-01 -0.74775436931E-01  0.55335761950E-03  0.11940503374E+00  0.51100000000E-03 0. -1.
</event>
<event>
 8    1  0.1120016E+005  0.1043930E+01  0.7957747E-01            NaN
         13   -1    0    0    0    0  0.00000000000E+00  0.00000000000E+00  0.74505805969E-08  0.10566000000E+00  0.10566000000E+00 0.  1.
     999900   -1    0    0    0    0 -0.00000000000E+00 -0.00000000000E+00 -0.74505805969E-08  0.93827000000E+00  0.93827000000E+00 0.  1.
     999902    2    1    2    0    0 -0.21547671367E-02 -0.23519464492E-01 -0.61845534573E-02  0.10195157228E+01  0.10192233573E+01 0.  0.
     999903    2    3    3    0    0 -0.52245360543E-01 -0.29917535234E-01  0.11359589633E+00  0.12996675896E+00  0.19044530922E-01 0.  0.
         14    1    1    2    0    0  0.21547671367E-02  0.23519464492E-01  0.61845534573E-02  0.24414277234E-01  0.00000000000E+00 0.  1.
     999901    1    3    3    0    0  0.50090593407E-01  0.63980707418E-02 -0.11978044979E+00  0.88954896381E+00  0.88000000000E+00 0.  1.
        -11    1    4    4    0    0 -0.12737847839E-01 -0.13929749391E-01  0.49632210963E-01  0.53102807569E-01  0.51100000000E-03 0.  1.
         11    1    4    4    0    0 -0.39507512704E-01 -0.15987785843E-01  0.63963685369E-01  0.76863951390E-01  0.51100000000E-03 0. -1.
</event>
<event>
 8    1  0.1120016E+005  0.1043930E+01  0.7957747E-01            NaN
         13   -1    0    0    0    0  0.00000000000E+00  0.00000000000E+00  0.74505805969E-08  0.10566000000E+00  0.10566000000E+00 0. -1.
     999900   -1    0    0    0    0 -0.00000000000E+00 -0.00000000000E+00 -0.74505805969E-08  0.93827000000E+00  0.93827000000E+00 0.  1.
     999902    2    1    2    0    0  0.20753643936E-01 -0.17990443461E-02  0.11686227847E-01  0.10200444768E+01  0.10197647849E+01 0.  0.
     999903    2    3    3    0    0  0.11287129638E+00 -0.47067709448E-01  0.49116649949E-01  0.13328861952E+00  0.19952743458E-01 0.  0.
         14    1    1    2    0    0 -0.20753643936E-01  0.17990443461E-02 -0.11686227847E-01  0.23885523199E-01  0.00000000000E+00 0.  1.
     999901    1    3    3    0    0 -0.92117652442E-01  0.45268665101E-01 -0.37430422102E-01  0.88675585729E+00  0.88000000000E+00 0.  1.
        -11    1    4    4    0    0  0.31050345144E-01 -0.15607531590E-01  0.23518147779E-01  0.41965263872E-01  0.51100000000E-03 0. -1.
         11    1    4    4    0    0  0.81820951234E-01 -0.31460177857E-01  0.25598502170E-01  0.91323355644E-01  0.51100000000E-03 0.  1.
</event>
<event>
 8    1  0.1120016E+005  0.1043930E+01  0.7957747E-01            NaN
         13   -1    0    0    0    0  0.00000000000E+00  0.00000000000E+00  0.74505805969E-08  0.10566000000E+00  0.10566000000E+00 0.  1.
     999900   -1    0    0    0    0 -0.00000000000E+00 -0.00000000000E+00 -0.74505805969E-08  0.93827000000E+00  0.93827000000E+00 0. -1.
     999902    2    1    2    0    0  0.14107196317E-01  0.73249076090E-02 -0.17192199609E-01  0.10205154962E+01  0.10202468520E+01 0.  0.
     999903    2    3    3    0    0  0.95321973152E-02  0.64720924453E-01  0.10983623335E+00  0.12953207543E+00  0.20854245636E-01 0.  0.
         14    1    1    2    0    0 -0.14107196317E-01 -0.73249076090E-02  0.17192199609E-01  0.23414503770E-01  0.00000000000E+00 0.  1.
     999901    1    3    3    0    0  0.45749990013E-02 -0.57396016844E-01 -0.12702843296E+00  0.89098342080E+00  0.88000000000E+00 0. -1.
        -11    1    4    4    0    0  0.14317876475E-01  0.27502719018E-01  0.45843686141E-01  0.55347139222E-01  0.51100000000E-03 0. -1.
         11    1    4    4    0    0 -0.47856791600E-02  0.37218205435E-01  0.63992547206E-01  0.74184936205E-01  0.51100000000E-03 0.  1.
</event>
<event>
 8    1  0.1120016E+005  0.1043930E+01  0.7957747E-01            NaN
         13   -1    0    0    0    0  0.00000000000E+00  0.00000000000E+00  0.74505805969E-08  0.10566000000E+00  0.10566000000E+00 0. -1.
     999900   -1    0    0    0    0 -0.00000000000E+00 -0.00000000000E+00 -0.74505805969E-08  0.93827000000E+00  0.93827000000E+00 0.  1.
     999902    2    1    2    0    0  0.13695285125E-01 -0.15578432988E-01 -0.11765026540E-01  0.10200833177E+01  0.10198045453E+01 0.  0.
     999903    2    3    3    0    0  0.12159858884E+00 -0.23297957790E-01  0.40907538516E-01  0.13189577377E+00  0.19850863577E-01 0.  0.
         14    1    1    2    0    0 -0.13695285125E-01  0.15578432988E-01  0.11765026540E-01  0.23846682337E-01  0.00000000000E+00 0. -1.
     999901    1    3    3    0    0 -0.10790330372E+00  0.77195248021E-02 -0.52672565056E-01  0.88818754389E+00  0.88000000000E+00 0. -1.
        -11    1    4    4    0    0  0.16147760091E-01  0.24978978129E-02  0.93864740686E-02  0.18850906235E-01  0.51100000000E-03 0.  1.
         11    1    4    4    0    0  0.10545082875E+00 -0.25795855603E-01  0.31521064448E-01  0.11304486754E+00  0.51100000000E-03 0. -1.
</event>
<event>
 8    1  0.1120016E+005  0.1043930E+01  0.7957747E-01            NaN
         13   -1    0    0    0    0  0.00000000000E+00  0.00000000000E+00  0.74505805969E-08  0.10566000000E+00  0.10566000000E+00 0.  1.
     999900   -1    0    0    0    0 -0.00000000000E+00 -0.00000000000E+00 -0.74505805969E-08  0.93827000000E+00  0.93827000000E+00 0. -1.
     999902    2    1    2    0    0  0.19371236166E-01 -0.11714644850E-02 -0.11425034790E-01  0.10214100413E+01  0.10211617521E+01 0.  0.
     999903    2    3    3    0    0  0.69006204219E-01 -0.15849226920E-01 -0.11220931603E+00  0.13414653022E+00  0.19781474957E-01 0.  0.
         14    1    1    2    0    0 -0.19371236166E-01  0.11714644850E-02  0.11425034790E-01  0.22519958694E-01  0.00000000000E+00 0.  1.
     999901    1    3    3    0    0 -0.49634968053E-01  0.14677762435E-01  0.10078428124E+00  0.88726351109E+00  0.88000000000E+00 0.  1.
        -11    1    4    4    0    0  0.28762872513E-02  0.12005041687E-02 -0.15101069873E-01  0.15427821328E-01  0.51100000000E-03 0.  1.
         11    1    4    4    0    0  0.66129916968E-01 -0.17049731089E-01 -0.97108246154E-01  0.11871870889E+00  0.51100000000E-03 0. -1.
</event>
<event>
 8    1  0.1120016E+005  0.1043930E+01  0.7957747E-01            NaN
         13   -1    0    0    0    0  0.00000000000E+00  0.00000000000E+00  0.74505805969E-08  0.10566000000E+00  0.10566000000E+00 0.  1.
     999900   -1    0    0    0    0 -0.00000000000E+00 -0.00000000000E+00 -0.74505805969E-08  0.93827000000E+00  0.93827000000E+00 0.  1.
     999902    2    1    2    0    0  0.10261121284E-02  0.21656125595E-01 -0.80049149750E-02  0.10208189778E+01  0.10205573311E+01 0.  0.
     999903    2    3    3    0    0  0.76781916811E-01 -0.84829576208E-02  0.10278262900E+00  0.13013318240E+00  0.20073689707E-01 0.  0.
         14    1    1    2    0    0 -0.10261121284E-02 -0.21656125595E-01  0.80049149750E-02  0.23111022167E-01  0.00000000000E+00 0.  1.
     999901    1    3    3    0    0 -0.75755804683E-01  0.30139083215E-01 -0.11078754398E+00  0.89068579543E+00  0.88000000000E+00 0.  1.
        -11    1    4    4    0    0  0.39209076225E-01  0.56191999460E-02  0.53705851004E-01  0.66734598369E-01  0.51100000000E-03 0. -1.
         11    1    4    4    0    0  0.37572840586E-01 -0.14102157567E-01  0.49076777998E-01  0.63398584033E-01  0.51100000000E-03 0.  1.
</event>
<event>
 8    1  0.1120016E+005  0.1043930E+01  0.7957747E-01            NaN
         13   -1    0    0    0    0  0.00000000000E+00  0.00000000000E+00  0.74505805969E-08  0.10566000000E+00  0.10566000000E+00 0. -1.
     999900   -1    0    0    0    0 -0.00000000000E+00 -0.00000000000E+00 -0.74505805969E-08  0.93827000000E+00  0.93827000000E+00 0.  1.
     999902    2    1    2    0    0  0.11591605996E-02 -0.39274844485E-02  0.21034062688E-01  0.10225010341E+01  0.10222764617E+01 0.  0.
     999903    2    3    3    0    0  0.67676421468E-01 -0.95439774558E-01  0.62409095468E-01  0.13429444855E+00  0.21242766386E-01 0.  0.
         14    1    1    2    0    0 -0.11591605996E-02  0.39274844485E-02 -0.21034062688E-01  0.21428965924E-01  0.00000000000E+00 0.  1.
     999901    1    3    3    0    0 -0.66517260868E-01  0.91512290110E-01 -0.41375032780E-01  0.88820658553E+00  0.88000000000E+00 0.  1.
        -11    1    4    4    0    0  0.58914973889E-01 -0.67765803627E-01  0.49298261160E-01  0.10243904511E+00  0.51100000000E-03 0.  1.
         11    1    4    4    0    0  0.87614475787E-02 -0.27673970931E-01  0.13110834308E-01  0.31855403435E-01  0.51100000000E-03 0. -1.
</event>
<event>
 8    1  0.1120016E+005  0.1043930E+01  0.7957747E-01            NaN
         13   -1    0    0    0    0  0.00000000000E+00  0.00000000000E+00  0.74505805969E-08  0.10566000000E+00  0.10566000000E+00 0. -1.
     999900   -1    0    0    0    0 -0.00000000000E+00 -0.00000000000E+00 -0.74505805969E-08  0.93827000000E+00  0.93827000000E+00 0. -1.
     999902    2    1    2    0    0 -0.77441778926E-02  0.11508148231E-01 -0.18537488741E-01  0.10207772841E+01  0.10205146816E+01 0.  0.
     999903    2    3    3    0    0 -0.69799467814E-01  0.95954133889E-02  0.10708108360E+00  0.12969112476E+00  0.19733010694E-01 0.  0.
         14    1    1    2    0    0  0.77441778926E-02 -0.11508148231E-01  0.18537488741E-01  0.23152715948E-01  0.00000000000E+00 0. -1.
     999901    1    3    3    0    0  0.62055289921E-01  0.19127348423E-02 -0.12561857234E+00  0.89108615929E+00  0.88000000000E+00 0. -1.
        -11    1    4    4    0    0 -0.13621011889E-01  0.40064190921E-02  0.99545803276E-02  0.17347568974E-01  0.51100000000E-03 0. -1.
         11    1    4    4    0    0 -0.56178455925E-01  0.55889942968E-02  0.97126503275E-01  0.11234355579E+00  0.51100000000E-03 0.  1.
</event>
<event>
 8    1  0.1120016E+005  0.1043930E+01  0.7957747E-01            NaN
         13   -1    0    0    0    0  0.00000000000E+00  0.00000000000E+00  0.74505805969E-08  0.10566000000E+00  0.10566000000E+00 0.  1.
     999900   -1    0    0    0    0 -0.00000000000E+00 -0.00000000000E+00 -0.74505805969E-08  0.93827000000E+00  0.93827000000E+00 0. -1.
     999902    2    1    2    0    0 -0.21810951513E-01 -0.51507249748E-02 -0.88355104040E-02  0.10198402964E+01  0.10195557446E+01 0.  0.
     999903    2    3    3    0    0 -0.63660411764E-01  0.68173485485E-02 -0.11420134825E+00  0.13248660602E+00  0.20288631471E-01 0.  0.
         14    1    1    2    0    0  0.21810951513E-01  0.51507249748E-02  0.88355104040E-02  0.24089703563E-01  0.00000000000E+00 0.  1.
     999901    1    3    3    0    0  0.41849460252E-01 -0.11968073523E-01  0.10536583784E+00  0.88735369041E+00  0.88000000000E+00 0.  1.
        -11    1    4    4    0    0 -0.16095259699E-01 -0.36208406600E-02 -0.44458927835E-01  0.47423889097E-01  0.51100000000E-03 0.  1.
         11    1    4    4    0    0 -0.47565152066E-01  0.10438189208E-01 -0.69742420411E-01  0.85062716926E-01  0.51100000000E-03 0. -1.
</event>
<event>
 8    1  0.1120016E+005  0.1043930E+01  0.7957747E-01            NaN
         13   -1    0    0    0    0  0.00000000000E+00  0.00000000000E+00  0.74505805969E-08  0.10566000000E+00  0.10566000000E+00 0. -1.
     999900   -1    0    0    0    0 -0.00000000000E+00 -0.00000000000E+00 -0.74505805969E-08  0.93827000000E+00  0.93827000000E+00 0. -1.
     999902    2    1    2    0    0  0.56346388247E-02  0.24411637292E-01 -0.26121103091E-02  0.10187407104E+01  0.10184292488E+01 0.  0.
     999903    2    3    3    0    0  0.64827833911E-02 -0.14266856883E-01 -0.12666099867E+00  0.12919876538E+00  0.20093349810E-01 0.  0.
         14    1    1    2    0    0 -0.56346388247E-02 -0.24411637292E-01  0.26121103091E-02  0.25189289594E-01  0.00000000000E+00 0. -1.
     999901    1    3    3    0    0 -0.84814456637E-03  0.38678494175E-01  0.12404888836E+00  0.88954194503E+00  0.88000000000E+00 0.  1.
        -11    1    4    4    0    0 -0.25068179376E-02 -0.15834819951E-01 -0.70734580193E-01  0.72530459912E-01  0.51100000000E-03 0. -1.
         11    1    4    4    0    0  0.89896013287E-02  0.15679630680E-02 -0.55926418473E-01  0.56668305467E-01  0.51100000000E-03 0.  1.
</event>
<event>
 8    1  0.1120016E+005  0.1043930E+01  0.7957747E-01            NaN
         13   -1    0    0    0    0  0.00000000000E+00  0.00000000000E+00  0.74505805969E-08  0.10566000000E+00  0.10566000000E+00 0. -1.
     999900   -1    0    0    0    0 -0.00000000000E+00 -0.00000000000E+00 -0.74505805969E-08  0.93827000000E+00  0.93827000000E+00 0. -1.
     999902    2    1    2    0    0  0.43221697792E-02  0.21001595733E-01  0.10372232385E-01  0.10201112809E+01  0.10198331697E+01 0.  0.
     999903    2    3    3    0    0 -0.12745535983E+00 -0.77261152716E-06 -0.43361730448E-02  0.12992997691E+00  0.24862175121E-01 0.  0.
         14    1    1    2    0    0 -0.43221697792E-02 -0.21001595733E-01 -0.10372232385E-01  0.23818719100E-01  0.00000000000E+00 0.  1.
     999901    1    3    3    0    0  0.13177752961E+00  0.21002368344E-01  0.14708405429E-01  0.89018130399E+00  0.88000000000E+00 0. -1.
        -11    1    4    4    0    0 -0.34631327025E-01  0.86536016586E-02  0.57427743738E-02  0.36158736312E-01  0.51100000000E-03 0. -1.
         11    1    4    4    0    0 -0.92824032809E-01 -0.86543742701E-02 -0.10078947419E-01  0.93771240596E-01  0.51100000000E-03 0.  1.
</event>
<event>
 8    1  0.1120016E+005  0.1043930E+01  0.7957747E-01            NaN
         13   -1    0    0    0    0  0.00000000000E+00  0.00000000000E+00  0.74505805969E-08  0.10566000000E+00  0.10566000000E+00 0. -1.
     999900   -1    0    0    0    0 -0.00000000000E+00 -0.00000000000E+00 -0.74505805969E-08  0.93827000000E+00  0.93827000000E+00 0.  1.
     999902    2    1    2    0    0 -0.57415359362E-02 -0.18091909016E-01  0.15741967457E-01  0.10192704796E+01  0.10189721383E+01 0.  0.
     999903    2    3    3    0    0  0.11758573519E+00 -0.20022691745E-01 -0.45464277371E-01  0.12856314937E+00  0.15302599550E-01 0.  0.
         14    1    1    2    0    0  0.57415359362E-02  0.18091909016E-01 -0.15741967457E-01  0.24659520396E-01  0.00000000000E+00 0.  1.
     999901    1    3    3    0    0 -0.12332727113E+00  0.19307827285E-02  0.61206244828E-01  0.89070733023E+00  0.88000000000E+00 0. -1.
        -11    1    4    4    0    0  0.77666725727E-01 -0.20456737668E-01 -0.31291343572E-01  0.86197492450E-01  0.51100000000E-03 0. -1.
         11    1    4    4    0    0  0.39919009468E-01  0.43404592307E-03 -0.14172933799E-01  0.42365656919E-01  0.51100000000E-03 0.  1.
</event>
<event>
 8    1  0.1120016E+005  0.1043930E+01  0.7957747E-01            NaN
         13   -1    0    0    0    0  0.00000000000E+00  0.00000000000E+00  0.74505805969E-08  0.10566000000E+00  0.10566000000E+00 0. -1.
     999900   -1    0    0    0    0 -0.00000000000E+00 -0.00000000000E+00 -0.74505805969E-08  0.93827000000E+00  0.93827000000E+00 0. -1.
     999902    2    1    2    0    0 -0.20368841422E-01 -0.76567664633E-02  0.51571126000E-02  0.10215668253E+01  0.10213220192E+01 0.  0.
     999903    2    3    3    0    0 -0.38624941943E-01  0.39887372272E-01  0.12004303558E+00  0.13263909726E+00  0.99955551274E-02 0.  0.
         14    1    1    2    0    0  0.20368841422E-01  0.76567664633E-02 -0.51571126000E-02  0.22363174728E-01  0.00000000000E+00 0.  1.
     999901    1    3    3    0    0  0.18256100521E-01 -0.47544138736E-01 -0.11488592298E+00  0.88892772802E+00  0.88000000000E+00 0. -1.
        -11    1    4    4    0    0 -0.27811602002E-01  0.23023466828E-01  0.83228680242E-01  0.90723974596E-01  0.51100000000E-03 0. -1.
         11    1    4    4    0    0 -0.10813339941E-01  0.16863905444E-01  0.36814355342E-01  0.41915122661E-01  0.51100000000E-03 0.  1.
</event>
<event>
 8    1  0.1120016E+005  0.1043930E+01  0.7957747E-01            NaN
         13   -1    0    0    0    0  0.00000000000E+00  0.00000000000E+00  0.74505805969E-08  0.10566000000E+00  0.10566000000E+00 0. -1.
     999900   -1    0    0    0    0 -0.00000000000E+00 -0.00000000000E+00 -0.74505805969E-08  0.93827000000E+00  0.93827000000E+00 0.  1.
     999902    2    1    2    0    0  0.17786442649E-01  0.78237533464E-02 -0.13270481706E-01  0.10203997143E+01  0.10201283756E+01 0.  0.
     999903    2    3    3    0    0 -0.11659649284E+00 -0.49254543557E-01 -0.55674175013E-02  0.12833691244E+00  0.20460077063E-01 0.  0.
         14    1    1    2    0    0 -0.17786442649E-01 -0.78237533464E-02  0.13270481706E-01  0.23530285660E-01  0.00000000000E+00 0.  1.
     999901    1    3    3    0    0  0.13438293549E+00  0.57078296903E-01 -0.77030642042E-02  0.89206280190E+00  0.88000000000E+00 0. -1.
        -11    1    4    4    0    0 -0.37723131566E-01 -0.26510490322E-01 -0.30257075305E-02  0.46208838758E-01  0.51100000000E-03 0. -1.
         11    1    4    4    0    0 -0.78873361278E-01 -0.22744053235E-01 -0.25417099707E-02  0.82128073686E-01  0.51100000000E-03 0.  1.
</event>
<event>
 8    1  0.1120016E+005  0.1043930E+01  0.7957747E-01            NaN
         13   -1    0    0    0    0  0.00000000000E+00  0.00000000000E+00  0.74505805969E-08  0.10566000000E+00  0.10566000000E+00 0.  1.
     999900   -1    0    0    0    0 -0.00000000000E+00 -0.00000000000E+00 -0.74505805969E-08  0.93827000000E+00  0.93827000000E+00 0. -1.
     999902    2    1    2    0    0  0.13559885737E-01 -0.15041522363E-01  0.13242448718E-01  0.10197332989E+01  0.10194461832E+01 0.  0.
     999903    2    3    3    0    0  0.10710190402E+00 -0.75778310149E-01  0.44646412151E-02  0.13265037353E+00  0.19053042849E-01 0.  0.
         14    1    1    2    0    0 -0.13559885737E-01  0.15041522363E-01 -0.13242448718E-01  0.24196701102E-01  0.00000000000E+00 0. -1.
     999901    1    3    3    0    0 -0.93542018287E-01  0.60736787786E-01  0.87778075026E-02  0.88708292537E+00  0.88000000000E+00 0. -1.
        -11    1    4    4    0    0  0.88929735784E-01 -0.54390779125E-01  0.11490263249E-03  0.10424552309E+00  0.51100000000E-03 0. -1.
         11    1    4    4    0    0  0.18172168240E-01 -0.21387531024E-01  0.43497385826E-02  0.28404850441E-01  0.51100000000E-03 0.  1.
</event>
<event>
 8    1  0.1120016E+005  0.1043930E+01  0.7957747E-01            NaN
         13   -1    0    0    0    0  0.00000000000E+00  0.00000000000E+00  0.74505805969E-08  0.10566000000E+00  0.10566000000E+00 0.  1.
     999900   -1    0    0    0    0 -0.00000000000E+00 -0.00000000000E+00 -0.74505805969E-08  0.93827000000E+00  0.93827000000E+00 0.  1.
     999902    2    1    2    0    0  0.16971544409E-01 -0.59580745520E-02 -0.15488315711E-01  0.10201935324E+01  0.10199173612E+01 0.  0.
     999903    2    3    3    0    0 -0.22240879503E-01 -0.29983730847E-01 -0.12515247130E+00  0.13219518025E+00  0.20463229720E-01 0.  0.
         14    1    1    2    0    0 -0.16971544409E-01  0.59580745520E-02  0.15488315711E-01  0.23736467630E-01  0.00000000000E+00 0.  1.
     999901    1    3    3    0    0  0.39212423912E-01  0.24025656295E-01  0.10966415559E+00  0.88799835212E+00  0.88000000000E+00 0. -1.
        -11    1    4    4    0    0 -0.81627031127E-02 -0.22524236328E-01 -0.51006915493E-01  0.56355456642E-01  0.51100000000E-03 0. -1.
         11    1    4    4    0    0 -0.14078176390E-01 -0.74594945192E-02 -0.74145555811E-01  0.75839723605E-01  0.51100000000E-03 0.  1.
</event>
<event>
 8    1  0.1120016E+005  0.1043930E+01  0.7957747E-01            NaN
         13   -1    0    0    0    0  0.00000000000E+00  0.00000000000E+00  0.74505805969E-08  0.10566000000E+00  0.10566000000E+00 0. -1.
     999900   -1    0    0    0    0 -0.00000000000E+00 -0.00000000000E+00 -0.74505805969E-08  0.93827000000E+00  0.93827000000E+00 0.  1.
     999902    2    1    2    0    0  0.75159660749E-02  0.18031991627E-01 -0.12677418503E-01  0.10206413889E+01  0.10203756589E+01 0.  0.
     999903    2    3    3    0    0 -0.11597018686E+00 -0.35924566160E-01  0.37922414409E-01  0.12894610282E+00  0.21197387198E-01 0.  0.
         14    1    1    2    0    0 -0.75159660749E-02 -0.18031991627E-01  0.12677418503E-01  0.23288611122E-01  0.00000000000E+00 0.  1.
     999901    1    3    3    0    0  0.12348615293E+00  0.53956557787E-01 -0.50599832912E-01  0.89169528606E+00  0.88000000000E+00 0. -1.
        -11    1    4    4    0    0 -0.10588212398E+00 -0.37059760527E-01  0.38899878307E-01  0.11873462714E+00  0.51100000000E-03 0.  1.
         11    1    4    4    0    0 -0.10088062873E-01  0.11351943666E-02 -0.97746389821E-03  0.10211475675E-01  0.51100000000E-03 0. -1.
</event>
<event>
 8    1  0.1120016E+005  0.1043930E+01  0.7957747E-01            NaN
         13   -1    0    0    0    0  0.00000000000E+00  0.00000000000E+00  0.74505805969E-08  0.10566000000E+00  0.10566000000E+00 0. -1.
     999900   -1    0    0    0    0 -0.00000000000E+00 -0.00000000000E+00 -0.74505805969E-08  0.93827000000E+00  0.93827000000E+00 0.  1.
     999902    2    1    2    0    0  0.69039221119E-02  0.11113774707E-01  0.18211825972E-01  0.10215056665E+01  0.10212595047E+01 0.  0.
     999903    2    3    3    0    0 -0.32780191487E-01 -0.67254942043E-02  0.12772059576E+00  0.13365137717E+00  0.20745284069E-01 0.  0.
         14    1    1    2    0    0 -0.69039221119E-02 -0.11113774707E-01 -0.18211825972E-01  0.22424333524E-01  0.00000000000E+00 0.  1.
     999901    1    3    3    0    0  0.39684113599E-01  0.17839268911E-01 -0.10950876979E+00  0.88785428931E+00  0.88000000000E+00 0.  1.
        -11    1    4    4    0    0 -0.12000639117E-01 -0.51566041326E-02  0.86268743860E-01  0.87253442303E-01  0.51100000000E-03 0.  1.
         11    1    4    4    0    0 -0.20779552370E-01 -0.15688900717E-02  0.41451851898E-01  0.46397934863E-01  0.51100000000E-03 0. -1.
</event>
<event>
 8    1  0.1120016E+005  0.1043930E+01  0.7957747E-01            NaN
         13   -1    0    0    0    0  0.00000000000E+00  0.00000000000E+00  0.74505805969E-08  0.10566000000E+00  0.10566000000E+00 0. -1.
     999900   -1    0    0    0    0 -0.00000000000E+00 -0.00000000000E+00 -0.74505805969E-08  0.93827000000E+00  0.93827000000E+00 0. -1.
     999902    2    1    2    0    0 -0.20947005553E-01  0.33333694655E-02  0.11294816676E-01  0.10198995760E+01  0.10196164396E+01 0.  0.
     999903    2    3    3    0    0  0.99757733232E-01 -0.66015461893E-01  0.42182738160E-01  0.12842161326E+00  0.20076872361E-01 0.  0.
         14    1    1    2    0    0  0.20947005553E-01 -0.33333694655E-02 -0.11294816676E-01  0.24030423995E-01  0.00000000000E+00 0.  1.
     999901    1    3    3    0    0 -0.12070473878E+00  0.69348831359E-01 -0.30887921484E-01  0.89147796275E+00  0.88000000000E+00 0.  1.
        -11    1    4    4    0    0  0.94612902569E-01 -0.66831190251E-01  0.41891503112E-01  0.12317941580E+00  0.51100000000E-03 0. -1.
         11    1    4    4    0    0  0.51448306630E-02  0.81572835766E-03  0.29123504844E-03  0.52421974550E-02  0.51100000000E-03 0.  1.
</event>
<event>
 8    1  0.1120016E+005  0.1043930E+01  0.7957747E-01            NaN
         13   -1    0    0    0    0  0.00000000000E+00  0.00000000000E+00  0.74505805969E-08  0.10566000000E+00  0.10566000000E+00 0.  1.
     999900   -1    0    0    0    0 -0.00000000000E+00 -0.00000000000E+00 -0.74505805969E-08  0.93827000000E+00  0.93827000000E+00 0.  1.
     999902    2    1    2    0    0 -0.22556226720E-01 -0.65288490973E-02  0.56797758295E-02  0.10197707556E+01  0.10194845389E+01 0.  0.
     999903    2    3    3    0    0 -0.21974566137E-01  0.11862591425E+00 -0.42517982614E-01  0.12960949102E+00  0.20877074205E-01 0.  0.
         14    1    1    2    0    0  0.22556226720E-01  0.65288490973E-02 -0.56797758295E-02  0.24159244356E-01  0.00000000000E+00 0.  1.
     999901    1    3    3    0    0 -0.58166058348E-03 -0.12515476335E+00  0.48197758443E-01  0.89016126462E+00  0.88000000000E+00 0. -1.
        -11    1    4    4    0    0  0.30769517941E-02  0.30891257157E-01 -0.13576567430E-01  0.33886895775E-01  0.51100000000E-03 0. -1.
         11    1    4    4    0    0 -0.25051517931E-01  0.87734657097E-01 -0.28941415183E-01  0.95722595244E-01  0.51100000000E-03 0.  1.
</event>
<event>
 8    1  0.1120016E+005  0.1043930E+01  0.7957747E-01            NaN
         13   -1    0    0    0    0  0.00000000000E+00  0.00000000000E+00  0.74505805969E-08  0.10566000000E+00  0.10566000000E+00 0. -1.
     999900   -1    0    0    0    0 -0.00000000000E+00 -0.00000000000E+00 -0.74505805969E-08  0.93827000000E+00  0.93827000000E+00 0. -1.
     999902    2    1    2    0    0 -0.12993827616E-01  0.15361264536E-01 -0.12973538657E-01  0.10199900604E+01  0.10197090774E+01 0.  0.
     999903    2    3    3    0    0  0.44558346952E-01  0.11777560337E+00 -0.33790631120E-01  0.13193921670E+00  0.20238851768E-01 0.  0.
         14    1    1    2    0    0  0.12993827616E-01 -0.15361264536E-01  0.12973538657E-01  0.23939939632E-01  0.00000000000E+00 0. -1.
     999901    1    3    3    0    0 -0.57552174569E-01 -0.10241433883E+00  0.20817092463E-01  0.88805084367E+00  0.88000000000E+00 0.  1.
        -11    1    4    4    0    0  0.19777702819E-01  0.74936968964E-01 -0.26516704596E-01  0.81915221967E-01  0.51100000000E-03 0. -1.
         11    1    4    4    0    0  0.24780644133E-01  0.42838634404E-01 -0.72739265245E-02  0.50023994736E-01  0.51100000000E-03 0.  1.
</event>
<event>
 8    1  0.1120016E+005  0.1043930E+01  0.7957747E-01            NaN
         13   -1    0    0    0    0  0.00000000000E+00  0.00000000000E+00  0.74505805969E-08  0.10566000000E+00  0.10566000000E+00 0. -1.
     999900   -1    0    0    0    0 -0.00000000000E+00 -0.00000000000E+00 -0.74505805969E-08  0.93827000000E+00  0.93827000000E+00 0.  1.
     999902    2    1    2    0    0 -0.16964658255E-01 -0.84605541536E-02  0.14072854823E-01  0.10203201324E+01  0.10200469336E+01 0.  0.
     999903    2    3    3    0    0  0.14503722973E-01  0.80684204039E-01 -0.96962926417E-01  0.12831901599E+00  0.18538122953E-01 0.  0.
         14    1    1    2    0    0  0.16964658255E-01  0.84605541536E-02 -0.14072854823E-01  0.23609867622E-01  0.00000000000E+00 0.  1.
     999901    1    3    3    0    0 -0.31468381228E-01 -0.89144758192E-01  0.11103578124E+00  0.89200111639E+00  0.88000000000E+00 0.  1.
        -11    1    4    4    0    0  0.11654177014E-01  0.55115925435E-01 -0.52829911037E-01  0.77232413529E-01  0.51100000000E-03 0.  1.
         11    1    4    4    0    0  0.28495459590E-02  0.25568278604E-01 -0.44133015380E-01  0.51086602456E-01  0.51100000000E-03 0. -1.
</event>
<event>
 8    1  0.1120016E+005  0.1043930E+01  0.7957747E-01            NaN
         13   -1    0    0    0    0  0.00000000000E+00  0.00000000000E+00  0.74505805969E-08  0.10566000000E+00  0.10566000000E+00 0. -1.
     999900   -1    0    0    0    0 -0.00000000000E+00 -0.00000000000E+00 -0.74505805969E-08  0.93827000000E+00  0.93827000000E+00 0.  1.
     999902    2    1    2    0    0  0.93361736351E-02 -0.20602557518E-01  0.71278954810E-02  0.10202142582E+01  0.10199385747E+01 0.  0.
     999903    2    3    3    0    0  0.74776707449E-01  0.12315462868E-03 -0.10508931432E+00  0.13043635290E+00  0.19450116427E-01 0.  0.
         14    1    1    2    0    0 -0.93361736351E-02  0.20602557518E-01 -0.71278954810E-02  0.23715741785E-01  0.00000000000E+00 0.  1.
     999901    1    3    3    0    0 -0.65440533814E-01 -0.20725712147E-01  0.11221720980E+00  0.88977790531E+00  0.88000000000E+00 0. -1.
        -11    1    4    4    0    0  0.15434337741E-01 -0.74814805175E-02 -0.28217614995E-01  0.33025539348E-01  0.51100000000E-03 0. -1.
         11    1    4    4    0    0  0.59342369708E-01  0.76046351462E-02 -0.76871699328E-01  0.97410813552E-01  0.51100000000E-03 0.  1.
</event>
<event>
 8    1  0.1120016E+005  0.1043930E+01  0.7957747E-01            NaN
         13   -1    0    0    0    0  0.00000000000E+00  0.00000000000E+00  0.74505805969E-08  0.10566000000E+00  0.10566000000E+00 0.  1.
     999900   -1    0    0    0    0 -0.00000000000E+00 -0.00000000000E+00 -0.74505805969E-08  0.93827000000E+00  0.93827000000E+00 0.  1.
     999902    2    1    2    0    0 -0.63271230126E-02 -0.16133245140E-01 -0.16806032269E-01  0.10197896436E+01  0.10195038796E+01 0.  0.
     999903    2    3    3    0    0 -0.77893127326E-01  0.52099782575E-02 -0.10401129375E+00  0.13233148475E+00  0.24470175145E-01 0.  0.
         14    1    1    2    0    0  0.63271230126E-02  0.16133245140E-01  0.16806032269E-01  0.24140356356E-01  0.00000000000E+00 0.  1.
     999901    1    3    3    0    0  0.71566004313E-01 -0.21343223397E-01  0.87205261476E-01  0.88745815889E+00  0.88000000000E+00 0. -1.
        -11    1    4    4    0    0 -0.10092151064E-01 -0.69191181801E-02 -0.22480181453E-01  0.25599714620E-01  0.51100000000E-03 0.  1.
         11    1    4    4    0    0 -0.67800976262E-01  0.12129096438E-01 -0.81531112292E-01  0.10673177013E+00  0.51100000000E-03 0. -1.
</event>
<event>
 8    1  0.1120016E+005  0.1043930E+01  0.7957747E-01            NaN
         13   -1    0    0    0    0  0.00000000000E+00  0.00000000000E+00  0.74505805969E-08  0.10566000000E+00  0.10566000000E+00 0. -1.
     999900   -1    0    0    0    0 -0.00000000000E+00 -0.00000000000E+00 -0.74505805969E-08  0.93827000000E+00  0.93827000000E+00 0.  1.
     999902    2    1    2    0    0  0.20121291874E-01  0.11726929174E-01  0.59569413811E-02  0.10198910232E+01  0.10196076828E+01 0.  0.
     999903    2    3    3    0    0 -0.60493529688E-01 -0.11008362562E+00 -0.11166959468E-01  0.12768600826E+00  0.20028578580E-01 0.  0.
         14    1    1    2    0    0 -0.20121291874E-01 -0.11726929174E-01 -0.59569413811E-02  0.24038976790E-01  0.00000000000E+00 0.  1.
     999901    1    3    3    0    0  0.80614821562E-01  0.12181055479E+00  0.17123900849E-01  0.89220501495E+00  0.88000000000E+00 0. -1.
        -11    1    4    4    0    0 -0.54887446612E-01 -0.83164175379E-01 -0.72782035271E-02  0.99910686263E-01  0.51100000000E-03 0.  1.
         11    1    4    4    0    0 -0.56060830765E-02 -0.26919450237E-01 -0.38887559405E-02  0.27775322001E-01  0.51100000000E-03 0. -1.
</event>
<event>
 8    1  0.1120016E+005  0.1043930E+01  0.7957747E-01            NaN
         13   -1    0    0    0    0  0.00000000000E+00  0.00000000000E+00  0.74505805969E-08  0.10566000000E+00  0.10566000000E+00 0.  1.
     999900   -1    0    0    0    0 -0.00000000000E+00 -0.00000000000E+00 -0.74505805969E-08  0.93827000000E+00  0.93827000000E+00 0. -1.
     999902    2    1    2    0    0  0.14721044053E-01 -0.17301226587E-01 -0.21504727242E-02  0.10211118907E+01  0.10208569083E+01 0.  0.
     999903    2    3    3    0    0  0.13078484803E+00 -0.13787932969E-01  0.10622951158E-01  0.13339216568E+00  0.19642790076E-01 0.  0.
         14    1    1    2    0    0 -0.14721044053E-01  0.17301226587E-01  0.21504727242E-02  0.22818109307E-01  0.00000000000E+00 0. -1.
     999901    1    3    3    0    0 -0.11606380398E+00 -0.35132936177E-02 -0.12773423882E-01  0.88771972502E+00  0.88000000000E+00 0. -1.
        -11    1    4    4    0    0  0.84930405210E-01 -0.48719790910E-02  0.15322242857E-01  0.86440396555E-01  0.51100000000E-03 0. -1.
         11    1    4    4    0    0  0.45854442822E-01 -0.89159538784E-02 -0.46992916991E-02  0.46951769121E-01  0.51100000000E-03 0.  1.
</event>
<event>
 8    1  0.1120016E+005  0.1043930E+01  0.7957747E-01            NaN
         13   -1    0    0    0    0  0.00000000000E+00  0.00000000000E+00  0.74505805969E-08  0.10566000000E+00  0.10566000000E+00 0.  1.
     999900   -1    0    0    0    0 -0.00000000000E+00 -0.00000000000E+00 -0.74505805969E-08  0.93827000000E+00  0.93827000000E+00 0.  1.
     999902    2    1    2    0    0 -0.63110379168E-02  0.12097998366E-01 -0.19079229688E-01  0.10204734920E+01  0.10202038718E+01 0.  0.
     999903    2    3    3    0    0  0.12304042688E+00 -0.21848943170E-01 -0.32363761498E-01  0.13027088858E+00  0.17514804823E-01 0.  0.
         14    1    1    2    0    0  0.63110379168E-02 -0.12097998366E-01  0.19079229688E-01  0.23456508042E-01  0.00000000000E+00 0.  1.
     999901    1    3    3    0    0 -0.12935146479E+00  0.33946941536E-01  0.13284531811E-01  0.89020260338E+00  0.88000000000E+00 0. -1.
        -11    1    4    4    0    0  0.72702812253E-01 -0.20965069097E-01 -0.22752654018E-01  0.79013779922E-01  0.51100000000E-03 0. -1.
         11    1    4    4    0    0  0.50337614624E-01 -0.88387407305E-03 -0.96111074808E-02  0.51257108653E-01  0.51100000000E-03 0.  1.
</event>
<event>
 8    1  0.1120016E+005  0.1043930E+01  0.7957747E-01            NaN
         13   -1    0    0    0    0  0.00000000000E+00  0.00000000000E+00  0.74505805969E-08  0.10566000000E+00  0.10566000000E+00 0. -1.
     999900   -1    0    0    0    0 -0.00000000000E+00 -0.00000000000E+00 -0.74505805969E-08  0.93827000000E+00  0.93827000000E+00 0.  1.
     999902    2    1    2    0    0 -0.63754909386E-02  0.15733836931E-01 -0.14021201423E-01  0.10219119483E+01  0.10216747210E+01 0.  0.
     999903    2    3    3    0    0  0.10585372269E-01  0.92292303277E-01 -0.95786580842E-01  0.13464961571E+00  0.18042466307E-01 0.  0.
         14    1    1    2    0    0  0.63754909386E-02 -0.15733836931E-01  0.14021201423E-01  0.22018051653E-01  0.00000000000E+00 0.  1.
     999901    1    3    3    0    0 -0.16960863208E-01 -0.76558466346E-01  0.81765379419E-01  0.88726233264E+00  0.88000000000E+00 0. -1.
        -11    1    4    4    0    0  0.14344787009E-01  0.78868139893E-01 -0.86252979383E-01  0.11775310602E+00  0.51100000000E-03 0. -1.
         11    1    4    4    0    0 -0.37594147397E-02  0.13424163383E-01 -0.95336014587E-02  0.16896509684E-01  0.51100000000E-03 0.  1.
</event>
<event>
 8    1  0.1120016E+005  0.1043930E+01  0.7957747E-01            NaN
         13   -1    0    0    0    0  0.00000000000E+00  0.00000000000E+00  0.74505805969E-08  0.10566000000E+00  0.10566000000E+00 0.  1.
     999900   -1    0    0    0    0 -0.00000000000E+00 -0.00000000000E+00 -0.74505805969E-08  0.93827000000E+00  0.93827000000E+00 0. -1.
     999902    2    1    2    0    0 -0.92083722704E-02 -0.18650248707E-01  0.10960664166E-01  0.10204191077E+01  0.10201482213E+01 0.  0.
     999903    2    3    3    0    0 -0.12445267716E+00  0.26905830896E-01  0.27479318708E-01  0.13158308677E+00  0.18617281694E-01 0.  0.
         14    1    1    2    0    0  0.92083722704E-02  0.18650248707E-01 -0.10960664166E-01  0.23510892277E-01  0.00000000000E+00 0. -1.
     999901    1    3    3    0    0  0.11524430489E+00 -0.45556079603E-01 -0.16518654542E-01  0.88883602095E+00  0.88000000000E+00 0. -1.
        -11    1    4    4    0    0 -0.74779963718E-01  0.68214882036E-02  0.15328048590E-01  0.76640628061E-01  0.51100000000E-03 0. -1.
         11    1    4    4    0    0 -0.49672713444E-01  0.20084342693E-01  0.12151270118E-01  0.54942458707E-01  0.51100000000E-03 0.  1.
</event>
<event>
 8    1  0.1120016E+005  0.1043930E+01  0.7957747E-01            NaN
         13   -1    0    0    0    0  0.00000000000E+00  0.00000000000E+00  0.74505805969E-08  0.10566000000E+00  0.10566000000E+00 0. -1.
     999900   -1    0    0    0    0 -0.00000000000E+00 -0.00000000000E+00 -0.74505805969E-08  0.93827000000E+00  0.93827000000E+00 0.  1.
     999902    2    1    2    0    0  0.92685018578E-02 -0.21122938895E-01 -0.11409080371E-02  0.10208348632E+01  0.10205735802E+01 0.  0.
     999903    2    3    3    0    0 -0.10302698811E+00 -0.67177953661E-01 -0.41962205827E-01  0.13156678221E+00  0.20531773596E-01 0.  0.
         14    1    1    2    0    0 -0.92685018578E-02  0.21122938895E-01  0.11409080371E-02  0.23095136834E-01  0.00000000000E+00 0.  1.
     999901    1    3    3    0    0  0.11229548996E+00  0.46055014767E-01  0.40821297790E-01  0.88926808095E+00  0.88000000000E+00 0. -1.
        -11    1    4    4    0    0 -0.60020356763E-01 -0.28646720625E-01 -0.27972988082E-01  0.72151417254E-01  0.51100000000E-03 0.  1.
         11    1    4    4    0    0 -0.43006631344E-01 -0.38531233036E-01 -0.13989217745E-01  0.59415364957E-01  0.51100000000E-03 0. -1.
</event>
<event>
 8    1  0.1120016E+005  0.1043930E+01  0.7957747E-01            NaN
         13   -1    0    0    0    0  0.00000000000E+00  0.00000000000E+00  0.74505805969E-08  0.10566000000E+00  0.10566000000E+00 0.  1.
     999900   -1    0    0    0    0 -0.00000000000E+00 -0.00000000000E+00 -0.74505805969E-08  0.93827000000E+00  0.93827000000E+00 0.  1.
     999902    2    1    2    0    0 -0.53459668833E-02  0.60836766769E-02  0.22844110833E-01  0.10196927583E+01  0.10194046682E+01 0.  0.
     999903    2    3    3    0    0 -0.29993184264E-01 -0.29979492004E-01 -0.11838967064E+00  0.12736153144E+00  0.20161461564E-01 0.  0.
         14    1    1    2    0    0  0.53459668833E-02 -0.60836766769E-02 -0.22844110833E-01  0.24237241666E-01  0.00000000000E+00 0. -1.
     999901    1    3    3    0    0  0.24647217381E-01  0.36063168681E-01  0.14123378148E+00  0.89233122689E+00  0.88000000000E+00 0. -1.
        -11    1    4    4    0    0  0.16445546581E-02 -0.58697321556E-02 -0.27085208976E-01  0.27767390620E-01  0.51100000000E-03 0.  1.
         11    1    4    4    0    0 -0.31637738923E-01 -0.24109759848E-01 -0.91304461668E-01  0.99594140820E-01  0.51100000000E-03 0. -1.
</event>
<event>
 8    1  0.1120016E+005  0.1043930E+01  0.7957747E-01            NaN
         13   -1    0    0    0    0  0.00000000000E+00  0.00000000000E+00  0.74505805969E-08  0.10566000000E+00  0.10566000000E+00 0. -1.
     999900   -1    0    0    0    0 -0.00000000000E+00 -0.00000000000E+00 -0.74505805969E-08  0.93827000000E+00  0.93827000000E+00 0.  1.
     999902    2    1    2    0    0  0.29675891104E-02  0.24064649276E-01 -0.27843291014E-02  0.10195237217E+01  0.10192315501E+01 0.  0.
     999903    2    3    3    0    0  0.46761477303E-01 -0.55757482431E-01  0.10395831109E+00  0.12841011025E+00  0.19654347186E-01 0.  0.
         14    1    1    2    0    0 -0.29675891104E-02 -0.24064649276E-01  0.27843291014E-02  0.24406278259E-01  0.00000000000E+00 0.  1.
     999901    1    3    3    0    0 -0.43793888193E-01  0.79822131708E-01 -0.10674264019E+00  0.89111361149E+00  0.88000000000E+00 0.  1.
        -11    1    4    4    0    0 -0.13098708631E-03 -0.85996352053E-02  0.88072592615E-02  0.12320706959E-01  0.51100000000E-03 0. -1.
         11    1    4    4    0    0  0.46892464390E-01 -0.47157847226E-01  0.95151051825E-01  0.11608940329E+00  0.51100000000E-03 0.  1.
</event>
<event>
 8    1  0.1120016E+005  0.1043930E+01  0.7957747E-01            NaN
         13   -1    0    0    0    0  0.00000000000E+00  0.00000000000E+00  0.74505805969E-08  0.10566000000E+00  0.10566000000E+00 0. -1.
     999900   -1    0    0    0    0 -0.00000000000E+00 -0.00000000000E+00 -0.74505805969E-08  0.93827000000E+00  0.93827000000E+00 0.  1.
     999902    2    1    2    0    0 -0.10821090346E-01 -0.12429677074E-01  0.16231911467E-01  0.10207984670E+01  0.10205363504E+01 0.  0.
     999903    2    3    3    0    0  0.80326778225E-02 -0.27202322415E-01  0.12872498222E+00  0.13331416485E+00  0.19951321845E-01 0.  0.
         14    1    1    2    0    0  0.10821090346E-01  0.12429677074E-01 -0.16231911467E-01  0.23131532987E-01  0.00000000000E+00 0. -1.
     999901    1    3    3    0    0 -0.18853768169E-01  0.14772645341E-01 -0.11249307075E+00  0.88748430217E+00  0.88000000000E+00 0.  1.
        -11    1    4    4    0    0  0.53255449335E-02  0.38644097639E-04  0.42780685382E-01  0.43113931449E-01  0.51100000000E-03 0. -1.
         11    1    4    4    0    0  0.27071328891E-02 -0.27240966513E-01  0.85944296838E-01  0.90200233398E-01  0.51100000000E-03 0.  1.
</event>
<event>
 8    1  0.1120016E+005  0.1043930E+01  0.7957747E-01            NaN
         13   -1    0    0    0    0  0.00000000000E+00  0.00000000000E+00  0.74505805969E-08  0.10566000000E+00  0.10566000000E+00 0. -1.
     999900   -1    0    0    0    0 -0.00000000000E+00 -0.00000000000E+00 -0.74505805969E-08  0.93827000000E+00  0.93827000000E+00 0.  1.
     999902    2    1    2    0    0 -0.13995494061E-01  0.30352356662E-02 -0.19154971960E-01  0.10200134898E+01  0.10197330631E+01 0.  0.
     999903    2    3    3    0    0 -0.10909719937E+00  0.29053515196E-01  0.62205764337E-01  0.13077738244E+00  0.22064926547E-01 0.  0.
         14    1    1    2    0    0  0.13995494061E-01 -0.30352356662E-02  0.19154971960E-01  0.23916510204E-01  0.00000000000E+00 0. -1.
     999901    1    3    3    0    0  0.95101705313E-01 -0.26018279530E-01 -0.81360736297E-01  0.88923610736E+00  0.88000000000E+00 0. -1.
        -11    1    4    4    0    0 -0.86022026007E-01  0.13276864930E-01  0.48472801122E-01  0.99629000148E-01  0.51100000000E-03 0.  1.
         11    1    4    4    0    0 -0.23075173366E-01  0.15776650266E-01  0.13732963215E-01  0.31148382288E-01  0.51100000000E-03 0. -1.
</event>
<event>
 8    1  0.1120016E+005  0.1043930E+01  0.7957747E-01            NaN
         13   -1    0    0    0    0  0.00000000000E+00  0.00000000000E+00  0.74505805969E-08  0.10566000000E+00  0.10566000000E+00 0. -1.
     999900   -1    0    0    0    0 -0.00000000000E+00 -0.00000000000E+00 -0.74505805969E-08  0.93827000000E+00  0.93827000000E+00 0. -1.
     999902    2    1    2    0    0  0.67855894292E-02 -0.24538400785E-01  0.11508476813E-02  0.10184446751E+01  0.10181257557E+01 0.  0.
     999903    2    3    3    0    0 -0.39576473966E-01  0.11754032993E+00 -0.10014052525E-01  0.12577426464E+00  0.18353690274E-01 0.  0.
         14    1    1    2    0    0 -0.67855894292E-02  0.24538400785E-01 -0.11508476813E-02  0.25485324942E-01  0.00000000000E+00 0. -1.
     999901    1    3    3    0    0  0.46362063395E-01 -0.14207873071E+00  0.11164900206E-01  0.89267041042E+00  0.88000000000E+00 0.  1.
        -11    1    4    4    0    0 -0.11096263643E-02  0.25408537819E-01 -0.40191286543E-02  0.25753438235E-01  0.51100000000E-03 0. -1.
         11    1    4    4    0    0 -0.38466847601E-01  0.92131792107E-01 -0.59949238704E-02  0.10002082640E+00  0.51100000000E-03 0.  1.
</event>
<event>
 7    1  0.1120016E+005  0.1043930E+01  0.7957747E-01            NaN
         13   -1    0    0    0    0  0.00000000000E+00  0.00000000000E+00  0.74505805969E-08  0.10566000000E+00  0.10566000000E+00 0. -1.
     999900   -1    0    0    0    0 -0.00000000000E+00 -0.00000000000E+00 -0.74505805969E-08  0.93827000000E+00  0.93827000000E+00 0.  1.
     999903    2    1    2    0    0 -0.54745172100E-01 -0.27650688045E-01 -0.16455484540E-01  0.66434317741E-01  0.19522837516E-01 0.  0.
         14    1    1    2    0    0 -0.64641307727E-01 -0.37592701758E-01 -0.40832735075E-01  0.85199895210E-01  0.00000000000E+00 0.  1.
     999901    1    1    2    0    0  0.11938647983E+00  0.65243389803E-01  0.57288219615E-01  0.89229578705E+00  0.88000000000E+00 0. -1.
        -11    1    3    3    0    0 -0.33607686161E-01 -0.19186113628E-01 -0.19703298736E-01  0.43428845567E-01  0.51100000000E-03 0.  1.
         11    1    3    3    0    0 -0.21137485939E-01 -0.84645744168E-02  0.32478141960E-02  0.23005472174E-01  0.51100000000E-03 0. -1.
</event>
<event>
 8    1  0.1120016E+005  0.1043930E+01  0.7957747E-01            NaN
         13   -1    0    0    0    0  0.00000000000E+00  0.00000000000E+00  0.74505805969E-08  0.10566000000E+00  0.10566000000E+00 0.  1.
     999900   -1    0    0    0    0 -0.00000000000E+00 -0.00000000000E+00 -0.74505805969E-08  0.93827000000E+00  0.93827000000E+00 0. -1.
     999902    2    1    2    0    0  0.11236649593E-01  0.10084428858E-01 -0.18469341154E-01  0.10200747163E+01  0.10197957404E+01 0.  0.
     999903    2    3    3    0    0  0.66577070774E-01  0.57276584855E-01  0.93626825211E-01  0.12998752260E+00  0.20436734283E-01 0.  0.
         14    1    1    2    0    0 -0.11236649593E-01 -0.10084428858E-01  0.18469341154E-01  0.23855283736E-01  0.00000000000E+00 0. -1.
     999901    1    3    3    0    0 -0.55340421181E-01 -0.47192155998E-01 -0.11209616636E+00  0.89008719366E+00  0.88000000000E+00 0. -1.
        -11    1    4    4    0    0  0.17227544948E-01  0.25636222900E-01  0.39965591741E-01  0.50512512051E-01  0.51100000000E-03 0. -1.
         11    1    4    4    0    0  0.49349525825E-01  0.31640361955E-01  0.53661233470E-01  0.79475010553E-01  0.51100000000E-03 0.  1.
</event>
<event>
 8    1  0.1120016E+005  0.1043930E+01  0.7957747E-01            NaN
         13   -1    0    0    0    0  0.00000000000E+00  0.00000000000E+00  0.74505805969E-08  0.10566000000E+00  0.10566000000E+00 0. -1.
     999900   -1    0    0    0    0 -0.00000000000E+00 -0.00000000000E+00 -0.74505805969E-08  0.93827000000E+00  0.93827000000E+00 0. -1.
     999902    2    1    2    0    0  0.18889691195E-01  0.92498577845E-02 -0.10220628602E-01  0.10205453565E+01  0.10202774050E+01 0.  0.
     999903    2    3    3    0    0 -0.92373752364E-01  0.74994807235E-01 -0.48797973895E-01  0.13027002616E+00  0.20782353594E-01 0.  0.
         14    1    1    2    0    0 -0.18889691195E-01 -0.92498577845E-02  0.10220628602E-01  0.23384643497E-01  0.00000000000E+00 0. -1.
     999901    1    3    3    0    0  0.11126344356E+00 -0.65744949450E-01  0.38577345292E-01  0.89027533034E+00  0.88000000000E+00 0.  1.
        -11    1    4    4    0    0 -0.20611064482E-01  0.15682204405E-01 -0.20278123269E-01  0.32896974304E-01  0.51100000000E-03 0. -1.
         11    1    4    4    0    0 -0.71762687883E-01  0.59312602829E-01 -0.28519850626E-01  0.97373051853E-01  0.51100000000E-03 0.  1.
</event>
<event>
 8    1  0.1120016E+005  0.1043930E+01  0.7957747E-01            NaN
         13   -1    0    0    0    0  0.00000000000E+00  0.00000000000E+00  0.74505805969E-08  0.10566000000E+00  0.10566000000E+00 0. -1.
     999900   -1    0    0    0    0 -0.00000000000E+00 -0.00000000000E+00 -0.74505805969E-08  0.93827000000E+00  0.93827000000E+00 0. -1.
     999902    2    1    2    0    0 -0.55872424947E-02 -0.10482327921E-01 -0.19458544560E-01  0.10211323810E+01  0.10208778615E+01 0.  0.
     999903    2    3    3    0    0 -0.73965193781E-01  0.72587593227E-01  0.74785910930E-01  0.12958419191E+00  0.21431792663E-01 0.  0.
         14    1    1    2    0    0  0.55872424947E-02  0.10482327921E-01  0.19458544560E-01  0.22797619037E-01  0.00000000000E+00 0.  1.
     999901    1    3    3    0    0  0.68377951286E-01 -0.83069921148E-01 -0.94244455490E-01  0.89154818906E+00  0.88000000000E+00 0. -1.
        -11    1    4    4    0    0 -0.23886778739E-01  0.20317576229E-01  0.34944517230E-01  0.46954898656E-01  0.51100000000E-03 0. -1.
         11    1    4    4    0    0 -0.50078415042E-01  0.52270016997E-01  0.39841393700E-01  0.82629293250E-01  0.51100000000E-03 0.  1.
</event>
<event>
 8    1  0.1120016E+005  0.1043930E+01  0.7957747E-01            NaN
         13   -1    0    0    0    0  0.00000000000E+00  0.00000000000E+00  0.74505805969E-08  0.10566000000E+00  0.10566000000E+00 0.  1.
     999900   -1    0    0    0    0 -0.00000000000E+00 -0.00000000000E+00 -0.74505805969E-08  0.93827000000E+00  0.93827000000E+00 0. -1.
     999902    2    1    2    0    0 -0.21855647696E-02  0.23206514011E-01  0.18976470440E-02  0.10205436781E+01  0.10202756877E+01 0.  0.
     999903    2    3    3    0    0  0.79843363978E-02  0.62171816197E-01  0.11497876552E+00  0.13239444461E+00  0.19470184522E-01 0.  0.
         14    1    1    2    0    0  0.21855647696E-02 -0.23206514011E-01 -0.18976470440E-02  0.23386321861E-01  0.00000000000E+00 0. -1.
     999901    1    3    3    0    0 -0.10169901167E-01 -0.38965302187E-01 -0.11308111848E+00  0.88814923353E+00  0.88000000000E+00 0. -1.
        -11    1    4    4    0    0  0.37433866222E-02  0.31155531492E-01  0.77154495425E-01  0.83293201231E-01  0.51100000000E-03 0. -1.
         11    1    4    4    0    0  0.42409497755E-02  0.31016284705E-01  0.37824270096E-01  0.49101243378E-01  0.51100000000E-03 0.  1.
</event>
<event>
 8    1  0.1120016E+005  0.1043930E+01  0.7957747E-01            NaN
         13   -1    0    0    0    0  0.00000000000E+00  0.00000000000E+00  0.74505805969E-08  0.10566000000E+00  0.10566000000E+00 0.  1.
     999900   -1    0    0    0    0 -0.00000000000E+00 -0.00000000000E+00 -0.74505805969E-08  0.93827000000E+00  0.93827000000E+00 0.  1.
     999902    2    1    2    0    0 -0.23045809535E-02  0.13199094922E-01 -0.22204977047E-01  0.10179956944E+01  0.10176652916E+01 0.  0.
     999903    2    3    3    0    0  0.64275538172E-01  0.50403030223E-01  0.95078545139E-01  0.12694436614E+00  0.20078149440E-01 0.  0.
         14    1    1    2    0    0  0.23045809535E-02 -0.13199094922E-01  0.22204977047E-01  0.25934305578E-01  0.00000000000E+00 0.  1.
     999901    1    3    3    0    0 -0.66580119125E-01 -0.37203935301E-01 -0.11728352219E+00  0.89105132829E+00  0.88000000000E+00 0.  1.
        -11    1    4    4    0    0  0.34839995012E-01  0.18236203163E-01  0.55736301896E-01  0.68214227462E-01  0.51100000000E-03 0.  1.
         11    1    4    4    0    0  0.29435543160E-01  0.32166827060E-01  0.39342243243E-01  0.58730138673E-01  0.51100000000E-03 0. -1.
</event>
<event>
 8    1  0.1120016E+005  0.1043930E+01  0.7957747E-01            NaN
         13   -1    0    0    0    0  0.00000000000E+00  0.00000000000E+00  0.74505805969E-08  0.10566000000E+00  0.10566000000E+00 0.  1.
     999900   -1    0    0    0    0 -0.00000000000E+00 -0.00000000000E+00 -0.74505805969E-08  0.93827000000E+00  0.93827000000E+00 0. -1.
     999902    2    1    2    0    0  0.20711314456E-01  0.68269170886E-02 -0.15258906654E-02  0.10220692204E+01  0.10218354063E+01 0.  0.
     999903    2    3    3    0    0 -0.95640841569E-01  0.65260825407E-01  0.55589150446E-01  0.13065771396E+00  0.23982048722E-01 0.  0.
         14    1    1    2    0    0 -0.20711314456E-01 -0.68269170886E-02  0.15258906654E-02  0.21860779623E-01  0.00000000000E+00 0.  1.
     999901    1    3    3    0    0  0.11635215602E+00 -0.58433908319E-01 -0.57115041111E-01  0.89141150642E+00  0.88000000000E+00 0. -1.
        -11    1    4    4    0    0 -0.33499936362E-01  0.31776116813E-01  0.12058330500E-01  0.47724540767E-01  0.51100000000E-03 0.  1.
         11    1    4    4    0    0 -0.62140905207E-01  0.33484708594E-01  0.43530819945E-01  0.82933173192E-01  0.51100000000E-03 0. -1.
</event>
<event>
 8    1  0.1120016E+005  0.1043930E+01  0.7957747E-01            NaN
         13   -1    0    0    0    0  0.00000000000E+00  0.00000000000E+00  0.74505805969E-08  0.10566000000E+00  0.10566000000E+00 0. -1.
     999900   -1    0    0    0    0 -0.00000000000E+00 -0.00000000000E+00 -0.74505805969E-08  0.93827000000E+00  0.93827000000E+00 0. -1.
     999902    2    1    2    0    0 -0.15962887890E-01  0.16794538951E-01 -0.38997457600E-02  0.10204336525E+01  0.10201631050E+01 0.  0.
     999903    2    3    3    0    0  0.82894153934E-01  0.85607292865E-01 -0.50628019122E-01  0.13100043897E+00  0.19946662420E-01 0.  0.
         14    1    1    2    0    0  0.15962887890E-01 -0.16794538951E-01  0.38997457600E-02  0.23496347490E-01  0.00000000000E+00 0.  1.
     999901    1    3    3    0    0 -0.98857041824E-01 -0.68812753914E-01  0.46728273362E-01  0.88943321354E+00  0.88000000000E+00 0. -1.
        -11    1    4    4    0    0  0.58353411118E-01  0.60358785143E-01 -0.25507890911E-01  0.87745183075E-01  0.51100000000E-03 0. -1.
         11    1    4    4    0    0  0.24540742816E-01  0.25248507722E-01 -0.25120128211E-01  0.43255255894E-01  0.51100000000E-03 0.  1.
</event>
<event>
 8    1  0.1120016E+005  0.1043930E+01  0.7957747E-01            NaN
         13   -1    0    0    0    0  0.00000000000E+00  0.00000000000E+00  0.74505805969E-08  0.10566000000E+00  0.10566000000E+00 0.  1.
     999900   -1    0    0    0    0 -0.00000000000E+00 -0.00000000000E+00 -0.74505805969E-08  0.93827000000E+00  0.93827000000E+00 0. -1.
     999902    2    1    2    0    0  0.89847936964E-02  0.74092140661E-02 -0.20683810366E-01  0.10201930461E+01  0.10199168634E+01 0.  0.
     999903    2    3    3    0    0  0.74050656736E-01  0.51210296748E-01 -0.95655220307E-01  0.13352917870E+00  0.23960929387E-01 0.  0.
         14    1    1    2    0    0 -0.89847936964E-02 -0.74092140661E-02  0.20683810366E-01  0.23736953935E-01  0.00000000000E+00 0.  1.
     999901    1    3    3    0    0 -0.65065863040E-01 -0.43801082682E-01  0.74971409940E-01  0.88666386736E+00  0.88000000000E+00 0.  1.
        -11    1    4    4    0    0  0.21734219798E-01  0.10185848639E-01 -0.12513778589E-01  0.27073669834E-01  0.51100000000E-03 0.  1.
         11    1    4    4    0    0  0.52316436938E-01  0.41024448110E-01 -0.83141441718E-01  0.10645550887E+00  0.51100000000E-03 0. -1.
</event>
<event>
 8    1  0.1120016E+005  0.1043930E+01  0.7957747E-01            NaN
         13   -1    0    0    0    0  0.00000000000E+00  0.00000000000E+00  0.74505805969E-08  0.10566000000E+00  0.10566000000E+00 0. -1.
     999900   -1    0    0    0    0 -0.00000000000E+00 -0.00000000000E+00 -0.74505805969E-08  0.93827000000E+00  0.93827000000E+00 0.  1.
     999902    2    1    2    0    0 -0.94970453606E-02  0.48851270375E-02 -0.21058026944E-01  0.10203185868E+01  0.10200453518E+01 0.  0.
     999903    2    3    3    0    0  0.87960417668E-01 -0.69337210999E-01 -0.64300697902E-01  0.13078115575E+00  0.20602112590E-01 0.  0.
         14    1    1    2    0    0  0.94970453606E-02 -0.48851270375E-02  0.21058026944E-01  0.23611413247E-01  0.00000000000E+00 0. -1.
     999901    1    3    3    0    0 -0.97457463028E-01  0.74222338036E-01  0.43242670958E-01  0.88953743100E+00  0.88000000000E+00 0.  1.
        -11    1    4    4    0    0  0.66268752950E-01 -0.47520079955E-01 -0.55958684238E-01  0.98900662683E-01  0.51100000000E-03 0.  1.
         11    1    4    4    0    0  0.21691664718E-01 -0.21817131044E-01 -0.83420136638E-02  0.31880493067E-01  0.51100000000E-03 0. -1.
</event>
<event>
 8    1  0.1120016E+005  0.1043930E+01  0.7957747E-01            NaN
         13   -1    0    0    0    0  0.00000000000E+00  0.00000000000E+00  0.74505805969E-08  0.10566000000E+00  0.10566000000E+00 0. -1.
     999900   -1    0    0    0    0 -0.00000000000E+00 -0.00000000000E+00 -0.74505805969E-08  0.93827000000E+00  0.93827000000E+00 0. -1.
     999902    2    1    2    0    0 -0.17024943052E-01 -0.13505302656E-01  0.96508390402E-02  0.10201522671E+01  0.10198751235E+01 0.  0.
     999903    2    3    3    0    0 -0.65273515131E-01  0.82535153989E-01  0.75424672181E-01  0.13117651317E+00  0.21111916363E-01 0.  0.
         14    1    1    2    0    0  0.17024943052E-01  0.13505302656E-01 -0.96508390402E-02  0.23777732859E-01  0.00000000000E+00 0. -1.
     999901    1    3    3    0    0  0.48248572080E-01 -0.96040456645E-01 -0.65773833141E-01  0.88897575397E+00  0.88000000000E+00 0. -1.
        -11    1    4    4    0    0 -0.44481414029E-01  0.45995282250E-01  0.35399295727E-01  0.73126831206E-01  0.51100000000E-03 0.  1.
         11    1    4    4    0    0 -0.20792101102E-01  0.36539871739E-01  0.40025376454E-01  0.58049681965E-01  0.51100000000E-03 0. -1.
</event>
<event>
 8    1  0.1120016E+005  0.1043930E+01  0.7957747E-01            NaN
         13   -1    0    0    0    0  0.00000000000E+00  0.00000000000E+00  0.74505805969E-08  0.10566000000E+00  0.10566000000E+00 0.  1.
     999900   -1    0    0    0    0 -0.00000000000E+00 -0.00000000000E+00 -0.74505805969E-08  0.93827000000E+00  0.93827000000E+00 0.  1.
     999902    2    1    2    0    0  0.15825424560E-02  0.22550624257E-01 -0.26662701249E-02  0.10211672214E+01  0.10209134880E+01 0.  0.
     999903    2    3    3    0    0 -0.57112950995E-01 -0.73955652245E-02  0.11579882113E+00  0.13078757589E+00  0.19479206248E-01 0.  0.
         14    1    1    2    0    0 -0.15825424560E-02 -0.22550624257E-01  0.26662701249E-02  0.22762778640E-01  0.00000000000E+00 0.  1.
     999901    1    3    3    0    0  0.58695493451E-01  0.29946189482E-01 -0.11846509126E+00  0.89037964547E+00  0.88000000000E+00 0.  1.
        -11    1    4    4    0    0 -0.46728778924E-01 -0.47035264334E-02  0.74126669278E-01  0.87753781456E-01  0.51100000000E-03 0.  1.
         11    1    4    4    0    0 -0.10384172070E-01 -0.26920387911E-02  0.41672151855E-01  0.43033794437E-01  0.51100000000E-03 0. -1.
</event>
<event>
 8    1  0.1120016E+005  0.1043930E+01  0.7957747E-01            NaN
         13   -1    0    0    0    0  0.00000000000E+00  0.00000000000E+00  0.74505805969E-08  0.10566000000E+00  0.10566000000E+00 0. -1.
     999900   -1    0    0    0    0 -0.00000000000E+00 -0.00000000000E+00 -0.74505805969E-08  0.93827000000E+00  0.93827000000E+00 0. -1.
     999902    2    1    2    0    0  0.19342717359E-01  0.25941148748E-02 -0.12908983711E-01  0.10205310255E+01  0.10202627417E+01 0.  0.
     999903    2    3    3    0    0  0.93758095098E-01 -0.16690140873E-01 -0.91112002759E-01  0.13372482168E+00  0.22622769221E-01 0.  0.
         14    1    1    2    0    0 -0.19342717359E-01 -0.25941148748E-02  0.12908983711E-01  0.23398974491E-01  0.00000000000E+00 0. -1.
     999901    1    3    3    0    0 -0.74415377740E-01  0.19284255748E-01  0.78203019049E-01  0.88680620383E+00  0.88000000000E+00 0.  1.
        -11    1    4    4    0    0  0.65094071705E-01 -0.34409810031E-02 -0.70462455246E-01  0.95991131058E-01  0.51100000000E-03 0. -1.
         11    1    4    4    0    0  0.28664023393E-01 -0.13249159870E-01 -0.20649547513E-01  0.37733690620E-01  0.51100000000E-03 0.  1.
</event>
<event>
 8    1  0.1120016E+005  0.1043930E+01  0.7957747E-01            NaN
         13   -1    0    0    0    0  0.00000000000E+00  0.00000000000E+00  0.74505805969E-08  0.10566000000E+00  0.10566000000E+00 0.  1.
     999900   -1    0    0    0    0 -0.00000000000E+00 -0.00000000000E+00 -0.74505805969E-08  0.93827000000E+00  0.93827000000E+00 0. -1.
     999902    2    1    2    0    0  0.66304545737E-02 -0.22732337027E-01  0.84189252967E-02  0.10187983391E+01  0.10184883188E+01 0.  0.
     999903    2    3    3    0    0  0.88116920761E-01  0.47826282543E-01  0.80086613867E-01  0.12932949733E+00  0.16134067426E-01 0.  0.
         14    1    1    2    0    0 -0.66304545737E-02  0.22732337027E-01 -0.84189252967E-02  0.25131660863E-01  0.00000000000E+00 0. -1.
     999901    1    3    3    0    0 -0.81486466187E-01 -0.70558619571E-01 -0.71667688570E-01  0.88946884181E+00  0.88000000000E+00 0.  1.
        -11    1    4    4    0    0  0.41372661421E-01  0.31023172723E-01  0.44467742260E-01  0.68203926438E-01  0.51100000000E-03 0. -1.
         11    1    4    4    0    0  0.46744259340E-01  0.16803109820E-01  0.35618871607E-01  0.61125570888E-01  0.51100000000E-03 0.  1.
</event>
<event>
 8    1  0.1120016E+005  0.1043930E+01  0.7957747E-01            NaN
         13   -1    0    0    0    0  0.00000000000E+00  0.00000000000E+00  0.74505805969E-08  0.10566000000E+00  0.10566000000E+00 0.  1.
     999900   -1    0    0    0    0 -0.00000000000E+00 -0.00000000000E+00 -0.74505805969E-08  0.93827000000E+00  0.93827000000E+00 0.  1.
     999902    2    1    2    0    0 -0.23684613730E-01 -0.20443831589E-02 -0.36549202607E-02  0.10198779965E+01  0.10195943453E+01 0.  0.
     999903    2    3    3    0    0  0.11581292310E+00  0.28010692315E-01 -0.40882786984E-01  0.12760629775E+00  0.20364992346E-01 0.  0.
         14    1    1    2    0    0  0.23684613730E-01  0.20443831589E-02  0.36549202607E-02  0.24052003496E-01  0.00000000000E+00 0.  1.
     999901    1    3    3    0    0 -0.13949753683E+00 -0.30055075473E-01  0.37227866723E-01  0.89227169876E+00  0.88000000000E+00 0. -1.
        -11    1    4    4    0    0  0.57655998297E-01  0.23018584382E-01 -0.26401356560E-01  0.67463783735E-01  0.51100000000E-03 0.  1.
         11    1    4    4    0    0  0.58156924798E-01  0.49921079330E-02 -0.14481430423E-01  0.60142514012E-01  0.51100000000E-03 0. -1.
</event>
<event>
 8    1  0.1120016E+005  0.1043930E+01  0.7957747E-01            NaN
         13   -1    0    0    0    0  0.00000000000E+00  0.00000000000E+00  0.74505805969E-08  0.10566000000E+00  0.10566000000E+00 0.  1.
     999900   -1    0    0    0    0 -0.00000000000E+00 -0.00000000000E+00 -0.74505805969E-08  0.93827000000E+00  0.93827000000E+00 0. -1.
     999902    2    1    2    0    0 -0.25019999009E-01  0.24942384204E-02  0.20203358998E-02  0.10187049463E+01  0.10183925885E+01 0.  0.
     999903    2    3    3    0    0  0.59126983956E-01  0.99911398912E-01  0.50081904447E-01  0.12804186060E+00  0.20204777876E-01 0.  0.
         14    1    1    2    0    0  0.25019999009E-01 -0.24942384204E-02 -0.20203358998E-02  0.25225053674E-01  0.00000000000E+00 0. -1.
     999901    1    3    3    0    0 -0.84146982965E-01 -0.97417160492E-01 -0.48061568547E-01  0.89066308572E+00  0.88000000000E+00 0. -1.
        -11    1    4    4    0    0  0.47845103632E-01  0.66997262247E-01  0.41521031526E-01  0.92206530518E-01  0.51100000000E-03 0. -1.
         11    1    4    4    0    0  0.11281880324E-01  0.32914136665E-01  0.85608729215E-02  0.35835330084E-01  0.51100000000E-03 0.  1.
</event>
<event>
 8    1  0.1120016E+005  0.1043930E+01  0.7957747E-01            NaN
         13   -1    0    0    0    0  0.00000000000E+00  0.00000000000E+00  0.74505805969E-08  0.10566000000E+00  0.10566000000E+00 0.  1.
     999900   -1    0    0    0    0 -0.00000000000E+00 -0.00000000000E+00 -0.74505805969E-08  0.93827000000E+00  0.93827000000E+00 0. -1.
     999902    2    1    2    0    0 -0.21214160952E-01 -0.96493525063E-02  0.56457008060E-02  0.10199503301E+01  0.10196684027E+01 0.  0.
     999903    2    3    3    0    0 -0.27238951117E-01 -0.92965945148E-01 -0.85725609643E-01  0.13128466237E+00  0.22408815464E-01 0.  0.
         14    1    1    2    0    0  0.21214160952E-01  0.96493525063E-02 -0.56457008060E-02  0.23979669854E-01  0.00000000000E+00 0. -1.
     999901    1    3    3    0    0  0.60247901653E-02  0.83316592641E-01  0.91371310449E-01  0.88866566777E+00  0.88000000000E+00 0.  1.
        -11    1    4    4    0    0 -0.24722789447E-01 -0.49318551638E-01 -0.40991720143E-01  0.68732220210E-01  0.51100000000E-03 0.  1.
         11    1    4    4    0    0 -0.25161616704E-02 -0.43647393510E-01 -0.44733889500E-01  0.62552442163E-01  0.51100000000E-03 0. -1.
</event>
<event>
 8    1  0.1120016E+005  0.1043930E+01  0.7957747E-01            NaN
         13   -1    0    0    0    0  0.00000000000E+00  0.00000000000E+00  0.74505805969E-08  0.10566000000E+00  0.10566000000E+00 0. -1.
     999900   -1    0    0    0    0 -0.00000000000E+00 -0.00000000000E+00 -0.74505805969E-08  0.93827000000E+00  0.93827000000E+00 0. -1.
     999902    2    1    2    0    0 -0.81475903417E-03 -0.14060855817E-01  0.21590230505E-01  0.10181519172E+01  0.10178255337E+01 0.  0.
     999903    2    3    3    0    0 -0.92712349813E-01 -0.18839368323E-01  0.88217421196E-01  0.13084859596E+00  0.19711419443E-01 0.  0.
         14    1    1    2    0    0  0.81475903417E-03  0.14060855817E-01 -0.21590230505E-01  0.25778082780E-01  0.00000000000E+00 0.  1.
     999901    1    3    3    0    0  0.91897590779E-01  0.47785125069E-02 -0.66627190692E-01  0.88730332126E+00  0.88000000000E+00 0. -1.
        -11    1    4    4    0    0 -0.75491420598E-01 -0.17525719622E-01  0.61077894218E-01  0.98675608512E-01  0.51100000000E-03 0. -1.
         11    1    4    4    0    0 -0.17220929215E-01 -0.13136487016E-02  0.27139526979E-01  0.32172987452E-01  0.51100000000E-03 0.  1.
</event>
<event>
 8    1  0.1120016E+005  0.1043930E+01  0.7957747E-01            NaN
         13   -1    0    0    0    0  0.00000000000E+00  0.00000000000E+00  0.74505805969E-08  0.10566000000E+00  0.10566000000E+00 0.  1.
     999900   -1    0    0    0    0 -0.00000000000E+00 -0.00000000000E+00 -0.74505805969E-08  0.93827000000E+00  0.93827000000E+00 0.  1.
     999902    2    1    2    0    0  0.21409437853E-01  0.24496664771E-03  0.17036927050E-01  0.10165679657E+01  0.10161996595E+01 0.  0.
     999903    2    3    3    0    0  0.78658841162E-01 -0.89895160293E-01  0.46375890260E-01  0.12962743137E+00  0.19600883404E-01 0.  0.
         14    1    1    2    0    0 -0.21409437853E-01 -0.24496664771E-03 -0.17036927050E-01  0.27362034302E-01  0.00000000000E+00 0. -1.
     999901    1    3    3    0    0 -0.57249403309E-01  0.90140126941E-01 -0.29338963210E-01  0.88694053432E+00  0.88000000000E+00 0. -1.
        -11    1    4    4    0    0  0.36356976946E-01 -0.40937139616E-01  0.31743150822E-01  0.63289556151E-01  0.51100000000E-03 0.  1.
         11    1    4    4    0    0  0.42301864216E-01 -0.48958020677E-01  0.14632739438E-01  0.66337875224E-01  0.51100000000E-03 0. -1.
</event>
<event>
 8    1  0.1120016E+005  0.1043930E+01  0.7957747E-01            NaN
         13   -1    0    0    0    0  0.00000000000E+00  0.00000000000E+00  0.74505805969E-08  0.10566000000E+00  0.10566000000E+00 0. -1.
     999900   -1    0    0    0    0 -0.00000000000E+00 -0.00000000000E+00 -0.74505805969E-08  0.93827000000E+00  0.93827000000E+00 0.  1.
     999902    2    1    2    0    0 -0.18638794643E-01  0.13067167092E-01 -0.56530669715E-02  0.10204755188E+01  0.10202059458E+01 0.  0.
     999903    2    3    3    0    0  0.32566659443E-01 -0.32695108192E-01  0.11851087448E+00  0.12910978651E+00  0.22247521133E-01 0.  0.
         14    1    1    2    0    0  0.18638794643E-01 -0.13067167092E-01  0.56530669715E-02  0.23454481187E-01  0.00000000000E+00 0. -1.
     999901    1    3    3    0    0 -0.51205454086E-01  0.45762275284E-01 -0.12416394145E+00  0.89136573230E+00  0.88000000000E+00 0.  1.
        -11    1    4    4    0    0  0.13392473474E-01 -0.27843306909E-01  0.81134443040E-01  0.86819738849E-01  0.51100000000E-03 0. -1.
         11    1    4    4    0    0  0.19174185969E-01 -0.48518012834E-02  0.37376431437E-01  0.42290047662E-01  0.51100000000E-03 0.  1.
</event>
<event>
 8    1  0.1120016E+005  0.1043930E+01  0.7957747E-01            NaN
         13   -1    0    0    0    0  0.00000000000E+00  0.00000000000E+00  0.74505805969E-08  0.10566000000E+00  0.10566000000E+00 0.  1.
     999900   -1    0    0    0    0 -0.00000000000E+00 -0.00000000000E+00 -0.74505805969E-08  0.93827000000E+00  0.93827000000E+00 0.  1.
     999902    2    1    2    0    0 -0.19272847917E-01 -0.94687827545E-03  0.14049546282E-01  0.10200610035E+01  0.10197817030E+01 0.  0.
     999903    2    3    3    0    0 -0.53594588438E-01  0.49366880291E-01  0.10857162259E+00  0.13290606824E+00  0.23806657932E-01 0.  0.
         14    1    1    2    0    0  0.19272847917E-01  0.94687827545E-03 -0.14049546282E-01  0.23868996544E-01  0.00000000000E+00 0. -1.
     999901    1    3    3    0    0  0.34321740521E-01 -0.50313758567E-01 -0.94522076312E-01  0.88715493522E+00  0.88000000000E+00 0.  1.
        -11    1    4    4    0    0 -0.42690806263E-01  0.26124436190E-01  0.61575399407E-01  0.79352265493E-01  0.51100000000E-03 0. -1.
         11    1    4    4    0    0 -0.10903782175E-01  0.23242444101E-01  0.46996223187E-01  0.53553802744E-01  0.51100000000E-03 0.  1.
</event>
<event>
 8    1  0.1120016E+005  0.1043930E+01  0.7957747E-01            NaN
         13   -1    0    0    0    0  0.00000000000E+00  0.00000000000E+00  0.74505805969E-08  0.10566000000E+00  0.10566000000E+00 0.  1.
     999900   -1    0    0    0    0 -0.00000000000E+00 -0.00000000000E+00 -0.74505805969E-08  0.93827000000E+00  0.93827000000E+00 0. -1.
     999902    2    1    2    0    0  0.23045488730E-02 -0.13057423981E-01 -0.19581329924E-01  0.10202818341E+01  0.10200077379E+01 0.  0.
     999903    2    3    3    0    0 -0.12027223349E+00 -0.46731394632E-01 -0.99057867403E-02  0.13109534077E+00  0.20943504174E-01 0.  0.
         14    1    1    2    0    0 -0.23045488730E-02  0.13057423981E-01  0.19581329924E-01  0.23648165851E-01  0.00000000000E+00 0.  1.
     999901    1    3    3    0    0  0.12257678236E+00  0.33673970651E-01 -0.96755431834E-02  0.88918649338E+00  0.88000000000E+00 0.  1.
        -11    1    4    4    0    0 -0.78433503470E-01 -0.24527706312E-01 -0.14699979201E-01  0.83485168461E-01  0.51100000000E-03 0. -1.
         11    1    4    4    0    0 -0.41838730022E-01 -0.22203688320E-01  0.47941924604E-02  0.47610172308E-01  0.51100000000E-03 0.  1.
</event>
<event>
 8    1  0.1120016E+005  0.1043930E+01  0.7957747E-01            NaN
         13   -1    0    0    0    0  0.00000000000E+00  0.00000000000E+00  0.74505805969E-08  0.10566000000E+00  0.10566000000E+00 0.  1.
     999900   -1    0    0    0    0 -0.00000000000E+00 -0.00000000000E+00 -0.74505805969E-08  0.93827000000E+00  0.93827000000E+00 0. -1.
     999902    2    1    2    0    0  0.12392306245E-01  0.93236880237E-02 -0.17924422182E-01  0.10202279891E+01  0.10199526285E+01 0.  0.
     999903    2    3    3    0    0 -0.80595465151E-01 -0.80137272713E-02 -0.10115062219E+00  0.13125447315E+00  0.20891135107E-01 0.  0.
         14    1    1    2    0    0 -0.12392306245E-01 -0.93236880237E-02  0.17924422182E-01  0.23702010948E-01  0.00000000000E+00 0.  1.
     999901    1    3    3    0    0  0.92987771396E-01  0.17337415295E-01  0.83226200008E-01  0.88897351590E+00  0.88000000000E+00 0.  1.
        -11    1    4    4    0    0 -0.53136730394E-01  0.41374799066E-02 -0.59150502540E-01  0.79622069357E-01  0.51100000000E-03 0. -1.
         11    1    4    4    0    0 -0.27458734757E-01 -0.12151207178E-01 -0.42000119649E-01  0.51632403797E-01  0.51100000000E-03 0.  1.
</event>
<event>
 8    1  0.1120016E+005  0.1043930E+01  0.7957747E-01            NaN
         13   -1    0    0    0    0  0.00000000000E+00  0.00000000000E+00  0.74505805969E-08  0.10566000000E+00  0.10566000000E+00 0. -1.
     999900   -1    0    0    0    0 -0.00000000000E+00 -0.00000000000E+00 -0.74505805969E-08  0.93827000000E+00  0.93827000000E+00 0.  1.
     999902    2    1    2    0    0  0.14487629025E-01  0.17113399221E-01  0.81535102584E-02  0.10200712583E+01  0.10197922006E+01 0.  0.
     999903    2    3    3    0    0 -0.53484819823E-01 -0.99890943024E-01  0.56965153534E-01  0.12839146909E+00  0.20012850061E-01 0.  0.
         14    1    1    2    0    0 -0.14487629025E-01 -0.17113399221E-01 -0.81535102584E-02  0.23858741736E-01  0.00000000000E+00 0. -1.
     999901    1    3    3    0    0  0.67972448849E-01  0.11700434224E+00 -0.48811643276E-01  0.89167978918E+00  0.88000000000E+00 0. -1.
        -11    1    4    4    0    0 -0.34997535096E-01 -0.78131589335E-01  0.49424512678E-01  0.98855532416E-01  0.51100000000E-03 0. -1.
         11    1    4    4    0    0 -0.18487284727E-01 -0.21759353688E-01  0.75406408567E-02  0.29535936671E-01  0.51100000000E-03 0.  1.
</event>
<event>
 8    1  0.1120016E+005  0.1043930E+01  0.7957747E-01            NaN
         13   -1    0    0    0    0  0.00000000000E+00  0.00000000000E+00  0.74505805969E-08  0.10566000000E+00  0.10566000000E+00 0. -1.
     999900   -1    0    0    0    0 -0.00000000000E+00 -0.00000000000E+00 -0.74505805969E-08  0.93827000000E+00  0.93827000000E+00 0. -1.
     999902    2    1    2    0    0 -0.31408454378E-02 -0.17122778631E-01 -0.16597805352E-01  0.10198771083E+01  0.10195934358E+01 0.  0.
     999903    2    3    3    0    0  0.12124278987E+00 -0.37214070419E-01 -0.25536417281E-01  0.13085807162E+00  0.19672955274E-01 0.  0.
         14    1    1    2    0    0  0.31408454378E-02  0.17122778631E-01  0.16597805352E-01  0.24052891731E-01  0.00000000000E+00 0. -1.
     999901    1    3    3    0    0 -0.12438363531E+00  0.20091291788E-01  0.89386119284E-02  0.88901903665E+00  0.88000000000E+00 0. -1.
        -11    1    4    4    0    0  0.22821025449E-01 -0.16657040217E-02 -0.10338738675E-01  0.25114227259E-01  0.51100000000E-03 0.  1.
         11    1    4    4    0    0  0.98421764418E-01 -0.35548366397E-01 -0.15197678606E-01  0.10574384436E+00  0.51100000000E-03 0. -1.
</event>
<event>
 8    1  0.1120016E+005  0.1043930E+01  0.7957747E-01            NaN
         13   -1    0    0    0    0  0.00000000000E+00  0.00000000000E+00  0.74505805969E-08  0.10566000000E+00  0.10566000000E+00 0.  1.
     999900   -1    0    0    0    0 -0.00000000000E+00 -0.00000000000E+00 -0.74505805969E-08  0.93827000000E+00  0.93827000000E+00 0.  1.
     999902    2    1    2    0    0 -0.14345575756E-01  0.11886005329E-01  0.14748150802E-01  0.10201690947E+01  0.10198923479E+01 0.  0.
     999903    2    3    3    0    0  0.39227055297E-01 -0.11772741478E+00 -0.24752882916E-01  0.12818815485E+00  0.20518084030E-01 0.  0.
         14    1    1    2    0    0  0.14345575756E-01 -0.11886005329E-01 -0.14748150802E-01  0.23760905255E-01  0.00000000000E+00 0. -1.
     999901    1    3    3    0    0 -0.53572631053E-01  0.12961342011E+00  0.39501033717E-01  0.89198093990E+00  0.88000000000E+00 0. -1.
        -11    1    4    4    0    0  0.23626854859E-01 -0.85531344890E-01 -0.93288284337E-02  0.89225149987E-01  0.51100000000E-03 0. -1.
         11    1    4    4    0    0  0.15600200438E-01 -0.32196069894E-01 -0.15424054482E-01  0.38963004863E-01  0.51100000000E-03 0.  1.
</event>
<event>
 8    1  0.1120016E+005  0.1043930E+01  0.7957747E-01            NaN
         13   -1    0    0    0    0  0.00000000000E+00  0.00000000000E+00  0.74505805969E-08  0.10566000000E+00  0.10566000000E+00 0.  1.
     999900   -1    0    0    0    0 -0.00000000000E+00 -0.00000000000E+00 -0.74505805969E-08  0.93827000000E+00  0.93827000000E+00 0.  1.
     999902    2    1    2    0    0 -0.22355722906E-01  0.11948292246E-02  0.39996809516E-02  0.10211878934E+01  0.10209346259E+01 0.  0.
     999903    2    3    3    0    0 -0.12802101178E+00 -0.22514163162E-01  0.26974552043E-01  0.13425209288E+00  0.19993273478E-01 0.  0.
         14    1    1    2    0    0  0.22355722906E-01 -0.11948292246E-02 -0.39996809516E-02  0.22742106570E-01  0.00000000000E+00 0. -1.
     999901    1    3    3    0    0  0.10566528888E+00  0.23708992387E-01 -0.22974871091E-01  0.88693580055E+00  0.88000000000E+00 0.  1.
        -11    1    4    4    0    0 -0.21968129685E-01 -0.97200623332E-02 -0.19236555610E-03  0.24028659120E-01  0.51100000000E-03 0.  1.
         11    1    4    4    0    0 -0.10605288210E+00 -0.12794100829E-01  0.27166917599E-01  0.11022343376E+00  0.51100000000E-03 0. -1.
</event>
<event>
 8    1  0.1120016E+005  0.1043930E+01  0.7957747E-01            NaN
         13   -1    0    0    0    0  0.00000000000E+00  0.00000000000E+00  0.74505805969E-08  0.10566000000E+00  0.10566000000E+00 0. -1.
     999900   -1    0    0    0    0 -0.00000000000E+00 -0.00000000000E+00 -0.74505805969E-08  0.93827000000E+00  0.93827000000E+00 0.  1.
     999902    2    1    2    0    0  0.64451179044E-02 -0.30961384404E-02 -0.23258044459E-01  0.10195976707E+01  0.10193072882E+01 0.  0.
     999903    2    3    3    0    0  0.12217841317E+00  0.41649217156E-01 -0.15751064452E-02  0.13062832797E+00  0.19976415453E-01 0.  0.
         14    1    1    2    0    0 -0.64451179044E-02  0.30961384404E-02  0.23258044459E-01  0.24332329319E-01  0.00000000000E+00 0. -1.
     999901    1    3    3    0    0 -0.11573329526E+00 -0.44745355597E-01 -0.21682938014E-01  0.88896934271E+00  0.88000000000E+00 0. -1.
        -11    1    4    4    0    0  0.70691557804E-01  0.19955711690E-01 -0.99660337328E-02  0.74129007300E-01  0.51100000000E-03 0. -1.
         11    1    4    4    0    0  0.51486855362E-01  0.21693505466E-01  0.83909272876E-02  0.56499320670E-01  0.51100000000E-03 0.  1.
</event>
<event>
 8    1  0.1120016E+005  0.1043930E+01  0.7957747E-01            NaN
         13   -1    0    0    0    0  0.00000000000E+00  0.00000000000E+00  0.74505805969E-08  0.10566000000E+00  0.10566000000E+00 0.  1.
     999900   -1    0    0    0    0 -0.00000000000E+00 -0.00000000000E+00 -0.74505805969E-08  0.93827000000E+00  0.93827000000E+00 0.  1.
     999902    2    1    2    0    0  0.11864627098E-01 -0.11825684300E-01 -0.17484089918E-01  0.10197161695E+01  0.10194286423E+01 0.  0.
     999903    2    3    3    0    0  0.13421901918E-01 -0.83976248175E-01 -0.10035223483E+00  0.13288176650E+00  0.18837067788E-01 0.  0.
         14    1    1    2    0    0 -0.11864627098E-01  0.11825684300E-01  0.17484089918E-01  0.24213830462E-01  0.00000000000E+00 0.  1.
     999901    1    3    3    0    0 -0.15572748197E-02  0.72150563875E-01  0.82868144916E-01  0.88683440304E+00  0.88000000000E+00 0. -1.
        -11    1    4    4    0    0  0.32418459018E-02 -0.44932710899E-01 -0.39791837849E-01  0.60109147007E-01  0.51100000000E-03 0. -1.
         11    1    4    4    0    0  0.10180056016E-01 -0.39043537276E-01 -0.60560396986E-01  0.72772619492E-01  0.51100000000E-03 0.  1.
</event>
<event>
 8    1  0.1120016E+005  0.1043930E+01  0.7957747E-01            NaN
         13   -1    0    0    0    0  0.00000000000E+00  0.00000000000E+00  0.74505805969E-08  0.10566000000E+00  0.10566000000E+00 0. -1.
     999900   -1    0    0    0    0 -0.00000000000E+00 -0.00000000000E+00 -0.74505805969E-08  0.93827000000E+00  0.93827000000E+00 0. -1.
     999902    2    1    2    0    0 -0.12709791250E-01 -0.19429081814E-01  0.42082201267E-02  0.10203347223E+01  0.10200618650E+01 0.  0.
     999903    2    3    3    0    0 -0.79545496417E-01 -0.10437381961E+00 -0.94431439024E-02  0.13361662745E+00  0.23299140454E-01 0.  0.
         14    1    1    2    0    0  0.12709791250E-01  0.19429081814E-01 -0.42082201267E-02  0.23595277714E-01  0.00000000000E+00 0. -1.
     999901    1    3    3    0    0  0.66835705167E-01  0.84944737792E-01  0.13651364029E-01  0.88671809483E+00  0.88000000000E+00 0.  1.
        -11    1    4    4    0    0 -0.61523311283E-01 -0.70273593151E-01 -0.15156063959E-01  0.94622741036E-01  0.51100000000E-03 0. -1.
         11    1    4    4    0    0 -0.18022185134E-01 -0.34100226455E-01  0.57129200570E-02  0.38993886417E-01  0.51100000000E-03 0.  1.
</event>
<event>
 8    1  0.1120016E+005  0.1043930E+01  0.7957747E-01            NaN
         13   -1    0    0    0    0  0.00000000000E+00  0.00000000000E+00  0.74505805969E-08  0.10566000000E+00  0.10566000000E+00 0. -1.
     999900   -1    0    0    0    0 -0.00000000000E+00 -0.00000000000E+00 -0.74505805969E-08  0.93827000000E+00  0.93827000000E+00 0.  1.
     999902    2    1    2    0    0 -0.20021784647E-01 -0.36035546365E-02  0.14638900098E-01  0.10188669822E+01  0.10185586741E+01 0.  0.
     999903    2    3    3    0    0  0.10628760285E+00 -0.55719018785E-01  0.39014432917E-01  0.12798862371E+00  0.21384532974E-01 0.  0.
         14    1    1    2    0    0  0.20021784647E-01  0.36035546365E-02 -0.14638900098E-01  0.25063017826E-01  0.00000000000E+00 0.  1.
     999901    1    3    3    0    0 -0.12630938750E+00  0.52115464148E-01 -0.24375532819E-01  0.89087835846E+00  0.88000000000E+00 0.  1.
        -11    1    4    4    0    0  0.78560652924E-01 -0.51157718571E-01  0.31434358582E-01  0.98880070680E-01  0.51100000000E-03 0.  1.
         11    1    4    4    0    0  0.27726949925E-01 -0.45613002141E-02  0.75800743350E-02  0.29108553033E-01  0.51100000000E-03 0. -1.
</event>
<event>
 8    1  0.1120016E+005  0.1043930E+01  0.7957747E-01            NaN
         13   -1    0    0    0    0  0.00000000000E+00  0.00000000000E+00  0.74505805969E-08  0.10566000000E+00  0.10566000000E+00 0.  1.
     999900   -1    0    0    0    0 -0.00000000000E+00 -0.00000000000E+00 -0.74505805969E-08  0.93827000000E+00  0.93827000000E+00 0. -1.
     999902    2    1    2    0    0  0.46473797749E-02  0.23005884292E-01 -0.70740348205E-02  0.10194165176E+01  0.10191217423E+01 0.  0.
     999903    2    3    3    0    0  0.11642772606E+00 -0.48786607743E-01 -0.19868114870E-01  0.12935320737E+00  0.20048984474E-01 0.  0.
         14    1    1    2    0    0 -0.46473797749E-02 -0.23005884292E-01  0.70740348205E-02  0.24513482402E-01  0.00000000000E+00 0.  1.
     999901    1    3    3    0    0 -0.11178034628E+00  0.71792492035E-01  0.12794080050E-01  0.89006331023E+00  0.88000000000E+00 0. -1.
        -11    1    4    4    0    0  0.42779567684E-01 -0.11201662133E-01  0.37158798239E-03  0.44226325242E-01  0.51100000000E-03 0.  1.
         11    1    4    4    0    0  0.73648158375E-01 -0.37584945610E-01 -0.20239702853E-01  0.85126882129E-01  0.51100000000E-03 0. -1.
</event>
<event>
 8    1  0.1120016E+005  0.1043930E+01  0.7957747E-01            NaN
         13   -1    0    0    0    0  0.00000000000E+00  0.00000000000E+00  0.74505805969E-08  0.10566000000E+00  0.10566000000E+00 0.  1.
     999900   -1    0    0    0    0 -0.00000000000E+00 -0.00000000000E+00 -0.74505805969E-08  0.93827000000E+00  0.93827000000E+00 0. -1.
     999902    2    1    2    0    0 -0.51573993370E-02 -0.23749223979E-01  0.23468602123E-02  0.10195141822E+01  0.10192217793E+01 0.  0.
     999903    2    3    3    0    0  0.26775025339E-01  0.10802406838E+00 -0.58117193144E-01  0.12707943269E+00  0.19633459782E-01 0.  0.
         14    1    1    2    0    0  0.51573993370E-02  0.23749223979E-01 -0.23468602123E-02  0.24415817831E-01  0.00000000000E+00 0. -1.
     999901    1    3    3    0    0 -0.31932424676E-01 -0.13177329236E+00  0.60464053357E-01  0.89243474948E+00  0.88000000000E+00 0. -1.
        -11    1    4    4    0    0  0.27604200865E-01  0.80327408114E-01 -0.39369021425E-01  0.93619791543E-01  0.51100000000E-03 0.  1.
         11    1    4    4    0    0 -0.82917552644E-03  0.27696660267E-01 -0.18748171719E-01  0.33459641149E-01  0.51100000000E-03 0. -1.
</event>
<event>
 8    1  0.1120016E+005  0.1043930E+01  0.7957747E-01            NaN
         13   -1    0    0    0    0  0.00000000000E+00  0.00000000000E+00  0.74505805969E-08  0.10566000000E+00  0.10566000000E+00 0.  1.
     999900   -1    0    0    0    0 -0.00000000000E+00 -0.00000000000E+00 -0.74505805969E-08  0.93827000000E+00  0.93827000000E+00 0. -1.
     999902    2    1    2    0    0 -0.14552678508E-01 -0.12199112626E-01  0.21130754593E-01  0.10155203610E+01  0.10151228970E+01 0.  0.
     999903    2    3    3    0    0 -0.76034026819E-01  0.59849602642E-02  0.10277518767E+00  0.12941854393E+00  0.19220492399E-01 0.  0.
         14    1    1    2    0    0  0.14552678508E-01  0.12199112626E-01 -0.21130754593E-01  0.28409639039E-01  0.00000000000E+00 0. -1.
     999901    1    3    3    0    0  0.61481348311E-01 -0.18184072890E-01 -0.81644433078E-01  0.88610181703E+00  0.88000000000E+00 0. -1.
        -11    1    4    4    0    0 -0.61169648389E-01  0.12217523003E-01  0.78344978053E-01  0.10014584594E+00  0.51100000000E-03 0.  1.
         11    1    4    4    0    0 -0.14864378430E-01 -0.62325627390E-02  0.24430209617E-01  0.29272697986E-01  0.51100000000E-03 0. -1.
</event>
<event>
 8    1  0.1120016E+005  0.1043930E+01  0.7957747E-01            NaN
         13   -1    0    0    0    0  0.00000000000E+00  0.00000000000E+00  0.74505805969E-08  0.10566000000E+00  0.10566000000E+00 0. -1.
     999900   -1    0    0    0    0 -0.00000000000E+00 -0.00000000000E+00 -0.74505805969E-08  0.93827000000E+00  0.93827000000E+00 0.  1.
     999902    2    1    2    0    0 -0.54233816072E-02  0.27376405318E-01  0.58453451168E-02  0.10154159912E+01  0.10150155598E+01 0.  0.
     999903    2    3    3    0    0 -0.65311830020E-01  0.10167545908E+00 -0.40720931947E-01  0.12903266908E+00  0.19690131299E-01 0.  0.
         14    1    1    2    0    0  0.54233816072E-02 -0.27376405318E-01 -0.58453451168E-02  0.28514008763E-01  0.00000000000E+00 0.  1.
     999901    1    3    3    0    0  0.59888448413E-01 -0.74299053764E-01  0.46566277063E-01  0.88638332216E+00  0.88000000000E+00 0. -1.
        -11    1    4    4    0    0 -0.56030824902E-01  0.73104455227E-01 -0.34450871763E-01  0.98340420985E-01  0.51100000000E-03 0. -1.
         11    1    4    4    0    0 -0.92810051178E-02  0.28571003855E-01 -0.62700601840E-02  0.30692248093E-01  0.51100000000E-03 0.  1.
</event>
<event>
 8    1  0.1120016E+005  0.1043930E+01  0.7957747E-01            NaN
         13   -1    0    0    0    0  0.00000000000E+00  0.00000000000E+00  0.74505805969E-08  0.10566000000E+00  0.10566000000E+00 0. -1.
     999900   -1    0    0    0    0 -0.00000000000E+00 -0.00000000000E+00 -0.74505805969E-08  0.93827000000E+00  0.93827000000E+00 0. -1.
     999902    2    1    2    0    0 -0.17381547606E-01  0.90283676739E-02  0.12120506833E-01  0.10208966263E+01  0.10206367548E+01 0.  0.
     999903    2    3    3    0    0 -0.49863868007E-01 -0.52251394395E-01 -0.10658845939E+00  0.13022152891E+00  0.19491879493E-01 0.  0.
         14    1    1    2    0    0  0.17381547606E-01 -0.90283676739E-02 -0.12120506833E-01  0.23033373742E-01  0.00000000000E+00 0. -1.
     999901    1    3    3    0    0  0.32482320401E-01  0.61279762069E-01  0.11870896623E+00  0.89067509735E+00  0.88000000000E+00 0.  1.
        -11    1    4    4    0    0 -0.23831191884E-01 -0.27613816929E-01 -0.70370455790E-01  0.79263552539E-01  0.51100000000E-03 0. -1.
         11    1    4    4    0    0 -0.26032676123E-01 -0.24637577466E-01 -0.36218003604E-01  0.50957976369E-01  0.51100000000E-03 0.  1.
</event>
<event>
 8    1  0.1120016E+005  0.1043930E+01  0.7957747E-01            NaN
         13   -1    0    0    0    0  0.00000000000E+00  0.00000000000E+00  0.74505805969E-08  0.10566000000E+00  0.10566000000E+00 0.  1.
     999900   -1    0    0    0    0 -0.00000000000E+00 -0.00000000000E+00 -0.74505805969E-08  0.93827000000E+00  0.93827000000E+00 0. -1.
     999902    2    1    2    0    0  0.18691808520E-01  0.88164235543E-02  0.11832655150E-01  0.10201156187E+01  0.10198376100E+01 0.  0.
     999903    2    3    3    0    0  0.78386398717E-01  0.10483041342E+00 -0.95663630514E-02  0.13262474642E+00  0.19077866260E-01 0.  0.
         14    1    1    2    0    0 -0.18691808520E-01 -0.88164235543E-02 -0.11832655150E-01  0.23814381326E-01  0.00000000000E+00 0. -1.
     999901    1    3    3    0    0 -0.59694590196E-01 -0.96013989862E-01  0.21399018202E-01  0.88749087225E+00  0.88000000000E+00 0.  1.
        -11    1    4    4    0    0  0.56693990157E-01  0.86968821668E-01 -0.11508551863E-01  0.10445330224E+00  0.51100000000E-03 0.  1.
         11    1    4    4    0    0  0.21692408559E-01  0.17861591748E-01  0.19421888114E-02  0.28171444182E-01  0.51100000000E-03 0. -1.
</event>
<event>
 8    1  0.1120016E+005  0.1043930E+01  0.7957747E-01            NaN
         13   -1    0    0    0    0  0.00000000000E+00  0.00000000000E+00  0.74505805969E-08  0.10566000000E+00  0.10566000000E+00 0. -1.
     999900   -1    0    0    0    0 -0.00000000000E+00 -0.00000000000E+00 -0.74505805969E-08  0.93827000000E+00  0.93827000000E+00 0.  1.
     999902    2    1    2    0    0 -0.61366006441E-02  0.85055212189E-02  0.12528857839E-01  0.10275906598E+01  0.10274607487E+01 0.  0.
     999903    2    3    3    0    0  0.50959926462E-01  0.16314110796E-01 -0.12273044115E+00  0.13539333555E+00  0.20137770738E-01 0.  0.
         14    1    1    2    0    0  0.61366006441E-02 -0.85055212189E-02 -0.12528857839E-01  0.16339340177E-01  0.00000000000E+00 0.  1.
     999901    1    3    3    0    0 -0.57096527106E-01 -0.78085895774E-02  0.13525929899E+00  0.89219732427E+00  0.88000000000E+00 0. -1.
        -11    1    4    4    0    0  0.48771679992E-01  0.15806122231E-01 -0.98421847195E-01  0.11097581446E+00  0.51100000000E-03 0. -1.
         11    1    4    4    0    0  0.21882464696E-02  0.50798856538E-03 -0.24308593954E-01  0.24417521087E-01  0.51100000000E-03 0.  1.
</event>
<event>
 8    1  0.1120016E+005  0.1043930E+01  0.7957747E-01            NaN
         13   -1    0    0    0    0  0.00000000000E+00  0.00000000000E+00  0.74505805969E-08  0.10566000000E+00  0.10566000000E+00 0. -1.
     999900   -1    0    0    0    0 -0.00000000000E+00 -0.00000000000E+00 -0.74505805969E-08  0.93827000000E+00  0.93827000000E+00 0. -1.
     999902    2    1    2    0    0  0.11472497259E-01 -0.38238722621E-02 -0.20297710974E-01  0.10203029548E+01  0.10200293537E+01 0.  0.
     999903    2    3    3    0    0 -0.49046173476E-01 -0.11827723283E+00  0.12409256344E-01  0.13022889782E+00  0.20261916200E-01 0.  0.
         14    1    1    2    0    0 -0.11472497259E-01  0.38238722621E-02  0.20297710974E-01  0.23627045165E-01  0.00000000000E+00 0. -1.
     999901    1    3    3    0    0  0.60518670735E-01  0.11445336056E+00 -0.32706967318E-01  0.89007405701E+00  0.88000000000E+00 0.  1.
        -11    1    4    4    0    0 -0.30117473248E-01 -0.94436439275E-01  0.11260608558E-01  0.99761544114E-01  0.51100000000E-03 0. -1.
         11    1    4    4    0    0 -0.18928700228E-01 -0.23840793551E-01  0.11486477863E-02  0.30467353711E-01  0.51100000000E-03 0.  1.
</event>
<event>
 8    1  0.1120016E+005  0.1043930E+01  0.7957747E-01            NaN
         13   -1    0    0    0    0  0.00000000000E+00  0.00000000000E+00  0.74505805969E-08  0.10566000000E+00  0.10566000000E+00 0. -1.
     999900   -1    0    0    0    0 -0.00000000000E+00 -0.00000000000E+00 -0.74505805969E-08  0.93827000000E+00  0.93827000000E+00 0.  1.
     999902    2    1    2    0    0 -0.11215836856E-01  0.16362725126E-01  0.90800747745E-02  0.10221129991E+01  0.10218801307E+01 0.  0.
     999903    2    3    3    0    0  0.12109560324E+00  0.48527700984E-01  0.98059520900E-02  0.13164041124E+00  0.14627313037E-01 0.  0.
         14    1    1    2    0    0  0.11215836856E-01 -0.16362725126E-01 -0.90800747745E-02  0.21817000890E-01  0.00000000000E+00 0.  1.
     999901    1    3    3    0    0 -0.13231144010E+00 -0.32164975858E-01 -0.72587731542E-03  0.89047258787E+00  0.88000000000E+00 0.  1.
        -11    1    4    4    0    0  0.74603093715E-01  0.34619865882E-01  0.11691733968E-01  0.83072946678E-01  0.51100000000E-03 0.  1.
         11    1    4    4    0    0  0.46492509529E-01  0.13907835103E-01 -0.18857818780E-02  0.48567464560E-01  0.51100000000E-03 0. -1.
</event>
<event>
 8    1  0.1120016E+005  0.1043930E+01  0.7957747E-01            NaN
         13   -1    0    0    0    0  0.00000000000E+00  0.00000000000E+00  0.74505805969E-08  0.10566000000E+00  0.10566000000E+00 0.  1.
     999900   -1    0    0    0    0 -0.00000000000E+00 -0.00000000000E+00 -0.74505805969E-08  0.93827000000E+00  0.93827000000E+00 0.  1.
     999902    2    1    2    0    0 -0.16880682982E-01  0.17205604199E-01 -0.15266400093E-02  0.10197779627E+01  0.10194919188E+01 0.  0.
     999903    2    3    3    0    0  0.10011056122E+00 -0.50270418438E-01  0.57618878298E-01  0.12751221915E+00  0.19753264540E-01 0.  0.
         14    1    1    2    0    0  0.16880682982E-01 -0.17205604199E-01  0.15266400093E-02  0.24152037254E-01  0.00000000000E+00 0.  1.
     999901    1    3    3    0    0 -0.11699124420E+00  0.67476022638E-01 -0.59145518307E-01  0.89226574359E+00  0.88000000000E+00 0.  1.
        -11    1    4    4    0    0  0.71643155421E-01 -0.43306458062E-01  0.36194313989E-01  0.91205704398E-01  0.51100000000E-03 0.  1.
         11    1    4    4    0    0  0.28467405798E-01 -0.69639603763E-02  0.21424564309E-01  0.36306514757E-01  0.51100000000E-03 0. -1.
</event>
<event>
 8    1  0.1120016E+005  0.1043930E+01  0.7957747E-01            NaN
         13   -1    0    0    0    0  0.00000000000E+00  0.00000000000E+00  0.74505805969E-08  0.10566000000E+00  0.10566000000E+00 0. -1.
     999900   -1    0    0    0    0 -0.00000000000E+00 -0.00000000000E+00 -0.74505805969E-08  0.93827000000E+00  0.93827000000E+00 0.  1.
     999902    2    1    2    0    0  0.61809928501E-02 -0.26121560255E-02 -0.21480560418E-01  0.10214257225E+01  0.10211777828E+01 0.  0.
     999903    2    3    3    0    0 -0.11711051248E+00  0.40670025267E-01  0.34308436619E-01  0.13002987622E+00  0.19020431059E-01 0.  0.
         14    1    1    2    0    0 -0.61809928501E-02  0.26121560255E-02  0.21480560418E-01  0.22504277540E-01  0.00000000000E+00 0. -1.
     999901    1    3    3    0    0  0.12329150533E+00 -0.43282181293E-01 -0.55788997037E-01  0.89139584624E+00  0.88000000000E+00 0.  1.
        -11    1    4    4    0    0 -0.89877879703E-01  0.22631232563E-01  0.23476749334E-01  0.95611844598E-01  0.51100000000E-03 0. -1.
         11    1    4    4    0    0 -0.27232632778E-01  0.18038792704E-01  0.10831687285E-01  0.34418031621E-01  0.51100000000E-03 0.  1.
</event>
<event>
 8    1  0.1120016E+005  0.1043930E+01  0.7957747E-01            NaN
         13   -1    0    0    0    0  0.00000000000E+00  0.00000000000E+00  0.74505805969E-08  0.10566000000E+00  0.10566000000E+00 0.  1.
     999900   -1    0    0    0    0 -0.00000000000E+00 -0.00000000000E+00 -0.74505805969E-08  0.93827000000E+00  0.93827000000E+00 0.  1.
     999902    2    1    2    0    0 -0.74819446871E-02  0.21064484682E-02  0.22845253894E-01  0.10197986460E+01  0.10195130976E+01 0.  0.
     999903    2    3    3    0    0 -0.47435441936E-01 -0.13925936858E-01 -0.11620582729E+00  0.12784095500E+00  0.19886241722E-01 0.  0.
         14    1    1    2    0    0  0.74819446871E-02 -0.21064484682E-02 -0.22845253894E-01  0.24131354022E-01  0.00000000000E+00 0. -1.
     999901    1    3    3    0    0  0.39953497249E-01  0.16032385326E-01  0.13905108118E+00  0.89195769098E+00  0.88000000000E+00 0. -1.
        -11    1    4    4    0    0 -0.22096193555E-01 -0.77347934468E-02 -0.79013755665E-01  0.82410578839E-01  0.51100000000E-03 0.  1.
         11    1    4    4    0    0 -0.25339248381E-01 -0.61911434108E-02 -0.37192071623E-01  0.45430376158E-01  0.51100000000E-03 0. -1.
</event>
<event>
 8    1  0.1120016E+005  0.1043930E+01  0.7957747E-01            NaN
         13   -1    0    0    0    0  0.00000000000E+00  0.00000000000E+00  0.74505805969E-08  0.10566000000E+00  0.10566000000E+00 0.  1.
     999900   -1    0    0    0    0 -0.00000000000E+00 -0.00000000000E+00 -0.74505805969E-08  0.93827000000E+00  0.93827000000E+00 0. -1.
     999902    2    1    2    0    0 -0.12076501338E-01  0.25553647761E-02  0.19548782296E-01  0.10208101673E+01  0.10205483188E+01 0.  0.
     999903    2    3    3    0    0 -0.29487021812E-01 -0.12588582090E+00  0.10709213813E-01  0.13127185878E+00  0.20022219870E-01 0.  0.
         14    1    1    2    0    0  0.12076501338E-01 -0.25553647761E-02 -0.19548782296E-01  0.23119832676E-01  0.00000000000E+00 0.  1.
     999901    1    3    3    0    0  0.17410520474E-01  0.12844118567E+00  0.88395684827E-02  0.88953830855E+00  0.88000000000E+00 0.  1.
        -11    1    4    4    0    0 -0.19146526407E-01 -0.61883101434E-01  0.14295772671E-01  0.66338058110E-01  0.51100000000E-03 0.  1.
         11    1    4    4    0    0 -0.10340495405E-01 -0.64002719462E-01 -0.35865588577E-02  0.64933800668E-01  0.51100000000E-03 0. -1.
</event>
<event>
 8    1  0.1373820E+005  0.1043930E+01  0.7957747E-01            NaN
         13   -1    0    0    0    0  0.00000000000E+00  0.00000000000E+00  0.74505805969E-08  0.10566000000E+00  0.10566000000E+00 0. -1.
     999900   -1    0    0    0    0 -0.00000000000E+00 -0.00000000000E+00 -0.74505805969E-08  0.93827000000E+00  0.93827000000E+00 0. -1.
     999902    2    1    2    0    0 -0.14674227648E-01 -0.43759028471E-02 -0.18095606728E-01  0.10202248852E+01  0.10199494517E+01 0.  0.
     999903    2    3    3    0    0 -0.93758169169E-01 -0.27175541108E-01  0.84094628368E-01  0.13049631008E+00  0.20694832778E-01 0.  0.
         14    1    1    2    0    0  0.14674227648E-01  0.43759028471E-02  0.18095606728E-01  0.23705114758E-01  0.00000000000E+00 0. -1.
     999901    1    3    3    0    0  0.79083941521E-01  0.22799638261E-01 -0.10219023510E+00  0.88972857516E+00  0.88000000000E+00 0. -1.
        -11    1    4    4    0    0 -0.52550082403E-01 -0.98742893260E-02  0.57345414704E-01  0.78407719383E-01  0.51100000000E-03 0. -1.
         11    1    4    4    0    0 -0.41208086767E-01 -0.17301251782E-01  0.26749213663E-01  0.52088590697E-01  0.51100000000E-03 0.  1.
</event>
<event>
 8    1  0.1120016E+005  0.1043930E+01  0.7957747E-01            NaN
         13   -1    0    0    0    0  0.00000000000E+00  0.00000000000E+00  0.74505805969E-08  0.10566000000E+00  0.10566000000E+00 0. -1.
     999900   -1    0    0    0    0 -0.00000000000E+00 -0.00000000000E+00 -0.74505805969E-08  0.93827000000E+00  0.93827000000E+00 0.  1.
     999902    2    1    2    0    0  0.11535510216E-01 -0.16622023723E-01 -0.14169020367E-01  0.10192293764E+01  0.10189300275E+01 0.  0.
     999903    2    3    3    0    0  0.87570917504E-01  0.81770040758E-01  0.42479544964E-01  0.12868378998E+00  0.20000022646E-01 0.  0.
         14    1    1    2    0    0 -0.11535510216E-01  0.16622023723E-01  0.14169020367E-01  0.24700623611E-01  0.00000000000E+00 0. -1.
     999901    1    3    3    0    0 -0.76035407289E-01 -0.98392064481E-01 -0.56648565332E-01  0.89054558641E+00  0.88000000000E+00 0. -1.
        -11    1    4    4    0    0  0.47320778405E-01  0.41195739309E-01  0.32516246234E-01  0.70667619149E-01  0.51100000000E-03 0. -1.
         11    1    4    4    0    0  0.40250139099E-01  0.40574301449E-01  0.99632987302E-02  0.58016170833E-01  0.51100000000E-03 0.  1.
</event>
<event>
 8    1  0.1120016E+005  0.1043930E+01  0.7957747E-01            NaN
         13   -1    0    0    0    0  0.00000000000E+00  0.00000000000E+00  0.74505805969E-08  0.10566000000E+00  0.10566000000E+00 0.  1.
     999900   -1    0    0    0    0 -0.00000000000E+00 -0.00000000000E+00 -0.74505805969E-08  0.93827000000E+00  0.93827000000E+00 0. -1.
     999902    2    1    2    0    0 -0.15502262540E-01  0.17224868423E-01 -0.45984232666E-02  0.10203045533E+01  0.10200309896E+01 0.  0.
     999903    2    3    3    0    0 -0.71606116994E-01 -0.33517637493E-01  0.10193620410E+00  0.13065739220E+00  0.20724295312E-01 0.  0.
         14    1    1    2    0    0  0.15502262540E-01 -0.17224868423E-01  0.45984232666E-02  0.23625446718E-01  0.00000000000E+00 0. -1.
     999901    1    3    3    0    0  0.56103854453E-01  0.50742505916E-01 -0.10653462737E+00  0.88964716108E+00  0.88000000000E+00 0. -1.
        -11    1    4    4    0    0 -0.41828185599E-01 -0.87004205268E-02  0.48433413622E-01  0.64585997739E-01  0.51100000000E-03 0. -1.
         11    1    4    4    0    0 -0.29777931394E-01 -0.24817216966E-01  0.53502790480E-01  0.66071394462E-01  0.51100000000E-03 0.  1.
</event>
<event>
 8    1  0.1120016E+005  0.1043930E+01  0.7957747E-01            NaN
         13   -1    0    0    0    0  0.00000000000E+00  0.00000000000E+00  0.74505805969E-08  0.10566000000E+00  0.10566000000E+00 0.  1.
     999900   -1    0    0    0    0 -0.00000000000E+00 -0.00000000000E+00 -0.74505805969E-08  0.93827000000E+00  0.93827000000E+00 0.  1.
     999902    2    1    2    0    0  0.28844787900E-02  0.21076163593E-01 -0.85352184249E-02  0.10210089432E+01  0.10207516286E+01 0.  0.
     999903    2    3    3    0    0  0.59717956308E-01  0.20180981572E-01 -0.11511275116E+00  0.13275806876E+00  0.20006324499E-01 0.  0.
         14    1    1    2    0    0 -0.28844787900E-02 -0.21076163593E-01  0.85352184249E-02  0.22921056765E-01  0.00000000000E+00 0. -1.
     999901    1    3    3    0    0 -0.56833477518E-01  0.89518202038E-03  0.10657753273E+00  0.88825087447E+00  0.88000000000E+00 0. -1.
        -11    1    4    4    0    0  0.39909922830E-01  0.15022292501E-01 -0.94633226429E-01  0.10379874699E+00  0.51100000000E-03 0.  1.
         11    1    4    4    0    0  0.19808033478E-01  0.51586890712E-02 -0.20479524727E-01  0.28959321768E-01  0.51100000000E-03 0. -1.
</event>
<event>
 8    1  0.1120016E+005  0.1043930E+01  0.7957747E-01            NaN
         13   -1    0    0    0    0  0.00000000000E+00  0.00000000000E+00  0.74505805969E-08  0.10566000000E+00  0.10566000000E+00 0.  1.
     999900   -1    0    0    0    0 -0.00000000000E+00 -0.00000000000E+00 -0.74505805969E-08  0.93827000000E+00  0.93827000000E+00 0. -1.
     999902    2    1    2    0    0 -0.21380912729E-01  0.60563995459E-02 -0.44998208820E-02  0.10212568486E+01  0.10210051318E+01 0.  0.
     999903    2    3    3    0    0  0.68292513789E-01  0.10756055539E+00  0.18529827272E-01  0.13059710341E+00  0.21888545090E-01 0.  0.
         14    1    1    2    0    0  0.21380912729E-01 -0.60563995459E-02  0.44998208820E-02  0.22673151359E-01  0.00000000000E+00 0.  1.
     999901    1    3    3    0    0 -0.89673426518E-01 -0.10150415584E+00 -0.23029648154E-01  0.89065974523E+00  0.88000000000E+00 0. -1.
        -11    1    4    4    0    0  0.44082010495E-01  0.58402157953E-01  0.14126641977E-02  0.73186695813E-01  0.51100000000E-03 0.  1.
         11    1    4    4    0    0  0.24210503294E-01  0.49158397434E-01  0.17117163074E-01  0.57410407599E-01  0.51100000000E-03 0. -1.
</event>
<event>
 8    1  0.1120016E+005  0.1043930E+01  0.7957747E-01            NaN
         13   -1    0    0    0    0  0.00000000000E+00  0.00000000000E+00  0.74505805969E-08  0.10566000000E+00  0.10566000000E+00 0. -1.
     999900   -1    0    0    0    0 -0.00000000000E+00 -0.00000000000E+00 -0.74505805969E-08  0.93827000000E+00  0.93827000000E+00 0. -1.
     999902    2    1    2    0    0 -0.13211876704E-01  0.19377511303E-01 -0.63613045663E-02  0.10196296332E+01  0.10193400223E+01 0.  0.
     999903    2    3    3    0    0 -0.66824804657E-01 -0.13931858913E-01  0.10886452933E+00  0.12987637922E+00  0.18887480596E-01 0.  0.
         14    1    1    2    0    0  0.13211876704E-01 -0.19377511303E-01  0.63613045663E-02  0.24300366790E-01  0.00000000000E+00 0. -1.
     999901    1    3    3    0    0  0.53612927953E-01  0.33309370216E-01 -0.11522583390E+00  0.88975325399E+00  0.88000000000E+00 0. -1.
        -11    1    4    4    0    0 -0.72936419188E-02 -0.34269193460E-02  0.26530063013E-01  0.27731685003E-01  0.51100000000E-03 0. -1.
         11    1    4    4    0    0 -0.59531162738E-01 -0.10504939567E-01  0.82334466316E-01  0.10214469422E+00  0.51100000000E-03 0.  1.
</event>
<event>
 8    1  0.1120016E+005  0.1043930E+01  0.7957747E-01            NaN
         13   -1    0    0    0    0  0.00000000000E+00  0.00000000000E+00  0.74505805969E-08  0.10566000000E+00  0.10566000000E+00 0.  1.
     999900   -1    0    0    0    0 -0.00000000000E+00 -0.00000000000E+00 -0.74505805969E-08  0.93827000000E+00  0.93827000000E+00 0.  1.
     999902    2    1    2    0    0  0.90225308904E-02  0.21717229334E-01 -0.44788148765E-03  0.10204088454E+01  0.10201377197E+01 0.  0.
     999903    2    3    3    0    0  0.22818980081E-01  0.14341792913E-01  0.12679424037E+00  0.13111963678E+00  0.19727820016E-01 0.  0.
         14    1    1    2    0    0 -0.90225308904E-02 -0.21717229334E-01  0.44788148765E-03  0.23521154552E-01  0.00000000000E+00 0.  1.
     999901    1    3    3    0    0 -0.13796449190E-01  0.73754364217E-02 -0.12724212186E+00  0.88928920867E+00  0.88000000000E+00 0.  1.
        -11    1    4    4    0    0  0.36448222658E-03 -0.65239868458E-03  0.44468941746E-01  0.44478156126E-01  0.51100000000E-03 0.  1.
         11    1    4    4    0    0  0.22454497854E-01  0.14994191597E-01  0.82325298627E-01  0.86641480657E-01  0.51100000000E-03 0. -1.
</event>
<event>
 8    1  0.1120016E+005  0.1043930E+01  0.7957747E-01            NaN
         13   -1    0    0    0    0  0.00000000000E+00  0.00000000000E+00  0.74505805969E-08  0.10566000000E+00  0.10566000000E+00 0.  1.
     999900   -1    0    0    0    0 -0.00000000000E+00 -0.00000000000E+00 -0.74505805969E-08  0.93827000000E+00  0.93827000000E+00 0.  1.
     999902    2    1    2    0    0  0.13181731575E-01  0.17038277962E-01 -0.90303903527E-02  0.10205717271E+01  0.10203043866E+01 0.  0.
     999903    2    3    3    0    0 -0.12387689264E+00 -0.28927589193E-01 -0.51545545038E-02  0.12876852598E+00  0.19299583003E-01 0.  0.
         14    1    1    2    0    0 -0.13181731575E-01 -0.17038277962E-01  0.90303903527E-02  0.23358272906E-01  0.00000000000E+00 0.  1.
     999901    1    3    3    0    0  0.13705862421E+00  0.45965867156E-01 -0.38758358489E-02  0.89180320111E+00  0.88000000000E+00 0. -1.
        -11    1    4    4    0    0 -0.17189755783E-01 -0.82170828804E-02 -0.63267455441E-02  0.20082255479E-01  0.51100000000E-03 0. -1.
         11    1    4    4    0    0 -0.10668713686E+00 -0.20710506313E-01  0.11721910403E-02  0.10868627050E+00  0.51100000000E-03 0.  1.
</event>
<event>
 8    1  0.1120016E+005  0.1043930E+01  0.7957747E-01            NaN
         13   -1    0    0    0    0  0.00000000000E+00  0.00000000000E+00  0.74505805969E-08  0.10566000000E+00  0.10566000000E+00 0.  1.
     999900   -1    0    0    0    0 -0.00000000000E+00 -0.00000000000E+00 -0.74505805969E-08  0.93827000000E+00  0.93827000000E+00 0.  1.
     999902    2    1    2    0    0 -0.91922922094E-03  0.23366715530E-01 -0.17278132272E-01  0.10148545424E+01  0.10144379528E+01 0.  0.
     999903    2    3    3    0    0 -0.83073210902E-01 -0.10164632698E-01  0.89304137535E-01  0.12399349366E+00  0.19866538716E-01 0.  0.
         14    1    1    2    0    0  0.91922922094E-03 -0.23366715530E-01  0.17278132272E-01  0.29075457551E-01  0.00000000000E+00 0.  1.
     999901    1    3    3    0    0  0.82153981681E-01  0.33531348228E-01 -0.10658226981E+00  0.89086104879E+00  0.88000000000E+00 0.  1.
        -11    1    4    4    0    0 -0.38254261205E-01 -0.87038946718E-02  0.54861453059E-01  0.67447657006E-01  0.51100000000E-03 0.  1.
         11    1    4    4    0    0 -0.44818949697E-01 -0.14607380262E-02  0.34442684477E-01  0.56545836650E-01  0.51100000000E-03 0. -1.
</event>
<event>
 8    1  0.1120016E+005  0.1043930E+01  0.7957747E-01            NaN
         13   -1    0    0    0    0  0.00000000000E+00  0.00000000000E+00  0.74505805969E-08  0.10566000000E+00  0.10566000000E+00 0. -1.
     999900   -1    0    0    0    0 -0.00000000000E+00 -0.00000000000E+00 -0.74505805969E-08  0.93827000000E+00  0.93827000000E+00 0. -1.
     999902    2    1    2    0    0  0.13360020860E-01 -0.92597012595E-02 -0.55558737194E-02  0.10267515263E+01  0.10266078106E+01 0.  0.
     999903    2    3    3    0    0  0.26817660799E-01 -0.48144717624E-01  0.12317134977E+00  0.13643481266E+00  0.20153807020E-01 0.  0.
         14    1    1    2    0    0 -0.13360020860E-01  0.92597012595E-02  0.55558737194E-02  0.17178473669E-01  0.00000000000E+00 0.  1.
     999901    1    3    3    0    0 -0.13457639939E-01  0.38885016364E-01 -0.12872722349E+00  0.89031671367E+00  0.88000000000E+00 0. -1.
        -11    1    4    4    0    0  0.12705103537E-01 -0.40835914755E-01  0.88742265031E-01  0.98511127867E-01  0.51100000000E-03 0. -1.
         11    1    4    4    0    0  0.14112557262E-01 -0.73088028693E-02  0.34429084735E-01  0.37923684796E-01  0.51100000000E-03 0.  1.
</event>
<event>
 8    1  0.1120016E+005  0.1043930E+01  0.7957747E-01            NaN
         13   -1    0    0    0    0  0.00000000000E+00  0.00000000000E+00  0.74505805969E-08  0.10566000000E+00  0.10566000000E+00 0.  1.
     999900   -1    0    0    0    0 -0.00000000000E+00 -0.00000000000E+00 -0.74505805969E-08  0.93827000000E+00  0.93827000000E+00 0. -1.
     999902    2    1    2    0    0 -0.46243527995E-02  0.17314243744E-01  0.15881569225E-01  0.10199843967E+01  0.10197032792E+01 0.  0.
     999903    2    3    3    0    0 -0.11681427060E-01  0.10393705145E+00  0.80419230105E-01  0.13335120155E+00  0.19388759164E-01 0.  0.
         14    1    1    2    0    0  0.46243527995E-02 -0.17314243744E-01 -0.15881569225E-01  0.23945603277E-01  0.00000000000E+00 0. -1.
     999901    1    3    3    0    0  0.70570742605E-02 -0.86622807705E-01 -0.64537660880E-01  0.88663319517E+00  0.88000000000E+00 0. -1.
        -11    1    4    4    0    0 -0.65352098466E-02  0.64021950346E-01  0.60961776842E-01  0.88646028961E-01  0.51100000000E-03 0. -1.
         11    1    4    4    0    0 -0.51462172133E-02  0.39915101103E-01  0.19457453263E-01  0.44705172588E-01  0.51100000000E-03 0.  1.
</event>
<event>
 8    1  0.1120016E+005  0.1043930E+01  0.7957747E-01            NaN
         13   -1    0    0    0    0  0.00000000000E+00  0.00000000000E+00  0.74505805969E-08  0.10566000000E+00  0.10566000000E+00 0. -1.
     999900   -1    0    0    0    0 -0.00000000000E+00 -0.00000000000E+00 -0.74505805969E-08  0.93827000000E+00  0.93827000000E+00 0.  1.
     999902    2    1    2    0    0  0.73988105581E-02  0.80213070986E-02  0.21100429382E-01  0.10201747504E+01  0.10198981368E+01 0.  0.
     999903    2    3    3    0    0  0.43323450496E-01  0.42907753724E-01  0.11715240242E+00  0.13353298198E+00  0.19707237017E-01 0.  0.
         14    1    1    2    0    0 -0.73988105581E-02 -0.80213070986E-02 -0.21100429382E-01  0.23755249638E-01  0.00000000000E+00 0.  1.
     999901    1    3    3    0    0 -0.35924639938E-01 -0.34886446626E-01 -0.96051973041E-01  0.88664176838E+00  0.88000000000E+00 0.  1.
        -11    1    4    4    0    0  0.51778944262E-04  0.90853372775E-02  0.14756686570E-01  0.17336866904E-01  0.51100000000E-03 0.  1.
         11    1    4    4    0    0  0.43271671552E-01  0.33822416447E-01  0.10239571585E+00  0.11619611508E+00  0.51100000000E-03 0. -1.
</event>
<event>
 8    1  0.1120016E+005  0.1043930E+01  0.7957747E-01            NaN
         13   -1    0    0    0    0  0.00000000000E+00  0.00000000000E+00  0.74505805969E-08  0.10566000000E+00  0.10566000000E+00 0.  1.
     999900   -1    0    0    0    0 -0.00000000000E+00 -0.00000000000E+00 -0.74505805969E-08  0.93827000000E+00  0.93827000000E+00 0.  1.
     999902    2    1    2    0    0 -0.68662227516E-02  0.14715799749E-01  0.16332690750E-01  0.10208983573E+01  0.10206385253E+01 0.  0.
     999903    2    3    3    0    0  0.50124278295E-01  0.10395586801E+00  0.63518765348E-01  0.13329583782E+00  0.20344067000E-01 0.  0.
         14    1    1    2    0    0  0.68662227516E-02 -0.14715799749E-01 -0.16332690750E-01  0.23031642674E-01  0.00000000000E+00 0. -1.
     999901    1    3    3    0    0 -0.56990501047E-01 -0.89240068257E-01 -0.47186074598E-01  0.88760251950E+00  0.88000000000E+00 0.  1.
        -11    1    4    4    0    0  0.30068366328E-01  0.39361828694E-01  0.27925595241E-01  0.56864401890E-01  0.51100000000E-03 0.  1.
         11    1    4    4    0    0  0.20055911968E-01  0.64594039313E-01  0.35593170107E-01  0.76431435933E-01  0.51100000000E-03 0. -1.
</event>
<event>
 8    1  0.1120016E+005  0.1043930E+01  0.7957747E-01            NaN
         13   -1    0    0    0    0  0.00000000000E+00  0.00000000000E+00  0.74505805969E-08  0.10566000000E+00  0.10566000000E+00 0.  1.
     999900   -1    0    0    0    0 -0.00000000000E+00 -0.00000000000E+00 -0.74505805969E-08  0.93827000000E+00  0.93827000000E+00 0. -1.
     999902    2    1    2    0    0 -0.93032614533E-02 -0.58842335157E-02  0.24004138971E-01  0.10175221685E+01  0.10171794285E+01 0.  0.
     999903    2    3    3    0    0  0.90764093289E-02  0.68178235832E-01  0.10871225274E+00  0.13016737687E+00  0.19863007226E-01 0.  0.
         14    1    1    2    0    0  0.93032614533E-02  0.58842335157E-02 -0.24004138971E-01  0.26407831518E-01  0.00000000000E+00 0. -1.
     999901    1    3    3    0    0 -0.18379670782E-01 -0.74062469347E-01 -0.84708113774E-01  0.88735479162E+00  0.88000000000E+00 0. -1.
        -11    1    4    4    0    0  0.11767275836E-01  0.40978384317E-01  0.52280066983E-01  0.67462310119E-01  0.51100000000E-03 0. -1.
         11    1    4    4    0    0 -0.26908665073E-02  0.27199851515E-01  0.56432185762E-01  0.62705066748E-01  0.51100000000E-03 0.  1.
</event>
<event>
 8    1  0.1120016E+005  0.1043930E+01  0.7957747E-01            NaN
         13   -1    0    0    0    0  0.00000000000E+00  0.00000000000E+00  0.74505805969E-08  0.10566000000E+00  0.10566000000E+00 0. -1.
     999900   -1    0    0    0    0 -0.00000000000E+00 -0.00000000000E+00 -0.74505805969E-08  0.93827000000E+00  0.93827000000E+00 0. -1.
     999902    2    1    2    0    0  0.19101065632E-02  0.20780945412E-01  0.10846530705E-01  0.10204109986E+01  0.10201399231E+01 0.  0.
     999903    2    3    3    0    0 -0.41759056432E-01 -0.36224099932E-01 -0.11445500896E+00  0.12863914052E+00  0.19800888525E-01 0.  0.
         14    1    1    2    0    0 -0.19101065632E-02 -0.20780945412E-01 -0.10846530705E-01  0.23519001417E-01  0.00000000000E+00 0.  1.
     999901    1    3    3    0    0  0.43669162995E-01  0.57005045344E-01  0.12530153967E+00  0.89177185806E+00  0.88000000000E+00 0.  1.
        -11    1    4    4    0    0 -0.22526403721E-01 -0.14374199148E-01 -0.74897230400E-01  0.79523032565E-01  0.51100000000E-03 0.  1.
         11    1    4    4    0    0 -0.19232652711E-01 -0.21849900784E-01 -0.39557778565E-01  0.49116107955E-01  0.51100000000E-03 0. -1.
</event>
<event>
 8    1  0.1120016E+005  0.1043930E+01  0.7957747E-01            NaN
         13   -1    0    0    0    0  0.00000000000E+00  0.00000000000E+00  0.74505805969E-08  0.10566000000E+00  0.10566000000E+00 0.  1.
     999900   -1    0    0    0    0 -0.00000000000E+00 -0.00000000000E+00 -0.74505805969E-08  0.93827000000E+00  0.93827000000E+00 0. -1.
     999902    2    1    2    0    0 -0.89948233588E-02  0.11279546289E-01  0.19235098619E-01  0.10198857901E+01  0.10196023248E+01 0.  0.
     999903    2    3    3    0    0  0.10767898127E+00  0.28201755254E-02  0.71165162926E-01  0.13062707114E+00  0.19905649975E-01 0.  0.
         14    1    1    2    0    0  0.89948233588E-02 -0.11279546289E-01 -0.19235098619E-01  0.24044209919E-01  0.00000000000E+00 0. -1.
     999901    1    3    3    0    0 -0.11667380463E+00  0.84593707640E-02 -0.51930064308E-01  0.88925871895E+00  0.88000000000E+00 0. -1.
        -11    1    4    4    0    0  0.34454967933E-01  0.96766803456E-02  0.19619881635E-01  0.40816465233E-01  0.51100000000E-03 0. -1.
         11    1    4    4    0    0  0.73224013342E-01 -0.68565048202E-02  0.51545281292E-01  0.89810605903E-01  0.51100000000E-03 0.  1.
</event>
<event>
 8    1  0.1120016E+005  0.1043930E+01  0.7957747E-01            NaN
         13   -1    0    0    0    0  0.00000000000E+00  0.00000000000E+00  0.74505805969E-08  0.10566000000E+00  0.10566000000E+00 0.  1.
     999900   -1    0    0    0    0 -0.00000000000E+00 -0.00000000000E+00 -0.74505805969E-08  0.93827000000E+00  0.93827000000E+00 0. -1.
     999902    2    1    2    0    0  0.18716760323E-02  0.22601951435E-01 -0.62127783806E-02  0.10204151112E+01  0.10201441316E+01 0.  0.
     999903    2    3    3    0    0 -0.12409498824E+00  0.37541161320E-01  0.50793201674E-02  0.13124792108E+00  0.19781617612E-01 0.  0.
         14    1    1    2    0    0 -0.18716760323E-02 -0.22601951435E-01  0.62127783806E-02  0.23514888795E-01  0.00000000000E+00 0.  1.
     999901    1    3    3    0    0  0.12596666427E+00 -0.14939209885E-01 -0.11292098548E-01  0.88916719012E+00  0.88000000000E+00 0.  1.
        -11    1    4    4    0    0 -0.27217418243E-01  0.38457127531E-02 -0.58110083670E-02  0.28099934193E-01  0.51100000000E-03 0. -1.
         11    1    4    4    0    0 -0.96877569998E-01  0.33695448567E-01  0.10890328534E-01  0.10314798689E+00  0.51100000000E-03 0.  1.
</event>
<event>
 8    1  0.1120016E+005  0.1043930E+01  0.7957747E-01            NaN
         13   -1    0    0    0    0  0.00000000000E+00  0.00000000000E+00  0.74505805969E-08  0.10566000000E+00  0.10566000000E+00 0.  1.
     999900   -1    0    0    0    0 -0.00000000000E+00 -0.00000000000E+00 -0.74505805969E-08  0.93827000000E+00  0.93827000000E+00 0.  1.
     999902    2    1    2    0    0 -0.58837708334E-02  0.19808804647E-01 -0.68645553320E-02  0.10221554823E+01  0.10219235296E+01 0.  0.
     999903    2    3    3    0    0  0.20556097063E-01  0.82830237166E-01  0.10002824347E+00  0.13305659129E+00  0.20371688171E-01 0.  0.
         14    1    1    2    0    0  0.58837708334E-02 -0.19808804647E-01  0.68645553320E-02  0.21774517690E-01  0.00000000000E+00 0. -1.
     999901    1    3    3    0    0 -0.26439867896E-01 -0.63021432520E-01 -0.10689279880E+00  0.88909889102E+00  0.88000000000E+00 0.  1.
        -11    1    4    4    0    0 -0.42551317963E-03  0.35792897975E-01  0.34600734765E-01  0.49787393728E-01  0.51100000000E-03 0.  1.
         11    1    4    4    0    0  0.20981610242E-01  0.47037339191E-01  0.65427508707E-01  0.83269197565E-01  0.51100000000E-03 0. -1.
</event>
<event>
 8    1  0.1120016E+005  0.1043930E+01  0.7957747E-01            NaN
         13   -1    0    0    0    0  0.00000000000E+00  0.00000000000E+00  0.74505805969E-08  0.10566000000E+00  0.10566000000E+00 0. -1.
     999900   -1    0    0    0    0 -0.00000000000E+00 -0.00000000000E+00 -0.74505805969E-08  0.93827000000E+00  0.93827000000E+00 0. -1.
     999902    2    1    2    0    0 -0.16358484627E-01 -0.12893294642E-01 -0.11429625204E-01  0.10201713511E+01  0.10198946574E+01 0.  0.
     999903    2    3    3    0    0  0.10783031967E+00  0.12467234034E-01 -0.68375847838E-01  0.12926794004E+00  0.15878727611E-01 0.  0.
         14    1    1    2    0    0  0.16358484627E-01  0.12893294642E-01  0.11429625204E-01  0.23758648916E-01  0.00000000000E+00 0. -1.
     999901    1    3    3    0    0 -0.12418880430E+00 -0.25360528676E-01  0.56946222634E-01  0.89090341104E+00  0.88000000000E+00 0. -1.
        -11    1    4    4    0    0  0.60628037483E-01  0.63916925215E-03 -0.43426371046E-01  0.74580683086E-01  0.51100000000E-03 0.  1.
         11    1    4    4    0    0  0.47202282191E-01  0.11828064782E-01 -0.24949476791E-01  0.54687256959E-01  0.51100000000E-03 0. -1.
</event>
<event>
 8    1  0.1120016E+005  0.1043930E+01  0.7957747E-01            NaN
         13   -1    0    0    0    0  0.00000000000E+00  0.00000000000E+00  0.74505805969E-08  0.10566000000E+00  0.10566000000E+00 0. -1.
     999900   -1    0    0    0    0 -0.00000000000E+00 -0.00000000000E+00 -0.74505805969E-08  0.93827000000E+00  0.93827000000E+00 0.  1.
     999902    2    1    2    0    0  0.22436007036E-01  0.33714659184E-02  0.41091442867E-02  0.10208729781E+01  0.10206125666E+01 0.  0.
     999903    2    3    3    0    0  0.10425916138E+00  0.41775321455E-01 -0.68936243193E-01  0.13323255911E+00  0.19584661529E-01 0.  0.
         14    1    1    2    0    0 -0.22436007036E-01 -0.33714659184E-02 -0.41091442867E-02  0.23057021944E-01  0.00000000000E+00 0.  1.
     999901    1    3    3    0    0 -0.81823154348E-01 -0.38403855536E-01  0.73045387480E-01  0.88764041894E+00  0.88000000000E+00 0. -1.
        -11    1    4    4    0    0  0.71671239393E-01  0.30820525959E-01 -0.37169464846E-01  0.86420493024E-01  0.51100000000E-03 0. -1.
         11    1    4    4    0    0  0.32587921991E-01  0.10954795496E-01 -0.31766778347E-01  0.46812066090E-01  0.51100000000E-03 0.  1.
</event>
<event>
 8    1  0.1120016E+005  0.1043930E+01  0.7957747E-01            NaN
         13   -1    0    0    0    0  0.00000000000E+00  0.00000000000E+00  0.74505805969E-08  0.10566000000E+00  0.10566000000E+00 0. -1.
     999900   -1    0    0    0    0 -0.00000000000E+00 -0.00000000000E+00 -0.74505805969E-08  0.93827000000E+00  0.93827000000E+00 0.  1.
     999902    2    1    2    0    0  0.13986882878E-02 -0.44416820733E-03 -0.22745658653E-01  0.10211370493E+01  0.10208826352E+01 0.  0.
     999903    2    3    3    0    0 -0.12115411186E+00  0.36053493206E-01 -0.31545637100E-01  0.13185154523E+00  0.20286191557E-01 0.  0.
         14    1    1    2    0    0 -0.13986882878E-02  0.44416820733E-03  0.22745658653E-01  0.22792950706E-01  0.00000000000E+00 0. -1.
     999901    1    3    3    0    0  0.12255280015E+00 -0.36497661413E-01  0.87999784473E-02  0.88928550406E+00  0.88000000000E+00 0.  1.
        -11    1    4    4    0    0 -0.92570379410E-01  0.28492940866E-01 -0.15137771126E-01  0.98033341568E-01  0.51100000000E-03 0. -1.
         11    1    4    4    0    0 -0.28583732448E-01  0.75605523397E-02 -0.16407865974E-01  0.33818203666E-01  0.51100000000E-03 0.  1.
</event>
<event>
 8    1  0.1120016E+005  0.1043930E+01  0.7957747E-01            NaN
         13   -1    0    0    0    0  0.00000000000E+00  0.00000000000E+00  0.74505805969E-08  0.10566000000E+00  0.10566000000E+00 0. -1.
     999900   -1    0    0    0    0 -0.00000000000E+00 -0.00000000000E+00 -0.74505805969E-08  0.93827000000E+00  0.93827000000E+00 0. -1.
     999902    2    1    2    0    0 -0.13595005918E-01  0.68748179277E-02 -0.18280097609E-01  0.10201340071E+01  0.10198564327E+01 0.  0.
     999903    2    3    3    0    0 -0.28592278762E-01 -0.79679914438E-01 -0.99438320577E-01  0.13204431739E+00  0.19527288254E-01 0.  0.
         14    1    1    2    0    0  0.13595005918E-01 -0.68748179277E-02  0.18280097609E-01  0.23795992857E-01  0.00000000000E+00 0. -1.
     999901    1    3    3    0    0  0.14997272844E-01  0.86554732366E-01  0.81158222969E-01  0.88808968975E+00  0.88000000000E+00 0.  1.
        -11    1    4    4    0    0 -0.39799314598E-02 -0.39172678303E-01 -0.48268025721E-01  0.62292872849E-01  0.51100000000E-03 0.  1.
         11    1    4    4    0    0 -0.24612347302E-01 -0.40507236135E-01 -0.51170294856E-01  0.69751444542E-01  0.51100000000E-03 0. -1.
</event>
<event>
 8    1  0.1120016E+005  0.1043930E+01  0.7957747E-01            NaN
         13   -1    0    0    0    0  0.00000000000E+00  0.00000000000E+00  0.74505805969E-08  0.10566000000E+00  0.10566000000E+00 0.  1.
     999900   -1    0    0    0    0 -0.00000000000E+00 -0.00000000000E+00 -0.74505805969E-08  0.93827000000E+00  0.93827000000E+00 0. -1.
     999902    2    1    2    0    0  0.82329730992E-02  0.24366041967E-01  0.11946216077E-01  0.10155716163E+01  0.10151756055E+01 0.  0.
     999903    2    3    3    0    0  0.23916604918E-01  0.38990396122E-01 -0.11587273405E+00  0.12607876527E+00  0.19419309326E-01 0.  0.
         14    1    1    2    0    0 -0.82329730992E-02 -0.24366041967E-01 -0.11946216077E-01  0.28358383694E-01  0.00000000000E+00 0. -1.
     999901    1    3    3    0    0 -0.15683631818E-01 -0.14624354155E-01  0.12781895012E+00  0.88949285104E+00  0.88000000000E+00 0.  1.
        -11    1    4    4    0    0  0.11039664679E-01  0.25232203167E-01 -0.45176260562E-01  0.52912133885E-01  0.51100000000E-03 0. -1.
         11    1    4    4    0    0  0.12876940238E-01  0.13758192955E-01 -0.70696473485E-01  0.73166631380E-01  0.51100000000E-03 0.  1.
</event>
<event>
 8    1  0.1120016E+005  0.1043930E+01  0.7957747E-01            NaN
         13   -1    0    0    0    0  0.00000000000E+00  0.00000000000E+00  0.74505805969E-08  0.10566000000E+00  0.10566000000E+00 0.  1.
     999900   -1    0    0    0    0 -0.00000000000E+00 -0.00000000000E+00 -0.74505805969E-08  0.93827000000E+00  0.93827000000E+00 0.  1.
     999902    2    1    2    0    0 -0.94632602616E-02  0.10047216478E-01 -0.18821275270E-01  0.10205903287E+01  0.10203234187E+01 0.  0.
     999903    2    3    3    0    0  0.11764101493E+00 -0.47562106020E-01 -0.17530239251E-01  0.12959313589E+00  0.19634389713E-01 0.  0.
         14    1    1    2    0    0  0.94632602616E-02 -0.10047216478E-01  0.18821275270E-01  0.23339671303E-01  0.00000000000E+00 0.  1.
     999901    1    3    3    0    0 -0.12710427519E+00  0.57609322498E-01 -0.12910360192E-02  0.89099719280E+00  0.88000000000E+00 0.  1.
        -11    1    4    4    0    0  0.58829979713E-01 -0.26859536853E-01 -0.18387649134E-01  0.67236656629E-01  0.51100000000E-03 0.  1.
         11    1    4    4    0    0  0.58811035218E-01 -0.20702569167E-01  0.85740988233E-03  0.62356479264E-01  0.51100000000E-03 0. -1.
</event>
<event>
 8    1  0.1120016E+005  0.1043930E+01  0.7957747E-01            NaN
         13   -1    0    0    0    0  0.00000000000E+00  0.00000000000E+00  0.74505805969E-08  0.10566000000E+00  0.10566000000E+00 0.  1.
     999900   -1    0    0    0    0 -0.00000000000E+00 -0.00000000000E+00 -0.74505805969E-08  0.93827000000E+00  0.93827000000E+00 0. -1.
     999902    2    1    2    0    0  0.67430865929E-02  0.13816803915E-01 -0.17574968036E-01  0.10205793514E+01  0.10203121874E+01 0.  0.
     999903    2    3    3    0    0  0.31740898557E-01  0.11626124947E+00  0.49202572670E-01  0.13177172603E+00  0.20462938524E-01 0.  0.
         14    1    1    2    0    0 -0.67430865929E-02 -0.13816803915E-01  0.17574968036E-01  0.23350648571E-01  0.00000000000E+00 0. -1.
     999901    1    3    3    0    0 -0.24997811964E-01 -0.10244444556E+00 -0.66777540706E-01  0.88880762540E+00  0.88000000000E+00 0. -1.
        -11    1    4    4    0    0  0.26774487128E-01  0.76944989206E-01  0.24518474847E-01  0.85081262654E-01  0.51100000000E-03 0.  1.
         11    1    4    4    0    0  0.49664114281E-02  0.39316260266E-01  0.24684097823E-01  0.46690463374E-01  0.51100000000E-03 0. -1.
</event>
<event>
 7    1  0.1120016E+005  0.1043930E+01  0.7957747E-01            NaN
         13   -1    0    0    0    0  0.00000000000E+00  0.00000000000E+00  0.74505805969E-08  0.10566000000E+00  0.10566000000E+00 0. -1.
     999900   -1    0    0    0    0 -0.00000000000E+00 -0.00000000000E+00 -0.74505805969E-08  0.93827000000E+00  0.93827000000E+00 0. -1.
     999903    2    1    2    0    0  0.10111195863E+00 -0.45810896436E-01 -0.60433735054E-02  0.11286972771E+00  0.19513755663E-01 0.  0.
         14    1    1    2    0    0  0.32081306189E-01 -0.17454865809E-02  0.23155840353E-01  0.39603659839E-01  0.00000000000E+00 0.  1.
     999901    1    1    2    0    0 -0.13319326482E+00  0.47556383017E-01 -0.17112466848E-01  0.89145661245E+00  0.88000000000E+00 0.  1.
        -11    1    3    3    0    0  0.80609353120E-01 -0.43664431225E-01 -0.86511730463E-02  0.92084495333E-01  0.51100000000E-03 0. -1.
         11    1    3    3    0    0  0.20502605510E-01 -0.21464652118E-02  0.26077995409E-02  0.20785232379E-01  0.51100000000E-03 0.  1.
</event>
<event>
 8    1  0.1120016E+005  0.1043930E+01  0.7957747E-01            NaN
         13   -1    0    0    0    0  0.00000000000E+00  0.00000000000E+00  0.74505805969E-08  0.10566000000E+00  0.10566000000E+00 0. -1.
     999900   -1    0    0    0    0 -0.00000000000E+00 -0.00000000000E+00 -0.74505805969E-08  0.93827000000E+00  0.93827000000E+00 0. -1.
     999902    2    1    2    0    0 -0.14129707056E-01 -0.20747059906E-02  0.19831691116E-01  0.10194913217E+01  0.10191983644E+01 0.  0.
     999903    2    3    3    0    0  0.11753686808E-02 -0.93897691346E-01 -0.85207146069E-01  0.12836907230E+00  0.20005075634E-01 0.  0.
         14    1    1    2    0    0  0.14129707056E-01  0.20747059906E-02 -0.19831691116E-01  0.24438678339E-01  0.00000000000E+00 0.  1.
     999901    1    3    3    0    0 -0.15305075737E-01  0.91822985356E-01  0.10503883719E+00  0.89112224936E+00  0.88000000000E+00 0.  1.
        -11    1    4    4    0    0 -0.66926753072E-02 -0.49291329674E-01 -0.53640008583E-01  0.73156945847E-01  0.51100000000E-03 0.  1.
         11    1    4    4    0    0  0.78680439880E-02 -0.44606361672E-01 -0.31567137486E-01  0.55212126457E-01  0.51100000000E-03 0. -1.
</event>
<event>
 8    1  0.1120016E+005  0.1043930E+01  0.7957747E-01            NaN
         13   -1    0    0    0    0  0.00000000000E+00  0.00000000000E+00  0.74505805969E-08  0.10566000000E+00  0.10566000000E+00 0. -1.
     999900   -1    0    0    0    0 -0.00000000000E+00 -0.00000000000E+00 -0.74505805969E-08  0.93827000000E+00  0.93827000000E+00 0. -1.
     999902    2    1    2    0    0 -0.15908321275E-01  0.35415796003E-02  0.18435121140E-01  0.10193236764E+01  0.10190266366E+01 0.  0.
     999903    2    3    3    0    0  0.11780545252E+00 -0.16116812722E-01  0.44917371842E-01  0.12861208707E+00  0.19637269415E-01 0.  0.
         14    1    1    2    0    0  0.15908321275E-01 -0.35415796003E-02 -0.18435121140E-01  0.24606323645E-01  0.00000000000E+00 0.  1.
     999901    1    3    3    0    0 -0.13371377380E+00  0.19658392322E-01 -0.26482250702E-01  0.89071158929E+00  0.88000000000E+00 0. -1.
        -11    1    4    4    0    0  0.42554248338E-01 -0.45377596325E-02  0.63643873222E-02  0.43269179112E-01  0.51100000000E-03 0.  1.
         11    1    4    4    0    0  0.75251204185E-01 -0.11579053089E-01  0.38552984520E-01  0.85342907954E-01  0.51100000000E-03 0. -1.
</event>
<event>
 8    1  0.1120016E+005  0.1043930E+01  0.7957747E-01            NaN
         13   -1    0    0    0    0  0.00000000000E+00  0.00000000000E+00  0.74505805969E-08  0.10566000000E+00  0.10566000000E+00 0. -1.
     999900   -1    0    0    0    0 -0.00000000000E+00 -0.00000000000E+00 -0.74505805969E-08  0.93827000000E+00  0.93827000000E+00 0.  1.
     999902    2    1    2    0    0  0.17484920436E-01 -0.21948750567E-01  0.43413412394E-02  0.10155342725E+01  0.10151372032E+01 0.  0.
     999903    2    3    3    0    0  0.10239228539E+00 -0.66982880014E-01  0.37994341753E-01  0.12966190144E+00  0.19943729775E-01 0.  0.
         14    1    1    2    0    0 -0.17484920436E-01  0.21948750567E-01 -0.43413412394E-02  0.28395727458E-01  0.00000000000E+00 0. -1.
     999901    1    3    3    0    0 -0.84907364954E-01  0.45034129447E-01 -0.33653000513E-01  0.88587237110E+00  0.88000000000E+00 0.  1.
        -11    1    4    4    0    0  0.77917666258E-01 -0.49329402860E-01  0.19486719434E-01  0.94257870000E-01  0.51100000000E-03 0.  1.
         11    1    4    4    0    0  0.24474619132E-01 -0.17653477153E-01  0.18507622319E-01  0.35404031440E-01  0.51100000000E-03 0. -1.
</event>
<event>
 8    1  0.1120016E+005  0.1043930E+01  0.7957747E-01            NaN
         13   -1    0    0    0    0  0.00000000000E+00  0.00000000000E+00  0.74505805969E-08  0.10566000000E+00  0.10566000000E+00 0.  1.
     999900   -1    0    0    0    0 -0.00000000000E+00 -0.00000000000E+00 -0.74505805969E-08  0.93827000000E+00  0.93827000000E+00 0. -1.
     999902    2    1    2    0    0 -0.14994598327E-01  0.97699123819E-02 -0.16305126323E-01  0.10197195413E+01  0.10194320951E+01 0.  0.
     999903    2    3    3    0    0 -0.10041221162E+00  0.59927885745E-01  0.55809352534E-01  0.13123066177E+00  0.20804783738E-01 0.  0.
         14    1    1    2    0    0  0.14994598327E-01 -0.97699123819E-02  0.16305126323E-01  0.24210458718E-01  0.00000000000E+00 0. -1.
     999901    1    3    3    0    0  0.85417613293E-01 -0.50157973364E-01 -0.72114478857E-01  0.88848887951E+00  0.88000000000E+00 0. -1.
        -11    1    4    4    0    0 -0.19480963031E-01  0.22008756928E-01  0.13837766698E-01  0.32490586488E-01  0.51100000000E-03 0.  1.
         11    1    4    4    0    0 -0.80931248589E-01  0.37919128817E-01  0.41971585836E-01  0.98740075284E-01  0.51100000000E-03 0. -1.
</event>
<event>
 8    1  0.1120016E+005  0.1043930E+01  0.7957747E-01            NaN
         13   -1    0    0    0    0  0.00000000000E+00  0.00000000000E+00  0.74505805969E-08  0.10566000000E+00  0.10566000000E+00 0.  1.
     999900   -1    0    0    0    0 -0.00000000000E+00 -0.00000000000E+00 -0.74505805969E-08  0.93827000000E+00  0.93827000000E+00 0.  1.
     999902    2    1    2    0    0 -0.86623978008E-02 -0.13865135381E-01 -0.17695691893E-01  0.10198381627E+01  0.10195535598E+01 0.  0.
     999903    2    3    3    0    0 -0.79835521176E-02  0.84216292040E-01 -0.97536204713E-01  0.13079658055E+00  0.20935933328E-01 0.  0.
         14    1    1    2    0    0  0.86623978008E-02  0.13865135381E-01  0.17695691893E-01  0.24091837339E-01  0.00000000000E+00 0.  1.
     999901    1    3    3    0    0 -0.67884568319E-03 -0.98081427420E-01  0.79840512819E-01  0.88904158211E+00  0.88000000000E+00 0. -1.
        -11    1    4    4    0    0 -0.33149131758E-02  0.34228108847E-01 -0.55606546480E-01  0.65382728736E-01  0.51100000000E-03 0.  1.
         11    1    4    4    0    0 -0.46686389419E-02  0.49988183193E-01 -0.41929658233E-01  0.65413851813E-01  0.51100000000E-03 0. -1.
</event>
<event>
 8    1  0.1120016E+005  0.1043930E+01  0.7957747E-01            NaN
         13   -1    0    0    0    0  0.00000000000E+00  0.00000000000E+00  0.74505805969E-08  0.10566000000E+00  0.10566000000E+00 0. -1.
     999900   -1    0    0    0    0 -0.00000000000E+00 -0.00000000000E+00 -0.74505805969E-08  0.93827000000E+00  0.93827000000E+00 0. -1.
     999902    2    1    2    0    0  0.23269702766E-01 -0.31796343280E-02 -0.20170396309E-02  0.10203576096E+01  0.10200852875E+01 0.  0.
     999903    2    3    3    0    0  0.21649029781E-01 -0.10613040956E+00 -0.72052659964E-01  0.13159078031E+00  0.19804124039E-01 0.  0.
         14    1    1    2    0    0 -0.23269702766E-01  0.31796343280E-02  0.20170396309E-02  0.23572390421E-01  0.00000000000E+00 0. -1.
     999901    1    3    3    0    0  0.16206729848E-02  0.10295077523E+00  0.70035620334E-01  0.88876682927E+00  0.88000000000E+00 0.  1.
        -11    1    4    4    0    0  0.63997148443E-02 -0.75775515194E-01 -0.52247569169E-01  0.92265674322E-01  0.51100000000E-03 0.  1.
         11    1    4    4    0    0  0.15249314937E-01 -0.30354894369E-01 -0.19805090795E-01  0.39325105983E-01  0.51100000000E-03 0. -1.
</event>
<event>
 8    1  0.1120016E+005  0.1043930E+01  0.7957747E-01            NaN
         13   -1    0    0    0    0  0.00000000000E+00  0.00000000000E+00  0.74505805969E-08  0.10566000000E+00  0.10566000000E+00 0. -1.
     999900   -1    0    0    0    0 -0.00000000000E+00 -0.00000000000E+00 -0.74505805969E-08  0.93827000000E+00  0.93827000000E+00 0. -1.
     999902    2    1    2    0    0  0.19605134531E-01  0.11341013253E-01 -0.74585193044E-02  0.10200844681E+01  0.10198057230E+01 0.  0.
     999903    2    3    3    0    0  0.23957200697E-01 -0.12422745319E+00 -0.17768889481E-01  0.12963286733E+00  0.21966776430E-01 0.  0.
         14    1    1    2    0    0 -0.19605134531E-01 -0.11341013253E-01  0.74585193044E-02  0.23845531904E-01  0.00000000000E+00 0. -1.
     999901    1    3    3    0    0 -0.43520661655E-02  0.13556846645E+00  0.10310370176E-01  0.89045160077E+00  0.88000000000E+00 0. -1.
        -11    1    4    4    0    0  0.11010782162E-01 -0.45876772043E-01 -0.17189291757E-01  0.50216017455E-01  0.51100000000E-03 0.  1.
         11    1    4    4    0    0  0.12946418534E-01 -0.78350681150E-01 -0.57959772324E-03  0.79416849875E-01  0.51100000000E-03 0. -1.
</event>
<event>
 8    1  0.1120016E+005  0.1043930E+01  0.7957747E-01            NaN
         13   -1    0    0    0    0  0.00000000000E+00  0.00000000000E+00  0.74505805969E-08  0.10566000000E+00  0.10566000000E+00 0. -1.
     999900   -1    0    0    0    0 -0.00000000000E+00 -0.00000000000E+00 -0.74505805969E-08  0.93827000000E+00  0.93827000000E+00 0. -1.
     999902    2    1    2    0    0 -0.22952130468E-01  0.50999858533E-02  0.28685854080E-02  0.10202437396E+01  0.10199687492E+01 0.  0.
     999903    2    3    3    0    0 -0.19882407223E-01 -0.55491225760E-01 -0.11452799686E+00  0.13037707789E+00  0.20172608160E-01 0.  0.
         14    1    1    2    0    0  0.22952130468E-01 -0.50999858533E-02 -0.28685854080E-02  0.23686260384E-01  0.00000000000E+00 0.  1.
     999901    1    3    3    0    0 -0.30697232448E-02  0.60591211614E-01  0.11739658227E+00  0.88986666173E+00  0.88000000000E+00 0.  1.
        -11    1    4    4    0    0 -0.15495003795E-01 -0.27215090949E-01 -0.77414798776E-01  0.83510888563E-01  0.51100000000E-03 0. -1.
         11    1    4    4    0    0 -0.43874034288E-02 -0.28276134811E-01 -0.37113198086E-01  0.46866189326E-01  0.51100000000E-03 0.  1.
</event>
<event>
 8    1  0.1120016E+005  0.1043930E+01  0.7957747E-01            NaN
         13   -1    0    0    0    0  0.00000000000E+00  0.00000000000E+00  0.74505805969E-08  0.10566000000E+00  0.10566000000E+00 0. -1.
     999900   -1    0    0    0    0 -0.00000000000E+00 -0.00000000000E+00 -0.74505805969E-08  0.93827000000E+00  0.93827000000E+00 0.  1.
     999902    2    1    2    0    0 -0.16300424835E-02  0.22279445840E-01 -0.79357365923E-02  0.10202233203E+01  0.10199478500E+01 0.  0.
     999903    2    3    3    0    0 -0.38665411171E-01  0.60835762582E-01  0.10760410786E+00  0.13106210675E+00  0.20065586645E-01 0.  0.
         14    1    1    2    0    0  0.16300424835E-02 -0.22279445840E-01  0.79357365923E-02  0.23706679664E-01  0.00000000000E+00 0.  1.
     999901    1    3    3    0    0  0.37035368687E-01 -0.38556316742E-01 -0.11553984445E+00  0.88916121359E+00  0.88000000000E+00 0.  1.
        -11    1    4    4    0    0 -0.24022839363E-01  0.38935213871E-01  0.84160975929E-01  0.95793416687E-01  0.51100000000E-03 0.  1.
         11    1    4    4    0    0 -0.14642571808E-01  0.21900548710E-01  0.23443131928E-01  0.35268690060E-01  0.51100000000E-03 0. -1.
</event>
<event>
 8    1  0.1120016E+005  0.1043930E+01  0.7957747E-01            NaN
         13   -1    0    0    0    0  0.00000000000E+00  0.00000000000E+00  0.74505805969E-08  0.10566000000E+00  0.10566000000E+00 0.  1.
     999900   -1    0    0    0    0 -0.00000000000E+00 -0.00000000000E+00 -0.74505805969E-08  0.93827000000E+00  0.93827000000E+00 0.  1.
     999902    2    1    2    0    0  0.91752674230E-02 -0.19139215120E-01  0.11103178872E-01  0.10199763851E+01  0.10196950772E+01 0.  0.
     999903    2    3    3    0    0  0.11062368589E+00 -0.19226913320E-01  0.67218652475E-01  0.13237245555E+00  0.19920985707E-01 0.  0.
         14    1    1    2    0    0 -0.91752674230E-02  0.19139215120E-01 -0.11103178872E-01  0.23953614941E-01  0.00000000000E+00 0. -1.
     999901    1    3    3    0    0 -0.10144841847E+00  0.87698200696E-04 -0.56115473603E-01  0.88760392951E+00  0.88000000000E+00 0. -1.
        -11    1    4    4    0    0  0.75386298063E-01 -0.40378485407E-02  0.41173927160E-01  0.85993904175E-01  0.51100000000E-03 0. -1.
         11    1    4    4    0    0  0.35237387831E-01 -0.15189064780E-01  0.26044725314E-01  0.46378551376E-01  0.51100000000E-03 0.  1.
</event>
<event>
 7    1  0.1120016E+005  0.1043930E+01  0.7957747E-01            NaN
         13   -1    0    0    0    0  0.00000000000E+00  0.00000000000E+00  0.74505805969E-08  0.10566000000E+00  0.10566000000E+00 0. -1.
     999900   -1    0    0    0    0 -0.00000000000E+00 -0.00000000000E+00 -0.74505805969E-08  0.93827000000E+00  0.93827000000E+00 0.  1.
     999903    2    1    2    0    0 -0.81097193906E-01 -0.11366078583E-01 -0.44161372378E-01  0.94976885669E-01  0.19090295949E-01 0.  0.
         14    1    1    2    0    0 -0.18738933879E-01  0.19718946250E-01 -0.51373491398E-01  0.58131059706E-01  0.00000000000E+00 0.  1.
     999901    1    1    2    0    0  0.99836127785E-01 -0.83528676670E-02  0.95534863776E-01  0.89082205462E+00  0.88000000000E+00 0. -1.
        -11    1    3    3    0    0 -0.19921896990E-01  0.35225065844E-02 -0.50601529756E-02  0.20860400319E-01  0.51100000000E-03 0. -1.
         11    1    3    3    0    0 -0.61175296916E-01 -0.14888585167E-01 -0.39101219402E-01  0.74116485351E-01  0.51100000000E-03 0.  1.
</event>
<event>
 8    1  0.1120016E+005  0.1043930E+01  0.7957747E-01            NaN
         13   -1    0    0    0    0  0.00000000000E+00  0.00000000000E+00  0.74505805969E-08  0.10566000000E+00  0.10566000000E+00 0.  1.
     999900   -1    0    0    0    0 -0.00000000000E+00 -0.00000000000E+00 -0.74505805969E-08  0.93827000000E+00  0.93827000000E+00 0.  1.
     999902    2    1    2    0    0 -0.67530385309E-02 -0.21460426981E-01  0.96172689381E-02  0.10194627705E+01  0.10191691200E+01 0.  0.
     999903    2    3    3    0    0  0.51647670604E-01  0.40456975096E-01  0.11010203354E+00  0.12966414421E+00  0.19649015013E-01 0.  0.
         14    1    1    2    0    0  0.67530385309E-02  0.21460426981E-01 -0.96172689381E-02  0.24467229459E-01  0.00000000000E+00 0. -1.
     999901    1    3    3    0    0 -0.58400709135E-01 -0.61917402077E-01 -0.10048476460E+00  0.88979862633E+00  0.88000000000E+00 0.  1.
        -11    1    4    4    0    0  0.48966522579E-01  0.36181309087E-01  0.88146003081E-01  0.10712976450E+00  0.51100000000E-03 0.  1.
         11    1    4    4    0    0  0.26811480252E-02  0.42756660098E-02  0.21956030457E-01  0.22534379712E-01  0.51100000000E-03 0. -1.
</event>
<event>
 8    1  0.1120016E+005  0.1043930E+01  0.7957747E-01            NaN
         13   -1    0    0    0    0  0.00000000000E+00  0.00000000000E+00  0.74505805969E-08  0.10566000000E+00  0.10566000000E+00 0. -1.
     999900   -1    0    0    0    0 -0.00000000000E+00 -0.00000000000E+00 -0.74505805969E-08  0.93827000000E+00  0.93827000000E+00 0.  1.
     999902    2    1    2    0    0  0.76446937042E-02  0.22554917527E-01  0.31356536958E-02  0.10199092179E+01  0.10196263114E+01 0.  0.
     999903    2    3    3    0    0  0.56444688555E-01  0.11855139112E+00  0.11383171598E-01  0.13330627187E+00  0.20013753315E-01 0.  0.
         14    1    1    2    0    0 -0.76446937042E-02 -0.22554917527E-01 -0.31356536958E-02  0.24020782056E-01  0.00000000000E+00 0.  1.
     999901    1    3    3    0    0 -0.48799994851E-01 -0.95996473590E-01 -0.82475179018E-02  0.88660294608E+00  0.88000000000E+00 0. -1.
        -11    1    4    4    0    0  0.31717597184E-01  0.47740091679E-01  0.10633828542E-01  0.58296327114E-01  0.51100000000E-03 0.  1.
         11    1    4    4    0    0  0.24727091372E-01  0.70811299439E-01  0.74934305595E-03  0.75009944753E-01  0.51100000000E-03 0. -1.
</event>
<event>
 8    1  0.1120016E+005  0.1043930E+01  0.7957747E-01            NaN
         13   -1    0    0    0    0  0.00000000000E+00  0.00000000000E+00  0.74505805969E-08  0.10566000000E+00  0.10566000000E+00 0.  1.
     999900   -1    0    0    0    0 -0.00000000000E+00 -0.00000000000E+00 -0.74505805969E-08  0.93827000000E+00  0.93827000000E+00 0. -1.
     999902    2    1    2    0    0 -0.78905564167E-02  0.20568881763E-01  0.40963376068E-02  0.10215219711E+01  0.10212761711E+01 0.  0.
     999903    2    3    3    0    0 -0.11251601624E+00 -0.11157043103E-01 -0.65070504779E-01  0.13206310570E+00  0.20546527001E-01 0.  0.
         14    1    1    2    0    0  0.78905564167E-02 -0.20568881763E-01 -0.40963376068E-02  0.22408028903E-01  0.00000000000E+00 0.  1.
     999901    1    3    3    0    0  0.10462545983E+00  0.31725924865E-01  0.69166842386E-01  0.88945886540E+00  0.88000000000E+00 0.  1.
        -11    1    4    4    0    0 -0.10718491909E-01 -0.27543383315E-02 -0.14027562212E-01  0.17874732755E-01  0.51100000000E-03 0.  1.
         11    1    4    4    0    0 -0.10179752434E+00 -0.84027047710E-02 -0.51042942567E-01  0.11418837294E+00  0.51100000000E-03 0. -1.
</event>
<event>
 8    1  0.1120016E+005  0.1043930E+01  0.7957747E-01            NaN
         13   -1    0    0    0    0  0.00000000000E+00  0.00000000000E+00  0.74505805969E-08  0.10566000000E+00  0.10566000000E+00 0.  1.
     999900   -1    0    0    0    0 -0.00000000000E+00 -0.00000000000E+00 -0.74505805969E-08  0.93827000000E+00  0.93827000000E+00 0.  1.
     999902    2    1    2    0    0  0.39043980366E-02 -0.18373356944E-01  0.11643498494E-01  0.10218303252E+01  0.10215913165E+01 0.  0.
     999903    2    3    3    0    0 -0.31327160437E-01  0.12096734164E+00 -0.26386829027E-01  0.12935993420E+00  0.20572775835E-01 0.  0.
         14    1    1    2    0    0 -0.39043980366E-02  0.18373356944E-01 -0.11643498494E-01  0.22099674808E-01  0.00000000000E+00 0. -1.
     999901    1    3    3    0    0  0.35231558473E-01 -0.13934069858E+00  0.38030327521E-01  0.89247039100E+00  0.88000000000E+00 0. -1.
        -11    1    4    4    0    0 -0.18622556313E-01  0.57045225824E-01 -0.22431792757E-01  0.64065621360E-01  0.51100000000E-03 0.  1.
         11    1    4    4    0    0 -0.12704604124E-01  0.63922115812E-01 -0.39550362697E-02  0.65294312836E-01  0.51100000000E-03 0. -1.
</event>
<event>
 8    1  0.1120016E+005  0.1043930E+01  0.7957747E-01            NaN
         13   -1    0    0    0    0  0.00000000000E+00  0.00000000000E+00  0.74505805969E-08  0.10566000000E+00  0.10566000000E+00 0.  1.
     999900   -1    0    0    0    0 -0.00000000000E+00 -0.00000000000E+00 -0.74505805969E-08  0.93827000000E+00  0.93827000000E+00 0.  1.
     999902    2    1    2    0    0 -0.43848452171E-02  0.31211488938E-01  0.16536072859E-01  0.10083375062E+01  0.10077091350E+01 0.  0.
     999903    2    3    3    0    0  0.76309219177E-01 -0.13569554218E-01 -0.86438682139E-01  0.11753973228E+00  0.18349745539E-01 0.  0.
         14    1    1    2    0    0  0.43848452171E-02 -0.31211488938E-01 -0.16536072859E-01  0.35592493800E-01  0.00000000000E+00 0. -1.
     999901    1    3    3    0    0 -0.80694064394E-01  0.44781043156E-01  0.10297475500E+00  0.89079777392E+00  0.88000000000E+00 0. -1.
        -11    1    4    4    0    0  0.36355679974E-01 -0.13743136665E-01 -0.34215839510E-01  0.51784110170E-01  0.51100000000E-03 0. -1.
         11    1    4    4    0    0  0.39953539203E-01  0.17358244721E-03 -0.52222842629E-01  0.65755622109E-01  0.51100000000E-03 0.  1.
</event>
<event>
 8    1  0.1120016E+005  0.1043930E+01  0.7957747E-01            NaN
         13   -1    0    0    0    0  0.00000000000E+00  0.00000000000E+00  0.74505805969E-08  0.10566000000E+00  0.10566000000E+00 0. -1.
     999900   -1    0    0    0    0 -0.00000000000E+00 -0.00000000000E+00 -0.74505805969E-08  0.93827000000E+00  0.93827000000E+00 0.  1.
     999902    2    1    2    0    0  0.10484359342E-01  0.15421484687E-01  0.56619256792E-02  0.10244415064E+01  0.10242561196E+01 0.  0.
     999903    2    3    3    0    0 -0.11933970348E+00  0.35902148269E-01 -0.43168522531E-01  0.13334209693E+00  0.19638340022E-01 0.  0.
         14    1    1    2    0    0 -0.10484359342E-01 -0.15421484687E-01 -0.56619256792E-02  0.19488493609E-01  0.00000000000E+00 0.  1.
     999901    1    3    3    0    0  0.12982406282E+00 -0.20480663583E-01  0.48830448210E-01  0.89109940946E+00  0.88000000000E+00 0.  1.
        -11    1    4    4    0    0 -0.91279279295E-01  0.22298422787E-01 -0.39533953768E-01  0.10194273446E+00  0.51100000000E-03 0.  1.
         11    1    4    4    0    0 -0.28060424186E-01  0.13603725482E-01 -0.36345687629E-02  0.31399362471E-01  0.51100000000E-03 0. -1.
</event>
<event>
 8    1  0.1120016E+005  0.1043930E+01  0.7957747E-01            NaN
         13   -1    0    0    0    0  0.00000000000E+00  0.00000000000E+00  0.74505805969E-08  0.10566000000E+00  0.10566000000E+00 0. -1.
     999900   -1    0    0    0    0 -0.00000000000E+00 -0.00000000000E+00 -0.74505805969E-08  0.93827000000E+00  0.93827000000E+00 0.  1.
     999902    2    1    2    0    0 -0.19908614511E-01 -0.46163691174E-02 -0.12599675313E-01  0.10199213429E+01  0.10196387253E+01 0.  0.
     999903    2    3    3    0    0  0.84886517762E-01  0.89834154928E-01 -0.28935515346E-01  0.12853490547E+00  0.20200534326E-01 0.  0.
         14    1    1    2    0    0  0.19908614511E-01  0.46163691174E-02  0.12599675313E-01  0.24008657055E-01  0.00000000000E+00 0. -1.
     999901    1    3    3    0    0 -0.10479513227E+00 -0.94450524046E-01  0.16335840032E-01  0.89138643747E+00  0.88000000000E+00 0.  1.
        -11    1    4    4    0    0  0.14483923078E-01  0.27101839532E-01 -0.10295085135E-01  0.32412090841E-01  0.51100000000E-03 0. -1.
         11    1    4    4    0    0  0.70402594684E-01  0.62732315396E-01 -0.18640430211E-01  0.96122814631E-01  0.51100000000E-03 0.  1.
</event>
<event>
 8    1  0.1120016E+005  0.1043930E+01  0.7957747E-01            NaN
         13   -1    0    0    0    0  0.00000000000E+00  0.00000000000E+00  0.74505805969E-08  0.10566000000E+00  0.10566000000E+00 0. -1.
     999900   -1    0    0    0    0 -0.00000000000E+00 -0.00000000000E+00 -0.74505805969E-08  0.93827000000E+00  0.93827000000E+00 0.  1.
     999902    2    1    2    0    0 -0.16253160548E-02  0.12440221018E-02  0.23031772306E-01  0.10208074617E+01  0.10205455512E+01 0.  0.
     999903    2    3    3    0    0  0.10660468857E+00  0.72880793079E-01  0.10733899844E-01  0.13120260640E+00  0.20560585936E-01 0.  0.
         14    1    1    2    0    0  0.16253160548E-02 -0.12440221018E-02 -0.23031772306E-01  0.23122538330E-01  0.00000000000E+00 0.  1.
     999901    1    3    3    0    0 -0.10823000463E+00 -0.71636770977E-01  0.12297872462E-01  0.88960485527E+00  0.88000000000E+00 0. -1.
        -11    1    4    4    0    0  0.34616729481E-01  0.26181913747E-01 -0.58706468400E-02  0.43801097963E-01  0.51100000000E-03 0.  1.
         11    1    4    4    0    0  0.71987959091E-01  0.46698879332E-01  0.16604546684E-01  0.87401508434E-01  0.51100000000E-03 0. -1.
</event>
<event>
 8    1  0.1120016E+005  0.1043930E+01  0.7957747E-01            NaN
         13   -1    0    0    0    0  0.00000000000E+00  0.00000000000E+00  0.74505805969E-08  0.10566000000E+00  0.10566000000E+00 0. -1.
     999900   -1    0    0    0    0 -0.00000000000E+00 -0.00000000000E+00 -0.74505805969E-08  0.93827000000E+00  0.93827000000E+00 0. -1.
     999902    2    1    2    0    0  0.16205166914E-02 -0.18477966934E-01 -0.10561210909E-01  0.10225851994E+01  0.10223624062E+01 0.  0.
     999903    2    3    3    0    0  0.11758795774E+00  0.19566984798E-01 -0.55425052218E-01  0.13302990040E+00  0.20377028413E-01 0.  0.
         14    1    1    2    0    0 -0.16205166914E-02  0.18477966934E-01  0.10561210909E-01  0.21344800590E-01  0.00000000000E+00 0. -1.
     999901    1    3    3    0    0 -0.11596744105E+00 -0.38044951732E-01  0.44863841309E-01  0.88955529901E+00  0.88000000000E+00 0.  1.
        -11    1    4    4    0    0  0.33407302305E-01  0.14285357038E-01 -0.12816434180E-01  0.38531044355E-01  0.51100000000E-03 0. -1.
         11    1    4    4    0    0  0.84180655440E-01  0.52816277596E-02 -0.42608618038E-01  0.94498856047E-01  0.51100000000E-03 0.  1.
</event>
<event>
 8    1  0.1120016E+005  0.1043930E+01  0.7957747E-01            NaN
         13   -1    0    0    0    0  0.00000000000E+00  0.00000000000E+00  0.74505805969E-08  0.10566000000E+00  0.10566000000E+00 0.  1.
     999900   -1    0    0    0    0 -0.00000000000E+00 -0.00000000000E+00 -0.74505805969E-08  0.93827000000E+00  0.93827000000E+00 0.  1.
     999902    2    1    2    0    0 -0.16582652641E-01  0.14330487408E-01 -0.10026830946E-01  0.10198284528E+01  0.10195436178E+01 0.  0.
     999903    2    3    3    0    0  0.81777413349E-01  0.60379060608E-02  0.96822986230E-01  0.12788655285E+00  0.16008688039E-01 0.  0.
         14    1    1    2    0    0  0.16582652641E-01 -0.14330487408E-01  0.10026830946E-01  0.24101547186E-01  0.00000000000E+00 0. -1.
     999901    1    3    3    0    0 -0.98360065990E-01  0.82925813473E-02 -0.10684981718E+00  0.89194189997E+00  0.88000000000E+00 0.  1.
        -11    1    4    4    0    0  0.32237261287E-01 -0.39797250259E-02  0.44943943934E-01  0.55455373445E-01  0.51100000000E-03 0. -1.
         11    1    4    4    0    0  0.49540152062E-01  0.10017631087E-01  0.51879042296E-01  0.72431179401E-01  0.51100000000E-03 0.  1.
</event>
<event>
 8    1  0.1120016E+005  0.1043930E+01  0.7957747E-01            NaN
         13   -1    0    0    0    0  0.00000000000E+00  0.00000000000E+00  0.74505805969E-08  0.10566000000E+00  0.10566000000E+00 0.  1.
     999900   -1    0    0    0    0 -0.00000000000E+00 -0.00000000000E+00 -0.74505805969E-08  0.93827000000E+00  0.93827000000E+00 0. -1.
     999902    2    1    2    0    0 -0.83961853081E-02 -0.14974631227E-01 -0.15924802858E-01  0.10205134491E+01  0.10202447574E+01 0.  0.
     999903    2    3    3    0    0 -0.64263765705E-01 -0.63983771601E-01 -0.96271861702E-01  0.13373346953E+00  0.19814512484E-01 0.  0.
         14    1    1    2    0    0  0.83961853081E-02  0.14974631227E-01  0.15924802858E-01  0.23416550860E-01  0.00000000000E+00 0.  1.
     999901    1    3    3    0    0  0.55867580397E-01  0.49009140374E-01  0.80347058844E-01  0.88677997961E+00  0.88000000000E+00 0.  1.
        -11    1    4    4    0    0 -0.38297562754E-01 -0.47676582299E-01 -0.54520084129E-01  0.81929607024E-01  0.51100000000E-03 0.  1.
         11    1    4    4    0    0 -0.25966202951E-01 -0.16307189301E-01 -0.41751777573E-01  0.51803862502E-01  0.51100000000E-03 0. -1.
</event>
<event>
 8    1  0.1120016E+005  0.1043930E+01  0.7957747E-01            NaN
         13   -1    0    0    0    0  0.00000000000E+00  0.00000000000E+00  0.74505805969E-08  0.10566000000E+00  0.10566000000E+00 0. -1.
     999900   -1    0    0    0    0 -0.00000000000E+00 -0.00000000000E+00 -0.74505805969E-08  0.93827000000E+00  0.93827000000E+00 0.  1.
     999902    2    1    2    0    0 -0.10370554371E-01 -0.66181544167E-02  0.19520106885E-01  0.10208565751E+01  0.10205957887E+01 0.  0.
     999903    2    3    3    0    0 -0.76386829622E-01 -0.24290077559E-01 -0.10078443395E+00  0.13004591728E+00  0.18151662901E-01 0.  0.
         14    1    1    2    0    0  0.10370554371E-01  0.66181544167E-02 -0.19520106885E-01  0.23073424944E-01  0.00000000000E+00 0.  1.
     999901    1    3    3    0    0  0.66016275251E-01  0.17671923143E-01  0.12030454084E+00  0.89081065778E+00  0.88000000000E+00 0. -1.
        -11    1    4    4    0    0 -0.18563451430E-01 -0.22256254149E-02 -0.13594578697E-01  0.23122042048E-01  0.51100000000E-03 0.  1.
         11    1    4    4    0    0 -0.57823378191E-01 -0.22064452145E-01 -0.87189855254E-01  0.10692387523E+00  0.51100000000E-03 0. -1.
</event>
<event>
 8    1  0.1120016E+005  0.1043930E+01  0.7957747E-01            NaN
         13   -1    0    0    0    0  0.00000000000E+00  0.00000000000E+00  0.74505805969E-08  0.10566000000E+00  0.10566000000E+00 0.  1.
     999900   -1    0    0    0    0 -0.00000000000E+00 -0.00000000000E+00 -0.74505805969E-08  0.93827000000E+00  0.93827000000E+00 0. -1.
     999902    2    1    2    0    0  0.76293498633E-02 -0.30136311218E-01  0.18095198197E-01  0.10079600065E+01  0.10073179907E+01 0.  0.
     999903    2    3    3    0    0 -0.67946742535E-01  0.58164736245E-01 -0.71007412959E-01  0.11585681964E+00  0.19515470751E-01 0.  0.
         14    1    1    2    0    0 -0.76293498633E-02  0.30136311218E-01 -0.18095198197E-01  0.35969993480E-01  0.00000000000E+00 0.  1.
     999901    1    3    3    0    0  0.75576092398E-01 -0.88301047463E-01  0.89102611156E-01  0.89210318688E+00  0.88000000000E+00 0.  1.
        -11    1    4    4    0    0 -0.47052419293E-01  0.39663273706E-01 -0.36795741369E-01  0.71702811286E-01  0.51100000000E-03 0. -1.
         11    1    4    4    0    0 -0.20894323242E-01  0.18501462538E-01 -0.34211671590E-01  0.44154008355E-01  0.51100000000E-03 0.  1.
</event>
<event>
 8    1  0.1120016E+005  0.1043930E+01  0.7957747E-01            NaN
         13   -1    0    0    0    0  0.00000000000E+00  0.00000000000E+00  0.74505805969E-08  0.10566000000E+00  0.10566000000E+00 0. -1.
     999900   -1    0    0    0    0 -0.00000000000E+00 -0.00000000000E+00 -0.74505805969E-08  0.93827000000E+00  0.93827000000E+00 0. -1.
     999902    2    1    2    0    0  0.18732299839E-01  0.13140373227E-01 -0.67085195488E-02  0.10200852375E+01  0.10198065106E+01 0.  0.
     999903    2    3    3    0    0  0.12213513676E+00  0.40751092009E-01  0.23099361701E-01  0.13309988907E+00  0.24583669985E-01 0.  0.
         14    1    1    2    0    0 -0.18732299839E-01 -0.13140373227E-01  0.67085195488E-02  0.23844762535E-01  0.00000000000E+00 0. -1.
     999901    1    3    3    0    0 -0.10340283692E+00 -0.27610718782E-01 -0.29807881250E-01  0.88698534839E+00  0.88000000000E+00 0.  1.
        -11    1    4    4    0    0  0.69815044470E-01  0.10449173578E-01  0.11229330497E-01  0.71482058219E-01  0.51100000000E-03 0. -1.
         11    1    4    4    0    0  0.52320092288E-01  0.30301918430E-01  0.11870031205E-01  0.61617830856E-01  0.51100000000E-03 0.  1.
</event>
<event>
 8    1  0.1120016E+005  0.1043930E+01  0.7957747E-01            NaN
         13   -1    0    0    0    0  0.00000000000E+00  0.00000000000E+00  0.74505805969E-08  0.10566000000E+00  0.10566000000E+00 0.  1.
     999900   -1    0    0    0    0 -0.00000000000E+00 -0.00000000000E+00 -0.74505805969E-08  0.93827000000E+00  0.93827000000E+00 0.  1.
     999902    2    1    2    0    0 -0.80170692045E-02  0.59156823931E-02  0.19520366911E-01  0.10220139460E+01  0.10217789352E+01 0.  0.
     999903    2    3    3    0    0 -0.17588769676E-01  0.79180300436E-01  0.10470067518E+00  0.13481892429E+00  0.25199725526E-01 0.  0.
         14    1    1    2    0    0  0.80170692045E-02 -0.59156823931E-02 -0.19520366911E-01  0.21916053959E-01  0.00000000000E+00 0. -1.
     999901    1    3    3    0    0  0.95717004717E-02 -0.73264618043E-01 -0.85180308271E-01  0.88719502175E+00  0.88000000000E+00 0.  1.
        -11    1    4    4    0    0 -0.54596321515E-02  0.44940083459E-01  0.39053385892E-01  0.59790022204E-01  0.51100000000E-03 0. -1.
         11    1    4    4    0    0 -0.12129137525E-01  0.34240216977E-01  0.65647289290E-01  0.75028902083E-01  0.51100000000E-03 0.  1.
</event>
<event>
 8    1  0.1120016E+005  0.1043930E+01  0.7957747E-01            NaN
         13   -1    0    0    0    0  0.00000000000E+00  0.00000000000E+00  0.74505805969E-08  0.10566000000E+00  0.10566000000E+00 0.  1.
     999900   -1    0    0    0    0 -0.00000000000E+00 -0.00000000000E+00 -0.74505805969E-08  0.93827000000E+00  0.93827000000E+00 0. -1.
     999902    2    1    2    0    0 -0.38208419858E-02  0.12149702796E-02 -0.25347954250E-01  0.10182669181E+01  0.10179434772E+01 0.  0.
     999903    2    3    3    0    0  0.10682281656E+00  0.65212065585E-01  0.17333592747E-01  0.12800888709E+00  0.20544928819E-01 0.  0.
         14    1    1    2    0    0  0.38208419858E-02 -0.12149702796E-02  0.25347954250E-01  0.25663081867E-01  0.00000000000E+00 0.  1.
     999901    1    3    3    0    0 -0.11064365855E+00 -0.63997095306E-01 -0.42681546997E-01  0.89025803104E+00  0.88000000000E+00 0. -1.
        -11    1    4    4    0    0  0.93369752530E-01  0.49734321067E-01  0.10161223096E-01  0.10627758444E+00  0.51100000000E-03 0.  1.
         11    1    4    4    0    0  0.13453064031E-01  0.15477744518E-01  0.71723696514E-02  0.21731302644E-01  0.51100000000E-03 0. -1.
</event>
<event>
 8    1  0.1120016E+005  0.1043930E+01  0.7957747E-01            NaN
         13   -1    0    0    0    0  0.00000000000E+00  0.00000000000E+00  0.74505805969E-08  0.10566000000E+00  0.10566000000E+00 0. -1.
     999900   -1    0    0    0    0 -0.00000000000E+00 -0.00000000000E+00 -0.74505805969E-08  0.93827000000E+00  0.93827000000E+00 0.  1.
     999902    2    1    2    0    0 -0.19361844815E-01 -0.15422603331E-01  0.39473255596E-02  0.10188637058E+01  0.10185553160E+01 0.  0.
     999903    2    3    3    0    0  0.86007108589E-01  0.82612834761E-01 -0.36548765837E-01  0.12625321014E+00  0.19543735339E-01 0.  0.
         14    1    1    2    0    0  0.19361844815E-01  0.15422603331E-01 -0.39473255596E-02  0.25066294246E-01  0.00000000000E+00 0. -1.
     999901    1    3    3    0    0 -0.10536895340E+00 -0.98035438092E-01  0.40496091397E-01  0.89261049561E+00  0.88000000000E+00 0. -1.
        -11    1    4    4    0    0  0.26793863821E-01  0.36253028157E-01 -0.78613587229E-02  0.45763033892E-01  0.51100000000E-03 0. -1.
         11    1    4    4    0    0  0.59213244768E-01  0.46359806604E-01 -0.28687407115E-01  0.80490176247E-01  0.51100000000E-03 0.  1.
</event>
<event>
 8    1  0.1120016E+005  0.1043930E+01  0.7957747E-01            NaN
         13   -1    0    0    0    0  0.00000000000E+00  0.00000000000E+00  0.74505805969E-08  0.10566000000E+00  0.10566000000E+00 0. -1.
     999900   -1    0    0    0    0 -0.00000000000E+00 -0.00000000000E+00 -0.74505805969E-08  0.93827000000E+00  0.93827000000E+00 0. -1.
     999902    2    1    2    0    0 -0.16891713614E-01  0.13537200839E-01  0.10126873099E-01  0.10200314780E+01  0.10197514779E+01 0.  0.
     999903    2    3    3    0    0 -0.13498213909E-01  0.12317072216E+00  0.43461887334E-01  0.13259570679E+00  0.18424365138E-01 0.  0.
         14    1    1    2    0    0  0.16891713614E-01 -0.13537200839E-01 -0.10126873099E-01  0.23898522007E-01  0.00000000000E+00 0.  1.
     999901    1    3    3    0    0 -0.33934997047E-02 -0.10963352133E+00 -0.33335014235E-01  0.88743577120E+00  0.88000000000E+00 0.  1.
        -11    1    4    4    0    0 -0.16397355941E-01  0.11250891199E+00  0.42892883163E-01  0.12152032384E+00  0.51100000000E-03 0. -1.
         11    1    4    4    0    0  0.28991420317E-02  0.10661810171E-01  0.56900417151E-03  0.11075382945E-01  0.51100000000E-03 0.  1.
</event>
<event>
 8    1  0.1120016E+005  0.1043930E+01  0.7957747E-01            NaN
         13   -1    0    0    0    0  0.00000000000E+00  0.00000000000E+00  0.74505805969E-08  0.10566000000E+00  0.10566000000E+00 0.  1.
     999900   -1    0    0    0    0 -0.00000000000E+00 -0.00000000000E+00 -0.74505805969E-08  0.93827000000E+00  0.93827000000E+00 0. -1.
     999902    2    1    2    0    0 -0.12236805340E-01  0.16076643271E-01 -0.12169328003E-01  0.10203441905E+01  0.10200715547E+01 0.  0.
     999903    2    3    3    0    0 -0.27332941733E-01 -0.40120907683E-01 -0.12084135598E+00  0.13175223259E+00  0.19981004524E-01 0.  0.
         14    1    1    2    0    0  0.12236805340E-01 -0.16076643271E-01  0.12169328003E-01  0.23585809459E-01  0.00000000000E+00 0.  1.
     999901    1    3    3    0    0  0.15096136393E-01  0.56197550954E-01  0.10867202797E+00  0.88859195795E+00  0.88000000000E+00 0.  1.
        -11    1    4    4    0    0 -0.79952390405E-02 -0.92449756288E-02 -0.56514489084E-01  0.57823369143E-01  0.51100000000E-03 0.  1.
         11    1    4    4    0    0 -0.19337702693E-01 -0.30875932054E-01 -0.64326866892E-01  0.73928863449E-01  0.51100000000E-03 0. -1.
</event>
<event>
 8    1  0.1120016E+005  0.1043930E+01  0.7957747E-01            NaN
         13   -1    0    0    0    0  0.00000000000E+00  0.00000000000E+00  0.74505805969E-08  0.10566000000E+00  0.10566000000E+00 0.  1.
     999900   -1    0    0    0    0 -0.00000000000E+00 -0.00000000000E+00 -0.74505805969E-08  0.93827000000E+00  0.93827000000E+00 0.  1.
     999902    2    1    2    0    0 -0.16313903031E-01  0.27094746404E-02  0.17749323517E-01  0.10196705035E+01  0.10193818777E+01 0.  0.
     999903    2    3    3    0    0 -0.55720006813E-01  0.57680987009E-01 -0.99426222064E-01  0.12933078369E+00  0.20225294944E-01 0.  0.
         14    1    1    2    0    0  0.16313903031E-01 -0.27094746404E-02 -0.17749323517E-01  0.24259496497E-01  0.00000000000E+00 0. -1.
     999901    1    3    3    0    0  0.39406103782E-01 -0.54971512368E-01  0.11717554558E+00  0.89033971981E+00  0.88000000000E+00 0. -1.
        -11    1    4    4    0    0 -0.36157892195E-01  0.47331932023E-01 -0.62960073328E-01  0.86671430769E-01  0.51100000000E-03 0. -1.
         11    1    4    4    0    0 -0.19562114618E-01  0.10349054986E-01 -0.36466148736E-01  0.42659352926E-01  0.51100000000E-03 0.  1.
</event>
<event>
 8    1  0.1120016E+005  0.1043930E+01  0.7957747E-01            NaN
         13   -1    0    0    0    0  0.00000000000E+00  0.00000000000E+00  0.74505805969E-08  0.10566000000E+00  0.10566000000E+00 0.  1.
     999900   -1    0    0    0    0 -0.00000000000E+00 -0.00000000000E+00 -0.74505805969E-08  0.93827000000E+00  0.93827000000E+00 0. -1.
     999902    2    1    2    0    0  0.21682403744E-01 -0.65825107137E-03 -0.10082927691E-01  0.10200087676E+01  0.10197282288E+01 0.  0.
     999903    2    3    3    0    0  0.74046504874E-01 -0.98555127888E-01  0.41960785525E-01  0.13150758832E+00  0.18372265687E-01 0.  0.
         14    1    1    2    0    0 -0.21682403744E-01  0.65825107137E-03  0.10082927691E-01  0.23921232356E-01  0.00000000000E+00 0.  1.
     999901    1    3    3    0    0 -0.52364101130E-01  0.97896876816E-01 -0.52043713216E-01  0.88850117933E+00  0.88000000000E+00 0. -1.
        -11    1    4    4    0    0  0.24552253109E-01 -0.19511099785E-01  0.99931254075E-02  0.32918381248E-01  0.51100000000E-03 0.  1.
         11    1    4    4    0    0  0.49494251765E-01 -0.79044028103E-01  0.31967660117E-01  0.98589207071E-01  0.51100000000E-03 0. -1.
</event>
<event>
 8    1  0.1120016E+005  0.1043930E+01  0.7957747E-01            NaN
         13   -1    0    0    0    0  0.00000000000E+00  0.00000000000E+00  0.74505805969E-08  0.10566000000E+00  0.10566000000E+00 0.  1.
     999900   -1    0    0    0    0 -0.00000000000E+00 -0.00000000000E+00 -0.74505805969E-08  0.93827000000E+00  0.93827000000E+00 0. -1.
     999902    2    1    2    0    0  0.18563879239E-01 -0.15618345436E-01  0.88701098199E-02  0.10180992204E+01  0.10177714839E+01 0.  0.
     999903    2    3    3    0    0  0.84847892134E-01  0.31305865679E-01 -0.89758919113E-01  0.12887307520E+00  0.19297251775E-01 0.  0.
         14    1    1    2    0    0 -0.18563879239E-01  0.15618345436E-01 -0.88701098199E-02  0.25830779601E-01  0.00000000000E+00 0. -1.
     999901    1    3    3    0    0 -0.66284012895E-01 -0.46924211114E-01  0.98629028933E-01  0.88922614520E+00  0.88000000000E+00 0.  1.
        -11    1    4    4    0    0  0.21069451645E-01  0.16957923698E-01 -0.24371465689E-01  0.36410471428E-01  0.51100000000E-03 0. -1.
         11    1    4    4    0    0  0.63778440490E-01  0.14347941980E-01 -0.65387453424E-01  0.92462603774E-01  0.51100000000E-03 0.  1.
</event>
<event>
 8    1  0.1120016E+005  0.1043930E+01  0.7957747E-01            NaN
         13   -1    0    0    0    0  0.00000000000E+00  0.00000000000E+00  0.74505805969E-08  0.10566000000E+00  0.10566000000E+00 0.  1.
     999900   -1    0    0    0    0 -0.00000000000E+00 -0.00000000000E+00 -0.74505805969E-08  0.93827000000E+00  0.93827000000E+00 0.  1.
     999902    2    1    2    0    0 -0.91478410768E-02 -0.14904879514E-01 -0.17283290371E-01  0.10193423902E+01  0.10190458076E+01 0.  0.
     999903    2    3    3    0    0 -0.38691458831E-01  0.53941230563E-01  0.10702632438E+00  0.12745366814E+00  0.19573402129E-01 0.  0.
         14    1    1    2    0    0  0.91478410768E-02  0.14904879514E-01  0.17283290371E-01  0.24587609801E-01  0.00000000000E+00 0.  1.
     999901    1    3    3    0    0  0.29543617754E-01 -0.68846110077E-01 -0.12430961475E+00  0.89188872206E+00  0.88000000000E+00 0.  1.
        -11    1    4    4    0    0 -0.10000663268E-01  0.28327390662E-01  0.56036638663E-01  0.63583176401E-01  0.51100000000E-03 0. -1.
         11    1    4    4    0    0 -0.28690795563E-01  0.25613839900E-01  0.50989685713E-01  0.63870491736E-01  0.51100000000E-03 0.  1.
</event>
<event>
 8    1  0.1120016E+005  0.1043930E+01  0.7957747E-01            NaN
         13   -1    0    0    0    0  0.00000000000E+00  0.00000000000E+00  0.74505805969E-08  0.10566000000E+00  0.10566000000E+00 0.  1.
     999900   -1    0    0    0    0 -0.00000000000E+00 -0.00000000000E+00 -0.74505805969E-08  0.93827000000E+00  0.93827000000E+00 0.  1.
     999902    2    1    2    0    0 -0.85678222752E-02 -0.12430886137E-01 -0.16484809271E-01  0.10215763997E+01  0.10213318055E+01 0.  0.
     999903    2    3    3    0    0  0.12104531971E+00 -0.22182068724E-01  0.38144000177E-01  0.13035310618E+00  0.19823065958E-01 0.  0.
         14    1    1    2    0    0  0.85678222752E-02  0.12430886137E-01  0.16484809271E-01  0.22353600278E-01  0.00000000000E+00 0.  1.
     999901    1    3    3    0    0 -0.12961314198E+00  0.97511825873E-02 -0.54628809448E-01  0.89122329355E+00  0.88000000000E+00 0.  1.
        -11    1    4    4    0    0  0.36687544068E-01 -0.55116145324E-02  0.22476730432E-02  0.37170780724E-01  0.51100000000E-03 0.  1.
         11    1    4    4    0    0  0.84357775641E-01 -0.16670454191E-01  0.35896327134E-01  0.93182325453E-01  0.51100000000E-03 0. -1.
</event>
<event>
 8    1  0.1120016E+005  0.1043930E+01  0.7957747E-01            NaN
         13   -1    0    0    0    0  0.00000000000E+00  0.00000000000E+00  0.74505805969E-08  0.10566000000E+00  0.10566000000E+00 0. -1.
     999900   -1    0    0    0    0 -0.00000000000E+00 -0.00000000000E+00 -0.74505805969E-08  0.93827000000E+00  0.93827000000E+00 0.  1.
     999902    2    1    2    0    0 -0.18225410110E-01  0.16054506805E-01  0.12914152696E-02  0.10196075718E+01  0.10193174284E+01 0.  0.
     999903    2    3    3    0    0  0.26590748361E-01 -0.81685976494E-01 -0.93238475080E-01  0.12803727710E+00  0.17901520553E-01 0.  0.
         14    1    1    2    0    0  0.18225410110E-01 -0.16054506805E-01 -0.12914152696E-02  0.24322428247E-01  0.00000000000E+00 0. -1.
     999901    1    3    3    0    0 -0.44816158471E-01  0.97740483299E-01  0.94529890349E-01  0.89157029465E+00  0.88000000000E+00 0. -1.
        -11    1    4    4    0    0  0.16028458372E-01 -0.46035489423E-01 -0.39791749951E-01  0.62927118553E-01  0.51100000000E-03 0. -1.
         11    1    4    4    0    0  0.10562289989E-01 -0.35650487071E-01 -0.53446725128E-01  0.65110158548E-01  0.51100000000E-03 0.  1.
</event>
<event>
 8    1  0.1120016E+005  0.1043930E+01  0.7957747E-01            NaN
         13   -1    0    0    0    0  0.00000000000E+00  0.00000000000E+00  0.74505805969E-08  0.10566000000E+00  0.10566000000E+00 0.  1.
     999900   -1    0    0    0    0 -0.00000000000E+00 -0.00000000000E+00 -0.74505805969E-08  0.93827000000E+00  0.93827000000E+00 0. -1.
     999902    2    1    2    0    0 -0.55296071935E-02 -0.22133334124E-01  0.83279205517E-02  0.10196438868E+01  0.10193546196E+01 0.  0.
     999903    2    3    3    0    0 -0.24966848295E-01  0.83820015853E-01 -0.90644892740E-01  0.12756791664E+00  0.20197480151E-01 0.  0.
         14    1    1    2    0    0  0.55296071935E-02  0.22133334124E-01 -0.83279205517E-02  0.24286113231E-01  0.00000000000E+00 0. -1.
     999901    1    3    3    0    0  0.19437241101E-01 -0.10595334998E+00  0.98972813292E-01  0.89207597013E+00  0.88000000000E+00 0. -1.
        -11    1    4    4    0    0 -0.16027356116E-01  0.25346436699E-01 -0.37736672868E-01  0.48204103534E-01  0.51100000000E-03 0.  1.
         11    1    4    4    0    0 -0.89394921787E-02  0.58473579154E-01 -0.52908219872E-01  0.79363813104E-01  0.51100000000E-03 0. -1.
</event>
<event>
 8    1  0.1120016E+005  0.1043930E+01  0.7957747E-01            NaN
         13   -1    0    0    0    0  0.00000000000E+00  0.00000000000E+00  0.74505805969E-08  0.10566000000E+00  0.10566000000E+00 0.  1.
     999900   -1    0    0    0    0 -0.00000000000E+00 -0.00000000000E+00 -0.74505805969E-08  0.93827000000E+00  0.93827000000E+00 0. -1.
     999902    2    1    2    0    0  0.72864603635E-02  0.18476418888E-01 -0.13594149147E-01  0.10198619413E+01  0.10195779067E+01 0.  0.
     999903    2    3    3    0    0 -0.11696683039E+00 -0.47106899561E-01 -0.15226861568E-01  0.12871508600E+00  0.20866639741E-01 0.  0.
         14    1    1    2    0    0 -0.72864603635E-02 -0.18476418888E-01  0.13594149147E-01  0.24068058720E-01  0.00000000000E+00 0.  1.
     999901    1    3    3    0    0  0.12425329075E+00  0.65583318449E-01  0.16327124213E-02  0.89114685528E+00  0.88000000000E+00 0.  1.
        -11    1    4    4    0    0 -0.44616530026E-01 -0.77132630985E-02 -0.83756871325E-02  0.46049347825E-01  0.51100000000E-03 0.  1.
         11    1    4    4    0    0 -0.72350300362E-01 -0.39393636463E-01 -0.68511744356E-02  0.82665738177E-01  0.51100000000E-03 0. -1.
</event>
<event>
 8    1  0.1120016E+005  0.1043930E+01  0.7957747E-01            NaN
         13   -1    0    0    0    0  0.00000000000E+00  0.00000000000E+00  0.74505805969E-08  0.10566000000E+00  0.10566000000E+00 0. -1.
     999900   -1    0    0    0    0 -0.00000000000E+00 -0.00000000000E+00 -0.74505805969E-08  0.93827000000E+00  0.93827000000E+00 0. -1.
     999902    2    1    2    0    0  0.69115052174E-02 -0.11310007091E-01 -0.20359560170E-01  0.10196360325E+01  0.10193465760E+01 0.  0.
     999903    2    3    3    0    0  0.12150966293E+00  0.25897444928E-01 -0.37380185465E-01  0.13126289364E+00  0.19934722004E-01 0.  0.
         14    1    1    2    0    0 -0.69115052174E-02  0.11310007091E-01  0.20359560170E-01  0.24293967463E-01  0.00000000000E+00 0. -1.
     999901    1    3    3    0    0 -0.11459815771E+00 -0.37207452019E-01  0.17020625295E-01  0.88837313890E+00  0.88000000000E+00 0.  1.
        -11    1    4    4    0    0  0.93498364470E-01  0.24061677909E-01 -0.21158556094E-01  0.98837513725E-01  0.51100000000E-03 0. -1.
         11    1    4    4    0    0  0.28011298458E-01  0.18357670191E-02 -0.16221629371E-01  0.32425379910E-01  0.51100000000E-03 0.  1.
</event>
<event>
 8    1  0.1120016E+005  0.1043930E+01  0.7957747E-01            NaN
         13   -1    0    0    0    0  0.00000000000E+00  0.00000000000E+00  0.74505805969E-08  0.10566000000E+00  0.10566000000E+00 0. -1.
     999900   -1    0    0    0    0 -0.00000000000E+00 -0.00000000000E+00 -0.74505805969E-08  0.93827000000E+00  0.93827000000E+00 0. -1.
     999902    2    1    2    0    0  0.86910628132E-02  0.10237181517E-01 -0.19326228719E-01  0.10203962461E+01  0.10201248264E+01 0.  0.
     999903    2    3    3    0    0  0.82239298839E-01 -0.26200439407E-01 -0.99933122323E-01  0.13290849147E+00  0.15108701768E-01 0.  0.
         14    1    1    2    0    0 -0.86910628132E-02 -0.10237181517E-01  0.19326228719E-01  0.23533753944E-01  0.00000000000E+00 0. -1.
     999901    1    3    3    0    0 -0.73548236026E-01  0.36437620924E-01  0.80606893605E-01  0.88748775458E+00  0.88000000000E+00 0.  1.
        -11    1    4    4    0    0  0.35272120933E-01 -0.16074852144E-01 -0.35759485442E-01  0.52740167867E-01  0.51100000000E-03 0.  1.
         11    1    4    4    0    0  0.46967177906E-01 -0.10125587264E-01 -0.64173636881E-01  0.80168323604E-01  0.51100000000E-03 0. -1.
</event>
<event>
 8    1  0.1120016E+005  0.1043930E+01  0.7957747E-01            NaN
         13   -1    0    0    0    0  0.00000000000E+00  0.00000000000E+00  0.74505805969E-08  0.10566000000E+00  0.10566000000E+00 0. -1.
     999900   -1    0    0    0    0 -0.00000000000E+00 -0.00000000000E+00 -0.74505805969E-08  0.93827000000E+00  0.93827000000E+00 0.  1.
     999902    2    1    2    0    0 -0.19387789295E-01 -0.14030701315E-01  0.44304662005E-02  0.10195912247E+01  0.10193006865E+01 0.  0.
     999903    2    3    3    0    0  0.12504345092E+00 -0.16715549321E-01  0.68592689629E-02  0.12781014693E+00  0.19316052432E-01 0.  0.
         14    1    1    2    0    0  0.19387789295E-01  0.14030701315E-01 -0.44304662005E-02  0.24338775316E-01  0.00000000000E+00 0.  1.
     999901    1    3    3    0    0 -0.14443124021E+00  0.26848480061E-02 -0.24288027624E-02  0.89178107775E+00  0.88000000000E+00 0.  1.
        -11    1    4    4    0    0  0.85604438906E-01 -0.95117792501E-02 -0.41457519636E-02  0.86232489731E-01  0.51100000000E-03 0.  1.
         11    1    4    4    0    0  0.39439012009E-01 -0.72037700711E-02  0.11005020926E-01  0.41577657198E-01  0.51100000000E-03 0. -1.
</event>
<event>
 8    1  0.1120016E+005  0.1043930E+01  0.7957747E-01            NaN
         13   -1    0    0    0    0  0.00000000000E+00  0.00000000000E+00  0.74505805969E-08  0.10566000000E+00  0.10566000000E+00 0. -1.
     999900   -1    0    0    0    0 -0.00000000000E+00 -0.00000000000E+00 -0.74505805969E-08  0.93827000000E+00  0.93827000000E+00 0.  1.
     999902    2    1    2    0    0  0.16204882452E-01 -0.15041241765E-01  0.10431247741E-01  0.10194831577E+01  0.10191900023E+01 0.  0.
     999903    2    3    3    0    0  0.10779150169E+00 -0.47282741335E-02  0.73939166519E-01  0.13239369103E+00  0.20487182992E-01 0.  0.
         14    1    1    2    0    0 -0.16204882452E-01  0.15041241765E-01 -0.10431247741E-01  0.24446842302E-01  0.00000000000E+00 0. -1.
     999901    1    3    3    0    0 -0.91586619235E-01 -0.10312967632E-01 -0.63507918778E-01  0.88708946667E+00  0.88000000000E+00 0.  1.
        -11    1    4    4    0    0  0.55547143898E-01  0.77982869380E-02  0.37451151149E-01  0.67447374432E-01  0.51100000000E-03 0.  1.
         11    1    4    4    0    0  0.52244357789E-01 -0.12526561072E-01  0.36488015370E-01  0.64946316599E-01  0.51100000000E-03 0. -1.
</event>
<event>
 8    1  0.1120016E+005  0.1043930E+01  0.7957747E-01            NaN
         13   -1    0    0    0    0  0.00000000000E+00  0.00000000000E+00  0.74505805969E-08  0.10566000000E+00  0.10566000000E+00 0.  1.
     999900   -1    0    0    0    0 -0.00000000000E+00 -0.00000000000E+00 -0.74505805969E-08  0.93827000000E+00  0.93827000000E+00 0.  1.
     999902    2    1    2    0    0 -0.57230398670E-02 -0.21324859492E-01 -0.78182109830E-02  0.10205072068E+01  0.10202383701E+01 0.  0.
     999903    2    3    3    0    0  0.28425872329E-01 -0.12837576412E+00  0.91339870275E-02  0.13320037071E+00  0.19249467661E-01 0.  0.
         14    1    1    2    0    0  0.57230398670E-02  0.21324859492E-01  0.78182109830E-02  0.23422793186E-01  0.00000000000E+00 0.  1.
     999901    1    3    3    0    0 -0.34148912196E-01  0.10705090463E+00 -0.16952198011E-01  0.88730683611E+00  0.88000000000E+00 0.  1.
        -11    1    4    4    0    0  0.14823975886E-01 -0.10035870399E+00  0.10705921660E-01  0.10201224244E+00  0.51100000000E-03 0. -1.
         11    1    4    4    0    0  0.13601896443E-01 -0.28017060132E-01 -0.15719346330E-02  0.31188128266E-01  0.51100000000E-03 0.  1.
</event>
<event>
 8    1  0.1120016E+005  0.1043930E+01  0.7957747E-01            NaN
         13   -1    0    0    0    0  0.00000000000E+00  0.00000000000E+00  0.74505805969E-08  0.10566000000E+00  0.10566000000E+00 0. -1.
     999900   -1    0    0    0    0 -0.00000000000E+00 -0.00000000000E+00 -0.74505805969E-08  0.93827000000E+00  0.93827000000E+00 0. -1.
     999902    2    1    2    0    0  0.16760661827E-01  0.58613788247E-02 -0.15836774672E-01  0.10201375857E+01  0.10198600957E+01 0.  0.
     999903    2    3    3    0    0 -0.17097112940E-03 -0.43544172812E-01  0.11905062629E+00  0.12832919839E+00  0.19980173241E-01 0.  0.
         14    1    1    2    0    0 -0.16760661827E-01 -0.58613788247E-02  0.15836774672E-01  0.23792414308E-01  0.00000000000E+00 0. -1.
     999901    1    3    3    0    0  0.16931632956E-01  0.49405551637E-01 -0.13488740096E+00  0.89180838730E+00  0.88000000000E+00 0. -1.
        -11    1    4    4    0    0 -0.97708267724E-02 -0.27398823160E-01  0.70274215725E-01  0.76058471476E-01  0.51100000000E-03 0.  1.
         11    1    4    4    0    0  0.95998556430E-02 -0.16145349652E-01  0.48776410562E-01  0.52270726913E-01  0.51100000000E-03 0. -1.
</event>
<event>
 8    1  0.1120016E+005  0.1043930E+01  0.7957747E-01            NaN
         13   -1    0    0    0    0  0.00000000000E+00  0.00000000000E+00  0.74505805969E-08  0.10566000000E+00  0.10566000000E+00 0.  1.
     999900   -1    0    0    0    0 -0.00000000000E+00 -0.00000000000E+00 -0.74505805969E-08  0.93827000000E+00  0.93827000000E+00 0. -1.
     999902    2    1    2    0    0 -0.14252235850E-01  0.17988555628E-01  0.56379630946E-02  0.10202973745E+01  0.10200236426E+01 0.  0.
     999903    2    3    3    0    0 -0.87711676751E-01 -0.91765608268E-01  0.21480081999E-01  0.13030117300E+00  0.20068299949E-01 0.  0.
         14    1    1    2    0    0  0.14252235850E-01 -0.17988555628E-01 -0.56379630946E-02  0.23632625503E-01  0.00000000000E+00 0. -1.
     999901    1    3    3    0    0  0.73459440900E-01  0.10975416390E+00 -0.15842118904E-01  0.88999620150E+00  0.88000000000E+00 0.  1.
        -11    1    4    4    0    0 -0.35598497212E-01 -0.49365771550E-01  0.46585891127E-02  0.61042575126E-01  0.51100000000E-03 0.  1.
         11    1    4    4    0    0 -0.52113179539E-01 -0.42399836718E-01  0.16821492886E-01  0.69258597873E-01  0.51100000000E-03 0. -1.
</event>
<event>
 8    1  0.1120016E+005  0.1043930E+01  0.7957747E-01            NaN
         13   -1    0    0    0    0  0.00000000000E+00  0.00000000000E+00  0.74505805969E-08  0.10566000000E+00  0.10566000000E+00 0.  1.
     999900   -1    0    0    0    0 -0.00000000000E+00 -0.00000000000E+00 -0.74505805969E-08  0.93827000000E+00  0.93827000000E+00 0. -1.
     999902    2    1    2    0    0  0.17451004957E-01  0.14491964663E-01 -0.58336717714E-02  0.10205080799E+01  0.10202392635E+01 0.  0.
     999903    2    3    3    0    0  0.90492560779E-01  0.46187782190E-01  0.83150633589E-01  0.13244394917E+00  0.17468744253E-01 0.  0.
         14    1    1    2    0    0 -0.17451004957E-01 -0.14491964663E-01  0.58336717714E-02  0.23421920078E-01  0.00000000000E+00 0. -1.
     999901    1    3    3    0    0 -0.73041555822E-01 -0.31695817526E-01 -0.88984305361E-01  0.88806413075E+00  0.88000000000E+00 0. -1.
        -11    1    4    4    0    0  0.50823907049E-01  0.23332611337E-01  0.34870036688E-01  0.65906455368E-01  0.51100000000E-03 0. -1.
         11    1    4    4    0    0  0.39668653730E-01  0.22855170852E-01  0.48280596901E-01  0.66537493803E-01  0.51100000000E-03 0.  1.
</event>
<event>
 8    1  0.1120016E+005  0.1043930E+01  0.7957747E-01            NaN
         13   -1    0    0    0    0  0.00000000000E+00  0.00000000000E+00  0.74505805969E-08  0.10566000000E+00  0.10566000000E+00 0. -1.
     999900   -1    0    0    0    0 -0.00000000000E+00 -0.00000000000E+00 -0.74505805969E-08  0.93827000000E+00  0.93827000000E+00 0. -1.
     999902    2    1    2    0    0 -0.15611523913E-01 -0.41992966019E-02  0.19170322548E-01  0.10188530178E+01  0.10185443617E+01 0.  0.
     999903    2    3    3    0    0 -0.99247244605E-01 -0.85730916279E-02 -0.80046549321E-01  0.12932614830E+00  0.19856714580E-01 0.  0.
         14    1    1    2    0    0  0.15611523913E-01  0.41992966019E-02 -0.19170322548E-01  0.25076982223E-01  0.00000000000E+00 0. -1.
     999901    1    3    3    0    0  0.83635720692E-01  0.43737950260E-02  0.99216871869E-01  0.88952686948E+00  0.88000000000E+00 0.  1.
        -11    1    4    4    0    0 -0.46439670401E-01 -0.14510151993E-02 -0.49552418573E-01  0.67929755921E-01  0.51100000000E-03 0.  1.
         11    1    4    4    0    0 -0.52807574204E-01 -0.71220764286E-02 -0.30494130748E-01  0.61396392378E-01  0.51100000000E-03 0. -1.
</event>
<event>
 8    1  0.1120016E+005  0.1043930E+01  0.7957747E-01            NaN
         13   -1    0    0    0    0  0.00000000000E+00  0.00000000000E+00  0.74505805969E-08  0.10566000000E+00  0.10566000000E+00 0.  1.
     999900   -1    0    0    0    0 -0.00000000000E+00 -0.00000000000E+00 -0.74505805969E-08  0.93827000000E+00  0.93827000000E+00 0.  1.
     999902    2    1    2    0    0  0.92282446065E-02  0.16666817009E-01 -0.65068563057E-03  0.10248678207E+01  0.10246905305E+01 0.  0.
     999903    2    3    3    0    0 -0.11038243676E+00  0.48395497887E-01 -0.56049866241E-01  0.13448447995E+00  0.20447035948E-01 0.  0.
         14    1    1    2    0    0 -0.92282446065E-02 -0.16666817009E-01  0.65068563057E-03  0.19062179296E-01  0.00000000000E+00 0. -1.
     999901    1    3    3    0    0  0.11961068137E+00 -0.31728680878E-01  0.55399180610E-01  0.89038334076E+00  0.88000000000E+00 0. -1.
        -11    1    4    4    0    0 -0.83800705977E-01  0.39111310917E-01 -0.51816771775E-01  0.10600703713E+00  0.51100000000E-03 0.  1.
         11    1    4    4    0    0 -0.26581730787E-01  0.92841869701E-02 -0.42330944660E-02  0.28477442811E-01  0.51100000000E-03 0. -1.
</event>
<event>
 7    1  0.1120016E+005  0.1043930E+01  0.7957747E-01            NaN
         13   -1    0    0    0    0  0.00000000000E+00  0.00000000000E+00  0.74505805969E-08  0.10566000000E+00  0.10566000000E+00 0. -1.
     999900   -1    0    0    0    0 -0.00000000000E+00 -0.00000000000E+00 -0.74505805969E-08  0.93827000000E+00  0.93827000000E+00 0. -1.
     999903    2    1    2    0    0  0.83567159268E-01 -0.11273431072E-01  0.44897297407E-01  0.10045296639E+00  0.31055929971E-01 0.  0.
         14    1    1    2    0    0 -0.35499021652E-01 -0.27338592454E-01 -0.41855611144E-01  0.61314528130E-01  0.00000000000E+00 0.  1.
     999901    1    1    2    0    0 -0.48068137616E-01  0.38612023526E-01 -0.30416862622E-02  0.88216250548E+00  0.88000000000E+00 0.  1.
        -11    1    3    3    0    0  0.50669555765E-01 -0.18576296973E-01  0.38123131781E-01  0.66076599401E-01  0.51100000000E-03 0.  1.
         11    1    3    3    0    0  0.32897603503E-01  0.73028659003E-02  0.67741656259E-02  0.34376366992E-01  0.51100000000E-03 0. -1.
</event>
<event>
 8    1  0.1120016E+005  0.1043930E+01  0.7957747E-01            NaN
         13   -1    0    0    0    0  0.00000000000E+00  0.00000000000E+00  0.74505805969E-08  0.10566000000E+00  0.10566000000E+00 0. -1.
     999900   -1    0    0    0    0 -0.00000000000E+00 -0.00000000000E+00 -0.74505805969E-08  0.93827000000E+00  0.93827000000E+00 0. -1.
     999902    2    1    2    0    0  0.45337855301E-02  0.21674045679E-02 -0.23279689759E-01  0.10201141060E+01  0.10198360615E+01 0.  0.
     999903    2    3    3    0    0  0.84188963507E-01 -0.97672326874E-01 -0.85298146999E-02  0.13077138340E+00  0.20018290739E-01 0.  0.
         14    1    1    2    0    0 -0.45337855301E-02 -0.21674045679E-02  0.23279689759E-01  0.23815894043E-01  0.00000000000E+00 0. -1.
     999901    1    3    3    0    0 -0.79655177976E-01  0.99839731442E-01 -0.14749875059E-01  0.88934272256E+00  0.88000000000E+00 0.  1.
        -11    1    4    4    0    0  0.40289786790E-01 -0.57787821250E-01 -0.11510108043E-01  0.71382371161E-01  0.51100000000E-03 0.  1.
         11    1    4    4    0    0  0.43899176716E-01 -0.39884505624E-01  0.29802933428E-02  0.59389012238E-01  0.51100000000E-03 0. -1.
</event>
<event>
 7    1  0.1120016E+005  0.1043930E+01  0.7957747E-01            NaN
         13   -1    0    0    0    0  0.00000000000E+00  0.00000000000E+00  0.74505805969E-08  0.10566000000E+00  0.10566000000E+00 0. -1.
     999900   -1    0    0    0    0 -0.00000000000E+00 -0.00000000000E+00 -0.74505805969E-08  0.93827000000E+00  0.93827000000E+00 0. -1.
     999903    2    1    2    0    0  0.25015647872E-02  0.66816301153E-01 -0.81691588020E-01  0.10710585927E+00  0.18096231974E-01 0.  0.
         14    1    1    2    0    0  0.13608670468E-01  0.37090873014E-01 -0.20814476922E-01  0.44656144285E-01  0.00000000000E+00 0.  1.
     999901    1    1    2    0    0 -0.16110235255E-01 -0.10390717417E+00  0.10250606494E+00  0.89216799644E+00  0.88000000000E+00 0.  1.
        -11    1    3    3    0    0 -0.75923393635E-02  0.31668781931E-01 -0.41722690348E-01  0.52930136755E-01  0.51100000000E-03 0.  1.
         11    1    3    3    0    0  0.10093904151E-01  0.35147519222E-01 -0.39968897671E-01  0.54175722519E-01  0.51100000000E-03 0. -1.
</event>
<event>
 8    1  0.1120016E+005  0.1043930E+01  0.7957747E-01            NaN
         13   -1    0    0    0    0  0.00000000000E+00  0.00000000000E+00  0.74505805969E-08  0.10566000000E+00  0.10566000000E+00 0.  1.
     999900   -1    0    0    0    0 -0.00000000000E+00 -0.00000000000E+00 -0.74505805969E-08  0.93827000000E+00  0.93827000000E+00 0.  1.
     999902    2    1    2    0    0  0.92625821882E-02 -0.15092611846E-01  0.15832496953E-01  0.10201760462E+01  0.10198994631E+01 0.  0.
     999903    2    3    3    0    0 -0.19541969743E-02 -0.27198760472E-01  0.12836987157E+00  0.13285590350E+00  0.20694823283E-01 0.  0.
         14    1    1    2    0    0 -0.92625821882E-02  0.15092611846E-01 -0.15832496953E-01  0.23753953795E-01  0.00000000000E+00 0. -1.
     999901    1    3    3    0    0  0.11216779162E-01  0.12106148626E-01 -0.11253737462E+00  0.88732014271E+00  0.88000000000E+00 0.  1.
        -11    1    4    4    0    0 -0.10871783430E-01 -0.14320955368E-01  0.56379581057E-01  0.59179419723E-01  0.51100000000E-03 0. -1.
         11    1    4    4    0    0  0.89175864560E-02 -0.12877805104E-01  0.71990290511E-01  0.73676483774E-01  0.51100000000E-03 0.  1.
</event>
<event>
 8    1  0.1120016E+005  0.1043930E+01  0.7957747E-01            NaN
         13   -1    0    0    0    0  0.00000000000E+00  0.00000000000E+00  0.74505805969E-08  0.10566000000E+00  0.10566000000E+00 0.  1.
     999900   -1    0    0    0    0 -0.00000000000E+00 -0.00000000000E+00 -0.74505805969E-08  0.93827000000E+00  0.93827000000E+00 0. -1.
     999902    2    1    2    0    0  0.75320024559E-02 -0.22229939548E-01  0.39992805369E-02  0.10201204322E+01  0.10198425372E+01 0.  0.
     999903    2    3    3    0    0 -0.52427694557E-01  0.53150213964E-01 -0.10255361314E+00  0.12847540646E+00  0.20373465437E-01 0.  0.
         14    1    1    2    0    0 -0.75320024559E-02  0.22229939548E-01 -0.39992805369E-02  0.23809567785E-01  0.00000000000E+00 0.  1.
     999901    1    3    3    0    0  0.59959697013E-01 -0.75380153512E-01  0.10655289368E+00  0.89164502576E+00  0.88000000000E+00 0.  1.
        -11    1    4    4    0    0 -0.37785139005E-01  0.24907278081E-01 -0.65811354187E-01  0.79871676406E-01  0.51100000000E-03 0.  1.
         11    1    4    4    0    0 -0.14642555552E-01  0.28242935883E-01 -0.36742258957E-01  0.48603730049E-01  0.51100000000E-03 0. -1.
</event>
<event>
 8    1  0.1120016E+005  0.1043930E+01  0.7957747E-01            NaN
         13   -1    0    0    0    0  0.00000000000E+00  0.00000000000E+00  0.74505805969E-08  0.10566000000E+00  0.10566000000E+00 0. -1.
     999900   -1    0    0    0    0 -0.00000000000E+00 -0.00000000000E+00 -0.74505805969E-08  0.93827000000E+00  0.93827000000E+00 0.  1.
     999902    2    1    2    0    0 -0.20521498130E-01 -0.69739933978E-02 -0.10661132406E-01  0.10197757413E+01  0.10194896440E+01 0.  0.
     999903    2    3    3    0    0 -0.70819652704E-02 -0.12654441179E+00 -0.30013155396E-01  0.13137706570E+00  0.17190157282E-01 0.  0.
         14    1    1    2    0    0  0.20521498130E-01  0.69739933978E-02  0.10661132406E-01  0.24154258705E-01  0.00000000000E+00 0. -1.
     999901    1    3    3    0    0 -0.13439532860E-01  0.11957041840E+00  0.19352022990E-01  0.88839867559E+00  0.88000000000E+00 0.  1.
        -11    1    4    4    0    0  0.16831312265E-02 -0.58262781485E-01 -0.66043931035E-02  0.58662285724E-01  0.51100000000E-03 0.  1.
         11    1    4    4    0    0 -0.87650964969E-02 -0.68281630310E-01 -0.23408762293E-01  0.72714779979E-01  0.51100000000E-03 0. -1.
</event>
<event>
 8    1  0.1120016E+005  0.1043930E+01  0.7957747E-01            NaN
         13   -1    0    0    0    0  0.00000000000E+00  0.00000000000E+00  0.74505805969E-08  0.10566000000E+00  0.10566000000E+00 0.  1.
     999900   -1    0    0    0    0 -0.00000000000E+00 -0.00000000000E+00 -0.74505805969E-08  0.93827000000E+00  0.93827000000E+00 0. -1.
     999902    2    1    2    0    0 -0.21558292246E-01 -0.89102938777E-02  0.99378837430E-02  0.10185742347E+01  0.10182585903E+01 0.  0.
     999903    2    3    3    0    0 -0.26596898366E-01 -0.96262788261E-01 -0.80218419016E-01  0.12965128822E+00  0.20013554914E-01 0.  0.
         14    1    1    2    0    0  0.21558292246E-01  0.89102938777E-02 -0.99378837430E-02  0.25355765318E-01  0.00000000000E+00 0. -1.
     999901    1    3    3    0    0  0.50386061199E-02  0.87352494384E-01  0.90156302759E-01  0.88892294647E+00  0.88000000000E+00 0.  1.
        -11    1    4    4    0    0 -0.15621007529E-01 -0.50026277316E-01 -0.54510388425E-01  0.75619361711E-01  0.51100000000E-03 0. -1.
         11    1    4    4    0    0 -0.10975890837E-01 -0.46236510945E-01 -0.25708030591E-01  0.54031926506E-01  0.51100000000E-03 0.  1.
</event>
<event>
 8    1  0.1120016E+005  0.1043930E+01  0.7957747E-01            NaN
         13   -1    0    0    0    0  0.00000000000E+00  0.00000000000E+00  0.74505805969E-08  0.10566000000E+00  0.10566000000E+00 0. -1.
     999900   -1    0    0    0    0 -0.00000000000E+00 -0.00000000000E+00 -0.74505805969E-08  0.93827000000E+00  0.93827000000E+00 0. -1.
     999902    2    1    2    0    0 -0.14634782969E-01  0.17987911130E-01 -0.11589124848E-01  0.10180060799E+01  0.10176759450E+01 0.  0.
     999903    2    3    3    0    0  0.10039284514E+00 -0.38305642807E-02 -0.76709323694E-01  0.12786674169E+00  0.19292141177E-01 0.  0.
         14    1    1    2    0    0  0.14634782969E-01 -0.17987911130E-01  0.11589124848E-01  0.25923920115E-01  0.00000000000E+00 0. -1.
     999901    1    3    3    0    0 -0.11502762811E+00  0.21818475411E-01  0.65120198846E-01  0.89013933819E+00  0.88000000000E+00 0.  1.
        -11    1    4    4    0    0  0.17788758606E-01  0.26745895901E-02 -0.22656138212E-01  0.28933632367E-01  0.51100000000E-03 0.  1.
         11    1    4    4    0    0  0.82604086537E-01 -0.65051538708E-02 -0.54053185482E-01  0.98933109327E-01  0.51100000000E-03 0. -1.
</event>
<event>
 8    1  0.1120016E+005  0.1043930E+01  0.7957747E-01            NaN
         13   -1    0    0    0    0  0.00000000000E+00  0.00000000000E+00  0.74505805969E-08  0.10566000000E+00  0.10566000000E+00 0. -1.
     999900   -1    0    0    0    0 -0.00000000000E+00 -0.00000000000E+00 -0.74505805969E-08  0.93827000000E+00  0.93827000000E+00 0. -1.
     999902    2    1    2    0    0  0.15853140788E-01 -0.13391353283E-01 -0.16854695518E-01  0.10171955433E+01  0.10168441582E+01 0.  0.
     999903    2    3    3    0    0  0.99961694698E-01 -0.21877763358E-01  0.74999524982E-01  0.12838540279E+00  0.19669925417E-01 0.  0.
         14    1    1    2    0    0 -0.15853140788E-01  0.13391353283E-01  0.16854695518E-01  0.26734456728E-01  0.00000000000E+00 0.  1.
     999901    1    3    3    0    0 -0.84108553910E-01  0.84864100754E-02 -0.91854220499E-01  0.88881014048E+00  0.88000000000E+00 0. -1.
        -11    1    4    4    0    0  0.27283830204E-01 -0.51892257473E-02  0.10192130182E-01  0.29588445264E-01  0.51100000000E-03 0.  1.
         11    1    4    4    0    0  0.72677864494E-01 -0.16688537611E-01  0.64807394800E-01  0.98796957528E-01  0.51100000000E-03 0. -1.
</event>
<event>
 8    1  0.1120016E+005  0.1043930E+01  0.7957747E-01            NaN
         13   -1    0    0    0    0  0.00000000000E+00  0.00000000000E+00  0.74505805969E-08  0.10566000000E+00  0.10566000000E+00 0.  1.
     999900   -1    0    0    0    0 -0.00000000000E+00 -0.00000000000E+00 -0.74505805969E-08  0.93827000000E+00  0.93827000000E+00 0.  1.
     999902    2    1    2    0    0  0.34280482636E-02 -0.16225909608E-01  0.17902815685E-01  0.10195262612E+01  0.10192341511E+01 0.  0.
     999903    2    3    3    0    0 -0.78941781290E-01 -0.22968839878E-01 -0.96383641892E-01  0.12829584750E+00  0.20264393003E-01 0.  0.
         14    1    1    2    0    0 -0.34280482636E-02  0.16225909608E-01 -0.17902815685E-01  0.24403738790E-01  0.00000000000E+00 0. -1.
     999901    1    3    3    0    0  0.82369829554E-01  0.67429302700E-02  0.11428645758E+00  0.89123041371E+00  0.88000000000E+00 0. -1.
        -11    1    4    4    0    0 -0.10899777773E-01 -0.10980295015E-01 -0.15258057113E-01  0.21735718575E-01  0.51100000000E-03 0. -1.
         11    1    4    4    0    0 -0.68042003517E-01 -0.11988544863E-01 -0.81125584779E-01  0.10656012893E+00  0.51100000000E-03 0.  1.
</event>
<event>
 8    1  0.1120016E+005  0.1043930E+01  0.7957747E-01            NaN
         13   -1    0    0    0    0  0.00000000000E+00  0.00000000000E+00  0.74505805969E-08  0.10566000000E+00  0.10566000000E+00 0. -1.
     999900   -1    0    0    0    0 -0.00000000000E+00 -0.00000000000E+00 -0.74505805969E-08  0.93827000000E+00  0.93827000000E+00 0.  1.
     999902    2    1    2    0    0  0.20178229339E-02  0.14078516606E-01 -0.18676259226E-01  0.10204549303E+01  0.10201848783E+01 0.  0.
     999903    2    3    3    0    0 -0.23737455950E-01 -0.10001824437E+00  0.73551605476E-01  0.12793748828E+00  0.19774888578E-01 0.  0.
         14    1    1    2    0    0 -0.20178229339E-02 -0.14078516606E-01  0.18676259226E-01  0.23475069710E-01  0.00000000000E+00 0. -1.
     999901    1    3    3    0    0  0.25755278884E-01  0.11409676098E+00 -0.92227864701E-01  0.89251744201E+00  0.88000000000E+00 0.  1.
        -11    1    4    4    0    0 -0.10236263540E-01 -0.17570144258E-01  0.21001400157E-01  0.29237150854E-01  0.51100000000E-03 0. -1.
         11    1    4    4    0    0 -0.13501192410E-01 -0.82448100114E-01  0.52550205319E-01  0.98700337431E-01  0.51100000000E-03 0.  1.
</event>
<event>
 8    1  0.1120016E+005  0.1043930E+01  0.7957747E-01            NaN
         13   -1    0    0    0    0  0.00000000000E+00  0.00000000000E+00  0.74505805969E-08  0.10566000000E+00  0.10566000000E+00 0.  1.
     999900   -1    0    0    0    0 -0.00000000000E+00 -0.00000000000E+00 -0.74505805969E-08  0.93827000000E+00  0.93827000000E+00 0.  1.
     999902    2    1    2    0    0 -0.17603688788E-01 -0.45795181161E-02  0.14026379705E-01  0.10209604294E+01  0.10207020120E+01 0.  0.
     999903    2    3    3    0    0  0.65345235281E-01  0.28182411691E-01  0.10860271731E+00  0.13141079523E+00  0.20248426927E-01 0.  0.
         14    1    1    2    0    0  0.17603688788E-01  0.45795181161E-02 -0.14026379705E-01  0.22969570583E-01  0.00000000000E+00 0. -1.
     999901    1    3    3    0    0 -0.82948924069E-01 -0.32761929807E-01 -0.94576337605E-01  0.88954963419E+00  0.88000000000E+00 0.  1.
        -11    1    4    4    0    0  0.19248570680E-01  0.93835201301E-02  0.50753789628E-01  0.55088712146E-01  0.51100000000E-03 0. -1.
         11    1    4    4    0    0  0.46096664601E-01  0.18798891561E-01  0.57848927682E-01  0.76322083084E-01  0.51100000000E-03 0.  1.
</event>
<event>
 8    1  0.1120016E+005  0.1043930E+01  0.7957747E-01            NaN
         13   -1    0    0    0    0  0.00000000000E+00  0.00000000000E+00  0.74505805969E-08  0.10566000000E+00  0.10566000000E+00 0.  1.
     999900   -1    0    0    0    0 -0.00000000000E+00 -0.00000000000E+00 -0.74505805969E-08  0.93827000000E+00  0.93827000000E+00 0.  1.
     999902    2    1    2    0    0  0.18616706052E-01  0.13722796627E-01  0.14905815137E-01  0.10164149093E+01  0.10160424143E+01 0.  0.
     999903    2    3    3    0    0  0.89941985151E-01 -0.86877688297E-01  0.17591918123E-01  0.12781209130E+00  0.19727181307E-01 0.  0.
         14    1    1    2    0    0 -0.18616706052E-01 -0.13722796627E-01 -0.14905815137E-01  0.27515090703E-01  0.00000000000E+00 0. -1.
     999901    1    3    3    0    0 -0.71325279099E-01  0.10060048492E+00 -0.26861029864E-02  0.88860281800E+00  0.88000000000E+00 0.  1.
        -11    1    4    4    0    0  0.37246408391E-01 -0.49669565412E-01  0.87151584031E-02  0.62694304153E-01  0.51100000000E-03 0. -1.
         11    1    4    4    0    0  0.52695576759E-01 -0.37208122885E-01  0.88767597198E-02  0.65117787146E-01  0.51100000000E-03 0.  1.
</event>
<event>
 8    1  0.1120016E+005  0.1043930E+01  0.7957747E-01            NaN
         13   -1    0    0    0    0  0.00000000000E+00  0.00000000000E+00  0.74505805969E-08  0.10566000000E+00  0.10566000000E+00 0.  1.
     999900   -1    0    0    0    0 -0.00000000000E+00 -0.00000000000E+00 -0.74505805969E-08  0.93827000000E+00  0.93827000000E+00 0.  1.
     999902    2    1    2    0    0 -0.95962110048E-02 -0.65928059013E-02  0.16095669183E-01  0.10240648818E+01  0.10238721889E+01 0.  0.
     999903    2    3    3    0    0 -0.21808432478E-01 -0.62666431130E-01 -0.11328610779E+00  0.13275515222E+00  0.19684991864E-01 0.  0.
         14    1    1    2    0    0  0.95962110048E-02  0.65928059013E-02 -0.16095669183E-01  0.19865118216E-01  0.00000000000E+00 0. -1.
     999901    1    3    3    0    0  0.12212221473E-01  0.56073625228E-01  0.12938177698E+00  0.89130972956E+00  0.88000000000E+00 0. -1.
        -11    1    4    4    0    0 -0.48832362434E-02 -0.41638643399E-01 -0.74697681959E-01  0.85659952320E-01  0.51100000000E-03 0.  1.
         11    1    4    4    0    0 -0.16925196235E-01 -0.21027787731E-01 -0.38588425834E-01  0.47095199901E-01  0.51100000000E-03 0. -1.
</event>
<event>
 8    1  0.1120016E+005  0.1043930E+01  0.7957747E-01            NaN
         13   -1    0    0    0    0  0.00000000000E+00  0.00000000000E+00  0.74505805969E-08  0.10566000000E+00  0.10566000000E+00 0.  1.
     999900   -1    0    0    0    0 -0.00000000000E+00 -0.00000000000E+00 -0.74505805969E-08  0.93827000000E+00  0.93827000000E+00 0. -1.
     999902    2    1    2    0    0 -0.10725803077E-01  0.20419344978E-01 -0.43089975931E-02  0.10204659858E+01  0.10201961911E+01 0.  0.
     999903    2    3    3    0    0  0.12040304142E+00  0.15712683557E-01  0.40765407131E-01  0.12959639465E+00  0.19738953362E-01 0.  0.
         14    1    1    2    0    0  0.10725803077E-01 -0.20419344978E-01  0.43089975931E-02  0.23464014176E-01  0.00000000000E+00 0.  1.
     999901    1    3    3    0    0 -0.13112884450E+00  0.47066614217E-02 -0.45074404724E-01  0.89086959118E+00  0.88000000000E+00 0. -1.
        -11    1    4    4    0    0  0.88830290376E-01  0.12253721792E-01  0.20723021871E-01  0.92036291443E-01  0.51100000000E-03 0.  1.
         11    1    4    4    0    0  0.31572751043E-01  0.34589617645E-02  0.20042385260E-01  0.37560103205E-01  0.51100000000E-03 0. -1.
</event>
<event>
 8    1  0.1120016E+005  0.1043930E+01  0.7957747E-01            NaN
         13   -1    0    0    0    0  0.00000000000E+00  0.00000000000E+00  0.74505805969E-08  0.10566000000E+00  0.10566000000E+00 0.  1.
     999900   -1    0    0    0    0 -0.00000000000E+00 -0.00000000000E+00 -0.74505805969E-08  0.93827000000E+00  0.93827000000E+00 0. -1.
     999902    2    1    2    0    0  0.20790849794E-01 -0.61847564654E-02  0.10034553960E-01  0.10200301481E+01  0.10197501165E+01 0.  0.
     999903    2    3    3    0    0  0.20235922465E-01  0.10647977291E+00 -0.67895352982E-01  0.12943109436E+00  0.19879502866E-01 0.  0.
         14    1    1    2    0    0 -0.20790849794E-01  0.61847564654E-02 -0.10034553960E-01  0.23899851900E-01  0.00000000000E+00 0.  1.
     999901    1    3    3    0    0  0.55492732899E-03 -0.11266452937E+00  0.77929906942E-01  0.89059905374E+00  0.88000000000E+00 0. -1.
        -11    1    4    4    0    0  0.88139015945E-02  0.37568218006E-01 -0.13459043279E-01  0.40871295948E-01  0.51100000000E-03 0.  1.
         11    1    4    4    0    0  0.11422020870E-01  0.68911554904E-01 -0.54436309703E-01  0.88559798414E-01  0.51100000000E-03 0. -1.
</event>
<event>
 8    1  0.1120016E+005  0.1043930E+01  0.7957747E-01            NaN
         13   -1    0    0    0    0  0.00000000000E+00  0.00000000000E+00  0.74505805969E-08  0.10566000000E+00  0.10566000000E+00 0. -1.
     999900   -1    0    0    0    0 -0.00000000000E+00 -0.00000000000E+00 -0.74505805969E-08  0.93827000000E+00  0.93827000000E+00 0.  1.
     999902    2    1    2    0    0 -0.16115338889E-01 -0.84745037412E-02 -0.16056481081E-01  0.10196538400E+01  0.10193648127E+01 0.  0.
     999903    2    3    3    0    0  0.89226902395E-01 -0.67835553600E-01 -0.63070082457E-01  0.13014217577E+00  0.19900958985E-01 0.  0.
         14    1    1    2    0    0  0.16115338889E-01  0.84745037412E-02  0.16056481081E-01  0.24276160032E-01  0.00000000000E+00 0. -1.
     999901    1    3    3    0    0 -0.10534224128E+00  0.59361049859E-01  0.47013601376E-01  0.88951166420E+00  0.88000000000E+00 0. -1.
        -11    1    4    4    0    0  0.35427930014E-01 -0.16127558591E-01 -0.17282020760E-01  0.42593024472E-01  0.51100000000E-03 0.  1.
         11    1    4    4    0    0  0.53798972382E-01 -0.51707995009E-01 -0.45788061697E-01  0.87549151293E-01  0.51100000000E-03 0. -1.
</event>
<event>
 8    1  0.1120016E+005  0.1043930E+01  0.7957747E-01            NaN
         13   -1    0    0    0    0  0.00000000000E+00  0.00000000000E+00  0.74505805969E-08  0.10566000000E+00  0.10566000000E+00 0.  1.
     999900   -1    0    0    0    0 -0.00000000000E+00 -0.00000000000E+00 -0.74505805969E-08  0.93827000000E+00  0.93827000000E+00 0.  1.
     999902    2    1    2    0    0 -0.19737732954E-01 -0.10343708632E-01  0.84966316805E-02  0.10200812441E+01  0.10198024227E+01 0.  0.
     999903    2    3    3    0    0 -0.45425435743E-01 -0.11769745807E+00  0.35641676283E-01  0.13276983364E+00  0.21008041075E-01 0.  0.
         14    1    1    2    0    0  0.19737732954E-01  0.10343708632E-01 -0.84966316805E-02  0.23848755950E-01  0.00000000000E+00 0. -1.
     999901    1    3    3    0    0  0.25687702789E-01  0.10735374943E+00 -0.27145044603E-01  0.88731141041E+00  0.88000000000E+00 0.  1.
        -11    1    4    4    0    0 -0.37835442029E-01 -0.71183015762E-01  0.25571451809E-01  0.84573652370E-01  0.51100000000E-03 0.  1.
         11    1    4    4    0    0 -0.75899937140E-02 -0.46514442304E-01  0.10070224474E-01  0.48196181273E-01  0.51100000000E-03 0. -1.
</event>
<event>
 8    1  0.1120016E+005  0.1043930E+01  0.7957747E-01            NaN
         13   -1    0    0    0    0  0.00000000000E+00  0.00000000000E+00  0.74505805969E-08  0.10566000000E+00  0.10566000000E+00 0. -1.
     999900   -1    0    0    0    0 -0.00000000000E+00 -0.00000000000E+00 -0.74505805969E-08  0.93827000000E+00  0.93827000000E+00 0.  1.
     999902    2    1    2    0    0  0.31264812680E-02  0.17089879790E-01 -0.16344282256E-01  0.10200768149E+01  0.10197978887E+01 0.  0.
     999903    2    3    3    0    0  0.11141163044E+00  0.23302812665E-01 -0.63737973352E-01  0.13215202304E+00  0.21120025354E-01 0.  0.
         14    1    1    2    0    0 -0.31264812680E-02 -0.17089879790E-01  0.16344282256E-01  0.23853185088E-01  0.00000000000E+00 0. -1.
     999901    1    3    3    0    0 -0.10828514917E+00 -0.62129328748E-02  0.47393691096E-01  0.88792479187E+00  0.88000000000E+00 0. -1.
        -11    1    4    4    0    0  0.47623221908E-01  0.13103883008E-01 -0.39154648331E-01  0.63031980944E-01  0.51100000000E-03 0. -1.
         11    1    4    4    0    0  0.63788408532E-01  0.10198929657E-01 -0.24583325021E-01  0.69120042096E-01  0.51100000000E-03 0.  1.
</event>
<event>
 8    1  0.1120016E+005  0.1043930E+01  0.7957747E-01            NaN
         13   -1    0    0    0    0  0.00000000000E+00  0.00000000000E+00  0.74505805969E-08  0.10566000000E+00  0.10566000000E+00 0. -1.
     999900   -1    0    0    0    0 -0.00000000000E+00 -0.00000000000E+00 -0.74505805969E-08  0.93827000000E+00  0.93827000000E+00 0. -1.
     999902    2    1    2    0    0 -0.11035199236E-02 -0.45955242081E-02 -0.22007741685E-01  0.10214205066E+01  0.10211724507E+01 0.  0.
     999903    2    3    3    0    0  0.11894366930E+00  0.50566324503E-01  0.82492787815E-02  0.13104438131E+00  0.20000740828E-01 0.  0.
         14    1    1    2    0    0  0.11035199236E-02  0.45955242081E-02  0.22007741685E-01  0.22509493398E-01  0.00000000000E+00 0. -1.
     999901    1    3    3    0    0 -0.12004718922E+00 -0.55161848711E-01 -0.30257020466E-01  0.89037612529E+00  0.88000000000E+00 0. -1.
        -11    1    4    4    0    0  0.62474060842E-01  0.31596568842E-01  0.13278411391E-01  0.71259587220E-01  0.51100000000E-03 0. -1.
         11    1    4    4    0    0  0.56469608457E-01  0.18969755660E-01 -0.50291326098E-02  0.59784794094E-01  0.51100000000E-03 0.  1.
</event>
<event>
 8    1  0.1120016E+005  0.1043930E+01  0.7957747E-01            NaN
         13   -1    0    0    0    0  0.00000000000E+00  0.00000000000E+00  0.74505805969E-08  0.10566000000E+00  0.10566000000E+00 0. -1.
     999900   -1    0    0    0    0 -0.00000000000E+00 -0.00000000000E+00 -0.74505805969E-08  0.93827000000E+00  0.93827000000E+00 0.  1.
     999902    2    1    2    0    0  0.14268977055E-01 -0.10628490663E-01 -0.13356163371E-01  0.10216824019E+01  0.10214401474E+01 0.  0.
     999903    2    3    3    0    0 -0.77965101811E-01 -0.61666061363E-01 -0.85339825941E-01  0.13247286160E+00  0.19619198387E-01 0.  0.
         14    1    1    2    0    0 -0.14268977055E-01  0.10628490663E-01  0.13356163371E-01  0.22247598072E-01  0.00000000000E+00 0. -1.
     999901    1    3    3    0    0  0.92234078866E-01  0.51037570700E-01  0.71983662570E-01  0.88920954032E+00  0.88000000000E+00 0. -1.
        -11    1    4    4    0    0 -0.40039433257E-01 -0.27691306614E-01 -0.29606483266E-01  0.56980432167E-01  0.51100000000E-03 0. -1.
         11    1    4    4    0    0 -0.37925668554E-01 -0.33974754750E-01 -0.55733342675E-01  0.75492429437E-01  0.51100000000E-03 0.  1.
</event>
<event>
 8    1  0.1120016E+005  0.1043930E+01  0.7957747E-01            NaN
         13   -1    0    0    0    0  0.00000000000E+00  0.00000000000E+00  0.74505805969E-08  0.10566000000E+00  0.10566000000E+00 0.  1.
     999900   -1    0    0    0    0 -0.00000000000E+00 -0.00000000000E+00 -0.74505805969E-08  0.93827000000E+00  0.93827000000E+00 0. -1.
     999902    2    1    2    0    0 -0.25163753271E-02  0.17949211951E-01  0.16359937126E-01  0.10195137370E+01  0.10192213234E+01 0.  0.
     999903    2    3    3    0    0  0.73006449686E-01 -0.20307720932E-01 -0.10078997092E+00  0.12772262306E+00  0.20300368917E-01 0.  0.
         14    1    1    2    0    0  0.25163753271E-02 -0.17949211951E-01 -0.16359937126E-01  0.24416262966E-01  0.00000000000E+00 0. -1.
     999901    1    3    3    0    0 -0.75522825013E-01  0.38256932884E-01  0.11714990804E+00  0.89179111398E+00  0.88000000000E+00 0.  1.
        -11    1    4    4    0    0  0.28939092952E-01 -0.32038779725E-02 -0.53173399866E-01  0.60625139251E-01  0.51100000000E-03 0. -1.
         11    1    4    4    0    0  0.44067356734E-01 -0.17103842960E-01 -0.47616571051E-01  0.67097483807E-01  0.51100000000E-03 0.  1.
</event>
<event>
 8    1  0.1120016E+005  0.1043930E+01  0.7957747E-01            NaN
         13   -1    0    0    0    0  0.00000000000E+00  0.00000000000E+00  0.74505805969E-08  0.10566000000E+00  0.10566000000E+00 0. -1.
     999900   -1    0    0    0    0 -0.00000000000E+00 -0.00000000000E+00 -0.74505805969E-08  0.93827000000E+00  0.93827000000E+00 0. -1.
     999902    2    1    2    0    0  0.11350283899E-01 -0.12547855876E-01  0.16711882507E-01  0.10201483968E+01  0.10198711619E+01 0.  0.
     999903    2    3    3    0    0  0.78087157533E-01  0.18523558348E-01 -0.99174610921E-01  0.12950316869E+00  0.22242771029E-01 0.  0.
         14    1    1    2    0    0 -0.11350283899E-01  0.12547855876E-01 -0.16711882507E-01  0.23781603154E-01  0.00000000000E+00 0.  1.
     999901    1    3    3    0    0 -0.66736873633E-01 -0.31071414223E-01  0.11588649343E+00  0.89064522816E+00  0.88000000000E+00 0.  1.
        -11    1    4    4    0    0  0.40673307185E-01  0.17649613982E-01 -0.65866383909E-01  0.79400682877E-01  0.51100000000E-03 0. -1.
         11    1    4    4    0    0  0.37413850347E-01  0.87394436600E-03 -0.33308227012E-01  0.50102485809E-01  0.51100000000E-03 0.  1.
</event>
<event>
 8    1  0.1120016E+005  0.1043930E+01  0.7957747E-01            NaN
         13   -1    0    0    0    0  0.00000000000E+00  0.00000000000E+00  0.74505805969E-08  0.10566000000E+00  0.10566000000E+00 0. -1.
     999900   -1    0    0    0    0 -0.00000000000E+00 -0.00000000000E+00 -0.74505805969E-08  0.93827000000E+00  0.93827000000E+00 0. -1.
     999902    2    1    2    0    0  0.21816772739E-01  0.94876202130E-03 -0.76910783673E-02  0.10207777991E+01  0.10205152084E+01 0.  0.
     999903    2    3    3    0    0  0.95818414163E-01  0.24936680147E-01  0.86151005224E-01  0.13237586310E+00  0.17273300846E-01 0.  0.
         14    1    1    2    0    0 -0.21816772739E-01 -0.94876202130E-03  0.76910783673E-02  0.23152200944E-01  0.00000000000E+00 0.  1.
     999901    1    3    3    0    0 -0.74001641424E-01 -0.23987918126E-01 -0.93842083591E-01  0.88840193595E+00  0.88000000000E+00 0. -1.
        -11    1    4    4    0    0  0.75282867478E-01  0.12394134531E-01  0.62453933527E-01  0.98599592496E-01  0.51100000000E-03 0. -1.
         11    1    4    4    0    0  0.20535546685E-01  0.12542545616E-01  0.23697071697E-01  0.33776270608E-01  0.51100000000E-03 0.  1.
</event>
<event>
 8    1  0.1120016E+005  0.1043930E+01  0.7957747E-01            NaN
         13   -1    0    0    0    0  0.00000000000E+00  0.00000000000E+00  0.74505805969E-08  0.10566000000E+00  0.10566000000E+00 0.  1.
     999900   -1    0    0    0    0 -0.00000000000E+00 -0.00000000000E+00 -0.74505805969E-08  0.93827000000E+00  0.93827000000E+00 0. -1.
     999902    2    1    2    0    0 -0.30131631445E-02 -0.21869775228E-01 -0.73692181164E-02  0.10206561607E+01  0.10203907716E+01 0.  0.
     999903    2    3    3    0    0  0.10618116163E+00 -0.75538172288E-01 -0.10366764786E-01  0.13227972995E+00  0.20248520577E-01 0.  0.
         14    1    1    2    0    0  0.30131631445E-02  0.21869775228E-01  0.73692181164E-02  0.23273839312E-01  0.00000000000E+00 0. -1.
     999901    1    3    3    0    0 -0.10919432477E+00  0.53668397060E-01  0.29975466693E-02  0.88837643074E+00  0.88000000000E+00 0. -1.
        -11    1    4    4    0    0  0.20935540259E-01 -0.25565709078E-01 -0.18789012087E-02  0.33101264589E-01  0.51100000000E-03 0. -1.
         11    1    4    4    0    0  0.85245621371E-01 -0.49972463210E-01 -0.84878635769E-02  0.99178465361E-01  0.51100000000E-03 0.  1.
</event>
<event>
 8    1  0.1120016E+005  0.1043930E+01  0.7957747E-01            NaN
         13   -1    0    0    0    0  0.00000000000E+00  0.00000000000E+00  0.74505805969E-08  0.10566000000E+00  0.10566000000E+00 0.  1.
     999900   -1    0    0    0    0 -0.00000000000E+00 -0.00000000000E+00 -0.74505805969E-08  0.93827000000E+00  0.93827000000E+00 0. -1.
     999902    2    1    2    0    0 -0.44255570044E-02  0.17367082390E-01 -0.15133838351E-01  0.10204729292E+01  0.10202032960E+01 0.  0.
     999903    2    3    3    0    0  0.17086009921E-02 -0.23180351493E-01  0.12483066498E+00  0.12846856575E+00  0.19525098043E-01 0.  0.
         14    1    1    2    0    0  0.44255570044E-02 -0.17367082390E-01  0.15133838351E-01  0.23457070762E-01  0.00000000000E+00 0.  1.
     999901    1    3    3    0    0 -0.61341579964E-02  0.40547433882E-01 -0.13996450333E+00  0.89200436349E+00  0.88000000000E+00 0. -1.
        -11    1    4    4    0    0 -0.62556950867E-03  0.27366092636E-02  0.29862806482E-01  0.29998811634E-01  0.51100000000E-03 0.  1.
         11    1    4    4    0    0  0.23341705007E-02 -0.25916960756E-01  0.94967858499E-01  0.98469754116E-01  0.51100000000E-03 0. -1.
</event>
<event>
 8    1  0.1120016E+005  0.1043930E+01  0.7957747E-01            NaN
         13   -1    0    0    0    0  0.00000000000E+00  0.00000000000E+00  0.74505805969E-08  0.10566000000E+00  0.10566000000E+00 0. -1.
     999900   -1    0    0    0    0 -0.00000000000E+00 -0.00000000000E+00 -0.74505805969E-08  0.93827000000E+00  0.93827000000E+00 0.  1.
     999902    2    1    2    0    0  0.15841667931E-02  0.13411486137E-01  0.19236629734E-01  0.10204262669E+01  0.10201555473E+01 0.  0.
     999903    2    3    3    0    0  0.54163633700E-01  0.11681375418E+00 -0.20150502276E-01  0.13193992739E+00  0.20565731580E-01 0.  0.
         14    1    1    2    0    0 -0.15841667931E-02 -0.13411486137E-01 -0.19236629734E-01  0.23503733073E-01  0.00000000000E+00 0.  1.
     999901    1    3    3    0    0 -0.52579466907E-01 -0.10340226805E+00  0.39387132010E-01  0.88848633954E+00  0.88000000000E+00 0.  1.
        -11    1    4    4    0    0  0.80135318413E-04  0.14059080975E-01 -0.44966848865E-02  0.14769748661E-01  0.51100000000E-03 0.  1.
         11    1    4    4    0    0  0.54083498382E-01  0.10275467321E+00 -0.15653817390E-01  0.11717017873E+00  0.51100000000E-03 0. -1.
</event>
<event>
 8    1  0.1120016E+005  0.1043930E+01  0.7957747E-01            NaN
         13   -1    0    0    0    0  0.00000000000E+00  0.00000000000E+00  0.74505805969E-08  0.10566000000E+00  0.10566000000E+00 0. -1.
     999900   -1    0    0    0    0 -0.00000000000E+00 -0.00000000000E+00 -0.74505805969E-08  0.93827000000E+00  0.93827000000E+00 0. -1.
     999902    2    1    2    0    0 -0.11383980568E-01 -0.19928979824E-01 -0.26418546664E-03  0.10209772432E+01  0.10207192083E+01 0.  0.
     999903    2    3    3    0    0  0.65948877913E-01 -0.33591466003E-01 -0.10634264886E+00  0.13113474314E+00  0.20246501047E-01 0.  0.
         14    1    1    2    0    0  0.11383980568E-01  0.19928979824E-01  0.26418546664E-03  0.22952756793E-01  0.00000000000E+00 0.  1.
     999901    1    3    3    0    0 -0.77332858481E-01  0.13662486179E-01  0.10607846340E+00  0.88984250007E+00  0.88000000000E+00 0.  1.
        -11    1    4    4    0    0  0.35873021694E-01 -0.25518502398E-01 -0.74881134715E-01  0.86864912981E-01  0.51100000000E-03 0.  1.
         11    1    4    4    0    0  0.30075856219E-01 -0.80729636054E-02 -0.31461514150E-01  0.44269830159E-01  0.51100000000E-03 0. -1.
</event>
<event>
 8    1  0.1120016E+005  0.1043930E+01  0.7957747E-01            NaN
         13   -1    0    0    0    0  0.00000000000E+00  0.00000000000E+00  0.74505805969E-08  0.10566000000E+00  0.10566000000E+00 0. -1.
     999900   -1    0    0    0    0 -0.00000000000E+00 -0.00000000000E+00 -0.74505805969E-08  0.93827000000E+00  0.93827000000E+00 0. -1.
     999902    2    1    2    0    0 -0.53416678384E-02 -0.17825757324E-01  0.15094874072E-01  0.10199686506E+01  0.10196871589E+01 0.  0.
     999903    2    3    3    0    0  0.83811732492E-01 -0.93453229022E-01  0.35508918226E-01  0.13200211048E+00  0.20143519527E-01 0.  0.
         14    1    1    2    0    0  0.53416678384E-02  0.17825757324E-01 -0.15094874072E-01  0.23961349351E-01  0.00000000000E+00 0. -1.
     999901    1    3    3    0    0 -0.89153400330E-01  0.75627471697E-01 -0.20414044154E-01  0.88796654017E+00  0.88000000000E+00 0.  1.
        -11    1    4    4    0    0  0.61131718742E-01 -0.60567958768E-01  0.32312297020E-01  0.91923393787E-01  0.51100000000E-03 0.  1.
         11    1    4    4    0    0  0.22680013749E-01 -0.32885270254E-01  0.31966212062E-02  0.40078716690E-01  0.51100000000E-03 0. -1.
</event>
<event>
 8    1  0.1120016E+005  0.1043930E+01  0.7957747E-01            NaN
         13   -1    0    0    0    0  0.00000000000E+00  0.00000000000E+00  0.74505805969E-08  0.10566000000E+00  0.10566000000E+00 0.  1.
     999900   -1    0    0    0    0 -0.00000000000E+00 -0.00000000000E+00 -0.74505805969E-08  0.93827000000E+00  0.93827000000E+00 0. -1.
     999902    2    1    2    0    0 -0.81366793331E-02  0.11545977330E-01  0.17245637513E-01  0.10216381370E+01  0.10213949069E+01 0.  0.
     999903    2    3    3    0    0 -0.10385063097E-01 -0.12847852936E+00  0.26446515350E-02  0.13044505662E+00  0.19857909578E-01 0.  0.
         14    1    1    2    0    0  0.81366793331E-02 -0.11545977330E-01 -0.17245637513E-01  0.22291863007E-01  0.00000000000E+00 0.  1.
     999901    1    3    3    0    0  0.22483837637E-02  0.14002450670E+00  0.14600985978E-01  0.89119308037E+00  0.88000000000E+00 0.  1.
        -11    1    4    4    0    0 -0.16249478185E-01 -0.93662877748E-01  0.34522904510E-02  0.95126019782E-01  0.51100000000E-03 0.  1.
         11    1    4    4    0    0  0.58644150884E-02 -0.34815651617E-01 -0.80763891603E-03  0.35319036842E-01  0.51100000000E-03 0. -1.
</event>
<event>
 8    1  0.1120016E+005  0.1043930E+01  0.7957747E-01            NaN
         13   -1    0    0    0    0  0.00000000000E+00  0.00000000000E+00  0.74505805969E-08  0.10566000000E+00  0.10566000000E+00 0.  1.
     999900   -1    0    0    0    0 -0.00000000000E+00 -0.00000000000E+00 -0.74505805969E-08  0.93827000000E+00  0.93827000000E+00 0. -1.
     999902    2    1    2    0    0  0.19080988904E-01  0.23342163403E-02 -0.18162665163E-01  0.10174835426E+01  0.10171397860E+01 0.  0.
     999903    2    3    3    0    0 -0.50986865200E-01 -0.51944249768E-01  0.99437676525E-01  0.12524730906E+00  0.22386857925E-01 0.  0.
         14    1    1    2    0    0 -0.19080988904E-01 -0.23342163403E-02  0.18162665163E-01  0.26446457405E-01  0.00000000000E+00 0.  1.
     999901    1    3    3    0    0  0.70067854104E-01  0.54278466109E-01 -0.11760034169E+00  0.89223623353E+00  0.88000000000E+00 0. -1.
        -11    1    4    4    0    0 -0.29208920146E-01 -0.43921118744E-01  0.73004425843E-01  0.90067380341E-01  0.51100000000E-03 0. -1.
         11    1    4    4    0    0 -0.21777945054E-01 -0.80231310241E-02  0.26433250682E-01  0.35179928721E-01  0.51100000000E-03 0.  1.
</event>
<event>
 8    1  0.1120016E+005  0.1043930E+01  0.7957747E-01            NaN
         13   -1    0    0    0    0  0.00000000000E+00  0.00000000000E+00  0.74505805969E-08  0.10566000000E+00  0.10566000000E+00 0. -1.
     999900   -1    0    0    0    0 -0.00000000000E+00 -0.00000000000E+00 -0.74505805969E-08  0.93827000000E+00  0.93827000000E+00 0.  1.
     999902    2    1    2    0    0 -0.22344960759E-01  0.10963194585E-02 -0.17530737965E-01  0.10155077207E+01  0.10151098979E+01 0.  0.
     999903    2    3    3    0    0 -0.79242791038E-01 -0.28706608933E-01  0.92016849895E-01  0.12639228857E+00  0.20110211752E-01 0.  0.
         14    1    1    2    0    0  0.22344960759E-01 -0.10963194585E-02  0.17530737965E-01  0.28422279312E-01  0.00000000000E+00 0. -1.
     999901    1    3    3    0    0  0.56897830279E-01  0.29802928392E-01 -0.10954758786E+00  0.88911543212E+00  0.88000000000E+00 0.  1.
        -11    1    4    4    0    0 -0.23637532809E-01 -0.17959801596E-01  0.26590520227E-01  0.39857299427E-01  0.51100000000E-03 0. -1.
         11    1    4    4    0    0 -0.55605258228E-01 -0.10746807337E-01  0.65426329668E-01  0.86534989140E-01  0.51100000000E-03 0.  1.
</event>
<event>
 8    1  0.1120016E+005  0.1043930E+01  0.7957747E-01            NaN
         13   -1    0    0    0    0  0.00000000000E+00  0.00000000000E+00  0.74505805969E-08  0.10566000000E+00  0.10566000000E+00 0.  1.
     999900   -1    0    0    0    0 -0.00000000000E+00 -0.00000000000E+00 -0.74505805969E-08  0.93827000000E+00  0.93827000000E+00 0. -1.
     999902    2    1    2    0    0 -0.11489887333E-01  0.81512630562E-02 -0.19111000307E-01  0.10201878238E+01  0.10199115181E+01 0.  0.
     999903    2    3    3    0    0 -0.48915016286E-02 -0.12739244879E+00  0.87777778204E-02  0.12934921858E+00  0.20035173260E-01 0.  0.
         14    1    1    2    0    0  0.11489887333E-01 -0.81512630562E-02  0.19111000307E-01  0.23742176250E-01  0.00000000000E+00 0.  1.
     999901    1    3    3    0    0 -0.65983857046E-02  0.13554371184E+00 -0.27888778128E-01  0.89083860517E+00  0.88000000000E+00 0. -1.
        -11    1    4    4    0    0  0.17532719901E-02 -0.11266270660E+00  0.10092623001E-01  0.11312860637E+00  0.51100000000E-03 0.  1.
         11    1    4    4    0    0 -0.66447736187E-02 -0.14729742192E-01 -0.13148451807E-02  0.16220612206E-01  0.51100000000E-03 0. -1.
</event>
<event>
 8    1  0.1120016E+005  0.1043930E+01  0.7957747E-01            NaN
         13   -1    0    0    0    0  0.00000000000E+00  0.00000000000E+00  0.74505805969E-08  0.10566000000E+00  0.10566000000E+00 0.  1.
     999900   -1    0    0    0    0 -0.00000000000E+00 -0.00000000000E+00 -0.74505805969E-08  0.93827000000E+00  0.93827000000E+00 0.  1.
     999902    2    1    2    0    0 -0.20360100886E-01 -0.42151573252E-02 -0.42028946928E-02  0.10227176078E+01  0.10224975989E+01 0.  0.
     999903    2    3    3    0    0 -0.27192939379E-01 -0.53604535208E-02  0.12818142432E+00  0.13278861776E+00  0.20836243673E-01 0.  0.
         14    1    1    2    0    0  0.20360100886E-01  0.42151573252E-02  0.42028946928E-02  0.21212392207E-01  0.00000000000E+00 0.  1.
     999901    1    3    3    0    0  0.68328384936E-02  0.11452961956E-02 -0.13238431902E+00  0.88992899004E+00  0.88000000000E+00 0.  1.
        -11    1    4    4    0    0 -0.23842806561E-01 -0.57397044492E-02  0.64356519642E-01  0.68872682344E-01  0.51100000000E-03 0.  1.
         11    1    4    4    0    0 -0.33501328176E-02  0.37925092838E-03  0.63824904681E-01  0.63915935413E-01  0.51100000000E-03 0. -1.
</event>
<event>
 8    1  0.1154389E+005  0.1043930E+01  0.7957747E-01            NaN
         13   -1    0    0    0    0  0.00000000000E+00  0.00000000000E+00  0.74505805969E-08  0.10566000000E+00  0.10566000000E+00 0.  1.
     999900   -1    0    0    0    0 -0.00000000000E+00 -0.00000000000E+00 -0.74505805969E-08  0.93827000000E+00  0.93827000000E+00 0. -1.
     999902    2    1    2    0    0 -0.25178485135E-02 -0.20301465009E-01 -0.12537914811E-01  0.10199364936E+01  0.10196542368E+01 0.  0.
     999903    2    3    3    0    0 -0.91396308710E-01  0.58415216391E-01 -0.69087739018E-01  0.13016484915E+00  0.20103470315E-01 0.  0.
         14    1    1    2    0    0  0.25178485135E-02  0.20301465009E-01  0.12537914811E-01  0.23993506422E-01  0.00000000000E+00 0.  1.
     999901    1    3    3    0    0  0.88878460196E-01 -0.78716681400E-01  0.56549824207E-01  0.88977164443E+00  0.88000000000E+00 0. -1.
        -11    1    4    4    0    0 -0.37248785165E-01  0.32681136636E-01 -0.23489152734E-01  0.54840952811E-01  0.51100000000E-03 0. -1.
         11    1    4    4    0    0 -0.54147523545E-01  0.25734079755E-01 -0.45598586284E-01  0.75323896334E-01  0.51100000000E-03 0.  1.
</event>
<event>
 8    1  0.1120016E+005  0.1043930E+01  0.7957747E-01            NaN
         13   -1    0    0    0    0  0.00000000000E+00  0.00000000000E+00  0.74505805969E-08  0.10566000000E+00  0.10566000000E+00 0.  1.
     999900   -1    0    0    0    0 -0.00000000000E+00 -0.00000000000E+00 -0.74505805969E-08  0.93827000000E+00  0.93827000000E+00 0. -1.
     999902    2    1    2    0    0 -0.10256632200E-01 -0.21374488663E-01  0.53381431778E-02  0.10196284971E+01  0.10193388588E+01 0.  0.
     999903    2    3    3    0    0 -0.11368593177E+00 -0.59069901843E-01 -0.25588415863E-01  0.13223060652E+00  0.20406417835E-01 0.  0.
         14    1    1    2    0    0  0.10256632200E-01  0.21374488663E-01 -0.53381431778E-02  0.24301502881E-01  0.00000000000E+00 0. -1.
     999901    1    3    3    0    0  0.10342929957E+00  0.37695413181E-01  0.30926559040E-01  0.88739789060E+00  0.88000000000E+00 0.  1.
        -11    1    4    4    0    0 -0.24358379727E-01 -0.14106565523E-01 -0.14335532799E-01  0.31592633246E-01  0.51100000000E-03 0.  1.
         11    1    4    4    0    0 -0.89327552041E-01 -0.44963336320E-01 -0.11252883064E-01  0.10063797328E+00  0.51100000000E-03 0. -1.
</event>
<event>
 8    1  0.1120016E+005  0.1043930E+01  0.7957747E-01            NaN
         13   -1    0    0    0    0  0.00000000000E+00  0.00000000000E+00  0.74505805969E-08  0.10566000000E+00  0.10566000000E+00 0.  1.
     999900   -1    0    0    0    0 -0.00000000000E+00 -0.00000000000E+00 -0.74505805969E-08  0.93827000000E+00  0.93827000000E+00 0. -1.
     999902    2    1    2    0    0 -0.11787493552E-01 -0.12802396015E-01  0.16557688584E-01  0.10199091049E+01  0.10196261957E+01 0.  0.
     999903    2    3    3    0    0 -0.52532085142E-02  0.93731289108E-01 -0.84051786690E-01  0.12776876315E+00  0.21142450971E-01 0.  0.
         14    1    1    2    0    0  0.11787493552E-01  0.12802396015E-01 -0.16557688584E-01  0.24020895055E-01  0.00000000000E+00 0.  1.
     999901    1    3    3    0    0 -0.65342850382E-02 -0.10653368512E+00  0.10060947527E+00  0.89214034180E+00  0.88000000000E+00 0.  1.
        -11    1    4    4    0    0 -0.55753765904E-02  0.73082468603E-01 -0.52910087770E-01  0.90398399046E-01  0.51100000000E-03 0. -1.
         11    1    4    4    0    0  0.32216807621E-03  0.20648820506E-01 -0.31141698919E-01  0.37370364102E-01  0.51100000000E-03 0.  1.
</event>
<event>
 8    1  0.1120016E+005  0.1043930E+01  0.7957747E-01            NaN
         13   -1    0    0    0    0  0.00000000000E+00  0.00000000000E+00  0.74505805969E-08  0.10566000000E+00  0.10566000000E+00 0. -1.
     999900   -1    0    0    0    0 -0.00000000000E+00 -0.00000000000E+00 -0.74505805969E-08  0.93827000000E+00  0.93827000000E+00 0. -1.
     999902    2    1    2    0    0 -0.95512313487E-02 -0.21544770979E-01 -0.11153894101E-02  0.10203366266E+01  0.10200638138E+01 0.  0.
     999903    2    3    3    0    0 -0.44898899868E-01  0.41590743549E-01  0.11266572770E+00  0.13006605338E+00  0.21861172960E-01 0.  0.
         14    1    1    2    0    0  0.95512313487E-02  0.21544770979E-01  0.11153894101E-02  0.23593373441E-01  0.00000000000E+00 0.  1.
     999901    1    3    3    0    0  0.35347668519E-01 -0.63135514527E-01 -0.11378111711E+00  0.89027057318E+00  0.88000000000E+00 0. -1.
        -11    1    4    4    0    0 -0.11227733746E-01  0.22008294967E-01  0.56973283553E-01  0.62101877687E-01  0.51100000000E-03 0. -1.
         11    1    4    4    0    0 -0.33671166121E-01  0.19582448582E-01  0.55692444152E-01  0.67964175689E-01  0.51100000000E-03 0.  1.
</event>
<event>
 8    1  0.1120016E+005  0.1043930E+01  0.7957747E-01            NaN
         13   -1    0    0    0    0  0.00000000000E+00  0.00000000000E+00  0.74505805969E-08  0.10566000000E+00  0.10566000000E+00 0.  1.
     999900   -1    0    0    0    0 -0.00000000000E+00 -0.00000000000E+00 -0.74505805969E-08  0.93827000000E+00  0.93827000000E+00 0.  1.
     999902    2    1    2    0    0  0.36352808251E-02 -0.15857778635E-01  0.16786720065E-01  0.10205531230E+01  0.10202853515E+01 0.  0.
     999903    2    3    3    0    0 -0.95746608107E-01 -0.49438826298E-01  0.74259676471E-01  0.13246101775E+00  0.20489293874E-01 0.  0.
         14    1    1    2    0    0 -0.36352808251E-02  0.15857778635E-01 -0.16786720065E-01  0.23376877047E-01  0.00000000000E+00 0. -1.
     999901    1    3    3    0    0  0.99381888933E-01  0.33581047663E-01 -0.57472956406E-01  0.88809210521E+00  0.88000000000E+00 0.  1.
        -11    1    4    4    0    0 -0.53068255374E-01 -0.38671707065E-01  0.44971641145E-01  0.79589259853E-01  0.51100000000E-03 0.  1.
         11    1    4    4    0    0 -0.42678352733E-01 -0.10767119233E-01  0.29288035326E-01  0.52871757895E-01  0.51100000000E-03 0. -1.
</event>
<event>
 8    1  0.1120016E+005  0.1043930E+01  0.7957747E-01            NaN
         13   -1    0    0    0    0  0.00000000000E+00  0.00000000000E+00  0.74505805969E-08  0.10566000000E+00  0.10566000000E+00 0.  1.
     999900   -1    0    0    0    0 -0.00000000000E+00 -0.00000000000E+00 -0.74505805969E-08  0.93827000000E+00  0.93827000000E+00 0. -1.
     999902    2    1    2    0    0  0.12434617506E-01  0.73397677681E-02 -0.18530771349E-01  0.10204378441E+01  0.10201673942E+01 0.  0.
     999903    2    3    3    0    0  0.81165038028E-01 -0.98375760767E-01  0.21066892633E-01  0.13056840496E+00  0.18404909746E-01 0.  0.
         14    1    1    2    0    0 -0.12434617506E-01 -0.73397677681E-02  0.18530771349E-01  0.23492155929E-01  0.00000000000E+00 0.  1.
     999901    1    3    3    0    0 -0.68730420523E-01  0.10571552854E+00 -0.39597663982E-01  0.88986943912E+00  0.88000000000E+00 0. -1.
        -11    1    4    4    0    0  0.43605288667E-01 -0.42192573972E-01  0.16231199173E-01  0.62812000810E-01  0.51100000000E-03 0.  1.
         11    1    4    4    0    0  0.37559749362E-01 -0.56183186795E-01  0.48356934606E-02  0.67756404146E-01  0.51100000000E-03 0. -1.
</event>
<event>
 8    1  0.1120016E+005  0.1043930E+01  0.7957747E-01            NaN
         13   -1    0    0    0    0  0.00000000000E+00  0.00000000000E+00  0.74505805969E-08  0.10566000000E+00  0.10566000000E+00 0. -1.
     999900   -1    0    0    0    0 -0.00000000000E+00 -0.00000000000E+00 -0.74505805969E-08  0.93827000000E+00  0.93827000000E+00 0.  1.
     999902    2    1    2    0    0  0.18047315413E-01 -0.19127433335E-01  0.33122696962E-02  0.10174246151E+01  0.10170793046E+01 0.  0.
     999903    2    3    3    0    0 -0.14734213491E-01 -0.76562806539E-01 -0.10048476940E+00  0.12885988695E+00  0.20705583589E-01 0.  0.
         14    1    1    2    0    0 -0.18047315413E-01  0.19127433335E-01 -0.33122696962E-02  0.26505384928E-01  0.00000000000E+00 0.  1.
     999901    1    3    3    0    0  0.32781528904E-01  0.57435373204E-01  0.10379703910E+00  0.88856472812E+00  0.88000000000E+00 0. -1.
        -11    1    4    4    0    0 -0.11302788645E-01 -0.26096316675E-01 -0.24299207173E-01  0.37409669410E-01  0.51100000000E-03 0. -1.
         11    1    4    4    0    0 -0.34314248453E-02 -0.50466489864E-01 -0.76185562228E-01  0.91450217543E-01  0.51100000000E-03 0.  1.
</event>
<event>
 8    1  0.1120016E+005  0.1043930E+01  0.7957747E-01            NaN
         13   -1    0    0    0    0  0.00000000000E+00  0.00000000000E+00  0.74505805969E-08  0.10566000000E+00  0.10566000000E+00 0.  1.
     999900   -1    0    0    0    0 -0.00000000000E+00 -0.00000000000E+00 -0.74505805969E-08  0.93827000000E+00  0.93827000000E+00 0.  1.
     999902    2    1    2    0    0  0.18268568527E-01 -0.33217704837E-02 -0.14985487764E-01  0.10200691618E+01  0.10197900545E+01 0.  0.
     999903    2    3    3    0    0 -0.80583809640E-01 -0.80566931060E-01  0.55908537885E-01  0.12834915510E+00  0.19051515716E-01 0.  0.
         14    1    1    2    0    0 -0.18268568527E-01  0.33217704837E-02  0.14985487764E-01  0.23860838181E-01  0.00000000000E+00 0.  1.
     999901    1    3    3    0    0  0.98852378167E-01  0.77245160576E-01 -0.70894025649E-01  0.89172000671E+00  0.88000000000E+00 0.  1.
        -11    1    4    4    0    0 -0.37621939199E-01 -0.50400289646E-01  0.33602298940E-01  0.71309011496E-01  0.51100000000E-03 0. -1.
         11    1    4    4    0    0 -0.42961870441E-01 -0.30166641413E-01  0.22306238945E-01  0.57040143608E-01  0.51100000000E-03 0.  1.
</event>
<event>
 8    1  0.1120016E+005  0.1043930E+01  0.7957747E-01            NaN
         13   -1    0    0    0    0  0.00000000000E+00  0.00000000000E+00  0.74505805969E-08  0.10566000000E+00  0.10566000000E+00 0. -1.
     999900   -1    0    0    0    0 -0.00000000000E+00 -0.00000000000E+00 -0.74505805969E-08  0.93827000000E+00  0.93827000000E+00 0. -1.
     999902    2    1    2    0    0  0.12850006293E-01  0.18453475075E-01  0.73207221886E-02  0.10202816094E+01  0.10200075079E+01 0.  0.
     999903    2    3    3    0    0 -0.64366385101E-01 -0.75458189131E-01  0.79742601464E-01  0.12897543285E+00  0.20947791137E-01 0.  0.
         14    1    1    2    0    0 -0.12850006293E-01 -0.18453475075E-01 -0.73207221886E-02  0.23648390589E-01  0.00000000000E+00 0. -1.
     999901    1    3    3    0    0  0.77216391393E-01  0.93911664206E-01 -0.72421879275E-01  0.89130617656E+00  0.88000000000E+00 0. -1.
        -11    1    4    4    0    0 -0.17588785389E-01 -0.23052103906E-01  0.11999906809E-01  0.31385088026E-01  0.51100000000E-03 0.  1.
         11    1    4    4    0    0 -0.46777599712E-01 -0.52406085225E-01  0.67742694655E-01  0.97590344827E-01  0.51100000000E-03 0. -1.
</event>
<event>
 8    1  0.1120016E+005  0.1043930E+01  0.7957747E-01            NaN
         13   -1    0    0    0    0  0.00000000000E+00  0.00000000000E+00  0.74505805969E-08  0.10566000000E+00  0.10566000000E+00 0.  1.
     999900   -1    0    0    0    0 -0.00000000000E+00 -0.00000000000E+00 -0.74505805969E-08  0.93827000000E+00  0.93827000000E+00 0.  1.
     999902    2    1    2    0    0  0.17574464432E-02  0.20935922581E-01 -0.99403361688E-02  0.10206875441E+01  0.10204228785E+01 0.  0.
     999903    2    3    3    0    0 -0.50522524134E-02  0.97680836328E-01  0.86496705097E-01  0.13207274753E+00  0.19861007212E-01 0.  0.
         14    1    1    2    0    0 -0.17574464432E-02 -0.20935922581E-01  0.99403361688E-02  0.23242455883E-01  0.00000000000E+00 0.  1.
     999901    1    3    3    0    0  0.68096988566E-02 -0.76744913747E-01 -0.96437041266E-01  0.88861479659E+00  0.88000000000E+00 0.  1.
        -11    1    4    4    0    0  0.72777604440E-02  0.32129670902E-01  0.32131563298E-01  0.46021517036E-01  0.51100000000E-03 0. -1.
         11    1    4    4    0    0 -0.12330012857E-01  0.65551165426E-01  0.54365141800E-01  0.86051230495E-01  0.51100000000E-03 0.  1.
</event>
<event>
 8    1  0.1120016E+005  0.1043930E+01  0.7957747E-01            NaN
         13   -1    0    0    0    0  0.00000000000E+00  0.00000000000E+00  0.74505805969E-08  0.10566000000E+00  0.10566000000E+00 0.  1.
     999900   -1    0    0    0    0 -0.00000000000E+00 -0.00000000000E+00 -0.74505805969E-08  0.93827000000E+00  0.93827000000E+00 0.  1.
     999902    2    1    2    0    0 -0.18001196076E-02  0.69219513750E-02  0.21252863113E-01  0.10215059497E+01  0.10212597942E+01 0.  0.
     999903    2    3    3    0    0 -0.20695612094E-01 -0.63702676835E-01 -0.10858014790E+00  0.12898060636E+00  0.18973900595E-01 0.  0.
         14    1    1    2    0    0  0.18001196076E-02 -0.69219513750E-02 -0.21252863113E-01  0.22424050302E-01  0.00000000000E+00 0. -1.
     999901    1    3    3    0    0  0.18895492486E-01  0.70624628210E-01  0.12983301101E+00  0.89252534333E+00  0.88000000000E+00 0. -1.
        -11    1    4    4    0    0 -0.64382793820E-02 -0.15214548854E-01 -0.43804306890E-01  0.46818931656E-01  0.51100000000E-03 0.  1.
         11    1    4    4    0    0 -0.14257332712E-01 -0.48488127981E-01 -0.64775841010E-01  0.82161674707E-01  0.51100000000E-03 0. -1.
</event>
<event>
 8    1  0.1120016E+005  0.1043930E+01  0.7957747E-01            NaN
         13   -1    0    0    0    0  0.00000000000E+00  0.00000000000E+00  0.74505805969E-08  0.10566000000E+00  0.10566000000E+00 0.  1.
     999900   -1    0    0    0    0 -0.00000000000E+00 -0.00000000000E+00 -0.74505805969E-08  0.93827000000E+00  0.93827000000E+00 0.  1.
     999902    2    1    2    0    0 -0.19063880980E-01 -0.10403396260E-01 -0.42511216735E-02  0.10218000599E+01  0.10215603889E+01 0.  0.
     999903    2    3    3    0    0 -0.10504186640E+00 -0.42897572037E-01 -0.69640635112E-01  0.13460004083E+00  0.19833243509E-01 0.  0.
         14    1    1    2    0    0  0.19063880980E-01  0.10403396260E-01  0.42511216735E-02  0.22129940064E-01  0.00000000000E+00 0.  1.
     999901    1    3    3    0    0  0.85977985422E-01  0.32494175777E-01  0.65389513439E-01  0.88720001911E+00  0.88000000000E+00 0. -1.
        -11    1    4    4    0    0 -0.44918955079E-01 -0.28966850516E-01 -0.33396502969E-01  0.63026807676E-01  0.51100000000E-03 0. -1.
         11    1    4    4    0    0 -0.60122911323E-01 -0.13930721521E-01 -0.36244132143E-01  0.71573233152E-01  0.51100000000E-03 0.  1.
</event>
<event>
 8    1  0.1120016E+005  0.1043930E+01  0.7957747E-01            NaN
         13   -1    0    0    0    0  0.00000000000E+00  0.00000000000E+00  0.74505805969E-08  0.10566000000E+00  0.10566000000E+00 0. -1.
     999900   -1    0    0    0    0 -0.00000000000E+00 -0.00000000000E+00 -0.74505805969E-08  0.93827000000E+00  0.93827000000E+00 0. -1.
     999902    2    1    2    0    0  0.46096813749E-02 -0.22566485169E-01 -0.23098289437E-02  0.10207819823E+01  0.10205194876E+01 0.  0.
     999903    2    3    3    0    0  0.17013090872E-01  0.85077137762E-01  0.93254436683E-01  0.12900088637E+00  0.20427287961E-01 0.  0.
         14    1    1    2    0    0 -0.46096813749E-02  0.22566485169E-01  0.23098289437E-02  0.23148017734E-01  0.00000000000E+00 0.  1.
     999901    1    3    3    0    0 -0.12403409497E-01 -0.10764362293E+00 -0.95564265627E-01  0.89178109589E+00  0.88000000000E+00 0. -1.
        -11    1    4    4    0    0  0.12607153585E-01  0.18781548821E-01  0.21597926811E-01  0.31279681283E-01  0.51100000000E-03 0.  1.
         11    1    4    4    0    0  0.44059372864E-02  0.66295588941E-01  0.71656509872E-01  0.97721205091E-01  0.51100000000E-03 0. -1.
</event>
<event>
 8    1  0.1120016E+005  0.1043930E+01  0.7957747E-01            NaN
         13   -1    0    0    0    0  0.00000000000E+00  0.00000000000E+00  0.74505805969E-08  0.10566000000E+00  0.10566000000E+00 0. -1.
     999900   -1    0    0    0    0 -0.00000000000E+00 -0.00000000000E+00 -0.74505805969E-08  0.93827000000E+00  0.93827000000E+00 0.  1.
     999902    2    1    2    0    0  0.13855669585E-01 -0.25503237493E-02  0.19364948395E-01  0.10199824540E+01  0.10197012904E+01 0.  0.
     999903    2    3    3    0    0  0.31609501251E-01 -0.93879891989E-01 -0.80685701377E-01  0.12943968635E+00  0.20781128623E-01 0.  0.
         14    1    1    2    0    0 -0.13855669585E-01  0.25503237493E-02 -0.19364948395E-01  0.23947545954E-01  0.00000000000E+00 0.  1.
     999901    1    3    3    0    0 -0.17753831666E-01  0.91329568239E-01  0.10005064977E+00  0.89054276769E+00  0.88000000000E+00 0. -1.
        -11    1    4    4    0    0  0.46591484524E-02 -0.19403316598E-01 -0.67020770392E-02  0.21056479216E-01  0.51100000000E-03 0.  1.
         11    1    4    4    0    0  0.26950352798E-01 -0.74476575390E-01 -0.73983624337E-01  0.10838320714E+00  0.51100000000E-03 0. -1.
</event>
<event>
 8    1  0.1120016E+005  0.1043930E+01  0.7957747E-01            NaN
         13   -1    0    0    0    0  0.00000000000E+00  0.00000000000E+00  0.74505805969E-08  0.10566000000E+00  0.10566000000E+00 0. -1.
     999900   -1    0    0    0    0 -0.00000000000E+00 -0.00000000000E+00 -0.74505805969E-08  0.93827000000E+00  0.93827000000E+00 0. -1.
     999902    2    1    2    0    0  0.32405709874E-02 -0.17602462410E-01 -0.16203951589E-01  0.10197863460E+01  0.10195005029E+01 0.  0.
     999903    2    3    3    0    0  0.43604707485E-02 -0.10844956957E+00  0.71368294171E-01  0.13078502466E+00  0.15197579293E-01 0.  0.
         14    1    1    2    0    0 -0.32405709874E-02  0.17602462410E-01  0.16203951589E-01  0.24143654039E-01  0.00000000000E+00 0. -1.
     999901    1    3    3    0    0 -0.11198997611E-02  0.90847107160E-01 -0.87572245761E-01  0.88900132131E+00  0.88000000000E+00 0. -1.
        -11    1    4    4    0    0  0.63943540892E-02 -0.21946240855E-01  0.18229904899E-01  0.29242363200E-01  0.51100000000E-03 0.  1.
         11    1    4    4    0    0 -0.20338833406E-02 -0.86503328715E-01  0.53138389272E-01  0.10154266146E+00  0.51100000000E-03 0. -1.
</event>
<event>
 8    1  0.1120016E+005  0.1043930E+01  0.7957747E-01            NaN
         13   -1    0    0    0    0  0.00000000000E+00  0.00000000000E+00  0.74505805969E-08  0.10566000000E+00  0.10566000000E+00 0.  1.
     999900   -1    0    0    0    0 -0.00000000000E+00 -0.00000000000E+00 -0.74505805969E-08  0.93827000000E+00  0.93827000000E+00 0.  1.
     999902    2    1    2    0    0  0.17658910018E-01 -0.14662064731E-01 -0.63144778389E-02  0.10201248351E+01  0.10198470441E+01 0.  0.
     999903    2    3    3    0    0  0.10205895659E+00  0.72035239209E-01  0.32718825160E-01  0.13098851872E+00  0.21962791451E-01 0.  0.
         14    1    1    2    0    0 -0.17658910018E-01  0.14662064731E-01  0.63144778389E-02  0.23805164893E-01  0.00000000000E+00 0.  1.
     999901    1    3    3    0    0 -0.84400046574E-01 -0.86697303940E-01 -0.39033302999E-01  0.88913631639E+00  0.88000000000E+00 0. -1.
        -11    1    4    4    0    0  0.77654770399E-02  0.11891517320E-01 -0.79094387522E-03  0.14233675950E-01  0.51100000000E-03 0. -1.
         11    1    4    4    0    0  0.94293479553E-01  0.60143721889E-01  0.33509769035E-01  0.11675484277E+00  0.51100000000E-03 0.  1.
</event>
<event>
 8    1  0.1120016E+005  0.1043930E+01  0.7957747E-01            NaN
         13   -1    0    0    0    0  0.00000000000E+00  0.00000000000E+00  0.74505805969E-08  0.10566000000E+00  0.10566000000E+00 0.  1.
     999900   -1    0    0    0    0 -0.00000000000E+00 -0.00000000000E+00 -0.74505805969E-08  0.93827000000E+00  0.93827000000E+00 0. -1.
     999902    2    1    2    0    0  0.28647561530E-02 -0.23781175786E-01  0.32518165605E-02  0.10197571752E+01  0.10194706327E+01 0.  0.
     999903    2    3    3    0    0  0.49447267885E-01 -0.62613769742E-01  0.10315364669E+00  0.13203071030E+00  0.20637760920E-01 0.  0.
         14    1    1    2    0    0 -0.28647561530E-02  0.23781175786E-01 -0.32518165605E-02  0.24172824836E-01  0.00000000000E+00 0. -1.
     999901    1    3    3    0    0 -0.46582511732E-01  0.38832593956E-01 -0.99901830126E-01  0.88772646486E+00  0.88000000000E+00 0.  1.
        -11    1    4    4    0    0  0.32474672645E-01 -0.32122720939E-01  0.71886282042E-01  0.85172602583E-01  0.51100000000E-03 0.  1.
         11    1    4    4    0    0  0.16972595239E-01 -0.30491048803E-01  0.31267364645E-01  0.46858107720E-01  0.51100000000E-03 0. -1.
</event>
<event>
 8    1  0.1120016E+005  0.1043930E+01  0.7957747E-01            NaN
         13   -1    0    0    0    0  0.00000000000E+00  0.00000000000E+00  0.74505805969E-08  0.10566000000E+00  0.10566000000E+00 0.  1.
     999900   -1    0    0    0    0 -0.00000000000E+00 -0.00000000000E+00 -0.74505805969E-08  0.93827000000E+00  0.93827000000E+00 0. -1.
     999902    2    1    2    0    0  0.66667622983E-02  0.15845955113E-01  0.15751335150E-01  0.10206138131E+01  0.10203474462E+01 0.  0.
     999903    2    3    3    0    0 -0.24226538021E-01 -0.74706740169E-01  0.10266314701E+00  0.13117137557E+00  0.22320077123E-01 0.  0.
         14    1    1    2    0    0 -0.66667622983E-02 -0.15845955113E-01 -0.15751335150E-01  0.23316186909E-01  0.00000000000E+00 0. -1.
     999901    1    3    3    0    0  0.30893300319E-01  0.90552695282E-01 -0.86911811862E-01  0.88944243752E+00  0.88000000000E+00 0. -1.
        -11    1    4    4    0    0 -0.16736954088E-02 -0.19676586498E-01  0.40941436205E-01  0.45458020547E-01  0.51100000000E-03 0.  1.
         11    1    4    4    0    0 -0.22552842612E-01 -0.55030153671E-01  0.61721710807E-01  0.85713355021E-01  0.51100000000E-03 0. -1.
</event>
<event>
 8    1  0.1120016E+005  0.1043930E+01  0.7957747E-01            NaN
         13   -1    0    0    0    0  0.00000000000E+00  0.00000000000E+00  0.74505805969E-08  0.10566000000E+00  0.10566000000E+00 0. -1.
     999900   -1    0    0    0    0 -0.00000000000E+00 -0.00000000000E+00 -0.74505805969E-08  0.93827000000E+00  0.93827000000E+00 0.  1.
     999902    2    1    2    0    0  0.89781793286E-02  0.17637329891E-01 -0.12780640574E-01  0.10203709702E+01  0.10200989604E+01 0.  0.
     999903    2    3    3    0    0  0.60693314702E-01  0.10123409728E+00 -0.59468815708E-01  0.13366771636E+00  0.19962400997E-01 0.  0.
         14    1    1    2    0    0 -0.89781793286E-02 -0.17637329891E-01  0.12780640574E-01  0.23559029760E-01  0.00000000000E+00 0.  1.
     999901    1    3    3    0    0 -0.51715135374E-01 -0.83596767389E-01  0.46688175134E-01  0.88670325388E+00  0.88000000000E+00 0.  1.
        -11    1    4    4    0    0  0.28463932903E-01  0.30236937473E-01 -0.24454711749E-01  0.48195040323E-01  0.51100000000E-03 0.  1.
         11    1    4    4    0    0  0.32229381800E-01  0.70997159807E-01 -0.35014103959E-01  0.85472676037E-01  0.51100000000E-03 0. -1.
</event>
<event>
 8    1  0.1296984E+005  0.1043930E+01  0.7957747E-01            NaN
         13   -1    0    0    0    0  0.00000000000E+00  0.00000000000E+00  0.74505805969E-08  0.10566000000E+00  0.10566000000E+00 0.  1.
     999900   -1    0    0    0    0 -0.00000000000E+00 -0.00000000000E+00 -0.74505805969E-08  0.93827000000E+00  0.93827000000E+00 0. -1.
     999902    2    1    2    0    0 -0.63416645170E-02  0.22892705464E-01 -0.25020993744E-02  0.10200437451E+01  0.10197640358E+01 0.  0.
     999903    2    3    3    0    0  0.14797909042E-01 -0.11038552085E+00  0.58769317407E-01  0.12765136856E+00  0.20906886452E-01 0.  0.
         14    1    1    2    0    0  0.63416645170E-02 -0.22892705464E-01  0.25020993744E-02  0.23886254909E-01  0.00000000000E+00 0. -1.
     999901    1    3    3    0    0 -0.21139573559E-01  0.13327822631E+00 -0.61271416781E-01  0.89239237653E+00  0.88000000000E+00 0.  1.
        -11    1    4    4    0    0 -0.36250852858E-02 -0.50875140723E-01  0.25505315496E-01  0.57028093309E-01  0.51100000000E-03 0. -1.
         11    1    4    4    0    0  0.18422994328E-01 -0.59510380126E-01  0.33264001911E-01  0.70623275249E-01  0.51100000000E-03 0.  1.
</event>
<event>
 8    1  0.1120016E+005  0.1043930E+01  0.7957747E-01            NaN
         13   -1    0    0    0    0  0.00000000000E+00  0.00000000000E+00  0.74505805969E-08  0.10566000000E+00  0.10566000000E+00 0. -1.
     999900   -1    0    0    0    0 -0.00000000000E+00 -0.00000000000E+00 -0.74505805969E-08  0.93827000000E+00  0.93827000000E+00 0. -1.
     999902    2    1    2    0    0 -0.20978569128E-01 -0.16525408091E-01 -0.32845592056E-02  0.10170231644E+01  0.10166671722E+01 0.  0.
     999903    2    3    3    0    0 -0.19737777074E-01 -0.12400162001E+00  0.26510628796E-01  0.12998290094E+00  0.20658157938E-01 0.  0.
         14    1    1    2    0    0  0.20978569128E-01  0.16525408091E-01  0.32845592056E-02  0.26906835645E-01  0.00000000000E+00 0. -1.
     999901    1    3    3    0    0 -0.12407920545E-02  0.10747621192E+00 -0.29795188002E-01  0.88704026342E+00  0.88000000000E+00 0.  1.
        -11    1    4    4    0    0 -0.97629652387E-02 -0.10611773211E+00  0.24888421746E-01  0.10943483548E+00  0.51100000000E-03 0. -1.
         11    1    4    4    0    0 -0.99748118350E-02 -0.17883887901E-01  0.16222070497E-02  0.20548065464E-01  0.51100000000E-03 0.  1.
</event>
<event>
 8    1  0.1120016E+005  0.1043930E+01  0.7957747E-01            NaN
         13   -1    0    0    0    0  0.00000000000E+00  0.00000000000E+00  0.74505805969E-08  0.10566000000E+00  0.10566000000E+00 0.  1.
     999900   -1    0    0    0    0 -0.00000000000E+00 -0.00000000000E+00 -0.74505805969E-08  0.93827000000E+00  0.93827000000E+00 0.  1.
     999902    2    1    2    0    0  0.14980714978E-01 -0.13426016057E-01  0.12978350901E-01  0.10199901312E+01  0.10197091499E+01 0.  0.
     999903    2    3    3    0    0 -0.65611414848E-01 -0.72074327947E-01 -0.82778468677E-01  0.12920166896E+00  0.18472408559E-01 0.  0.
         14    1    1    2    0    0 -0.14980714978E-01  0.13426016057E-01 -0.12978350901E-01  0.23939868849E-01  0.00000000000E+00 0. -1.
     999901    1    3    3    0    0  0.80592129826E-01  0.58648311890E-01  0.95756819578E-01  0.89078846219E+00  0.88000000000E+00 0. -1.
        -11    1    4    4    0    0 -0.49938347277E-02 -0.63582986498E-05 -0.38370989611E-02  0.63184551239E-02  0.51100000000E-03 0. -1.
         11    1    4    4    0    0 -0.60617580121E-01 -0.72067969649E-01 -0.78941369716E-01  0.12288321384E+00  0.51100000000E-03 0.  1.
</event>
<event>
 8    1  0.1120016E+005  0.1043930E+01  0.7957747E-01            NaN
         13   -1    0    0    0    0  0.00000000000E+00  0.00000000000E+00  0.74505805969E-08  0.10566000000E+00  0.10566000000E+00 0. -1.
     999900   -1    0    0    0    0 -0.00000000000E+00 -0.00000000000E+00 -0.74505805969E-08  0.93827000000E+00  0.93827000000E+00 0. -1.
     999902    2    1    2    0    0  0.16444055812E-01 -0.78397603233E-02 -0.15313943777E-01  0.10201311410E+01  0.10198534989E+01 0.  0.
     999903    2    3    3    0    0  0.23018202681E-01  0.48245794817E-01  0.11526884635E+00  0.12870493884E+00  0.20507558902E-01 0.  0.
         14    1    1    2    0    0 -0.16444055812E-01  0.78397603233E-02  0.15313943777E-01  0.23798858953E-01  0.00000000000E+00 0. -1.
     999901    1    3    3    0    0 -0.65741468698E-02 -0.56085555141E-01 -0.13058279012E+00  0.89142620221E+00  0.88000000000E+00 0. -1.
        -11    1    4    4    0    0  0.20709648309E-02  0.11714636162E-01  0.10833590287E-01  0.16098117754E-01  0.51100000000E-03 0.  1.
         11    1    4    4    0    0  0.20947237851E-01  0.36531158656E-01  0.10443525606E+00  0.11260682109E+00  0.51100000000E-03 0. -1.
</event>
<event>
 8    1  0.1120016E+005  0.1043930E+01  0.7957747E-01            NaN
         13   -1    0    0    0    0  0.00000000000E+00  0.00000000000E+00  0.74505805969E-08  0.10566000000E+00  0.10566000000E+00 0. -1.
     999900   -1    0    0    0    0 -0.00000000000E+00 -0.00000000000E+00 -0.74505805969E-08  0.93827000000E+00  0.93827000000E+00 0.  1.
     999902    2    1    2    0    0  0.81998217398E-02  0.19838268300E-01  0.11955251822E-01  0.10193592448E+01  0.10190630736E+01 0.  0.
     999903    2    3    3    0    0  0.12613669074E+00 -0.21886323993E-01 -0.10188056768E-01  0.13023587158E+00  0.21635845607E-01 0.  0.
         14    1    1    2    0    0 -0.81998217398E-02 -0.19838268300E-01 -0.11955251822E-01  0.24570755215E-01  0.00000000000E+00 0.  1.
     999901    1    3    3    0    0 -0.11793686900E+00  0.41724592293E-01  0.22143308590E-01  0.88912337321E+00  0.88000000000E+00 0. -1.
        -11    1    4    4    0    0  0.62834871416E-01 -0.21310590236E-01 -0.18057039545E-02  0.66376833382E-01  0.51100000000E-03 0.  1.
         11    1    4    4    0    0  0.63301819326E-01 -0.57573375748E-03 -0.83823528138E-02  0.63859038194E-01  0.51100000000E-03 0. -1.
</event>
<event>
 7    1  0.1120016E+005  0.1043930E+01  0.7957747E-01            NaN
         13   -1    0    0    0    0  0.00000000000E+00  0.00000000000E+00  0.74505805969E-08  0.10566000000E+00  0.10566000000E+00 0. -1.
     999900   -1    0    0    0    0 -0.00000000000E+00 -0.00000000000E+00 -0.74505805969E-08  0.93827000000E+00  0.93827000000E+00 0. -1.
     999903    2    1    2    0    0 -0.58730274030E-02  0.99883365006E-01 -0.37167600879E-01  0.10825780063E+00  0.18087061273E-01 0.  0.
         14    1    1    2    0    0 -0.10546703931E-01  0.26338093355E-01  0.36860046566E-01  0.46514418821E-01  0.00000000000E+00 0. -1.
     999901    1    1    2    0    0  0.16419731334E-01 -0.12622145836E+00  0.30755431270E-03  0.88915778055E+00  0.88000000000E+00 0.  1.
        -11    1    3    3    0    0 -0.33105438290E-02  0.98295895438E-01 -0.37322886396E-01  0.10519649106E+00  0.51100000000E-03 0. -1.
         11    1    3    3    0    0 -0.25624835740E-02  0.15874695677E-02  0.15528551705E-03  0.30613095706E-02  0.51100000000E-03 0.  1.
</event>
<event>
 8    1  0.1120016E+005  0.1043930E+01  0.7957747E-01            NaN
         13   -1    0    0    0    0  0.00000000000E+00  0.00000000000E+00  0.74505805969E-08  0.10566000000E+00  0.10566000000E+00 0.  1.
     999900   -1    0    0    0    0 -0.00000000000E+00 -0.00000000000E+00 -0.74505805969E-08  0.93827000000E+00  0.93827000000E+00 0.  1.
     999902    2    1    2    0    0  0.95302305517E-02  0.13052648060E-01  0.17317630799E-01  0.10202425085E+01  0.10199674892E+01 0.  0.
     999903    2    3    3    0    0  0.15554610362E-01  0.11515875103E+00  0.62098007367E-01  0.13318713735E+00  0.19472215942E-01 0.  0.
         14    1    1    2    0    0 -0.95302305517E-02 -0.13052648060E-01 -0.17317630799E-01  0.23687491472E-01  0.00000000000E+00 0. -1.
     999901    1    3    3    0    0 -0.60243798098E-02 -0.10210610297E+00 -0.44780376568E-01  0.88705537118E+00  0.88000000000E+00 0. -1.
        -11    1    4    4    0    0  0.15625082118E-01  0.10779485243E+00  0.62870315192E-01  0.12576490390E+00  0.51100000000E-03 0. -1.
         11    1    4    4    0    0 -0.70471756558E-04  0.73638986032E-02 -0.77230782470E-03  0.74222334430E-02  0.51100000000E-03 0.  1.
</event>
<event>
 8    1  0.1120016E+005  0.1043930E+01  0.7957747E-01            NaN
         13   -1    0    0    0    0  0.00000000000E+00  0.00000000000E+00  0.74505805969E-08  0.10566000000E+00  0.10566000000E+00 0.  1.
     999900   -1    0    0    0    0 -0.00000000000E+00 -0.00000000000E+00 -0.74505805969E-08  0.93827000000E+00  0.93827000000E+00 0.  1.
     999902    2    1    2    0    0  0.22562047939E-01 -0.56506375819E-02 -0.44704183363E-02  0.10202453984E+01  0.10199704469E+01 0.  0.
     999903    2    3    3    0    0  0.13008072483E+00  0.13297923488E-01 -0.17635608881E-01  0.13340119784E+00  0.19673208763E-01 0.  0.
         14    1    1    2    0    0 -0.22562047939E-01  0.56506375819E-02  0.44704183363E-02  0.23684601588E-01  0.00000000000E+00 0.  1.
     999901    1    3    3    0    0 -0.10751867689E+00 -0.18948561070E-01  0.13165190545E-01  0.88684420057E+00  0.88000000000E+00 0. -1.
        -11    1    4    4    0    0  0.92544321246E-01  0.11381283792E-01 -0.21266735744E-01  0.95637441339E-01  0.51100000000E-03 0. -1.
         11    1    4    4    0    0  0.37536403584E-01  0.19166396954E-02  0.36311268629E-02  0.37763756501E-01  0.51100000000E-03 0.  1.
</event>
<event>
 8    1  0.1120016E+005  0.1043930E+01  0.7957747E-01            NaN
         13   -1    0    0    0    0  0.00000000000E+00  0.00000000000E+00  0.74505805969E-08  0.10566000000E+00  0.10566000000E+00 0. -1.
     999900   -1    0    0    0    0 -0.00000000000E+00 -0.00000000000E+00 -0.74505805969E-08  0.93827000000E+00  0.93827000000E+00 0. -1.
     999902    2    1    2    0    0  0.94286521284E-02  0.96842245934E-02  0.19267093833E-01  0.10203948223E+01  0.10201233693E+01 0.  0.
     999903    2    3    3    0    0  0.86876226906E-01  0.72068614433E-02 -0.94733614802E-01  0.12966454560E+00  0.15460238026E-01 0.  0.
         14    1    1    2    0    0 -0.94286521284E-02 -0.96842245934E-02 -0.19267093833E-01  0.23535177749E-01  0.00000000000E+00 0.  1.
     999901    1    3    3    0    0 -0.77447574777E-01  0.24773631501E-02  0.11400070863E+00  0.89073027665E+00  0.88000000000E+00 0.  1.
        -11    1    4    4    0    0  0.68825916045E-01  0.10876686869E-01 -0.79838296222E-01  0.10597039068E+00  0.51100000000E-03 0. -1.
         11    1    4    4    0    0  0.18050310861E-01 -0.36698254262E-02 -0.14895318580E-01  0.23694154921E-01  0.51100000000E-03 0.  1.
</event>
<event>
 8    1  0.1120016E+005  0.1043930E+01  0.7957747E-01            NaN
         13   -1    0    0    0    0  0.00000000000E+00  0.00000000000E+00  0.74505805969E-08  0.10566000000E+00  0.10566000000E+00 0. -1.
     999900   -1    0    0    0    0 -0.00000000000E+00 -0.00000000000E+00 -0.74505805969E-08  0.93827000000E+00  0.93827000000E+00 0.  1.
     999902    2    1    2    0    0 -0.16667950067E-01 -0.13670877502E-02  0.17772532179E-01  0.10195260579E+01  0.10192339429E+01 0.  0.
     999903    2    3    3    0    0  0.25301400308E-01 -0.77565774899E-01 -0.96411059741E-01  0.12789521562E+00  0.20136619517E-01 0.  0.
         14    1    1    2    0    0  0.16667950067E-01  0.13670877502E-02 -0.17772532179E-01  0.24403942068E-01  0.00000000000E+00 0.  1.
     999901    1    3    3    0    0 -0.41969350375E-01  0.76198687149E-01  0.11418359192E+00  0.89163084231E+00  0.88000000000E+00 0. -1.
        -11    1    4    4    0    0  0.52742616921E-02 -0.28961025652E-02 -0.11979975282E-01  0.13415892636E-01  0.51100000000E-03 0.  1.
         11    1    4    4    0    0  0.20027138616E-01 -0.74669672334E-01 -0.84431084460E-01  0.11447932299E+00  0.51100000000E-03 0. -1.
</event>
<event>
 8    1  0.1120016E+005  0.1043930E+01  0.7957747E-01            NaN
         13   -1    0    0    0    0  0.00000000000E+00  0.00000000000E+00  0.74505805969E-08  0.10566000000E+00  0.10566000000E+00 0.  1.
     999900   -1    0    0    0    0 -0.00000000000E+00 -0.00000000000E+00 -0.74505805969E-08  0.93827000000E+00  0.93827000000E+00 0.  1.
     999902    2    1    2    0    0  0.19189985160E-01 -0.12286319508E-01  0.74104283041E-02  0.10199691230E+01  0.10196876425E+01 0.  0.
     999903    2    3    3    0    0  0.63826019650E-01 -0.11069441158E+00  0.31059859543E-01  0.13304419737E+00  0.20224491097E-01 0.  0.
         14    1    1    2    0    0 -0.19189985160E-01  0.12286319508E-01 -0.74104283041E-02  0.23960876970E-01  0.00000000000E+00 0.  1.
     999901    1    3    3    0    0 -0.44636034490E-01  0.98408092070E-01 -0.23649431238E-01  0.88692492566E+00  0.88000000000E+00 0.  1.
        -11    1    4    4    0    0  0.26494982857E-01 -0.62567133122E-01  0.10481768575E-01  0.68751428037E-01  0.51100000000E-03 0.  1.
         11    1    4    4    0    0  0.37331036794E-01 -0.48127278456E-01  0.20578090968E-01  0.64292769333E-01  0.51100000000E-03 0. -1.
</event>
<event>
 8    1  0.1120016E+005  0.1043930E+01  0.7957747E-01            NaN
         13   -1    0    0    0    0  0.00000000000E+00  0.00000000000E+00  0.74505805969E-08  0.10566000000E+00  0.10566000000E+00 0.  1.
     999900   -1    0    0    0    0 -0.00000000000E+00 -0.00000000000E+00 -0.74505805969E-08  0.93827000000E+00  0.93827000000E+00 0. -1.
     999902    2    1    2    0    0  0.61693233500E-02 -0.21656230980E-01  0.13098400218E-01  0.10178796453E+01  0.10175462404E+01 0.  0.
     999903    2    3    3    0    0 -0.90558799008E-01  0.24375854564E-01 -0.82171137351E-01  0.12627908041E+00  0.19980790071E-01 0.  0.
         14    1    1    2    0    0 -0.61693233500E-02  0.21656230980E-01 -0.13098400218E-01  0.26050354684E-01  0.00000000000E+00 0. -1.
     999901    1    3    3    0    0  0.96728122358E-01 -0.46032085544E-01  0.95269537569E-01  0.89160056491E+00  0.88000000000E+00 0.  1.
        -11    1    4    4    0    0 -0.46566279573E-01  0.13403334445E-01 -0.29305707523E-01  0.56631734760E-01  0.51100000000E-03 0. -1.
         11    1    4    4    0    0 -0.43992519435E-01  0.10972520119E-01 -0.52865429828E-01  0.69647345649E-01  0.51100000000E-03 0.  1.
</event>
<event>
 8    1  0.1120016E+005  0.1043930E+01  0.7957747E-01            NaN
         13   -1    0    0    0    0  0.00000000000E+00  0.00000000000E+00  0.74505805969E-08  0.10566000000E+00  0.10566000000E+00 0.  1.
     999900   -1    0    0    0    0 -0.00000000000E+00 -0.00000000000E+00 -0.74505805969E-08  0.93827000000E+00  0.93827000000E+00 0.  1.
     999902    2    1    2    0    0 -0.17391276398E-01  0.15155128951E-01 -0.38928374847E-02  0.10205357996E+01  0.10202676265E+01 0.  0.
     999903    2    3    3    0    0  0.76000978903E-01 -0.98921585873E-01 -0.21050760125E-01  0.12810652817E+00  0.20162319103E-01 0.  0.
         14    1    1    2    0    0  0.17391276398E-01 -0.15155128951E-01  0.38928374847E-02  0.23394200391E-01  0.00000000000E+00 0.  1.
     999901    1    3    3    0    0 -0.93392255300E-01  0.11407671482E+00  0.17157922640E-01  0.89242927144E+00  0.88000000000E+00 0. -1.
        -11    1    4    4    0    0  0.43187163115E-01 -0.40053104110E-01 -0.77948947675E-02  0.59417200474E-01  0.51100000000E-03 0. -1.
         11    1    4    4    0    0  0.32813815788E-01 -0.58868481763E-01 -0.13255865357E-01  0.68689327694E-01  0.51100000000E-03 0.  1.
</event>
<event>
 7    1  0.1120016E+005  0.1043930E+01  0.7957747E-01            NaN
         13   -1    0    0    0    0  0.00000000000E+00  0.00000000000E+00  0.74505805969E-08  0.10566000000E+00  0.10566000000E+00 0. -1.
     999900   -1    0    0    0    0 -0.00000000000E+00 -0.00000000000E+00 -0.74505805969E-08  0.93827000000E+00  0.93827000000E+00 0. -1.
     999903    2    1    2    0    0  0.23243589352E-01 -0.27726254067E-01 -0.94197904014E-01  0.10275639109E+00  0.19406730252E-01 0.  0.
         14    1    1    2    0    0  0.21463226239E-01 -0.29037753082E-01 -0.33220402914E-01  0.49065836938E-01  0.00000000000E+00 0.  1.
     999901    1    1    2    0    0 -0.44706815590E-01  0.56764007149E-01  0.12741830693E+00  0.89210777197E+00  0.88000000000E+00 0.  1.
        -11    1    3    3    0    0  0.16171998237E-01 -0.80257437322E-02 -0.27942659191E-01  0.33271600700E-01  0.51100000000E-03 0.  1.
         11    1    3    3    0    0  0.70715911145E-02 -0.19700510335E-01 -0.66255244823E-01  0.69484790393E-01  0.51100000000E-03 0. -1.
</event>
<event>
 8    1  0.1120016E+005  0.1043930E+01  0.7957747E-01            NaN
         13   -1    0    0    0    0  0.00000000000E+00  0.00000000000E+00  0.74505805969E-08  0.10566000000E+00  0.10566000000E+00 0.  1.
     999900   -1    0    0    0    0 -0.00000000000E+00 -0.00000000000E+00 -0.74505805969E-08  0.93827000000E+00  0.93827000000E+00 0.  1.
     999902    2    1    2    0    0 -0.66058894359E-02  0.16726905484E-02  0.23102073736E-01  0.10198438737E+01  0.10195594074E+01 0.  0.
     999903    2    3    3    0    0 -0.11867265030E+00  0.22704983841E-01 -0.43759536413E-01  0.12997209015E+00  0.19471337206E-01 0.  0.
         14    1    1    2    0    0  0.66058894359E-02 -0.16726905484E-02 -0.23102073736E-01  0.24086126293E-01  0.00000000000E+00 0. -1.
     999901    1    3    3    0    0  0.11206676086E+00 -0.21032293293E-01  0.66861610149E-01  0.88987178355E+00  0.88000000000E+00 0.  1.
        -11    1    4    4    0    0 -0.82301536324E-01  0.67793318255E-02 -0.27154867099E-01  0.86931870735E-01  0.51100000000E-03 0.  1.
         11    1    4    4    0    0 -0.36371113972E-01  0.15925652016E-01 -0.16604669313E-01  0.43040219420E-01  0.51100000000E-03 0. -1.
</event>
<event>
 8    1  0.1120016E+005  0.1043930E+01  0.7957747E-01            NaN
         13   -1    0    0    0    0  0.00000000000E+00  0.00000000000E+00  0.74505805969E-08  0.10566000000E+00  0.10566000000E+00 0. -1.
     999900   -1    0    0    0    0 -0.00000000000E+00 -0.00000000000E+00 -0.74505805969E-08  0.93827000000E+00  0.93827000000E+00 0.  1.
     999902    2    1    2    0    0  0.99200510421E-03  0.23909398973E-01 -0.63564777740E-02  0.10191701890E+01  0.10188693860E+01 0.  0.
     999903    2    3    3    0    0 -0.38845510294E-01 -0.19894973776E-01 -0.12054675457E+00  0.12981915026E+00  0.20413429063E-01 0.  0.
         14    1    1    2    0    0 -0.99200510421E-03 -0.23909398973E-01  0.63564777740E-02  0.24759811047E-01  0.00000000000E+00 0. -1.
     999901    1    3    3    0    0  0.39837515398E-01  0.43804372749E-01  0.11419027680E+00  0.88935103869E+00  0.88000000000E+00 0. -1.
        -11    1    4    4    0    0 -0.92705252765E-02  0.29673117662E-02 -0.15414820119E-01  0.18238020132E-01  0.51100000000E-03 0.  1.
         11    1    4    4    0    0 -0.29574985017E-01 -0.22862285542E-01 -0.10513193445E+00  0.11158113013E+00  0.51100000000E-03 0. -1.
</event>
<event>
 8    1  0.1120016E+005  0.1043930E+01  0.7957747E-01            NaN
         13   -1    0    0    0    0  0.00000000000E+00  0.00000000000E+00  0.74505805969E-08  0.10566000000E+00  0.10566000000E+00 0. -1.
     999900   -1    0    0    0    0 -0.00000000000E+00 -0.00000000000E+00 -0.74505805969E-08  0.93827000000E+00  0.93827000000E+00 0. -1.
     999902    2    1    2    0    0 -0.14834493830E-01 -0.92525283834E-02  0.15730605672E-01  0.10204114234E+01  0.10201403578E+01 0.  0.
     999903    2    3    3    0    0 -0.21784011496E-01  0.12495343987E+00  0.21291083697E-01  0.13019209281E+00  0.20217949749E-01 0.  0.
         14    1    1    2    0    0  0.14834493830E-01  0.92525283834E-02 -0.15730605672E-01  0.23518576562E-01  0.00000000000E+00 0.  1.
     999901    1    3    3    0    0  0.69495176657E-02 -0.13420596826E+00 -0.55604780246E-02  0.89021933063E+00  0.88000000000E+00 0.  1.
        -11    1    4    4    0    0 -0.84001405795E-02  0.64369236279E-01  0.20716265191E-01  0.68142392865E-01  0.51100000000E-03 0.  1.
         11    1    4    4    0    0 -0.13383870916E-01  0.60584203593E-01  0.57481850551E-03  0.62049699943E-01  0.51100000000E-03 0. -1.
</event>
<event>
 8    1  0.1120016E+005  0.1043930E+01  0.7957747E-01            NaN
         13   -1    0    0    0    0  0.00000000000E+00  0.00000000000E+00  0.74505805969E-08  0.10566000000E+00  0.10566000000E+00 0.  1.
     999900   -1    0    0    0    0 -0.00000000000E+00 -0.00000000000E+00 -0.74505805969E-08  0.93827000000E+00  0.93827000000E+00 0.  1.
     999902    2    1    2    0    0  0.91839822556E-02  0.23205734723E-01  0.48652252382E-03  0.10189682621E+01  0.10186624715E+01 0.  0.
     999903    2    3    3    0    0 -0.24659790090E-02 -0.28747945624E-01 -0.12300338350E+00  0.12875218532E+00  0.24794504230E-01 0.  0.
         14    1    1    2    0    0 -0.91839822556E-02 -0.23205734723E-01 -0.48652252382E-03  0.24961737886E-01  0.00000000000E+00 0.  1.
     999901    1    3    3    0    0  0.11649961265E-01  0.51953680347E-01  0.12348990603E+00  0.89021607680E+00  0.88000000000E+00 0. -1.
        -11    1    4    4    0    0 -0.11597666577E-01 -0.25609564835E-01 -0.84605579638E-01  0.89155599420E-01  0.51100000000E-03 0.  1.
         11    1    4    4    0    0  0.91316875685E-02 -0.31383807885E-02 -0.38397803867E-01  0.39596585896E-01  0.51100000000E-03 0. -1.
</event>
<event>
 8    1  0.1120016E+005  0.1043930E+01  0.7957747E-01            NaN
         13   -1    0    0    0    0  0.00000000000E+00  0.00000000000E+00  0.74505805969E-08  0.10566000000E+00  0.10566000000E+00 0. -1.
     999900   -1    0    0    0    0 -0.00000000000E+00 -0.00000000000E+00 -0.74505805969E-08  0.93827000000E+00  0.93827000000E+00 0. -1.
     999902    2    1    2    0    0 -0.12930636112E-01 -0.19697863343E-01 -0.25956441240E-02  0.10202246306E+01  0.10199491910E+01 0.  0.
     999903    2    3    3    0    0  0.10686239622E+00  0.39035893888E-01 -0.56341268839E-01  0.12854721301E+00  0.20166176171E-01 0.  0.
         14    1    1    2    0    0  0.12930636112E-01  0.19697863343E-01  0.25956441240E-02  0.23705369412E-01  0.00000000000E+00 0.  1.
     999901    1    3    3    0    0 -0.11979303233E+00 -0.58733757231E-01  0.53745624715E-01  0.89167741757E+00  0.88000000000E+00 0.  1.
        -11    1    4    4    0    0  0.58457970737E-01  0.29157788630E-01 -0.39548202845E-01  0.76366435361E-01  0.51100000000E-03 0.  1.
         11    1    4    4    0    0  0.48404425485E-01  0.98781052583E-02 -0.16793065994E-01  0.52180777653E-01  0.51100000000E-03 0. -1.
</event>
<event>
 8    1  0.1120016E+005  0.1043930E+01  0.7957747E-01            NaN
         13   -1    0    0    0    0  0.00000000000E+00  0.00000000000E+00  0.74505805969E-08  0.10566000000E+00  0.10566000000E+00 0. -1.
     999900   -1    0    0    0    0 -0.00000000000E+00 -0.00000000000E+00 -0.74505805969E-08  0.93827000000E+00  0.93827000000E+00 0.  1.
     999902    2    1    2    0    0  0.16165135530E-01 -0.91992946959E-03 -0.19089001182E-01  0.10188990623E+01  0.10185915527E+01 0.  0.
     999903    2    3    3    0    0  0.27051081092E-01  0.11884729248E+00 -0.42076718084E-01  0.13042220474E+00  0.19571953568E-01 0.  0.
         14    1    1    2    0    0 -0.16165135530E-01  0.91992946959E-03  0.19089001182E-01  0.25030937718E-01  0.00000000000E+00 0. -1.
     999901    1    3    3    0    0 -0.10885945563E-01 -0.11976722195E+00  0.22987716902E-01  0.88847685754E+00  0.88000000000E+00 0. -1.
        -11    1    4    4    0    0  0.21415205423E-01  0.80749480768E-01 -0.37711760534E-01  0.91659847650E-01  0.51100000000E-03 0.  1.
         11    1    4    4    0    0  0.56358756698E-02  0.38097811709E-01 -0.43649575499E-02  0.38762357088E-01  0.51100000000E-03 0. -1.
</event>
<event>
 8    1  0.1120016E+005  0.1043930E+01  0.7957747E-01            NaN
         13   -1    0    0    0    0  0.00000000000E+00  0.00000000000E+00  0.74505805969E-08  0.10566000000E+00  0.10566000000E+00 0. -1.
     999900   -1    0    0    0    0 -0.00000000000E+00 -0.00000000000E+00 -0.74505805969E-08  0.93827000000E+00  0.93827000000E+00 0.  1.
     999902    2    1    2    0    0  0.14053986200E-01 -0.14223373064E-01  0.12945694257E-01  0.10201096333E+01  0.10198314832E+01 0.  0.
     999903    2    3    3    0    0  0.90287778273E-01 -0.95232933238E-01 -0.75656963586E-02  0.13286961109E+00  0.19388122909E-01 0.  0.
         14    1    1    2    0    0 -0.14053986200E-01  0.14223373064E-01 -0.12945694257E-01  0.23820366689E-01  0.00000000000E+00 0.  1.
     999901    1    3    3    0    0 -0.76233792073E-01  0.81009560174E-01  0.20511390615E-01  0.88724002223E+00  0.88000000000E+00 0.  1.
        -11    1    4    4    0    0  0.35284976013E-01 -0.49990323082E-01 -0.74964038112E-02  0.61648350547E-01  0.51100000000E-03 0.  1.
         11    1    4    4    0    0  0.55002802260E-01 -0.45242610156E-01 -0.69292547385E-04  0.71221260538E-01  0.51100000000E-03 0. -1.
</event>
<event>
 8    1  0.1120016E+005  0.1043930E+01  0.7957747E-01            NaN
         13   -1    0    0    0    0  0.00000000000E+00  0.00000000000E+00  0.74505805969E-08  0.10566000000E+00  0.10566000000E+00 0.  1.
     999900   -1    0    0    0    0 -0.00000000000E+00 -0.00000000000E+00 -0.74505805969E-08  0.93827000000E+00  0.93827000000E+00 0. -1.
     999902    2    1    2    0    0  0.43865826923E-02  0.20389689918E-01  0.10913419117E-01  0.10203910051E+01  0.10201194631E+01 0.  0.
     999903    2    3    3    0    0 -0.68333795483E-01 -0.88554426289E-01 -0.58404595294E-01  0.12799980113E+00  0.21481580876E-01 0.  0.
         14    1    1    2    0    0 -0.43865826923E-02 -0.20389689918E-01 -0.10913419117E-01  0.23538994870E-01  0.00000000000E+00 0.  1.
     999901    1    3    3    0    0  0.72720378175E-01  0.10894411621E+00  0.69318014411E-01  0.89239120400E+00  0.88000000000E+00 0.  1.
        -11    1    4    4    0    0 -0.51763713556E-01 -0.50189747069E-01 -0.36542303847E-01  0.80833741986E-01  0.51100000000E-03 0.  1.
         11    1    4    4    0    0 -0.16570081927E-01 -0.38364679220E-01 -0.21862291447E-01  0.47166059142E-01  0.51100000000E-03 0. -1.
</event>
<event>
 8    1  0.1120016E+005  0.1043930E+01  0.7957747E-01            NaN
         13   -1    0    0    0    0  0.00000000000E+00  0.00000000000E+00  0.74505805969E-08  0.10566000000E+00  0.10566000000E+00 0.  1.
     999900   -1    0    0    0    0 -0.00000000000E+00 -0.00000000000E+00 -0.74505805969E-08  0.93827000000E+00  0.93827000000E+00 0. -1.
     999902    2    1    2    0    0  0.13980116252E-01  0.17934947933E-01 -0.77406827106E-02  0.10199086725E+01  0.10196257529E+01 0.  0.
     999903    2    3    3    0    0  0.14601660829E-01 -0.10023137781E+00 -0.77754644090E-01  0.12925406958E+00  0.20032279666E-01 0.  0.
         14    1    1    2    0    0 -0.13980116252E-01 -0.17934947933E-01  0.77406827106E-02  0.24021327536E-01  0.00000000000E+00 0. -1.
     999901    1    3    3    0    0 -0.62154457766E-03  0.11816632574E+00  0.70013961380E-01  0.89065460289E+00  0.88000000000E+00 0.  1.
        -11    1    4    4    0    0  0.14915857211E-01 -0.74093052658E-01 -0.66931640313E-01  0.10095726247E+00  0.51100000000E-03 0. -1.
         11    1    4    4    0    0 -0.31419638160E-03 -0.26138325148E-01 -0.10823003777E-01  0.28296807111E-01  0.51100000000E-03 0.  1.
</event>
<event>
 8    1  0.1120016E+005  0.1043930E+01  0.7957747E-01            NaN
         13   -1    0    0    0    0  0.00000000000E+00  0.00000000000E+00  0.74505805969E-08  0.10566000000E+00  0.10566000000E+00 0.  1.
     999900   -1    0    0    0    0 -0.00000000000E+00 -0.00000000000E+00 -0.74505805969E-08  0.93827000000E+00  0.93827000000E+00 0.  1.
     999902    2    1    2    0    0  0.69340856286E-02  0.10724567017E-03 -0.24665467553E-01  0.10183081668E+01  0.10179857780E+01 0.  0.
     999903    2    3    3    0    0  0.88460019072E-01  0.62742574647E-01  0.64288734389E-01  0.12786866170E+00  0.21343561757E-01 0.  0.
         14    1    1    2    0    0 -0.69340856286E-02 -0.10724567017E-03  0.24665467553E-01  0.25621833165E-01  0.00000000000E+00 0.  1.
     999901    1    3    3    0    0 -0.81525933443E-01 -0.62635328977E-01 -0.88954201942E-01  0.89043950513E+00  0.88000000000E+00 0.  1.
        -11    1    4    4    0    0  0.28466109586E-01  0.87203404853E-02  0.16191653357E-01  0.33893871018E-01  0.51100000000E-03 0. -1.
         11    1    4    4    0    0  0.59993909485E-01  0.54022234162E-01  0.48097081032E-01  0.93974790683E-01  0.51100000000E-03 0.  1.
</event>
<event>
 8    1  0.1120016E+005  0.1043930E+01  0.7957747E-01            NaN
         13   -1    0    0    0    0  0.00000000000E+00  0.00000000000E+00  0.74505805969E-08  0.10566000000E+00  0.10566000000E+00 0.  1.
     999900   -1    0    0    0    0 -0.00000000000E+00 -0.00000000000E+00 -0.74505805969E-08  0.93827000000E+00  0.93827000000E+00 0.  1.
     999902    2    1    2    0    0 -0.13255550260E-02 -0.29775394596E-01  0.74121500936E-02  0.10132172797E+01  0.10127516895E+01 0.  0.
     999903    2    3    3    0    0  0.52795017875E-01  0.32880235548E-01  0.10521368642E+00  0.12393672503E+00  0.20541864558E-01 0.  0.
         14    1    1    2    0    0  0.13255550260E-02  0.29775394596E-01 -0.74121500936E-02  0.30712720305E-01  0.00000000000E+00 0.  1.
     999901    1    3    3    0    0 -0.54120572901E-01 -0.62655630144E-01 -0.97801536323E-01  0.88928055467E+00  0.88000000000E+00 0.  1.
        -11    1    4    4    0    0  0.26102850296E-01  0.28110060485E-01  0.63035091079E-01  0.73791721232E-01  0.51100000000E-03 0. -1.
         11    1    4    4    0    0  0.26692167578E-01  0.47701750630E-02  0.42178595338E-01  0.50145003797E-01  0.51100000000E-03 0.  1.
</event>
<event>
 8    1  0.1403104E+005  0.1043930E+01  0.7957747E-01            NaN
         13   -1    0    0    0    0  0.00000000000E+00  0.00000000000E+00  0.74505805969E-08  0.10566000000E+00  0.10566000000E+00 0.  1.
     999900   -1    0    0    0    0 -0.00000000000E+00 -0.00000000000E+00 -0.74505805969E-08  0.93827000000E+00  0.93827000000E+00 0.  1.
     999902    2    1    2    0    0  0.78818943876E-02  0.13750901511E-01 -0.17554167884E-01  0.10202791996E+01  0.10200050415E+01 0.  0.
     999903    2    3    3    0    0 -0.10344777097E+00 -0.40549463029E-01  0.60608160974E-01  0.12817372730E+00  0.20234992531E-01 0.  0.
         14    1    1    2    0    0 -0.78818943876E-02 -0.13750901511E-01  0.17554167884E-01  0.23650800443E-01  0.00000000000E+00 0.  1.
     999901    1    3    3    0    0  0.11132966536E+00  0.54300364540E-01 -0.78162328857E-01  0.89210547226E+00  0.88000000000E+00 0.  1.
        -11    1    4    4    0    0 -0.54722024549E-01 -0.26717903566E-01  0.42990749995E-01  0.74544027580E-01  0.51100000000E-03 0.  1.
         11    1    4    4    0    0 -0.48725746421E-01 -0.13831559463E-01  0.17617410979E-01  0.53629699720E-01  0.51100000000E-03 0. -1.
</event>
<event>
 8    1  0.1120016E+005  0.1043930E+01  0.7957747E-01            NaN
         13   -1    0    0    0    0  0.00000000000E+00  0.00000000000E+00  0.74505805969E-08  0.10566000000E+00  0.10566000000E+00 0. -1.
     999900   -1    0    0    0    0 -0.00000000000E+00 -0.00000000000E+00 -0.74505805969E-08  0.93827000000E+00  0.93827000000E+00 0. -1.
     999902    2    1    2    0    0 -0.54800639220E-02  0.21875134650E-01 -0.81521196681E-02  0.10199506407E+01  0.10196687206E+01 0.  0.
     999903    2    3    3    0    0 -0.51598953358E-01  0.82402274630E-01 -0.88593464782E-01  0.13301135495E+00  0.19764404652E-01 0.  0.
         14    1    1    2    0    0  0.54800639220E-02 -0.21875134650E-01  0.81521196681E-02  0.23979359283E-01  0.00000000000E+00 0. -1.
     999901    1    3    3    0    0  0.46118889436E-01 -0.60527139980E-01  0.80441345113E-01  0.88693928577E+00  0.88000000000E+00 0.  1.
        -11    1    4    4    0    0 -0.23023431078E-01  0.47685083356E-01 -0.58473131723E-01  0.78887982657E-01  0.51100000000E-03 0. -1.
         11    1    4    4    0    0 -0.28575522280E-01  0.34717191274E-01 -0.30120333059E-01  0.54123372291E-01  0.51100000000E-03 0.  1.
</event>
<event>
 8    1  0.1120016E+005  0.1043930E+01  0.7957747E-01            NaN
         13   -1    0    0    0    0  0.00000000000E+00  0.00000000000E+00  0.74505805969E-08  0.10566000000E+00  0.10566000000E+00 0.  1.
     999900   -1    0    0    0    0 -0.00000000000E+00 -0.00000000000E+00 -0.74505805969E-08  0.93827000000E+00  0.93827000000E+00 0. -1.
     999902    2    1    2    0    0  0.13047559529E-03 -0.17840302097E-01 -0.14452781777E-01  0.10209696798E+01  0.10207114728E+01 0.  0.
     999903    2    3    3    0    0 -0.39310060433E-01  0.21531789267E-01  0.11943413123E+00  0.12910005763E+00  0.19834676134E-01 0.  0.
         14    1    1    2    0    0 -0.13047559529E-03  0.17840302097E-01  0.14452781777E-01  0.22960320205E-01  0.00000000000E+00 0.  1.
     999901    1    3    3    0    0  0.39440536028E-01 -0.39372091364E-01 -0.13388691301E+00  0.89186962216E+00  0.88000000000E+00 0. -1.
        -11    1    4    4    0    0 -0.27091339571E-01  0.68967539342E-02  0.87974528669E-01  0.92310804948E-01  0.51100000000E-03 0. -1.
         11    1    4    4    0    0 -0.12218720862E-01  0.14635035333E-01  0.31459602563E-01  0.36789252685E-01  0.51100000000E-03 0.  1.
</event>
<event>
 8    1  0.1120016E+005  0.1043930E+01  0.7957747E-01            NaN
         13   -1    0    0    0    0  0.00000000000E+00  0.00000000000E+00  0.74505805969E-08  0.10566000000E+00  0.10566000000E+00 0.  1.
     999900   -1    0    0    0    0 -0.00000000000E+00 -0.00000000000E+00 -0.74505805969E-08  0.93827000000E+00  0.93827000000E+00 0. -1.
     999902    2    1    2    0    0  0.24081039419E-02  0.96278484158E-02  0.20901786585E-01  0.10207917392E+01  0.10205294683E+01 0.  0.
     999903    2    3    3    0    0  0.77184155087E-01 -0.93704786515E-01 -0.40497773912E-01  0.12947866442E+00  0.19664029000E-01 0.  0.
         14    1    1    2    0    0 -0.24081039419E-02 -0.96278484158E-02 -0.20901786585E-01  0.23138260785E-01  0.00000000000E+00 0. -1.
     999901    1    3    3    0    0 -0.74776051145E-01  0.10333263493E+00  0.61399560497E-01  0.89131307479E+00  0.88000000000E+00 0.  1.
        -11    1    4    4    0    0  0.24841945293E-01 -0.42942211770E-01 -0.10973796150E-01  0.50811820678E-01  0.51100000000E-03 0.  1.
         11    1    4    4    0    0  0.52342209795E-01 -0.50762574744E-01 -0.29523977762E-01  0.78666843745E-01  0.51100000000E-03 0. -1.
</event>
<event>
 8    1  0.1120016E+005  0.1043930E+01  0.7957747E-01            NaN
         13   -1    0    0    0    0  0.00000000000E+00  0.00000000000E+00  0.74505805969E-08  0.10566000000E+00  0.10566000000E+00 0. -1.
     999900   -1    0    0    0    0 -0.00000000000E+00 -0.00000000000E+00 -0.74505805969E-08  0.93827000000E+00  0.93827000000E+00 0.  1.
     999902    2    1    2    0    0  0.33172547910E-02  0.16297630632E-01 -0.17264371433E-01  0.10199576104E+01  0.10196758561E+01 0.  0.
     999903    2    3    3    0    0 -0.81650538651E-01 -0.48039978519E-01 -0.87793194086E-01  0.13072582467E+00  0.20172910300E-01 0.  0.
         14    1    1    2    0    0 -0.33172547910E-02 -0.16297630632E-01  0.17264371433E-01  0.23972389630E-01  0.00000000000E+00 0. -1.
     999901    1    3    3    0    0  0.84967793442E-01  0.64337609151E-01  0.70528822652E-01  0.88923178570E+00  0.88000000000E+00 0. -1.
        -11    1    4    4    0    0 -0.43127696646E-01 -0.35130034540E-01 -0.57825612721E-01  0.80238271119E-01  0.51100000000E-03 0. -1.
         11    1    4    4    0    0 -0.38522842005E-01 -0.12909943979E-01 -0.29967581365E-01  0.50487553551E-01  0.51100000000E-03 0.  1.
</event>
<event>
 8    1  0.1120016E+005  0.1043930E+01  0.7957747E-01            NaN
         13   -1    0    0    0    0  0.00000000000E+00  0.00000000000E+00  0.74505805969E-08  0.10566000000E+00  0.10566000000E+00 0.  1.
     999900   -1    0    0    0    0 -0.00000000000E+00 -0.00000000000E+00 -0.74505805969E-08  0.93827000000E+00  0.93827000000E+00 0. -1.
     999902    2    1    2    0    0 -0.21356850175E-01  0.44538430861E-02  0.78462919299E-02  0.10207456073E+01  0.10204822775E+01 0.  0.
     999903    2    3    3    0    0  0.62096843995E-01 -0.86452503858E-01 -0.69360634421E-01  0.12878742865E+00  0.21100964772E-01 0.  0.
         14    1    1    2    0    0  0.21356850175E-01 -0.44538430861E-02 -0.78462919299E-02  0.23184392696E-01  0.00000000000E+00 0.  1.
     999901    1    3    3    0    0 -0.83453694170E-01  0.90906346944E-01  0.77206926351E-01  0.89195817865E+00  0.88000000000E+00 0. -1.
        -11    1    4    4    0    0  0.43866506104E-01 -0.72262209306E-01 -0.60863741189E-01  0.10416694948E+00  0.51100000000E-03 0.  1.
         11    1    4    4    0    0  0.18230337890E-01 -0.14190294552E-01 -0.84968932320E-02  0.24620479172E-01  0.51100000000E-03 0. -1.
</event>
<event>
 8    1  0.1120016E+005  0.1043930E+01  0.7957747E-01            NaN
         13   -1    0    0    0    0  0.00000000000E+00  0.00000000000E+00  0.74505805969E-08  0.10566000000E+00  0.10566000000E+00 0. -1.
     999900   -1    0    0    0    0 -0.00000000000E+00 -0.00000000000E+00 -0.74505805969E-08  0.93827000000E+00  0.93827000000E+00 0. -1.
     999902    2    1    2    0    0  0.13657675229E-01 -0.67741438968E-02 -0.15641131455E-01  0.10220881569E+01  0.10218547521E+01 0.  0.
     999903    2    3    3    0    0 -0.53128115142E-01 -0.11542658730E+00  0.28678931687E-01  0.13179047449E+00  0.20008857252E-01 0.  0.
         14    1    1    2    0    0 -0.13657675229E-01  0.67741438968E-02  0.15641131455E-01  0.21841843132E-01  0.00000000000E+00 0. -1.
     999901    1    3    3    0    0  0.66785790371E-01  0.10865244341E+00 -0.44320063142E-01  0.89029768238E+00  0.88000000000E+00 0. -1.
        -11    1    4    4    0    0 -0.93166764478E-02 -0.33826280002E-01  0.92279935927E-03  0.35101714466E-01  0.51100000000E-03 0. -1.
         11    1    4    4    0    0 -0.43811438694E-01 -0.81600307300E-01  0.27756132328E-01  0.96688760023E-01  0.51100000000E-03 0.  1.
</event>
<event>
 8    1  0.1120016E+005  0.1043930E+01  0.7957747E-01            NaN
         13   -1    0    0    0    0  0.00000000000E+00  0.00000000000E+00  0.74505805969E-08  0.10566000000E+00  0.10566000000E+00 0.  1.
     999900   -1    0    0    0    0 -0.00000000000E+00 -0.00000000000E+00 -0.74505805969E-08  0.93827000000E+00  0.93827000000E+00 0.  1.
     999902    2    1    2    0    0 -0.10131628815E-01  0.10344085549E-01 -0.17730922735E-01  0.10210381755E+01  0.10207815242E+01 0.  0.
     999903    2    3    3    0    0  0.11308510453E+00  0.60444721432E-01  0.13612518049E-01  0.13049067627E+00  0.20017760338E-01 0.  0.
         14    1    1    2    0    0  0.10131628815E-01 -0.10344085549E-01  0.17730922735E-01  0.22891824508E-01  0.00000000000E+00 0.  1.
     999901    1    3    3    0    0 -0.12321673335E+00 -0.50100635883E-01 -0.31343440784E-01  0.89054749922E+00  0.88000000000E+00 0.  1.
        -11    1    4    4    0    0  0.98512723008E-01  0.52688992898E-01  0.49204140586E-02  0.11182735874E+00  0.51100000000E-03 0.  1.
         11    1    4    4    0    0  0.14572381526E-01  0.77557285336E-02  0.86921039900E-02  0.18663317529E-01  0.51100000000E-03 0. -1.
</event>
<event>
 8    1  0.1120016E+005  0.1043930E+01  0.7957747E-01            NaN
         13   -1    0    0    0    0  0.00000000000E+00  0.00000000000E+00  0.74505805969E-08  0.10566000000E+00  0.10566000000E+00 0. -1.
     999900   -1    0    0    0    0 -0.00000000000E+00 -0.00000000000E+00 -0.74505805969E-08  0.93827000000E+00  0.93827000000E+00 0.  1.
     999902    2    1    2    0    0 -0.34604605628E-03 -0.66052866596E-02  0.22521712554E-01  0.10204570987E+01  0.10201870971E+01 0.  0.
     999903    2    3    3    0    0 -0.27330445838E-03 -0.79934482091E-01 -0.99393820774E-01  0.12903095286E+00  0.19500232449E-01 0.  0.
         14    1    1    2    0    0  0.34604605628E-03  0.66052866596E-02 -0.22521712554E-01  0.23472901314E-01  0.00000000000E+00 0.  1.
     999901    1    3    3    0    0 -0.72741597900E-04  0.73329195432E-01  0.12191553333E+00  0.89142614583E+00  0.88000000000E+00 0. -1.
        -11    1    4    4    0    0  0.69116216736E-02 -0.17357842458E-01 -0.16586331426E-01  0.24988651827E-01  0.51100000000E-03 0.  1.
         11    1    4    4    0    0 -0.71849261319E-02 -0.62576639634E-01 -0.82807489347E-01  0.10404230103E+00  0.51100000000E-03 0. -1.
</event>
<event>
 8    1  0.1120016E+005  0.1043930E+01  0.7957747E-01            NaN
         13   -1    0    0    0    0  0.00000000000E+00  0.00000000000E+00  0.74505805969E-08  0.10566000000E+00  0.10566000000E+00 0.  1.
     999900   -1    0    0    0    0 -0.00000000000E+00 -0.00000000000E+00 -0.74505805969E-08  0.93827000000E+00  0.93827000000E+00 0. -1.
     999902    2    1    2    0    0 -0.35182538306E-03  0.12876310648E-01  0.19864751524E-01  0.10202544533E+01  0.10199797145E+01 0.  0.
     999903    2    3    3    0    0 -0.89687377505E-01 -0.91061517421E-01  0.69692168415E-02  0.12955236633E+00  0.19980490455E-01 0.  0.
         14    1    1    2    0    0  0.35182538306E-03 -0.12876310648E-01 -0.19864751524E-01  0.23675546670E-01  0.00000000000E+00 0. -1.
     999901    1    3    3    0    0  0.89335552122E-01  0.10393782807E+00  0.12895534682E-01  0.89070208700E+00  0.88000000000E+00 0.  1.
        -11    1    4    4    0    0 -0.58396366025E-01 -0.70839481263E-01  0.89287081407E-02  0.92240721054E-01  0.51100000000E-03 0.  1.
         11    1    4    4    0    0 -0.31291011480E-01 -0.20222036158E-01 -0.19594912993E-02  0.37311645273E-01  0.51100000000E-03 0. -1.
</event>
<event>
 8    1  0.1120016E+005  0.1043930E+01  0.7957747E-01            NaN
         13   -1    0    0    0    0  0.00000000000E+00  0.00000000000E+00  0.74505805969E-08  0.10566000000E+00  0.10566000000E+00 0.  1.
     999900   -1    0    0    0    0 -0.00000000000E+00 -0.00000000000E+00 -0.74505805969E-08  0.93827000000E+00  0.93827000000E+00 0. -1.
     999902    2    1    2    0    0  0.24160843215E-02  0.25904932545E-01  0.56621208846E-02  0.10173036483E+01  0.10169551368E+01 0.  0.
     999903    2    3    3    0    0 -0.20571017024E-01  0.29308192203E-01 -0.12108640477E+00  0.12791892962E+00  0.20474331852E-01 0.  0.
         14    1    1    2    0    0 -0.24160843215E-02 -0.25904932545E-01 -0.56621208846E-02  0.26626351731E-01  0.00000000000E+00 0.  1.
     999901    1    3    3    0    0  0.22987101345E-01 -0.34032596581E-02  0.12674852565E+00  0.88938471865E+00  0.88000000000E+00 0.  1.
        -11    1    4    4    0    0 -0.64217921466E-02  0.24731249964E-01 -0.63716670468E-01  0.68650923924E-01  0.51100000000E-03 0.  1.
         11    1    4    4    0    0 -0.14149224877E-01  0.45769422388E-02 -0.57369734301E-01  0.59268005700E-01  0.51100000000E-03 0. -1.
</event>
<event>
 8    1  0.1120016E+005  0.1043930E+01  0.7957747E-01            NaN
         13   -1    0    0    0    0  0.00000000000E+00  0.00000000000E+00  0.74505805969E-08  0.10566000000E+00  0.10566000000E+00 0. -1.
     999900   -1    0    0    0    0 -0.00000000000E+00 -0.00000000000E+00 -0.74505805969E-08  0.93827000000E+00  0.93827000000E+00 0. -1.
     999902    2    1    2    0    0  0.12837558525E-01  0.18568312434E-01  0.78845291055E-02  0.10200186861E+01  0.10197383826E+01 0.  0.
     999903    2    3    3    0    0  0.28193860711E-01  0.11282489354E+00 -0.60043190854E-01  0.13224940621E+00  0.18983421419E-01 0.  0.
         14    1    1    2    0    0 -0.12837558525E-01 -0.18568312434E-01 -0.78845291055E-02  0.23911313948E-01  0.00000000000E+00 0.  1.
     999901    1    3    3    0    0 -0.15356302186E-01 -0.94256581110E-01  0.67927719960E-01  0.88776927985E+00  0.88000000000E+00 0. -1.
        -11    1    4    4    0    0  0.14360136952E-01  0.24987093597E-01 -0.16911349793E-01  0.33418905615E-01  0.51100000000E-03 0. -1.
         11    1    4    4    0    0  0.13833723759E-01  0.87837799947E-01 -0.43131841062E-01  0.98830500591E-01  0.51100000000E-03 0.  1.
</event>
<event>
 8    1  0.1120016E+005  0.1043930E+01  0.7957747E-01            NaN
         13   -1    0    0    0    0  0.00000000000E+00  0.00000000000E+00  0.74505805969E-08  0.10566000000E+00  0.10566000000E+00 0.  1.
     999900   -1    0    0    0    0 -0.00000000000E+00 -0.00000000000E+00 -0.74505805969E-08  0.93827000000E+00  0.93827000000E+00 0.  1.
     999902    2    1    2    0    0 -0.66227607194E-02 -0.83391052726E-02  0.20663225552E-01  0.10206841288E+01  0.10204193845E+01 0.  0.
     999903    2    3    3    0    0 -0.91711892745E-01  0.53957755623E-01 -0.71757260405E-01  0.12958222361E+00  0.17886799358E-01 0.  0.
         14    1    1    2    0    0  0.66227607194E-02  0.83391052726E-02 -0.20663225552E-01  0.23245871171E-01  0.00000000000E+00 0. -1.
     999901    1    3    3    0    0  0.85089132025E-01 -0.62296860895E-01  0.92420485957E-01  0.89110190522E+00  0.88000000000E+00 0. -1.
        -11    1    4    4    0    0 -0.32691678219E-01  0.13423688943E-01 -0.32032363448E-01  0.47699839399E-01  0.51100000000E-03 0.  1.
         11    1    4    4    0    0 -0.59020214526E-01  0.40534066680E-01 -0.39724896958E-01  0.81882384208E-01  0.51100000000E-03 0. -1.
</event>
<event>
 8    1  0.1120016E+005  0.1043930E+01  0.7957747E-01            NaN
         13   -1    0    0    0    0  0.00000000000E+00  0.00000000000E+00  0.74505805969E-08  0.10566000000E+00  0.10566000000E+00 0. -1.
     999900   -1    0    0    0    0 -0.00000000000E+00 -0.00000000000E+00 -0.74505805969E-08  0.93827000000E+00  0.93827000000E+00 0. -1.
     999902    2    1    2    0    0  0.15386812004E-01 -0.96335661049E-03 -0.18573227307E-01  0.10197919219E+01  0.10195062125E+01 0.  0.
     999903    2    3    3    0    0  0.31003201889E-01 -0.26855444937E-01  0.11997524752E+00  0.12843904471E+00  0.20496700715E-01 0.  0.
         14    1    1    2    0    0 -0.15386812004E-01  0.96335661049E-03  0.18573227307E-01  0.24138078056E-01  0.00000000000E+00 0. -1.
     999901    1    3    3    0    0 -0.15616389885E-01  0.25892088327E-01 -0.13854847482E+00  0.89135287723E+00  0.88000000000E+00 0. -1.
        -11    1    4    4    0    0  0.17716665939E-01 -0.24710879348E-01  0.98522844374E-01  0.10310926144E+00  0.51100000000E-03 0.  1.
         11    1    4    4    0    0  0.13286535950E-01 -0.21445655896E-02  0.21452403142E-01  0.25329783274E-01  0.51100000000E-03 0. -1.
</event>
<event>
 8    1  0.1120016E+005  0.1043930E+01  0.7957747E-01            NaN
         13   -1    0    0    0    0  0.00000000000E+00  0.00000000000E+00  0.74505805969E-08  0.10566000000E+00  0.10566000000E+00 0. -1.
     999900   -1    0    0    0    0 -0.00000000000E+00 -0.00000000000E+00 -0.74505805969E-08  0.93827000000E+00  0.93827000000E+00 0. -1.
     999902    2    1    2    0    0 -0.23921088831E-02  0.13463267844E-01 -0.23941348232E-01  0.10163588208E+01  0.10159847847E+01 0.  0.
     999903    2    3    3    0    0  0.75183550350E-01  0.21841278582E-01 -0.10127651419E+00  0.12952800164E+00  0.19772789053E-01 0.  0.
         14    1    1    2    0    0  0.23921088831E-02 -0.13463267844E-01  0.23941348232E-01  0.27571179175E-01  0.00000000000E+00 0. -1.
     999901    1    3    3    0    0 -0.77575659233E-01 -0.83780107387E-02  0.77335165962E-01  0.88683081919E+00  0.88000000000E+00 0.  1.
        -11    1    4    4    0    0  0.14619825230E-01  0.12712485771E-01 -0.21409659552E-01  0.28878733133E-01  0.51100000000E-03 0. -1.
         11    1    4    4    0    0  0.60563725120E-01  0.91287928118E-02 -0.79866854643E-01  0.10064926850E+00  0.51100000000E-03 0.  1.
</event>
<event>
 8    1  0.1120016E+005  0.1043930E+01  0.7957747E-01            NaN
         13   -1    0    0    0    0  0.00000000000E+00  0.00000000000E+00  0.74505805969E-08  0.10566000000E+00  0.10566000000E+00 0. -1.
     999900   -1    0    0    0    0 -0.00000000000E+00 -0.00000000000E+00 -0.74505805969E-08  0.93827000000E+00  0.93827000000E+00 0. -1.
     999902    2    1    2    0    0 -0.43962708511E-02  0.22090253502E-01 -0.66378328245E-02  0.10204487879E+01  0.10201785929E+01 0.  0.
     999903    2    3    3    0    0 -0.28146470563E-01 -0.94798411158E-01 -0.80350362747E-01  0.12934802537E+00  0.22265855248E-01 0.  0.
         14    1    1    2    0    0  0.43962708511E-02 -0.22090253502E-01  0.66378328245E-02  0.23481212102E-01  0.00000000000E+00 0. -1.
     999901    1    3    3    0    0  0.23750199712E-01  0.11688866466E+00  0.73712529923E-01  0.89110076253E+00  0.88000000000E+00 0. -1.
        -11    1    4    4    0    0 -0.16807865611E-01 -0.22308616200E-01 -0.24080717772E-01  0.36882526928E-01  0.51100000000E-03 0.  1.
         11    1    4    4    0    0 -0.11338604952E-01 -0.72489794958E-01 -0.56269644975E-01  0.92465498441E-01  0.51100000000E-03 0. -1.
</event>
<event>
 8    1  0.1120016E+005  0.1043930E+01  0.7957747E-01            NaN
         13   -1    0    0    0    0  0.00000000000E+00  0.00000000000E+00  0.74505805969E-08  0.10566000000E+00  0.10566000000E+00 0. -1.
     999900   -1    0    0    0    0 -0.00000000000E+00 -0.00000000000E+00 -0.74505805969E-08  0.93827000000E+00  0.93827000000E+00 0. -1.
     999902    2    1    2    0    0  0.48875330585E-03  0.10626337114E-01 -0.21105349975E-01  0.10202954127E+01  0.10200216348E+01 0.  0.
     999903    2    3    3    0    0  0.12591896814E+00  0.61311456649E-02  0.25374695106E-01  0.13017556674E+00  0.20214488350E-01 0.  0.
         14    1    1    2    0    0 -0.48875330585E-03 -0.10626337114E-01  0.21105349975E-01  0.23634587321E-01  0.00000000000E+00 0. -1.
     999901    1    3    3    0    0 -0.12543021484E+00  0.44951914494E-02 -0.46480045081E-01  0.89011984594E+00  0.88000000000E+00 0. -1.
        -11    1    4    4    0    0  0.33777955920E-02  0.20605793145E-03 -0.26519196043E-02  0.43296375738E-02  0.51100000000E-03 0. -1.
         11    1    4    4    0    0  0.12254117255E+00  0.59250877334E-02  0.28026614710E-01  0.12584592917E+00  0.51100000000E-03 0.  1.
</event>
<event>
 8    1  0.1120016E+005  0.1043930E+01  0.7957747E-01            NaN
         13   -1    0    0    0    0  0.00000000000E+00  0.00000000000E+00  0.74505805969E-08  0.10566000000E+00  0.10566000000E+00 0. -1.
     999900   -1    0    0    0    0 -0.00000000000E+00 -0.00000000000E+00 -0.74505805969E-08  0.93827000000E+00  0.93827000000E+00 0. -1.
     999902    2    1    2    0    0  0.23116883240E-01 -0.10120833740E-01  0.81303259785E-02  0.10174172905E+01  0.10170717866E+01 0.  0.
     999903    2    3    3    0    0  0.85811669129E-01  0.87746997926E-02  0.96088095488E-01  0.13061164852E+00  0.19642879632E-01 0.  0.
         14    1    1    2    0    0 -0.23116883240E-01  0.10120833740E-01 -0.81303259785E-02  0.26512709534E-01  0.00000000000E+00 0. -1.
     999901    1    3    3    0    0 -0.62694785889E-01 -0.18895533533E-01 -0.87957769509E-01  0.88680564194E+00  0.88000000000E+00 0. -1.
        -11    1    4    4    0    0  0.33631466303E-01 -0.15755306012E-02  0.49674638501E-01  0.60011570997E-01  0.51100000000E-03 0.  1.
         11    1    4    4    0    0  0.52180202826E-01  0.10350230394E-01  0.46413456987E-01  0.70600077526E-01  0.51100000000E-03 0. -1.
</event>
<event>
 8    1  0.1120016E+005  0.1043930E+01  0.7957747E-01            NaN
         13   -1    0    0    0    0  0.00000000000E+00  0.00000000000E+00  0.74505805969E-08  0.10566000000E+00  0.10566000000E+00 0.  1.
     999900   -1    0    0    0    0 -0.00000000000E+00 -0.00000000000E+00 -0.74505805969E-08  0.93827000000E+00  0.93827000000E+00 0. -1.
     999902    2    1    2    0    0  0.95417556903E-02  0.16023336719E-01 -0.13094333935E-01  0.10211428544E+01  0.10208885714E+01 0.  0.
     999903    2    3    3    0    0 -0.12142677292E-01  0.59483770211E-01 -0.11740837921E+00  0.13365175931E+00  0.19806608159E-01 0.  0.
         14    1    1    2    0    0 -0.95417556903E-02 -0.16023336719E-01  0.13094333935E-01  0.22787145553E-01  0.00000000000E+00 0.  1.
     999901    1    3    3    0    0  0.21684432983E-01 -0.43460433491E-01  0.10431404527E+00  0.88749109514E+00  0.88000000000E+00 0.  1.
        -11    1    4    4    0    0 -0.12605533306E-01  0.24110421762E-01 -0.38202298173E-01  0.46902970206E-01  0.51100000000E-03 0. -1.
         11    1    4    4    0    0  0.46285601386E-03  0.35373348449E-01 -0.79206081036E-01  0.86748789100E-01  0.51100000000E-03 0.  1.
</event>
<event>
 8    1  0.1120016E+005  0.1043930E+01  0.7957747E-01            NaN
         13   -1    0    0    0    0  0.00000000000E+00  0.00000000000E+00  0.74505805969E-08  0.10566000000E+00  0.10566000000E+00 0. -1.
     999900   -1    0    0    0    0 -0.00000000000E+00 -0.00000000000E+00 -0.74505805969E-08  0.93827000000E+00  0.93827000000E+00 0.  1.
     999902    2    1    2    0    0  0.12009276722E-01  0.28481316079E-02 -0.20253951409E-01  0.10202117132E+01  0.10199359699E+01 0.  0.
     999903    2    3    3    0    0 -0.68005218548E-02 -0.11632717271E+00  0.51732306891E-01  0.12906717775E+00  0.20095934623E-01 0.  0.
         14    1    1    2    0    0 -0.12009276722E-01 -0.28481316079E-02  0.20253951409E-01  0.23718286800E-01  0.00000000000E+00 0. -1.
     999901    1    3    3    0    0  0.18809798577E-01  0.11917530431E+00 -0.71986258300E-01  0.89114453545E+00  0.88000000000E+00 0.  1.
        -11    1    4    4    0    0  0.13283306999E-02 -0.94064016002E-01  0.36604316328E-01  0.10094523596E+00  0.51100000000E-03 0. -1.
         11    1    4    4    0    0 -0.81288525546E-02 -0.22263156705E-01  0.15127990563E-01  0.28121941785E-01  0.51100000000E-03 0.  1.
</event>
<event>
 8    1  0.1120016E+005  0.1043930E+01  0.7957747E-01            NaN
         13   -1    0    0    0    0  0.00000000000E+00  0.00000000000E+00  0.74505805969E-08  0.10566000000E+00  0.10566000000E+00 0. -1.
     999900   -1    0    0    0    0 -0.00000000000E+00 -0.00000000000E+00 -0.74505805969E-08  0.93827000000E+00  0.93827000000E+00 0.  1.
     999902    2    1    2    0    0 -0.59937677250E-02  0.20795413068E-01  0.90485834280E-02  0.10204725637E+01  0.10202029219E+01 0.  0.
     999903    2    3    3    0    0  0.77387004177E-01  0.10285229275E+00 -0.22554929469E-01  0.13216829901E+00  0.19808883871E-01 0.  0.
         14    1    1    2    0    0  0.59937677250E-02 -0.20795413068E-01 -0.90485834280E-02  0.23457436310E-01  0.00000000000E+00 0.  1.
     999901    1    3    3    0    0 -0.83380771902E-01 -0.82056879680E-01  0.31603512897E-01  0.88830426468E+00  0.88000000000E+00 0. -1.
        -11    1    4    4    0    0  0.18373589751E-01  0.34135659507E-01 -0.13854845703E-01  0.41170983967E-01  0.51100000000E-03 0. -1.
         11    1    4    4    0    0  0.59013414426E-01  0.68716633240E-01 -0.87000837665E-02  0.90997315040E-01  0.51100000000E-03 0.  1.
</event>
<event>
 8    1  0.1120016E+005  0.1043930E+01  0.7957747E-01            NaN
         13   -1    0    0    0    0  0.00000000000E+00  0.00000000000E+00  0.74505805969E-08  0.10566000000E+00  0.10566000000E+00 0.  1.
     999900   -1    0    0    0    0 -0.00000000000E+00 -0.00000000000E+00 -0.74505805969E-08  0.93827000000E+00  0.93827000000E+00 0. -1.
     999902    2    1    2    0    0  0.21247124036E-01  0.51474541821E-02 -0.10676100571E-01  0.10196006825E+01  0.10193103728E+01 0.  0.
     999903    2    3    3    0    0 -0.65540472133E-02  0.30932325553E-01  0.12308212332E+00  0.12868596880E+00  0.20275728974E-01 0.  0.
         14    1    1    2    0    0 -0.21247124036E-01 -0.51474541821E-02  0.10676100571E-01  0.24329317454E-01  0.00000000000E+00 0.  1.
     999901    1    3    3    0    0  0.27801171250E-01 -0.25784871371E-01 -0.13375822389E+00  0.89091471375E+00  0.88000000000E+00 0. -1.
        -11    1    4    4    0    0 -0.93675273438E-02  0.17012447260E-01  0.40843433731E-01  0.45228543314E-01  0.51100000000E-03 0.  1.
         11    1    4    4    0    0  0.28134801305E-02  0.13919878293E-01  0.82238689589E-01  0.83457425484E-01  0.51100000000E-03 0. -1.
</event>
<event>
 8    1  0.1120016E+005  0.1043930E+01  0.7957747E-01            NaN
         13   -1    0    0    0    0  0.00000000000E+00  0.00000000000E+00  0.74505805969E-08  0.10566000000E+00  0.10566000000E+00 0. -1.
     999900   -1    0    0    0    0 -0.00000000000E+00 -0.00000000000E+00 -0.74505805969E-08  0.93827000000E+00  0.93827000000E+00 0. -1.
     999902    2    1    2    0    0  0.51195811593E-02 -0.62058073148E-02 -0.22994702552E-01  0.10195685858E+01  0.10192775003E+01 0.  0.
     999903    2    3    3    0    0  0.64829715683E-01  0.30107054376E-01 -0.10984252538E+00  0.13253619158E+00  0.19777131698E-01 0.  0.
         14    1    1    2    0    0 -0.51195811593E-02  0.62058073148E-02  0.22994702552E-01  0.24361414186E-01  0.00000000000E+00 0. -1.
     999901    1    3    3    0    0 -0.59710134523E-01 -0.36312861691E-01  0.86847822828E-01  0.88703239423E+00  0.88000000000E+00 0.  1.
        -11    1    4    4    0    0  0.49439286232E-01  0.21432917642E-01 -0.65608483369E-01  0.84901985800E-01  0.51100000000E-03 0. -1.
         11    1    4    4    0    0  0.15390429451E-01  0.86741367340E-02 -0.44234042011E-01  0.47634205781E-01  0.51100000000E-03 0.  1.
</event>
<event>
 8    1  0.1120016E+005  0.1043930E+01  0.7957747E-01            NaN
         13   -1    0    0    0    0  0.00000000000E+00  0.00000000000E+00  0.74505805969E-08  0.10566000000E+00  0.10566000000E+00 0. -1.
     999900   -1    0    0    0    0 -0.00000000000E+00 -0.00000000000E+00 -0.74505805969E-08  0.93827000000E+00  0.93827000000E+00 0. -1.
     999902    2    1    2    0    0  0.67796372028E-02 -0.16422560886E-01 -0.15640383153E-01  0.10202596478E+01  0.10199850310E+01 0.  0.
     999903    2    3    3    0    0 -0.85698056898E-03  0.78243982527E-01  0.98789404049E-01  0.12778317835E+00  0.21126738987E-01 0.  0.
         14    1    1    2    0    0 -0.67796372028E-02  0.16422560886E-01  0.15640383153E-01  0.23670352169E-01  0.00000000000E+00 0. -1.
     999901    1    3    3    0    0  0.76366177717E-02 -0.94666543413E-01 -0.11442978720E+00  0.89247646948E+00  0.88000000000E+00 0. -1.
        -11    1    4    4    0    0  0.60064727371E-02  0.36186389630E-01  0.32693448653E-01  0.49139141374E-01  0.51100000000E-03 0. -1.
         11    1    4    4    0    0 -0.68634533060E-02  0.42057592897E-01  0.66095955396E-01  0.78644036978E-01  0.51100000000E-03 0.  1.
</event>
<event>
 8    1  0.1120016E+005  0.1043930E+01  0.7957747E-01            NaN
         13   -1    0    0    0    0  0.00000000000E+00  0.00000000000E+00  0.74505805969E-08  0.10566000000E+00  0.10566000000E+00 0.  1.
     999900   -1    0    0    0    0 -0.00000000000E+00 -0.00000000000E+00 -0.74505805969E-08  0.93827000000E+00  0.93827000000E+00 0. -1.
     999902    2    1    2    0    0 -0.19331472352E-01 -0.32009425492E-02  0.14596057300E-01  0.10194964832E+01  0.10192036511E+01 0.  0.
     999903    2    3    3    0    0 -0.12064716754E+00  0.70234320565E-02 -0.49570386976E-01  0.13130351961E+00  0.13353777100E-01 0.  0.
         14    1    1    2    0    0  0.19331472352E-01  0.32009425492E-02 -0.14596057300E-01  0.24433516841E-01  0.00000000000E+00 0. -1.
     999901    1    3    3    0    0  0.10131569519E+00 -0.10224374606E-01  0.64166444276E-01  0.88819296355E+00  0.88000000000E+00 0. -1.
        -11    1    4    4    0    0 -0.10160740809E+00  0.22387262522E-02 -0.44944696316E-01  0.11112769287E+00  0.51100000000E-03 0.  1.
         11    1    4    4    0    0 -0.19039759450E-01  0.47847058042E-02 -0.46256906606E-02  0.20175826740E-01  0.51100000000E-03 0. -1.
</event>
<event>
 8    1  0.1120016E+005  0.1043930E+01  0.7957747E-01            NaN
         13   -1    0    0    0    0  0.00000000000E+00  0.00000000000E+00  0.74505805969E-08  0.10566000000E+00  0.10566000000E+00 0. -1.
     999900   -1    0    0    0    0 -0.00000000000E+00 -0.00000000000E+00 -0.74505805969E-08  0.93827000000E+00  0.93827000000E+00 0.  1.
     999902    2    1    2    0    0  0.81446582394E-02 -0.20423865057E-01  0.83575050885E-02  0.10204072958E+01  0.10201361339E+01 0.  0.
     999903    2    3    3    0    0 -0.12162158916E+00 -0.34182136132E-01  0.26192419793E-01  0.13060582740E+00  0.20288171800E-01 0.  0.
         14    1    1    2    0    0 -0.81446582394E-02  0.20423865057E-01 -0.83575050885E-02  0.23522704202E-01  0.00000000000E+00 0.  1.
     999901    1    3    3    0    0  0.12976624740E+00  0.13758271075E-01 -0.17834914704E-01  0.88980146840E+00  0.88000000000E+00 0.  1.
        -11    1    4    4    0    0 -0.93538495909E-01 -0.29400515061E-01  0.28249347984E-01  0.10203983186E+00  0.51100000000E-03 0.  1.
         11    1    4    4    0    0 -0.28083093250E-01 -0.47816210706E-02 -0.20569281915E-02  0.28565995539E-01  0.51100000000E-03 0. -1.
</event>
<event>
 8    1  0.1120016E+005  0.1043930E+01  0.7957747E-01            NaN
         13   -1    0    0    0    0  0.00000000000E+00  0.00000000000E+00  0.74505805969E-08  0.10566000000E+00  0.10566000000E+00 0. -1.
     999900   -1    0    0    0    0 -0.00000000000E+00 -0.00000000000E+00 -0.74505805969E-08  0.93827000000E+00  0.93827000000E+00 0.  1.
     999902    2    1    2    0    0  0.78750903984E-02  0.20934915140E-01 -0.78163279360E-02  0.10202364839E+01  0.10199613230E+01 0.  0.
     999903    2    3    3    0    0 -0.83965648081E-01 -0.92723353265E-01  0.16445360750E-01  0.12785677062E+00  0.20713609146E-01 0.  0.
         14    1    1    2    0    0 -0.78750903984E-02 -0.20934915140E-01  0.78163279360E-02  0.23693516056E-01  0.00000000000E+00 0. -1.
     999901    1    3    3    0    0  0.91840738479E-01  0.11365826840E+00 -0.24261688686E-01  0.89237971333E+00  0.88000000000E+00 0. -1.
        -11    1    4    4    0    0 -0.47364227767E-01 -0.47355693163E-01 -0.10732208143E-02  0.66987645659E-01  0.51100000000E-03 0.  1.
         11    1    4    4    0    0 -0.36601420313E-01 -0.45367660102E-01  0.17518581564E-01  0.60869124958E-01  0.51100000000E-03 0. -1.
</event>
<event>
 8    1  0.1120016E+005  0.1043930E+01  0.7957747E-01            NaN
         13   -1    0    0    0    0  0.00000000000E+00  0.00000000000E+00  0.74505805969E-08  0.10566000000E+00  0.10566000000E+00 0. -1.
     999900   -1    0    0    0    0 -0.00000000000E+00 -0.00000000000E+00 -0.74505805969E-08  0.93827000000E+00  0.93827000000E+00 0.  1.
     999902    2    1    2    0    0 -0.82019942483E-02  0.48433040156E-02 -0.21591399655E-01  0.10203308720E+01  0.10200579246E+01 0.  0.
     999903    2    3    3    0    0  0.71876659241E-01  0.74098245334E-01 -0.79983302896E-01  0.13206376577E+00  0.19664826004E-01 0.  0.
         14    1    1    2    0    0  0.82019942483E-02 -0.48433040156E-02  0.21591399655E-01  0.23599128003E-01  0.00000000000E+00 0. -1.
     999901    1    3    3    0    0 -0.80078653490E-01 -0.69254941319E-01  0.58391903241E-01  0.88826710623E+00  0.88000000000E+00 0. -1.
        -11    1    4    4    0    0  0.23629069399E-01  0.38002081120E-01 -0.36611103323E-01  0.57819763902E-01  0.51100000000E-03 0. -1.
         11    1    4    4    0    0  0.48247589842E-01  0.36096164214E-01 -0.43372199573E-01  0.74244001868E-01  0.51100000000E-03 0.  1.
</event>
<event>
 8    1  0.1120016E+005  0.1043930E+01  0.7957747E-01            NaN
         13   -1    0    0    0    0  0.00000000000E+00  0.00000000000E+00  0.74505805969E-08  0.10566000000E+00  0.10566000000E+00 0. -1.
     999900   -1    0    0    0    0 -0.00000000000E+00 -0.00000000000E+00 -0.74505805969E-08  0.93827000000E+00  0.93827000000E+00 0.  1.
     999902    2    1    2    0    0 -0.15168072356E-01  0.16751885609E-01 -0.84958116478E-02  0.10197871976E+01  0.10195013750E+01 0.  0.
     999903    2    3    3    0    0 -0.12748135072E+00  0.41342570509E-02 -0.30403100102E-01  0.13228879970E+00  0.17532574491E-01 0.  0.
         14    1    1    2    0    0  0.15168072356E-01 -0.16751885609E-01  0.84958116478E-02  0.24142802365E-01  0.00000000000E+00 0.  1.
     999901    1    3    3    0    0  0.11231327836E+00  0.12617628559E-01  0.21907288454E-01  0.88749839793E+00  0.88000000000E+00 0.  1.
        -11    1    4    4    0    0 -0.38574460059E-01  0.68517404880E-02 -0.33918723821E-02  0.39328122709E-01  0.51100000000E-03 0. -1.
         11    1    4    4    0    0 -0.88906890660E-01 -0.27174834371E-02 -0.27011227720E-01  0.92960676993E-01  0.51100000000E-03 0.  1.
</event>
<event>
 8    1  0.1120016E+005  0.1043930E+01  0.7957747E-01            NaN
         13   -1    0    0    0    0  0.00000000000E+00  0.00000000000E+00  0.74505805969E-08  0.10566000000E+00  0.10566000000E+00 0. -1.
     999900   -1    0    0    0    0 -0.00000000000E+00 -0.00000000000E+00 -0.74505805969E-08  0.93827000000E+00  0.93827000000E+00 0. -1.
     999902    2    1    2    0    0 -0.28269050293E-02  0.19840046656E-01  0.11925051194E-01  0.10206099295E+01  0.10203434728E+01 0.  0.
     999903    2    3    3    0    0 -0.55021964859E-01  0.10389598185E+00 -0.56598823410E-01  0.13241780729E+00  0.22566728081E-01 0.  0.
         14    1    1    2    0    0  0.28269050293E-02 -0.19840046656E-01 -0.11925051194E-01  0.23320070526E-01  0.00000000000E+00 0.  1.
     999901    1    3    3    0    0  0.52195059830E-01 -0.84055935191E-01  0.68523874604E-01  0.88819212218E+00  0.88000000000E+00 0.  1.
        -11    1    4    4    0    0 -0.24583523574E-01  0.61179046190E-01 -0.21700357345E-01  0.69414637894E-01  0.51100000000E-03 0. -1.
         11    1    4    4    0    0 -0.30438441285E-01  0.42716935657E-01 -0.34898466065E-01  0.63003169400E-01  0.51100000000E-03 0.  1.
</event>
<event>
 8    1  0.1120016E+005  0.1043930E+01  0.7957747E-01            NaN
         13   -1    0    0    0    0  0.00000000000E+00  0.00000000000E+00  0.74505805969E-08  0.10566000000E+00  0.10566000000E+00 0. -1.
     999900   -1    0    0    0    0 -0.00000000000E+00 -0.00000000000E+00 -0.74505805969E-08  0.93827000000E+00  0.93827000000E+00 0. -1.
     999902    2    1    2    0    0 -0.45187048729E-02  0.94932126408E-02 -0.18035027590E-01  0.10230541288E+01  0.10228411159E+01 0.  0.
     999903    2    3    3    0    0  0.10171348014E-01  0.10180158093E+00  0.81756388756E-01  0.13249533828E+00  0.20096998884E-01 0.  0.
         14    1    1    2    0    0  0.45187048729E-02 -0.94932126408E-02  0.18035027590E-01  0.20875871243E-01  0.00000000000E+00 0. -1.
     999901    1    3    3    0    0 -0.14690052887E-01 -0.92308368292E-01 -0.99791416346E-01  0.89055879047E+00  0.88000000000E+00 0. -1.
        -11    1    4    4    0    0  0.88815243657E-02  0.14949998422E-01  0.14092004305E-01  0.22388158348E-01  0.51100000000E-03 0.  1.
         11    1    4    4    0    0  0.12898236480E-02  0.86851582511E-01  0.67664384450E-01  0.11010717994E+00  0.51100000000E-03 0. -1.
</event>
<event>
 8    1  0.1120016E+005  0.1043930E+01  0.7957747E-01            NaN
         13   -1    0    0    0    0  0.00000000000E+00  0.00000000000E+00  0.74505805969E-08  0.10566000000E+00  0.10566000000E+00 0.  1.
     999900   -1    0    0    0    0 -0.00000000000E+00 -0.00000000000E+00 -0.74505805969E-08  0.93827000000E+00  0.93827000000E+00 0.  1.
     999902    2    1    2    0    0 -0.53597369985E-02  0.19181868880E-01  0.11613425488E-01  0.10208747940E+01  0.10206144240E+01 0.  0.
     999903    2    3    3    0    0  0.17414026917E-02  0.12941067692E+00 -0.23752806141E-01  0.13326475196E+00  0.21098401104E-01 0.  0.
         14    1    1    2    0    0  0.53597369985E-02 -0.19181868880E-01 -0.11613425488E-01  0.23055206050E-01  0.00000000000E+00 0. -1.
     999901    1    3    3    0    0 -0.71011396902E-02 -0.11022880804E+00  0.35366231629E-01  0.88761004199E+00  0.88000000000E+00 0. -1.
        -11    1    4    4    0    0  0.99603052785E-02  0.98949984682E-01 -0.20511766012E-01  0.10154457551E+00  0.51100000000E-03 0. -1.
         11    1    4    4    0    0 -0.82189025868E-02  0.30460692243E-01 -0.32410401290E-02  0.31720176446E-01  0.51100000000E-03 0.  1.
</event>
<event>
 8    1  0.1120016E+005  0.1043930E+01  0.7957747E-01            NaN
         13   -1    0    0    0    0  0.00000000000E+00  0.00000000000E+00  0.74505805969E-08  0.10566000000E+00  0.10566000000E+00 0.  1.
     999900   -1    0    0    0    0 -0.00000000000E+00 -0.00000000000E+00 -0.74505805969E-08  0.93827000000E+00  0.93827000000E+00 0. -1.
     999902    2    1    2    0    0  0.60910494067E-03 -0.92136447400E-02 -0.20402787931E-01  0.10215350003E+01  0.10212894892E+01 0.  0.
     999903    2    3    3    0    0  0.91973183471E-01  0.90966108409E-01  0.40050517636E-02  0.13081668315E+00  0.19054259212E-01 0.  0.
         14    1    1    2    0    0 -0.60910494067E-03  0.92136447400E-02  0.20402787931E-01  0.22394999745E-01  0.00000000000E+00 0.  1.
     999901    1    3    3    0    0 -0.91364078530E-01 -0.10017975315E+00 -0.24407839694E-01  0.89071831710E+00  0.88000000000E+00 0. -1.
        -11    1    4    4    0    0  0.67285037876E-01  0.68409234882E-01  0.11199841382E-01  0.96606404069E-01  0.51100000000E-03 0.  1.
         11    1    4    4    0    0  0.24688145595E-01  0.22556873527E-01 -0.71947896181E-02  0.34210279082E-01  0.51100000000E-03 0. -1.
</event>
<event>
 8    1  0.1120016E+005  0.1043930E+01  0.7957747E-01            NaN
         13   -1    0    0    0    0  0.00000000000E+00  0.00000000000E+00  0.74505805969E-08  0.10566000000E+00  0.10566000000E+00 0.  1.
     999900   -1    0    0    0    0 -0.00000000000E+00 -0.00000000000E+00 -0.74505805969E-08  0.93827000000E+00  0.93827000000E+00 0. -1.
     999902    2    1    2    0    0  0.69068826906E-03  0.18265431078E-01 -0.15323307670E-01  0.10200782332E+01  0.10197993406E+01 0.  0.
     999903    2    3    3    0    0  0.10009424553E+00 -0.78486992571E-01 -0.10524997112E-01  0.12919938481E+00  0.20065878504E-01 0.  0.
         14    1    1    2    0    0 -0.69068826906E-03 -0.18265431078E-01  0.15323307670E-01  0.23851766825E-01  0.00000000000E+00 0.  1.
     999901    1    3    3    0    0 -0.99403557262E-01  0.96752423648E-01 -0.47983105579E-02  0.89087884836E+00  0.88000000000E+00 0. -1.
        -11    1    4    4    0    0  0.50047143207E-01 -0.26725536290E-01 -0.32507978709E-02  0.56831326229E-01  0.51100000000E-03 0.  1.
         11    1    4    4    0    0  0.50047102324E-01 -0.51761456281E-01 -0.72741992409E-02  0.72368058582E-01  0.51100000000E-03 0. -1.
</event>
<event>
 8    1  0.1120016E+005  0.1043930E+01  0.7957747E-01            NaN
         13   -1    0    0    0    0  0.00000000000E+00  0.00000000000E+00  0.74505805969E-08  0.10566000000E+00  0.10566000000E+00 0. -1.
     999900   -1    0    0    0    0 -0.00000000000E+00 -0.00000000000E+00 -0.74505805969E-08  0.93827000000E+00  0.93827000000E+00 0. -1.
     999902    2    1    2    0    0  0.10859599350E-01 -0.17574080633E-01  0.21915863797E-01  0.10138121599E+01  0.10133646980E+01 0.  0.
     999903    2    3    3    0    0 -0.78588344599E-01 -0.41032436749E-01  0.88021880479E-01  0.12650092102E+00  0.19870651808E-01 0.  0.
         14    1    1    2    0    0 -0.10859599350E-01  0.17574080633E-01 -0.21915863797E-01  0.30117840130E-01  0.00000000000E+00 0.  1.
     999901    1    3    3    0    0  0.89447943949E-01  0.23458356116E-01 -0.66106016682E-01  0.88731123885E+00  0.88000000000E+00 0.  1.
        -11    1    4    4    0    0 -0.16055323088E-01 -0.13017732094E-01  0.11037771939E-01  0.23437753278E-01  0.51100000000E-03 0. -1.
         11    1    4    4    0    0 -0.62533021511E-01 -0.28014704655E-01  0.76984108540E-01  0.10306316774E+00  0.51100000000E-03 0.  1.
</event>
<event>
 8    1  0.1120016E+005  0.1043930E+01  0.7957747E-01            NaN
         13   -1    0    0    0    0  0.00000000000E+00  0.00000000000E+00  0.74505805969E-08  0.10566000000E+00  0.10566000000E+00 0. -1.
     999900   -1    0    0    0    0 -0.00000000000E+00 -0.00000000000E+00 -0.74505805969E-08  0.93827000000E+00  0.93827000000E+00 0. -1.
     999902    2    1    2    0    0  0.75902047974E-02 -0.21482063432E-01 -0.10028130846E-01  0.10190371563E+01  0.10187330722E+01 0.  0.
     999903    2    3    3    0    0 -0.22563977432E-02  0.32075755337E-01  0.12187409850E+00  0.12754201128E+00  0.19486491297E-01 0.  0.
         14    1    1    2    0    0 -0.75902047974E-02  0.21482063432E-01  0.10028130846E-01  0.24892843679E-01  0.00000000000E+00 0.  1.
     999901    1    3    3    0    0  0.98466025406E-02 -0.53557818769E-01 -0.13190222935E+00  0.89149514505E+00  0.88000000000E+00 0. -1.
        -11    1    4    4    0    0 -0.67049046477E-02  0.36872087626E-02  0.41053309676E-01  0.41763460239E-01  0.51100000000E-03 0. -1.
         11    1    4    4    0    0  0.44485069045E-02  0.28388546574E-01  0.80820788828E-01  0.85778551037E-01  0.51100000000E-03 0.  1.
</event>
<event>
 8    1  0.1120016E+005  0.1043930E+01  0.7957747E-01            NaN
         13   -1    0    0    0    0  0.00000000000E+00  0.00000000000E+00  0.74505805969E-08  0.10566000000E+00  0.10566000000E+00 0.  1.
     999900   -1    0    0    0    0 -0.00000000000E+00 -0.00000000000E+00 -0.74505805969E-08  0.93827000000E+00  0.93827000000E+00 0. -1.
     999902    2    1    2    0    0  0.22463682843E-01 -0.90017034395E-02  0.32239640794E-02  0.10195160356E+01  0.10192236777E+01 0.  0.
     999903    2    3    3    0    0  0.12460280443E+00 -0.35277282100E-01 -0.21772554664E-01  0.13286636855E+00  0.20225781814E-01 0.  0.
         14    1    1    2    0    0 -0.22463682843E-01  0.90017034395E-02 -0.32239640794E-02  0.24413964366E-01  0.00000000000E+00 0. -1.
     999901    1    3    3    0    0 -0.10213912159E+00  0.26275578661E-01  0.24996518743E-01  0.88664966709E+00  0.88000000000E+00 0. -1.
        -11    1    4    4    0    0  0.80259434145E-01 -0.23557292982E-01 -0.23755564932E-01  0.86954647996E-01  0.51100000000E-03 0. -1.
         11    1    4    4    0    0  0.44343370287E-01 -0.11719989118E-01  0.19830102682E-02  0.45911720552E-01  0.51100000000E-03 0.  1.
</event>
<event>
 8    1  0.1120016E+005  0.1043930E+01  0.7957747E-01            NaN
         13   -1    0    0    0    0  0.00000000000E+00  0.00000000000E+00  0.74505805969E-08  0.10566000000E+00  0.10566000000E+00 0.  1.
     999900   -1    0    0    0    0 -0.00000000000E+00 -0.00000000000E+00 -0.74505805969E-08  0.93827000000E+00  0.93827000000E+00 0. -1.
     999902    2    1    2    0    0 -0.11144243031E-01  0.11204989192E-01 -0.16273617692E-01  0.10212457198E+01  0.10209937530E+01 0.  0.
     999903    2    3    3    0    0  0.58092297988E-01 -0.35189567861E-01 -0.11160643269E+00  0.13218188680E+00  0.20075721869E-01 0.  0.
         14    1    1    2    0    0  0.11144243031E-01 -0.11204989192E-01  0.16273617692E-01  0.22684280203E-01  0.00000000000E+00 0. -1.
     999901    1    3    3    0    0 -0.69236541018E-01  0.46394557052E-01  0.95332814993E-01  0.88906383300E+00  0.88000000000E+00 0.  1.
        -11    1    4    4    0    0  0.23572302687E-01 -0.70815171310E-02 -0.26736579990E-01  0.36344286613E-01  0.51100000000E-03 0. -1.
         11    1    4    4    0    0  0.34519995301E-01 -0.28108050730E-01 -0.84869852695E-01  0.95837600183E-01  0.51100000000E-03 0.  1.
</event>
<event>
 8    1  0.1120016E+005  0.1043930E+01  0.7957747E-01            NaN
         13   -1    0    0    0    0  0.00000000000E+00  0.00000000000E+00  0.74505805969E-08  0.10566000000E+00  0.10566000000E+00 0. -1.
     999900   -1    0    0    0    0 -0.00000000000E+00 -0.00000000000E+00 -0.74505805969E-08  0.93827000000E+00  0.93827000000E+00 0.  1.
     999902    2    1    2    0    0 -0.24707976994E-01  0.10194182219E-01 -0.17454591790E-01  0.10120071516E+01  0.10115035376E+01 0.  0.
     999903    2    3    3    0    0  0.39219233633E-01 -0.77117185170E-01  0.80435719757E-01  0.11999118969E+00  0.21042149472E-01 0.  0.
         14    1    1    2    0    0  0.24707976994E-01 -0.10194182219E-01  0.17454591790E-01  0.31922848444E-01  0.00000000000E+00 0. -1.
     999901    1    3    3    0    0 -0.63927210627E-01  0.87311367389E-01 -0.97890311546E-01  0.89201596187E+00  0.88000000000E+00 0.  1.
        -11    1    4    4    0    0  0.28434990226E-01 -0.35845479217E-01  0.48679884490E-01  0.66808976376E-01  0.51100000000E-03 0.  1.
         11    1    4    4    0    0  0.10784243406E-01 -0.41271705954E-01  0.31755835267E-01  0.53182213311E-01  0.51100000000E-03 0. -1.
</event>
<event>
 8    1  0.1197175E+005  0.1043930E+01  0.7957747E-01            NaN
         13   -1    0    0    0    0  0.00000000000E+00  0.00000000000E+00  0.74505805969E-08  0.10566000000E+00  0.10566000000E+00 0.  1.
     999900   -1    0    0    0    0 -0.00000000000E+00 -0.00000000000E+00 -0.74505805969E-08  0.93827000000E+00  0.93827000000E+00 0. -1.
     999902    2    1    2    0    0 -0.13324175500E-01  0.88947270804E-02 -0.17935527171E-01  0.10198814458E+01  0.10195978769E+01 0.  0.
     999903    2    3    3    0    0  0.42498490855E-01  0.41966062228E-01 -0.11611326283E+00  0.13204770517E+00  0.19673193186E-01 0.  0.
         14    1    1    2    0    0  0.13324175500E-01 -0.88947270804E-02  0.17935527171E-01  0.24048554166E-01  0.00000000000E+00 0.  1.
     999901    1    3    3    0    0 -0.55822666355E-01 -0.33071335148E-01  0.98177735662E-01  0.88783374067E+00  0.88000000000E+00 0.  1.
        -11    1    4    4    0    0  0.34230916387E-01  0.26746873604E-01 -0.65926044336E-01  0.78953501044E-01  0.51100000000E-03 0. -1.
         11    1    4    4    0    0  0.82675744681E-02  0.15219188624E-01 -0.50187218497E-01  0.53094204123E-01  0.51100000000E-03 0.  1.
</event>
<event>
 8    1  0.1120016E+005  0.1043930E+01  0.7957747E-01            NaN
         13   -1    0    0    0    0  0.00000000000E+00  0.00000000000E+00  0.74505805969E-08  0.10566000000E+00  0.10566000000E+00 0. -1.
     999900   -1    0    0    0    0 -0.00000000000E+00 -0.00000000000E+00 -0.74505805969E-08  0.93827000000E+00  0.93827000000E+00 0. -1.
     999902    2    1    2    0    0  0.16763389252E-01 -0.12280608619E-01 -0.13444806917E-01  0.10191794970E+01  0.10188789230E+01 0.  0.
     999903    2    3    3    0    0 -0.78643718478E-01  0.12716016772E-01 -0.10015893545E+00  0.12943420332E+00  0.19361536615E-01 0.  0.
         14    1    1    2    0    0 -0.16763389252E-01  0.12280608619E-01  0.13444806917E-01  0.24750503032E-01  0.00000000000E+00 0. -1.
     999901    1    3    3    0    0  0.95407107730E-01 -0.24996625391E-01  0.86714128529E-01  0.88974529365E+00  0.88000000000E+00 0. -1.
        -11    1    4    4    0    0 -0.70130396636E-01  0.58978012467E-02 -0.91845835219E-01  0.11571073917E+00  0.51100000000E-03 0.  1.
         11    1    4    4    0    0 -0.85133218428E-02  0.68182155253E-02 -0.83131002275E-02  0.13723464145E-01  0.51100000000E-03 0. -1.
</event>
<event>
 8    1  0.1120016E+005  0.1043930E+01  0.7957747E-01            NaN
         13   -1    0    0    0    0  0.00000000000E+00  0.00000000000E+00  0.74505805969E-08  0.10566000000E+00  0.10566000000E+00 0.  1.
     999900   -1    0    0    0    0 -0.00000000000E+00 -0.00000000000E+00 -0.74505805969E-08  0.93827000000E+00  0.93827000000E+00 0.  1.
     999902    2    1    2    0    0 -0.15848608164E-01  0.32544533589E-02 -0.17877500691E-01  0.10198182834E+01  0.10195332051E+01 0.  0.
     999903    2    3    3    0    0  0.37591535151E-01 -0.10692207912E+00 -0.60820516698E-01  0.13030222403E+00  0.20834582196E-01 0.  0.
         14    1    1    2    0    0  0.15848608164E-01 -0.32544533589E-02  0.17877500691E-01  0.24111716619E-01  0.00000000000E+00 0.  1.
     999901    1    3    3    0    0 -0.53440143314E-01  0.11017653248E+00  0.42943016007E-01  0.88951605936E+00  0.88000000000E+00 0. -1.
        -11    1    4    4    0    0  0.36286126808E-01 -0.10138277484E+00 -0.51485558043E-01  0.11935733677E+00  0.51100000000E-03 0. -1.
         11    1    4    4    0    0  0.13054083426E-02 -0.55393042798E-02 -0.93349586549E-02  0.10944887251E-01  0.51100000000E-03 0.  1.
</event>
<event>
 8    1  0.1120016E+005  0.1043930E+01  0.7957747E-01            NaN
         13   -1    0    0    0    0  0.00000000000E+00  0.00000000000E+00  0.74505805969E-08  0.10566000000E+00  0.10566000000E+00 0. -1.
     999900   -1    0    0    0    0 -0.00000000000E+00 -0.00000000000E+00 -0.74505805969E-08  0.93827000000E+00  0.93827000000E+00 0.  1.
     999902    2    1    2    0    0 -0.27491726584E-02 -0.21256631267E-01 -0.11135798177E-01  0.10197761530E+01  0.10194900656E+01 0.  0.
     999903    2    3    3    0    0 -0.11535684438E+00  0.27794141866E-01 -0.50138884066E-01  0.13039001259E+00  0.20197322119E-01 0.  0.
         14    1    1    2    0    0  0.27491726584E-02  0.21256631267E-01  0.11135798177E-01  0.24153846985E-01  0.00000000000E+00 0. -1.
     999901    1    3    3    0    0  0.11260767172E+00 -0.49050773133E-01  0.39003085889E-01  0.88938614043E+00  0.88000000000E+00 0. -1.
        -11    1    4    4    0    0 -0.42978691343E-01  0.18040120523E-02 -0.23383616534E-01  0.48964037949E-01  0.51100000000E-03 0.  1.
         11    1    4    4    0    0 -0.72378153033E-01  0.25990129814E-01 -0.26755267533E-01  0.81425974639E-01  0.51100000000E-03 0. -1.
</event>
<event>
 8    1  0.1120016E+005  0.1043930E+01  0.7957747E-01            NaN
         13   -1    0    0    0    0  0.00000000000E+00  0.00000000000E+00  0.74505805969E-08  0.10566000000E+00  0.10566000000E+00 0. -1.
     999900   -1    0    0    0    0 -0.00000000000E+00 -0.00000000000E+00 -0.74505805969E-08  0.93827000000E+00  0.93827000000E+00 0.  1.
     999902    2    1    2    0    0  0.18439813423E-01 -0.14498627055E-01  0.32212988199E-02  0.10202527182E+01  0.10199779387E+01 0.  0.
     999903    2    3    3    0    0 -0.36238653178E-01  0.11799709655E+00  0.28784977418E-01  0.12828951656E+00  0.19826002009E-01 0.  0.
         14    1    1    2    0    0 -0.18439813423E-01  0.14498627055E-01 -0.32212988199E-02  0.23677281762E-01  0.00000000000E+00 0.  1.
     999901    1    3    3    0    0  0.54678466602E-01 -0.13249572361E+00 -0.25563678598E-01  0.89196320168E+00  0.88000000000E+00 0.  1.
        -11    1    4    4    0    0 -0.91988612700E-02  0.60219174402E-01  0.95897697341E-02  0.61670031773E-01  0.51100000000E-03 0.  1.
         11    1    4    4    0    0 -0.27039791908E-01  0.57777922149E-01  0.19195207684E-01  0.66619484787E-01  0.51100000000E-03 0. -1.
</event>
<event>
 8    1  0.1120016E+005  0.1043930E+01  0.7957747E-01            NaN
         13   -1    0    0    0    0  0.00000000000E+00  0.00000000000E+00  0.74505805969E-08  0.10566000000E+00  0.10566000000E+00 0. -1.
     999900   -1    0    0    0    0 -0.00000000000E+00 -0.00000000000E+00 -0.74505805969E-08  0.93827000000E+00  0.93827000000E+00 0. -1.
     999902    2    1    2    0    0  0.51043372117E-04 -0.14998869347E-01 -0.19539058613E-01  0.10192978361E+01  0.10190001645E+01 0.  0.
     999903    2    3    3    0    0 -0.74078457457E-01 -0.98474688032E-01 -0.42304207492E-01  0.13195255538E+00  0.20903321710E-01 0.  0.
         14    1    1    2    0    0 -0.51043372117E-04  0.14998869347E-01  0.19539058613E-01  0.24632163904E-01  0.00000000000E+00 0. -1.
     999901    1    3    3    0    0  0.74129500829E-01  0.83475818685E-01  0.22765148879E-01  0.88734528071E+00  0.88000000000E+00 0.  1.
        -11    1    4    4    0    0 -0.27433827753E-01 -0.25691392538E-01 -0.54744939345E-02  0.37985441429E-01  0.51100000000E-03 0. -1.
         11    1    4    4    0    0 -0.46644629705E-01 -0.72783295495E-01 -0.36829713558E-01  0.93967113955E-01  0.51100000000E-03 0.  1.
</event>
<event>
 8    1  0.1120016E+005  0.1043930E+01  0.7957747E-01            NaN
         13   -1    0    0    0    0  0.00000000000E+00  0.00000000000E+00  0.74505805969E-08  0.10566000000E+00  0.10566000000E+00 0. -1.
     999900   -1    0    0    0    0 -0.00000000000E+00 -0.00000000000E+00 -0.74505805969E-08  0.93827000000E+00  0.93827000000E+00 0. -1.
     999902    2    1    2    0    0  0.67810916975E-02  0.12778092540E-01 -0.17290709268E-01  0.10213860101E+01  0.10211371848E+01 0.  0.
     999903    2    3    3    0    0 -0.78756227843E-01  0.21440856517E-01 -0.10322840113E+00  0.13302968328E+00  0.19456106582E-01 0.  0.
         14    1    1    2    0    0 -0.67810916975E-02 -0.12778092540E-01  0.17290709268E-01  0.22543989899E-01  0.00000000000E+00 0. -1.
     999901    1    3    3    0    0  0.85537319540E-01 -0.86627639777E-02  0.85937691858E-01  0.88835632682E+00  0.88000000000E+00 0.  1.
        -11    1    4    4    0    0 -0.39834850573E-01  0.19859719012E-01 -0.48236497722E-01  0.65637219570E-01  0.51100000000E-03 0. -1.
         11    1    4    4    0    0 -0.38921377270E-01  0.15811375051E-02 -0.54991903405E-01  0.67392463714E-01  0.51100000000E-03 0.  1.
</event>
<event>
 8    1  0.1120016E+005  0.1043930E+01  0.7957747E-01            NaN
         13   -1    0    0    0    0  0.00000000000E+00  0.00000000000E+00  0.74505805969E-08  0.10566000000E+00  0.10566000000E+00 0.  1.
     999900   -1    0    0    0    0 -0.00000000000E+00 -0.00000000000E+00 -0.74505805969E-08  0.93827000000E+00  0.93827000000E+00 0. -1.
     999902    2    1    2    0    0  0.45928031357E-02 -0.13404939668E-01  0.18725684134E-01  0.10204472937E+01  0.10201770639E+01 0.  0.
     999903    2    3    3    0    0  0.11787895979E+00  0.47932379869E-01  0.23614042839E-01  0.13105428941E+00  0.20606832698E-01 0.  0.
         14    1    1    2    0    0 -0.45928031357E-02  0.13404939668E-01 -0.18725684134E-01  0.23482706284E-01  0.00000000000E+00 0. -1.
     999901    1    3    3    0    0 -0.11328615665E+00 -0.61337319537E-01 -0.48883587049E-02  0.88939300431E+00  0.88000000000E+00 0. -1.
        -11    1    4    4    0    0  0.80985068291E-01  0.24509073004E-01  0.21479638223E-01  0.87297834594E-01  0.51100000000E-03 0.  1.
         11    1    4    4    0    0  0.36893891495E-01  0.23423306865E-01  0.21344046158E-02  0.43756454817E-01  0.51100000000E-03 0. -1.
</event>
<event>
 8    1  0.1120016E+005  0.1043930E+01  0.7957747E-01            NaN
         13   -1    0    0    0    0  0.00000000000E+00  0.00000000000E+00  0.74505805969E-08  0.10566000000E+00  0.10566000000E+00 0. -1.
     999900   -1    0    0    0    0 -0.00000000000E+00 -0.00000000000E+00 -0.74505805969E-08  0.93827000000E+00  0.93827000000E+00 0. -1.
     999902    2    1    2    0    0 -0.11282080130E-01 -0.18401353256E-01  0.50791721623E-02  0.10217558456E+01  0.10215152054E+01 0.  0.
     999903    2    3    3    0    0 -0.94849327364E-01 -0.62625040101E-01  0.67829573186E-01  0.13446962790E+00  0.23726341458E-01 0.  0.
         14    1    1    2    0    0  0.11282080130E-01  0.18401353256E-01 -0.50791721623E-02  0.22174154405E-01  0.00000000000E+00 0.  1.
     999901    1    3    3    0    0  0.83567247234E-01  0.44223686845E-01 -0.62750401024E-01  0.88728621770E+00  0.88000000000E+00 0. -1.
        -11    1    4    4    0    0 -0.58140131825E-01 -0.24466110791E-01  0.34444554765E-01  0.71871788483E-01  0.51100000000E-03 0.  1.
         11    1    4    4    0    0 -0.36709195540E-01 -0.38158929310E-01  0.33385018422E-01  0.62597839414E-01  0.51100000000E-03 0. -1.
</event>
<event>
 7    1  0.1977480E+005  0.1043930E+01  0.7957747E-01            NaN
         13   -1    0    0    0    0  0.00000000000E+00  0.00000000000E+00  0.74505805969E-08  0.10566000000E+00  0.10566000000E+00 0.  1.
     999900   -1    0    0    0    0 -0.00000000000E+00 -0.00000000000E+00 -0.74505805969E-08  0.93827000000E+00  0.93827000000E+00 0.  1.
     999903    2    1    2    0    0  0.11117718707E-02  0.98517291817E-01  0.21304796588E-01  0.10269401995E+00  0.19628411840E-01 0.  0.
         14    1    1    2    0    0 -0.99835920401E-02 -0.50546607559E-01  0.27749644742E-01  0.58520717947E-01  0.00000000000E+00 0.  1.
     999901    1    1    2    0    0  0.88718201694E-02 -0.47970684258E-01 -0.49054441330E-01  0.88271526211E+00  0.88000000000E+00 0.  1.
        -11    1    3    3    0    0  0.10051722329E-01  0.50022596401E-01  0.83227718550E-02  0.51699389985E-01  0.51100000000E-03 0. -1.
         11    1    3    3    0    0 -0.89399504583E-02  0.48494695416E-01  0.12982024733E-01  0.50994629961E-01  0.51100000000E-03 0.  1.
</event>
<event>
 8    1  0.1120016E+005  0.1043930E+01  0.7957747E-01            NaN
         13   -1    0    0    0    0  0.00000000000E+00  0.00000000000E+00  0.74505805969E-08  0.10566000000E+00  0.10566000000E+00 0. -1.
     999900   -1    0    0    0    0 -0.00000000000E+00 -0.00000000000E+00 -0.74505805969E-08  0.93827000000E+00  0.93827000000E+00 0.  1.
     999902    2    1    2    0    0  0.19772214183E-01  0.28604518078E-02  0.25385786646E-01  0.10116258083E+01  0.10111098927E+01 0.  0.
     999903    2    3    3    0    0  0.11275322659E+00 -0.46462108522E-01 -0.13427973868E-01  0.12450423171E+00  0.21189044259E-01 0.  0.
         14    1    1    2    0    0 -0.19772214183E-01 -0.28604518078E-02 -0.25385786646E-01  0.32304191707E-01  0.00000000000E+00 0.  1.
     999901    1    3    3    0    0 -0.92981012412E-01  0.49322560330E-01  0.38813760513E-01  0.88712157658E+00  0.88000000000E+00 0.  1.
        -11    1    4    4    0    0  0.41814810910E-01 -0.26016015546E-01  0.10910717136E-02  0.49262186664E-01  0.51100000000E-03 0.  1.
         11    1    4    4    0    0  0.70938415684E-01 -0.20446092975E-01 -0.14519045581E-01  0.75242045050E-01  0.51100000000E-03 0. -1.
</event>
<event>
 7    1  0.1120016E+005  0.1043930E+01  0.7957747E-01            NaN
         13   -1    0    0    0    0  0.00000000000E+00  0.00000000000E+00  0.74505805969E-08  0.10566000000E+00  0.10566000000E+00 0.  1.
     999900   -1    0    0    0    0 -0.00000000000E+00 -0.00000000000E+00 -0.74505805969E-08  0.93827000000E+00  0.93827000000E+00 0.  1.
     999903    2    1    2    0    0 -0.32644885227E-01 -0.98136974701E-01 -0.12706346111E-01  0.10602521770E+00  0.19579101674E-01 0.  0.
         14    1    1    2    0    0 -0.39553052374E-01 -0.17289489315E-01 -0.18323697308E-01  0.46894864068E-01  0.00000000000E+00 0. -1.
     999901    1    1    2    0    0  0.72197937601E-01  0.11542646402E+00  0.31030043420E-01  0.89100991823E+00  0.88000000000E+00 0.  1.
        -11    1    3    3    0    0 -0.23303979167E-01 -0.49356655074E-01  0.66333094361E-03  0.54588057065E-01  0.51100000000E-03 0.  1.
         11    1    3    3    0    0 -0.93409060598E-02 -0.48780319627E-01 -0.13369677055E-01  0.51437160638E-01  0.51100000000E-03 0. -1.
</event>
<event>
 8    1  0.1120016E+005  0.1043930E+01  0.7957747E-01            NaN
         13   -1    0    0    0    0  0.00000000000E+00  0.00000000000E+00  0.74505805969E-08  0.10566000000E+00  0.10566000000E+00 0.  1.
     999900   -1    0    0    0    0 -0.00000000000E+00 -0.00000000000E+00 -0.74505805969E-08  0.93827000000E+00  0.93827000000E+00 0.  1.
     999902    2    1    2    0    0  0.17092830199E-01  0.15343377980E-01 -0.90855843173E-03  0.10209428390E+01  0.10206840211E+01 0.  0.
     999903    2    3    3    0    0  0.51635712774E-01 -0.11426976963E+00  0.28994983637E-01  0.13027623438E+00  0.20183188140E-01 0.  0.
         14    1    1    2    0    0 -0.17092830199E-01 -0.15343377980E-01  0.90855843173E-03  0.22987160992E-01  0.00000000000E+00 0.  1.
     999901    1    3    3    0    0 -0.34542882575E-01  0.12961314761E+00 -0.29903542069E-01  0.89066660463E+00  0.88000000000E+00 0.  1.
        -11    1    4    4    0    0  0.31692697244E-01 -0.90550092052E-01  0.23860264780E-01  0.98860101080E-01  0.51100000000E-03 0. -1.
         11    1    4    4    0    0  0.19943015530E-01 -0.23719677577E-01  0.51347188573E-02  0.31416133300E-01  0.51100000000E-03 0.  1.
</event>
<event>
 8    1  0.1120016E+005  0.1043930E+01  0.7957747E-01            NaN
         13   -1    0    0    0    0  0.00000000000E+00  0.00000000000E+00  0.74505805969E-08  0.10566000000E+00  0.10566000000E+00 0.  1.
     999900   -1    0    0    0    0 -0.00000000000E+00 -0.00000000000E+00 -0.74505805969E-08  0.93827000000E+00  0.93827000000E+00 0. -1.
     999902    2    1    2    0    0 -0.23987830394E-01  0.10946455714E-02 -0.58986432791E-02  0.10192033292E+01  0.10189033409E+01 0.  0.
     999903    2    3    3    0    0 -0.91412372598E-01  0.72829523381E-01  0.56653624433E-01  0.13150701414E+00  0.20593694838E-01 0.  0.
         14    1    1    2    0    0  0.23987830394E-01 -0.10946455714E-02  0.58986432791E-02  0.24726670793E-01  0.00000000000E+00 0.  1.
     999901    1    3    3    0    0  0.67424542203E-01 -0.71734877810E-01 -0.62552267712E-01  0.88769631507E+00  0.88000000000E+00 0.  1.
        -11    1    4    4    0    0 -0.10016027372E-01  0.13239333059E-01  0.18751644020E-02  0.16714607585E-01  0.51100000000E-03 0. -1.
         11    1    4    4    0    0 -0.81396345226E-01  0.59590190322E-01  0.54778460031E-01  0.11479240656E+00  0.51100000000E-03 0.  1.
</event>
<event>
 8    1  0.1120016E+005  0.1043930E+01  0.7957747E-01            NaN
         13   -1    0    0    0    0  0.00000000000E+00  0.00000000000E+00  0.74505805969E-08  0.10566000000E+00  0.10566000000E+00 0. -1.
     999900   -1    0    0    0    0 -0.00000000000E+00 -0.00000000000E+00 -0.74505805969E-08  0.93827000000E+00  0.93827000000E+00 0. -1.
     999902    2    1    2    0    0  0.41589478284E-02  0.20706625502E-01  0.14184066500E-01  0.10184889126E+01  0.10181711134E+01 0.  0.
     999903    2    3    3    0    0  0.27362265602E-01 -0.23044666646E-01 -0.12024569388E+00  0.12690384653E+00  0.19126137281E-01 0.  0.
         14    1    1    2    0    0 -0.41589478284E-02 -0.20706625502E-01 -0.14184066500E-01  0.25441087422E-01  0.00000000000E+00 0.  1.
     999901    1    3    3    0    0 -0.23203317774E-01  0.43751292148E-01  0.13442976038E+00  0.89158506605E+00  0.88000000000E+00 0.  1.
        -11    1    4    4    0    0  0.25388813930E-01 -0.99000628178E-02 -0.81999231089E-01  0.86410289531E-01  0.51100000000E-03 0. -1.
         11    1    4    4    0    0  0.19734516719E-02 -0.13144603828E-01 -0.38246462794E-01  0.40493557001E-01  0.51100000000E-03 0.  1.
</event>
<event>
 8    1  0.1120016E+005  0.1043930E+01  0.7957747E-01            NaN
         13   -1    0    0    0    0  0.00000000000E+00  0.00000000000E+00  0.74505805969E-08  0.10566000000E+00  0.10566000000E+00 0.  1.
     999900   -1    0    0    0    0 -0.00000000000E+00 -0.00000000000E+00 -0.74505805969E-08  0.93827000000E+00  0.93827000000E+00 0.  1.
     999902    2    1    2    0    0  0.36228352160E-02  0.23323078773E-01 -0.74629887496E-03  0.10203154303E+01  0.10200421214E+01 0.  0.
     999903    2    3    3    0    0  0.75448404805E-01 -0.53542519319E-01  0.85397230183E-01  0.12987287732E+00  0.31859287165E-01 0.  0.
         14    1    1    2    0    0 -0.36228352160E-02 -0.23323078773E-01  0.74629887496E-03  0.23614569665E-01  0.00000000000E+00 0.  1.
     999901    1    3    3    0    0 -0.71825569589E-01  0.76865598092E-01 -0.86143529057E-01  0.89044255301E+00  0.88000000000E+00 0.  1.
        -11    1    4    4    0    0  0.40156303468E-01 -0.92563293767E-02  0.36608059076E-01  0.55123674152E-01  0.51100000000E-03 0. -1.
         11    1    4    4    0    0  0.35292101337E-01 -0.44286189942E-01  0.48789171107E-01  0.74749203171E-01  0.51100000000E-03 0.  1.
</event>
<event>
 8    1  0.1120016E+005  0.1043930E+01  0.7957747E-01            NaN
         13   -1    0    0    0    0  0.00000000000E+00  0.00000000000E+00  0.74505805969E-08  0.10566000000E+00  0.10566000000E+00 0.  1.
     999900   -1    0    0    0    0 -0.00000000000E+00 -0.00000000000E+00 -0.74505805969E-08  0.93827000000E+00  0.93827000000E+00 0.  1.
     999902    2    1    2    0    0  0.17513902517E-02 -0.23407736674E-01 -0.52114267980E-02  0.10198852818E+01  0.10196018044E+01 0.  0.
     999903    2    3    3    0    0  0.42862449162E-01  0.97959492005E-01  0.67066552083E-01  0.12767217408E+00  0.19209633081E-01 0.  0.
         14    1    1    2    0    0 -0.17513902517E-02  0.23407736674E-01  0.52114267980E-02  0.24044718200E-01  0.00000000000E+00 0. -1.
     999901    1    3    3    0    0 -0.41111058910E-01 -0.12136722868E+00 -0.72277978881E-01  0.89221310772E+00  0.88000000000E+00 0. -1.
        -11    1    4    4    0    0  0.35633599271E-01  0.66903710453E-01  0.39285658911E-01  0.85378474959E-01  0.51100000000E-03 0. -1.
         11    1    4    4    0    0  0.72288498909E-02  0.31055781552E-01  0.27780893173E-01  0.42293699118E-01  0.51100000000E-03 0.  1.
</event>
<event>
 8    1  0.1120016E+005  0.1043930E+01  0.7957747E-01            NaN
         13   -1    0    0    0    0  0.00000000000E+00  0.00000000000E+00  0.74505805969E-08  0.10566000000E+00  0.10566000000E+00 0.  1.
     999900   -1    0    0    0    0 -0.00000000000E+00 -0.00000000000E+00 -0.74505805969E-08  0.93827000000E+00  0.93827000000E+00 0.  1.
     999902    2    1    2    0    0  0.14489188301E-01 -0.15855215704E-01 -0.78221604563E-02  0.10210715084E+01  0.10208156125E+01 0.  0.
     999903    2    3    3    0    0 -0.35301352796E-01  0.76791917407E-02  0.12328680982E+00  0.12965548412E+00  0.17485753907E-01 0.  0.
         14    1    1    2    0    0 -0.14489188301E-01  0.15855215704E-01  0.78221604563E-02  0.22858491570E-01  0.00000000000E+00 0.  1.
     999901    1    3    3    0    0  0.49790541098E-01 -0.23534407444E-01 -0.13110897028E+00  0.89141602431E+00  0.88000000000E+00 0. -1.
        -11    1    4    4    0    0 -0.22444258038E-02  0.48246244572E-02  0.75186853522E-02  0.92253020962E-02  0.51100000000E-03 0.  1.
         11    1    4    4    0    0 -0.33056926993E-01  0.28545672835E-02  0.11576812447E+00  0.12043018202E+00  0.51100000000E-03 0. -1.
</event>
<event>
 8    1  0.1120016E+005  0.1043930E+01  0.7957747E-01            NaN
         13   -1    0    0    0    0  0.00000000000E+00  0.00000000000E+00  0.74505805969E-08  0.10566000000E+00  0.10566000000E+00 0.  1.
     999900   -1    0    0    0    0 -0.00000000000E+00 -0.00000000000E+00 -0.74505805969E-08  0.93827000000E+00  0.93827000000E+00 0.  1.
     999902    2    1    2    0    0  0.84486242790E-02  0.13839801037E-01 -0.17344122153E-01  0.10201868343E+01  0.10199105054E+01 0.  0.
     999903    2    3    3    0    0 -0.34050756302E-01  0.83309324538E-02  0.12182303441E+00  0.12822044341E+00  0.19255439590E-01 0.  0.
         14    1    1    2    0    0 -0.84486242790E-02 -0.13839801037E-01  0.17344122153E-01  0.23743165716E-01  0.00000000000E+00 0.  1.
     999901    1    3    3    0    0  0.42499380581E-01  0.55088685835E-02 -0.13916715657E+00  0.89196639087E+00  0.88000000000E+00 0.  1.
        -11    1    4    4    0    0 -0.27303705262E-01  0.91946892637E-02  0.11506585506E+00  0.11861891398E+00  0.51100000000E-03 0.  1.
         11    1    4    4    0    0 -0.67470510405E-02 -0.86375680993E-03  0.67571793512E-02  0.96015294279E-02  0.51100000000E-03 0. -1.
</event>
<event>
 8    1  0.1120016E+005  0.1043930E+01  0.7957747E-01            NaN
         13   -1    0    0    0    0  0.00000000000E+00  0.00000000000E+00  0.74505805969E-08  0.10566000000E+00  0.10566000000E+00 0.  1.
     999900   -1    0    0    0    0 -0.00000000000E+00 -0.00000000000E+00 -0.74505805969E-08  0.93827000000E+00  0.93827000000E+00 0. -1.
     999902    2    1    2    0    0 -0.22071709990E-01  0.92618404103E-02  0.47543919188E-03  0.10199890704E+01  0.10197080639E+01 0.  0.
     999903    2    3    3    0    0  0.12306657852E+00  0.97025380116E-02  0.25792241276E-01  0.12774120263E+00  0.20323708951E-01 0.  0.
         14    1    1    2    0    0  0.22071709990E-01 -0.92618404103E-02 -0.47543919188E-03  0.23940929641E-01  0.00000000000E+00 0. -1.
     999901    1    3    3    0    0 -0.14513828851E+00 -0.44069760136E-03 -0.25316802085E-01  0.89224786773E+00  0.88000000000E+00 0.  1.
        -11    1    4    4    0    0  0.76062711526E-01  0.63833149567E-03  0.72827701635E-02  0.76414942347E-01  0.51100000000E-03 0.  1.
         11    1    4    4    0    0  0.47003866995E-01  0.90642065160E-02  0.18509471113E-01  0.51326260278E-01  0.51100000000E-03 0. -1.
</event>
<event>
 8    1  0.1120016E+005  0.1043930E+01  0.7957747E-01            NaN
         13   -1    0    0    0    0  0.00000000000E+00  0.00000000000E+00  0.74505805969E-08  0.10566000000E+00  0.10566000000E+00 0. -1.
     999900   -1    0    0    0    0 -0.00000000000E+00 -0.00000000000E+00 -0.74505805969E-08  0.93827000000E+00  0.93827000000E+00 0. -1.
     999902    2    1    2    0    0 -0.29079422739E-02 -0.13898599217E-01  0.18474240551E-01  0.10206292543E+01  0.10203632441E+01 0.  0.
     999903    2    3    3    0    0  0.12075030525E+00 -0.15695696395E-01  0.46681122293E-01  0.13153408504E+00  0.17178394708E-01 0.  0.
         14    1    1    2    0    0  0.29079422739E-02  0.13898599217E-01 -0.18474240551E-01  0.23300745747E-01  0.00000000000E+00 0.  1.
     999901    1    3    3    0    0 -0.12365824753E+00  0.17970971783E-02 -0.28206881742E-01  0.88909516921E+00  0.88000000000E+00 0.  1.
        -11    1    4    4    0    0  0.20058007910E-01  0.61964863546E-03  0.20090112209E-02  0.20174362266E-01  0.51100000000E-03 0.  1.
         11    1    4    4    0    0  0.10069229734E+00 -0.16315345031E-01  0.44672111072E-01  0.11135972277E+00  0.51100000000E-03 0. -1.
</event>
<event>
 8    1  0.1120016E+005  0.1043930E+01  0.7957747E-01            NaN
         13   -1    0    0    0    0  0.00000000000E+00  0.00000000000E+00  0.74505805969E-08  0.10566000000E+00  0.10566000000E+00 0. -1.
     999900   -1    0    0    0    0 -0.00000000000E+00 -0.00000000000E+00 -0.74505805969E-08  0.93827000000E+00  0.93827000000E+00 0. -1.
     999902    2    1    2    0    0  0.19117232176E-01 -0.14646074515E-01 -0.45935020889E-02  0.10194131420E+01  0.10191182845E+01 0.  0.
     999903    2    3    3    0    0 -0.13870808064E-01  0.96250439872E-01  0.80619071905E-01  0.12775881970E+00  0.19139873701E-01 0.  0.
         14    1    1    2    0    0 -0.19117232176E-01  0.14646074515E-01  0.45935020889E-02  0.24516858000E-01  0.00000000000E+00 0.  1.
     999901    1    3    3    0    0  0.32988040241E-01 -0.11089651439E+00 -0.85212573994E-01  0.89165432230E+00  0.88000000000E+00 0. -1.
        -11    1    4    4    0    0 -0.12883640269E-01  0.33620346350E-01  0.35465708668E-01  0.50541007980E-01  0.51100000000E-03 0. -1.
         11    1    4    4    0    0 -0.98716779592E-03  0.62630093522E-01  0.45153363237E-01  0.77217811724E-01  0.51100000000E-03 0.  1.
</event>
<event>
 8    1  0.1120016E+005  0.1043930E+01  0.7957747E-01            NaN
         13   -1    0    0    0    0  0.00000000000E+00  0.00000000000E+00  0.74505805969E-08  0.10566000000E+00  0.10566000000E+00 0. -1.
     999900   -1    0    0    0    0 -0.00000000000E+00 -0.00000000000E+00 -0.74505805969E-08  0.93827000000E+00  0.93827000000E+00 0.  1.
     999902    2    1    2    0    0 -0.58812920927E-02 -0.20115498204E-01 -0.13175683465E-01  0.10191747682E+01  0.10188740780E+01 0.  0.
     999903    2    3    3    0    0  0.56191220907E-01  0.63150276107E-01  0.92393339638E-01  0.12680096502E+00  0.19913433663E-01 0.  0.
         14    1    1    2    0    0  0.58812920927E-02  0.20115498204E-01  0.13175683465E-01  0.24755231759E-01  0.00000000000E+00 0. -1.
     999901    1    3    3    0    0 -0.62072513000E-01 -0.83265774311E-01 -0.10556902310E+00  0.89237380322E+00  0.88000000000E+00 0.  1.
        -11    1    4    4    0    0  0.98899163700E-02  0.74068570018E-02  0.24759594038E-01  0.27676173767E-01  0.51100000000E-03 0.  1.
         11    1    4    4    0    0  0.46301304537E-01  0.55743419105E-01  0.67633745599E-01  0.99124791249E-01  0.51100000000E-03 0. -1.
</event>
<event>
 8    1  0.1120016E+005  0.1043930E+01  0.7957747E-01            NaN
         13   -1    0    0    0    0  0.00000000000E+00  0.00000000000E+00  0.74505805969E-08  0.10566000000E+00  0.10566000000E+00 0.  1.
     999900   -1    0    0    0    0 -0.00000000000E+00 -0.00000000000E+00 -0.74505805969E-08  0.93827000000E+00  0.93827000000E+00 0.  1.
     999902    2    1    2    0    0 -0.17317726516E-01  0.28183948662E-02  0.11775132643E-01  0.10227994356E+01  0.10225811385E+01 0.  0.
     999903    2    3    3    0    0 -0.48048643390E-01 -0.43840731470E-01 -0.11314104649E+00  0.13222348990E+00  0.21247894360E-01 0.  0.
         14    1    1    2    0    0  0.17317726516E-01 -0.28183948662E-02 -0.11775132643E-01  0.21130564358E-01  0.00000000000E+00 0.  1.
     999901    1    3    3    0    0  0.30730916874E-01  0.46659126336E-01  0.12491617913E+00  0.89057594574E+00  0.88000000000E+00 0. -1.
        -11    1    4    4    0    0 -0.11131787035E-01 -0.19335210951E-01 -0.53114836820E-01  0.57612620810E-01  0.51100000000E-03 0.  1.
         11    1    4    4    0    0 -0.36916856355E-01 -0.24505520519E-01 -0.60026209665E-01  0.74610869093E-01  0.51100000000E-03 0. -1.
</event>
<event>
 8    1  0.1120016E+005  0.1043930E+01  0.7957747E-01            NaN
         13   -1    0    0    0    0  0.00000000000E+00  0.00000000000E+00  0.74505805969E-08  0.10566000000E+00  0.10566000000E+00 0.  1.
     999900   -1    0    0    0    0 -0.00000000000E+00 -0.00000000000E+00 -0.74505805969E-08  0.93827000000E+00  0.93827000000E+00 0.  1.
     999902    2    1    2    0    0  0.19273088804E-01  0.12141608871E-01 -0.99950803159E-02  0.10190548669E+01  0.10187512206E+01 0.  0.
     999903    2    3    3    0    0  0.62495507088E-01  0.11363120038E+00 -0.47060420455E-02  0.13215222928E+00  0.24986531698E-01 0.  0.
         14    1    1    2    0    0 -0.19273088804E-01 -0.12141608871E-01  0.99950803159E-02  0.24875133136E-01  0.00000000000E+00 0.  1.
     999901    1    3    3    0    0 -0.43222418283E-01 -0.10148959151E+00 -0.52890382704E-02  0.88690263758E+00  0.88000000000E+00 0.  1.
        -11    1    4    4    0    0  0.17114272607E-02  0.20846500326E-01 -0.35567373952E-02  0.21223031382E-01  0.51100000000E-03 0. -1.
         11    1    4    4    0    0  0.60784079827E-01  0.92784700053E-01 -0.11493046503E-02  0.11092919790E+00  0.51100000000E-03 0.  1.
</event>
<event>
 8    1  0.1120016E+005  0.1043930E+01  0.7957747E-01            NaN
         13   -1    0    0    0    0  0.00000000000E+00  0.00000000000E+00  0.74505805969E-08  0.10566000000E+00  0.10566000000E+00 0. -1.
     999900   -1    0    0    0    0 -0.00000000000E+00 -0.00000000000E+00 -0.74505805969E-08  0.93827000000E+00  0.93827000000E+00 0.  1.
     999902    2    1    2    0    0  0.89124614116E-02 -0.31603601153E-02  0.25011765784E-01  0.10171903614E+01  0.10168388383E+01 0.  0.
     999903    2    3    3    0    0 -0.12249504722E+00 -0.64377647988E-02  0.28226615570E-01  0.12742128464E+00  0.19823232417E-01 0.  0.
         14    1    1    2    0    0 -0.89124614116E-02  0.31603601153E-02 -0.25011765784E-01  0.26739638593E-01  0.00000000000E+00 0.  1.
     999901    1    3    3    0    0  0.13140750864E+00  0.32774046835E-02 -0.32148497860E-02  0.88976907676E+00  0.88000000000E+00 0. -1.
        -11    1    4    4    0    0 -0.75955892345E-01 -0.10605061216E-01  0.10346570448E-01  0.77389130673E-01  0.51100000000E-03 0.  1.
         11    1    4    4    0    0 -0.46539154879E-01  0.41672964170E-02  0.17880045122E-01  0.50032153969E-01  0.51100000000E-03 0. -1.
</event>
<event>
 8    1  0.1120016E+005  0.1043930E+01  0.7957747E-01            NaN
         13   -1    0    0    0    0  0.00000000000E+00  0.00000000000E+00  0.74505805969E-08  0.10566000000E+00  0.10566000000E+00 0. -1.
     999900   -1    0    0    0    0 -0.00000000000E+00 -0.00000000000E+00 -0.74505805969E-08  0.93827000000E+00  0.93827000000E+00 0. -1.
     999902    2    1    2    0    0  0.12836795696E-01  0.13214056001E-01  0.14712054197E-01  0.10203537590E+01  0.10200813470E+01 0.  0.
     999903    2    3    3    0    0  0.58222742938E-01  0.58057035027E-01  0.10314608767E+00  0.13362304723E+00  0.21342357802E-01 0.  0.
         14    1    1    2    0    0 -0.12836795696E-01 -0.13214056001E-01 -0.14712054197E-01  0.23576240974E-01  0.00000000000E+00 0.  1.
     999901    1    3    3    0    0 -0.45385947241E-01 -0.44842979026E-01 -0.88434033474E-01  0.88673071180E+00  0.88000000000E+00 0. -1.
        -11    1    4    4    0    0  0.38341822250E-01  0.23286279527E-01  0.56218660577E-01  0.71924579010E-01  0.51100000000E-03 0. -1.
         11    1    4    4    0    0  0.19880920687E-01  0.34770755500E-01  0.46927427094E-01  0.61698468215E-01  0.51100000000E-03 0.  1.
</event>
<event>
 8    1  0.1120016E+005  0.1043930E+01  0.7957747E-01            NaN
         13   -1    0    0    0    0  0.00000000000E+00  0.00000000000E+00  0.74505805969E-08  0.10566000000E+00  0.10566000000E+00 0.  1.
     999900   -1    0    0    0    0 -0.00000000000E+00 -0.00000000000E+00 -0.74505805969E-08  0.93827000000E+00  0.93827000000E+00 0.  1.
     999902    2    1    2    0    0 -0.74246360705E-02  0.40005594635E-02  0.21797786549E-01  0.10205575120E+01  0.10202898422E+01 0.  0.
     999903    2    3    3    0    0 -0.53689577970E-01 -0.11697513301E+00  0.14334075711E-01  0.13104569646E+00  0.20043859627E-01 0.  0.
         14    1    1    2    0    0  0.74246360705E-02 -0.40005594635E-02 -0.21797786549E-01  0.23372487998E-01  0.00000000000E+00 0. -1.
     999901    1    3    3    0    0  0.46264941899E-01  0.12097569247E+00  0.74637108371E-02  0.88951181555E+00  0.88000000000E+00 0. -1.
        -11    1    4    4    0    0 -0.10783982144E-01 -0.35349534857E-01 -0.34779754108E-02  0.37124672651E-01  0.51100000000E-03 0.  1.
         11    1    4    4    0    0 -0.42905595826E-01 -0.81625598148E-01  0.17812051122E-01  0.93921023804E-01  0.51100000000E-03 0. -1.
</event>
<event>
 8    1  0.1120016E+005  0.1043930E+01  0.7957747E-01            NaN
         13   -1    0    0    0    0  0.00000000000E+00  0.00000000000E+00  0.74505805969E-08  0.10566000000E+00  0.10566000000E+00 0. -1.
     999900   -1    0    0    0    0 -0.00000000000E+00 -0.00000000000E+00 -0.74505805969E-08  0.93827000000E+00  0.93827000000E+00 0. -1.
     999902    2    1    2    0    0  0.18078809456E-01  0.75297650145E-02 -0.80999554787E-02  0.10227368409E+01  0.10225172350E+01 0.  0.
     999903    2    3    3    0    0  0.89118698075E-01 -0.38979170868E-01 -0.91118783313E-01  0.13476056159E+00  0.19906234716E-01 0.  0.
         14    1    1    2    0    0 -0.18078809456E-01 -0.75297650145E-02  0.80999554787E-02  0.21193159068E-01  0.00000000000E+00 0.  1.
     999901    1    3    3    0    0 -0.71039888619E-01  0.46508935882E-01  0.83018827834E-01  0.88797627934E+00  0.88000000000E+00 0.  1.
        -11    1    4    4    0    0  0.43331824534E-01 -0.21027888892E-01 -0.58344103983E-01  0.75657879427E-01  0.51100000000E-03 0.  1.
         11    1    4    4    0    0  0.45786873541E-01 -0.17951281975E-01 -0.32774679329E-01  0.59102682167E-01  0.51100000000E-03 0. -1.
</event>
<event>
 8    1  0.1120016E+005  0.1043930E+01  0.7957747E-01            NaN
         13   -1    0    0    0    0  0.00000000000E+00  0.00000000000E+00  0.74505805969E-08  0.10566000000E+00  0.10566000000E+00 0. -1.
     999900   -1    0    0    0    0 -0.00000000000E+00 -0.00000000000E+00 -0.74505805969E-08  0.93827000000E+00  0.93827000000E+00 0.  1.
     999902    2    1    2    0    0  0.25119638187E-01  0.14719099367E-01 -0.16153124905E-01  0.10106347818E+01  0.10100861798E+01 0.  0.
     999903    2    3    3    0    0  0.12151550272E+00 -0.15483634449E-01  0.91507617049E-02  0.12449446873E+00  0.20233041445E-01 0.  0.
         14    1    1    2    0    0 -0.25119638187E-01 -0.14719099367E-01  0.16153124905E-01  0.33295218170E-01  0.00000000000E+00 0. -1.
     999901    1    3    3    0    0 -0.96395864535E-01  0.30202733816E-01 -0.25303886610E-01  0.88614031310E+00  0.88000000000E+00 0.  1.
        -11    1    4    4    0    0  0.10526423640E+00 -0.19798045330E-01  0.53274778757E-02  0.10724348561E+00  0.51100000000E-03 0. -1.
         11    1    4    4    0    0  0.16251266320E-01  0.43144108808E-02  0.38232838292E-02  0.17250983116E-01  0.51100000000E-03 0.  1.
</event>
<event>
 8    1  0.1120016E+005  0.1043930E+01  0.7957747E-01            NaN
         13   -1    0    0    0    0  0.00000000000E+00  0.00000000000E+00  0.74505805969E-08  0.10566000000E+00  0.10566000000E+00 0.  1.
     999900   -1    0    0    0    0 -0.00000000000E+00 -0.00000000000E+00 -0.74505805969E-08  0.93827000000E+00  0.93827000000E+00 0.  1.
     999902    2    1    2    0    0  0.10401543081E-01  0.23488278686E-01  0.90219540092E-02  0.10167034139E+01  0.10163387944E+01 0.  0.
     999903    2    3    3    0    0 -0.46368977647E-01 -0.90879959087E-01 -0.68339291219E-01  0.12412974858E+00  0.18129718888E-01 0.  0.
         14    1    1    2    0    0 -0.10401543081E-01 -0.23488278686E-01 -0.90219540092E-02  0.27226586056E-01  0.00000000000E+00 0.  1.
     999901    1    3    3    0    0  0.56770520728E-01  0.11436823777E+00  0.77361245229E-01  0.89257366536E+00  0.88000000000E+00 0. -1.
        -11    1    4    4    0    0 -0.40875089294E-01 -0.69012654631E-01 -0.46392249617E-01  0.92660786579E-01  0.51100000000E-03 0.  1.
         11    1    4    4    0    0 -0.54938883526E-02 -0.21867304457E-01 -0.21947041602E-01  0.31468962003E-01  0.51100000000E-03 0. -1.
</event>
<event>
 8    1  0.1120016E+005  0.1043930E+01  0.7957747E-01            NaN
         13   -1    0    0    0    0  0.00000000000E+00  0.00000000000E+00  0.74505805969E-08  0.10566000000E+00  0.10566000000E+00 0.  1.
     999900   -1    0    0    0    0 -0.00000000000E+00 -0.00000000000E+00 -0.74505805969E-08  0.93827000000E+00  0.93827000000E+00 0.  1.
     999902    2    1    2    0    0 -0.41015894504E-02  0.16562638356E-01 -0.18528176377E-01  0.10187419603E+01  0.10184305299E+01 0.  0.
     999903    2    3    3    0    0  0.87155625423E-01  0.83598338839E-01  0.42671888247E-01  0.12937864176E+00  0.18252605244E-01 0.  0.
         14    1    1    2    0    0  0.41015894504E-02 -0.16562638356E-01  0.18528176377E-01  0.25188039725E-01  0.00000000000E+00 0.  1.
     999901    1    3    3    0    0 -0.91257214874E-01 -0.67035700483E-01 -0.61200064624E-01  0.88936331851E+00  0.88000000000E+00 0.  1.
        -11    1    4    4    0    0  0.38757086523E-01  0.49686856745E-01  0.20762422669E-01  0.66349339145E-01  0.51100000000E-03 0.  1.
         11    1    4    4    0    0  0.48398538900E-01  0.33911482094E-01  0.21909465578E-01  0.63029302617E-01  0.51100000000E-03 0. -1.
</event>
<event>
 8    1  0.1120016E+005  0.1043930E+01  0.7957747E-01            NaN
         13   -1    0    0    0    0  0.00000000000E+00  0.00000000000E+00  0.74505805969E-08  0.10566000000E+00  0.10566000000E+00 0.  1.
     999900   -1    0    0    0    0 -0.00000000000E+00 -0.00000000000E+00 -0.74505805969E-08  0.93827000000E+00  0.93827000000E+00 0.  1.
     999902    2    1    2    0    0 -0.10300346778E-01  0.90462390355E-02  0.21118857110E-01  0.10187518803E+01  0.10184406983E+01 0.  0.
     999903    2    3    3    0    0 -0.22309541034E-01 -0.37600761691E-01  0.12250589957E+00  0.13162195986E+00  0.20127393942E-01 0.  0.
         14    1    1    2    0    0  0.10300346778E-01 -0.90462390355E-02 -0.21118857110E-01  0.25178119669E-01  0.00000000000E+00 0. -1.
     999901    1    3    3    0    0  0.12009194255E-01  0.46647000727E-01 -0.10138704246E+00  0.88712992047E+00  0.88000000000E+00 0.  1.
        -11    1    4    4    0    0 -0.67215283716E-02 -0.20583199395E-01  0.35319843489E-01  0.41431865829E-01  0.51100000000E-03 0. -1.
         11    1    4    4    0    0 -0.15588012662E-01 -0.17017562296E-01  0.87186056078E-01  0.90190094027E-01  0.51100000000E-03 0.  1.
</event>
<event>
 8    1  0.1120016E+005  0.1043930E+01  0.7957747E-01            NaN
         13   -1    0    0    0    0  0.00000000000E+00  0.00000000000E+00  0.74505805969E-08  0.10566000000E+00  0.10566000000E+00 0. -1.
     999900   -1    0    0    0    0 -0.00000000000E+00 -0.00000000000E+00 -0.74505805969E-08  0.93827000000E+00  0.93827000000E+00 0. -1.
     999902    2    1    2    0    0 -0.13424672948E-01 -0.49769660494E-02  0.19308441139E-01  0.10198923642E+01  0.10196090558E+01 0.  0.
     999903    2    3    3    0    0  0.10705457447E+00  0.32964276639E-01  0.62208396166E-01  0.12983888656E+00  0.20998248928E-01 0.  0.
         14    1    1    2    0    0  0.13424672948E-01  0.49769660494E-02 -0.19308441139E-01  0.24037635783E-01  0.00000000000E+00 0.  1.
     999901    1    3    3    0    0 -0.12047924742E+00 -0.37941242688E-01 -0.42899955027E-01  0.89005347766E+00  0.88000000000E+00 0.  1.
        -11    1    4    4    0    0  0.39049861836E-01  0.10441534724E-01  0.34086099119E-01  0.52877600466E-01  0.51100000000E-03 0.  1.
         11    1    4    4    0    0  0.68004712638E-01  0.22522741914E-01  0.28122297047E-01  0.76961286090E-01  0.51100000000E-03 0. -1.
</event>
<event>
 8    1  0.1120016E+005  0.1043930E+01  0.7957747E-01            NaN
         13   -1    0    0    0    0  0.00000000000E+00  0.00000000000E+00  0.74505805969E-08  0.10566000000E+00  0.10566000000E+00 0.  1.
     999900   -1    0    0    0    0 -0.00000000000E+00 -0.00000000000E+00 -0.74505805969E-08  0.93827000000E+00  0.93827000000E+00 0.  1.
     999902    2    1    2    0    0  0.15652645560E-01  0.14814643124E-01  0.66832209334E-02  0.10213657715E+01  0.10211164943E+01 0.  0.
     999903    2    3    3    0    0  0.14524410386E-01  0.89796289845E-01  0.95292700116E-01  0.13374245050E+00  0.23065389707E-01 0.  0.
         14    1    1    2    0    0 -0.15652645560E-01 -0.14814643124E-01 -0.66832209334E-02  0.22564228460E-01  0.00000000000E+00 0.  1.
     999901    1    3    3    0    0  0.11282351745E-02 -0.74981646721E-01 -0.88609479183E-01  0.88762332104E+00  0.88000000000E+00 0.  1.
        -11    1    4    4    0    0  0.12909588995E-01  0.19107092048E-01  0.25658436327E-01  0.34501520695E-01  0.51100000000E-03 0. -1.
         11    1    4    4    0    0  0.16148213914E-02  0.70689197797E-01  0.69634263790E-01  0.99240929802E-01  0.51100000000E-03 0.  1.
</event>
<event>
 8    1  0.1120016E+005  0.1043930E+01  0.7957747E-01            NaN
         13   -1    0    0    0    0  0.00000000000E+00  0.00000000000E+00  0.74505805969E-08  0.10566000000E+00  0.10566000000E+00 0.  1.
     999900   -1    0    0    0    0 -0.00000000000E+00 -0.00000000000E+00 -0.74505805969E-08  0.93827000000E+00  0.93827000000E+00 0. -1.
     999902    2    1    2    0    0  0.13673990930E-01 -0.12373535530E-01  0.20243202502E-01  0.10165462520E+01  0.10161773530E+01 0.  0.
     999903    2    3    3    0    0  0.30990540628E-01  0.75232914641E-01  0.97661626939E-01  0.12864515079E+00  0.19783235124E-01 0.  0.
         14    1    1    2    0    0 -0.13673990930E-01  0.12373535530E-01 -0.20243202502E-01  0.27383748045E-01  0.00000000000E+00 0. -1.
     999901    1    3    3    0    0 -0.17316549698E-01 -0.87606450171E-01 -0.77418424437E-01  0.88790110116E+00  0.88000000000E+00 0. -1.
        -11    1    4    4    0    0  0.20654529568E-01  0.49402743698E-01  0.48974294877E-01  0.72567095548E-01  0.51100000000E-03 0.  1.
         11    1    4    4    0    0  0.10336011060E-01  0.25830170943E-01  0.48687332062E-01  0.56078055244E-01  0.51100000000E-03 0. -1.
</event>
<event>
 8    1  0.1120016E+005  0.1043930E+01  0.7957747E-01            NaN
         13   -1    0    0    0    0  0.00000000000E+00  0.00000000000E+00  0.74505805969E-08  0.10566000000E+00  0.10566000000E+00 0. -1.
     999900   -1    0    0    0    0 -0.00000000000E+00 -0.00000000000E+00 -0.74505805969E-08  0.93827000000E+00  0.93827000000E+00 0.  1.
     999902    2    1    2    0    0 -0.33512180362E-02 -0.19669945966E-01  0.88990934062E-02  0.10220820871E+01  0.10218485511E+01 0.  0.
     999903    2    3    3    0    0 -0.75898112763E-01  0.43807960151E-01 -0.94426585453E-01  0.13080845207E+00  0.22689429253E-01 0.  0.
         14    1    1    2    0    0  0.33512180362E-02  0.19669945966E-01 -0.88990934062E-02  0.21847912946E-01  0.00000000000E+00 0.  1.
     999901    1    3    3    0    0  0.72546894727E-01 -0.63477906118E-01  0.10332567886E+00  0.89127363498E+00  0.88000000000E+00 0. -1.
        -11    1    4    4    0    0 -0.54846252670E-01  0.25427052914E-01 -0.76890261409E-01  0.97811143907E-01  0.51100000000E-03 0. -1.
         11    1    4    4    0    0 -0.21051860093E-01  0.18380907237E-01 -0.17536324044E-01  0.32997308166E-01  0.51100000000E-03 0.  1.
</event>
<event>
 8    1  0.1120016E+005  0.1043930E+01  0.7957747E-01            NaN
         13   -1    0    0    0    0  0.00000000000E+00  0.00000000000E+00  0.74505805969E-08  0.10566000000E+00  0.10566000000E+00 0. -1.
     999900   -1    0    0    0    0 -0.00000000000E+00 -0.00000000000E+00 -0.74505805969E-08  0.93827000000E+00  0.93827000000E+00 0.  1.
     999902    2    1    2    0    0  0.12088125246E-01  0.11450633827E-01 -0.17533196983E-01  0.10197504056E+01  0.10194637007E+01 0.  0.
     999903    2    3    3    0    0 -0.44810067757E-01  0.39381067940E-01  0.11105740076E+00  0.12814900628E+00  0.23013275774E-01 0.  0.
         14    1    1    2    0    0 -0.12088125246E-01 -0.11450633827E-01  0.17533196983E-01  0.24179594361E-01  0.00000000000E+00 0.  1.
     999901    1    3    3    0    0  0.56898193003E-01 -0.27930434113E-01 -0.12859059774E+00  0.89160139936E+00  0.88000000000E+00 0.  1.
        -11    1    4    4    0    0 -0.35419576146E-03  0.72832894863E-02  0.25504363327E-01  0.26531216144E-01  0.51100000000E-03 0.  1.
         11    1    4    4    0    0 -0.44455871996E-01  0.32097778454E-01  0.85553037432E-01  0.10161779013E+00  0.51100000000E-03 0. -1.
</event>
<event>
 6    1  0.1120016E+005  0.1043930E+01  0.7957747E-01            NaN
         13   -1    0    0    0    0  0.00000000000E+00  0.00000000000E+00  0.74505805969E-08  0.10566000000E+00  0.10566000000E+00 0.  1.
     999900   -1    0    0    0    0 -0.00000000000E+00 -0.00000000000E+00 -0.74505805969E-08  0.93827000000E+00  0.93827000000E+00 0. -1.
         14    1    1    2    0    0  0.67482801019E-02  0.36798343019E-01 -0.10767139650E-01  0.38930561639E-01  0.00000000000E+00 0.  1.
     999901    1    1    2    0    0  0.65163732866E-01 -0.92833428933E-01  0.45432524726E-01  0.88844159736E+00  0.88000000000E+00 0.  1.
        -11    1    1    2    0    0 -0.29207213182E-01  0.59172004449E-01 -0.89155693652E-02  0.66589307779E-01  0.51100000000E-03 0. -1.
         11    1    1    2    0    0 -0.42704799787E-01 -0.31369185355E-02 -0.25749815710E-01  0.49968533227E-01  0.51100000000E-03 0.  1.
</event>
<event>
 8    1  0.1120016E+005  0.1043930E+01  0.7957747E-01            NaN
         13   -1    0    0    0    0  0.00000000000E+00  0.00000000000E+00  0.74505805969E-08  0.10566000000E+00  0.10566000000E+00 0. -1.
     999900   -1    0    0    0    0 -0.00000000000E+00 -0.00000000000E+00 -0.74505805969E-08  0.93827000000E+00  0.93827000000E+00 0. -1.
     999902    2    1    2    0    0 -0.17409292659E-01  0.13353350584E-01 -0.63766024225E-02  0.10210814442E+01  0.10208257732E+01 0.  0.
     999903    2    3    3    0    0 -0.31377856168E-01 -0.58630671348E-01  0.11016604832E+00  0.13037441628E+00  0.20947666648E-01 0.  0.
         14    1    1    2    0    0  0.17409292659E-01 -0.13353350584E-01  0.63766024225E-02  0.22848555778E-01  0.00000000000E+00 0.  1.
     999901    1    3    3    0    0  0.13968563509E-01  0.71984021932E-01 -0.11654265074E+00  0.89070702794E+00  0.88000000000E+00 0. -1.
        -11    1    4    4    0    0 -0.19856817933E-01 -0.17568278400E-01  0.34477659286E-01  0.43496065744E-01  0.51100000000E-03 0.  1.
         11    1    4    4    0    0 -0.11521038235E-01 -0.41062392948E-01  0.75688389033E-01  0.86878350537E-01  0.51100000000E-03 0. -1.
</event>
<event>
 8    1  0.1120016E+005  0.1043930E+01  0.7957747E-01            NaN
         13   -1    0    0    0    0  0.00000000000E+00  0.00000000000E+00  0.74505805969E-08  0.10566000000E+00  0.10566000000E+00 0.  1.
     999900   -1    0    0    0    0 -0.00000000000E+00 -0.00000000000E+00 -0.74505805969E-08  0.93827000000E+00  0.93827000000E+00 0.  1.
     999902    2    1    2    0    0 -0.14233495892E-01  0.17403981985E-01 -0.93025445900E-02  0.10195983677E+01  0.10193080021E+01 0.  0.
     999903    2    3    3    0    0 -0.10338253055E+00 -0.24509066257E-01 -0.75190229965E-01  0.13165386433E+00  0.19761765052E-01 0.  0.
         14    1    1    2    0    0  0.14233495892E-01 -0.17403981985E-01  0.93025445900E-02  0.24331632294E-01  0.00000000000E+00 0.  1.
     999901    1    3    3    0    0  0.89149034662E-01  0.41913048242E-01  0.65887685375E-01  0.88794450338E+00  0.88000000000E+00 0. -1.
        -11    1    4    4    0    0 -0.36372928710E-01 -0.84884361411E-02 -0.38300259847E-01  0.53499668377E-01  0.51100000000E-03 0.  1.
         11    1    4    4    0    0 -0.67009601844E-01 -0.16020630116E-01 -0.36889970118E-01  0.78154195951E-01  0.51100000000E-03 0. -1.
</event>
<event>
 8    1  0.1120016E+005  0.1043930E+01  0.7957747E-01            NaN
         13   -1    0    0    0    0  0.00000000000E+00  0.00000000000E+00  0.74505805969E-08  0.10566000000E+00  0.10566000000E+00 0. -1.
     999900   -1    0    0    0    0 -0.00000000000E+00 -0.00000000000E+00 -0.74505805969E-08  0.93827000000E+00  0.93827000000E+00 0. -1.
     999902    2    1    2    0    0  0.23449284294E-01 -0.86295579165E-03  0.39730558075E-02  0.10201308656E+01  0.10198532169E+01 0.  0.
     999903    2    3    3    0    0 -0.35831604273E-01 -0.12286407897E+00  0.65046519843E-02  0.12973493860E+00  0.20232598187E-01 0.  0.
         14    1    1    2    0    0 -0.23449284294E-01  0.86295579165E-03 -0.39730558075E-02  0.23799134418E-01  0.00000000000E+00 0.  1.
     999901    1    3    3    0    0  0.59280888567E-01  0.12200112318E+00 -0.25315961768E-02  0.89039592698E+00  0.88000000000E+00 0. -1.
        -11    1    4    4    0    0 -0.10529383403E-01 -0.67279292614E-01 -0.16371261860E-02  0.68119838759E-01  0.51100000000E-03 0.  1.
         11    1    4    4    0    0 -0.25302220870E-01 -0.55584786359E-01  0.81417781703E-02  0.61615099840E-01  0.51100000000E-03 0. -1.
</event>
<event>
 8    1  0.1120016E+005  0.1043930E+01  0.7957747E-01            NaN
         13   -1    0    0    0    0  0.00000000000E+00  0.00000000000E+00  0.74505805969E-08  0.10566000000E+00  0.10566000000E+00 0.  1.
     999900   -1    0    0    0    0 -0.00000000000E+00 -0.00000000000E+00 -0.74505805969E-08  0.93827000000E+00  0.93827000000E+00 0. -1.
     999902    2    1    2    0    0 -0.42660501777E-03 -0.11434650608E-01 -0.20683547392E-01  0.10202922683E+01  0.10200184167E+01 0.  0.
     999903    2    3    3    0    0  0.96487543941E-01 -0.49335484269E-01 -0.73849757053E-01  0.13256738340E+00  0.19403308470E-01 0.  0.
         14    1    1    2    0    0  0.42660501777E-03  0.11434650608E-01  0.20683547392E-01  0.23637731682E-01  0.00000000000E+00 0.  1.
     999901    1    3    3    0    0 -0.96914148959E-01  0.37900833661E-01  0.53166209661E-01  0.88772488492E+00  0.88000000000E+00 0.  1.
        -11    1    4    4    0    0  0.57108897073E-01 -0.20664559198E-01 -0.33814233457E-01  0.69513406168E-01  0.51100000000E-03 0.  1.
         11    1    4    4    0    0  0.39378646868E-01 -0.28670925071E-01 -0.40035523596E-01  0.63053977227E-01  0.51100000000E-03 0. -1.
</event>
<event>
 8    1  0.1120016E+005  0.1043930E+01  0.7957747E-01            NaN
         13   -1    0    0    0    0  0.00000000000E+00  0.00000000000E+00  0.74505805969E-08  0.10566000000E+00  0.10566000000E+00 0.  1.
     999900   -1    0    0    0    0 -0.00000000000E+00 -0.00000000000E+00 -0.74505805969E-08  0.93827000000E+00  0.93827000000E+00 0. -1.
     999902    2    1    2    0    0 -0.16985406636E-01 -0.46043758742E-02 -0.15688630905E-01  0.10203537947E+01  0.10200813835E+01 0.  0.
     999903    2    3    3    0    0 -0.23252478850E-01 -0.96015286092E-01 -0.82623961742E-01  0.13306828869E+00  0.33478910737E-01 0.  0.
         14    1    1    2    0    0  0.16985406636E-01  0.46043758742E-02  0.15688630905E-01  0.23576205281E-01  0.00000000000E+00 0. -1.
     999901    1    3    3    0    0  0.62670722133E-02  0.91410910218E-01  0.66935330837E-01  0.88728550603E+00  0.88000000000E+00 0.  1.
        -11    1    4    4    0    0 -0.68556274510E-02 -0.36697169312E-01 -0.52829783250E-01  0.64691027063E-01  0.51100000000E-03 0.  1.
         11    1    4    4    0    0 -0.16396851399E-01 -0.59318116780E-01 -0.29794178491E-01  0.68377261623E-01  0.51100000000E-03 0. -1.
</event>
<event>
 8    1  0.1120016E+005  0.1043930E+01  0.7957747E-01            NaN
         13   -1    0    0    0    0  0.00000000000E+00  0.00000000000E+00  0.74505805969E-08  0.10566000000E+00  0.10566000000E+00 0.  1.
     999900   -1    0    0    0    0 -0.00000000000E+00 -0.00000000000E+00 -0.74505805969E-08  0.93827000000E+00  0.93827000000E+00 0. -1.
     999902    2    1    2    0    0  0.34836283779E-02 -0.24108639255E-01  0.15910195694E-02  0.10195190701E+01  0.10192267858E+01 0.  0.
     999903    2    3    3    0    0 -0.14669192145E-01 -0.12453815478E+00 -0.38585911583E-01  0.13271029804E+00  0.19955285952E-01 0.  0.
         14    1    1    2    0    0 -0.34836283779E-02  0.24108639255E-01 -0.15910195694E-02  0.24410929861E-01  0.00000000000E+00 0. -1.
     999901    1    3    3    0    0  0.18152820523E-01  0.10042951553E+00  0.40176931153E-01  0.88680877210E+00  0.88000000000E+00 0.  1.
        -11    1    4    4    0    0 -0.14866856127E-01 -0.10559004570E+00 -0.39546860818E-01  0.11372992783E+00  0.51100000000E-03 0.  1.
         11    1    4    4    0    0  0.19766398159E-03 -0.18948109084E-01  0.96094923447E-03  0.18980370211E-01  0.51100000000E-03 0. -1.
</event>
<event>
 8    1  0.1120016E+005  0.1043930E+01  0.7957747E-01            NaN
         13   -1    0    0    0    0  0.00000000000E+00  0.00000000000E+00  0.74505805969E-08  0.10566000000E+00  0.10566000000E+00 0. -1.
     999900   -1    0    0    0    0 -0.00000000000E+00 -0.00000000000E+00 -0.74505805969E-08  0.93827000000E+00  0.93827000000E+00 0.  1.
     999902    2    1    2    0    0  0.91694111068E-02 -0.29628594799E-02 -0.21788234843E-01  0.10201059824E+01  0.10198277460E+01 0.  0.
     999903    2    3    3    0    0 -0.68207586511E-02  0.10114458540E+00  0.75995189686E-01  0.12844705451E+00  0.21133552760E-01 0.  0.
         14    1    1    2    0    0 -0.91694111068E-02  0.29628594799E-02  0.21788234843E-01  0.23824017586E-01  0.00000000000E+00 0. -1.
     999901    1    3    3    0    0  0.15990169758E-01 -0.10410744488E+00 -0.97783424529E-01  0.89165892791E+00  0.88000000000E+00 0. -1.
        -11    1    4    4    0    0 -0.11102447075E-01  0.43862693442E-01  0.41766586120E-01  0.61578478742E-01  0.51100000000E-03 0. -1.
         11    1    4    4    0    0  0.42816884236E-02  0.57281891954E-01  0.34228603565E-01  0.66868575764E-01  0.51100000000E-03 0.  1.
</event>
<event>
 8    1  0.1120016E+005  0.1043930E+01  0.7957747E-01            NaN
         13   -1    0    0    0    0  0.00000000000E+00  0.00000000000E+00  0.74505805969E-08  0.10566000000E+00  0.10566000000E+00 0.  1.
     999900   -1    0    0    0    0 -0.00000000000E+00 -0.00000000000E+00 -0.74505805969E-08  0.93827000000E+00  0.93827000000E+00 0. -1.
     999902    2    1    2    0    0  0.10463962849E-01 -0.19895978187E-01 -0.88264870526E-03  0.10214328105E+01  0.10211850287E+01 0.  0.
     999903    2    3    3    0    0  0.29440699692E-01  0.59228062578E-01 -0.11113279373E+00  0.13082861960E+00  0.19771486309E-01 0.  0.
         14    1    1    2    0    0 -0.10463962849E-01  0.19895978187E-01  0.88264870526E-03  0.22497189497E-01  0.00000000000E+00 0. -1.
     999901    1    3    3    0    0 -0.18976736843E-01 -0.79124040765E-01  0.11025014502E+00  0.89060419090E+00  0.88000000000E+00 0.  1.
        -11    1    4    4    0    0  0.15395525926E-02  0.26207042682E-02 -0.65870535492E-04  0.30828189980E-02  0.51100000000E-03 0.  1.
         11    1    4    4    0    0  0.27901147099E-01  0.56607358310E-01 -0.11106692319E+00  0.12774580061E+00  0.51100000000E-03 0. -1.
</event>
<event>
 8    1  0.1120016E+005  0.1043930E+01  0.7957747E-01            NaN
         13   -1    0    0    0    0  0.00000000000E+00  0.00000000000E+00  0.74505805969E-08  0.10566000000E+00  0.10566000000E+00 0.  1.
     999900   -1    0    0    0    0 -0.00000000000E+00 -0.00000000000E+00 -0.74505805969E-08  0.93827000000E+00  0.93827000000E+00 0.  1.
     999902    2    1    2    0    0  0.50761137896E-02 -0.23208571998E-01 -0.14685899956E-02  0.10201274476E+01  0.10198497182E+01 0.  0.
     999903    2    3    3    0    0  0.10418715656E+00 -0.79496218665E-01 -0.80779065562E-02  0.13275211490E+00  0.19577003396E-01 0.  0.
         14    1    1    2    0    0 -0.50761137896E-02  0.23208571998E-01  0.14685899956E-02  0.23802552425E-01  0.00000000000E+00 0. -1.
     999901    1    3    3    0    0 -0.99111042775E-01  0.56287646668E-01  0.66093165606E-02  0.88737533267E+00  0.88000000000E+00 0. -1.
        -11    1    4    4    0    0  0.46222149963E-01 -0.24026132880E-01  0.18096644420E-03  0.52096411375E-01  0.51100000000E-03 0.  1.
         11    1    4    4    0    0  0.57965006602E-01 -0.55470085786E-01 -0.82588730004E-02  0.80655703528E-01  0.51100000000E-03 0. -1.
</event>
<event>
 8    1  0.1120016E+005  0.1043930E+01  0.7957747E-01            NaN
         13   -1    0    0    0    0  0.00000000000E+00  0.00000000000E+00  0.74505805969E-08  0.10566000000E+00  0.10566000000E+00 0. -1.
     999900   -1    0    0    0    0 -0.00000000000E+00 -0.00000000000E+00 -0.74505805969E-08  0.93827000000E+00  0.93827000000E+00 0. -1.
     999902    2    1    2    0    0 -0.18865270964E-01 -0.12681252365E-01  0.88392168864E-02  0.10195405686E+01  0.10192488051E+01 0.  0.
     999903    2    3    3    0    0  0.17085291393E-01  0.57390532338E-01  0.11336530337E+00  0.12986186213E+00  0.20659884877E-01 0.  0.
         14    1    1    2    0    0  0.18865270964E-01  0.12681252365E-01 -0.88392168864E-02  0.24389431425E-01  0.00000000000E+00 0.  1.
     999901    1    3    3    0    0 -0.35950562357E-01 -0.70071784703E-01 -0.10452608649E+00  0.88967870644E+00  0.88000000000E+00 0. -1.
        -11    1    4    4    0    0  0.11476947938E-02  0.28277957049E-01  0.67943741022E-01  0.73604165121E-01  0.51100000000E-03 0.  1.
         11    1    4    4    0    0  0.15937596599E-01  0.29112575289E-01  0.45421562351E-01  0.56257697009E-01  0.51100000000E-03 0. -1.
</event>
<event>
 7    1  0.1184999E+005  0.1043930E+01  0.7957747E-01            NaN
         13   -1    0    0    0    0  0.00000000000E+00  0.00000000000E+00  0.74505805969E-08  0.10566000000E+00  0.10566000000E+00 0. -1.
     999900   -1    0    0    0    0 -0.00000000000E+00 -0.00000000000E+00 -0.74505805969E-08  0.93827000000E+00  0.93827000000E+00 0. -1.
     999903    2    1    2    0    0 -0.46990574577E-01 -0.54643227588E-01 -0.43086502389E-01  0.86239771222E-01  0.19668630659E-01 0.  0.
         14    1    1    2    0    0 -0.39209690319E-01  0.46961682750E-01 -0.34174137148E-01  0.70076180771E-01  0.00000000000E+00 0.  1.
     999901    1    1    2    0    0  0.86200264895E-01  0.76815448377E-02  0.77260639537E-01  0.88761404801E+00  0.88000000000E+00 0.  1.
        -11    1    3    3    0    0 -0.22609196111E-01 -0.24704981356E-01 -0.88704481505E-02  0.34647623641E-01  0.51100000000E-03 0. -1.
         11    1    3    3    0    0 -0.24381378466E-01 -0.29938246232E-01 -0.34216054239E-01  0.51592147581E-01  0.51100000000E-03 0.  1.
</event>
<event>
 8    1  0.1120016E+005  0.1043930E+01  0.7957747E-01            NaN
         13   -1    0    0    0    0  0.00000000000E+00  0.00000000000E+00  0.74505805969E-08  0.10566000000E+00  0.10566000000E+00 0. -1.
     999900   -1    0    0    0    0 -0.00000000000E+00 -0.00000000000E+00 -0.74505805969E-08  0.93827000000E+00  0.93827000000E+00 0.  1.
     999902    2    1    2    0    0 -0.21587878826E-02 -0.62702253299E-02 -0.21133675024E-01  0.10217803203E+01  0.10215402168E+01 0.  0.
     999903    2    3    3    0    0 -0.10755711766E+00 -0.26262425289E-02  0.71456620863E-01  0.13066021087E+00  0.19763889602E-01 0.  0.
         14    1    1    2    0    0  0.21587878826E-02  0.62702253299E-02  0.21133675024E-01  0.22149679701E-01  0.00000000000E+00 0. -1.
     999901    1    3    3    0    0  0.10539832977E+00 -0.36439828009E-02 -0.92590295888E-01  0.89112010943E+00  0.88000000000E+00 0.  1.
        -11    1    4    4    0    0 -0.58390855901E-01  0.44929936131E-02  0.47984231913E-01  0.75712790714E-01  0.51100000000E-03 0. -1.
         11    1    4    4    0    0 -0.49166261755E-01 -0.71192361420E-02  0.23472388951E-01  0.54947420160E-01  0.51100000000E-03 0.  1.
</event>
<event>
 8    1  0.1120016E+005  0.1043930E+01  0.7957747E-01            NaN
         13   -1    0    0    0    0  0.00000000000E+00  0.00000000000E+00  0.74505805969E-08  0.10566000000E+00  0.10566000000E+00 0. -1.
     999900   -1    0    0    0    0 -0.00000000000E+00 -0.00000000000E+00 -0.74505805969E-08  0.93827000000E+00  0.93827000000E+00 0. -1.
     999902    2    1    2    0    0 -0.53802563188E-03 -0.21900445018E-01  0.92399739653E-02  0.10201540440E+01  0.10198769423E+01 0.  0.
     999903    2    3    3    0    0  0.46059105124E-01  0.10309251133E+00 -0.56236564295E-01  0.12769580478E+00  0.19853471723E-01 0.  0.
         14    1    1    2    0    0  0.53802563188E-03  0.21900445018E-01 -0.92399739653E-02  0.23775955973E-01  0.00000000000E+00 0.  1.
     999901    1    3    3    0    0 -0.46597130756E-01 -0.12499295634E+00  0.65476538260E-01  0.89245823924E+00  0.88000000000E+00 0.  1.
        -11    1    4    4    0    0  0.30025190473E-01  0.45115113919E-01 -0.31227749846E-01  0.62548533543E-01  0.51100000000E-03 0. -1.
         11    1    4    4    0    0  0.16033914651E-01  0.57977397406E-01 -0.25008814448E-01  0.65147271241E-01  0.51100000000E-03 0.  1.
</event>
<event>
 8    1  0.1120016E+005  0.1043930E+01  0.7957747E-01            NaN
         13   -1    0    0    0    0  0.00000000000E+00  0.00000000000E+00  0.74505805969E-08  0.10566000000E+00  0.10566000000E+00 0. -1.
     999900   -1    0    0    0    0 -0.00000000000E+00 -0.00000000000E+00 -0.74505805969E-08  0.93827000000E+00  0.93827000000E+00 0. -1.
     999902    2    1    2    0    0 -0.25161280976E-02  0.13645407485E-01 -0.17558564945E-01  0.10215507407E+01  0.10213055784E+01 0.  0.
     999903    2    3    3    0    0  0.33070272571E-01 -0.12235432892E+00 -0.23628698254E-01  0.13037221379E+00  0.19348747140E-01 0.  0.
         14    1    1    2    0    0  0.25161280976E-02 -0.13645407485E-01  0.17558564945E-01  0.22379259348E-01  0.00000000000E+00 0. -1.
     999901    1    3    3    0    0 -0.35586400669E-01  0.13599973640E+00  0.60701333088E-02  0.89117852686E+00  0.88000000000E+00 0. -1.
        -11    1    4    4    0    0  0.30040305344E-02 -0.50017065235E-02 -0.52045686248E-02  0.78351721851E-02  0.51100000000E-03 0. -1.
         11    1    4    4    0    0  0.30066242037E-01 -0.11735262239E+00 -0.18424129629E-01  0.12253704161E+00  0.51100000000E-03 0.  1.
</event>
<event>
 8    1  0.1120016E+005  0.1043930E+01  0.7957747E-01            NaN
         13   -1    0    0    0    0  0.00000000000E+00  0.00000000000E+00  0.74505805969E-08  0.10566000000E+00  0.10566000000E+00 0.  1.
     999900   -1    0    0    0    0 -0.00000000000E+00 -0.00000000000E+00 -0.74505805969E-08  0.93827000000E+00  0.93827000000E+00 0.  1.
     999902    2    1    2    0    0 -0.16732890054E-01  0.25562993864E-02  0.16962381043E-01  0.10199665560E+01  0.10196850145E+01 0.  0.
     999903    2    3    3    0    0 -0.55955202446E-01  0.11721009177E+00  0.83712248883E-02  0.13162107714E+00  0.19617345594E-01 0.  0.
         14    1    1    2    0    0  0.16732890054E-01 -0.25562993864E-02 -0.16962381043E-01  0.23963443967E-01  0.00000000000E+00 0.  1.
     999901    1    3    3    0    0  0.39222312392E-01 -0.11465379239E+00  0.85911561545E-02  0.88834547889E+00  0.88000000000E+00 0. -1.
        -11    1    4    4    0    0 -0.44885808887E-02  0.27842291378E-01  0.88491108534E-03  0.28220289442E-01  0.51100000000E-03 0.  1.
         11    1    4    4    0    0 -0.51466621557E-01  0.89367800396E-01  0.74863138030E-02  0.10340078770E+00  0.51100000000E-03 0. -1.
</event>
<event>
 8    1  0.1120016E+005  0.1043930E+01  0.7957747E-01            NaN
         13   -1    0    0    0    0  0.00000000000E+00  0.00000000000E+00  0.74505805969E-08  0.10566000000E+00  0.10566000000E+00 0.  1.
     999900   -1    0    0    0    0 -0.00000000000E+00 -0.00000000000E+00 -0.74505805969E-08  0.93827000000E+00  0.93827000000E+00 0.  1.
     999902    2    1    2    0    0  0.53440189753E-02  0.16277671611E-01 -0.18314212748E-01  0.10188514929E+01  0.10185427988E+01 0.  0.
     999903    2    3    3    0    0 -0.65290162155E-01 -0.10248838654E+00 -0.34693515314E-01  0.12791779967E+00  0.19815368180E-01 0.  0.
         14    1    1    2    0    0 -0.53440189753E-02 -0.16277671611E-01  0.18314212748E-01  0.25078507142E-01  0.00000000000E+00 0.  1.
     999901    1    3    3    0    0  0.70634181131E-01  0.11876605815E+00  0.16379302566E-01  0.89093369319E+00  0.88000000000E+00 0.  1.
        -11    1    4    4    0    0 -0.21740837479E-01 -0.23947788099E-01 -0.22392080066E-02  0.32425849914E-01  0.51100000000E-03 0. -1.
         11    1    4    4    0    0 -0.43549324676E-01 -0.78540598444E-01 -0.32454307307E-01  0.95491949752E-01  0.51100000000E-03 0.  1.
</event>
<event>
 8    1  0.1120016E+005  0.1043930E+01  0.7957747E-01            NaN
         13   -1    0    0    0    0  0.00000000000E+00  0.00000000000E+00  0.74505805969E-08  0.10566000000E+00  0.10566000000E+00 0. -1.
     999900   -1    0    0    0    0 -0.00000000000E+00 -0.00000000000E+00 -0.74505805969E-08  0.93827000000E+00  0.93827000000E+00 0. -1.
     999902    2    1    2    0    0  0.23233832804E-01  0.36637314446E-03  0.40696188756E-02  0.10203395991E+01  0.10200668559E+01 0.  0.
     999903    2    3    3    0    0  0.75276624003E-01  0.40194147920E-01 -0.98585600180E-01  0.13195184720E+00  0.20249191785E-01 0.  0.
         14    1    1    2    0    0 -0.23233832804E-01 -0.36637314446E-03 -0.40696188756E-02  0.23590400883E-01  0.00000000000E+00 0.  1.
     999901    1    3    3    0    0 -0.52042791199E-01 -0.39827774776E-01  0.10265521906E+00  0.88838775192E+00  0.88000000000E+00 0.  1.
        -11    1    4    4    0    0  0.31914064131E-01  0.25431420469E-01 -0.36191003727E-01  0.54546443589E-01  0.51100000000E-03 0. -1.
         11    1    4    4    0    0  0.43362559871E-01  0.14762727452E-01 -0.62394596453E-01  0.77405403610E-01  0.51100000000E-03 0.  1.
</event>
<event>
 8    1  0.1246058E+005  0.1043930E+01  0.7957747E-01            NaN
         13   -1    0    0    0    0  0.00000000000E+00  0.00000000000E+00  0.74505805969E-08  0.10566000000E+00  0.10566000000E+00 0. -1.
     999900   -1    0    0    0    0 -0.00000000000E+00 -0.00000000000E+00 -0.74505805969E-08  0.93827000000E+00  0.93827000000E+00 0.  1.
     999902    2    1    2    0    0  0.17916403757E-01  0.15118939565E-01  0.30628057588E-02  0.10202876516E+01  0.10200136918E+01 0.  0.
     999903    2    3    3    0    0 -0.43958818331E-01 -0.87971447065E-01  0.82317383546E-01  0.12858284677E+00  0.92759711615E-02 0.  0.
         14    1    1    2    0    0 -0.17916403757E-01 -0.15118939565E-01 -0.30628057588E-02  0.23642348366E-01  0.00000000000E+00 0. -1.
     999901    1    3    3    0    0  0.61875222088E-01  0.10309038663E+00 -0.79254577787E-01  0.89170480487E+00  0.88000000000E+00 0.  1.
        -11    1    4    4    0    0 -0.11076620615E-01 -0.24403438996E-01  0.27761109929E-01  0.38589632087E-01  0.51100000000E-03 0. -1.
         11    1    4    4    0    0 -0.32882197716E-01 -0.63568008069E-01  0.54556273617E-01  0.89993214680E-01  0.51100000000E-03 0.  1.
</event>
<event>
 8    1  0.1120016E+005  0.1043930E+01  0.7957747E-01            NaN
         13   -1    0    0    0    0  0.00000000000E+00  0.00000000000E+00  0.74505805969E-08  0.10566000000E+00  0.10566000000E+00 0.  1.
     999900   -1    0    0    0    0 -0.00000000000E+00 -0.00000000000E+00 -0.74505805969E-08  0.93827000000E+00  0.93827000000E+00 0. -1.
     999902    2    1    2    0    0 -0.51225538309E-02 -0.12696758308E-01 -0.19886871050E-01  0.10197859351E+01  0.10195000822E+01 0.  0.
     999903    2    3    3    0    0 -0.10357981530E+00 -0.20475913802E-01  0.72313789660E-01  0.12947401818E+00  0.19651870748E-01 0.  0.
         14    1    1    2    0    0  0.51225538309E-02  0.12696758308E-01  0.19886871050E-01  0.24144064891E-01  0.00000000000E+00 0.  1.
     999901    1    3    3    0    0  0.98457261471E-01  0.77791554944E-02 -0.92200660710E-01  0.89031191693E+00  0.88000000000E+00 0. -1.
        -11    1    4    4    0    0 -0.31566109443E-01 -0.10765785277E-01  0.13482307399E-01  0.35977147355E-01  0.51100000000E-03 0.  1.
         11    1    4    4    0    0 -0.72013705859E-01 -0.97101285252E-02  0.58831482261E-01  0.93496870822E-01  0.51100000000E-03 0. -1.
</event>
<event>
 8    1  0.1120016E+005  0.1043930E+01  0.7957747E-01            NaN
         13   -1    0    0    0    0  0.00000000000E+00  0.00000000000E+00  0.74505805969E-08  0.10566000000E+00  0.10566000000E+00 0. -1.
     999900   -1    0    0    0    0 -0.00000000000E+00 -0.00000000000E+00 -0.74505805969E-08  0.93827000000E+00  0.93827000000E+00 0.  1.
     999902    2    1    2    0    0  0.23678928088E-01 -0.95973270137E-02 -0.22728023217E-02  0.10182791530E+01  0.10179560243E+01 0.  0.
     999903    2    3    3    0    0 -0.35487419239E-01 -0.10342594105E+00 -0.65540257894E-01  0.12906194872E+00  0.20129058497E-01 0.  0.
         14    1    1    2    0    0 -0.23678928088E-01  0.95973270137E-02  0.22728023217E-02  0.25650846995E-01  0.00000000000E+00 0. -1.
     999901    1    3    3    0    0  0.59166347327E-01  0.93828614033E-01  0.63267455572E-01  0.88921720429E+00  0.88000000000E+00 0.  1.
        -11    1    4    4    0    0 -0.10674240307E-01 -0.36977398847E-01 -0.12422572751E-01  0.40445628520E-01  0.51100000000E-03 0. -1.
         11    1    4    4    0    0 -0.24813178932E-01 -0.66448542200E-01 -0.53117685143E-01  0.88616320196E-01  0.51100000000E-03 0.  1.
</event>
<event>
 8    1  0.1120016E+005  0.1043930E+01  0.7957747E-01            NaN
         13   -1    0    0    0    0  0.00000000000E+00  0.00000000000E+00  0.74505805969E-08  0.10566000000E+00  0.10566000000E+00 0. -1.
     999900   -1    0    0    0    0 -0.00000000000E+00 -0.00000000000E+00 -0.74505805969E-08  0.93827000000E+00  0.93827000000E+00 0.  1.
     999902    2    1    2    0    0  0.50087064877E-02  0.22624299518E-01  0.58723749829E-02  0.10200253800E+01  0.10197452353E+01 0.  0.
     999903    2    3    3    0    0 -0.20409551386E-01  0.11563869500E+00 -0.57801893333E-01  0.13247133768E+00  0.20463109814E-01 0.  0.
         14    1    1    2    0    0 -0.50087064877E-02 -0.22624299518E-01 -0.58723749829E-02  0.23904619999E-01  0.00000000000E+00 0. -1.
     999901    1    3    3    0    0  0.25418257874E-01 -0.93014395485E-01  0.63674268316E-01  0.88755404232E+00  0.88000000000E+00 0. -1.
        -11    1    4    4    0    0 -0.12577645711E-01  0.74876325053E-01 -0.26273167850E-01  0.80344269832E-01  0.51100000000E-03 0. -1.
         11    1    4    4    0    0 -0.78319056754E-02  0.40762369950E-01 -0.31528725484E-01  0.52127067845E-01  0.51100000000E-03 0.  1.
</event>
<event>
 8    1  0.1120016E+005  0.1043930E+01  0.7957747E-01            NaN
         13   -1    0    0    0    0  0.00000000000E+00  0.00000000000E+00  0.74505805969E-08  0.10566000000E+00  0.10566000000E+00 0.  1.
     999900   -1    0    0    0    0 -0.00000000000E+00 -0.00000000000E+00 -0.74505805969E-08  0.93827000000E+00  0.93827000000E+00 0.  1.
     999902    2    1    2    0    0  0.12885125098E-02  0.23959932659E-01 -0.70388633756E-02  0.10189243159E+01  0.10186174343E+01 0.  0.
     999903    2    3    3    0    0  0.72171144332E-01  0.80677008155E-01 -0.72673438021E-01  0.13182281581E+00  0.19451798266E-01 0.  0.
         14    1    1    2    0    0 -0.12885125098E-02 -0.23959932659E-01  0.70388633756E-02  0.25005684057E-01  0.00000000000E+00 0.  1.
     999901    1    3    3    0    0 -0.70882631822E-01 -0.56717075495E-01  0.65634574645E-01  0.88710150013E+00  0.88000000000E+00 0. -1.
        -11    1    4    4    0    0  0.15121306201E-01  0.71598394209E-02 -0.13914690776E-01  0.21766877180E-01  0.51100000000E-03 0. -1.
         11    1    4    4    0    0  0.57049838131E-01  0.73517168734E-01 -0.58758747245E-01  0.11005593863E+00  0.51100000000E-03 0.  1.
</event>
<event>
 8    1  0.1120016E+005  0.1043930E+01  0.7957747E-01            NaN
         13   -1    0    0    0    0  0.00000000000E+00  0.00000000000E+00  0.74505805969E-08  0.10566000000E+00  0.10566000000E+00 0. -1.
     999900   -1    0    0    0    0 -0.00000000000E+00 -0.00000000000E+00 -0.74505805969E-08  0.93827000000E+00  0.93827000000E+00 0. -1.
     999902    2    1    2    0    0  0.16182867318E-02  0.23123665206E-01  0.58628861615E-02  0.10200198311E+01  0.10197395548E+01 0.  0.
     999903    2    3    3    0    0 -0.79262672756E-01  0.58615039332E-01 -0.83970878413E-01  0.13104768723E+00  0.20102083959E-01 0.  0.
         14    1    1    2    0    0 -0.16182867318E-02 -0.23123665206E-01 -0.58628861615E-02  0.23910168938E-01  0.00000000000E+00 0.  1.
     999901    1    3    3    0    0  0.80880959487E-01 -0.35491374127E-01  0.89833764575E-01  0.88897214383E+00  0.88000000000E+00 0.  1.
        -11    1    4    4    0    0 -0.21138324918E-01  0.27133096767E-01 -0.25908504133E-01  0.43064433445E-01  0.51100000000E-03 0.  1.
         11    1    4    4    0    0 -0.58124347837E-01  0.31481942566E-01 -0.58062374280E-01  0.87983253789E-01  0.51100000000E-03 0. -1.
</event>
<event>
 8    1  0.1120016E+005  0.1043930E+01  0.7957747E-01            NaN
         13   -1    0    0    0    0  0.00000000000E+00  0.00000000000E+00  0.74505805969E-08  0.10566000000E+00  0.10566000000E+00 0.  1.
     999900   -1    0    0    0    0 -0.00000000000E+00 -0.00000000000E+00 -0.74505805969E-08  0.93827000000E+00  0.93827000000E+00 0.  1.
     999902    2    1    2    0    0 -0.41652682391E-02 -0.68797226089E-02  0.20854840489E-01  0.10215781675E+01  0.10213336125E+01 0.  0.
     999903    2    3    3    0    0 -0.63763352362E-01 -0.73676085925E-01 -0.85025461346E-01  0.13072221728E+00  0.19105974786E-01 0.  0.
         14    1    1    2    0    0  0.41652682391E-02  0.68797226089E-02 -0.20854840489E-01  0.22351832464E-01  0.00000000000E+00 0. -1.
     999901    1    3    3    0    0  0.59598084123E-01  0.66796363316E-01  0.10588030184E+00  0.89085595025E+00  0.88000000000E+00 0. -1.
        -11    1    4    4    0    0 -0.42990367039E-02 -0.42857858391E-02 -0.13030260395E-01  0.14383966206E-01  0.51100000000E-03 0.  1.
         11    1    4    4    0    0 -0.59464315658E-01 -0.69390300086E-01 -0.71995200951E-01  0.11633825108E+00  0.51100000000E-03 0. -1.
</event>
<event>
 8    1  0.1120016E+005  0.1043930E+01  0.7957747E-01            NaN
         13   -1    0    0    0    0  0.00000000000E+00  0.00000000000E+00  0.74505805969E-08  0.10566000000E+00  0.10566000000E+00 0. -1.
     999900   -1    0    0    0    0 -0.00000000000E+00 -0.00000000000E+00 -0.74505805969E-08  0.93827000000E+00  0.93827000000E+00 0. -1.
     999902    2    1    2    0    0  0.17229500599E-01  0.15434057620E-01 -0.53800620748E-02  0.10201810865E+01  0.10199046222E+01 0.  0.
     999903    2    3    3    0    0 -0.19058757330E-01  0.38964581613E-01 -0.12236593766E+00  0.13138627421E+00  0.20185527001E-01 0.  0.
         14    1    1    2    0    0 -0.17229500599E-01 -0.15434057620E-01  0.53800620748E-02  0.23748913521E-01  0.00000000000E+00 0. -1.
     999901    1    3    3    0    0  0.36288257929E-01 -0.23530523993E-01  0.11698587559E+00  0.88879481227E+00  0.88000000000E+00 0.  1.
        -11    1    4    4    0    0 -0.25037952774E-02  0.21832231967E-01 -0.77847656372E-01  0.80891495641E-01  0.51100000000E-03 0. -1.
         11    1    4    4    0    0 -0.16554962053E-01  0.17132349645E-01 -0.44518281291E-01  0.50494778572E-01  0.51100000000E-03 0.  1.
</event>
<event>
 8    1  0.1120016E+005  0.1043930E+01  0.7957747E-01            NaN
         13   -1    0    0    0    0  0.00000000000E+00  0.00000000000E+00  0.74505805969E-08  0.10566000000E+00  0.10566000000E+00 0.  1.
     999900   -1    0    0    0    0 -0.00000000000E+00 -0.00000000000E+00 -0.74505805969E-08  0.93827000000E+00  0.93827000000E+00 0.  1.
     999902    2    1    2    0    0  0.20234825108E-01 -0.88090668683E-02 -0.63047674075E-02  0.10209779217E+01  0.10207199022E+01 0.  0.
     999903    2    3    3    0    0 -0.56980231418E-01 -0.99283160242E-01 -0.61040640750E-01  0.13129048088E+00  0.20182612957E-01 0.  0.
         14    1    1    2    0    0 -0.20234825108E-01  0.88090668683E-02  0.63047674075E-02  0.22952078301E-01  0.00000000000E+00 0.  1.
     999901    1    3    3    0    0  0.77215056526E-01  0.90474093373E-01  0.54735873342E-01  0.88968744082E+00  0.88000000000E+00 0. -1.
        -11    1    4    4    0    0 -0.23239824989E-01 -0.49291650069E-01 -0.39248413291E-01  0.67159923309E-01  0.51100000000E-03 0.  1.
         11    1    4    4    0    0 -0.33740406429E-01 -0.49991510173E-01 -0.21792227459E-01  0.64130557568E-01  0.51100000000E-03 0. -1.
</event>
<event>
 8    1  0.1120016E+005  0.1043930E+01  0.7957747E-01            NaN
         13   -1    0    0    0    0  0.00000000000E+00  0.00000000000E+00  0.74505805969E-08  0.10566000000E+00  0.10566000000E+00 0.  1.
     999900   -1    0    0    0    0 -0.00000000000E+00 -0.00000000000E+00 -0.74505805969E-08  0.93827000000E+00  0.93827000000E+00 0. -1.
     999902    2    1    2    0    0  0.19620819644E-01  0.94010863847E-02  0.73796130255E-02  0.10209557606E+01  0.10206972369E+01 0.  0.
     999903    2    3    3    0    0 -0.31609658577E-01  0.12591582396E+00  0.75294416688E-02  0.13179870560E+00  0.21453229720E-01 0.  0.
         14    1    1    2    0    0 -0.19620819644E-01 -0.94010863847E-02 -0.73796130255E-02  0.22974239424E-01  0.00000000000E+00 0. -1.
     999901    1    3    3    0    0  0.51230478221E-01 -0.11651473758E+00 -0.14982864338E-03  0.88915705498E+00  0.88000000000E+00 0.  1.
        -11    1    4    4    0    0 -0.10984564103E-01  0.76001024295E-01 -0.26458464760E-02  0.76837998198E-01  0.51100000000E-03 0.  1.
         11    1    4    4    0    0 -0.20625094474E-01  0.49914799668E-01  0.10175288145E-01  0.54960707399E-01  0.51100000000E-03 0. -1.
</event>
<event>
 8    1  0.1120016E+005  0.1043930E+01  0.7957747E-01            NaN
         13   -1    0    0    0    0  0.00000000000E+00  0.00000000000E+00  0.74505805969E-08  0.10566000000E+00  0.10566000000E+00 0.  1.
     999900   -1    0    0    0    0 -0.00000000000E+00 -0.00000000000E+00 -0.74505805969E-08  0.93827000000E+00  0.93827000000E+00 0.  1.
     999902    2    1    2    0    0  0.16225320131E-01  0.13172546171E-01  0.13315164121E-01  0.10191495524E+01  0.10188482417E+01 0.  0.
     999903    2    3    3    0    0  0.10724753798E+00  0.32434666033E-02  0.74783954671E-01  0.13226622134E+00  0.19727112112E-01 0.  0.
         14    1    1    2    0    0 -0.16225320131E-01 -0.13172546171E-01 -0.13315164121E-01  0.24780447566E-01  0.00000000000E+00 0. -1.
     999901    1    3    3    0    0 -0.91022217850E-01  0.99290795680E-02 -0.61468790550E-01  0.88688333110E+00  0.88000000000E+00 0.  1.
        -11    1    4    4    0    0  0.12425225176E-01  0.66952852390E-02  0.11486406098E-01  0.18204716728E-01  0.51100000000E-03 0. -1.
         11    1    4    4    0    0  0.94822312805E-01 -0.34518186357E-02  0.63297548574E-01  0.11406150461E+00  0.51100000000E-03 0.  1.
</event>
<event>
 8    1  0.1120016E+005  0.1043930E+01  0.7957747E-01            NaN
         13   -1    0    0    0    0  0.00000000000E+00  0.00000000000E+00  0.74505805969E-08  0.10566000000E+00  0.10566000000E+00 0.  1.
     999900   -1    0    0    0    0 -0.00000000000E+00 -0.00000000000E+00 -0.74505805969E-08  0.93827000000E+00  0.93827000000E+00 0.  1.
     999902    2    1    2    0    0 -0.15473262204E-01 -0.11129448507E-01 -0.13130918053E-01  0.10207846446E+01  0.10205222110E+01 0.  0.
     999903    2    3    3    0    0  0.10564737380E+00 -0.78077956424E-02  0.69963112640E-01  0.12860424817E+00  0.20539869849E-01 0.  0.
         14    1    1    2    0    0  0.15473262204E-01  0.11129448507E-01  0.13130918053E-01  0.23145355392E-01  0.00000000000E+00 0.  1.
     999901    1    3    3    0    0 -0.12112063601E+00 -0.33216528647E-02 -0.83094030692E-01  0.89218039643E+00  0.88000000000E+00 0.  1.
        -11    1    4    4    0    0  0.73070892946E-01 -0.14866400685E-01  0.47951034536E-01  0.88656235536E-01  0.51100000000E-03 0. -1.
         11    1    4    4    0    0  0.32576480859E-01  0.70586050426E-02  0.22012078103E-01  0.39948012638E-01  0.51100000000E-03 0.  1.
</event>
<event>
 8    1  0.1120016E+005  0.1043930E+01  0.7957747E-01            NaN
         13   -1    0    0    0    0  0.00000000000E+00  0.00000000000E+00  0.74505805969E-08  0.10566000000E+00  0.10566000000E+00 0. -1.
     999900   -1    0    0    0    0 -0.00000000000E+00 -0.00000000000E+00 -0.74505805969E-08  0.93827000000E+00  0.93827000000E+00 0. -1.
     999902    2    1    2    0    0 -0.17788207827E-01 -0.11214463927E-01 -0.12093104083E-01  0.10196724712E+01  0.10193838927E+01 0.  0.
     999903    2    3    3    0    0  0.89200077912E-01  0.59129126245E-01 -0.68561422168E-01  0.12861501796E+00  0.19703978407E-01 0.  0.
         14    1    1    2    0    0  0.17788207827E-01  0.11214463927E-01  0.12093104083E-01  0.24257528836E-01  0.00000000000E+00 0. -1.
     999901    1    3    3    0    0 -0.10698828574E+00 -0.70343590172E-01  0.56468318084E-01  0.89105745320E+00  0.88000000000E+00 0.  1.
        -11    1    4    4    0    0  0.68516187811E-01  0.34881593130E-01 -0.50329630030E-01  0.91894103790E-01  0.51100000000E-03 0.  1.
         11    1    4    4    0    0  0.20683890101E-01  0.24247533116E-01 -0.18231792138E-01  0.36720914170E-01  0.51100000000E-03 0. -1.
</event>
<event>
 8    1  0.1120016E+005  0.1043930E+01  0.7957747E-01            NaN
         13   -1    0    0    0    0  0.00000000000E+00  0.00000000000E+00  0.74505805969E-08  0.10566000000E+00  0.10566000000E+00 0.  1.
     999900   -1    0    0    0    0 -0.00000000000E+00 -0.00000000000E+00 -0.74505805969E-08  0.93827000000E+00  0.93827000000E+00 0. -1.
     999902    2    1    2    0    0  0.78978227318E-02  0.48559917461E-02  0.24420852543E-01  0.10178084706E+01  0.10174732176E+01 0.  0.
     999903    2    3    3    0    0  0.30110930409E-01 -0.11507065436E+00  0.47256748066E-01  0.12910306343E+00  0.16925635068E-01 0.  0.
         14    1    1    2    0    0 -0.78978227318E-02 -0.48559917461E-02 -0.24420852543E-01  0.26121529409E-01  0.00000000000E+00 0. -1.
     999901    1    3    3    0    0 -0.22213107677E-01  0.11992664611E+00 -0.22835895523E-01  0.88870540716E+00  0.88000000000E+00 0. -1.
        -11    1    4    4    0    0  0.13289594295E-01 -0.69614441795E-01  0.35303662726E-01  0.79179502056E-01  0.51100000000E-03 0.  1.
         11    1    4    4    0    0  0.16821336114E-01 -0.45456212568E-01  0.11953085341E-01  0.49923561370E-01  0.51100000000E-03 0. -1.
</event>
<event>
 8    1  0.1120016E+005  0.1043930E+01  0.7957747E-01            NaN
         13   -1    0    0    0    0  0.00000000000E+00  0.00000000000E+00  0.74505805969E-08  0.10566000000E+00  0.10566000000E+00 0.  1.
     999900   -1    0    0    0    0 -0.00000000000E+00 -0.00000000000E+00 -0.74505805969E-08  0.93827000000E+00  0.93827000000E+00 0.  1.
     999902    2    1    2    0    0  0.16781537742E-01 -0.16824311698E-01  0.39974022223E-02  0.10198331808E+01  0.10195484588E+01 0.  0.
     999903    2    3    3    0    0  0.11924124394E+00  0.50156717164E-01  0.12220526888E-01  0.13132202753E+00  0.19025327985E-01 0.  0.
         14    1    1    2    0    0 -0.16781537742E-01  0.16824311698E-01 -0.39974022223E-02  0.24096819243E-01  0.00000000000E+00 0. -1.
     999901    1    3    3    0    0 -0.10245970620E+00 -0.66981028862E-01 -0.82231246657E-02  0.88851115322E+00  0.88000000000E+00 0.  1.
        -11    1    4    4    0    0  0.74006230783E-01  0.23402442850E-01  0.13313566506E-01  0.78753467861E-01  0.51100000000E-03 0. -1.
         11    1    4    4    0    0  0.45235013159E-01  0.26754274314E-01 -0.10930396176E-02  0.52568559674E-01  0.51100000000E-03 0.  1.
</event>
<event>
 8    1  0.1120016E+005  0.1043930E+01  0.7957747E-01            NaN
         13   -1    0    0    0    0  0.00000000000E+00  0.00000000000E+00  0.74505805969E-08  0.10566000000E+00  0.10566000000E+00 0. -1.
     999900   -1    0    0    0    0 -0.00000000000E+00 -0.00000000000E+00 -0.74505805969E-08  0.93827000000E+00  0.93827000000E+00 0.  1.
     999902    2    1    2    0    0  0.61460852538E-02  0.18684058016E-01 -0.12422538329E-01  0.10206665556E+01  0.10204014062E+01 0.  0.
     999903    2    3    3    0    0 -0.11262811913E+00  0.61792716633E-01 -0.19951466407E-01  0.13160955356E+00  0.20483664916E-01 0.  0.
         14    1    1    2    0    0 -0.61460852538E-02 -0.18684058016E-01  0.12422538329E-01  0.23263444423E-01  0.00000000000E+00 0. -1.
     999901    1    3    3    0    0  0.11877420439E+00 -0.43108658618E-01  0.75289280781E-02  0.88905700202E+00  0.88000000000E+00 0. -1.
        -11    1    4    4    0    0 -0.81671279861E-01  0.41595972160E-01 -0.23064016071E-01  0.94512606632E-01  0.51100000000E-03 0. -1.
         11    1    4    4    0    0 -0.30956839272E-01  0.20196744473E-01  0.31125496642E-02  0.37096946929E-01  0.51100000000E-03 0.  1.
</event>
<event>
 8    1  0.1120016E+005  0.1043930E+01  0.7957747E-01            NaN
         13   -1    0    0    0    0  0.00000000000E+00  0.00000000000E+00  0.74505805969E-08  0.10566000000E+00  0.10566000000E+00 0.  1.
     999900   -1    0    0    0    0 -0.00000000000E+00 -0.00000000000E+00 -0.74505805969E-08  0.93827000000E+00  0.93827000000E+00 0.  1.
     999902    2    1    2    0    0 -0.22072346543E-01  0.82531685680E-02 -0.15754976815E-02  0.10203125178E+01  0.10200391407E+01 0.  0.
     999903    2    3    3    0    0  0.49159530987E-01  0.41693557056E-01 -0.11121234418E+00  0.13002465531E+00  0.19575834690E-01 0.  0.
         14    1    1    2    0    0  0.22072346543E-01 -0.82531685680E-02  0.15754976815E-02  0.23617482217E-01  0.00000000000E+00 0. -1.
     999901    1    3    3    0    0 -0.71231877529E-01 -0.33440388488E-01  0.10963684650E+00  0.89028786247E+00  0.88000000000E+00 0. -1.
        -11    1    4    4    0    0  0.21965486884E-01  0.23820209452E-01 -0.72744353104E-01  0.79635965631E-01  0.51100000000E-03 0. -1.
         11    1    4    4    0    0  0.27194044102E-01  0.17873347605E-01 -0.38467991075E-01  0.50388689679E-01  0.51100000000E-03 0.  1.
</event>
<event>
 8    1  0.1120016E+005  0.1043930E+01  0.7957747E-01            NaN
         13   -1    0    0    0    0  0.00000000000E+00  0.00000000000E+00  0.74505805969E-08  0.10566000000E+00  0.10566000000E+00 0. -1.
     999900   -1    0    0    0    0 -0.00000000000E+00 -0.00000000000E+00 -0.74505805969E-08  0.93827000000E+00  0.93827000000E+00 0.  1.
     999902    2    1    2    0    0 -0.94264687683E-03  0.19881199653E-01 -0.14924111115E-01  0.10190527056E+01  0.10187490059E+01 0.  0.
     999903    2    3    3    0    0 -0.58110316118E-01  0.15998476605E-01 -0.11511022675E+00  0.13151652287E+00  0.20333995971E-01 0.  0.
         14    1    1    2    0    0  0.94264687683E-03 -0.19881199653E-01  0.14924111115E-01  0.24877294374E-01  0.00000000000E+00 0. -1.
     999901    1    3    3    0    0  0.57167669241E-01  0.38827230485E-02  0.10018611563E+00  0.88753618276E+00  0.88000000000E+00 0. -1.
        -11    1    4    4    0    0 -0.36257708063E-01  0.14312304502E-02 -0.78237016433E-01  0.86243618175E-01  0.51100000000E-03 0. -1.
         11    1    4    4    0    0 -0.21852608055E-01  0.14567246155E-01 -0.36873210312E-01  0.45272904690E-01  0.51100000000E-03 0.  1.
</event>
<event>
 8    1  0.1120016E+005  0.1043930E+01  0.7957747E-01            NaN
         13   -1    0    0    0    0  0.00000000000E+00  0.00000000000E+00  0.74505805969E-08  0.10566000000E+00  0.10566000000E+00 0. -1.
     999900   -1    0    0    0    0 -0.00000000000E+00 -0.00000000000E+00 -0.74505805969E-08  0.93827000000E+00  0.93827000000E+00 0.  1.
     999902    2    1    2    0    0  0.22248048683E-01  0.13324447407E-02 -0.70855477702E-02  0.10205429081E+01  0.10202748998E+01 0.  0.
     999903    2    3    3    0    0  0.28792175158E-02  0.12897582061E+00 -0.11926559028E-01  0.13110970748E+00  0.20111200609E-01 0.  0.
         14    1    1    2    0    0 -0.22248048683E-01 -0.13324447407E-02  0.70855477702E-02  0.23387091875E-01  0.00000000000E+00 0. -1.
     999901    1    3    3    0    0  0.19368831167E-01 -0.12764337587E+00  0.48410112577E-02  0.88943320065E+00  0.88000000000E+00 0. -1.
        -11    1    4    4    0    0  0.90245547429E-02  0.33765911364E-01  0.23541242072E-04  0.34954842780E-01  0.51100000000E-03 0. -1.
         11    1    4    4    0    0 -0.61453372271E-02  0.95209909243E-01 -0.11950100270E-01  0.96154864698E-01  0.51100000000E-03 0.  1.
</event>
<event>
 8    1  0.1120016E+005  0.1043930E+01  0.7957747E-01            NaN
         13   -1    0    0    0    0  0.00000000000E+00  0.00000000000E+00  0.74505805969E-08  0.10566000000E+00  0.10566000000E+00 0.  1.
     999900   -1    0    0    0    0 -0.00000000000E+00 -0.00000000000E+00 -0.74505805969E-08  0.93827000000E+00  0.93827000000E+00 0. -1.
     999902    2    1    2    0    0 -0.49254052996E-03  0.16617431835E-01 -0.16208610660E-01  0.10207114579E+01  0.10204473429E+01 0.  0.
     999903    2    3    3    0    0  0.10016229208E+00  0.30080625797E-01  0.74878282379E-01  0.13020066348E+00  0.20202148314E-01 0.  0.
         14    1    1    2    0    0  0.49254052996E-03 -0.16617431835E-01  0.16208610660E-01  0.23218542084E-01  0.00000000000E+00 0.  1.
     999901    1    3    3    0    0 -0.10065483261E+00 -0.13463193961E-01 -0.91086893038E-01  0.89051079443E+00  0.88000000000E+00 0. -1.
        -11    1    4    4    0    0  0.67757025121E-01  0.20753907432E-01  0.61803712414E-01  0.94030309560E-01  0.51100000000E-03 0.  1.
         11    1    4    4    0    0  0.32405266959E-01  0.93267183646E-02  0.13074569965E-01  0.36170353923E-01  0.51100000000E-03 0. -1.
</event>
<event>
 8    1  0.1120016E+005  0.1043930E+01  0.7957747E-01            NaN
         13   -1    0    0    0    0  0.00000000000E+00  0.00000000000E+00  0.74505805969E-08  0.10566000000E+00  0.10566000000E+00 0. -1.
     999900   -1    0    0    0    0 -0.00000000000E+00 -0.00000000000E+00 -0.74505805969E-08  0.93827000000E+00  0.93827000000E+00 0. -1.
     999902    2    1    2    0    0 -0.13428010711E-01 -0.98511408387E-02 -0.13637188356E-01  0.10224049134E+01  0.10221783003E+01 0.  0.
     999903    2    3    3    0    0 -0.11340717834E+00  0.62188202292E-01 -0.24306205884E-01  0.13375462849E+00  0.23894526453E-01 0.  0.
         14    1    1    2    0    0  0.13428010711E-01  0.98511408387E-02  0.13637188356E-01  0.21525086614E-01  0.00000000000E+00 0. -1.
     999901    1    3    3    0    0  0.99979167626E-01 -0.72039343130E-01  0.10669017527E-01  0.88865028490E+00  0.88000000000E+00 0.  1.
        -11    1    4    4    0    0 -0.64935648964E-01  0.38795297227E-01 -0.25103466864E-02  0.75685378739E-01  0.51100000000E-03 0. -1.
         11    1    4    4    0    0 -0.48471529372E-01  0.23392905065E-01 -0.21795859197E-01  0.58069249747E-01  0.51100000000E-03 0.  1.
</event>
<event>
 8    1  0.1120016E+005  0.1043930E+01  0.7957747E-01            NaN
         13   -1    0    0    0    0  0.00000000000E+00  0.00000000000E+00  0.74505805969E-08  0.10566000000E+00  0.10566000000E+00 0.  1.
     999900   -1    0    0    0    0 -0.00000000000E+00 -0.00000000000E+00 -0.74505805969E-08  0.93827000000E+00  0.93827000000E+00 0. -1.
     999902    2    1    2    0    0  0.18558768044E-01  0.14510318915E-01 -0.26798133759E-02  0.10202201154E+01  0.10199445697E+01 0.  0.
     999903    2    3    3    0    0  0.94399128787E-01  0.41842803565E-01 -0.81535797513E-01  0.13302391883E+00  0.19628066110E-01 0.  0.
         14    1    1    2    0    0 -0.18558768044E-01 -0.14510318915E-01  0.26798133759E-02  0.23709884565E-01  0.00000000000E+00 0.  1.
     999901    1    3    3    0    0 -0.75840360742E-01 -0.27332484650E-01  0.78855984137E-01  0.88719619660E+00  0.88000000000E+00 0.  1.
        -11    1    4    4    0    0  0.40987769813E-01  0.11431533688E-01 -0.42892129218E-01  0.60420800281E-01  0.51100000000E-03 0.  1.
         11    1    4    4    0    0  0.53411358973E-01  0.30411269877E-01 -0.38643668295E-01  0.72603118550E-01  0.51100000000E-03 0. -1.
</event>
<event>
 8    1  0.1120016E+005  0.1043930E+01  0.7957747E-01            NaN
         13   -1    0    0    0    0  0.00000000000E+00  0.00000000000E+00  0.74505805969E-08  0.10566000000E+00  0.10566000000E+00 0.  1.
     999900   -1    0    0    0    0 -0.00000000000E+00 -0.00000000000E+00 -0.74505805969E-08  0.93827000000E+00  0.93827000000E+00 0. -1.
     999902    2    1    2    0    0  0.13145912475E-01 -0.19175357352E-01 -0.53859763532E-02  0.10200654219E+01  0.10197862261E+01 0.  0.
     999903    2    3    3    0    0 -0.11000938824E+00 -0.10550056382E-01 -0.64383402484E-01  0.12949126995E+00  0.20233568315E-01 0.  0.
         14    1    1    2    0    0 -0.13145912475E-01  0.19175357352E-01  0.53859763532E-02  0.23864578053E-01  0.00000000000E+00 0. -1.
     999901    1    3    3    0    0  0.12315530072E+00 -0.86253009703E-02  0.58997426130E-01  0.89057415200E+00  0.88000000000E+00 0.  1.
        -11    1    4    4    0    0 -0.23981668688E-01  0.59237309641E-02 -0.12564832277E-01  0.27719075612E-01  0.51100000000E-03 0.  1.
         11    1    4    4    0    0 -0.86027719556E-01 -0.16473787346E-01 -0.51818570206E-01  0.10177219434E+00  0.51100000000E-03 0. -1.
</event>
<event>
 8    1  0.1120016E+005  0.1043930E+01  0.7957747E-01            NaN
         13   -1    0    0    0    0  0.00000000000E+00  0.00000000000E+00  0.74505805969E-08  0.10566000000E+00  0.10566000000E+00 0.  1.
     999900   -1    0    0    0    0 -0.00000000000E+00 -0.00000000000E+00 -0.74505805969E-08  0.93827000000E+00  0.93827000000E+00 0.  1.
     999902    2    1    2    0    0  0.15902986819E-01  0.13001757445E-01 -0.10091969003E-01  0.10210433549E+01  0.10207868210E+01 0.  0.
     999903    2    3    3    0    0  0.12747465304E+00  0.13112209408E-01  0.33766251635E-01  0.13291510265E+00  0.10224850097E-01 0.  0.
         14    1    1    2    0    0 -0.15902986819E-01 -0.13001757445E-01  0.10091969003E-01  0.22886645119E-01  0.00000000000E+00 0.  1.
     999901    1    3    3    0    0 -0.11157166622E+00 -0.11045196269E-03 -0.43858220638E-01  0.88812825224E+00  0.88000000000E+00 0. -1.
        -11    1    4    4    0    0  0.57296543994E-01  0.89720772785E-02  0.19439200923E-01  0.61168094444E-01  0.51100000000E-03 0. -1.
         11    1    4    4    0    0  0.70178109042E-01  0.41401321293E-02  0.14327050711E-01  0.71747008202E-01  0.51100000000E-03 0.  1.
</event>
<event>
 7    1  0.1120016E+005  0.1043930E+01  0.7957747E-01            NaN
         13   -1    0    0    0    0  0.00000000000E+00  0.00000000000E+00  0.74505805969E-08  0.10566000000E+00  0.10566000000E+00 0.  1.
     999900   -1    0    0    0    0 -0.00000000000E+00 -0.00000000000E+00 -0.74505805969E-08  0.93827000000E+00  0.93827000000E+00 0. -1.
     999903    2    1    2    0    0 -0.65027990078E-01 -0.48316835058E-01  0.83959392140E-01  0.11833186616E+00  0.19750822175E-01 0.  0.
         14    1    1    2    0    0  0.14271340545E-01  0.36749479087E-01  0.42776124774E-02  0.39654676176E-01  0.00000000000E+00 0. -1.
     999901    1    1    2    0    0  0.50756649533E-01  0.11567355971E-01 -0.88237004617E-01  0.88594345767E+00  0.88000000000E+00 0. -1.
        -11    1    3    3    0    0 -0.35989042273E-01 -0.20032841151E-01  0.30576251058E-01  0.51300040332E-01  0.51100000000E-03 0.  1.
         11    1    3    3    0    0 -0.29038947805E-01 -0.28283993907E-01  0.53383141081E-01  0.67031825827E-01  0.51100000000E-03 0. -1.
</event>
<event>
 8    1  0.1120016E+005  0.1043930E+01  0.7957747E-01            NaN
         13   -1    0    0    0    0  0.00000000000E+00  0.00000000000E+00  0.74505805969E-08  0.10566000000E+00  0.10566000000E+00 0. -1.
     999900   -1    0    0    0    0 -0.00000000000E+00 -0.00000000000E+00 -0.74505805969E-08  0.93827000000E+00  0.93827000000E+00 0.  1.
     999902    2    1    2    0    0  0.51061294382E-02 -0.63952569649E-02 -0.93458616099E-02  0.10315075607E+01  0.10314327563E+01 0.  0.
     999903    2    3    3    0    0 -0.10676187572E+00  0.57377196824E-01 -0.68423861857E-01  0.14017620447E+00  0.16652405422E-01 0.  0.
         14    1    1    2    0    0 -0.51061294382E-02  0.63952569649E-02  0.93458616099E-02  0.12422439322E-01  0.00000000000E+00 0. -1.
     999901    1    3    3    0    0  0.11186800516E+00 -0.63772453789E-01  0.59078000247E-01  0.89133135620E+00  0.88000000000E+00 0. -1.
        -11    1    4    4    0    0 -0.17494897712E-01  0.82008593908E-02 -0.18229516087E-01  0.26568814774E-01  0.51100000000E-03 0. -1.
         11    1    4    4    0    0 -0.89266978008E-01  0.49176337433E-01 -0.50194345770E-01  0.11360738970E+00  0.51100000000E-03 0.  1.
</event>
<event>
 8    1  0.1120016E+005  0.1043930E+01  0.7957747E-01            NaN
         13   -1    0    0    0    0  0.00000000000E+00  0.00000000000E+00  0.74505805969E-08  0.10566000000E+00  0.10566000000E+00 0. -1.
     999900   -1    0    0    0    0 -0.00000000000E+00 -0.00000000000E+00 -0.74505805969E-08  0.93827000000E+00  0.93827000000E+00 0. -1.
     999902    2    1    2    0    0 -0.11805692064E-01  0.11948693203E-01 -0.17281121568E-01  0.10198305644E+01  0.10195457799E+01 0.  0.
     999903    2    3    3    0    0 -0.11529043959E+00 -0.18476388084E-01  0.54325981373E-01  0.13035748681E+00  0.20211376410E-01 0.  0.
         14    1    1    2    0    0  0.11805692064E-01 -0.11948693203E-01  0.17281121568E-01  0.24099435616E-01  0.00000000000E+00 0. -1.
     999901    1    3    3    0    0  0.10348474753E+00  0.30425081286E-01 -0.71607102940E-01  0.88947307758E+00  0.88000000000E+00 0. -1.
        -11    1    4    4    0    0 -0.61773507346E-01 -0.20008409411E-01  0.28536385521E-01  0.70928760574E-01  0.51100000000E-03 0. -1.
         11    1    4    4    0    0 -0.53516932247E-01  0.15320213273E-02  0.25789595852E-01  0.59428726233E-01  0.51100000000E-03 0.  1.
</event>
<event>
 8    1  0.1120016E+005  0.1043930E+01  0.7957747E-01            NaN
         13   -1    0    0    0    0  0.00000000000E+00  0.00000000000E+00  0.74505805969E-08  0.10566000000E+00  0.10566000000E+00 0.  1.
     999900   -1    0    0    0    0 -0.00000000000E+00 -0.00000000000E+00 -0.74505805969E-08  0.93827000000E+00  0.93827000000E+00 0. -1.
     999902    2    1    2    0    0  0.13619035157E-01 -0.45783437306E-02  0.15519060362E-01  0.10227809909E+01  0.10225623085E+01 0.  0.
     999903    2    3    3    0    0 -0.10904920516E+00  0.60879334998E-01 -0.32945556341E-01  0.13054726373E+00  0.18951406495E-01 0.  0.
         14    1    1    2    0    0 -0.13619035157E-01  0.45783437306E-02 -0.15519060362E-01  0.21149009065E-01  0.00000000000E+00 0. -1.
     999901    1    3    3    0    0  0.12266824032E+00 -0.65457678729E-01  0.48464616703E-01  0.89223372720E+00  0.88000000000E+00 0.  1.
        -11    1    4    4    0    0 -0.69649007991E-01  0.49019040018E-01 -0.21984080103E-01  0.87962557361E-01  0.51100000000E-03 0.  1.
         11    1    4    4    0    0 -0.39400197173E-01  0.11860294980E-01 -0.10961476238E-01  0.42584706370E-01  0.51100000000E-03 0. -1.
</event>
<event>
 8    1  0.1120016E+005  0.1043930E+01  0.7957747E-01            NaN
         13   -1    0    0    0    0  0.00000000000E+00  0.00000000000E+00  0.74505805969E-08  0.10566000000E+00  0.10566000000E+00 0. -1.
     999900   -1    0    0    0    0 -0.00000000000E+00 -0.00000000000E+00 -0.74505805969E-08  0.93827000000E+00  0.93827000000E+00 0. -1.
     999902    2    1    2    0    0  0.15168631574E-01  0.16373412366E-01 -0.84166075952E-02  0.10200759584E+01  0.10197970120E+01 0.  0.
     999903    2    3    3    0    0 -0.80300953297E-01  0.37567107458E-01  0.91608871056E-01  0.12902673939E+00  0.19904360310E-01 0.  0.
         14    1    1    2    0    0 -0.15168631574E-01 -0.16373412366E-01  0.84166075952E-02  0.23854041581E-01  0.00000000000E+00 0. -1.
     999901    1    3    3    0    0  0.95469584870E-01 -0.21193695091E-01 -0.10002547865E+00  0.89104921903E+00  0.88000000000E+00 0. -1.
        -11    1    4    4    0    0 -0.50724217436E-01  0.15836300332E-01  0.44542733144E-01  0.69340109891E-01  0.51100000000E-03 0. -1.
         11    1    4    4    0    0 -0.29576735860E-01  0.21730807125E-01  0.47066137911E-01  0.59686629502E-01  0.51100000000E-03 0.  1.
</event>
<event>
 8    1  0.1120016E+005  0.1043930E+01  0.7957747E-01            NaN
         13   -1    0    0    0    0  0.00000000000E+00  0.00000000000E+00  0.74505805969E-08  0.10566000000E+00  0.10566000000E+00 0.  1.
     999900   -1    0    0    0    0 -0.00000000000E+00 -0.00000000000E+00 -0.74505805969E-08  0.93827000000E+00  0.93827000000E+00 0. -1.
     999902    2    1    2    0    0  0.30328088640E-02 -0.60564863076E-02 -0.22376599552E-01  0.10205507108E+01  0.10202828834E+01 0.  0.
     999903    2    3    3    0    0  0.86214634070E-01  0.60002526290E-02 -0.99386525204E-01  0.13319784432E+00  0.19875064284E-01 0.  0.
         14    1    1    2    0    0 -0.30328088640E-02  0.60564863076E-02  0.22376599552E-01  0.23379289201E-01  0.00000000000E+00 0.  1.
     999901    1    3    3    0    0 -0.83181825206E-01 -0.12056738937E-01  0.77009925651E-01  0.88735286648E+00  0.88000000000E+00 0.  1.
        -11    1    4    4    0    0  0.44434832565E-01  0.23678343982E-03 -0.36655985859E-01  0.57605840257E-01  0.51100000000E-03 0.  1.
         11    1    4    4    0    0  0.41779801505E-01  0.57634691891E-02 -0.62730539345E-01  0.75592004064E-01  0.51100000000E-03 0. -1.
</event>
<event>
 8    1  0.1120016E+005  0.1043930E+01  0.7957747E-01            NaN
         13   -1    0    0    0    0  0.00000000000E+00  0.00000000000E+00  0.74505805969E-08  0.10566000000E+00  0.10566000000E+00 0. -1.
     999900   -1    0    0    0    0 -0.00000000000E+00 -0.00000000000E+00 -0.74505805969E-08  0.93827000000E+00  0.93827000000E+00 0.  1.
     999902    2    1    2    0    0  0.13361352347E-01  0.17327051551E-01 -0.83241709398E-02  0.10205196546E+01  0.10202511069E+01 0.  0.
     999903    2    3    3    0    0  0.77611864067E-01  0.10390702139E+00  0.24008422696E-01  0.13335021412E+00  0.19636820198E-01 0.  0.
         14    1    1    2    0    0 -0.13361352347E-01 -0.17327051551E-01  0.83241709398E-02  0.23410345445E-01  0.00000000000E+00 0. -1.
     999901    1    3    3    0    0 -0.64250511720E-01 -0.86579969837E-01 -0.32332593636E-01  0.88716944044E+00  0.88000000000E+00 0. -1.
        -11    1    4    4    0    0  0.44208876674E-01  0.44133142808E-01  0.15363607967E-01  0.64330868498E-01  0.51100000000E-03 0. -1.
         11    1    4    4    0    0  0.33402987393E-01  0.59773878580E-01  0.86448147287E-02  0.69019345621E-01  0.51100000000E-03 0.  1.
</event>
<event>
 8    1  0.1120016E+005  0.1043930E+01  0.7957747E-01            NaN
         13   -1    0    0    0    0  0.00000000000E+00  0.00000000000E+00  0.74505805969E-08  0.10566000000E+00  0.10566000000E+00 0. -1.
     999900   -1    0    0    0    0 -0.00000000000E+00 -0.00000000000E+00 -0.74505805969E-08  0.93827000000E+00  0.93827000000E+00 0. -1.
     999902    2    1    2    0    0  0.23366318152E-01 -0.21301029379E-03  0.34590949716E-02  0.10203080709E+01  0.10200345896E+01 0.  0.
     999903    2    3    3    0    0  0.39657273870E-01  0.62689389859E-01  0.10719867584E+00  0.13183521940E+00  0.19654770385E-01 0.  0.
         14    1    1    2    0    0 -0.23366318152E-01  0.21301029379E-03 -0.34590949716E-02  0.23621929120E-01  0.00000000000E+00 0. -1.
     999901    1    3    3    0    0 -0.16290955719E-01 -0.62902400153E-01 -0.10373958087E+00  0.88847285148E+00  0.88000000000E+00 0. -1.
        -11    1    4    4    0    0  0.28634686225E-01  0.47232552000E-01  0.92828965823E-01  0.10802007795E+00  0.51100000000E-03 0. -1.
         11    1    4    4    0    0  0.11022587645E-01  0.15456837860E-01  0.14369710021E-01  0.23815141446E-01  0.51100000000E-03 0.  1.
</event>
<event>
 8    1  0.1120016E+005  0.1043930E+01  0.7957747E-01            NaN
         13   -1    0    0    0    0  0.00000000000E+00  0.00000000000E+00  0.74505805969E-08  0.10566000000E+00  0.10566000000E+00 0.  1.
     999900   -1    0    0    0    0 -0.00000000000E+00 -0.00000000000E+00 -0.74505805969E-08  0.93827000000E+00  0.93827000000E+00 0.  1.
     999902    2    1    2    0    0 -0.75827788481E-02 -0.15237269709E-01 -0.96331413884E-02  0.10243731512E+01  0.10241864491E+01 0.  0.
     999903    2    3    3    0    0  0.62441899542E-01 -0.11756921005E+00 -0.17241776375E-01  0.13564756195E+00  0.19531314372E-01 0.  0.
         14    1    1    2    0    0  0.75827788481E-02  0.15237269709E-01  0.96331413884E-02  0.19556848833E-01  0.00000000000E+00 0. -1.
     999901    1    3    3    0    0 -0.70024678390E-01  0.10233194034E+00  0.76086349864E-02  0.88872558921E+00  0.88000000000E+00 0.  1.
        -11    1    4    4    0    0  0.23372023155E-01 -0.36803242852E-01  0.28888036984E-02  0.43695954716E-01  0.51100000000E-03 0. -1.
         11    1    4    4    0    0  0.39069876387E-01 -0.80765967198E-01 -0.20130580073E-01  0.91951607237E-01  0.51100000000E-03 0.  1.
</event>
<event>
 8    1  0.1120016E+005  0.1043930E+01  0.7957747E-01            NaN
         13   -1    0    0    0    0  0.00000000000E+00  0.00000000000E+00  0.74505805969E-08  0.10566000000E+00  0.10566000000E+00 0. -1.
     999900   -1    0    0    0    0 -0.00000000000E+00 -0.00000000000E+00 -0.74505805969E-08  0.93827000000E+00  0.93827000000E+00 0. -1.
     999902    2    1    2    0    0 -0.22986714285E-01 -0.26786034473E-02 -0.10996331930E-02  0.10207616349E+01  0.10204986732E+01 0.  0.
     999903    2    3    3    0    0  0.39463096960E-02 -0.12091550355E+00 -0.47293736808E-01  0.13124533510E+00  0.18775198712E-01 0.  0.
         14    1    1    2    0    0  0.22986714285E-01  0.26786034473E-02  0.10996331930E-02  0.23168365138E-01  0.00000000000E+00 0.  1.
     999901    1    3    3    0    0 -0.26933023981E-01  0.11823690010E+00  0.46194103615E-01  0.88951629976E+00  0.88000000000E+00 0. -1.
        -11    1    4    4    0    0 -0.37729206286E-02 -0.81645877309E-01 -0.25217520058E-01  0.85536358647E-01  0.51100000000E-03 0.  1.
         11    1    4    4    0    0  0.77192303246E-02 -0.39269626239E-01 -0.22076216750E-01  0.45708976457E-01  0.51100000000E-03 0. -1.
</event>
<event>
 8    1  0.1120016E+005  0.1043930E+01  0.7957747E-01            NaN
         13   -1    0    0    0    0  0.00000000000E+00  0.00000000000E+00  0.74505805969E-08  0.10566000000E+00  0.10566000000E+00 0.  1.
     999900   -1    0    0    0    0 -0.00000000000E+00 -0.00000000000E+00 -0.74505805969E-08  0.93827000000E+00  0.93827000000E+00 0.  1.
     999902    2    1    2    0    0 -0.15895449803E-01  0.16128831167E-01 -0.74833887438E-02  0.10200803537E+01  0.10198015113E+01 0.  0.
     999903    2    3    3    0    0  0.75029210357E-01  0.99848941074E-01  0.34958429634E-01  0.13043005246E+00  0.13809900175E-01 0.  0.
         14    1    1    2    0    0  0.15895449803E-01 -0.16128831167E-01  0.74833887438E-02  0.23849646252E-01  0.00000000000E+00 0.  1.
     999901    1    3    3    0    0 -0.90924660160E-01 -0.83720109907E-01 -0.42441818378E-01  0.88965030128E+00  0.88000000000E+00 0.  1.
        -11    1    4    4    0    0  0.17875878470E-01  0.16916148883E-01  0.32126519482E-02  0.24825095723E-01  0.51100000000E-03 0.  1.
         11    1    4    4    0    0  0.57153331887E-01  0.82932792191E-01  0.31745777686E-01  0.10560495674E+00  0.51100000000E-03 0. -1.
</event>
<event>
 8    1  0.1120016E+005  0.1043930E+01  0.7957747E-01            NaN
         13   -1    0    0    0    0  0.00000000000E+00  0.00000000000E+00  0.74505805969E-08  0.10566000000E+00  0.10566000000E+00 0. -1.
     999900   -1    0    0    0    0 -0.00000000000E+00 -0.00000000000E+00 -0.74505805969E-08  0.93827000000E+00  0.93827000000E+00 0. -1.
     999902    2    1    2    0    0 -0.25884304710E-01 -0.91049478045E-03 -0.16112345925E-01  0.10134269850E+01  0.10129678278E+01 0.  0.
     999903    2    3    3    0    0  0.63989360015E-01 -0.10207622419E+00 -0.16681807946E-01  0.12308317239E+00  0.18894202003E-01 0.  0.
         14    1    1    2    0    0  0.25884304710E-01  0.91049478045E-03  0.16112345925E-01  0.30503014970E-01  0.00000000000E+00 0. -1.
     999901    1    3    3    0    0 -0.89873664725E-01  0.10116572941E+00  0.56946202161E-03  0.89034381264E+00  0.88000000000E+00 0.  1.
        -11    1    4    4    0    0  0.13399838293E-01 -0.18725875748E-01 -0.10701818122E-01  0.25396931328E-01  0.51100000000E-03 0.  1.
         11    1    4    4    0    0  0.50589521722E-01 -0.83350348443E-01 -0.59799898246E-02  0.97686241062E-01  0.51100000000E-03 0. -1.
</event>
<event>
 8    1  0.1120016E+005  0.1043930E+01  0.7957747E-01            NaN
         13   -1    0    0    0    0  0.00000000000E+00  0.00000000000E+00  0.74505805969E-08  0.10566000000E+00  0.10566000000E+00 0. -1.
     999900   -1    0    0    0    0 -0.00000000000E+00 -0.00000000000E+00 -0.74505805969E-08  0.93827000000E+00  0.93827000000E+00 0.  1.
     999902    2    1    2    0    0  0.68884964574E-03  0.62295717433E-02 -0.22247756641E-01  0.10208162648E+01  0.10205545560E+01 0.  0.
     999903    2    3    3    0    0 -0.94028546836E-01  0.19844842268E-01  0.84960657165E-01  0.12916027468E+00  0.15128711233E-01 0.  0.
         14    1    1    2    0    0 -0.68884964574E-03 -0.62295717433E-02  0.22247756641E-01  0.23113735170E-01  0.00000000000E+00 0. -1.
     999901    1    3    3    0    0  0.94717396482E-01 -0.13615270524E-01 -0.10720841381E+00  0.89165599015E+00  0.88000000000E+00 0.  1.
        -11    1    4    4    0    0 -0.57948072225E-01  0.87028117833E-02  0.42846357346E-01  0.72593315576E-01  0.51100000000E-03 0.  1.
         11    1    4    4    0    0 -0.36080474612E-01  0.11142030485E-01  0.42114299819E-01  0.56566959099E-01  0.51100000000E-03 0. -1.
</event>
<event>
 8    1  0.1120016E+005  0.1043930E+01  0.7957747E-01            NaN
         13   -1    0    0    0    0  0.00000000000E+00  0.00000000000E+00  0.74505805969E-08  0.10566000000E+00  0.10566000000E+00 0.  1.
     999900   -1    0    0    0    0 -0.00000000000E+00 -0.00000000000E+00 -0.74505805969E-08  0.93827000000E+00  0.93827000000E+00 0.  1.
     999902    2    1    2    0    0  0.14310393652E-01 -0.10886707109E-01 -0.14633475461E-01  0.10207471106E+01  0.10204838153E+01 0.  0.
     999903    2    3    3    0    0 -0.43798646359E-01  0.15919041755E-01 -0.12175370254E+00  0.13194457246E+00  0.20338849658E-01 0.  0.
         14    1    1    2    0    0 -0.14310393652E-01  0.10886707109E-01  0.14633475461E-01  0.23182889428E-01  0.00000000000E+00 0.  1.
     999901    1    3    3    0    0  0.58109040011E-01 -0.26805748864E-01  0.10712022708E+00  0.88880253811E+00  0.88000000000E+00 0. -1.
        -11    1    4    4    0    0 -0.93818634264E-02 -0.23983871832E-02 -0.42838803016E-01  0.43922611344E-01  0.51100000000E-03 0.  1.
         11    1    4    4    0    0 -0.34416782933E-01  0.18317428938E-01 -0.78914899528E-01  0.88021961117E-01  0.51100000000E-03 0. -1.
</event>
<event>
 8    1  0.1120016E+005  0.1043930E+01  0.7957747E-01            NaN
         13   -1    0    0    0    0  0.00000000000E+00  0.00000000000E+00  0.74505805969E-08  0.10566000000E+00  0.10566000000E+00 0.  1.
     999900   -1    0    0    0    0 -0.00000000000E+00 -0.00000000000E+00 -0.74505805969E-08  0.93827000000E+00  0.93827000000E+00 0. -1.
     999902    2    1    2    0    0  0.69943998341E-02 -0.12711392198E-02  0.24170117816E-01  0.10187361115E+01  0.10184245347E+01 0.  0.
     999903    2    3    3    0    0 -0.84489043086E-01 -0.44916546821E-01  0.86171720962E-01  0.13075055938E+00  0.22677052371E-01 0.  0.
         14    1    1    2    0    0 -0.69943998341E-02  0.12711392198E-02 -0.24170117816E-01  0.25193888529E-01  0.00000000000E+00 0. -1.
     999901    1    3    3    0    0  0.91483442920E-01  0.43645407601E-01 -0.62001603145E-01  0.88798555209E+00  0.88000000000E+00 0. -1.
        -11    1    4    4    0    0 -0.50425015968E-01 -0.26873854730E-01  0.65800462249E-01  0.87148426587E-01  0.51100000000E-03 0. -1.
         11    1    4    4    0    0 -0.34064027118E-01 -0.18042692091E-01  0.20371258713E-01  0.43602132791E-01  0.51100000000E-03 0.  1.
</event>
<event>
 8    1  0.1120016E+005  0.1043930E+01  0.7957747E-01            NaN
         13   -1    0    0    0    0  0.00000000000E+00  0.00000000000E+00  0.74505805969E-08  0.10566000000E+00  0.10566000000E+00 0.  1.
     999900   -1    0    0    0    0 -0.00000000000E+00 -0.00000000000E+00 -0.74505805969E-08  0.93827000000E+00  0.93827000000E+00 0.  1.
     999902    2    1    2    0    0  0.79396600887E-02  0.51221148269E-03 -0.22532072028E-01  0.10200345018E+01  0.10197545735E+01 0.  0.
     999903    2    3    3    0    0  0.59303224356E-01 -0.17028739470E-01 -0.11791311513E+00  0.13321803599E+00  0.60573928674E-02 0.  0.
         14    1    1    2    0    0 -0.79396600887E-02 -0.51221148269E-03  0.22532072028E-01  0.23895498170E-01  0.00000000000E+00 0.  1.
     999901    1    3    3    0    0 -0.51363564268E-01  0.17540950953E-01  0.95381043099E-01  0.88681646584E+00  0.88000000000E+00 0. -1.
        -11    1    4    4    0    0  0.12492923586E-01 -0.11204137924E-02 -0.24101983712E-01  0.27175268290E-01  0.51100000000E-03 0. -1.
         11    1    4    4    0    0  0.46810300771E-01 -0.15908325678E-01 -0.93811131415E-01  0.10604276770E+00  0.51100000000E-03 0.  1.
</event>
<event>
 8    1  0.1120016E+005  0.1043930E+01  0.7957747E-01            NaN
         13   -1    0    0    0    0  0.00000000000E+00  0.00000000000E+00  0.74505805969E-08  0.10566000000E+00  0.10566000000E+00 0. -1.
     999900   -1    0    0    0    0 -0.00000000000E+00 -0.00000000000E+00 -0.74505805969E-08  0.93827000000E+00  0.93827000000E+00 0.  1.
     999902    2    1    2    0    0  0.17272448517E-01 -0.14867583807E-01 -0.77720548257E-02  0.10198512259E+01  0.10195669353E+01 0.  0.
     999903    2    3    3    0    0 -0.93381698635E-01 -0.70909667383E-01  0.51127421558E-01  0.12920303288E+00  0.18195820980E-01 0.  0.
         14    1    1    2    0    0 -0.17272448517E-01  0.14867583807E-01  0.77720548257E-02  0.24078774102E-01  0.00000000000E+00 0. -1.
     999901    1    3    3    0    0  0.11065414715E+00  0.56042083575E-01 -0.58899476384E-01  0.89064819302E+00  0.88000000000E+00 0.  1.
        -11    1    4    4    0    0 -0.75885333601E-01 -0.54193291915E-01  0.47747583445E-01  0.10476444812E+00  0.51100000000E-03 0.  1.
         11    1    4    4    0    0 -0.17496365035E-01 -0.16716375468E-01  0.33798381128E-02  0.24438584756E-01  0.51100000000E-03 0. -1.
</event>
<event>
 8    1  0.1120016E+005  0.1043930E+01  0.7957747E-01            NaN
         13   -1    0    0    0    0  0.00000000000E+00  0.00000000000E+00  0.74505805969E-08  0.10566000000E+00  0.10566000000E+00 0.  1.
     999900   -1    0    0    0    0 -0.00000000000E+00 -0.00000000000E+00 -0.74505805969E-08  0.93827000000E+00  0.93827000000E+00 0.  1.
     999902    2    1    2    0    0 -0.10183119947E-01 -0.76141400413E-02 -0.19178822463E-01  0.10209191701E+01  0.10206598129E+01 0.  0.
     999903    2    3    3    0    0 -0.18155358829E-02 -0.72866911455E-01  0.10516381649E+00  0.12974632915E+00  0.21489501443E-01 0.  0.
         14    1    1    2    0    0  0.10183119947E-01  0.76141400413E-02  0.19178822463E-01  0.23010829874E-01  0.00000000000E+00 0.  1.
     999901    1    3    3    0    0 -0.83675840639E-02  0.65252771414E-01 -0.12434263895E+00  0.89117284098E+00  0.88000000000E+00 0.  1.
        -11    1    4    4    0    0  0.86691550692E-02 -0.22906580257E-01  0.27764089732E-01  0.37026631880E-01  0.51100000000E-03 0. -1.
         11    1    4    4    0    0 -0.10484690952E-01 -0.49960331198E-01  0.77399726758E-01  0.92719697265E-01  0.51100000000E-03 0.  1.
</event>
<event>
 8    1  0.1120016E+005  0.1043930E+01  0.7957747E-01            NaN
         13   -1    0    0    0    0  0.00000000000E+00  0.00000000000E+00  0.74505805969E-08  0.10566000000E+00  0.10566000000E+00 0. -1.
     999900   -1    0    0    0    0 -0.00000000000E+00 -0.00000000000E+00 -0.74505805969E-08  0.93827000000E+00  0.93827000000E+00 0. -1.
     999902    2    1    2    0    0 -0.88335520587E-02 -0.92614473209E-02  0.23396629547E-01  0.10172615107E+01  0.10169118805E+01 0.  0.
     999903    2    3    3    0    0  0.10598128243E+00  0.66013386466E-01 -0.29208665514E-04  0.12630836000E+00  0.19078824224E-01 0.  0.
         14    1    1    2    0    0  0.88335520587E-02  0.92614473209E-02 -0.23396629547E-01  0.26668489320E-01  0.00000000000E+00 0.  1.
     999901    1    3    3    0    0 -0.11481483449E+00 -0.75274833787E-01  0.23425838212E-01  0.89095315069E+00  0.88000000000E+00 0.  1.
        -11    1    4    4    0    0  0.59123479784E-01  0.32359735757E-01  0.86919475115E-02  0.67959910481E-01  0.51100000000E-03 0. -1.
         11    1    4    4    0    0  0.46857802644E-01  0.33653650709E-01 -0.87211561770E-02  0.58348449514E-01  0.51100000000E-03 0.  1.
</event>
<event>
 8    1  0.1120016E+005  0.1043930E+01  0.7957747E-01            NaN
         13   -1    0    0    0    0  0.00000000000E+00  0.00000000000E+00  0.74505805969E-08  0.10566000000E+00  0.10566000000E+00 0. -1.
     999900   -1    0    0    0    0 -0.00000000000E+00 -0.00000000000E+00 -0.74505805969E-08  0.93827000000E+00  0.93827000000E+00 0. -1.
     999902    2    1    2    0    0  0.14003772194E-01 -0.12778940078E-03 -0.18627951419E-01  0.10206250104E+01  0.10203589022E+01 0.  0.
     999903    2    3    3    0    0  0.21247593296E-02 -0.12837946666E+00  0.13055042824E-01  0.13068489119E+00  0.20550050635E-01 0.  0.
         14    1    1    2    0    0 -0.14003772194E-01  0.12778940078E-03  0.18627951419E-01  0.23304989592E-01  0.00000000000E+00 0. -1.
     999901    1    3    3    0    0  0.11879012865E-01  0.12825167726E+00 -0.31682994243E-01  0.88994011922E+00  0.88000000000E+00 0. -1.
        -11    1    4    4    0    0 -0.11002092579E-02 -0.22797769122E-01 -0.53819004976E-02  0.23455803361E-01  0.51100000000E-03 0.  1.
         11    1    4    4    0    0  0.32249685874E-02 -0.10558169754E+00  0.18436943322E-01  0.10722908783E+00  0.51100000000E-03 0. -1.
</event>
<event>
 8    1  0.1120016E+005  0.1043930E+01  0.7957747E-01            NaN
         13   -1    0    0    0    0  0.00000000000E+00  0.00000000000E+00  0.74505805969E-08  0.10566000000E+00  0.10566000000E+00 0.  1.
     999900   -1    0    0    0    0 -0.00000000000E+00 -0.00000000000E+00 -0.74505805969E-08  0.93827000000E+00  0.93827000000E+00 0.  1.
     999902    2    1    2    0    0  0.15094295053E-01 -0.15591921028E-01  0.10343084338E-01  0.10198899264E+01  0.10196065598E+01 0.  0.
     999903    2    3    3    0    0  0.11196793308E+00 -0.22325990228E-01 -0.61887287335E-01  0.13160670805E+00  0.21331230450E-01 0.  0.
         14    1    1    2    0    0 -0.15094295053E-01  0.15591921028E-01 -0.10343084338E-01  0.24040073588E-01  0.00000000000E+00 0. -1.
     999901    1    3    3    0    0 -0.96873638026E-01  0.67340692006E-02  0.72230371673E-01  0.88828321836E+00  0.88000000000E+00 0. -1.
        -11    1    4    4    0    0  0.39541909442E-01 -0.17778765940E-01 -0.19263213557E-01  0.47444490072E-01  0.51100000000E-03 0. -1.
         11    1    4    4    0    0  0.72426023637E-01 -0.45472242884E-02 -0.42624073777E-01  0.84162217978E-01  0.51100000000E-03 0.  1.
</event>
<event>
 8    1  0.1120016E+005  0.1043930E+01  0.7957747E-01            NaN
         13   -1    0    0    0    0  0.00000000000E+00  0.00000000000E+00  0.74505805969E-08  0.10566000000E+00  0.10566000000E+00 0.  1.
     999900   -1    0    0    0    0 -0.00000000000E+00 -0.00000000000E+00 -0.74505805969E-08  0.93827000000E+00  0.93827000000E+00 0.  1.
     999902    2    1    2    0    0 -0.21741197993E-01  0.36590658112E-02 -0.85850962491E-02  0.10202704918E+01  0.10199961294E+01 0.  0.
     999903    2    3    3    0    0 -0.73285294012E-01 -0.10683278983E+00  0.10827267180E-01  0.13165241640E+00  0.20764145233E-01 0.  0.
         14    1    1    2    0    0  0.21741197993E-01 -0.36590658112E-02  0.85850962491E-02  0.23659508245E-01  0.00000000000E+00 0.  1.
     999901    1    3    3    0    0  0.51544096019E-01  0.11049185564E+00 -0.19412363429E-01  0.88861807536E+00  0.88000000000E+00 0.  1.
        -11    1    4    4    0    0 -0.40626671324E-01 -0.59687574270E-01 -0.43157353228E-02  0.72332701025E-01  0.51100000000E-03 0. -1.
         11    1    4    4    0    0 -0.32658622688E-01 -0.47145215561E-01  0.15143002503E-01  0.59319715373E-01  0.51100000000E-03 0.  1.
</event>
<event>
 7    1  0.1120016E+005  0.1043930E+01  0.7957747E-01            NaN
         13   -1    0    0    0    0  0.00000000000E+00  0.00000000000E+00  0.74505805969E-08  0.10566000000E+00  0.10566000000E+00 0.  1.
     999900   -1    0    0    0    0 -0.00000000000E+00 -0.00000000000E+00 -0.74505805969E-08  0.93827000000E+00  0.93827000000E+00 0. -1.
     999903    2    1    2    0    0 -0.52825427112E-01 -0.98067681974E-01 -0.26929995506E-01  0.11550879476E+00  0.14465856791E-01 0.  0.
         14    1    1    2    0    0 -0.11990230016E-01 -0.19092101676E-01  0.30942190793E-01  0.38284371920E-01  0.00000000000E+00 0.  1.
     999901    1    1    2    0    0  0.64815657128E-01  0.11715978365E+00 -0.40121952870E-02  0.89013683332E+00  0.88000000000E+00 0.  1.
        -11    1    3    3    0    0 -0.98330233976E-02 -0.11119465036E-01 -0.72797356555E-02  0.16540451143E-01  0.51100000000E-03 0. -1.
         11    1    3    3    0    0 -0.42992403715E-01 -0.86948216938E-01 -0.19650259851E-01  0.98968343621E-01  0.51100000000E-03 0.  1.
</event>
<event>
 8    1  0.1120016E+005  0.1043930E+01  0.7957747E-01            NaN
         13   -1    0    0    0    0  0.00000000000E+00  0.00000000000E+00  0.74505805969E-08  0.10566000000E+00  0.10566000000E+00 0. -1.
     999900   -1    0    0    0    0 -0.00000000000E+00 -0.00000000000E+00 -0.74505805969E-08  0.93827000000E+00  0.93827000000E+00 0.  1.
     999902    2    1    2    0    0  0.22010187224E-01 -0.82278983765E-02 -0.27296025472E-02  0.10202741892E+01  0.10199999136E+01 0.  0.
     999903    2    3    3    0    0 -0.76298952406E-01  0.86643445829E-01 -0.52392738169E-01  0.12834835939E+00  0.19992136003E-01 0.  0.
         14    1    1    2    0    0 -0.22010187224E-01  0.82278983765E-02  0.27296025472E-02  0.23655810775E-01  0.00000000000E+00 0. -1.
     999901    1    3    3    0    0  0.98309139631E-01 -0.94871344206E-01  0.49663135622E-01  0.89192582983E+00  0.88000000000E+00 0. -1.
        -11    1    4    4    0    0 -0.19580090601E-01  0.31142298245E-01 -0.88888336178E-02  0.37848317955E-01  0.51100000000E-03 0. -1.
         11    1    4    4    0    0 -0.56718861806E-01  0.55501147584E-01 -0.43503904552E-01  0.90500041436E-01  0.51100000000E-03 0.  1.
</event>
<event>
 8    1  0.1120016E+005  0.1043930E+01  0.7957747E-01            NaN
         13   -1    0    0    0    0  0.00000000000E+00  0.00000000000E+00  0.74505805969E-08  0.10566000000E+00  0.10566000000E+00 0.  1.
     999900   -1    0    0    0    0 -0.00000000000E+00 -0.00000000000E+00 -0.74505805969E-08  0.93827000000E+00  0.93827000000E+00 0.  1.
     999902    2    1    2    0    0  0.12156509885E-01 -0.15092034309E-01  0.16881830100E-01  0.10182289024E+01  0.10179044902E+01 0.  0.
     999903    2    3    3    0    0 -0.35731907446E-01  0.11701497945E+00  0.27728347997E-01  0.12701444414E+00  0.19862857593E-01 0.  0.
         14    1    1    2    0    0 -0.12156509885E-01  0.15092034309E-01 -0.16881830100E-01  0.25701097636E-01  0.00000000000E+00 0. -1.
     999901    1    3    3    0    0  0.47888417331E-01 -0.13210701376E+00 -0.10846517897E-01  0.89121445823E+00  0.88000000000E+00 0. -1.
        -11    1    4    4    0    0 -0.28174709781E-01  0.69576483490E-01  0.24091547462E-01  0.78837586887E-01  0.51100000000E-03 0.  1.
         11    1    4    4    0    0 -0.75571976657E-02  0.47438495961E-01  0.36368005355E-02  0.48176857252E-01  0.51100000000E-03 0. -1.
</event>
<event>
 8    1  0.1120016E+005  0.1043930E+01  0.7957747E-01            NaN
         13   -1    0    0    0    0  0.00000000000E+00  0.00000000000E+00  0.74505805969E-08  0.10566000000E+00  0.10566000000E+00 0. -1.
     999900   -1    0    0    0    0 -0.00000000000E+00 -0.00000000000E+00 -0.74505805969E-08  0.93827000000E+00  0.93827000000E+00 0.  1.
     999902    2    1    2    0    0  0.54618646760E-02 -0.47239131320E-02 -0.22912762310E-01  0.10199062202E+01  0.10196232421E+01 0.  0.
     999903    2    3    3    0    0 -0.88765703565E-01 -0.79166228934E-01 -0.51814674422E-01  0.13128041955E+00  0.20078499383E-01 0.  0.
         14    1    1    2    0    0 -0.54618646760E-02  0.47239131320E-02  0.22912762310E-01  0.24023779838E-01  0.00000000000E+00 0. -1.
     999901    1    3    3    0    0  0.94227568241E-01  0.74442315803E-01  0.28901912112E-01  0.88862580062E+00  0.88000000000E+00 0.  1.
        -11    1    4    4    0    0 -0.82869528161E-01 -0.76516978772E-01 -0.43868611161E-01  0.12102447234E+00  0.51100000000E-03 0. -1.
         11    1    4    4    0    0 -0.58961754039E-02 -0.26492501624E-02 -0.79460632606E-02  0.10255947209E-01  0.51100000000E-03 0.  1.
</event>
<event>
 8    1  0.1120016E+005  0.1043930E+01  0.7957747E-01            NaN
         13   -1    0    0    0    0  0.00000000000E+00  0.00000000000E+00  0.74505805969E-08  0.10566000000E+00  0.10566000000E+00 0.  1.
     999900   -1    0    0    0    0 -0.00000000000E+00 -0.00000000000E+00 -0.74505805969E-08  0.93827000000E+00  0.93827000000E+00 0. -1.
     999902    2    1    2    0    0  0.85194699814E-02 -0.21065191845E-01 -0.66383408902E-02  0.10202574157E+01  0.10199827465E+01 0.  0.
     999903    2    3    3    0    0 -0.53158985099E-01 -0.48301589066E-01 -0.10889661596E+00  0.13177398427E+00  0.18627634305E-01 0.  0.
         14    1    1    2    0    0 -0.85194699814E-02  0.21065191845E-01  0.66383408902E-02  0.23672584270E-01  0.00000000000E+00 0. -1.
     999901    1    3    3    0    0  0.61678455080E-01  0.27236397221E-01  0.10225827507E+00  0.88848343146E+00  0.88000000000E+00 0.  1.
        -11    1    4    4    0    0 -0.33806929785E-01 -0.36527574479E-01 -0.60555665419E-01  0.78386363190E-01  0.51100000000E-03 0. -1.
         11    1    4    4    0    0 -0.19352055314E-01 -0.11774014587E-01 -0.48340950543E-01  0.53387621082E-01  0.51100000000E-03 0.  1.
</event>
<event>
 8    1  0.1120016E+005  0.1043930E+01  0.7957747E-01            NaN
         13   -1    0    0    0    0  0.00000000000E+00  0.00000000000E+00  0.74505805969E-08  0.10566000000E+00  0.10566000000E+00 0. -1.
     999900   -1    0    0    0    0 -0.00000000000E+00 -0.00000000000E+00 -0.74505805969E-08  0.93827000000E+00  0.93827000000E+00 0. -1.
     999902    2    1    2    0    0  0.12467463326E-01  0.23639676256E-01 -0.11924019320E-02  0.10171775467E+01  0.10168256821E+01 0.  0.
     999903    2    3    3    0    0  0.73412884525E-01 -0.14792393931E-02 -0.10431230899E+00  0.12870750245E+00  0.17115011494E-01 0.  0.
         14    1    1    2    0    0 -0.12467463326E-01 -0.23639676256E-01  0.11924019320E-02  0.26752453302E-01  0.00000000000E+00 0. -1.
     999901    1    3    3    0    0 -0.60945421199E-01  0.25118915649E-01  0.10311990705E+00  0.88847004424E+00  0.88000000000E+00 0.  1.
        -11    1    4    4    0    0  0.38660102050E-01 -0.68361391215E-02 -0.44700521980E-01  0.59495664337E-01  0.51100000000E-03 0.  1.
         11    1    4    4    0    0  0.34752782474E-01  0.53568997284E-02 -0.59611787006E-01  0.69211838117E-01  0.51100000000E-03 0. -1.
</event>
<event>
 8    1  0.1120016E+005  0.1043930E+01  0.7957747E-01            NaN
         13   -1    0    0    0    0  0.00000000000E+00  0.00000000000E+00  0.74505805969E-08  0.10566000000E+00  0.10566000000E+00 0.  1.
     999900   -1    0    0    0    0 -0.00000000000E+00 -0.00000000000E+00 -0.74505805969E-08  0.93827000000E+00  0.93827000000E+00 0. -1.
     999902    2    1    2    0    0  0.22145458421E-01 -0.10233853595E-01 -0.15846023478E-04  0.10195342352E+01  0.10192423183E+01 0.  0.
     999903    2    3    3    0    0 -0.11479380239E+00 -0.52435801868E-01  0.39514477753E-02  0.12793505116E+00  0.20606624976E-01 0.  0.
         14    1    1    2    0    0 -0.22145458421E-01  0.10233853595E-01  0.15846023478E-04  0.24395764780E-01  0.00000000000E+00 0.  1.
     999901    1    3    3    0    0  0.13693926081E+00  0.42201948272E-01 -0.39672937987E-02  0.89159918406E+00  0.88000000000E+00 0.  1.
        -11    1    4    4    0    0 -0.62706544444E-01 -0.34306229463E-01 -0.65890359966E-02  0.71782341926E-01  0.51100000000E-03 0. -1.
         11    1    4    4    0    0 -0.52087257944E-01 -0.18129572405E-01  0.10540483772E-01  0.56152709238E-01  0.51100000000E-03 0.  1.
</event>
<event>
 8    1  0.1120016E+005  0.1043930E+01  0.7957747E-01            NaN
         13   -1    0    0    0    0  0.00000000000E+00  0.00000000000E+00  0.74505805969E-08  0.10566000000E+00  0.10566000000E+00 0.  1.
     999900   -1    0    0    0    0 -0.00000000000E+00 -0.00000000000E+00 -0.74505805969E-08  0.93827000000E+00  0.93827000000E+00 0. -1.
     999902    2    1    2    0    0 -0.80229170743E-02 -0.11399456141E-01  0.18894839536E-01  0.10204495877E+01  0.10201794114E+01 0.  0.
     999903    2    3    3    0    0 -0.44432700879E-01 -0.88862658655E-01 -0.82217989098E-01  0.13053384779E+00  0.20210162712E-01 0.  0.
         14    1    1    2    0    0  0.80229170743E-02  0.11399456141E-01 -0.18894839536E-01  0.23480412258E-01  0.00000000000E+00 0. -1.
     999901    1    3    3    0    0  0.36409783804E-01  0.77463202514E-01  0.10111282863E+00  0.88991573995E+00  0.88000000000E+00 0.  1.
        -11    1    4    4    0    0 -0.17229826708E-01 -0.47218224071E-01 -0.30600896012E-01  0.58848139907E-01  0.51100000000E-03 0.  1.
         11    1    4    4    0    0 -0.27202874171E-01 -0.41644434585E-01 -0.51617093086E-01  0.71685707883E-01  0.51100000000E-03 0. -1.
</event>
<event>
 8    1  0.1120016E+005  0.1043930E+01  0.7957747E-01            NaN
         13   -1    0    0    0    0  0.00000000000E+00  0.00000000000E+00  0.74505805969E-08  0.10566000000E+00  0.10566000000E+00 0. -1.
     999900   -1    0    0    0    0 -0.00000000000E+00 -0.00000000000E+00 -0.74505805969E-08  0.93827000000E+00  0.93827000000E+00 0.  1.
     999902    2    1    2    0    0  0.92015953380E-02 -0.21268293109E-01  0.91909127356E-02  0.10190004488E+01  0.10186954560E+01 0.  0.
     999903    2    3    3    0    0 -0.27874860117E-01 -0.14912611054E-01 -0.12280443407E+00  0.12836144791E+00  0.19908251699E-01 0.  0.
         14    1    1    2    0    0 -0.92015953380E-02  0.21268293109E-01 -0.91909127356E-02  0.24929551248E-01  0.00000000000E+00 0. -1.
     999901    1    3    3    0    0  0.37076455455E-01 -0.63556820550E-02  0.13199534681E+00  0.89063900084E+00  0.88000000000E+00 0. -1.
        -11    1    4    4    0    0 -0.26562299927E-02 -0.39481925148E-02 -0.54758569643E-01  0.54967316218E-01  0.51100000000E-03 0.  1.
         11    1    4    4    0    0 -0.25218630124E-01 -0.10964418539E-01 -0.68045864432E-01  0.73394131690E-01  0.51100000000E-03 0. -1.
</event>
<event>
 8    1  0.1120016E+005  0.1043930E+01  0.7957747E-01            NaN
         13   -1    0    0    0    0  0.00000000000E+00  0.00000000000E+00  0.74505805969E-08  0.10566000000E+00  0.10566000000E+00 0. -1.
     999900   -1    0    0    0    0 -0.00000000000E+00 -0.00000000000E+00 -0.74505805969E-08  0.93827000000E+00  0.93827000000E+00 0.  1.
     999902    2    1    2    0    0 -0.19728317438E-01 -0.67324763020E-02 -0.10392782290E-01  0.10206374546E+01  0.10203716338E+01 0.  0.
     999903    2    3    3    0    0 -0.10295292172E+00 -0.23938757470E-01 -0.80087319783E-01  0.13380053646E+00  0.17783041587E-01 0.  0.
         14    1    1    2    0    0  0.19728317438E-01  0.67324763020E-02  0.10392782290E-01  0.23292545370E-01  0.00000000000E+00 0. -1.
     999901    1    3    3    0    0  0.83224604279E-01  0.17206281168E-01  0.69694537494E-01  0.88683691817E+00  0.88000000000E+00 0. -1.
        -11    1    4    4    0    0 -0.29531277796E-01 -0.72118655679E-03 -0.28929105650E-01  0.41349374276E-01  0.51100000000E-03 0.  1.
         11    1    4    4    0    0 -0.73421643922E-01 -0.23217570913E-01 -0.51158214133E-01  0.92451162186E-01  0.51100000000E-03 0. -1.
</event>
<event>
 8    1  0.1120016E+005  0.1043930E+01  0.7957747E-01            NaN
         13   -1    0    0    0    0  0.00000000000E+00  0.00000000000E+00  0.74505805969E-08  0.10566000000E+00  0.10566000000E+00 0. -1.
     999900   -1    0    0    0    0 -0.00000000000E+00 -0.00000000000E+00 -0.74505805969E-08  0.93827000000E+00  0.93827000000E+00 0.  1.
     999902    2    1    2    0    0 -0.11156239052E-01 -0.18011565064E-02 -0.21935056703E-01  0.10192550624E+01  0.10189563433E+01 0.  0.
     999903    2    3    3    0    0 -0.67416328441E-03 -0.11068467030E+00 -0.67417662038E-01  0.13131691088E+00  0.21152758513E-01 0.  0.
         14    1    1    2    0    0  0.11156239052E-01  0.18011565064E-02  0.21935056703E-01  0.24674937631E-01  0.00000000000E+00 0. -1.
     999901    1    3    3    0    0 -0.10482075768E-01  0.10888351379E+00  0.45482605335E-01  0.88793815149E+00  0.88000000000E+00 0. -1.
        -11    1    4    4    0    0  0.11026625264E-03 -0.30377255567E-01 -0.30064547776E-01  0.42742577933E-01  0.51100000000E-03 0. -1.
         11    1    4    4    0    0 -0.78442953705E-03 -0.80307414729E-01 -0.37353114262E-01  0.88574332943E-01  0.51100000000E-03 0.  1.
</event>
<event>
 8    1  0.1120016E+005  0.1043930E+01  0.7957747E-01            NaN
         13   -1    0    0    0    0  0.00000000000E+00  0.00000000000E+00  0.74505805969E-08  0.10566000000E+00  0.10566000000E+00 0. -1.
     999900   -1    0    0    0    0 -0.00000000000E+00 -0.00000000000E+00 -0.74505805969E-08  0.93827000000E+00  0.93827000000E+00 0.  1.
     999902    2    1    2    0    0  0.20040063444E-01 -0.34755737735E-02 -0.15217949381E-01  0.10185278399E+01  0.10182110247E+01 0.  0.
     999903    2    3    3    0    0  0.12694441952E+00  0.11752570325E-01 -0.26808269959E-01  0.13185158934E+00  0.20326084618E-01 0.  0.
         14    1    1    2    0    0 -0.20040063444E-01  0.34755737735E-02  0.15217949381E-01  0.25402160130E-01  0.00000000000E+00 0. -1.
     999901    1    3    3    0    0 -0.10690435608E+00 -0.15228144099E-01  0.11590320577E-01  0.88667625053E+00  0.88000000000E+00 0.  1.
        -11    1    4    4    0    0  0.74993134045E-01 -0.15063560473E-02 -0.10083360023E-01  0.75684704748E-01  0.51100000000E-03 0.  1.
         11    1    4    4    0    0  0.51951285479E-01  0.13258926372E-01 -0.16724909936E-01  0.56166884592E-01  0.51100000000E-03 0. -1.
</event>
<event>
 8    1  0.1120016E+005  0.1043930E+01  0.7957747E-01            NaN
         13   -1    0    0    0    0  0.00000000000E+00  0.00000000000E+00  0.74505805969E-08  0.10566000000E+00  0.10566000000E+00 0. -1.
     999900   -1    0    0    0    0 -0.00000000000E+00 -0.00000000000E+00 -0.74505805969E-08  0.93827000000E+00  0.93827000000E+00 0.  1.
     999902    2    1    2    0    0  0.33012923402E-02  0.14066815156E-01 -0.19427746703E-01  0.10197182020E+01  0.10194307237E+01 0.  0.
     999903    2    3    3    0    0  0.15394873465E-01  0.21574075884E-01 -0.12863050989E+00  0.13285414414E+00  0.20049255836E-01 0.  0.
         14    1    1    2    0    0 -0.33012923402E-02 -0.14066815156E-01  0.19427746703E-01  0.24211797986E-01  0.00000000000E+00 0. -1.
     999901    1    3    3    0    0 -0.12093581125E-01 -0.75072607277E-02  0.10920276319E+00  0.88686405788E+00  0.88000000000E+00 0. -1.
        -11    1    4    4    0    0 -0.44836148548E-02  0.75307455060E-02 -0.39051465732E-01  0.40026154285E-01  0.51100000000E-03 0.  1.
         11    1    4    4    0    0  0.19878488320E-01  0.14043330378E-01 -0.89579044161E-01  0.92827989851E-01  0.51100000000E-03 0. -1.
</event>
<event>
 8    1  0.1120016E+005  0.1043930E+01  0.7957747E-01            NaN
         13   -1    0    0    0    0  0.00000000000E+00  0.00000000000E+00  0.74505805969E-08  0.10566000000E+00  0.10566000000E+00 0.  1.
     999900   -1    0    0    0    0 -0.00000000000E+00 -0.00000000000E+00 -0.74505805969E-08  0.93827000000E+00  0.93827000000E+00 0. -1.
     999902    2    1    2    0    0 -0.13779480146E-01 -0.85707099365E-02 -0.15467718369E-01  0.10215116715E+01  0.10212656430E+01 0.  0.
     999903    2    3    3    0    0 -0.24746062838E-01  0.53951865204E-01  0.11347549882E+00  0.12985271673E+00  0.21491110348E-01 0.  0.
         14    1    1    2    0    0  0.13779480146E-01  0.85707099365E-02  0.15467718369E-01  0.22418328516E-01  0.00000000000E+00 0. -1.
     999901    1    3    3    0    0  0.10966582692E-01 -0.62522575140E-01 -0.12894321719E+00  0.89165895476E+00  0.88000000000E+00 0. -1.
        -11    1    4    4    0    0  0.32965764336E-02  0.10700801443E-01  0.15298082744E-01  0.18964889252E-01  0.51100000000E-03 0.  1.
         11    1    4    4    0    0 -0.28042639271E-01  0.43251063761E-01  0.98177416076E-01  0.11088782748E+00  0.51100000000E-03 0. -1.
</event>
<event>
 8    1  0.1120016E+005  0.1043930E+01  0.7957747E-01            NaN
         13   -1    0    0    0    0  0.00000000000E+00  0.00000000000E+00  0.74505805969E-08  0.10566000000E+00  0.10566000000E+00 0.  1.
     999900   -1    0    0    0    0 -0.00000000000E+00 -0.00000000000E+00 -0.74505805969E-08  0.93827000000E+00  0.93827000000E+00 0.  1.
     999902    2    1    2    0    0 -0.12110993115E-03  0.20212471009E-01  0.16327013441E-01  0.10179467358E+01  0.10176150681E+01 0.  0.
     999903    2    3    3    0    0 -0.12599722116E+00 -0.56853642000E-02  0.12343437242E-01  0.12860351624E+00  0.21883346205E-01 0.  0.
         14    1    1    2    0    0  0.12110993115E-03 -0.20212471009E-01 -0.16327013441E-01  0.25983264225E-01  0.00000000000E+00 0. -1.
     999901    1    3    3    0    0  0.12587611123E+00  0.25897835209E-01  0.39835761986E-02  0.88934321953E+00  0.88000000000E+00 0.  1.
        -11    1    4    4    0    0 -0.86546420232E-01 -0.91135987280E-02 -0.31461095661E-03  0.87027010967E-01  0.51100000000E-03 0. -1.
         11    1    4    4    0    0 -0.39450800928E-01  0.34282345281E-02  0.12658048199E-01  0.41576505277E-01  0.51100000000E-03 0.  1.
</event>
<event>
 8    1  0.1120016E+005  0.1043930E+01  0.7957747E-01            NaN
         13   -1    0    0    0    0  0.00000000000E+00  0.00000000000E+00  0.74505805969E-08  0.10566000000E+00  0.10566000000E+00 0.  1.
     999900   -1    0    0    0    0 -0.00000000000E+00 -0.00000000000E+00 -0.74505805969E-08  0.93827000000E+00  0.93827000000E+00 0. -1.
     999902    2    1    2    0    0 -0.12382768357E-01 -0.19380188777E-01  0.69854882337E-02  0.10198941577E+01  0.10196108921E+01 0.  0.
     999903    2    3    3    0    0 -0.50799504354E-01 -0.19816461230E-01  0.11829196428E+00  0.13205117184E+00  0.21708095074E-01 0.  0.
         14    1    1    2    0    0  0.12382768357E-01  0.19380188777E-01 -0.69854882337E-02  0.24035842301E-01  0.00000000000E+00 0. -1.
     999901    1    3    3    0    0  0.38416735997E-01  0.43627245298E-03 -0.11130647605E+00  0.88784298586E+00  0.88000000000E+00 0. -1.
        -11    1    4    4    0    0 -0.42291992230E-01 -0.67671730671E-02  0.80864093642E-01  0.91507759232E-01  0.51100000000E-03 0.  1.
         11    1    4    4    0    0 -0.85075121246E-02 -0.13049288163E-01  0.37427870637E-01  0.40543412604E-01  0.51100000000E-03 0. -1.
</event>
<event>
 8    1  0.1120016E+005  0.1043930E+01  0.7957747E-01            NaN
         13   -1    0    0    0    0  0.00000000000E+00  0.00000000000E+00  0.74505805969E-08  0.10566000000E+00  0.10566000000E+00 0. -1.
     999900   -1    0    0    0    0 -0.00000000000E+00 -0.00000000000E+00 -0.74505805969E-08  0.93827000000E+00  0.93827000000E+00 0. -1.
     999902    2    1    2    0    0 -0.10742372701E-01  0.11679464484E-01  0.11729653677E-01  0.10241969506E+01  0.10240068361E+01 0.  0.
     999903    2    3    3    0    0  0.12519905922E+00  0.26393690117E-01  0.32292249414E-01  0.13339989087E+00  0.19527165776E-01 0.  0.
         14    1    1    2    0    0  0.10742372701E-01 -0.11679464484E-01 -0.11729653677E-01  0.19733049366E-01  0.00000000000E+00 0. -1.
     999901    1    3    3    0    0 -0.13594143192E+00 -0.14714225633E-01 -0.20562595736E-01  0.89079705977E+00  0.88000000000E+00 0. -1.
        -11    1    4    4    0    0  0.74237142224E-01  0.79954315702E-02  0.12459670532E-01  0.75700625640E-01  0.51100000000E-03 0.  1.
         11    1    4    4    0    0  0.50961916996E-01  0.18398258547E-01  0.19832578881E-01  0.57699265225E-01  0.51100000000E-03 0. -1.
</event>
<event>
 8    1  0.1120016E+005  0.1043930E+01  0.7957747E-01            NaN
         13   -1    0    0    0    0  0.00000000000E+00  0.00000000000E+00  0.74505805969E-08  0.10566000000E+00  0.10566000000E+00 0.  1.
     999900   -1    0    0    0    0 -0.00000000000E+00 -0.00000000000E+00 -0.74505805969E-08  0.93827000000E+00  0.93827000000E+00 0. -1.
     999902    2    1    2    0    0  0.19347232063E-01 -0.14304221865E-01 -0.97547607387E-02  0.10179669203E+01  0.10176357744E+01 0.  0.
     999903    2    3    3    0    0 -0.35965855124E-01  0.78048665745E-01 -0.92584267262E-01  0.12754605315E+00  0.17635537140E-01 0.  0.
         14    1    1    2    0    0 -0.19347232063E-01  0.14304221865E-01  0.97547607387E-02  0.25963079723E-01  0.00000000000E+00 0. -1.
     999901    1    3    3    0    0  0.55313087187E-01 -0.92352887610E-01  0.82829506524E-01  0.89042086713E+00  0.88000000000E+00 0. -1.
        -11    1    4    4    0    0 -0.29271888774E-01  0.45165558256E-01 -0.51467567220E-01  0.74471086480E-01  0.51100000000E-03 0.  1.
         11    1    4    4    0    0 -0.66939663500E-02  0.32883107489E-01 -0.41116700042E-01  0.53074966670E-01  0.51100000000E-03 0. -1.
</event>
<event>
 8    1  0.1120016E+005  0.1043930E+01  0.7957747E-01            NaN
         13   -1    0    0    0    0  0.00000000000E+00  0.00000000000E+00  0.74505805969E-08  0.10566000000E+00  0.10566000000E+00 0.  1.
     999900   -1    0    0    0    0 -0.00000000000E+00 -0.00000000000E+00 -0.74505805969E-08  0.93827000000E+00  0.93827000000E+00 0.  1.
     999902    2    1    2    0    0  0.16542092399E-02 -0.52672608455E-02  0.23035721064E-01  0.10202419252E+01  0.10199668921E+01 0.  0.
     999903    2    3    3    0    0  0.84449786713E-01 -0.97317508651E-01  0.18058529824E-01  0.13156137051E+00  0.19488964697E-01 0.  0.
         14    1    1    2    0    0 -0.16542092399E-02  0.52672608455E-02 -0.23035721064E-01  0.23688074847E-01  0.00000000000E+00 0. -1.
     999901    1    3    3    0    0 -0.82795577473E-01  0.92050247805E-01  0.49771912395E-02  0.88868055464E+00  0.88000000000E+00 0.  1.
        -11    1    4    4    0    0  0.38388428099E-01 -0.30877838559E-01  0.32986449307E-02  0.49378684727E-01  0.51100000000E-03 0.  1.
         11    1    4    4    0    0  0.46061358614E-01 -0.66439670092E-01  0.14759884894E-01  0.82182685782E-01  0.51100000000E-03 0. -1.
</event>
<event>
 8    1  0.1120016E+005  0.1043930E+01  0.7957747E-01            NaN
         13   -1    0    0    0    0  0.00000000000E+00  0.00000000000E+00  0.74505805969E-08  0.10566000000E+00  0.10566000000E+00 0.  1.
     999900   -1    0    0    0    0 -0.00000000000E+00 -0.00000000000E+00 -0.74505805969E-08  0.93827000000E+00  0.93827000000E+00 0.  1.
     999902    2    1    2    0    0 -0.52354219538E-03 -0.10224583782E-01  0.21873232013E-01  0.10197793377E+01  0.10194933267E+01 0.  0.
     999903    2    3    3    0    0  0.53223961716E-01 -0.24248490983E-01  0.11755691746E+00  0.13285158879E+00  0.20227120059E-01 0.  0.
         14    1    1    2    0    0  0.52354219538E-03  0.10224583782E-01 -0.21873232013E-01  0.24150662281E-01  0.00000000000E+00 0.  1.
     999901    1    3    3    0    0 -0.53747503911E-01  0.14023907201E-01 -0.95683685451E-01  0.88692774892E+00  0.88000000000E+00 0.  1.
        -11    1    4    4    0    0  0.40869898446E-01 -0.18027612339E-01  0.10521949149E+00  0.11430986797E+00  0.51100000000E-03 0.  1.
         11    1    4    4    0    0  0.12354063270E-01 -0.62208786446E-02  0.12337425978E-01  0.18541720825E-01  0.51100000000E-03 0. -1.
</event>
<event>
 8    1  0.1120016E+005  0.1043930E+01  0.7957747E-01            NaN
         13   -1    0    0    0    0  0.00000000000E+00  0.00000000000E+00  0.74505805969E-08  0.10566000000E+00  0.10566000000E+00 0.  1.
     999900   -1    0    0    0    0 -0.00000000000E+00 -0.00000000000E+00 -0.74505805969E-08  0.93827000000E+00  0.93827000000E+00 0.  1.
     999902    2    1    2    0    0 -0.11964992936E-01 -0.10693783894E-01  0.60551778433E-02  0.10267782290E+01  0.10266349635E+01 0.  0.
     999903    2    3    3    0    0  0.16995023258E-01 -0.98952275367E-01  0.92073316262E-01  0.13771840874E+00  0.20210910970E-01 0.  0.
         14    1    1    2    0    0  0.11964992936E-01  0.10693783894E-01 -0.60551778433E-02  0.17151771006E-01  0.00000000000E+00 0.  1.
     999901    1    3    3    0    0 -0.28960016193E-01  0.88258491473E-01 -0.86018138419E-01  0.88905982026E+00  0.88000000000E+00 0.  1.
        -11    1    4    4    0    0 -0.46772541300E-02 -0.17650585213E-01  0.15856137387E-01  0.24188800682E-01  0.51100000000E-03 0. -1.
         11    1    4    4    0    0  0.21672277388E-01 -0.81301690154E-01  0.76217178875E-01  0.11352960806E+00  0.51100000000E-03 0.  1.
</event>
<event>
 7    1  0.1120016E+005  0.1043930E+01  0.7957747E-01            NaN
         13   -1    0    0    0    0  0.00000000000E+00  0.00000000000E+00  0.74505805969E-08  0.10566000000E+00  0.10566000000E+00 0. -1.
     999900   -1    0    0    0    0 -0.00000000000E+00 -0.00000000000E+00 -0.74505805969E-08  0.93827000000E+00  0.93827000000E+00 0. -1.
     999903    2    1    2    0    0  0.36154866945E-01 -0.75494853172E-01 -0.68880557467E-01  0.10999554591E+00  0.18650513744E-01 0.  0.
         14    1    1    2    0    0 -0.38860421306E-01 -0.17127029243E-01 -0.15149378672E-01  0.45088481333E-01  0.00000000000E+00 0.  1.
     999901    1    1    2    0    0  0.27055543606E-02  0.92621882415E-01  0.84029936138E-01  0.88884597276E+00  0.88000000000E+00 0. -1.
        -11    1    3    3    0    0  0.70824854488E-02 -0.26343013647E-01 -0.31822456002E-01  0.41917130092E-01  0.51100000000E-03 0.  1.
         11    1    3    3    0    0  0.29072381496E-01 -0.49151839525E-01 -0.37058101465E-01  0.68078415814E-01  0.51100000000E-03 0. -1.
</event>
<event>
 8    1  0.1120016E+005  0.1043930E+01  0.7957747E-01            NaN
         13   -1    0    0    0    0  0.00000000000E+00  0.00000000000E+00  0.74505805969E-08  0.10566000000E+00  0.10566000000E+00 0. -1.
     999900   -1    0    0    0    0 -0.00000000000E+00 -0.00000000000E+00 -0.74505805969E-08  0.93827000000E+00  0.93827000000E+00 0. -1.
     999902    2    1    2    0    0 -0.21891100016E-01  0.43098671811E-02 -0.11193028297E-04  0.10216186724E+01  0.10213750126E+01 0.  0.
     999903    2    3    3    0    0 -0.12019862479E+00 -0.25051147934E-01 -0.50486569013E-01  0.13422124043E+00  0.19778228389E-01 0.  0.
         14    1    1    2    0    0  0.21891100016E-01 -0.43098671811E-02  0.11193028297E-04  0.22311327623E-01  0.00000000000E+00 0.  1.
     999901    1    3    3    0    0  0.98307524777E-01  0.29361015116E-01  0.50475375985E-01  0.88739743194E+00  0.88000000000E+00 0.  1.
        -11    1    4    4    0    0 -0.10496594359E+00 -0.15029459964E-01 -0.41288884795E-01  0.11379264963E+00  0.51100000000E-03 0. -1.
         11    1    4    4    0    0 -0.15232681203E-01 -0.10021687971E-01 -0.91976842179E-02  0.20428590808E-01  0.51100000000E-03 0.  1.
</event>
<event>
 8    1  0.1120016E+005  0.1043930E+01  0.7957747E-01            NaN
         13   -1    0    0    0    0  0.00000000000E+00  0.00000000000E+00  0.74505805969E-08  0.10566000000E+00  0.10566000000E+00 0.  1.
     999900   -1    0    0    0    0 -0.00000000000E+00 -0.00000000000E+00 -0.74505805969E-08  0.93827000000E+00  0.93827000000E+00 0.  1.
     999902    2    1    2    0    0 -0.36467932207E-02  0.21248780744E-01  0.95747764700E-02  0.10203400418E+01  0.10200673089E+01 0.  0.
     999903    2    3    3    0    0 -0.10929063465E+00  0.21652096169E-01 -0.65568609164E-01  0.13084169311E+00  0.20175481599E-01 0.  0.
         14    1    1    2    0    0  0.36467932207E-02 -0.21248780744E-01 -0.95747764700E-02  0.23589958210E-01  0.00000000000E+00 0.  1.
     999901    1    3    3    0    0  0.10564384143E+00 -0.40331542552E-03  0.75143385634E-01  0.88949834868E+00  0.88000000000E+00 0. -1.
        -11    1    4    4    0    0 -0.10256210817E+00  0.16401384754E-01 -0.64401940907E-01  0.12221236667E+00  0.51100000000E-03 0. -1.
         11    1    4    4    0    0 -0.67285264818E-02  0.52507114153E-02 -0.11666682565E-02  0.86293264398E-02  0.51100000000E-03 0.  1.
</event>
<event>
 8    1  0.1120016E+005  0.1043930E+01  0.7957747E-01            NaN
         13   -1    0    0    0    0  0.00000000000E+00  0.00000000000E+00  0.74505805969E-08  0.10566000000E+00  0.10566000000E+00 0. -1.
     999900   -1    0    0    0    0 -0.00000000000E+00 -0.00000000000E+00 -0.74505805969E-08  0.93827000000E+00  0.93827000000E+00 0. -1.
     999902    2    1    2    0    0 -0.18315523454E-01  0.81346632549E-02 -0.11848395752E-01  0.10206487709E+01  0.10203832113E+01 0.  0.
     999903    2    3    3    0    0 -0.77206381129E-01  0.16394109948E-01 -0.10619967914E+00  0.13360958562E+00  0.18535301255E-01 0.  0.
         14    1    1    2    0    0  0.18315523454E-01 -0.81346632549E-02  0.11848395752E-01  0.23281229082E-01  0.00000000000E+00 0. -1.
     999901    1    3    3    0    0  0.58890857675E-01 -0.82594466933E-02  0.94351283386E-01  0.88703918530E+00  0.88000000000E+00 0.  1.
        -11    1    4    4    0    0 -0.54648216425E-01  0.19485531360E-01 -0.81097796274E-01  0.99715731820E-01  0.51100000000E-03 0.  1.
         11    1    4    4    0    0 -0.22558164704E-01 -0.30914214117E-02 -0.25101882864E-01  0.33893853801E-01  0.51100000000E-03 0. -1.
</event>
<event>
 8    1  0.1120016E+005  0.1043930E+01  0.7957747E-01            NaN
         13   -1    0    0    0    0  0.00000000000E+00  0.00000000000E+00  0.74505805969E-08  0.10566000000E+00  0.10566000000E+00 0. -1.
     999900   -1    0    0    0    0 -0.00000000000E+00 -0.00000000000E+00 -0.74505805969E-08  0.93827000000E+00  0.93827000000E+00 0. -1.
     999902    2    1    2    0    0 -0.51363975408E-02  0.66504250457E-02 -0.21788326936E-01  0.10205774429E+01  0.10203102347E+01 0.  0.
     999903    2    3    3    0    0 -0.11463717983E-01 -0.38989091809E-01 -0.12544175405E+00  0.13329674692E+00  0.19514685994E-01 0.  0.
         14    1    1    2    0    0  0.51363975408E-02 -0.66504250457E-02  0.21788326936E-01  0.23352557111E-01  0.00000000000E+00 0. -1.
     999901    1    3    3    0    0  0.63273204419E-02  0.45639516855E-01  0.10365342712E+00  0.88728069597E+00  0.88000000000E+00 0.  1.
        -11    1    4    4    0    0  0.39022221224E-02 -0.11879159764E-01 -0.52591811196E-01  0.54060165558E-01  0.51100000000E-03 0.  1.
         11    1    4    4    0    0 -0.15365940105E-01 -0.27109932045E-01 -0.72849942858E-01  0.79236581364E-01  0.51100000000E-03 0. -1.
</event>
<event>
 8    1  0.1427952E+005  0.1043930E+01  0.7957747E-01            NaN
         13   -1    0    0    0    0  0.00000000000E+00  0.00000000000E+00  0.74505805969E-08  0.10566000000E+00  0.10566000000E+00 0.  1.
     999900   -1    0    0    0    0 -0.00000000000E+00 -0.00000000000E+00 -0.74505805969E-08  0.93827000000E+00  0.93827000000E+00 0.  1.
     999902    2    1    2    0    0  0.13036951465E-01 -0.18599161996E-01 -0.62923855742E-02  0.10203612697E+01  0.10200890332E+01 0.  0.
     999903    2    3    3    0    0 -0.38284694075E-01  0.98801759422E-01  0.68780546133E-01  0.12791920846E+00  0.20125975763E-01 0.  0.
         14    1    1    2    0    0 -0.13036951465E-01  0.18599161996E-01  0.62923855742E-02  0.23568730272E-01  0.00000000000E+00 0. -1.
     999901    1    3    3    0    0  0.51321645539E-01 -0.11740092142E+00 -0.75072931708E-01  0.89244206127E+00  0.88000000000E+00 0.  1.
        -11    1    4    4    0    0 -0.75189343594E-02  0.43699208366E-01  0.33836648705E-01  0.55779342971E-01  0.51100000000E-03 0. -1.
         11    1    4    4    0    0 -0.30765759715E-01  0.55102551056E-01  0.34943897429E-01  0.72139865485E-01  0.51100000000E-03 0.  1.
</event>
<event>
 8    1  0.1120016E+005  0.1043930E+01  0.7957747E-01            NaN
         13   -1    0    0    0    0  0.00000000000E+00  0.00000000000E+00  0.74505805969E-08  0.10566000000E+00  0.10566000000E+00 0.  1.
     999900   -1    0    0    0    0 -0.00000000000E+00 -0.00000000000E+00 -0.74505805969E-08  0.93827000000E+00  0.93827000000E+00 0.  1.
     999902    2    1    2    0    0 -0.69258817384E-02 -0.48180830208E-02  0.21963497097E-01  0.10204017836E+01  0.10201304931E+01 0.  0.
     999903    2    3    3    0    0  0.79349890305E-01 -0.21229853631E-01  0.10172608062E+00  0.13244067816E+00  0.21100378601E-01 0.  0.
         14    1    1    2    0    0  0.69258817384E-02  0.48180830208E-02 -0.21963497097E-01  0.23528216392E-01  0.00000000000E+00 0. -1.
     999901    1    3    3    0    0 -0.86275772044E-01  0.16411770610E-01 -0.79762583522E-01  0.88796110545E+00  0.88000000000E+00 0.  1.
        -11    1    4    4    0    0  0.49276975795E-01 -0.12497429896E-01  0.46224811504E-01  0.68712447323E-01  0.51100000000E-03 0.  1.
         11    1    4    4    0    0  0.30072914510E-01 -0.87324237341E-02  0.55501269115E-01  0.63728230839E-01  0.51100000000E-03 0. -1.
</event>
<event>
 8    1  0.1120016E+005  0.1043930E+01  0.7957747E-01            NaN
         13   -1    0    0    0    0  0.00000000000E+00  0.00000000000E+00  0.74505805969E-08  0.10566000000E+00  0.10566000000E+00 0. -1.
     999900   -1    0    0    0    0 -0.00000000000E+00 -0.00000000000E+00 -0.74505805969E-08  0.93827000000E+00  0.93827000000E+00 0.  1.
     999902    2    1    2    0    0 -0.55130375115E-02 -0.12464545745E-01  0.17734398731E-01  0.10215633422E+01  0.10213184590E+01 0.  0.
     999903    2    3    3    0    0  0.28935726666E-01 -0.11622224922E-01  0.12888271612E+00  0.13390272274E+00  0.18623432914E-01 0.  0.
         14    1    1    2    0    0  0.55130375115E-02  0.12464545745E-01 -0.17734398731E-01  0.22366657810E-01  0.00000000000E+00 0.  1.
     999901    1    3    3    0    0 -0.34448764178E-01 -0.84232082295E-03 -0.11114831739E+00  0.88766061945E+00  0.88000000000E+00 0.  1.
        -11    1    4    4    0    0  0.13391310069E-01 -0.55391386851E-02  0.26879029335E-01  0.30540998375E-01  0.51100000000E-03 0. -1.
         11    1    4    4    0    0  0.15544416597E-01 -0.60830862365E-02  0.10200368679E+00  0.10336172437E+00  0.51100000000E-03 0.  1.
</event>
<event>
 8    1  0.1120016E+005  0.1043930E+01  0.7957747E-01            NaN
         13   -1    0    0    0    0  0.00000000000E+00  0.00000000000E+00  0.74505805969E-08  0.10566000000E+00  0.10566000000E+00 0.  1.
     999900   -1    0    0    0    0 -0.00000000000E+00 -0.00000000000E+00 -0.74505805969E-08  0.93827000000E+00  0.93827000000E+00 0.  1.
     999902    2    1    2    0    0 -0.46123910733E-02  0.16762103019E-01 -0.20333114940E-01  0.10171778447E+01  0.10168259881E+01 0.  0.
     999903    2    3    3    0    0  0.20240941242E-01 -0.11682061527E+00  0.34238933681E-01  0.12507911742E+00  0.20389437950E-01 0.  0.
         14    1    1    2    0    0  0.46123910733E-02 -0.16762103019E-01  0.20333114940E-01  0.26752155281E-01  0.00000000000E+00 0.  1.
     999901    1    3    3    0    0 -0.24853332315E-01  0.13358271829E+00 -0.54572048621E-01  0.89209872730E+00  0.88000000000E+00 0.  1.
        -11    1    4    4    0    0  0.10697068648E-01 -0.24327486287E-01  0.19691758679E-02  0.26653191954E-01  0.51100000000E-03 0.  1.
         11    1    4    4    0    0  0.95438725943E-02 -0.92493128987E-01  0.32269757814E-01  0.98425925468E-01  0.51100000000E-03 0. -1.
</event>
<event>
 8    1  0.1120016E+005  0.1043930E+01  0.7957747E-01            NaN
         13   -1    0    0    0    0  0.00000000000E+00  0.00000000000E+00  0.74505805969E-08  0.10566000000E+00  0.10566000000E+00 0.  1.
     999900   -1    0    0    0    0 -0.00000000000E+00 -0.00000000000E+00 -0.74505805969E-08  0.93827000000E+00  0.93827000000E+00 0. -1.
     999902    2    1    2    0    0  0.10840118034E-01  0.21305906835E-01 -0.57227024569E-03  0.10200181344E+01  0.10197378178E+01 0.  0.
     999903    2    3    3    0    0  0.90804973148E-01 -0.67011678695E-01  0.61279029633E-01  0.12983840124E+00  0.19151572611E-01 0.  0.
         14    1    1    2    0    0 -0.10840118034E-01 -0.21305906835E-01  0.57227024569E-03  0.23911865638E-01  0.00000000000E+00 0.  1.
     999901    1    3    3    0    0 -0.79964855114E-01  0.88317585530E-01 -0.61851299879E-01  0.89017973312E+00  0.88000000000E+00 0. -1.
        -11    1    4    4    0    0  0.60733294737E-01 -0.51890059509E-01  0.50430051992E-01  0.94469903305E-01  0.51100000000E-03 0. -1.
         11    1    4    4    0    0  0.30071678411E-01 -0.15121619186E-01  0.10848977641E-01  0.35368497934E-01  0.51100000000E-03 0.  1.
</event>
<event>
 8    1  0.1120016E+005  0.1043930E+01  0.7957747E-01            NaN
         13   -1    0    0    0    0  0.00000000000E+00  0.00000000000E+00  0.74505805969E-08  0.10566000000E+00  0.10566000000E+00 0.  1.
     999900   -1    0    0    0    0 -0.00000000000E+00 -0.00000000000E+00 -0.74505805969E-08  0.93827000000E+00  0.93827000000E+00 0. -1.
     999902    2    1    2    0    0  0.23551730362E-02  0.19750196201E-01 -0.13207268897E-01  0.10200543002E+01  0.10197748410E+01 0.  0.
     999903    2    3    3    0    0 -0.10363396811E+00  0.35946662951E-01 -0.70095239677E-01  0.13172313176E+00  0.20136506427E-01 0.  0.
         14    1    1    2    0    0 -0.23551730362E-02 -0.19750196201E-01  0.13207268897E-01  0.23875699817E-01  0.00000000000E+00 0.  1.
     999901    1    3    3    0    0  0.10598914115E+00 -0.16196466750E-01  0.56887970780E-01  0.88833116843E+00  0.88000000000E+00 0. -1.
        -11    1    4    4    0    0 -0.72633150555E-01  0.23414589705E-01 -0.37528820254E-01  0.85044053532E-01  0.51100000000E-03 0. -1.
         11    1    4    4    0    0 -0.31000817556E-01  0.12532073246E-01 -0.32566419422E-01  0.46679078226E-01  0.51100000000E-03 0.  1.
</event>
<event>
 8    1  0.1120016E+005  0.1043930E+01  0.7957747E-01            NaN
         13   -1    0    0    0    0  0.00000000000E+00  0.00000000000E+00  0.74505805969E-08  0.10566000000E+00  0.10566000000E+00 0.  1.
     999900   -1    0    0    0    0 -0.00000000000E+00 -0.00000000000E+00 -0.74505805969E-08  0.93827000000E+00  0.93827000000E+00 0. -1.
     999902    2    1    2    0    0  0.15833541329E-01 -0.19386842677E-01  0.34701849026E-02  0.10186596046E+01  0.10183461087E+01 0.  0.
     999903    2    3    3    0    0  0.26441855878E-01  0.10535666647E+00 -0.63171682105E-01  0.12730410995E+00  0.20407745547E-01 0.  0.
         14    1    1    2    0    0 -0.15833541329E-01  0.19386842677E-01 -0.34701849026E-02  0.25270395392E-01  0.00000000000E+00 0. -1.
     999901    1    3    3    0    0 -0.10608314548E-01 -0.12474350915E+00  0.66641867008E-01  0.89135549465E+00  0.88000000000E+00 0. -1.
        -11    1    4    4    0    0  0.20168313058E-01  0.41925218078E-01 -0.30943522415E-01  0.55877074574E-01  0.51100000000E-03 0. -1.
         11    1    4    4    0    0  0.62735428200E-02  0.63431448396E-01 -0.32228159690E-01  0.71427035380E-01  0.51100000000E-03 0.  1.
</event>
<event>
 8    1  0.1120016E+005  0.1043930E+01  0.7957747E-01            NaN
         13   -1    0    0    0    0  0.00000000000E+00  0.00000000000E+00  0.74505805969E-08  0.10566000000E+00  0.10566000000E+00 0. -1.
     999900   -1    0    0    0    0 -0.00000000000E+00 -0.00000000000E+00 -0.74505805969E-08  0.93827000000E+00  0.93827000000E+00 0.  1.
     999902    2    1    2    0    0  0.21056074049E-01 -0.24446838218E-01 -0.14804451973E-01  0.10084310148E+01  0.10078060000E+01 0.  0.
     999903    2    3    3    0    0 -0.77710605008E-01 -0.64507843970E-01 -0.62689981303E-01  0.12070765416E+00  0.20978654703E-01 0.  0.
         14    1    1    2    0    0 -0.21056074049E-01  0.24446838218E-01  0.14804451973E-01  0.35498985217E-01  0.00000000000E+00 0. -1.
     999901    1    3    3    0    0  0.98766679057E-01  0.40061005752E-01  0.47885529331E-01  0.88772336062E+00  0.88000000000E+00 0. -1.
        -11    1    4    4    0    0 -0.14551463708E-01 -0.14495314292E-01 -0.23186709396E-01  0.30979732828E-01  0.51100000000E-03 0.  1.
         11    1    4    4    0    0 -0.63159141300E-01 -0.50012529678E-01 -0.39503271907E-01  0.89727921334E-01  0.51100000000E-03 0. -1.
</event>
<event>
 8    1  0.1120016E+005  0.1043930E+01  0.7957747E-01            NaN
         13   -1    0    0    0    0  0.00000000000E+00  0.00000000000E+00  0.74505805969E-08  0.10566000000E+00  0.10566000000E+00 0.  1.
     999900   -1    0    0    0    0 -0.00000000000E+00 -0.00000000000E+00 -0.74505805969E-08  0.93827000000E+00  0.93827000000E+00 0. -1.
     999902    2    1    2    0    0  0.56373276582E-02  0.16010081100E-01 -0.16114383007E-01  0.10205253958E+01  0.10202569813E+01 0.  0.
     999903    2    3    3    0    0 -0.68489869506E-02  0.13115898180E+00 -0.12000341918E-02  0.13281056813E+00  0.19688062322E-01 0.  0.
         14    1    1    2    0    0 -0.56373276582E-02 -0.16010081100E-01  0.16114383007E-01  0.23404604240E-01  0.00000000000E+00 0.  1.
     999901    1    3    3    0    0  0.12486314609E-01 -0.11514890070E+00 -0.14914348815E-01  0.88771482762E+00  0.88000000000E+00 0.  1.
        -11    1    4    4    0    0 -0.11024831505E-01  0.94741537762E-01 -0.72404141606E-02  0.95656628654E-01  0.51100000000E-03 0.  1.
         11    1    4    4    0    0  0.41758445545E-02  0.36417444035E-01  0.60403799688E-02  0.37153939481E-01  0.51100000000E-03 0. -1.
</event>
<event>
 8    1  0.1120016E+005  0.1043930E+01  0.7957747E-01            NaN
         13   -1    0    0    0    0  0.00000000000E+00  0.00000000000E+00  0.74505805969E-08  0.10566000000E+00  0.10566000000E+00 0.  1.
     999900   -1    0    0    0    0 -0.00000000000E+00 -0.00000000000E+00 -0.74505805969E-08  0.93827000000E+00  0.93827000000E+00 0. -1.
     999902    2    1    2    0    0  0.18176374924E-01 -0.17041481171E-01 -0.10780533654E-01  0.10167820242E+01  0.10164195355E+01 0.  0.
     999903    2    3    3    0    0  0.10398964925E-01  0.12363327521E+00  0.42091845421E-02  0.12544899615E+00  0.18066770338E-01 0.  0.
         14    1    1    2    0    0 -0.18176374924E-01  0.17041481171E-01  0.10780533654E-01  0.27147975832E-01  0.00000000000E+00 0.  1.
     999901    1    3    3    0    0  0.77774099983E-02 -0.14067475638E+00 -0.14989718196E-01  0.89133302802E+00  0.88000000000E+00 0. -1.
        -11    1    4    4    0    0 -0.45782476994E-02  0.18882398050E-01  0.26834723544E-02  0.19620587478E-01  0.51100000000E-03 0.  1.
         11    1    4    4    0    0  0.14977212625E-01  0.10475087716E+00  0.15257121878E-02  0.10582840867E+00  0.51100000000E-03 0. -1.
</event>
<event>
 8    1  0.1120016E+005  0.1043930E+01  0.7957747E-01            NaN
         13   -1    0    0    0    0  0.00000000000E+00  0.00000000000E+00  0.74505805969E-08  0.10566000000E+00  0.10566000000E+00 0. -1.
     999900   -1    0    0    0    0 -0.00000000000E+00 -0.00000000000E+00 -0.74505805969E-08  0.93827000000E+00  0.93827000000E+00 0.  1.
     999902    2    1    2    0    0  0.76820000525E-02  0.18826049842E-02  0.22112695267E-01  0.10204453536E+01  0.10201750786E+01 0.  0.
     999903    2    3    3    0    0 -0.11162659872E-01 -0.89606824229E-01 -0.88776986245E-01  0.12858103746E+00  0.22310131879E-01 0.  0.
         14    1    1    2    0    0 -0.76820000525E-02 -0.18826049842E-02 -0.22112695267E-01  0.23484646437E-01  0.00000000000E+00 0.  1.
     999901    1    3    3    0    0  0.18844659924E-01  0.91489429214E-01  0.11088968151E+00  0.89186431610E+00  0.88000000000E+00 0. -1.
        -11    1    4    4    0    0 -0.42592942860E-02 -0.53842161315E-01 -0.67295468617E-01  0.86290562289E-01  0.51100000000E-03 0.  1.
         11    1    4    4    0    0 -0.69033655858E-02 -0.35764662915E-01 -0.21481517628E-01  0.42290475174E-01  0.51100000000E-03 0. -1.
</event>
<event>
 8    1  0.1120016E+005  0.1043930E+01  0.7957747E-01            NaN
         13   -1    0    0    0    0  0.00000000000E+00  0.00000000000E+00  0.74505805969E-08  0.10566000000E+00  0.10566000000E+00 0. -1.
     999900   -1    0    0    0    0 -0.00000000000E+00 -0.00000000000E+00 -0.74505805969E-08  0.93827000000E+00  0.93827000000E+00 0.  1.
     999902    2    1    2    0    0  0.15148904461E-01  0.15974484080E-01 -0.87449540694E-02  0.10202414443E+01  0.10199664000E+01 0.  0.
     999903    2    3    3    0    0 -0.23561111554E-01 -0.29833519504E-01  0.12135642012E+00  0.12865678425E+00  0.19494167462E-01 0.  0.
         14    1    1    2    0    0 -0.15148904461E-01 -0.15974484080E-01  0.87449540694E-02  0.23688555669E-01  0.00000000000E+00 0.  1.
     999901    1    3    3    0    0  0.38710016015E-01  0.45808003584E-01 -0.13010137419E+00  0.89158466008E+00  0.88000000000E+00 0.  1.
        -11    1    4    4    0    0 -0.63751246350E-02 -0.41207071048E-02  0.54052277055E-01  0.54585091526E-01  0.51100000000E-03 0. -1.
         11    1    4    4    0    0 -0.17185986919E-01 -0.25712812400E-01  0.67304143064E-01  0.74071692720E-01  0.51100000000E-03 0.  1.
</event>
<event>
 8    1  0.1120016E+005  0.1043930E+01  0.7957747E-01            NaN
         13   -1    0    0    0    0  0.00000000000E+00  0.00000000000E+00  0.74505805969E-08  0.10566000000E+00  0.10566000000E+00 0. -1.
     999900   -1    0    0    0    0 -0.00000000000E+00 -0.00000000000E+00 -0.74505805969E-08  0.93827000000E+00  0.93827000000E+00 0.  1.
     999902    2    1    2    0    0 -0.22237670913E-01 -0.29818000550E-02 -0.83191161653E-02  0.10200006700E+01  0.10197199390E+01 0.  0.
     999903    2    3    3    0    0  0.69472068432E-01  0.39862462060E-01  0.97827881088E-01  0.12786083115E+00  0.19045042667E-01 0.  0.
         14    1    1    2    0    0  0.22237670913E-01  0.29818000550E-02  0.83191161653E-02  0.23929329974E-01  0.00000000000E+00 0. -1.
     999901    1    3    3    0    0 -0.91709739345E-01 -0.42844262115E-01 -0.10614699725E+00  0.89213983888E+00  0.88000000000E+00 0.  1.
        -11    1    4    4    0    0  0.31527853181E-01  0.86192523015E-02  0.32393499213E-01  0.46020614389E-01  0.51100000000E-03 0.  1.
         11    1    4    4    0    0  0.37944215251E-01  0.31243209758E-01  0.65434381874E-01  0.81840216760E-01  0.51100000000E-03 0. -1.
</event>
<event>
 8    1  0.1120016E+005  0.1043930E+01  0.7957747E-01            NaN
         13   -1    0    0    0    0  0.00000000000E+00  0.00000000000E+00  0.74505805969E-08  0.10566000000E+00  0.10566000000E+00 0. -1.
     999900   -1    0    0    0    0 -0.00000000000E+00 -0.00000000000E+00 -0.74505805969E-08  0.93827000000E+00  0.93827000000E+00 0. -1.
     999902    2    1    2    0    0  0.19401983955E-02 -0.10911829296E-01  0.19768561101E-01  0.10212666288E+01  0.10210151314E+01 0.  0.
     999903    2    3    3    0    0 -0.61190029775E-01  0.49873270622E-01  0.10566806920E+00  0.13275158691E+00  0.15022653343E-01 0.  0.
         14    1    1    2    0    0 -0.19401983955E-02  0.10911829296E-01 -0.19768561101E-01  0.22663371250E-01  0.00000000000E+00 0.  1.
     999901    1    3    3    0    0  0.63130228171E-01 -0.60785099918E-01 -0.85899508096E-01  0.88851504184E+00  0.88000000000E+00 0. -1.
        -11    1    4    4    0    0 -0.16755221098E-01  0.22608257120E-01  0.39844321617E-01  0.48782187427E-01  0.51100000000E-03 0.  1.
         11    1    4    4    0    0 -0.44434808677E-01  0.27265013502E-01  0.65823747580E-01  0.83969399485E-01  0.51100000000E-03 0. -1.
</event>
<event>
 8    1  0.1120016E+005  0.1043930E+01  0.7957747E-01            NaN
         13   -1    0    0    0    0  0.00000000000E+00  0.00000000000E+00  0.74505805969E-08  0.10566000000E+00  0.10566000000E+00 0.  1.
     999900   -1    0    0    0    0 -0.00000000000E+00 -0.00000000000E+00 -0.74505805969E-08  0.93827000000E+00  0.93827000000E+00 0.  1.
     999902    2    1    2    0    0  0.22633135488E-01  0.54432636471E-02  0.10073828820E-01  0.10185652613E+01  0.10182493907E+01 0.  0.
     999903    2    3    3    0    0  0.11730478026E-02  0.11357792453E+00 -0.57734414641E-01  0.12909823094E+00  0.20779066789E-01 0.  0.
         14    1    1    2    0    0 -0.22633135488E-01 -0.54432636471E-02 -0.10073828820E-01  0.25364738679E-01  0.00000000000E+00 0. -1.
     999901    1    3    3    0    0  0.21460087685E-01 -0.10813466089E+00  0.67808243461E-01  0.88946703038E+00  0.88000000000E+00 0. -1.
        -11    1    4    4    0    0  0.91396596478E-02  0.26732839973E-01 -0.14372818340E-01  0.31702005292E-01  0.51100000000E-03 0.  1.
         11    1    4    4    0    0 -0.79666118452E-02  0.86845084559E-01 -0.43361596300E-01  0.97396225651E-01  0.51100000000E-03 0. -1.
</event>
<event>
 8    1  0.1120016E+005  0.1043930E+01  0.7957747E-01            NaN
         13   -1    0    0    0    0  0.00000000000E+00  0.00000000000E+00  0.74505805969E-08  0.10566000000E+00  0.10566000000E+00 0.  1.
     999900   -1    0    0    0    0 -0.00000000000E+00 -0.00000000000E+00 -0.74505805969E-08  0.93827000000E+00  0.93827000000E+00 0. -1.
     999902    2    1    2    0    0  0.15061906461E-01 -0.14517645220E-01  0.20512994105E-02  0.10229102265E+01  0.10226942361E+01 0.  0.
     999903    2    3    3    0    0 -0.12395625501E-01 -0.12718648163E+00  0.37188153329E-01  0.13460691047E+00  0.20149663902E-01 0.  0.
         14    1    1    2    0    0 -0.15061906461E-01  0.14517645220E-01 -0.20512994105E-02  0.21019773506E-01  0.00000000000E+00 0.  1.
     999901    1    3    3    0    0  0.27457531962E-01  0.11266883642E+00 -0.35136853919E-01  0.88830331603E+00  0.88000000000E+00 0. -1.
        -11    1    4    4    0    0  0.20866700793E-02 -0.47070864762E-01  0.21046373924E-01  0.51606506158E-01  0.51100000000E-03 0.  1.
         11    1    4    4    0    0 -0.14482295580E-01 -0.80115616873E-01  0.16141779405E-01  0.83000404310E-01  0.51100000000E-03 0. -1.
</event>
<event>
 8    1  0.1120016E+005  0.1043930E+01  0.7957747E-01            NaN
         13   -1    0    0    0    0  0.00000000000E+00  0.00000000000E+00  0.74505805969E-08  0.10566000000E+00  0.10566000000E+00 0.  1.
     999900   -1    0    0    0    0 -0.00000000000E+00 -0.00000000000E+00 -0.74505805969E-08  0.93827000000E+00  0.93827000000E+00 0.  1.
     999902    2    1    2    0    0  0.20140395216E-01 -0.30880640402E-03  0.11937521824E-01  0.10205155748E+01  0.10202469324E+01 0.  0.
     999903    2    3    3    0    0 -0.90073930579E-01  0.47165811404E-01 -0.75129216489E-01  0.12811339310E+00  0.20753688520E-01 0.  0.
         14    1    1    2    0    0 -0.20140395216E-01  0.30880640402E-03 -0.11937521824E-01  0.23414425215E-01  0.00000000000E+00 0. -1.
     999901    1    3    3    0    0  0.11021432580E+00 -0.47474617808E-01  0.87066738313E-01  0.89240218168E+00  0.88000000000E+00 0. -1.
        -11    1    4    4    0    0 -0.23311549262E-01  0.22395601742E-01 -0.27477340637E-01  0.42429431717E-01  0.51100000000E-03 0. -1.
         11    1    4    4    0    0 -0.66762381317E-01  0.24770209663E-01 -0.47651875852E-01  0.85683961388E-01  0.51100000000E-03 0.  1.
</event>
<event>
 8    1  0.1120016E+005  0.1043930E+01  0.7957747E-01            NaN
         13   -1    0    0    0    0  0.00000000000E+00  0.00000000000E+00  0.74505805969E-08  0.10566000000E+00  0.10566000000E+00 0. -1.
     999900   -1    0    0    0    0 -0.00000000000E+00 -0.00000000000E+00 -0.74505805969E-08  0.93827000000E+00  0.93827000000E+00 0.  1.
     999902    2    1    2    0    0  0.98419592927E-02  0.23980797620E-01 -0.96707787843E-02  0.10162629297E+01  0.10158862513E+01 0.  0.
     999903    2    3    3    0    0 -0.87835742734E-01  0.63354357460E-01  0.63988475903E-01  0.12692784296E+00  0.16948745067E-01 0.  0.
         14    1    1    2    0    0 -0.98419592927E-02 -0.23980797620E-01  0.96707787843E-02  0.27667070309E-01  0.00000000000E+00 0.  1.
     999901    1    3    3    0    0  0.97677702027E-01 -0.39373559841E-01 -0.73659254688E-01  0.88933508673E+00  0.88000000000E+00 0.  1.
        -11    1    4    4    0    0 -0.86496924882E-01  0.58267120440E-01  0.61616527837E-01  0.12113477190E+00  0.51100000000E-03 0.  1.
         11    1    4    4    0    0 -0.13388178522E-02  0.50872370202E-02  0.23719480667E-02  0.57930710657E-02  0.51100000000E-03 0. -1.
</event>
<event>
 8    1  0.1120016E+005  0.1043930E+01  0.7957747E-01            NaN
         13   -1    0    0    0    0  0.00000000000E+00  0.00000000000E+00  0.74505805969E-08  0.10566000000E+00  0.10566000000E+00 0.  1.
     999900   -1    0    0    0    0 -0.00000000000E+00 -0.00000000000E+00 -0.74505805969E-08  0.93827000000E+00  0.93827000000E+00 0. -1.
     999902    2    1    2    0    0 -0.13711377714E-01 -0.56758582388E-02 -0.20053280335E-01  0.10189830303E+01  0.10186776059E+01 0.  0.
     999903    2    3    3    0    0  0.11215578039E+00  0.55562659813E-01 -0.17139075379E-01  0.12791558606E+00  0.20062926292E-01 0.  0.
         14    1    1    2    0    0  0.13711377714E-01  0.56758582388E-02  0.20053280335E-01  0.24946969711E-01  0.00000000000E+00 0. -1.
     999901    1    3    3    0    0 -0.12586715810E+00 -0.61238518052E-01 -0.29142049566E-02  0.89106744423E+00  0.88000000000E+00 0. -1.
        -11    1    4    4    0    0  0.11611700359E-01  0.11636801446E-01 -0.64789756386E-02  0.17677244679E-01  0.51100000000E-03 0.  1.
         11    1    4    4    0    0  0.10054408003E+00  0.43925858367E-01 -0.10660099740E-01  0.11023834138E+00  0.51100000000E-03 0. -1.
</event>
<event>
 8    1  0.1120016E+005  0.1043930E+01  0.7957747E-01            NaN
         13   -1    0    0    0    0  0.00000000000E+00  0.00000000000E+00  0.74505805969E-08  0.10566000000E+00  0.10566000000E+00 0. -1.
     999900   -1    0    0    0    0 -0.00000000000E+00 -0.00000000000E+00 -0.74505805969E-08  0.93827000000E+00  0.93827000000E+00 0. -1.
     999902    2    1    2    0    0 -0.89743271463E-02  0.21108453052E-01  0.72230908035E-02  0.10198825806E+01  0.10195990388E+01 0.  0.
     999903    2    3    3    0    0  0.34214344703E-01 -0.11558422360E+00  0.36367693920E-01  0.12780659893E+00  0.21945009453E-01 0.  0.
         14    1    1    2    0    0  0.89743271463E-02 -0.21108453052E-01 -0.72230908035E-02  0.24047419377E-01  0.00000000000E+00 0. -1.
     999901    1    3    3    0    0 -0.43188671850E-01  0.13669267665E+00 -0.29144603117E-01  0.89207598169E+00  0.88000000000E+00 0.  1.
        -11    1    4    4    0    0  0.27724789840E-01 -0.59932443582E-01  0.25149384912E-01  0.70663388313E-01  0.51100000000E-03 0. -1.
         11    1    4    4    0    0  0.64895548634E-02 -0.55651780017E-01  0.11218309009E-01  0.57143210615E-01  0.51100000000E-03 0.  1.
</event>
<event>
 8    1  0.1120016E+005  0.1043930E+01  0.7957747E-01            NaN
         13   -1    0    0    0    0  0.00000000000E+00  0.00000000000E+00  0.74505805969E-08  0.10566000000E+00  0.10566000000E+00 0. -1.
     999900   -1    0    0    0    0 -0.00000000000E+00 -0.00000000000E+00 -0.74505805969E-08  0.93827000000E+00  0.93827000000E+00 0. -1.
     999902    2    1    2    0    0 -0.43641409469E-02  0.17331817267E-01 -0.82944689564E-02  0.10242262990E+01  0.10240367551E+01 0.  0.
     999903    2    3    3    0    0  0.12226493878E+00  0.48310763208E-01 -0.22226933188E-01  0.13451357435E+00  0.17810671774E-01 0.  0.
         14    1    1    2    0    0  0.43641409469E-02 -0.17331817267E-01  0.82944689564E-02  0.19703700954E-01  0.00000000000E+00 0. -1.
     999901    1    3    3    0    0 -0.12662907973E+00 -0.30978945940E-01  0.13932464231E-01  0.88971272469E+00  0.88000000000E+00 0. -1.
        -11    1    4    4    0    0  0.73189286716E-01  0.37977109332E-01 -0.15659500706E-01  0.83931005038E-01  0.51100000000E-03 0.  1.
         11    1    4    4    0    0  0.49075652065E-01  0.10333653876E-01 -0.65674324821E-02  0.50582569314E-01  0.51100000000E-03 0. -1.
</event>
<event>
 8    1  0.1120016E+005  0.1043930E+01  0.7957747E-01            NaN
         13   -1    0    0    0    0  0.00000000000E+00  0.00000000000E+00  0.74505805969E-08  0.10566000000E+00  0.10566000000E+00 0. -1.
     999900   -1    0    0    0    0 -0.00000000000E+00 -0.00000000000E+00 -0.74505805969E-08  0.93827000000E+00  0.93827000000E+00 0. -1.
     999902    2    1    2    0    0  0.66988371440E-02 -0.17791711323E-01 -0.14565148570E-01  0.10199808254E+01  0.10196996230E+01 0.  0.
     999903    2    3    3    0    0  0.13332205058E-02  0.11891017685E+00  0.36484861926E-01  0.12794814683E+00  0.29969576121E-01 0.  0.
         14    1    1    2    0    0 -0.66988371440E-02  0.17791711323E-01  0.14565148570E-01  0.23949174594E-01  0.00000000000E+00 0.  1.
     999901    1    3    3    0    0  0.53656166382E-02 -0.13670188817E+00 -0.51050010496E-01  0.89203267857E+00  0.88000000000E+00 0. -1.
        -11    1    4    4    0    0  0.20752564999E-02  0.28671434800E-01  0.22755529177E-01  0.36666511863E-01  0.51100000000E-03 0.  1.
         11    1    4    4    0    0 -0.74203599411E-03  0.90238742049E-01  0.13729332748E-01  0.91281634969E-01  0.51100000000E-03 0. -1.
</event>
<event>
 8    1  0.1120016E+005  0.1043930E+01  0.7957747E-01            NaN
         13   -1    0    0    0    0  0.00000000000E+00  0.00000000000E+00  0.74505805969E-08  0.10566000000E+00  0.10566000000E+00 0. -1.
     999900   -1    0    0    0    0 -0.00000000000E+00 -0.00000000000E+00 -0.74505805969E-08  0.93827000000E+00  0.93827000000E+00 0. -1.
     999902    2    1    2    0    0 -0.32216982125E-02  0.55721853799E-02 -0.32710443521E-01  0.10105923080E+01  0.10100422820E+01 0.  0.
     999903    2    3    3    0    0  0.90736567148E-01  0.61435919881E-01  0.45501428049E-01  0.12038670859E+00  0.20373580444E-01 0.  0.
         14    1    1    2    0    0  0.32216982125E-02 -0.55721853799E-02  0.32710443521E-01  0.33337691951E-01  0.00000000000E+00 0. -1.
     999901    1    3    3    0    0 -0.93958265360E-01 -0.55863734501E-01 -0.78211871570E-01  0.89020559946E+00  0.88000000000E+00 0. -1.
        -11    1    4    4    0    0  0.66275794283E-01  0.33486446600E-01  0.28546279288E-01  0.79554850235E-01  0.51100000000E-03 0. -1.
         11    1    4    4    0    0  0.24460772865E-01  0.27949473281E-01  0.16955148761E-01  0.40831858351E-01  0.51100000000E-03 0.  1.
</event>
<event>
 8    1  0.1120016E+005  0.1043930E+01  0.7957747E-01            NaN
         13   -1    0    0    0    0  0.00000000000E+00  0.00000000000E+00  0.74505805969E-08  0.10566000000E+00  0.10566000000E+00 0. -1.
     999900   -1    0    0    0    0 -0.00000000000E+00 -0.00000000000E+00 -0.74505805969E-08  0.93827000000E+00  0.93827000000E+00 0. -1.
     999902    2    1    2    0    0 -0.44527173899E-03  0.59711057156E-02 -0.23443295824E-01  0.10197341225E+01  0.10194470266E+01 0.  0.
     999903    2    3    3    0    0 -0.10702094399E-01  0.35779455258E-01  0.12028283984E+00  0.12751725299E+00  0.19949536504E-01 0.  0.
         14    1    1    2    0    0  0.44527173899E-03 -0.59711057156E-02  0.23443295824E-01  0.24195877531E-01  0.00000000000E+00 0. -1.
     999901    1    3    3    0    0  0.10256822660E-01 -0.29808349542E-01 -0.14372613566E+00  0.89221686948E+00  0.88000000000E+00 0. -1.
        -11    1    4    4    0    0 -0.49387495283E-02  0.30908993614E-01  0.70164291667E-01  0.76831283208E-01  0.51100000000E-03 0.  1.
         11    1    4    4    0    0 -0.57633448706E-02  0.48704616438E-02  0.50118548172E-01  0.50685969780E-01  0.51100000000E-03 0. -1.
</event>
<event>
 8    1  0.1120016E+005  0.1043930E+01  0.7957747E-01            NaN
         13   -1    0    0    0    0  0.00000000000E+00  0.00000000000E+00  0.74505805969E-08  0.10566000000E+00  0.10566000000E+00 0.  1.
     999900   -1    0    0    0    0 -0.00000000000E+00 -0.00000000000E+00 -0.74505805969E-08  0.93827000000E+00  0.93827000000E+00 0.  1.
     999902    2    1    2    0    0 -0.56937335714E-03 -0.29100776913E-02 -0.23284474356E-01  0.10204574738E+01  0.10201874810E+01 0.  0.
     999903    2    3    3    0    0  0.10415928226E+00 -0.12019139032E-01 -0.78635084913E-01  0.13247393999E+00  0.19293843876E-01 0.  0.
         14    1    1    2    0    0  0.56937335714E-03  0.29100776913E-02  0.23284474356E-01  0.23472526158E-01  0.00000000000E+00 0.  1.
     999901    1    3    3    0    0 -0.10472865562E+00  0.91090613407E-02  0.55350610557E-01  0.88798353385E+00  0.88000000000E+00 0. -1.
        -11    1    4    4    0    0  0.60499599370E-02  0.38678398685E-02 -0.46293366287E-02  0.85588596851E-02  0.51100000000E-03 0.  1.
         11    1    4    4    0    0  0.98109322328E-01 -0.15886978900E-01 -0.74005748285E-01  0.12391508030E+00  0.51100000000E-03 0. -1.
</event>
<event>
 8    1  0.1120016E+005  0.1043930E+01  0.7957747E-01            NaN
         13   -1    0    0    0    0  0.00000000000E+00  0.00000000000E+00  0.74505805969E-08  0.10566000000E+00  0.10566000000E+00 0.  1.
     999900   -1    0    0    0    0 -0.00000000000E+00 -0.00000000000E+00 -0.74505805969E-08  0.93827000000E+00  0.93827000000E+00 0.  1.
     999902    2    1    2    0    0  0.14017137550E-01 -0.67059178555E-02 -0.18282783041E-01  0.10199360500E+01  0.10196537827E+01 0.  0.
     999903    2    3    3    0    0  0.12805981851E+00 -0.18903870061E-01  0.16369964629E-01  0.13181706249E+00  0.18737363733E-01 0.  0.
         14    1    1    2    0    0 -0.14017137550E-01  0.67059178555E-02  0.18282783041E-01  0.23993949969E-01  0.00000000000E+00 0. -1.
     999901    1    3    3    0    0 -0.11404268096E+00  0.12197952206E-01 -0.34652747670E-01  0.88811898755E+00  0.88000000000E+00 0. -1.
        -11    1    4    4    0    0  0.29645435104E-01  0.31931883327E-03 -0.25912693507E-02  0.29764569287E-01  0.51100000000E-03 0. -1.
         11    1    4    4    0    0  0.98414383408E-01 -0.19223188895E-01  0.18961233980E-01  0.10205249320E+00  0.51100000000E-03 0.  1.
</event>
<event>
 8    1  0.1120016E+005  0.1043930E+01  0.7957747E-01            NaN
         13   -1    0    0    0    0  0.00000000000E+00  0.00000000000E+00  0.74505805969E-08  0.10566000000E+00  0.10566000000E+00 0. -1.
     999900   -1    0    0    0    0 -0.00000000000E+00 -0.00000000000E+00 -0.74505805969E-08  0.93827000000E+00  0.93827000000E+00 0.  1.
     999902    2    1    2    0    0 -0.21547095508E-01 -0.41656762840E-02  0.81823687245E-02  0.10205081866E+01  0.10202393727E+01 0.  0.
     999903    2    3    3    0    0 -0.59652136960E-01 -0.10768803973E+00  0.45812525012E-01  0.13282304955E+00  0.19699840106E-01 0.  0.
         14    1    1    2    0    0  0.21547095508E-01  0.41656762840E-02 -0.81823687245E-02  0.23421813373E-01  0.00000000000E+00 0.  1.
     999901    1    3    3    0    0  0.38105041452E-01  0.10352236345E+00 -0.37630156288E-01  0.88768513707E+00  0.88000000000E+00 0.  1.
        -11    1    4    4    0    0 -0.42536508231E-01 -0.57017374373E-01  0.24311251077E-01  0.75177347405E-01  0.51100000000E-03 0. -1.
         11    1    4    4    0    0 -0.17115628729E-01 -0.50670665357E-01  0.21501273935E-01  0.57645702150E-01  0.51100000000E-03 0.  1.
</event>
<event>
 8    1  0.1120016E+005  0.1043930E+01  0.7957747E-01            NaN
         13   -1    0    0    0    0  0.00000000000E+00  0.00000000000E+00  0.74505805969E-08  0.10566000000E+00  0.10566000000E+00 0. -1.
     999900   -1    0    0    0    0 -0.00000000000E+00 -0.00000000000E+00 -0.74505805969E-08  0.93827000000E+00  0.93827000000E+00 0.  1.
     999902    2    1    2    0    0  0.53125438008E-02 -0.12472944917E-01 -0.31899419761E-01  0.10092692086E+01  0.10086738646E+01 0.  0.
     999903    2    3    3    0    0 -0.60962334518E-01  0.51752405656E-01  0.83363077162E-01  0.11696729878E+00  0.18363785775E-01 0.  0.
         14    1    1    2    0    0 -0.53125438008E-02  0.12472944917E-01  0.31899419761E-01  0.34660791359E-01  0.00000000000E+00 0. -1.
     999901    1    3    3    0    0  0.66274878318E-01 -0.64225350573E-01 -0.11526249692E+00  0.89230190987E+00  0.88000000000E+00 0.  1.
        -11    1    4    4    0    0 -0.34807001795E-01  0.26180009272E-01  0.57638328403E-01  0.72245126351E-01  0.51100000000E-03 0. -1.
         11    1    4    4    0    0 -0.26155332722E-01  0.25572396385E-01  0.25724748759E-01  0.44722172425E-01  0.51100000000E-03 0.  1.
</event>
<event>
 8    1  0.1120016E+005  0.1043930E+01  0.7957747E-01            NaN
         13   -1    0    0    0    0  0.00000000000E+00  0.00000000000E+00  0.74505805969E-08  0.10566000000E+00  0.10566000000E+00 0.  1.
     999900   -1    0    0    0    0 -0.00000000000E+00 -0.00000000000E+00 -0.74505805969E-08  0.93827000000E+00  0.93827000000E+00 0.  1.
     999902    2    1    2    0    0 -0.17725225501E-01  0.11136331758E-01 -0.10673758386E-01  0.10204325401E+01  0.10201619667E+01 0.  0.
     999903    2    3    3    0    0  0.92778582541E-01  0.31529659819E-01  0.80936868557E-01  0.12856960982E+00  0.19426349406E-01 0.  0.
         14    1    1    2    0    0  0.17725225501E-01 -0.11136331758E-01  0.10673758386E-01  0.23497459908E-01  0.00000000000E+00 0. -1.
     999901    1    3    3    0    0 -0.11050380804E+00 -0.20393328061E-01 -0.91610626943E-01  0.89186293027E+00  0.88000000000E+00 0.  1.
        -11    1    4    4    0    0  0.84061198757E-01  0.31864867968E-01  0.78863284056E-01  0.11958818353E+00  0.51100000000E-03 0.  1.
         11    1    4    4    0    0  0.87173837841E-02 -0.33520814897E-03  0.20735845016E-02  0.89814262914E-02  0.51100000000E-03 0. -1.
</event>
<event>
 8    1  0.1120016E+005  0.1043930E+01  0.7957747E-01            NaN
         13   -1    0    0    0    0  0.00000000000E+00  0.00000000000E+00  0.74505805969E-08  0.10566000000E+00  0.10566000000E+00 0.  1.
     999900   -1    0    0    0    0 -0.00000000000E+00 -0.00000000000E+00 -0.74505805969E-08  0.93827000000E+00  0.93827000000E+00 0.  1.
     999902    2    1    2    0    0 -0.55318867534E-02  0.22675976259E-01 -0.10097759953E-01  0.10184983971E+01  0.10181808378E+01 0.  0.
     999903    2    3    3    0    0 -0.50112051546E-01 -0.10161947255E+00 -0.50757047642E-01  0.12771788127E+00  0.29964051801E-01 0.  0.
         14    1    1    2    0    0  0.55318867534E-02 -0.22675976259E-01  0.10097759953E-01  0.25431602907E-01  0.00000000000E+00 0.  1.
     999901    1    3    3    0    0  0.44580164792E-01  0.12429544881E+00  0.40659287689E-01  0.89078051582E+00  0.88000000000E+00 0. -1.
        -11    1    4    4    0    0 -0.16460551912E-01 -0.66597041943E-01 -0.30980056497E-01  0.75273772234E-01  0.51100000000E-03 0.  1.
         11    1    4    4    0    0 -0.33651499634E-01 -0.35022430607E-01 -0.19776991145E-01  0.52444109040E-01  0.51100000000E-03 0. -1.
</event>
<event>
 8    1  0.1120016E+005  0.1043930E+01  0.7957747E-01            NaN
         13   -1    0    0    0    0  0.00000000000E+00  0.00000000000E+00  0.74505805969E-08  0.10566000000E+00  0.10566000000E+00 0.  1.
     999900   -1    0    0    0    0 -0.00000000000E+00 -0.00000000000E+00 -0.74505805969E-08  0.93827000000E+00  0.93827000000E+00 0.  1.
     999902    2    1    2    0    0  0.19910724330E-03 -0.21804354193E-01 -0.80930027341E-02  0.10206713199E+01  0.10204062804E+01 0.  0.
     999903    2    3    3    0    0 -0.72200225820E-01  0.10093941798E+00  0.26715574911E-01  0.12852820690E+00  0.20103216579E-01 0.  0.
         14    1    1    2    0    0 -0.19910724330E-03  0.21804354193E-01  0.80930027341E-02  0.23258680073E-01  0.00000000000E+00 0.  1.
     999901    1    3    3    0    0  0.72399333063E-01 -0.12274377217E+00 -0.34808577645E-01  0.89214311302E+00  0.88000000000E+00 0. -1.
        -11    1    4    4    0    0 -0.52391244739E-01  0.86033517527E-01  0.18574139297E-01  0.10242982200E+00  0.51100000000E-03 0. -1.
         11    1    4    4    0    0 -0.19808981081E-01  0.14905900453E-01  0.81414356146E-02  0.26098384905E-01  0.51100000000E-03 0.  1.
</event>
<event>
 8    1  0.1120016E+005  0.1043930E+01  0.7957747E-01            NaN
         13   -1    0    0    0    0  0.00000000000E+00  0.00000000000E+00  0.74505805969E-08  0.10566000000E+00  0.10566000000E+00 0.  1.
     999900   -1    0    0    0    0 -0.00000000000E+00 -0.00000000000E+00 -0.74505805969E-08  0.93827000000E+00  0.93827000000E+00 0. -1.
     999902    2    1    2    0    0  0.79336845613E-02 -0.21799380181E-01 -0.23890381019E-02  0.10206091117E+01  0.10203426361E+01 0.  0.
     999903    2    3    3    0    0  0.59391984736E-01 -0.10133100489E+00 -0.61072203729E-01  0.13358208287E+00  0.17859966185E-01 0.  0.
         14    1    1    2    0    0 -0.79336845613E-02  0.21799380181E-01  0.23890381019E-02  0.23320888277E-01  0.00000000000E+00 0.  1.
     999901    1    3    3    0    0 -0.51458300174E-01  0.79531624713E-01  0.58683165627E-01  0.88702702885E+00  0.88000000000E+00 0.  1.
        -11    1    4    4    0    0  0.61330153080E-02 -0.13247186369E-01 -0.14568513697E-01  0.20630185064E-01  0.51100000000E-03 0. -1.
         11    1    4    4    0    0  0.53258969428E-01 -0.88083818525E-01 -0.46503690033E-01  0.11295189781E+00  0.51100000000E-03 0.  1.
</event>
<event>
 8    1  0.1120016E+005  0.1043930E+01  0.7957747E-01            NaN
         13   -1    0    0    0    0  0.00000000000E+00  0.00000000000E+00  0.74505805969E-08  0.10566000000E+00  0.10566000000E+00 0. -1.
     999900   -1    0    0    0    0 -0.00000000000E+00 -0.00000000000E+00 -0.74505805969E-08  0.93827000000E+00  0.93827000000E+00 0. -1.
     999902    2    1    2    0    0 -0.75674059350E-03  0.21926993354E-01  0.79296210796E-02  0.10206009498E+01  0.10203342855E+01 0.  0.
     999903    2    3    3    0    0  0.20447424309E-02  0.11766198372E+00 -0.59281716121E-01  0.13285639162E+00  0.16969842209E-01 0.  0.
         14    1    1    2    0    0  0.75674059350E-03 -0.21926993354E-01 -0.79296210796E-02  0.23329050224E-01  0.00000000000E+00 0. -1.
     999901    1    3    3    0    0 -0.28014830244E-02 -0.95734990361E-01  0.67211337201E-01  0.88774455816E+00  0.88000000000E+00 0.  1.
        -11    1    4    4    0    0 -0.73452738222E-02  0.47916496580E-01 -0.25908515863E-01  0.54967772442E-01  0.51100000000E-03 0.  1.
         11    1    4    4    0    0  0.93900162531E-02  0.69745487135E-01 -0.33373200258E-01  0.77888619178E-01  0.51100000000E-03 0. -1.
</event>
<event>
 8    1  0.1120016E+005  0.1043930E+01  0.7957747E-01            NaN
         13   -1    0    0    0    0  0.00000000000E+00  0.00000000000E+00  0.74505805969E-08  0.10566000000E+00  0.10566000000E+00 0.  1.
     999900   -1    0    0    0    0 -0.00000000000E+00 -0.00000000000E+00 -0.74505805969E-08  0.93827000000E+00  0.93827000000E+00 0.  1.
     999902    2    1    2    0    0 -0.22039101343E-01 -0.30218884273E-02 -0.59257023779E-02  0.10209089716E+01  0.10206493818E+01 0.  0.
     999903    2    3    3    0    0  0.49944990503E-01  0.93784578808E-01  0.70846077045E-01  0.12936698851E+00  0.20654340601E-01 0.  0.
         14    1    1    2    0    0  0.22039101343E-01  0.30218884273E-02  0.59257023779E-02  0.23021028351E-01  0.00000000000E+00 0.  1.
     999901    1    3    3    0    0 -0.71984091847E-01 -0.96806467236E-01 -0.76771779423E-01  0.89154198314E+00  0.88000000000E+00 0.  1.
        -11    1    4    4    0    0  0.20513209973E-01  0.30116632173E-01  0.35278868752E-01  0.50721425633E-01  0.51100000000E-03 0. -1.
         11    1    4    4    0    0  0.29431780531E-01  0.63667946636E-01  0.35567208293E-01  0.78645562880E-01  0.51100000000E-03 0.  1.
</event>
<event>
 8    1  0.1120016E+005  0.1043930E+01  0.7957747E-01            NaN
         13   -1    0    0    0    0  0.00000000000E+00  0.00000000000E+00  0.74505805969E-08  0.10566000000E+00  0.10566000000E+00 0.  1.
     999900   -1    0    0    0    0 -0.00000000000E+00 -0.00000000000E+00 -0.74505805969E-08  0.93827000000E+00  0.93827000000E+00 0. -1.
     999902    2    1    2    0    0 -0.85918993894E-02  0.21800929815E-01 -0.59531697615E-02  0.10197527068E+01  0.10194660571E+01 0.  0.
     999903    2    3    3    0    0 -0.51524036698E-01 -0.90099115236E-01  0.72469539754E-01  0.12817269926E+00  0.20095514889E-01 0.  0.
         14    1    1    2    0    0  0.85918993894E-02 -0.21800929815E-01  0.59531697615E-02  0.24177293193E-01  0.00000000000E+00 0.  1.
     999901    1    3    3    0    0  0.42932137309E-01  0.11190004505E+00 -0.78422709515E-01  0.89158000755E+00  0.88000000000E+00 0. -1.
        -11    1    4    4    0    0 -0.40842429770E-02 -0.20770902256E-01  0.96222443877E-02  0.23258549596E-01  0.51100000000E-03 0.  1.
         11    1    4    4    0    0 -0.47439793721E-01 -0.69328212979E-01  0.62847295366E-01  0.10491414966E+00  0.51100000000E-03 0. -1.
</event>
<event>
 8    1  0.1120016E+005  0.1043930E+01  0.7957747E-01            NaN
         13   -1    0    0    0    0  0.00000000000E+00  0.00000000000E+00  0.74505805969E-08  0.10566000000E+00  0.10566000000E+00 0. -1.
     999900   -1    0    0    0    0 -0.00000000000E+00 -0.00000000000E+00 -0.74505805969E-08  0.93827000000E+00  0.93827000000E+00 0.  1.
     999902    2    1    2    0    0  0.66911831775E-02  0.20727376906E-01 -0.84499961405E-02  0.10205676688E+01  0.10203002343E+01 0.  0.
     999903    2    3    3    0    0  0.92955571150E-01 -0.10547581210E-01  0.88575926690E-01  0.13049256107E+00  0.20751482592E-01 0.  0.
         14    1    1    2    0    0 -0.66911831775E-02 -0.20727376906E-01  0.84499961405E-02  0.23362331230E-01  0.00000000000E+00 0.  1.
     999901    1    3    3    0    0 -0.86264387972E-01  0.31274958116E-01 -0.97025922830E-01  0.89007510770E+00  0.88000000000E+00 0.  1.
        -11    1    4    4    0    0  0.33819472597E-02  0.26397508372E-02  0.88710299480E-02  0.98672258051E-02  0.51100000000E-03 0. -1.
         11    1    4    4    0    0  0.89573623890E-01 -0.13187332047E-01  0.79704896742E-01  0.12062533527E+00  0.51100000000E-03 0.  1.
</event>
<event>
 7    1  0.1120016E+005  0.1043930E+01  0.7957747E-01            NaN
         13   -1    0    0    0    0  0.00000000000E+00  0.00000000000E+00  0.74505805969E-08  0.10566000000E+00  0.10566000000E+00 0.  1.
     999900   -1    0    0    0    0 -0.00000000000E+00 -0.00000000000E+00 -0.74505805969E-08  0.93827000000E+00  0.93827000000E+00 0. -1.
     999902    2    1    2    0    0 -0.16134465294E-01  0.18094204539E-01  0.77660125191E-03  0.10196746023E+01  0.10193860752E+01 0.  0.
         14    1    1    2    0    0  0.16134465294E-01 -0.18094204539E-01 -0.77660125191E-03  0.24255397703E-01  0.00000000000E+00 0. -1.
     999901    1    3    3    0    0  0.45986714185E-01 -0.84270535514E-01 -0.24542609063E-01  0.88556120099E+00  0.88000000000E+00 0.  1.
        -11    1    3    3    0    0 -0.43316048204E-01  0.54542915589E-01  0.40446367036E-01  0.80544269817E-01  0.51100000000E-03 0.  1.
         11    1    3    3    0    0 -0.18805131275E-01  0.47821824464E-01 -0.15127156721E-01  0.53569131492E-01  0.51100000000E-03 0. -1.
</event>
<event>
 8    1  0.1120016E+005  0.1043930E+01  0.7957747E-01            NaN
         13   -1    0    0    0    0  0.00000000000E+00  0.00000000000E+00  0.74505805969E-08  0.10566000000E+00  0.10566000000E+00 0.  1.
     999900   -1    0    0    0    0 -0.00000000000E+00 -0.00000000000E+00 -0.74505805969E-08  0.93827000000E+00  0.93827000000E+00 0. -1.
     999902    2    1    2    0    0  0.10456429862E-01 -0.20463867479E-01  0.35206522549E-02  0.10206813056E+01  0.10204164963E+01 0.  0.
     999903    2    3    3    0    0  0.84185499433E-01  0.85155531386E-01 -0.47734560187E-01  0.12982860741E+00  0.15434254961E-01 0.  0.
         14    1    1    2    0    0 -0.10456429862E-01  0.20463867479E-01 -0.35206522549E-02  0.23248694371E-01  0.00000000000E+00 0.  1.
     999901    1    3    3    0    0 -0.73729069571E-01 -0.10561939886E+00  0.51255212442E-01  0.89085269822E+00  0.88000000000E+00 0.  1.
        -11    1    4    4    0    0  0.67335199926E-01  0.69026745864E-01 -0.44746092313E-01  0.10630707734E+00  0.51100000000E-03 0.  1.
         11    1    4    4    0    0  0.16850299507E-01  0.16128785522E-01 -0.29884678736E-02  0.23521530076E-01  0.51100000000E-03 0. -1.
</event>
<event>
 8    1  0.1120016E+005  0.1043930E+01  0.7957747E-01            NaN
         13   -1    0    0    0    0  0.00000000000E+00  0.00000000000E+00  0.74505805969E-08  0.10566000000E+00  0.10566000000E+00 0.  1.
     999900   -1    0    0    0    0 -0.00000000000E+00 -0.00000000000E+00 -0.74505805969E-08  0.93827000000E+00  0.93827000000E+00 0. -1.
     999902    2    1    2    0    0  0.19233817110E-01 -0.78283590209E-02  0.12565006612E-01  0.10196585699E+01  0.10193696567E+01 0.  0.
     999903    2    3    3    0    0 -0.10915564236E+00  0.39328465958E-01 -0.46442547639E-01  0.12713993658E+00  0.23366016991E-01 0.  0.
         14    1    1    2    0    0 -0.19233817110E-01  0.78283590209E-02 -0.12565006612E-01  0.24271430051E-01  0.00000000000E+00 0. -1.
     999901    1    3    3    0    0  0.12838945947E+00 -0.47156824979E-01  0.59007554251E-01  0.89251863336E+00  0.88000000000E+00 0.  1.
        -11    1    4    4    0    0 -0.50319818488E-01  0.58804434653E-02 -0.19136053822E-01  0.54158225828E-01  0.51100000000E-03 0. -1.
         11    1    4    4    0    0 -0.58835823871E-01  0.33448022492E-01 -0.27306493817E-01  0.72981710756E-01  0.51100000000E-03 0.  1.
</event>
<event>
 8    1  0.1120016E+005  0.1043930E+01  0.7957747E-01            NaN
         13   -1    0    0    0    0  0.00000000000E+00  0.00000000000E+00  0.74505805969E-08  0.10566000000E+00  0.10566000000E+00 0. -1.
     999900   -1    0    0    0    0 -0.00000000000E+00 -0.00000000000E+00 -0.74505805969E-08  0.93827000000E+00  0.93827000000E+00 0.  1.
     999902    2    1    2    0    0  0.53918097404E-02  0.17038520363E-01  0.10717218344E-01  0.10230915366E+01  0.10228792943E+01 0.  0.
     999903    2    3    3    0    0  0.12060953417E+00 -0.51815393618E-01 -0.25965125447E-02  0.13281447807E+00  0.20036191197E-01 0.  0.
         14    1    1    2    0    0 -0.53918097404E-02 -0.17038520363E-01 -0.10717218344E-01  0.20838463415E-01  0.00000000000E+00 0.  1.
     999901    1    3    3    0    0 -0.11521772443E+00  0.68853913981E-01  0.13313730889E-01  0.89027705852E+00  0.88000000000E+00 0.  1.
        -11    1    4    4    0    0  0.29764129968E-01 -0.12973106117E-01 -0.93206902988E-02  0.33783743187E-01  0.51100000000E-03 0.  1.
         11    1    4    4    0    0  0.90845404205E-01 -0.38842287501E-01  0.67241777541E-02  0.99030734880E-01  0.51100000000E-03 0. -1.
</event>
<event>
 8    1  0.1120016E+005  0.1043930E+01  0.7957747E-01            NaN
         13   -1    0    0    0    0  0.00000000000E+00  0.00000000000E+00  0.74505805969E-08  0.10566000000E+00  0.10566000000E+00 0. -1.
     999900   -1    0    0    0    0 -0.00000000000E+00 -0.00000000000E+00 -0.74505805969E-08  0.93827000000E+00  0.93827000000E+00 0.  1.
     999902    2    1    2    0    0  0.19447824039E-01  0.13037470621E-01 -0.54992191715E-02  0.10198793262E+01  0.10195957067E+01 0.  0.
     999903    2    3    3    0    0 -0.48473493254E-01  0.72770306340E-01 -0.95260523844E-01  0.13070082395E+00  0.19051009002E-01 0.  0.
         14    1    1    2    0    0 -0.19447824039E-01 -0.13037470621E-01  0.54992191715E-02  0.24050673828E-01  0.00000000000E+00 0. -1.
     999901    1    3    3    0    0  0.67921317293E-01 -0.59732835718E-01  0.89761304673E-01  0.88917850223E+00  0.88000000000E+00 0. -1.
        -11    1    4    4    0    0 -0.19617807327E-01  0.33779347698E-01 -0.29348910904E-01  0.48862279802E-01  0.51100000000E-03 0. -1.
         11    1    4    4    0    0 -0.28855685927E-01  0.38990958641E-01 -0.65911612941E-01  0.81838544143E-01  0.51100000000E-03 0.  1.
</event>
<event>
 8    1  0.1120016E+005  0.1043930E+01  0.7957747E-01            NaN
         13   -1    0    0    0    0  0.00000000000E+00  0.00000000000E+00  0.74505805969E-08  0.10566000000E+00  0.10566000000E+00 0.  1.
     999900   -1    0    0    0    0 -0.00000000000E+00 -0.00000000000E+00 -0.74505805969E-08  0.93827000000E+00  0.93827000000E+00 0. -1.
     999902    2    1    2    0    0  0.14856392539E-01 -0.30242422432E-02 -0.15038894387E-01  0.10225752163E+01  0.10223522125E+01 0.  0.
     999903    2    3    3    0    0 -0.44091464598E-01  0.12003388242E+00 -0.25729030334E-01  0.13199538786E+00  0.20214085028E-01 0.  0.
         14    1    1    2    0    0 -0.14856392539E-01  0.30242422432E-02  0.15038894387E-01  0.21354783652E-01  0.00000000000E+00 0.  1.
     999901    1    3    3    0    0  0.58947857137E-01 -0.12305812467E+00  0.10690135947E-01  0.89057982849E+00  0.88000000000E+00 0.  1.
        -11    1    4    4    0    0 -0.31264990716E-01  0.57750374296E-01 -0.16723851229E-01  0.67768382721E-01  0.51100000000E-03 0. -1.
         11    1    4    4    0    0 -0.12826473883E-01  0.62283508129E-01 -0.90051791050E-02  0.64227005136E-01  0.51100000000E-03 0.  1.
</event>
<event>
 8    1  0.1120016E+005  0.1043930E+01  0.7957747E-01            NaN
         13   -1    0    0    0    0  0.00000000000E+00  0.00000000000E+00  0.74505805969E-08  0.10566000000E+00  0.10566000000E+00 0.  1.
     999900   -1    0    0    0    0 -0.00000000000E+00 -0.00000000000E+00 -0.74505805969E-08  0.93827000000E+00  0.93827000000E+00 0. -1.
     999902    2    1    2    0    0  0.20640374487E-02  0.39941783427E-02 -0.22177712610E-01  0.10213011545E+01  0.10210504315E+01 0.  0.
     999903    2    3    3    0    0 -0.89595599852E-01 -0.84831885320E-01  0.36193667652E-01  0.13017895373E+00  0.20316449922E-01 0.  0.
         14    1    1    2    0    0 -0.20640374487E-02 -0.39941783427E-02  0.22177712610E-01  0.22628845482E-01  0.00000000000E+00 0.  1.
     999901    1    3    3    0    0  0.91659637301E-01  0.88826063663E-01 -0.58371380263E-01  0.89112220078E+00  0.88000000000E+00 0.  1.
        -11    1    4    4    0    0 -0.75295435052E-01 -0.59584169856E-01  0.27297883954E-01  0.99825404715E-01  0.51100000000E-03 0.  1.
         11    1    4    4    0    0 -0.14300164800E-01 -0.25247715465E-01  0.88957836981E-02  0.30353549020E-01  0.51100000000E-03 0. -1.
</event>
<event>
 8    1  0.1120016E+005  0.1043930E+01  0.7957747E-01            NaN
         13   -1    0    0    0    0  0.00000000000E+00  0.00000000000E+00  0.74505805969E-08  0.10566000000E+00  0.10566000000E+00 0. -1.
     999900   -1    0    0    0    0 -0.00000000000E+00 -0.00000000000E+00 -0.74505805969E-08  0.93827000000E+00  0.93827000000E+00 0. -1.
     999902    2    1    2    0    0 -0.58672124306E-02 -0.16296490686E-01  0.16390747646E-01  0.10200834825E+01  0.10198047140E+01 0.  0.
     999903    2    3    3    0    0  0.61373423990E-01 -0.90439299479E-01 -0.68216310621E-01  0.13037745596E+00  0.19971277509E-01 0.  0.
         14    1    1    2    0    0  0.58672124306E-02  0.16296490686E-01 -0.16390747646E-01  0.23846517540E-01  0.00000000000E+00 0.  1.
     999901    1    3    3    0    0 -0.67240636421E-01  0.74142808793E-01  0.84607058268E-01  0.88970602650E+00  0.88000000000E+00 0.  1.
        -11    1    4    4    0    0  0.24743959967E-01 -0.41377703492E-01 -0.19011895977E-01  0.51827514032E-01  0.51100000000E-03 0. -1.
         11    1    4    4    0    0  0.36629464023E-01 -0.49061595987E-01 -0.49204414644E-01  0.78549941928E-01  0.51100000000E-03 0.  1.
</event>
<event>
 8    1  0.1120016E+005  0.1043930E+01  0.7957747E-01            NaN
         13   -1    0    0    0    0  0.00000000000E+00  0.00000000000E+00  0.74505805969E-08  0.10566000000E+00  0.10566000000E+00 0. -1.
     999900   -1    0    0    0    0 -0.00000000000E+00 -0.00000000000E+00 -0.74505805969E-08  0.93827000000E+00  0.93827000000E+00 0. -1.
     999902    2    1    2    0    0 -0.57790740688E-02 -0.12268190933E-01 -0.18742885668E-01  0.10207955675E+01  0.10205333844E+01 0.  0.
     999903    2    3    3    0    0  0.33026171567E-01 -0.12002327822E+00  0.36774652125E-01  0.13163911164E+00  0.21912675544E-01 0.  0.
         14    1    1    2    0    0  0.57790740688E-02  0.12268190933E-01  0.18742885668E-01  0.23134432542E-01  0.00000000000E+00 0. -1.
     999901    1    3    3    0    0 -0.38805245636E-01  0.10775508729E+00 -0.55517537793E-01  0.88915645582E+00  0.88000000000E+00 0. -1.
        -11    1    4    4    0    0  0.90531471821E-02 -0.32088061652E-01 -0.25267245462E-04  0.33344638758E-01  0.51100000000E-03 0.  1.
         11    1    4    4    0    0  0.23973024385E-01 -0.87935216573E-01  0.36799919371E-01  0.98294472879E-01  0.51100000000E-03 0. -1.
</event>
<event>
 8    1  0.1120016E+005  0.1043930E+01  0.7957747E-01            NaN
         13   -1    0    0    0    0  0.00000000000E+00  0.00000000000E+00  0.74505805969E-08  0.10566000000E+00  0.10566000000E+00 0.  1.
     999900   -1    0    0    0    0 -0.00000000000E+00 -0.00000000000E+00 -0.74505805969E-08  0.93827000000E+00  0.93827000000E+00 0.  1.
     999902    2    1    2    0    0  0.76843782016E-02  0.14314993241E-03  0.21682445528E-01  0.10209256829E+01  0.10206664741E+01 0.  0.
     999903    2    3    3    0    0  0.91879989573E-01 -0.89063358932E-01 -0.21955536723E-01  0.13134658262E+00  0.19891324356E-01 0.  0.
         14    1    1    2    0    0 -0.76843782016E-02 -0.14314993241E-03 -0.21682445528E-01  0.23004317080E-01  0.00000000000E+00 0.  1.
     999901    1    3    3    0    0 -0.84195611371E-01  0.89206508864E-01  0.43637982251E-01  0.88957910030E+00  0.88000000000E+00 0. -1.
        -11    1    4    4    0    0  0.54897925131E-01 -0.40534621088E-01 -0.15575019755E-01  0.69997714619E-01  0.51100000000E-03 0.  1.
         11    1    4    4    0    0  0.36982064442E-01 -0.48528737844E-01 -0.63805169673E-02  0.61348868000E-01  0.51100000000E-03 0. -1.
</event>
<event>
 8    1  0.1120016E+005  0.1043930E+01  0.7957747E-01            NaN
         13   -1    0    0    0    0  0.00000000000E+00  0.00000000000E+00  0.74505805969E-08  0.10566000000E+00  0.10566000000E+00 0. -1.
     999900   -1    0    0    0    0 -0.00000000000E+00 -0.00000000000E+00 -0.74505805969E-08  0.93827000000E+00  0.93827000000E+00 0. -1.
     999902    2    1    2    0    0 -0.12286847615E-01 -0.18155939412E-01 -0.14334426753E-01  0.10177368606E+01  0.10173997429E+01 0.  0.
     999903    2    3    3    0    0  0.19411411489E-01 -0.12745035924E+00 -0.67453320263E-03  0.13030424767E+00  0.18930002617E-01 0.  0.
         14    1    1    2    0    0  0.12286847615E-01  0.18155939412E-01  0.14334426753E-01  0.26193139380E-01  0.00000000000E+00 0. -1.
     999901    1    3    3    0    0 -0.31698259104E-01  0.10929441983E+00 -0.13659893550E-01  0.88743261295E+00  0.88000000000E+00 0.  1.
        -11    1    4    4    0    0  0.15472525517E-01 -0.48623582300E-01 -0.49078353364E-02  0.51264020231E-01  0.51100000000E-03 0. -1.
         11    1    4    4    0    0  0.39388859719E-02 -0.78826776941E-01  0.42333021338E-02  0.79040227439E-01  0.51100000000E-03 0.  1.
</event>
<event>
 8    1  0.1120016E+005  0.1043930E+01  0.7957747E-01            NaN
         13   -1    0    0    0    0  0.00000000000E+00  0.00000000000E+00  0.74505805969E-08  0.10566000000E+00  0.10566000000E+00 0. -1.
     999900   -1    0    0    0    0 -0.00000000000E+00 -0.00000000000E+00 -0.74505805969E-08  0.93827000000E+00  0.93827000000E+00 0.  1.
     999902    2    1    2    0    0  0.11073225344E-01 -0.12168412528E-01 -0.16577147050E-01  0.10205743072E+01  0.10203070264E+01 0.  0.
     999903    2    3    3    0    0 -0.41223954446E-01  0.11286122680E+00  0.40307908161E-01  0.12838412833E+00  0.20510631663E-01 0.  0.
         14    1    1    2    0    0 -0.11073225344E-01  0.12168412528E-01  0.16577147050E-01  0.23355692825E-01  0.00000000000E+00 0. -1.
     999901    1    3    3    0    0  0.52297179791E-01 -0.12502963933E+00 -0.56885055211E-01  0.89219017885E+00  0.88000000000E+00 0.  1.
        -11    1    4    4    0    0 -0.64292796834E-02  0.19425165416E-01 -0.92531374214E-03  0.20488777787E-01  0.51100000000E-03 0.  1.
         11    1    4    4    0    0 -0.34794674763E-01  0.93436061384E-01  0.41233221903E-01  0.10789535054E+00  0.51100000000E-03 0. -1.
</event>
<event>
 8    1  0.1373794E+005  0.1043930E+01  0.7957747E-01            NaN
         13   -1    0    0    0    0  0.00000000000E+00  0.00000000000E+00  0.74505805969E-08  0.10566000000E+00  0.10566000000E+00 0. -1.
     999900   -1    0    0    0    0 -0.00000000000E+00 -0.00000000000E+00 -0.74505805969E-08  0.93827000000E+00  0.93827000000E+00 0.  1.
     999902    2    1    2    0    0 -0.40232002049E-02 -0.35809492202E-02  0.23935798788E-01  0.10193957015E+01  0.10191004193E+01 0.  0.
     999903    2    3    3    0    0 -0.42295128711E-01  0.11109527341E+00 -0.44616847487E-01  0.12848894892E+00  0.19690333395E-01 0.  0.
         14    1    1    2    0    0  0.40232002049E-02  0.35809492202E-02 -0.23935798788E-01  0.24534298458E-01  0.00000000000E+00 0.  1.
     999901    1    3    3    0    0  0.38271928506E-01 -0.11467622263E+00  0.68552646276E-01  0.89090675262E+00  0.88000000000E+00 0. -1.
        -11    1    4    4    0    0 -0.73541750362E-02  0.44713820086E-01 -0.20012418590E-01  0.49539556073E-01  0.51100000000E-03 0.  1.
         11    1    4    4    0    0 -0.34940953675E-01  0.66381453324E-01 -0.24604428897E-01  0.78949392851E-01  0.51100000000E-03 0. -1.
</event>
<event>
 8    1  0.1120016E+005  0.1043930E+01  0.7957747E-01            NaN
         13   -1    0    0    0    0  0.00000000000E+00  0.00000000000E+00  0.74505805969E-08  0.10566000000E+00  0.10566000000E+00 0. -1.
     999900   -1    0    0    0    0 -0.00000000000E+00 -0.00000000000E+00 -0.74505805969E-08  0.93827000000E+00  0.93827000000E+00 0. -1.
     999902    2    1    2    0    0  0.45478499609E-02  0.21985582088E-01  0.99492388936E-02  0.10193732064E+01  0.10190773757E+01 0.  0.
     999903    2    3    3    0    0 -0.40120196197E-01  0.79415896177E-01  0.95695249788E-01  0.13221715825E+00  0.20181213926E-01 0.  0.
         14    1    1    2    0    0 -0.45478499609E-02 -0.21985582088E-01 -0.99492388936E-02  0.24556793634E-01  0.00000000000E+00 0. -1.
     999901    1    3    3    0    0  0.44668046158E-01 -0.57430314089E-01 -0.85746010894E-01  0.88715604812E+00  0.88000000000E+00 0. -1.
        -11    1    4    4    0    0 -0.59631772823E-02  0.32182280140E-01  0.30185578963E-01  0.44527395350E-01  0.51100000000E-03 0. -1.
         11    1    4    4    0    0 -0.34157018914E-01  0.47233616037E-01  0.65509670825E-01  0.87689762901E-01  0.51100000000E-03 0.  1.
</event>
<event>
 8    1  0.1120016E+005  0.1043930E+01  0.7957747E-01            NaN
         13   -1    0    0    0    0  0.00000000000E+00  0.00000000000E+00  0.74505805969E-08  0.10566000000E+00  0.10566000000E+00 0. -1.
     999900   -1    0    0    0    0 -0.00000000000E+00 -0.00000000000E+00 -0.74505805969E-08  0.93827000000E+00  0.93827000000E+00 0. -1.
     999902    2    1    2    0    0 -0.24644475788E-01  0.19679244246E-02  0.29614492977E-02  0.10190303395E+01  0.10187260867E+01 0.  0.
     999903    2    3    3    0    0 -0.40564955736E-01 -0.11180804873E-03  0.12245932207E+00  0.13080878569E+00  0.21659287077E-01 0.  0.
         14    1    1    2    0    0  0.24644475788E-01 -0.19679244246E-02 -0.29614492977E-02  0.24899660547E-01  0.00000000000E+00 0. -1.
     999901    1    3    3    0    0  0.15920479948E-01  0.20797324733E-02 -0.11949787277E+00  0.88822155376E+00  0.88000000000E+00 0. -1.
        -11    1    4    4    0    0 -0.28738765507E-01  0.76884935862E-02  0.62852452825E-01  0.69539352338E-01  0.51100000000E-03 0.  1.
         11    1    4    4    0    0 -0.11826190229E-01 -0.78003016349E-02  0.59606869247E-01  0.61269433353E-01  0.51100000000E-03 0. -1.
</event>
<event>
 8    1  0.1120016E+005  0.1043930E+01  0.7957747E-01            NaN
         13   -1    0    0    0    0  0.00000000000E+00  0.00000000000E+00  0.74505805969E-08  0.10566000000E+00  0.10566000000E+00 0.  1.
     999900   -1    0    0    0    0 -0.00000000000E+00 -0.00000000000E+00 -0.74505805969E-08  0.93827000000E+00  0.93827000000E+00 0. -1.
     999902    2    1    2    0    0  0.20414744261E-01  0.21471517346E-02 -0.12558588921E-01  0.10198657070E+01  0.10195817623E+01 0.  0.
     999903    2    3    3    0    0 -0.78534016688E-01  0.10015603080E+00  0.16810526966E-02  0.12879928684E+00  0.19687764449E-01 0.  0.
         14    1    1    2    0    0 -0.20414744261E-01 -0.21471517346E-02  0.12558588921E-01  0.24064293040E-01  0.00000000000E+00 0. -1.
     999901    1    3    3    0    0  0.98948760950E-01 -0.98008879069E-01 -0.14239641617E-01  0.89106642012E+00  0.88000000000E+00 0.  1.
        -11    1    4    4    0    0 -0.70883646883E-01  0.97744884768E-01  0.19224959770E-02  0.12075806808E+00  0.51100000000E-03 0.  1.
         11    1    4    4    0    0 -0.76503698052E-02  0.24111460359E-02 -0.24144328039E-03  0.80412187646E-02  0.51100000000E-03 0. -1.
</event>
<event>
 8    1  0.1120016E+005  0.1043930E+01  0.7957747E-01            NaN
         13   -1    0    0    0    0  0.00000000000E+00  0.00000000000E+00  0.74505805969E-08  0.10566000000E+00  0.10566000000E+00 0.  1.
     999900   -1    0    0    0    0 -0.00000000000E+00 -0.00000000000E+00 -0.74505805969E-08  0.93827000000E+00  0.93827000000E+00 0.  1.
     999902    2    1    2    0    0  0.22001629602E-01 -0.10211470274E-01 -0.25178027380E-02  0.10195438326E+01  0.10192521481E+01 0.  0.
     999903    2    3    3    0    0 -0.71892868669E-01 -0.10010779996E+00  0.33209666967E-01  0.12927759208E+00  0.20485547498E-01 0.  0.
         14    1    1    2    0    0 -0.22001629602E-01  0.10211470274E-01  0.25178027380E-02  0.24386167410E-01  0.00000000000E+00 0.  1.
     999901    1    3    3    0    0  0.93894498271E-01  0.89896329686E-01 -0.35727469705E-01  0.89026624051E+00  0.88000000000E+00 0.  1.
        -11    1    4    4    0    0 -0.42161166879E-02 -0.13474457214E-01  0.88658564657E-02  0.16679363568E-01  0.51100000000E-03 0. -1.
         11    1    4    4    0    0 -0.67676751981E-01 -0.86633342745E-01  0.24343810501E-01  0.11259822851E+00  0.51100000000E-03 0.  1.
</event>
<event>
 8    1  0.1120016E+005  0.1043930E+01  0.7957747E-01            NaN
         13   -1    0    0    0    0  0.00000000000E+00  0.00000000000E+00  0.74505805969E-08  0.10566000000E+00  0.10566000000E+00 0. -1.
     999900   -1    0    0    0    0 -0.00000000000E+00 -0.00000000000E+00 -0.74505805969E-08  0.93827000000E+00  0.93827000000E+00 0.  1.
     999902    2    1    2    0    0  0.15738018981E-01 -0.15781587555E-01  0.75351119009E-02  0.10204029590E+01  0.10201316959E+01 0.  0.
     999903    2    3    3    0    0 -0.46146311568E-01 -0.11250219894E+00 -0.45462816292E-01  0.13136228083E+00  0.20073722170E-01 0.  0.
         14    1    1    2    0    0 -0.15738018981E-01  0.15781587555E-01 -0.75351119009E-02  0.23527041007E-01  0.00000000000E+00 0. -1.
     999901    1    3    3    0    0  0.61884330549E-01  0.96720611386E-01  0.52997928193E-01  0.88904067816E+00  0.88000000000E+00 0. -1.
        -11    1    4    4    0    0 -0.25587136929E-01 -0.37002069627E-01 -0.17058060395E-01  0.48115416223E-01  0.51100000000E-03 0.  1.
         11    1    4    4    0    0 -0.20559174639E-01 -0.75500129314E-01 -0.28404755897E-01  0.83246864607E-01  0.51100000000E-03 0. -1.
</event>
<event>
 8    1  0.1120016E+005  0.1043930E+01  0.7957747E-01            NaN
         13   -1    0    0    0    0  0.00000000000E+00  0.00000000000E+00  0.74505805969E-08  0.10566000000E+00  0.10566000000E+00 0.  1.
     999900   -1    0    0    0    0 -0.00000000000E+00 -0.00000000000E+00 -0.74505805969E-08  0.93827000000E+00  0.93827000000E+00 0. -1.
     999902    2    1    2    0    0  0.16589528583E-01 -0.10639381725E-03  0.19913875143E-01  0.10180111613E+01  0.10176811575E+01 0.  0.
     999903    2    3    3    0    0 -0.74816873911E-01  0.97006029308E-01 -0.25921519528E-01  0.12678344819E+00  0.19859083983E-01 0.  0.
         14    1    1    2    0    0 -0.16589528583E-01  0.10639381725E-03 -0.19913875143E-01  0.25918838737E-01  0.00000000000E+00 0.  1.
     999901    1    3    3    0    0  0.91406402495E-01 -0.97112423126E-01  0.45835394671E-01  0.89122771307E+00  0.88000000000E+00 0.  1.
        -11    1    4    4    0    0 -0.30278626776E-01  0.34586180210E-01 -0.42024813275E-03  0.45972131019E-01  0.51100000000E-03 0.  1.
         11    1    4    4    0    0 -0.44538247136E-01  0.62419849098E-01 -0.25501271395E-01  0.80811317172E-01  0.51100000000E-03 0. -1.
</event>
<event>
 8    1  0.1120016E+005  0.1043930E+01  0.7957747E-01            NaN
         13   -1    0    0    0    0  0.00000000000E+00  0.00000000000E+00  0.74505805969E-08  0.10566000000E+00  0.10566000000E+00 0. -1.
     999900   -1    0    0    0    0 -0.00000000000E+00 -0.00000000000E+00 -0.74505805969E-08  0.93827000000E+00  0.93827000000E+00 0.  1.
     999902    2    1    2    0    0 -0.11547702663E-01 -0.20385439041E-01  0.16429241301E-02  0.10204435196E+01  0.10201732019E+01 0.  0.
     999903    2    3    3    0    0 -0.12536992186E+00  0.15801425370E-02 -0.36278930060E-01  0.13203142413E+00  0.19900302354E-01 0.  0.
         14    1    1    2    0    0  0.11547702663E-01  0.20385439041E-01 -0.16429241301E-02  0.23486480396E-01  0.00000000000E+00 0. -1.
     999901    1    3    3    0    0  0.11382221920E+00 -0.21965581578E-01  0.37921854190E-01  0.88841209547E+00  0.88000000000E+00 0. -1.
        -11    1    4    4    0    0 -0.42264036969E-01  0.80188611621E-02 -0.64677877404E-02  0.43504532574E-01  0.51100000000E-03 0.  1.
         11    1    4    4    0    0 -0.83105884893E-01 -0.64387186251E-02 -0.29811142320E-01  0.88526891557E-01  0.51100000000E-03 0. -1.
</event>
<event>
 8    1  0.1120016E+005  0.1043930E+01  0.7957747E-01            NaN
         13   -1    0    0    0    0  0.00000000000E+00  0.00000000000E+00  0.74505805969E-08  0.10566000000E+00  0.10566000000E+00 0.  1.
     999900   -1    0    0    0    0 -0.00000000000E+00 -0.00000000000E+00 -0.74505805969E-08  0.93827000000E+00  0.93827000000E+00 0. -1.
     999902    2    1    2    0    0  0.13090754750E-01 -0.13167351646E-02 -0.19948852687E-01  0.10200331723E+01  0.10197532124E+01 0.  0.
     999903    2    3    3    0    0 -0.52262828087E-01  0.11664371919E+00 -0.91965970620E-02  0.12969538774E+00  0.19978883325E-01 0.  0.
         14    1    1    2    0    0 -0.13090754750E-01  0.13167351646E-02  0.19948852687E-01  0.23896827717E-01  0.00000000000E+00 0.  1.
     999901    1    3    3    0    0  0.65353582837E-01 -0.11796045435E+00 -0.10752255625E-01  0.89033778454E+00  0.88000000000E+00 0. -1.
        -11    1    4    4    0    0 -0.10174795286E-01  0.46080268563E-01 -0.42155569360E-02  0.47380899646E-01  0.51100000000E-03 0. -1.
         11    1    4    4    0    0 -0.42088032801E-01  0.70563450623E-01 -0.49810401259E-02  0.82314488097E-01  0.51100000000E-03 0.  1.
</event>
<event>
 8    1  0.1120016E+005  0.1043930E+01  0.7957747E-01            NaN
         13   -1    0    0    0    0  0.00000000000E+00  0.00000000000E+00  0.74505805969E-08  0.10566000000E+00  0.10566000000E+00 0.  1.
     999900   -1    0    0    0    0 -0.00000000000E+00 -0.00000000000E+00 -0.74505805969E-08  0.93827000000E+00  0.93827000000E+00 0. -1.
     999902    2    1    2    0    0 -0.38293359652E-02 -0.65877107630E-02  0.22360058152E-01  0.10203072578E+01  0.10200337575E+01 0.  0.
     999903    2    3    3    0    0  0.10217712246E+00  0.75123676563E-01 -0.15810376686E-01  0.12936893104E+00  0.20065422318E-01 0.  0.
         14    1    1    2    0    0  0.38293359652E-02  0.65877107630E-02 -0.22360058152E-01  0.23622742169E-01  0.00000000000E+00 0. -1.
     999901    1    3    3    0    0 -0.10600645843E+00 -0.81711387326E-01  0.38170434838E-01  0.89093832679E+00  0.88000000000E+00 0.  1.
        -11    1    4    4    0    0  0.37587414591E-01  0.31326047509E-01  0.32305978104E-02  0.49039095336E-01  0.51100000000E-03 0. -1.
         11    1    4    4    0    0  0.64589707871E-01  0.43797629054E-01 -0.19040974496E-01  0.80329835705E-01  0.51100000000E-03 0.  1.
</event>
<event>
 8    1  0.1120016E+005  0.1043930E+01  0.7957747E-01            NaN
         13   -1    0    0    0    0  0.00000000000E+00  0.00000000000E+00  0.74505805969E-08  0.10566000000E+00  0.10566000000E+00 0.  1.
     999900   -1    0    0    0    0 -0.00000000000E+00 -0.00000000000E+00 -0.74505805969E-08  0.93827000000E+00  0.93827000000E+00 0. -1.
     999902    2    1    2    0    0 -0.22170851020E-01  0.44242562582E-02  0.45557916541E-02  0.10208675648E+01  0.10206070297E+01 0.  0.
     999903    2    3    3    0    0  0.93899776438E-01 -0.11229785993E-01  0.85989789999E-01  0.12938064082E+00  0.20045700938E-01 0.  0.
         14    1    1    2    0    0  0.22170851020E-01 -0.44242562582E-02 -0.45557916541E-02  0.23062435170E-01  0.00000000000E+00 0. -1.
     999901    1    3    3    0    0 -0.11607062746E+00  0.15654042251E-01 -0.81433998345E-01  0.89148692401E+00  0.88000000000E+00 0.  1.
        -11    1    4    4    0    0  0.48545759001E-01 -0.11077678959E-01  0.56340419168E-01  0.75192483940E-01  0.51100000000E-03 0. -1.
         11    1    4    4    0    0  0.45354017437E-01 -0.15210703406E-03  0.29649370831E-01  0.54188156878E-01  0.51100000000E-03 0.  1.
</event>
<event>
 8    1  0.1120016E+005  0.1043930E+01  0.7957747E-01            NaN
         13   -1    0    0    0    0  0.00000000000E+00  0.00000000000E+00  0.74505805969E-08  0.10566000000E+00  0.10566000000E+00 0. -1.
     999900   -1    0    0    0    0 -0.00000000000E+00 -0.00000000000E+00 -0.74505805969E-08  0.93827000000E+00  0.93827000000E+00 0. -1.
     999902    2    1    2    0    0  0.11381423447E-01 -0.14943620168E-01 -0.21237473365E-02  0.10250260616E+01  0.10248517298E+01 0.  0.
     999903    2    3    3    0    0 -0.12950073057E+00  0.15979625395E-01 -0.19616898071E-01  0.13311236694E+00  0.17558242964E-01 0.  0.
         14    1    1    2    0    0 -0.11381423447E-01  0.14943620168E-01  0.21237473365E-02  0.18903938377E-01  0.00000000000E+00 0. -1.
     999901    1    3    3    0    0  0.14088215402E+00 -0.30923245563E-01  0.17493150735E-01  0.89191369468E+00  0.88000000000E+00 0.  1.
        -11    1    4    4    0    0 -0.47247959699E-01  0.99743175939E-02 -0.14755326533E-01  0.50495915570E-01  0.51100000000E-03 0.  1.
         11    1    4    4    0    0 -0.82252770875E-01  0.60053078009E-02 -0.48615715375E-02  0.82616451371E-01  0.51100000000E-03 0. -1.
</event>
<event>
 8    1  0.1120016E+005  0.1043930E+01  0.7957747E-01            NaN
         13   -1    0    0    0    0  0.00000000000E+00  0.00000000000E+00  0.74505805969E-08  0.10566000000E+00  0.10566000000E+00 0.  1.
     999900   -1    0    0    0    0 -0.00000000000E+00 -0.00000000000E+00 -0.74505805969E-08  0.93827000000E+00  0.93827000000E+00 0.  1.
     999902    2    1    2    0    0  0.16571739579E-01  0.14670069197E-01 -0.83634668216E-02  0.10202703073E+01  0.10199959406E+01 0.  0.
     999903    2    3    3    0    0 -0.46615059537E-01  0.10409934237E+00 -0.60398379353E-01  0.13195853846E+00  0.27485537744E-01 0.  0.
         14    1    1    2    0    0 -0.16571739579E-01 -0.14670069197E-01  0.83634668216E-02  0.23659692732E-01  0.00000000000E+00 0.  1.
     999901    1    3    3    0    0  0.63186799115E-01 -0.89429273178E-01  0.52034912531E-01  0.88831176881E+00  0.88000000000E+00 0. -1.
        -11    1    4    4    0    0 -0.25551975647E-01  0.58235061722E-01 -0.48823177009E-01  0.80175991465E-01  0.51100000000E-03 0.  1.
         11    1    4    4    0    0 -0.21063083890E-01  0.45864280653E-01 -0.11575202344E-01  0.51782546993E-01  0.51100000000E-03 0. -1.
</event>
<event>
 8    1  0.1268478E+005  0.1043930E+01  0.7957747E-01            NaN
         13   -1    0    0    0    0  0.00000000000E+00  0.00000000000E+00  0.74505805969E-08  0.10566000000E+00  0.10566000000E+00 0.  1.
     999900   -1    0    0    0    0 -0.00000000000E+00 -0.00000000000E+00 -0.74505805969E-08  0.93827000000E+00  0.93827000000E+00 0.  1.
     999902    2    1    2    0    0  0.89458333426E-02 -0.11049190120E-01 -0.19835353122E-01  0.10195260296E+01  0.10192339139E+01 0.  0.
     999903    2    3    3    0    0  0.73078413775E-01 -0.58349560140E-01 -0.92476069015E-01  0.13294439972E+00  0.19423293981E-01 0.  0.
         14    1    1    2    0    0 -0.89458333426E-02  0.11049190120E-01  0.19835353122E-01  0.24403970373E-01  0.00000000000E+00 0. -1.
     999901    1    3    3    0    0 -0.64132580432E-01  0.47300370020E-01  0.72640715892E-01  0.88658162990E+00  0.88000000000E+00 0. -1.
        -11    1    4    4    0    0  0.42180579176E-01 -0.22239293754E-01 -0.41081679742E-01  0.62942457672E-01  0.51100000000E-03 0.  1.
         11    1    4    4    0    0  0.30897834599E-01 -0.36110266386E-01 -0.51394389272E-01  0.70001942052E-01  0.51100000000E-03 0. -1.
</event>
<event>
 8    1  0.1120016E+005  0.1043930E+01  0.7957747E-01            NaN
         13   -1    0    0    0    0  0.00000000000E+00  0.00000000000E+00  0.74505805969E-08  0.10566000000E+00  0.10566000000E+00 0.  1.
     999900   -1    0    0    0    0 -0.00000000000E+00 -0.00000000000E+00 -0.74505805969E-08  0.93827000000E+00  0.93827000000E+00 0. -1.
     999902    2    1    2    0    0  0.12411095377E-01  0.14142179777E-01  0.15786251388E-01  0.10193690092E+01  0.10190730762E+01 0.  0.
     999903    2    3    3    0    0  0.11368846951E+00 -0.59181824330E-01  0.14950923465E-01  0.13053032085E+00  0.19674300975E-01 0.  0.
         14    1    1    2    0    0 -0.12411095377E-01 -0.14142179777E-01 -0.15786251388E-01  0.24560990823E-01  0.00000000000E+00 0. -1.
     999901    1    3    3    0    0 -0.10127737413E+00  0.73324004108E-01  0.83532792356E-03  0.88883868832E+00  0.88000000000E+00 0. -1.
        -11    1    4    4    0    0  0.34148203529E-01 -0.80646959914E-02  0.52755398528E-02  0.35485652980E-01  0.51100000000E-03 0.  1.
         11    1    4    4    0    0  0.79540265981E-01 -0.51117128339E-01  0.96753836118E-02  0.95044667873E-01  0.51100000000E-03 0. -1.
</event>
<event>
 7    1  0.1120016E+005  0.1043930E+01  0.7957747E-01            NaN
         13   -1    0    0    0    0  0.00000000000E+00  0.00000000000E+00  0.74505805969E-08  0.10566000000E+00  0.10566000000E+00 0. -1.
     999900   -1    0    0    0    0 -0.00000000000E+00 -0.00000000000E+00 -0.74505805969E-08  0.93827000000E+00  0.93827000000E+00 0. -1.
     999903    2    1    2    0    0 -0.57295296683E-02 -0.65379082762E-01  0.18986924731E-01  0.71660860117E-01  0.21622293794E-01 0.  0.
         14    1    1    2    0    0  0.15078743793E-01 -0.49261841287E-01 -0.65777865699E-01  0.83551332349E-01  0.00000000000E+00 0.  1.
     999901    1    1    2    0    0 -0.93492141244E-02  0.11464092405E+00  0.46790940969E-01  0.88871780753E+00  0.88000000000E+00 0. -1.
        -11    1    3    3    0    0 -0.87490719135E-02 -0.15416588849E-01  0.11274036248E-01  0.21013864124E-01  0.51100000000E-03 0.  1.
         11    1    3    3    0    0  0.30195422452E-02 -0.49962493913E-01  0.77128884826E-02  0.50646995993E-01  0.51100000000E-03 0. -1.
</event>
<event>
 8    1  0.1120016E+005  0.1043930E+01  0.7957747E-01            NaN
         13   -1    0    0    0    0  0.00000000000E+00  0.00000000000E+00  0.74505805969E-08  0.10566000000E+00  0.10566000000E+00 0. -1.
     999900   -1    0    0    0    0 -0.00000000000E+00 -0.00000000000E+00 -0.74505805969E-08  0.93827000000E+00  0.93827000000E+00 0. -1.
     999902    2    1    2    0    0 -0.12809822214E-01 -0.10971286018E-02  0.19808744365E-01  0.10203147170E+01  0.10200413914E+01 0.  0.
     999903    2    3    3    0    0 -0.10927650876E+00  0.60107192343E-01 -0.35271450301E-01  0.13122213560E+00  0.20516913206E-01 0.  0.
         14    1    1    2    0    0  0.12809822214E-01  0.10971286018E-02 -0.19808744365E-01  0.23615282967E-01  0.00000000000E+00 0. -1.
     999901    1    3    3    0    0  0.96466686544E-01 -0.61204320944E-01  0.55080194665E-01  0.88909258143E+00  0.88000000000E+00 0. -1.
        -11    1    4    4    0    0 -0.43461933614E-01  0.13287299799E-01 -0.94327483730E-02  0.46419067981E-01  0.51100000000E-03 0.  1.
         11    1    4    4    0    0 -0.65814575144E-01  0.46819892544E-01 -0.25838701928E-01  0.84803067619E-01  0.51100000000E-03 0. -1.
</event>
<event>
 8    1  0.1120016E+005  0.1043930E+01  0.7957747E-01            NaN
         13   -1    0    0    0    0  0.00000000000E+00  0.00000000000E+00  0.74505805969E-08  0.10566000000E+00  0.10566000000E+00 0. -1.
     999900   -1    0    0    0    0 -0.00000000000E+00 -0.00000000000E+00 -0.74505805969E-08  0.93827000000E+00  0.93827000000E+00 0.  1.
     999902    2    1    2    0    0 -0.22033602954E-01  0.68152060563E-02  0.63007528157E-02  0.10200212949E+01  0.10197410534E+01 0.  0.
     999903    2    3    3    0    0 -0.68728690614E-01 -0.99547333355E-01  0.47191770989E-01  0.13144631419E+00  0.20439319315E-01 0.  0.
         14    1    1    2    0    0  0.22033602954E-01 -0.68152060563E-02 -0.63007528157E-02  0.23908705084E-01  0.00000000000E+00 0. -1.
     999901    1    3    3    0    0  0.46695087659E-01  0.10636253941E+00 -0.40891018174E-01  0.88857498072E+00  0.88000000000E+00 0.  1.
        -11    1    4    4    0    0 -0.39939972313E-01 -0.66899088921E-01  0.21212122999E-01  0.80752119291E-01  0.51100000000E-03 0.  1.
         11    1    4    4    0    0 -0.28788718301E-01 -0.32648244434E-01  0.25979647990E-01  0.50694194902E-01  0.51100000000E-03 0. -1.
</event>
<event>
 8    1  0.1120016E+005  0.1043930E+01  0.7957747E-01            NaN
         13   -1    0    0    0    0  0.00000000000E+00  0.00000000000E+00  0.74505805969E-08  0.10566000000E+00  0.10566000000E+00 0.  1.
     999900   -1    0    0    0    0 -0.00000000000E+00 -0.00000000000E+00 -0.74505805969E-08  0.93827000000E+00  0.93827000000E+00 0.  1.
     999902    2    1    2    0    0  0.24511780089E-01 -0.47385908020E-02 -0.71195961159E-02  0.10179690629E+01  0.10176379724E+01 0.  0.
     999903    2    3    3    0    0  0.12812566356E+00  0.21223731906E-01 -0.28594563364E-02  0.13149964559E+00  0.20429093012E-01 0.  0.
         14    1    1    2    0    0 -0.24511780089E-01  0.47385908020E-02  0.71195961159E-02  0.25960937093E-01  0.00000000000E+00 0.  1.
     999901    1    3    3    0    0 -0.10361388347E+00 -0.25962322708E-01 -0.42601397795E-02  0.88646941732E+00  0.88000000000E+00 0.  1.
        -11    1    4    4    0    0  0.92194777890E-01  0.16297257220E-01 -0.11168852759E-01  0.94289352824E-01  0.51100000000E-03 0. -1.
         11    1    4    4    0    0  0.35930885668E-01  0.49264746865E-02  0.83093964230E-02  0.37210292765E-01  0.51100000000E-03 0.  1.
</event>
<event>
 8    1  0.1120016E+005  0.1043930E+01  0.7957747E-01            NaN
         13   -1    0    0    0    0  0.00000000000E+00  0.00000000000E+00  0.74505805969E-08  0.10566000000E+00  0.10566000000E+00 0.  1.
     999900   -1    0    0    0    0 -0.00000000000E+00 -0.00000000000E+00 -0.74505805969E-08  0.93827000000E+00  0.93827000000E+00 0.  1.
     999902    2    1    2    0    0 -0.23938461523E-04  0.23390377047E-01 -0.35767220867E-02  0.10202677251E+01  0.10199932979E+01 0.  0.
     999903    2    3    3    0    0 -0.83832340837E-01 -0.94822223437E-01 -0.88904649545E-02  0.12840097326E+00  0.19714313030E-01 0.  0.
         14    1    1    2    0    0  0.23938461523E-04 -0.23390377047E-01  0.35767220867E-02  0.23662274877E-01  0.00000000000E+00 0. -1.
     999901    1    3    3    0    0  0.83808402375E-01  0.11821260048E+00  0.53137428678E-02  0.89186675187E+00  0.88000000000E+00 0. -1.
        -11    1    4    4    0    0 -0.68286396040E-01 -0.65574784040E-01 -0.10373209728E-01  0.95241528689E-01  0.51100000000E-03 0. -1.
         11    1    4    4    0    0 -0.15545944797E-01 -0.29247439397E-01  0.14827447732E-02  0.33159444567E-01  0.51100000000E-03 0.  1.
</event>
<event>
 8    1  0.1120016E+005  0.1043930E+01  0.7957747E-01            NaN
         13   -1    0    0    0    0  0.00000000000E+00  0.00000000000E+00  0.74505805969E-08  0.10566000000E+00  0.10566000000E+00 0.  1.
     999900   -1    0    0    0    0 -0.00000000000E+00 -0.00000000000E+00 -0.74505805969E-08  0.93827000000E+00  0.93827000000E+00 0. -1.
     999902    2    1    2    0    0 -0.18285825897E-01 -0.35694340852E-02 -0.13879863832E-01  0.10206972019E+01  0.10204327587E+01 0.  0.
     999903    2    3    3    0    0  0.64734840572E-01 -0.97322129159E-01 -0.55425569755E-01  0.13086123690E+00  0.19760393022E-01 0.  0.
         14    1    1    2    0    0  0.18285825897E-01  0.35694340852E-02  0.13879863832E-01  0.23232798118E-01  0.00000000000E+00 0.  1.
     999901    1    3    3    0    0 -0.83020666469E-01  0.93752695074E-01  0.41545705923E-01  0.88983596498E+00  0.88000000000E+00 0.  1.
        -11    1    4    4    0    0  0.28993072617E-01 -0.59372386513E-01 -0.35844535139E-01  0.75171606078E-01  0.51100000000E-03 0. -1.
         11    1    4    4    0    0  0.35741767955E-01 -0.37949742646E-01 -0.19581034616E-01  0.55689630822E-01  0.51100000000E-03 0.  1.
</event>
<event>
 8    1  0.1120016E+005  0.1043930E+01  0.7957747E-01            NaN
         13   -1    0    0    0    0  0.00000000000E+00  0.00000000000E+00  0.74505805969E-08  0.10566000000E+00  0.10566000000E+00 0. -1.
     999900   -1    0    0    0    0 -0.00000000000E+00 -0.00000000000E+00 -0.74505805969E-08  0.93827000000E+00  0.93827000000E+00 0.  1.
     999902    2    1    2    0    0  0.23017217447E-01  0.16164225607E-02 -0.53297047165E-02  0.10202485542E+01  0.10199736769E+01 0.  0.
     999903    2    3    3    0    0  0.11629030017E+00 -0.19379348000E-01 -0.59519153237E-01  0.13341306404E+00  0.18908278930E-01 0.  0.
         14    1    1    2    0    0 -0.23017217447E-01 -0.16164225607E-02  0.53297047165E-02  0.23681445759E-01  0.00000000000E+00 0.  1.
     999901    1    3    3    0    0 -0.93273082727E-01  0.20995770561E-01  0.54189448520E-01  0.88683549020E+00  0.88000000000E+00 0. -1.
        -11    1    4    4    0    0  0.93382177299E-01 -0.18555211506E-01 -0.55286066042E-01  0.11009694424E+00  0.51100000000E-03 0. -1.
         11    1    4    4    0    0  0.22908122874E-01 -0.82413649434E-03 -0.42330871951E-02  0.23316119806E-01  0.51100000000E-03 0.  1.
</event>
<event>
 8    1  0.1120016E+005  0.1043930E+01  0.7957747E-01            NaN
         13   -1    0    0    0    0  0.00000000000E+00  0.00000000000E+00  0.74505805969E-08  0.10566000000E+00  0.10566000000E+00 0.  1.
     999900   -1    0    0    0    0 -0.00000000000E+00 -0.00000000000E+00 -0.74505805969E-08  0.93827000000E+00  0.93827000000E+00 0. -1.
     999902    2    1    2    0    0 -0.48642326430E-03 -0.23019860333E-01  0.62723949792E-02  0.10200659367E+01  0.10197867531E+01 0.  0.
     999903    2    3    3    0    0 -0.44386190702E-01  0.11409608325E+00 -0.30591024184E-01  0.12760479850E+00  0.18950559377E-01 0.  0.
         14    1    1    2    0    0  0.48642326430E-03  0.23019860333E-01 -0.62723949792E-02  0.23864063277E-01  0.00000000000E+00 0. -1.
     999901    1    3    3    0    0  0.43899767438E-01 -0.13711594359E+00  0.36863419163E-01  0.89246113822E+00  0.88000000000E+00 0. -1.
        -11    1    4    4    0    0 -0.19862350203E-01  0.48049354450E-01 -0.22613639129E-01  0.56700010708E-01  0.51100000000E-03 0. -1.
         11    1    4    4    0    0 -0.24523840500E-01  0.66046728803E-01 -0.79773850550E-02  0.70904787792E-01  0.51100000000E-03 0.  1.
</event>
<event>
 8    1  0.1120016E+005  0.1043930E+01  0.7957747E-01            NaN
         13   -1    0    0    0    0  0.00000000000E+00  0.00000000000E+00  0.74505805969E-08  0.10566000000E+00  0.10566000000E+00 0.  1.
     999900   -1    0    0    0    0 -0.00000000000E+00 -0.00000000000E+00 -0.74505805969E-08  0.93827000000E+00  0.93827000000E+00 0.  1.
     999902    2    1    2    0    0  0.10069710503E-01  0.17417409147E-01  0.95410721507E-02  0.10216634945E+01  0.10214208235E+01 0.  0.
     999903    2    3    3    0    0  0.12319896154E+00 -0.11081904000E-01  0.45002741588E-01  0.13325594818E+00  0.20763146571E-01 0.  0.
         14    1    1    2    0    0 -0.10069710503E-01 -0.17417409147E-01 -0.95410721507E-02  0.22266505536E-01  0.00000000000E+00 0. -1.
     999901    1    3    3    0    0 -0.11312925103E+00  0.28499313147E-01 -0.35461669437E-01  0.88840754628E+00  0.88000000000E+00 0. -1.
        -11    1    4    4    0    0  0.63462987229E-01  0.27529186523E-06  0.32191605226E-01  0.71162569629E-01  0.51100000000E-03 0.  1.
         11    1    4    4    0    0  0.59735974308E-01 -0.11082179292E-01  0.12811136362E-01  0.62093378555E-01  0.51100000000E-03 0. -1.
</event>
<event>
 8    1  0.1120016E+005  0.1043930E+01  0.7957747E-01            NaN
         13   -1    0    0    0    0  0.00000000000E+00  0.00000000000E+00  0.74505805969E-08  0.10566000000E+00  0.10566000000E+00 0.  1.
     999900   -1    0    0    0    0 -0.00000000000E+00 -0.00000000000E+00 -0.74505805969E-08  0.93827000000E+00  0.93827000000E+00 0. -1.
     999902    2    1    2    0    0  0.21624080784E-01 -0.81200679539E-02 -0.53883851379E-02  0.10202114194E+01  0.10199356691E+01 0.  0.
     999903    2    3    3    0    0  0.12712599940E+00 -0.13792139788E-02 -0.35009183263E-01  0.13338929197E+00  0.20103192410E-01 0.  0.
         14    1    1    2    0    0 -0.21624080784E-01  0.81200679539E-02  0.53883851379E-02  0.23718580643E-01  0.00000000000E+00 0.  1.
     999901    1    3    3    0    0 -0.10550191861E+00 -0.67408539751E-02  0.29620798125E-01  0.88682212739E+00  0.88000000000E+00 0. -1.
        -11    1    4    4    0    0  0.47729269087E-01  0.39115486725E-02 -0.22212655846E-01  0.52792485652E-01  0.51100000000E-03 0. -1.
         11    1    4    4    0    0  0.79396730312E-01 -0.52907626513E-02 -0.12796527416E-01  0.80596806317E-01  0.51100000000E-03 0.  1.
</event>
<event>
 8    1  0.1120016E+005  0.1043930E+01  0.7957747E-01            NaN
         13   -1    0    0    0    0  0.00000000000E+00  0.00000000000E+00  0.74505805969E-08  0.10566000000E+00  0.10566000000E+00 0. -1.
     999900   -1    0    0    0    0 -0.00000000000E+00 -0.00000000000E+00 -0.74505805969E-08  0.93827000000E+00  0.93827000000E+00 0.  1.
     999902    2    1    2    0    0 -0.15731053290E-01 -0.20439277010E-01 -0.17526960196E-01  0.10127462796E+01  0.10122660730E+01 0.  0.
     999903    2    3    3    0    0 -0.37977582548E-01 -0.20514726540E-01 -0.11749233151E+00  0.12680723589E+00  0.20309513320E-01 0.  0.
         14    1    1    2    0    0  0.15731053290E-01  0.20439277010E-01  0.17526960196E-01  0.31183720368E-01  0.00000000000E+00 0.  1.
     999901    1    3    3    0    0  0.22246529258E-01  0.75449530385E-04  0.99965371310E-01  0.88593904374E+00  0.88000000000E+00 0. -1.
        -11    1    4    4    0    0 -0.31897549800E-01 -0.23359517907E-01 -0.86742926472E-01  0.95329518902E-01  0.51100000000E-03 0.  1.
         11    1    4    4    0    0 -0.60800327476E-02  0.28447913670E-02 -0.30749405034E-01  0.31477716993E-01  0.51100000000E-03 0. -1.
</event>
<event>
 8    1  0.1120016E+005  0.1043930E+01  0.7957747E-01            NaN
         13   -1    0    0    0    0  0.00000000000E+00  0.00000000000E+00  0.74505805969E-08  0.10566000000E+00  0.10566000000E+00 0. -1.
     999900   -1    0    0    0    0 -0.00000000000E+00 -0.00000000000E+00 -0.74505805969E-08  0.93827000000E+00  0.93827000000E+00 0. -1.
     999902    2    1    2    0    0 -0.25933638626E-02  0.16523555571E-01  0.17286582660E-01  0.10198763233E+01  0.10195926321E+01 0.  0.
     999903    2    3    3    0    0  0.67055078985E-01 -0.98084237029E-01  0.46714591841E-01  0.12922944630E+00  0.20027369466E-01 0.  0.
         14    1    1    2    0    0  0.25933638626E-02 -0.16523555571E-01 -0.17286582660E-01  0.24053676744E-01  0.00000000000E+00 0.  1.
     999901    1    3    3    0    0 -0.69648442847E-01  0.11460779260E+00 -0.29428009181E-01  0.89064687696E+00  0.88000000000E+00 0. -1.
        -11    1    4    4    0    0  0.33386663863E-01 -0.60882997319E-01  0.19390274267E-01  0.72094746990E-01  0.51100000000E-03 0.  1.
         11    1    4    4    0    0  0.33668415122E-01 -0.37201239710E-01  0.27324317574E-01  0.57134699305E-01  0.51100000000E-03 0. -1.
</event>
<event>
 8    1  0.1120016E+005  0.1043930E+01  0.7957747E-01            NaN
         13   -1    0    0    0    0  0.00000000000E+00  0.00000000000E+00  0.74505805969E-08  0.10566000000E+00  0.10566000000E+00 0.  1.
     999900   -1    0    0    0    0 -0.00000000000E+00 -0.00000000000E+00 -0.74505805969E-08  0.93827000000E+00  0.93827000000E+00 0. -1.
     999902    2    1    2    0    0 -0.85404493231E-02 -0.13715673623E-01 -0.16478148227E-01  0.10208521243E+01  0.10205912362E+01 0.  0.
     999903    2    3    3    0    0 -0.12977113951E+00  0.49840493059E-02  0.13825909512E-01  0.13182743635E+00  0.17942346662E-01 0.  0.
         14    1    1    2    0    0  0.85404493231E-02  0.13715673623E-01  0.16478148227E-01  0.23077875694E-01  0.00000000000E+00 0.  1.
     999901    1    3    3    0    0  0.12123069019E+00 -0.18699722929E-01 -0.30304057739E-01  0.88902468796E+00  0.88000000000E+00 0. -1.
        -11    1    4    4    0    0 -0.10578958532E+00  0.11018299008E-01  0.11565864087E-01  0.10699004444E+00  0.51100000000E-03 0.  1.
         11    1    4    4    0    0 -0.23981554189E-01 -0.60342497018E-02  0.22600454254E-02  0.24837391914E-01  0.51100000000E-03 0. -1.
</event>
<event>
 8    1  0.1485594E+005  0.1043930E+01  0.7957747E-01            NaN
         13   -1    0    0    0    0  0.00000000000E+00  0.00000000000E+00  0.74505805969E-08  0.10566000000E+00  0.10566000000E+00 0.  1.
     999900   -1    0    0    0    0 -0.00000000000E+00 -0.00000000000E+00 -0.74505805969E-08  0.93827000000E+00  0.93827000000E+00 0.  1.
     999902    2    1    2    0    0 -0.68354303671E-02 -0.14718105909E-01 -0.17442637334E-01  0.10201058243E+01  0.10198275842E+01 0.  0.
     999903    2    3    3    0    0 -0.12930191142E+00  0.41830164422E-02 -0.11115429186E-01  0.13140152874E+00  0.20157556083E-01 0.  0.
         14    1    1    2    0    0  0.68354303671E-02  0.14718105909E-01  0.17442637334E-01  0.23824175684E-01  0.00000000000E+00 0.  1.
     999901    1    3    3    0    0  0.12246648105E+00 -0.18901122351E-01 -0.63272081479E-02  0.88870429557E+00  0.88000000000E+00 0.  1.
        -11    1    4    4    0    0 -0.65136267362E-01 -0.79378959732E-02 -0.62958808479E-02  0.65921489326E-01  0.51100000000E-03 0. -1.
         11    1    4    4    0    0 -0.64165644055E-01  0.12120912415E-01 -0.48195483381E-02  0.65480039417E-01  0.51100000000E-03 0.  1.
</event>
<event>
 8    1  0.1120016E+005  0.1043930E+01  0.7957747E-01            NaN
         13   -1    0    0    0    0  0.00000000000E+00  0.00000000000E+00  0.74505805969E-08  0.10566000000E+00  0.10566000000E+00 0. -1.
     999900   -1    0    0    0    0 -0.00000000000E+00 -0.00000000000E+00 -0.74505805969E-08  0.93827000000E+00  0.93827000000E+00 0.  1.
     999902    2    1    2    0    0  0.77015162516E-02 -0.61945810507E-02  0.25221541219E-01  0.10168410294E+01  0.10164801359E+01 0.  0.
     999903    2    3    3    0    0  0.11796528265E+00  0.11519529344E-01  0.47832495847E-01  0.12949490575E+00  0.20796045022E-01 0.  0.
         14    1    1    2    0    0 -0.77015162516E-02  0.61945810507E-02 -0.25221541219E-01  0.27088970604E-01  0.00000000000E+00 0.  1.
     999901    1    3    3    0    0 -0.11026376640E+00 -0.17714110395E-01 -0.22610954628E-01  0.88734612365E+00  0.88000000000E+00 0. -1.
        -11    1    4    4    0    0  0.40281998091E-01 -0.10679160082E-02  0.25499582073E-01  0.47689303011E-01  0.51100000000E-03 0. -1.
         11    1    4    4    0    0  0.77683284558E-01  0.12587445353E-01  0.22332913774E-01  0.81805602735E-01  0.51100000000E-03 0.  1.
</event>
<event>
 8    1  0.1120016E+005  0.1043930E+01  0.7957747E-01            NaN
         13   -1    0    0    0    0  0.00000000000E+00  0.00000000000E+00  0.74505805969E-08  0.10566000000E+00  0.10566000000E+00 0. -1.
     999900   -1    0    0    0    0 -0.00000000000E+00 -0.00000000000E+00 -0.74505805969E-08  0.93827000000E+00  0.93827000000E+00 0. -1.
     999902    2    1    2    0    0 -0.19151734932E-01 -0.92824785955E-02  0.89732292748E-02  0.10208329828E+01  0.10205716568E+01 0.  0.
     999903    2    3    3    0    0  0.10663898623E+00  0.68419395853E-01 -0.57524197079E-02  0.12837697181E+00  0.19861254839E-01 0.  0.
         14    1    1    2    0    0  0.19151734932E-01  0.92824785955E-02 -0.89732292748E-02  0.23097017197E-01  0.00000000000E+00 0.  1.
     999901    1    3    3    0    0 -0.12579072117E+00 -0.77701874448E-01  0.14725648983E-01  0.89245601100E+00  0.88000000000E+00 0.  1.
        -11    1    4    4    0    0  0.16336241087E-01  0.19517482236E-01  0.83678919780E-03  0.25470889714E-01  0.51100000000E-03 0. -1.
         11    1    4    4    0    0  0.90302745148E-01  0.48901913617E-01 -0.65892089057E-02  0.10290608209E+00  0.51100000000E-03 0.  1.
</event>
<event>
 8    1  0.1120016E+005  0.1043930E+01  0.7957747E-01            NaN
         13   -1    0    0    0    0  0.00000000000E+00  0.00000000000E+00  0.74505805969E-08  0.10566000000E+00  0.10566000000E+00 0.  1.
     999900   -1    0    0    0    0 -0.00000000000E+00 -0.00000000000E+00 -0.74505805969E-08  0.93827000000E+00  0.93827000000E+00 0.  1.
     999902    2    1    2    0    0 -0.91004856972E-02  0.13550571590E-01  0.19638175229E-01  0.10183938539E+01  0.10180736451E+01 0.  0.
     999903    2    3    3    0    0  0.59821453711E-01 -0.47192244919E-01 -0.98625212385E-01  0.12574266093E+00  0.16690415094E-01 0.  0.
         14    1    1    2    0    0  0.91004856972E-02 -0.13550571590E-01 -0.19638175229E-01  0.25536146081E-01  0.00000000000E+00 0. -1.
     999901    1    3    3    0    0 -0.68921939408E-01  0.60742816508E-01  0.11826338761E+00  0.89265119299E+00  0.88000000000E+00 0. -1.
        -11    1    4    4    0    0  0.42170844127E-01 -0.23713908877E-01 -0.56506298201E-01  0.74390539896E-01  0.51100000000E-03 0. -1.
         11    1    4    4    0    0  0.17650609583E-01 -0.23478336042E-01 -0.42118914184E-01  0.51352121037E-01  0.51100000000E-03 0.  1.
</event>
<event>
 7    1  0.1120016E+005  0.1043930E+01  0.7957747E-01            NaN
         13   -1    0    0    0    0  0.00000000000E+00  0.00000000000E+00  0.74505805969E-08  0.10566000000E+00  0.10566000000E+00 0. -1.
     999900   -1    0    0    0    0 -0.00000000000E+00 -0.00000000000E+00 -0.74505805969E-08  0.93827000000E+00  0.93827000000E+00 0. -1.
     999903    2    1    2    0    0  0.36248597180E-01  0.81456255885E-01 -0.22267531932E-01  0.94057586416E-01  0.20047547575E-01 0.  0.
         14    1    1    2    0    0 -0.37978897444E-01 -0.31103402615E-01  0.47170071302E-01  0.68079614658E-01  0.00000000000E+00 0. -1.
     999901    1    1    2    0    0  0.17303002646E-02 -0.50352853269E-01 -0.24902539370E-01  0.88179279893E+00  0.88000000000E+00 0. -1.
        -11    1    3    3    0    0  0.35519433981E-02  0.31094982721E-01 -0.63834623647E-02  0.31945640784E-01  0.51100000000E-03 0. -1.
         11    1    3    3    0    0  0.32696653782E-01  0.50361273164E-01 -0.15884069567E-01  0.62111945632E-01  0.51100000000E-03 0.  1.
</event>
<event>
 8    1  0.1120016E+005  0.1043930E+01  0.7957747E-01            NaN
         13   -1    0    0    0    0  0.00000000000E+00  0.00000000000E+00  0.74505805969E-08  0.10566000000E+00  0.10566000000E+00 0.  1.
     999900   -1    0    0    0    0 -0.00000000000E+00 -0.00000000000E+00 -0.74505805969E-08  0.93827000000E+00  0.93827000000E+00 0. -1.
     999902    2    1    2    0    0  0.37016953413E-02  0.23203564356E-01  0.95164601181E-03  0.10204137593E+01  0.10201427481E+01 0.  0.
     999903    2    3    3    0    0  0.55929900526E-01  0.27306516347E-01 -0.11389904327E+00  0.13140571632E+00  0.20510256345E-01 0.  0.
         14    1    1    2    0    0 -0.37016953413E-02 -0.23203564356E-01 -0.95164601181E-03  0.23516240715E-01  0.00000000000E+00 0.  1.
     999901    1    3    3    0    0 -0.52228205184E-01 -0.41029519912E-02  0.11485068928E+00  0.88900804297E+00  0.88000000000E+00 0.  1.
        -11    1    4    4    0    0  0.39020070509E-01  0.88019215101E-02 -0.77369655804E-01  0.87099738720E-01  0.51100000000E-03 0.  1.
         11    1    4    4    0    0  0.16909830017E-01  0.18504594837E-01 -0.36529387466E-01  0.44305977598E-01  0.51100000000E-03 0. -1.
</event>
<event>
 8    1  0.1120016E+005  0.1043930E+01  0.7957747E-01            NaN
         13   -1    0    0    0    0  0.00000000000E+00  0.00000000000E+00  0.74505805969E-08  0.10566000000E+00  0.10566000000E+00 0.  1.
     999900   -1    0    0    0    0 -0.00000000000E+00 -0.00000000000E+00 -0.74505805969E-08  0.93827000000E+00  0.93827000000E+00 0. -1.
     999902    2    1    2    0    0  0.88509395745E-02 -0.92440671696E-02  0.18968669112E-01  0.10210476418E+01  0.10207912051E+01 0.  0.
     999903    2    3    3    0    0 -0.11888395982E+00 -0.25166160993E-01 -0.40783644391E-01  0.12967787757E+00  0.19654890477E-01 0.  0.
         14    1    1    2    0    0 -0.88509395745E-02  0.92440671696E-02 -0.18968669112E-01  0.22882358206E-01  0.00000000000E+00 0. -1.
     999901    1    3    3    0    0  0.12773489940E+00  0.15922093824E-01  0.59752313503E-01  0.89136976422E+00  0.88000000000E+00 0.  1.
        -11    1    4    4    0    0 -0.15903993889E-01 -0.10258775778E-01 -0.82882077326E-02  0.20667244870E-01  0.51100000000E-03 0.  1.
         11    1    4    4    0    0 -0.10297996594E+00 -0.14907385215E-01 -0.32495436658E-01  0.10901063270E+00  0.51100000000E-03 0. -1.
</event>
<event>
 8    1  0.1120016E+005  0.1043930E+01  0.7957747E-01            NaN
         13   -1    0    0    0    0  0.00000000000E+00  0.00000000000E+00  0.74505805969E-08  0.10566000000E+00  0.10566000000E+00 0.  1.
     999900   -1    0    0    0    0 -0.00000000000E+00 -0.00000000000E+00 -0.74505805969E-08  0.93827000000E+00  0.93827000000E+00 0.  1.
     999902    2    1    2    0    0  0.18861220274E-02  0.23400465243E-01 -0.39795217897E-02  0.10201187459E+01  0.10198408110E+01 0.  0.
     999903    2    3    3    0    0 -0.45230693774E-01  0.12354929339E+00  0.40785130216E-02  0.13314934727E+00  0.20046716782E-01 0.  0.
         14    1    1    2    0    0 -0.18861220274E-02 -0.23400465243E-01  0.39795217897E-02  0.23811254136E-01  0.00000000000E+00 0.  1.
     999901    1    3    3    0    0  0.47116815801E-01 -0.10014882815E+00 -0.80580348114E-02  0.88696939859E+00  0.88000000000E+00 0.  1.
        -11    1    4    4    0    0 -0.39513466638E-01  0.10732667756E+00  0.10341236848E-01  0.11483698038E+00  0.51100000000E-03 0.  1.
         11    1    4    4    0    0 -0.57172271355E-02  0.16222615835E-01 -0.62627238267E-02  0.18312366897E-01  0.51100000000E-03 0. -1.
</event>
<event>
 8    1  0.1120016E+005  0.1043930E+01  0.7957747E-01            NaN
         13   -1    0    0    0    0  0.00000000000E+00  0.00000000000E+00  0.74505805969E-08  0.10566000000E+00  0.10566000000E+00 0.  1.
     999900   -1    0    0    0    0 -0.00000000000E+00 -0.00000000000E+00 -0.74505805969E-08  0.93827000000E+00  0.93827000000E+00 0.  1.
     999902    2    1    2    0    0  0.18565910577E-01  0.15427519708E-01  0.51479364346E-02  0.10192479691E+01  0.10189490762E+01 0.  0.
     999903    2    3    3    0    0 -0.27712903172E-01  0.10131163648E+00 -0.74033457999E-01  0.13032305475E+00  0.21704677103E-01 0.  0.
         14    1    1    2    0    0 -0.18565910577E-01 -0.15427519708E-01 -0.51479364346E-02  0.24682030902E-01  0.00000000000E+00 0. -1.
     999901    1    3    3    0    0  0.46278813749E-01 -0.85884116776E-01  0.79181394433E-01  0.88892491434E+00  0.88000000000E+00 0. -1.
        -11    1    4    4    0    0 -0.97105588558E-02  0.66898950864E-01 -0.54570400364E-01  0.86878963489E-01  0.51100000000E-03 0.  1.
         11    1    4    4    0    0 -0.18002344316E-01  0.34412685620E-01 -0.19463057634E-01  0.43444091266E-01  0.51100000000E-03 0. -1.
</event>
<event>
 7    1  0.1120016E+005  0.1043930E+01  0.7957747E-01            NaN
         13   -1    0    0    0    0  0.00000000000E+00  0.00000000000E+00  0.74505805969E-08  0.10566000000E+00  0.10566000000E+00 0. -1.
     999900   -1    0    0    0    0 -0.00000000000E+00 -0.00000000000E+00 -0.74505805969E-08  0.93827000000E+00  0.93827000000E+00 0.  1.
     999903    2    1    2    0    0 -0.84972992746E-01 -0.42927339782E-01 -0.37248289390E-01  0.10411837087E+00  0.19749280801E-01 0.  0.
         14    1    1    2    0    0 -0.37479077672E-01 -0.20680062113E-01  0.23757467535E-01  0.48956751279E-01  0.00000000000E+00 0.  1.
     999901    1    1    2    0    0  0.12245207042E+00  0.63607401895E-01  0.13490821855E-01  0.89085487786E+00  0.88000000000E+00 0.  1.
        -11    1    3    3    0    0 -0.54403509068E-01 -0.16610720985E-01 -0.21433656780E-01  0.60789148822E-01  0.51100000000E-03 0.  1.
         11    1    3    3    0    0 -0.30569483677E-01 -0.26316618797E-01 -0.15814632610E-01  0.43329222043E-01  0.51100000000E-03 0. -1.
</event>
<event>
 8    1  0.1120016E+005  0.1043930E+01  0.7957747E-01            NaN
         13   -1    0    0    0    0  0.00000000000E+00  0.00000000000E+00  0.74505805969E-08  0.10566000000E+00  0.10566000000E+00 0. -1.
     999900   -1    0    0    0    0 -0.00000000000E+00 -0.00000000000E+00 -0.74505805969E-08  0.93827000000E+00  0.93827000000E+00 0.  1.
     999902    2    1    2    0    0  0.11226735650E-02 -0.87398157324E-02 -0.21774627851E-01  0.10204400193E+01  0.10201696201E+01 0.  0.
     999903    2    3    3    0    0  0.65732584608E-01  0.60104915946E-01 -0.95727820936E-01  0.13230539412E+00  0.20187323055E-01 0.  0.
         14    1    1    2    0    0 -0.11226735650E-02  0.87398157324E-02  0.21774627851E-01  0.23489980694E-01  0.00000000000E+00 0. -1.
     999901    1    3    3    0    0 -0.64609911043E-01 -0.68844731678E-01  0.73953193086E-01  0.88813462518E+00  0.88000000000E+00 0. -1.
        -11    1    4    4    0    0  0.11557390236E-01  0.16192751324E-01 -0.32839657428E-01  0.38398993287E-01  0.51100000000E-03 0.  1.
         11    1    4    4    0    0  0.54175194372E-01  0.43912164622E-01 -0.62888163509E-01  0.93906400834E-01  0.51100000000E-03 0. -1.
</event>
<event>
 8    1  0.1120016E+005  0.1043930E+01  0.7957747E-01            NaN
         13   -1    0    0    0    0  0.00000000000E+00  0.00000000000E+00  0.74505805969E-08  0.10566000000E+00  0.10566000000E+00 0.  1.
     999900   -1    0    0    0    0 -0.00000000000E+00 -0.00000000000E+00 -0.74505805969E-08  0.93827000000E+00  0.93827000000E+00 0. -1.
     999902    2    1    2    0    0 -0.77897554089E-03 -0.56606980345E-02  0.20933480041E-01  0.10222306707E+01  0.10220003343E+01 0.  0.
     999903    2    3    3    0    0 -0.12510738308E+00 -0.11618250480E-01 -0.34403136544E-01  0.13175035847E+00  0.19691117487E-01 0.  0.
         14    1    1    2    0    0  0.77897554089E-03  0.56606980345E-02 -0.20933480041E-01  0.21699329293E-01  0.00000000000E+00 0. -1.
     999901    1    3    3    0    0  0.12432840753E+00  0.59575524455E-02  0.55336616585E-01  0.89048031224E+00  0.88000000000E+00 0. -1.
        -11    1    4    4    0    0 -0.54464293360E-01  0.35662705783E-02 -0.19567449072E-01  0.57984685230E-01  0.51100000000E-03 0. -1.
         11    1    4    4    0    0 -0.70643089716E-01 -0.15184521058E-01 -0.14835687472E-01  0.73765673237E-01  0.51100000000E-03 0.  1.
</event>
<event>
 8    1  0.1120016E+005  0.1043930E+01  0.7957747E-01            NaN
         13   -1    0    0    0    0  0.00000000000E+00  0.00000000000E+00  0.74505805969E-08  0.10566000000E+00  0.10566000000E+00 0.  1.
     999900   -1    0    0    0    0 -0.00000000000E+00 -0.00000000000E+00 -0.74505805969E-08  0.93827000000E+00  0.93827000000E+00 0. -1.
     999902    2    1    2    0    0  0.17269952068E-01  0.11045564525E-01  0.11683819162E-01  0.10203340815E+01  0.10200612092E+01 0.  0.
     999903    2    3    3    0    0  0.18043135840E-01  0.12128557000E+00 -0.43084267941E-01  0.13176613249E+00  0.21686753708E-01 0.  0.
         14    1    1    2    0    0 -0.17269952068E-01 -0.11045564525E-01 -0.11683819162E-01  0.23595918509E-01  0.00000000000E+00 0. -1.
     999901    1    3    3    0    0 -0.77318377229E-03 -0.11024000548E+00  0.54768087103E-01  0.88856794900E+00  0.88000000000E+00 0.  1.
        -11    1    4    4    0    0  0.44193989490E-03  0.50440997034E-01 -0.26180041004E-01  0.56834366017E-01  0.51100000000E-03 0. -1.
         11    1    4    4    0    0  0.17601195945E-01  0.70844572969E-01 -0.16904226937E-01  0.74931766476E-01  0.51100000000E-03 0.  1.
</event>
<event>
 8    1  0.1120016E+005  0.1043930E+01  0.7957747E-01            NaN
         13   -1    0    0    0    0  0.00000000000E+00  0.00000000000E+00  0.74505805969E-08  0.10566000000E+00  0.10566000000E+00 0. -1.
     999900   -1    0    0    0    0 -0.00000000000E+00 -0.00000000000E+00 -0.74505805969E-08  0.93827000000E+00  0.93827000000E+00 0.  1.
     999902    2    1    2    0    0 -0.95190605817E-02 -0.12308602354E-01  0.19247118753E-01  0.10191799336E+01  0.10188793703E+01 0.  0.
     999903    2    3    3    0    0 -0.28001945953E-01  0.88970525116E-01  0.88927956196E-01  0.13044234701E+00  0.20178235425E-01 0.  0.
         14    1    1    2    0    0  0.95190605817E-02  0.12308602354E-01 -0.19247118753E-01  0.24750066395E-01  0.00000000000E+00 0. -1.
     999901    1    3    3    0    0  0.18482885371E-01 -0.10127912747E+00 -0.69680837444E-01  0.88873758659E+00  0.88000000000E+00 0. -1.
        -11    1    4    4    0    0 -0.89436016812E-02  0.12458765929E-01  0.23062048500E-01  0.27700687023E-01  0.51100000000E-03 0.  1.
         11    1    4    4    0    0 -0.19058344272E-01  0.76511759187E-01  0.65865907696E-01  0.10274165999E+00  0.51100000000E-03 0. -1.
</event>
<event>
 8    1  0.1120016E+005  0.1043930E+01  0.7957747E-01            NaN
         13   -1    0    0    0    0  0.00000000000E+00  0.00000000000E+00  0.74505805969E-08  0.10566000000E+00  0.10566000000E+00 0.  1.
     999900   -1    0    0    0    0 -0.00000000000E+00 -0.00000000000E+00 -0.74505805969E-08  0.93827000000E+00  0.93827000000E+00 0.  1.
     999902    2    1    2    0    0  0.40438563647E-02 -0.22365149135E-01  0.89012130378E-02  0.10195213076E+01  0.10192290775E+01 0.  0.
     999903    2    3    3    0    0 -0.48026452079E-01 -0.45177723452E-01  0.11224105487E+00  0.13165259352E+00  0.19666829587E-01 0.  0.
         14    1    1    2    0    0 -0.40438563647E-02  0.22365149135E-01 -0.89012130378E-02  0.24408692379E-01  0.00000000000E+00 0. -1.
     999901    1    3    3    0    0  0.52070308443E-01  0.22812574317E-01 -0.10333984184E+00  0.88786871410E+00  0.88000000000E+00 0.  1.
        -11    1    4    4    0    0 -0.40812409670E-01 -0.26592175821E-01  0.75596204564E-01  0.89932440551E-01  0.51100000000E-03 0.  1.
         11    1    4    4    0    0 -0.72140424091E-02 -0.18585547631E-01  0.36644850309E-01  0.41720152969E-01  0.51100000000E-03 0. -1.
</event>
<event>
 8    1  0.1120016E+005  0.1043930E+01  0.7957747E-01            NaN
         13   -1    0    0    0    0  0.00000000000E+00  0.00000000000E+00  0.74505805969E-08  0.10566000000E+00  0.10566000000E+00 0. -1.
     999900   -1    0    0    0    0 -0.00000000000E+00 -0.00000000000E+00 -0.74505805969E-08  0.93827000000E+00  0.93827000000E+00 0.  1.
     999902    2    1    2    0    0 -0.12597642463E-01 -0.10704219443E-01  0.18454184014E-01  0.10191542494E+01  0.10188530543E+01 0.  0.
     999903    2    3    3    0    0 -0.12816765009E-01 -0.11562526242E+00  0.59385811943E-01  0.13197677481E+00  0.18913583881E-01 0.  0.
         14    1    1    2    0    0  0.12597642463E-01  0.10704219443E-01 -0.18454184014E-01  0.24775750587E-01  0.00000000000E+00 0.  1.
     999901    1    3    3    0    0  0.21912254628E-03  0.10492104297E+00 -0.40931627929E-01  0.88717747460E+00  0.88000000000E+00 0. -1.
        -11    1    4    4    0    0 -0.16136647501E-02 -0.86469981082E-01  0.46400737698E-01  0.98147598657E-01  0.51100000000E-03 0.  1.
         11    1    4    4    0    0 -0.11203100259E-01 -0.29155281336E-01  0.12985074246E-01  0.33829176156E-01  0.51100000000E-03 0. -1.
</event>
<event>
 8    1  0.1120016E+005  0.1043930E+01  0.7957747E-01            NaN
         13   -1    0    0    0    0  0.00000000000E+00  0.00000000000E+00  0.74505805969E-08  0.10566000000E+00  0.10566000000E+00 0.  1.
     999900   -1    0    0    0    0 -0.00000000000E+00 -0.00000000000E+00 -0.74505805969E-08  0.93827000000E+00  0.93827000000E+00 0. -1.
     999902    2    1    2    0    0  0.25161820569E-02 -0.21371647888E-01 -0.10799119690E-01  0.10198530506E+01  0.10195688036E+01 0.  0.
     999903    2    3    3    0    0  0.51304153405E-01  0.85863305873E-01 -0.79416566998E-01  0.12935433892E+00  0.20516589177E-01 0.  0.
         14    1    1    2    0    0 -0.25161820569E-02  0.21371647888E-01  0.10799119690E-01  0.24076949385E-01  0.00000000000E+00 0.  1.
     999901    1    3    3    0    0 -0.48787971348E-01 -0.10723495376E+00  0.68617447308E-01  0.89049871170E+00  0.88000000000E+00 0.  1.
        -11    1    4    4    0    0  0.17819023929E-01  0.40523779960E-01 -0.24222385298E-01  0.50464635405E-01  0.51100000000E-03 0. -1.
         11    1    4    4    0    0  0.33485129476E-01  0.45339525913E-01 -0.55194181701E-01  0.78889703515E-01  0.51100000000E-03 0.  1.
</event>
<event>
 8    1  0.1120016E+005  0.1043930E+01  0.7957747E-01            NaN
         13   -1    0    0    0    0  0.00000000000E+00  0.00000000000E+00  0.74505805969E-08  0.10566000000E+00  0.10566000000E+00 0. -1.
     999900   -1    0    0    0    0 -0.00000000000E+00 -0.00000000000E+00 -0.74505805969E-08  0.93827000000E+00  0.93827000000E+00 0. -1.
     999902    2    1    2    0    0 -0.10064862257E-01 -0.20097507492E-01 -0.85946283366E-02  0.10198659418E+01  0.10195820028E+01 0.  0.
     999903    2    3    3    0    0  0.11446807637E-01 -0.77287993771E-01 -0.10509121636E+00  0.13248491027E+00  0.20090403351E-01 0.  0.
         14    1    1    2    0    0  0.10064862257E-01  0.20097507492E-01  0.85946283366E-02  0.24064058176E-01  0.00000000000E+00 0. -1.
     999901    1    3    3    0    0 -0.21511669894E-01  0.57190486279E-01  0.96496588024E-01  0.88738103155E+00  0.88000000000E+00 0.  1.
        -11    1    4    4    0    0  0.89837924734E-02 -0.10480813077E-01 -0.17470082226E-01  0.22271525856E-01  0.51100000000E-03 0.  1.
         11    1    4    4    0    0  0.24630151641E-02 -0.66807180694E-01 -0.87621134135E-01  0.11021338441E+00  0.51100000000E-03 0. -1.
</event>
<event>
 8    1  0.1120016E+005  0.1043930E+01  0.7957747E-01            NaN
         13   -1    0    0    0    0  0.00000000000E+00  0.00000000000E+00  0.74505805969E-08  0.10566000000E+00  0.10566000000E+00 0.  1.
     999900   -1    0    0    0    0 -0.00000000000E+00 -0.00000000000E+00 -0.74505805969E-08  0.93827000000E+00  0.93827000000E+00 0.  1.
     999902    2    1    2    0    0 -0.23819812751E-01  0.10421199513E-01  0.12756298355E-01  0.10149695437E+01  0.10145562906E+01 0.  0.
     999903    2    3    3    0    0  0.27064357153E-01  0.11836998064E+00  0.30972408020E-01  0.12672747947E+00  0.18884709453E-01 0.  0.
         14    1    1    2    0    0  0.23819812751E-01 -0.10421199513E-01 -0.12756298355E-01  0.28960456255E-01  0.00000000000E+00 0. -1.
     999901    1    3    3    0    0 -0.50884169904E-01 -0.10794878112E+00 -0.18216109665E-01  0.88824206427E+00  0.88000000000E+00 0.  1.
        -11    1    4    4    0    0  0.49141074759E-02  0.34613466679E-01  0.17326663428E-01  0.39021979887E-01  0.51100000000E-03 0.  1.
         11    1    4    4    0    0  0.22150249677E-01  0.83756513957E-01  0.13645744592E-01  0.87705499584E-01  0.51100000000E-03 0. -1.
</event>
<event>
 8    1  0.1120016E+005  0.1043930E+01  0.7957747E-01            NaN
         13   -1    0    0    0    0  0.00000000000E+00  0.00000000000E+00  0.74505805969E-08  0.10566000000E+00  0.10566000000E+00 0. -1.
     999900   -1    0    0    0    0 -0.00000000000E+00 -0.00000000000E+00 -0.74505805969E-08  0.93827000000E+00  0.93827000000E+00 0.  1.
     999902    2    1    2    0    0  0.13414353883E-01  0.14784416410E-01  0.12359669981E-02  0.10239287132E+01  0.10237333433E+01 0.  0.
     999903    2    3    3    0    0 -0.10072018520E-01  0.13188176886E+00 -0.21625011989E-01  0.13556728677E+00  0.20410820241E-01 0.  0.
         14    1    1    2    0    0 -0.13414353883E-01 -0.14784416410E-01 -0.12359669981E-02  0.20001286787E-01  0.00000000000E+00 0. -1.
     999901    1    3    3    0    0  0.23486372403E-01 -0.11709735245E+00  0.22860978987E-01  0.88836142645E+00  0.88000000000E+00 0. -1.
        -11    1    4    4    0    0 -0.11465736222E-01  0.61790171464E-01 -0.24936240837E-02  0.62896483835E-01  0.51100000000E-03 0.  1.
         11    1    4    4    0    0  0.13937177024E-02  0.70091597396E-01 -0.19131387905E-01  0.72670802931E-01  0.51100000000E-03 0. -1.
</event>
<event>
 8    1  0.1120016E+005  0.1043930E+01  0.7957747E-01            NaN
         13   -1    0    0    0    0  0.00000000000E+00  0.00000000000E+00  0.74505805969E-08  0.10566000000E+00  0.10566000000E+00 0.  1.
     999900   -1    0    0    0    0 -0.00000000000E+00 -0.00000000000E+00 -0.74505805969E-08  0.93827000000E+00  0.93827000000E+00 0. -1.
     999902    2    1    2    0    0 -0.69455896564E-03  0.12702277270E-01  0.18320623430E-01  0.10216258411E+01  0.10213823397E+01 0.  0.
     999903    2    3    3    0    0  0.93361821408E-01  0.51864261485E-01  0.77808082969E-01  0.13375252723E+00  0.20719783998E-01 0.  0.
         14    1    1    2    0    0  0.69455896564E-03 -0.12702277270E-01 -0.18320623430E-01  0.22304158869E-01  0.00000000000E+00 0. -1.
     999901    1    3    3    0    0 -0.94056380374E-01 -0.39161984215E-01 -0.59487459539E-01  0.88787331390E+00  0.88000000000E+00 0. -1.
        -11    1    4    4    0    0  0.87811848615E-01  0.47317640619E-01  0.64988949039E-01  0.11905336824E+00  0.51100000000E-03 0.  1.
         11    1    4    4    0    0  0.55499727936E-02  0.45466208651E-02  0.12819133930E-01  0.14699158990E-01  0.51100000000E-03 0. -1.
</event>
<event>
 8    1  0.1120016E+005  0.1043930E+01  0.7957747E-01            NaN
         13   -1    0    0    0    0  0.00000000000E+00  0.00000000000E+00  0.74505805969E-08  0.10566000000E+00  0.10566000000E+00 0.  1.
     999900   -1    0    0    0    0 -0.00000000000E+00 -0.00000000000E+00 -0.74505805969E-08  0.93827000000E+00  0.93827000000E+00 0. -1.
     999902    2    1    2    0    0 -0.15209178130E-01 -0.18779353855E-01  0.24385993300E-02  0.10196415254E+01  0.10193522013E+01 0.  0.
     999903    2    3    3    0    0  0.42837215549E-01 -0.88840922876E-01 -0.83402466614E-01  0.13079581560E+00  0.20587309854E-01 0.  0.
         14    1    1    2    0    0  0.15209178130E-01  0.18779353855E-01 -0.24385993300E-02  0.24288474577E-01  0.00000000000E+00 0. -1.
     999901    1    3    3    0    0 -0.58046393679E-01  0.70061569021E-01  0.85841065944E-01  0.88884570983E+00  0.88000000000E+00 0.  1.
        -11    1    4    4    0    0  0.12576748279E-01 -0.44849278731E-01 -0.46985247080E-01  0.66162730930E-01  0.51100000000E-03 0.  1.
         11    1    4    4    0    0  0.30260467271E-01 -0.43991644145E-01 -0.36417219533E-01  0.64633084667E-01  0.51100000000E-03 0. -1.
</event>
<event>
 8    1  0.1120016E+005  0.1043930E+01  0.7957747E-01            NaN
         13   -1    0    0    0    0  0.00000000000E+00  0.00000000000E+00  0.74505805969E-08  0.10566000000E+00  0.10566000000E+00 0. -1.
     999900   -1    0    0    0    0 -0.00000000000E+00 -0.00000000000E+00 -0.74505805969E-08  0.93827000000E+00  0.93827000000E+00 0. -1.
     999902    2    1    2    0    0  0.95123047373E-02 -0.19205326613E-01  0.93689268972E-02  0.10205397178E+01  0.10202716355E+01 0.  0.
     999903    2    3    3    0    0 -0.89364157455E-01 -0.91059169577E-01  0.27085636496E-01  0.13191526879E+00  0.19755541835E-01 0.  0.
         14    1    1    2    0    0 -0.95123047373E-02  0.19205326613E-01 -0.93689268972E-02  0.23390282233E-01  0.00000000000E+00 0.  1.
     999901    1    3    3    0    0  0.98876462193E-01  0.71853842963E-01 -0.17716709599E-01  0.88862444898E+00  0.88000000000E+00 0.  1.
        -11    1    4    4    0    0 -0.28431515508E-01 -0.38052261352E-01  0.28297103554E-02  0.47587751048E-01  0.51100000000E-03 0. -1.
         11    1    4    4    0    0 -0.60932641948E-01 -0.53006908225E-01  0.24255926140E-01  0.84327517740E-01  0.51100000000E-03 0.  1.
</event>
<event>
 8    1  0.1120016E+005  0.1043930E+01  0.7957747E-01            NaN
         13   -1    0    0    0    0  0.00000000000E+00  0.00000000000E+00  0.74505805969E-08  0.10566000000E+00  0.10566000000E+00 0. -1.
     999900   -1    0    0    0    0 -0.00000000000E+00 -0.00000000000E+00 -0.74505805969E-08  0.93827000000E+00  0.93827000000E+00 0. -1.
     999902    2    1    2    0    0  0.80942507174E-02  0.77280696422E-02  0.21393380415E-01  0.10197863325E+01  0.10195004891E+01 0.  0.
     999903    2    3    3    0    0  0.43912852709E-01  0.11100098906E+00  0.53953615597E-01  0.13242595641E+00  0.19392861795E-01 0.  0.
         14    1    1    2    0    0 -0.80942507174E-02 -0.77280696422E-02 -0.21393380415E-01  0.24143667507E-01  0.00000000000E+00 0.  1.
     999901    1    3    3    0    0 -0.35818601992E-01 -0.10327291942E+00 -0.32560235182E-01  0.88736037609E+00  0.88000000000E+00 0.  1.
        -11    1    4    4    0    0  0.10643359893E-01  0.51210412802E-01  0.19578624660E-01  0.55851330814E-01  0.51100000000E-03 0. -1.
         11    1    4    4    0    0  0.33269492816E-01  0.59790576259E-01  0.34374990938E-01  0.76574625593E-01  0.51100000000E-03 0.  1.
</event>
<event>
 8    1  0.1120016E+005  0.1043930E+01  0.7957747E-01            NaN
         13   -1    0    0    0    0  0.00000000000E+00  0.00000000000E+00  0.74505805969E-08  0.10566000000E+00  0.10566000000E+00 0. -1.
     999900   -1    0    0    0    0 -0.00000000000E+00 -0.00000000000E+00 -0.74505805969E-08  0.93827000000E+00  0.93827000000E+00 0.  1.
     999902    2    1    2    0    0 -0.63930708064E-02  0.10631798795E-01  0.20688862724E-01  0.10198066598E+01  0.10195213033E+01 0.  0.
     999903    2    3    3    0    0 -0.34973713340E-01  0.12145105039E+00 -0.26074686270E-01  0.13116466827E+00  0.23468333389E-01 0.  0.
         14    1    1    2    0    0  0.63930708064E-02 -0.10631798795E-01 -0.20688862724E-01  0.24123340166E-01  0.00000000000E+00 0.  1.
     999901    1    3    3    0    0  0.28580642534E-01 -0.11081925160E+00  0.46763548994E-01  0.88864199156E+00  0.88000000000E+00 0. -1.
        -11    1    4    4    0    0 -0.17259088996E-01  0.32653356701E-01 -0.15285352583E-01  0.39975254613E-01  0.51100000000E-03 0. -1.
         11    1    4    4    0    0 -0.17714624344E-01  0.88797693694E-01 -0.10789333687E-01  0.91189413659E-01  0.51100000000E-03 0.  1.
</event>
<event>
 8    1  0.1120016E+005  0.1043930E+01  0.7957747E-01            NaN
         13   -1    0    0    0    0  0.00000000000E+00  0.00000000000E+00  0.74505805969E-08  0.10566000000E+00  0.10566000000E+00 0.  1.
     999900   -1    0    0    0    0 -0.00000000000E+00 -0.00000000000E+00 -0.74505805969E-08  0.93827000000E+00  0.93827000000E+00 0.  1.
     999902    2    1    2    0    0 -0.20996177780E-01 -0.11365515186E-01 -0.20424559035E-02  0.10199678206E+01  0.10196863091E+01 0.  0.
     999903    2    3    3    0    0 -0.10493638997E+00  0.35691192627E-01 -0.68728690575E-01  0.13221371787E+00  0.21710069415E-01 0.  0.
         14    1    1    2    0    0  0.20996177780E-01  0.11365515186E-01  0.20424559035E-02  0.23962179427E-01  0.00000000000E+00 0. -1.
     999901    1    3    3    0    0  0.83940212188E-01 -0.47056707813E-01  0.66686234671E-01  0.88775410270E+00  0.88000000000E+00 0.  1.
        -11    1    4    4    0    0 -0.22341343969E-01 -0.14116457518E-02 -0.13039046979E-01  0.25911508277E-01  0.51100000000E-03 0.  1.
         11    1    4    4    0    0 -0.82595045999E-01  0.37102838379E-01 -0.55689643596E-01  0.10630220959E+00  0.51100000000E-03 0. -1.
</event>
<event>
 8    1  0.1120016E+005  0.1043930E+01  0.7957747E-01            NaN
         13   -1    0    0    0    0  0.00000000000E+00  0.00000000000E+00  0.74505805969E-08  0.10566000000E+00  0.10566000000E+00 0.  1.
     999900   -1    0    0    0    0 -0.00000000000E+00 -0.00000000000E+00 -0.74505805969E-08  0.93827000000E+00  0.93827000000E+00 0. -1.
     999902    2    1    2    0    0 -0.19909272204E-01  0.21092299185E-02 -0.12439444748E-01  0.10203595151E+01  0.10200872376E+01 0.  0.
     999903    2    3    3    0    0 -0.76285754725E-01  0.10095042516E+00 -0.34442949807E-01  0.13276048186E+00  0.20700822180E-01 0.  0.
         14    1    1    2    0    0  0.19909272204E-01 -0.21092299185E-02  0.12439444748E-01  0.23570484853E-01  0.00000000000E+00 0.  1.
     999901    1    3    3    0    0  0.56376482522E-01 -0.98841195239E-01  0.22003505058E-01  0.88759903329E+00  0.88000000000E+00 0.  1.
        -11    1    4    4    0    0 -0.18438390624E-01  0.30006199750E-01 -0.18691982088E-01  0.39874773825E-01  0.51100000000E-03 0.  1.
         11    1    4    4    0    0 -0.57847364101E-01  0.70944225407E-01 -0.15750967719E-01  0.92885708035E-01  0.51100000000E-03 0. -1.
</event>
<event>
 8    1  0.1120016E+005  0.1043930E+01  0.7957747E-01            NaN
         13   -1    0    0    0    0  0.00000000000E+00  0.00000000000E+00  0.74505805969E-08  0.10566000000E+00  0.10566000000E+00 0. -1.
     999900   -1    0    0    0    0 -0.00000000000E+00 -0.00000000000E+00 -0.74505805969E-08  0.93827000000E+00  0.93827000000E+00 0. -1.
     999902    2    1    2    0    0  0.12752711963E-01 -0.17377930920E-01  0.80156149692E-02  0.10209327343E+01  0.10206736862E+01 0.  0.
     999903    2    3    3    0    0  0.12519449745E+00  0.24029893901E-01  0.29986745661E-01  0.13254065102E+00  0.20413751843E-01 0.  0.
         14    1    1    2    0    0 -0.12752711963E-01  0.17377930920E-01 -0.80156149692E-02  0.22997265681E-01  0.00000000000E+00 0.  1.
     999901    1    3    3    0    0 -0.11244178549E+00 -0.41407824821E-01 -0.21971130692E-01  0.88839208330E+00  0.88000000000E+00 0. -1.
        -11    1    4    4    0    0  0.88924680701E-01  0.12890743808E-01  0.12361965129E-01  0.90701981327E-01  0.51100000000E-03 0.  1.
         11    1    4    4    0    0  0.36269816753E-01  0.11139150093E-01  0.17624780532E-01  0.41838669695E-01  0.51100000000E-03 0. -1.
</event>
<event>
 8    1  0.1120016E+005  0.1043930E+01  0.7957747E-01            NaN
         13   -1    0    0    0    0  0.00000000000E+00  0.00000000000E+00  0.74505805969E-08  0.10566000000E+00  0.10566000000E+00 0. -1.
     999900   -1    0    0    0    0 -0.00000000000E+00 -0.00000000000E+00 -0.74505805969E-08  0.93827000000E+00  0.93827000000E+00 0.  1.
     999902    2    1    2    0    0  0.12687069246E-01  0.16397086165E-01  0.16528168675E-01  0.10174157299E+01  0.10170701848E+01 0.  0.
     999903    2    3    3    0    0 -0.70404757644E-01 -0.26975032406E-01  0.10189306224E+00  0.12833049356E+00  0.20050864629E-01 0.  0.
         14    1    1    2    0    0 -0.12687069246E-01 -0.16397086165E-01 -0.16528168675E-01  0.26514270130E-01  0.00000000000E+00 0.  1.
     999901    1    3    3    0    0  0.83091826890E-01  0.43372118571E-01 -0.85364893570E-01  0.88908523631E+00  0.88000000000E+00 0. -1.
        -11    1    4    4    0    0 -0.23996985445E-01 -0.40898474882E-02  0.20243927913E-01  0.31664805404E-01  0.51100000000E-03 0. -1.
         11    1    4    4    0    0 -0.46407772199E-01 -0.22885184918E-01  0.81649134331E-01  0.96665688159E-01  0.51100000000E-03 0.  1.
</event>
<event>
 8    1  0.1120016E+005  0.1043930E+01  0.7957747E-01            NaN
         13   -1    0    0    0    0  0.00000000000E+00  0.00000000000E+00  0.74505805969E-08  0.10566000000E+00  0.10566000000E+00 0.  1.
     999900   -1    0    0    0    0 -0.00000000000E+00 -0.00000000000E+00 -0.74505805969E-08  0.93827000000E+00  0.93827000000E+00 0. -1.
     999902    2    1    2    0    0 -0.73035090839E-02  0.22389871509E-01 -0.36628866298E-02  0.10200958999E+01  0.10198174251E+01 0.  0.
     999903    2    3    3    0    0  0.53183153397E-01  0.50136038335E-01  0.10659761037E+00  0.13072203960E+00  0.19573731233E-01 0.  0.
         14    1    1    2    0    0  0.73035090839E-02 -0.22389871509E-01  0.36628866298E-02  0.23834100143E-01  0.00000000000E+00 0. -1.
     999901    1    3    3    0    0 -0.60486662481E-01 -0.27746166825E-01 -0.11026049700E+00  0.88937386026E+00  0.88000000000E+00 0. -1.
        -11    1    4    4    0    0  0.47907824327E-01  0.49238744601E-01  0.89678325196E-01  0.11296936192E+00  0.51100000000E-03 0. -1.
         11    1    4    4    0    0  0.52753290694E-02  0.89729373337E-03  0.16919285178E-01  0.17752677679E-01  0.51100000000E-03 0.  1.
</event>
<event>
 8    1  0.1120016E+005  0.1043930E+01  0.7957747E-01            NaN
         13   -1    0    0    0    0  0.00000000000E+00  0.00000000000E+00  0.74505805969E-08  0.10566000000E+00  0.10566000000E+00 0. -1.
     999900   -1    0    0    0    0 -0.00000000000E+00 -0.00000000000E+00 -0.74505805969E-08  0.93827000000E+00  0.93827000000E+00 0.  1.
     999902    2    1    2    0    0  0.10280182864E-01 -0.41348890483E-02 -0.21246016768E-01  0.10199680991E+01  0.10196865942E+01 0.  0.
     999903    2    3    3    0    0 -0.52489802329E-01 -0.46928608930E-01 -0.11018375479E+00  0.13222866955E+00  0.19659286477E-01 0.  0.
         14    1    1    2    0    0 -0.10280182864E-01  0.41348890483E-02  0.21246016768E-01  0.23961900920E-01  0.00000000000E+00 0. -1.
     999901    1    3    3    0    0  0.62769985193E-01  0.42793719882E-01  0.88937738027E-01  0.88773942953E+00  0.88000000000E+00 0. -1.
        -11    1    4    4    0    0 -0.20393912433E-02 -0.34761700338E-02 -0.18357753685E-01  0.18801891290E-01  0.51100000000E-03 0. -1.
         11    1    4    4    0    0 -0.50450411086E-01 -0.43452438897E-01 -0.91826001110E-01  0.11342677826E+00  0.51100000000E-03 0.  1.
</event>
<event>
 8    1  0.1120016E+005  0.1043930E+01  0.7957747E-01            NaN
         13   -1    0    0    0    0  0.00000000000E+00  0.00000000000E+00  0.74505805969E-08  0.10566000000E+00  0.10566000000E+00 0.  1.
     999900   -1    0    0    0    0 -0.00000000000E+00 -0.00000000000E+00 -0.74505805969E-08  0.93827000000E+00  0.93827000000E+00 0.  1.
     999902    2    1    2    0    0  0.55749504041E-02  0.10433350246E-01  0.21705693803E-01  0.10192101292E+01  0.10189103078E+01 0.  0.
     999903    2    3    3    0    0  0.96162771706E-01  0.71745458291E-01  0.50922373303E-01  0.13195653392E+00  0.20609446705E-01 0.  0.
         14    1    1    2    0    0 -0.55749504041E-02 -0.10433350246E-01 -0.21705693803E-01  0.24719870809E-01  0.00000000000E+00 0. -1.
     999901    1    3    3    0    0 -0.90587821302E-01 -0.61312108046E-01 -0.29216679501E-01  0.88725359527E+00  0.88000000000E+00 0.  1.
        -11    1    4    4    0    0  0.40385346063E-01  0.41788152940E-01  0.19723147488E-01  0.61371732667E-01  0.51100000000E-03 0.  1.
         11    1    4    4    0    0  0.55777425643E-01  0.29957305352E-01  0.31199225816E-01  0.70584801252E-01  0.51100000000E-03 0. -1.
</event>
<event>
 8    1  0.1120016E+005  0.1043930E+01  0.7957747E-01            NaN
         13   -1    0    0    0    0  0.00000000000E+00  0.00000000000E+00  0.74505805969E-08  0.10566000000E+00  0.10566000000E+00 0. -1.
     999900   -1    0    0    0    0 -0.00000000000E+00 -0.00000000000E+00 -0.74505805969E-08  0.93827000000E+00  0.93827000000E+00 0. -1.
     999902    2    1    2    0    0  0.15777060212E-01 -0.10449434446E-01 -0.25646597694E-01  0.10120575310E+01  0.10115555307E+01 0.  0.
     999903    2    3    3    0    0  0.97968499144E-01 -0.62180704026E-01  0.39811157735E-01  0.12429839999E+00  0.20022416975E-01 0.  0.
         14    1    1    2    0    0 -0.15777060212E-01  0.10449434446E-01  0.25646597694E-01  0.31872469036E-01  0.00000000000E+00 0. -1.
     999901    1    3    3    0    0 -0.82191438932E-01  0.51731269581E-01 -0.65457755429E-01  0.88775913098E+00  0.88000000000E+00 0. -1.
        -11    1    4    4    0    0  0.60063773150E-01 -0.48899152833E-01  0.23438678187E-01  0.80922288332E-01  0.51100000000E-03 0. -1.
         11    1    4    4    0    0  0.37904725994E-01 -0.13281551194E-01  0.16372479549E-01  0.43376111656E-01  0.51100000000E-03 0.  1.
</event>
<event>
 8    1  0.1120016E+005  0.1043930E+01  0.7957747E-01            NaN
         13   -1    0    0    0    0  0.00000000000E+00  0.00000000000E+00  0.74505805969E-08  0.10566000000E+00  0.10566000000E+00 0.  1.
     999900   -1    0    0    0    0 -0.00000000000E+00 -0.00000000000E+00 -0.74505805969E-08  0.93827000000E+00  0.93827000000E+00 0.  1.
     999902    2    1    2    0    0 -0.22537837033E-01 -0.41040954557E-02 -0.58848422186E-02  0.10202777471E+01  0.10200035550E+01 0.  0.
     999903    2    3    3    0    0  0.10323536890E+00 -0.38059076922E-01 -0.64728538741E-01  0.12874287922E+00  0.16700613568E-01 0.  0.
         14    1    1    2    0    0  0.22537837033E-01  0.41040954557E-02  0.58848422186E-02  0.23652252865E-01  0.00000000000E+00 0.  1.
     999901    1    3    3    0    0 -0.12577320593E+00  0.33954981467E-01  0.58843696522E-01  0.89153486792E+00  0.88000000000E+00 0. -1.
        -11    1    4    4    0    0  0.24758069462E-01 -0.27673674527E-02 -0.10554626160E-01  0.27060701774E-01  0.51100000000E-03 0.  1.
         11    1    4    4    0    0  0.78477299436E-01 -0.35291709470E-01 -0.54173912580E-01  0.10168217744E+00  0.51100000000E-03 0. -1.
</event>
<event>
 8    1  0.1120016E+005  0.1043930E+01  0.7957747E-01            NaN
         13   -1    0    0    0    0  0.00000000000E+00  0.00000000000E+00  0.74505805969E-08  0.10566000000E+00  0.10566000000E+00 0. -1.
     999900   -1    0    0    0    0 -0.00000000000E+00 -0.00000000000E+00 -0.74505805969E-08  0.93827000000E+00  0.93827000000E+00 0. -1.
     999902    2    1    2    0    0  0.12773377709E-01  0.19130293836E-01 -0.28977455670E-02  0.10207454308E+01  0.10204820970E+01 0.  0.
     999903    2    3    3    0    0  0.77398345204E-01 -0.69485116117E-01  0.76167108914E-01  0.13041946322E+00  0.19726193354E-01 0.  0.
         14    1    1    2    0    0 -0.12773377709E-01 -0.19130293836E-01  0.28977455670E-02  0.23184569216E-01  0.00000000000E+00 0.  1.
     999901    1    3    3    0    0 -0.64624967495E-01  0.88615409953E-01 -0.79064854481E-01  0.89032596756E+00  0.88000000000E+00 0. -1.
        -11    1    4    4    0    0  0.39882055652E-01 -0.30508212413E-01  0.47817800949E-01  0.69340699421E-01  0.51100000000E-03 0.  1.
         11    1    4    4    0    0  0.37516289552E-01 -0.38976903703E-01  0.28349307965E-01  0.61078763798E-01  0.51100000000E-03 0. -1.
</event>
<event>
 8    1  0.1120016E+005  0.1043930E+01  0.7957747E-01            NaN
         13   -1    0    0    0    0  0.00000000000E+00  0.00000000000E+00  0.74505805969E-08  0.10566000000E+00  0.10566000000E+00 0. -1.
     999900   -1    0    0    0    0 -0.00000000000E+00 -0.00000000000E+00 -0.74505805969E-08  0.93827000000E+00  0.93827000000E+00 0. -1.
     999902    2    1    2    0    0  0.22552000832E-01 -0.76689105703E-03  0.63225169917E-02  0.10204959418E+01  0.10202268435E+01 0.  0.
     999903    2    3    3    0    0  0.22065216158E-01 -0.12626548705E+00 -0.19672295196E-01  0.13121203615E+00  0.19993805232E-01 0.  0.
         14    1    1    2    0    0 -0.22552000832E-01  0.76689105703E-03 -0.63225169917E-02  0.23434058217E-01  0.00000000000E+00 0. -1.
     999901    1    3    3    0    0  0.48678467452E-03  0.12549859600E+00  0.25994812188E-01  0.88928390563E+00  0.88000000000E+00 0.  1.
        -11    1    4    4    0    0  0.24428264759E-02 -0.50003742244E-01 -0.15264965677E-01  0.52341397935E-01  0.51100000000E-03 0. -1.
         11    1    4    4    0    0  0.19622389682E-01 -0.76261744808E-01 -0.44073295190E-02  0.78870638216E-01  0.51100000000E-03 0.  1.
</event>
<event>
 8    1  0.1120016E+005  0.1043930E+01  0.7957747E-01            NaN
         13   -1    0    0    0    0  0.00000000000E+00  0.00000000000E+00  0.74505805969E-08  0.10566000000E+00  0.10566000000E+00 0.  1.
     999900   -1    0    0    0    0 -0.00000000000E+00 -0.00000000000E+00 -0.74505805969E-08  0.93827000000E+00  0.93827000000E+00 0. -1.
     999902    2    1    2    0    0  0.24752382191E-02 -0.28140211271E-02 -0.20018509987E-01  0.10235636979E+01  0.10233610592E+01 0.  0.
     999903    2    3    3    0    0  0.68533796744E-01 -0.10025642689E+00 -0.55435919921E-01  0.13501817373E+00  0.20212213895E-01 0.  0.
         14    1    1    2    0    0 -0.24752382191E-02  0.28140211271E-02  0.20018509987E-01  0.20366302100E-01  0.00000000000E+00 0.  1.
     999901    1    3    3    0    0 -0.66058558525E-01  0.97442405765E-01  0.35417409934E-01  0.88854552417E+00  0.88000000000E+00 0.  1.
        -11    1    4    4    0    0  0.34224669182E-01 -0.36857424525E-01 -0.15644819558E-01  0.52676552880E-01  0.51100000000E-03 0. -1.
         11    1    4    4    0    0  0.34309127562E-01 -0.63399002367E-01 -0.39791100363E-01  0.82341620850E-01  0.51100000000E-03 0.  1.
</event>
<event>
 8    1  0.1120016E+005  0.1043930E+01  0.7957747E-01            NaN
         13   -1    0    0    0    0  0.00000000000E+00  0.00000000000E+00  0.74505805969E-08  0.10566000000E+00  0.10566000000E+00 0.  1.
     999900   -1    0    0    0    0 -0.00000000000E+00 -0.00000000000E+00 -0.74505805969E-08  0.93827000000E+00  0.93827000000E+00 0.  1.
     999902    2    1    2    0    0  0.18142510250E-01 -0.83705636420E-02 -0.99496202696E-02  0.10216093379E+01  0.10213654719E+01 0.  0.
     999903    2    3    3    0    0  0.11954591887E+00 -0.52281583160E-01  0.23137294956E-01  0.13408155078E+00  0.20443512090E-01 0.  0.
         14    1    1    2    0    0 -0.18142510250E-01  0.83705636420E-02  0.99496202696E-02  0.22320662117E-01  0.00000000000E+00 0.  1.
     999901    1    3    3    0    0 -0.10140340862E+00  0.43911019518E-01 -0.33086915226E-01  0.88752778710E+00  0.88000000000E+00 0. -1.
        -11    1    4    4    0    0  0.11158290039E-01 -0.11676594670E-01  0.50649976903E-02  0.16934155494E-01  0.51100000000E-03 0. -1.
         11    1    4    4    0    0  0.10838762883E+00 -0.40604988490E-01  0.18072297266E-01  0.11714739529E+00  0.51100000000E-03 0.  1.
</event>
<event>
 8    1  0.1120016E+005  0.1043930E+01  0.7957747E-01            NaN
         13   -1    0    0    0    0  0.00000000000E+00  0.00000000000E+00  0.74505805969E-08  0.10566000000E+00  0.10566000000E+00 0.  1.
     999900   -1    0    0    0    0 -0.00000000000E+00 -0.00000000000E+00 -0.74505805969E-08  0.93827000000E+00  0.93827000000E+00 0.  1.
     999902    2    1    2    0    0 -0.56208076632E-03 -0.17105114804E-01  0.16390506662E-01  0.10202329623E+01  0.10199577186E+01 0.  0.
     999903    2    3    3    0    0 -0.10710328283E-01  0.34939799767E-01 -0.12020327113E+00  0.12811776783E+00  0.25096519748E-01 0.  0.
         14    1    1    2    0    0  0.56208076632E-03  0.17105114804E-01 -0.16390506662E-01  0.23697037703E-01  0.00000000000E+00 0. -1.
     999901    1    3    3    0    0  0.10148247517E-01 -0.52044914571E-01  0.13659377780E+00  0.89211519446E+00  0.88000000000E+00 0. -1.
        -11    1    4    4    0    0 -0.13444515112E-01  0.11775175921E-01 -0.29797423622E-01  0.34749925612E-01  0.51100000000E-03 0. -1.
         11    1    4    4    0    0  0.27341868280E-02  0.23164623846E-01 -0.90405847513E-01  0.93367842221E-01  0.51100000000E-03 0.  1.
</event>
<event>
 8    1  0.1120016E+005  0.1043930E+01  0.7957747E-01            NaN
         13   -1    0    0    0    0  0.00000000000E+00  0.00000000000E+00  0.74505805969E-08  0.10566000000E+00  0.10566000000E+00 0.  1.
     999900   -1    0    0    0    0 -0.00000000000E+00 -0.00000000000E+00 -0.74505805969E-08  0.93827000000E+00  0.93827000000E+00 0.  1.
     999902    2    1    2    0    0  0.18765135226E-01  0.14556847045E-01  0.41323746027E-02  0.10198238054E+01  0.10195388593E+01 0.  0.
     999903    2    3    3    0    0 -0.21785635361E-01  0.64987745600E-01 -0.10880422470E+00  0.13024957247E+00  0.20701952300E-01 0.  0.
         14    1    1    2    0    0 -0.18765135226E-01 -0.14556847045E-01 -0.41323746027E-02  0.24106194553E-01  0.00000000000E+00 0. -1.
     999901    1    3    3    0    0  0.40550770587E-01 -0.50430898555E-01  0.11293659930E+00  0.88957423298E+00  0.88000000000E+00 0. -1.
        -11    1    4    4    0    0 -0.24411657947E-01  0.43219592496E-01 -0.77136240975E-01  0.91728528889E-01  0.51100000000E-03 0. -1.
         11    1    4    4    0    0  0.26260225863E-02  0.21768153104E-01 -0.31667983722E-01  0.38521043576E-01  0.51100000000E-03 0.  1.
</event>
<event>
 8    1  0.1120016E+005  0.1043930E+01  0.7957747E-01            NaN
         13   -1    0    0    0    0  0.00000000000E+00  0.00000000000E+00  0.74505805969E-08  0.10566000000E+00  0.10566000000E+00 0.  1.
     999900   -1    0    0    0    0 -0.00000000000E+00 -0.00000000000E+00 -0.74505805969E-08  0.93827000000E+00  0.93827000000E+00 0. -1.
     999902    2    1    2    0    0  0.13658068116E-01 -0.49834661167E-02 -0.19920101784E-01  0.10192685277E+01  0.10189701386E+01 0.  0.
     999903    2    3    3    0    0 -0.79896719344E-01  0.40940874744E-01 -0.92079120519E-01  0.13018559160E+00  0.20250502167E-01 0.  0.
         14    1    1    2    0    0 -0.13658068116E-01  0.49834661167E-02  0.19920101784E-01  0.24661472265E-01  0.00000000000E+00 0.  1.
     999901    1    3    3    0    0  0.93554787460E-01 -0.45924340861E-01  0.72159018735E-01  0.88908293613E+00  0.88000000000E+00 0.  1.
        -11    1    4    4    0    0 -0.70819140879E-01  0.28052508003E-01 -0.74130348495E-01  0.10629140891E+00  0.51100000000E-03 0. -1.
         11    1    4    4    0    0 -0.90775784652E-02  0.12888366741E-01 -0.17948772025E-01  0.23894182686E-01  0.51100000000E-03 0.  1.
</event>
<event>
 8    1  0.1120016E+005  0.1043930E+01  0.7957747E-01            NaN
         13   -1    0    0    0    0  0.00000000000E+00  0.00000000000E+00  0.74505805969E-08  0.10566000000E+00  0.10566000000E+00 0.  1.
     999900   -1    0    0    0    0 -0.00000000000E+00 -0.00000000000E+00 -0.74505805969E-08  0.93827000000E+00  0.93827000000E+00 0. -1.
     999902    2    1    2    0    0  0.90499649467E-02  0.29104711199E-02 -0.22319012819E-01  0.10196707535E+01  0.10193821337E+01 0.  0.
     999903    2    3    3    0    0 -0.45680675432E-01  0.56989148122E-01 -0.10842923851E+00  0.13212643501E+00  0.19131334357E-01 0.  0.
         14    1    1    2    0    0 -0.90499649467E-02 -0.29104711199E-02  0.22319012819E-01  0.24259246503E-01  0.00000000000E+00 0.  1.
     999901    1    3    3    0    0  0.54730640379E-01 -0.54078677002E-01  0.86110225690E-01  0.88754431848E+00  0.88000000000E+00 0.  1.
        -11    1    4    4    0    0 -0.43876237383E-01  0.45773498022E-01 -0.84618614130E-01  0.10573981420E+00  0.51100000000E-03 0.  1.
         11    1    4    4    0    0 -0.18044380491E-02  0.11215650100E-01 -0.23810624379E-01  0.26386620818E-01  0.51100000000E-03 0. -1.
</event>
<event>
 8    1  0.1120016E+005  0.1043930E+01  0.7957747E-01            NaN
         13   -1    0    0    0    0  0.00000000000E+00  0.00000000000E+00  0.74505805969E-08  0.10566000000E+00  0.10566000000E+00 0.  1.
     999900   -1    0    0    0    0 -0.00000000000E+00 -0.00000000000E+00 -0.74505805969E-08  0.93827000000E+00  0.93827000000E+00 0.  1.
     999902    2    1    2    0    0 -0.15825878344E-01 -0.16208335646E-01 -0.80190160168E-02  0.10198993282E+01  0.10196161859E+01 0.  0.
     999903    2    3    3    0    0  0.58788026755E-01  0.10847761573E-01  0.11163371215E+00  0.12826260699E+00  0.20383930979E-01 0.  0.
         14    1    1    2    0    0  0.15825878344E-01  0.16208335646E-01  0.80190160168E-02  0.24030671810E-01  0.00000000000E+00 0. -1.
     999901    1    3    3    0    0 -0.74613905099E-01 -0.27056097219E-01 -0.11965272817E+00  0.89163672120E+00  0.88000000000E+00 0.  1.
        -11    1    4    4    0    0  0.19825003972E-01 -0.21629476446E-02  0.53333849496E-01  0.56942688276E-01  0.51100000000E-03 0. -1.
         11    1    4    4    0    0  0.38963022783E-01  0.13010709217E-01  0.58299862657E-01  0.71319918716E-01  0.51100000000E-03 0.  1.
</event>
<event>
 8    1  0.1120016E+005  0.1043930E+01  0.7957747E-01            NaN
         13   -1    0    0    0    0  0.00000000000E+00  0.00000000000E+00  0.74505805969E-08  0.10566000000E+00  0.10566000000E+00 0. -1.
     999900   -1    0    0    0    0 -0.00000000000E+00 -0.00000000000E+00 -0.74505805969E-08  0.93827000000E+00  0.93827000000E+00 0.  1.
     999902    2    1    2    0    0 -0.23305876730E-02  0.11773212881E-01 -0.20462392941E-01  0.10202076539E+01  0.10199318150E+01 0.  0.
     999903    2    3    3    0    0 -0.60371276531E-01 -0.92655240468E-01  0.61978031789E-01  0.12831615428E+00  0.19851307486E-01 0.  0.
         14    1    1    2    0    0  0.23305876730E-02 -0.11773212881E-01  0.20462392941E-01  0.23722346117E-01  0.00000000000E+00 0. -1.
     999901    1    3    3    0    0  0.58040688858E-01  0.10442845335E+00 -0.82440424730E-01  0.89189149960E+00  0.88000000000E+00 0.  1.
        -11    1    4    4    0    0 -0.49791697172E-01 -0.64006522282E-01  0.51305391648E-01  0.95961202239E-01  0.51100000000E-03 0. -1.
         11    1    4    4    0    0 -0.10579579359E-01 -0.28648718185E-01  0.10672640142E-01  0.32354952042E-01  0.51100000000E-03 0.  1.
</event>
<event>
 8    1  0.1120016E+005  0.1043930E+01  0.7957747E-01            NaN
         13   -1    0    0    0    0  0.00000000000E+00  0.00000000000E+00  0.74505805969E-08  0.10566000000E+00  0.10566000000E+00 0. -1.
     999900   -1    0    0    0    0 -0.00000000000E+00 -0.00000000000E+00 -0.74505805969E-08  0.93827000000E+00  0.93827000000E+00 0. -1.
     999902    2    1    2    0    0 -0.39071295068E-02  0.80652742256E-02  0.22997009890E-01  0.10192484933E+01  0.10189496132E+01 0.  0.
     999903    2    3    3    0    0 -0.23297461750E-01 -0.53817190338E-01  0.11649279259E+00  0.13192280011E+00  0.19849250959E-01 0.  0.
         14    1    1    2    0    0  0.39071295068E-02 -0.80652742256E-02 -0.22997009890E-01  0.24681506705E-01  0.00000000000E+00 0.  1.
     999901    1    3    3    0    0  0.19390332243E-01  0.61882464563E-01 -0.93495782699E-01  0.88732569319E+00  0.88000000000E+00 0. -1.
        -11    1    4    4    0    0 -0.52457024537E-02 -0.34554074518E-01  0.74933769140E-01  0.82685139769E-01  0.51100000000E-03 0. -1.
         11    1    4    4    0    0 -0.18051759296E-01 -0.19263115819E-01  0.41559023450E-01  0.49237660341E-01  0.51100000000E-03 0.  1.
</event>
<event>
 8    1  0.1120016E+005  0.1043930E+01  0.7957747E-01            NaN
         13   -1    0    0    0    0  0.00000000000E+00  0.00000000000E+00  0.74505805969E-08  0.10566000000E+00  0.10566000000E+00 0. -1.
     999900   -1    0    0    0    0 -0.00000000000E+00 -0.00000000000E+00 -0.74505805969E-08  0.93827000000E+00  0.93827000000E+00 0. -1.
     999902    2    1    2    0    0 -0.41177120402E-02  0.23140059081E-01 -0.10810290400E-02  0.10204015808E+01  0.10201302856E+01 0.  0.
     999903    2    3    3    0    0  0.91346476523E-01 -0.12201242045E-01  0.89160564947E-01  0.12994890706E+00  0.21072802955E-01 0.  0.
         14    1    1    2    0    0  0.41177120402E-02 -0.23140059081E-01  0.10810290400E-02  0.23528419210E-01  0.00000000000E+00 0. -1.
     999901    1    3    3    0    0 -0.95464188564E-01  0.35341301127E-01 -0.90241593987E-01  0.89045267373E+00  0.88000000000E+00 0. -1.
        -11    1    4    4    0    0  0.73645628693E-01 -0.16878136332E-01  0.65264816084E-01  0.99841411503E-01  0.51100000000E-03 0. -1.
         11    1    4    4    0    0  0.17700847831E-01  0.46768942864E-02  0.23895748864E-01  0.30107495559E-01  0.51100000000E-03 0.  1.
</event>
<event>
 8    1  0.1120016E+005  0.1043930E+01  0.7957747E-01            NaN
         13   -1    0    0    0    0  0.00000000000E+00  0.00000000000E+00  0.74505805969E-08  0.10566000000E+00  0.10566000000E+00 0.  1.
     999900   -1    0    0    0    0 -0.00000000000E+00 -0.00000000000E+00 -0.74505805969E-08  0.93827000000E+00  0.93827000000E+00 0.  1.
     999902    2    1    2    0    0  0.15315797533E-02  0.14663263838E-01 -0.13963274904E-01  0.10236240873E+01  0.10234226605E+01 0.  0.
     999903    2    3    3    0    0 -0.49520249491E-01  0.86745621203E-01  0.86385573925E-01  0.13352743698E+00  0.19749712342E-01 0.  0.
         14    1    1    2    0    0 -0.15315797533E-02 -0.14663263838E-01  0.13963274904E-01  0.20305912660E-01  0.00000000000E+00 0.  1.
     999901    1    3    3    0    0  0.51051829245E-01 -0.72082357365E-01 -0.10034884883E+00  0.89009665036E+00  0.88000000000E+00 0. -1.
        -11    1    4    4    0    0 -0.31307873137E-01  0.35098185042E-01  0.38705693449E-01  0.60913523457E-01  0.51100000000E-03 0. -1.
         11    1    4    4    0    0 -0.18212376355E-01  0.51647436162E-01  0.47679880476E-01  0.72613913527E-01  0.51100000000E-03 0.  1.
</event>
<event>
 8    1  0.1120016E+005  0.1043930E+01  0.7957747E-01            NaN
         13   -1    0    0    0    0  0.00000000000E+00  0.00000000000E+00  0.74505805969E-08  0.10566000000E+00  0.10566000000E+00 0. -1.
     999900   -1    0    0    0    0 -0.00000000000E+00 -0.00000000000E+00 -0.74505805969E-08  0.93827000000E+00  0.93827000000E+00 0.  1.
     999902    2    1    2    0    0 -0.17826476493E-01 -0.11753121508E-01  0.65307855079E-02  0.10216013124E+01  0.10213572692E+01 0.  0.
     999903    2    3    3    0    0 -0.53453230999E-01 -0.55708660888E-01 -0.10603983525E+00  0.13262802839E+00  0.19622549578E-01 0.  0.
         14    1    1    2    0    0  0.17826476493E-01  0.11753121508E-01 -0.65307855079E-02  0.22328687572E-01  0.00000000000E+00 0. -1.
     999901    1    3    3    0    0  0.35626754507E-01  0.43955539380E-01  0.11257062076E+00  0.88897328404E+00  0.88000000000E+00 0. -1.
        -11    1    4    4    0    0 -0.36950538374E-01 -0.38377478972E-01 -0.56786503649E-01  0.77866175558E-01  0.51100000000E-03 0.  1.
         11    1    4    4    0    0 -0.16502692625E-01 -0.17331181916E-01 -0.49253331602E-01  0.54761852830E-01  0.51100000000E-03 0. -1.
</event>
<event>
 8    1  0.1120016E+005  0.1043930E+01  0.7957747E-01            NaN
         13   -1    0    0    0    0  0.00000000000E+00  0.00000000000E+00  0.74505805969E-08  0.10566000000E+00  0.10566000000E+00 0. -1.
     999900   -1    0    0    0    0 -0.00000000000E+00 -0.00000000000E+00 -0.74505805969E-08  0.93827000000E+00  0.93827000000E+00 0. -1.
     999902    2    1    2    0    0  0.10715665702E-01 -0.14639879051E-01  0.14690589393E-01  0.10205855153E+01  0.10203184939E+01 0.  0.
     999903    2    3    3    0    0 -0.62461001123E-01  0.27049340502E-01 -0.10537754021E+00  0.12844809798E+00  0.27594282242E-01 0.  0.
         14    1    1    2    0    0 -0.10715665702E-01  0.14639879051E-01 -0.14690589393E-01  0.23344484719E-01  0.00000000000E+00 0.  1.
     999901    1    3    3    0    0  0.73176666825E-01 -0.41689219553E-01  0.12006812960E+00  0.89213741730E+00  0.88000000000E+00 0.  1.
        -11    1    4    4    0    0 -0.52718064775E-01  0.28892531138E-01 -0.72925780745E-01  0.94511392580E-01  0.51100000000E-03 0. -1.
         11    1    4    4    0    0 -0.97429363482E-02 -0.18431906355E-02 -0.32451759464E-01  0.33936705405E-01  0.51100000000E-03 0.  1.
</event>
<event>
 8    1  0.1120016E+005  0.1043930E+01  0.7957747E-01            NaN
         13   -1    0    0    0    0  0.00000000000E+00  0.00000000000E+00  0.74505805969E-08  0.10566000000E+00  0.10566000000E+00 0. -1.
     999900   -1    0    0    0    0 -0.00000000000E+00 -0.00000000000E+00 -0.74505805969E-08  0.93827000000E+00  0.93827000000E+00 0. -1.
     999902    2    1    2    0    0 -0.18180092615E-01 -0.51715599328E-02 -0.14138864244E-01  0.10203255877E+01  0.10200525166E+01 0.  0.
     999903    2    3    3    0    0  0.30937339559E-01  0.37511687569E-01 -0.12101797179E+00  0.13147378596E+00  0.16606059567E-01 0.  0.
         14    1    1    2    0    0  0.18180092615E-01  0.51715599328E-02  0.14138864244E-01  0.23604412336E-01  0.00000000000E+00 0. -1.
     999901    1    3    3    0    0 -0.49117432175E-01 -0.42683247502E-01  0.10687910755E+00  0.88885180170E+00  0.88000000000E+00 0.  1.
        -11    1    4    4    0    0  0.28039018973E-01  0.22156481732E-01 -0.83246336849E-01  0.90594205043E-01  0.51100000000E-03 0.  1.
         11    1    4    4    0    0  0.28983205865E-02  0.15355205837E-01 -0.37771634945E-01  0.40879580917E-01  0.51100000000E-03 0. -1.
</event>
<event>
 8    1  0.1120016E+005  0.1043930E+01  0.7957747E-01            NaN
         13   -1    0    0    0    0  0.00000000000E+00  0.00000000000E+00  0.74505805969E-08  0.10566000000E+00  0.10566000000E+00 0.  1.
     999900   -1    0    0    0    0 -0.00000000000E+00 -0.00000000000E+00 -0.74505805969E-08  0.93827000000E+00  0.93827000000E+00 0.  1.
     999902    2    1    2    0    0 -0.73203095969E-02 -0.83638839169E-02  0.20985991482E-01  0.10201822985E+01  0.10199058628E+01 0.  0.
     999903    2    3    3    0    0 -0.23260322172E-01  0.10926236398E+00  0.65694163933E-01  0.13108790597E+00  0.19723314782E-01 0.  0.
         14    1    1    2    0    0  0.73203095969E-02  0.83638839169E-02 -0.20985991482E-01  0.23747701473E-01  0.00000000000E+00 0. -1.
     999901    1    3    3    0    0  0.15940012575E-01 -0.11762624790E+00 -0.44708172451E-01  0.88909439256E+00  0.88000000000E+00 0.  1.
        -11    1    4    4    0    0 -0.13538218102E-01  0.93204565675E-01  0.59070936893E-01  0.11117558688E+00  0.51100000000E-03 0. -1.
         11    1    4    4    0    0 -0.97221040699E-02  0.16057798306E-01  0.66232270399E-02  0.19912319086E-01  0.51100000000E-03 0.  1.
</event>
<event>
 8    1  0.1120016E+005  0.1043930E+01  0.7957747E-01            NaN
         13   -1    0    0    0    0  0.00000000000E+00  0.00000000000E+00  0.74505805969E-08  0.10566000000E+00  0.10566000000E+00 0.  1.
     999900   -1    0    0    0    0 -0.00000000000E+00 -0.00000000000E+00 -0.74505805969E-08  0.93827000000E+00  0.93827000000E+00 0. -1.
     999902    2    1    2    0    0 -0.12003394106E-01 -0.19634311553E-01  0.57981591459E-02  0.10201980319E+01  0.10199219666E+01 0.  0.
     999903    2    3    3    0    0 -0.50351326050E-01 -0.10589270779E+00 -0.58992549008E-01  0.13278104386E+00  0.20054006389E-01 0.  0.
         14    1    1    2    0    0  0.12003394106E-01  0.19634311553E-01 -0.57981591459E-02  0.23731968096E-01  0.00000000000E+00 0. -1.
     999901    1    3    3    0    0  0.38347931943E-01  0.86258396237E-01  0.64790708154E-01  0.88741698804E+00  0.88000000000E+00 0.  1.
        -11    1    4    4    0    0 -0.19674994631E-02 -0.21989555385E-01 -0.11851945716E-01  0.25062748022E-01  0.51100000000E-03 0. -1.
         11    1    4    4    0    0 -0.48383826587E-01 -0.83903152405E-01 -0.47140603292E-01  0.10771829584E+00  0.51100000000E-03 0.  1.
</event>
<event>
 8    1  0.1120016E+005  0.1043930E+01  0.7957747E-01            NaN
         13   -1    0    0    0    0  0.00000000000E+00  0.00000000000E+00  0.74505805969E-08  0.10566000000E+00  0.10566000000E+00 0.  1.
     999900   -1    0    0    0    0 -0.00000000000E+00 -0.00000000000E+00 -0.74505805969E-08  0.93827000000E+00  0.93827000000E+00 0.  1.
     999902    2    1    2    0    0  0.23722991039E-01  0.12708967439E-01  0.51292425286E-02  0.10165327869E+01  0.10161635201E+01 0.  0.
     999903    2    3    3    0    0 -0.17718877711E-01  0.33237976094E-01  0.12036899042E+00  0.12781513309E+00  0.20719380060E-01 0.  0.
         14    1    1    2    0    0 -0.23722991039E-01 -0.12708967439E-01 -0.51292425286E-02  0.27397213109E-01  0.00000000000E+00 0. -1.
     999901    1    3    3    0    0  0.41441868751E-01 -0.20529008655E-01 -0.11523974789E+00  0.88871765380E+00  0.88000000000E+00 0.  1.
        -11    1    4    4    0    0  0.44926656857E-02  0.75364867423E-02  0.30421002505E-01  0.31665141588E-01  0.51100000000E-03 0. -1.
         11    1    4    4    0    0 -0.22211543397E-01  0.25701489352E-01  0.89947987915E-01  0.96149991503E-01  0.51100000000E-03 0.  1.
</event>
<event>
 8    1  0.1120016E+005  0.1043930E+01  0.7957747E-01            NaN
         13   -1    0    0    0    0  0.00000000000E+00  0.00000000000E+00  0.74505805969E-08  0.10566000000E+00  0.10566000000E+00 0.  1.
     999900   -1    0    0    0    0 -0.00000000000E+00 -0.00000000000E+00 -0.74505805969E-08  0.93827000000E+00  0.93827000000E+00 0. -1.
     999902    2    1    2    0    0  0.19504654366E-01 -0.36513958167E-02 -0.13828150960E-01  0.10197435990E+01  0.10194567307E+01 0.  0.
     999903    2    3    3    0    0  0.11355687411E+00 -0.19672890057E-01  0.60326136985E-01  0.13148611004E+00  0.19161630109E-01 0.  0.
         14    1    1    2    0    0 -0.19504654366E-01  0.36513958167E-02  0.13828150960E-01  0.24186400980E-01  0.00000000000E+00 0.  1.
     999901    1    3    3    0    0 -0.94052219742E-01  0.16021494241E-01 -0.74154287946E-01  0.88825748898E+00  0.88000000000E+00 0.  1.
        -11    1    4    4    0    0  0.83243083214E-01 -0.64750396194E-02  0.47169114291E-01  0.95898506271E-01  0.51100000000E-03 0.  1.
         11    1    4    4    0    0  0.30313790894E-01 -0.13197850438E-01  0.13157022695E-01  0.35587603765E-01  0.51100000000E-03 0. -1.
</event>
<event>
 8    1  0.1120016E+005  0.1043930E+01  0.7957747E-01            NaN
         13   -1    0    0    0    0  0.00000000000E+00  0.00000000000E+00  0.74505805969E-08  0.10566000000E+00  0.10566000000E+00 0. -1.
     999900   -1    0    0    0    0 -0.00000000000E+00 -0.00000000000E+00 -0.74505805969E-08  0.93827000000E+00  0.93827000000E+00 0.  1.
     999902    2    1    2    0    0  0.20434990355E-01  0.10700097807E-01  0.66453952352E-03  0.10208535502E+01  0.10205926946E+01 0.  0.
     999903    2    3    3    0    0 -0.84500424904E-01 -0.91804040427E-01 -0.22215656185E-01  0.12841753393E+00  0.20717721714E-01 0.  0.
         14    1    1    2    0    0 -0.20434990355E-01 -0.10700097807E-01 -0.66453952352E-03  0.23076449828E-01  0.00000000000E+00 0. -1.
     999901    1    3    3    0    0  0.10493541526E+00  0.10250413823E+00  0.22880195709E-01  0.89243601624E+00  0.88000000000E+00 0. -1.
        -11    1    4    4    0    0 -0.66042304437E-02 -0.17325425301E-01 -0.55647727339E-02  0.19365279192E-01  0.51100000000E-03 0. -1.
         11    1    4    4    0    0 -0.77896194461E-01 -0.74478615126E-01 -0.16650883451E-01  0.10905225474E+00  0.51100000000E-03 0.  1.
</event>
<event>
 8    1  0.1120016E+005  0.1043930E+01  0.7957747E-01            NaN
         13   -1    0    0    0    0  0.00000000000E+00  0.00000000000E+00  0.74505805969E-08  0.10566000000E+00  0.10566000000E+00 0.  1.
     999900   -1    0    0    0    0 -0.00000000000E+00 -0.00000000000E+00 -0.74505805969E-08  0.93827000000E+00  0.93827000000E+00 0.  1.
     999902    2    1    2    0    0  0.12754212881E-01 -0.78700133293E-02  0.18516928314E-01  0.10201080838E+01  0.10198298971E+01 0.  0.
     999903    2    3    3    0    0 -0.12609633107E+00  0.14221781471E-01  0.96964982429E-02  0.12890366230E+00  0.20483854624E-01 0.  0.
         14    1    1    2    0    0 -0.12754212881E-01  0.78700133293E-02 -0.18516928314E-01  0.23821916174E-01  0.00000000000E+00 0. -1.
     999901    1    3    3    0    0  0.13885054395E+00 -0.22091794800E-01  0.88204300715E-02  0.89120442152E+00  0.88000000000E+00 0.  1.
        -11    1    4    4    0    0 -0.77143124178E-01  0.13946805011E-01 -0.25561101496E-02  0.78437043532E-01  0.51100000000E-03 0. -1.
         11    1    4    4    0    0 -0.48953206890E-01  0.27497645977E-03  0.12252608393E-01  0.50466618772E-01  0.51100000000E-03 0.  1.
</event>
<event>
 8    1  0.1405904E+005  0.1043930E+01  0.7957747E-01            NaN
         13   -1    0    0    0    0  0.00000000000E+00  0.00000000000E+00  0.74505805969E-08  0.10566000000E+00  0.10566000000E+00 0.  1.
     999900   -1    0    0    0    0 -0.00000000000E+00 -0.00000000000E+00 -0.74505805969E-08  0.93827000000E+00  0.93827000000E+00 0. -1.
     999902    2    1    2    0    0 -0.22772251551E-01 -0.14294373628E-02 -0.93885923729E-02  0.10192568486E+01  0.10189581734E+01 0.  0.
     999903    2    3    3    0    0 -0.77190272441E-01  0.10377643329E+00  0.81585505740E-02  0.13114790349E+00  0.20132669376E-01 0.  0.
         14    1    1    2    0    0  0.22772251551E-01  0.14294373628E-02  0.93885923729E-02  0.24673151372E-01  0.00000000000E+00 0.  1.
     999901    1    3    3    0    0  0.54418020890E-01 -0.10520587065E+00 -0.17547142947E-01  0.88810894514E+00  0.88000000000E+00 0.  1.
        -11    1    4    4    0    0 -0.41681427627E-01  0.57142857053E-01  0.14460086457E-01  0.72194201585E-01  0.51100000000E-03 0. -1.
         11    1    4    4    0    0 -0.35508844814E-01  0.46633576232E-01 -0.63015358828E-02  0.58953701900E-01  0.51100000000E-03 0.  1.
</event>
<event>
 8    1  0.1120016E+005  0.1043930E+01  0.7957747E-01            NaN
         13   -1    0    0    0    0  0.00000000000E+00  0.00000000000E+00  0.74505805969E-08  0.10566000000E+00  0.10566000000E+00 0. -1.
     999900   -1    0    0    0    0 -0.00000000000E+00 -0.00000000000E+00 -0.74505805969E-08  0.93827000000E+00  0.93827000000E+00 0.  1.
     999902    2    1    2    0    0 -0.22867141222E-01  0.19723125666E-02 -0.67769476582E-02  0.10199983644E+01  0.10197175786E+01 0.  0.
     999903    2    3    3    0    0 -0.95445659184E-01 -0.83641353170E-01  0.30673563195E-01  0.13207951571E+00  0.19959488338E-01 0.  0.
         14    1    1    2    0    0  0.22867141222E-01 -0.19723125666E-02  0.67769476582E-02  0.23931635634E-01  0.00000000000E+00 0. -1.
     999901    1    3    3    0    0  0.72578517962E-01  0.85613665737E-01 -0.37450510853E-01  0.88791884865E+00  0.88000000000E+00 0.  1.
        -11    1    4    4    0    0 -0.17517752240E-01 -0.24946024601E-01  0.11909888162E-01  0.32730449798E-01  0.51100000000E-03 0.  1.
         11    1    4    4    0    0 -0.77927906944E-01 -0.58695328569E-01  0.18763675033E-01  0.99349065915E-01  0.51100000000E-03 0. -1.
</event>
<event>
 8    1  0.1120016E+005  0.1043930E+01  0.7957747E-01            NaN
         13   -1    0    0    0    0  0.00000000000E+00  0.00000000000E+00  0.74505805969E-08  0.10566000000E+00  0.10566000000E+00 0. -1.
     999900   -1    0    0    0    0 -0.00000000000E+00 -0.00000000000E+00 -0.74505805969E-08  0.93827000000E+00  0.93827000000E+00 0. -1.
     999902    2    1    2    0    0 -0.15002261602E-01  0.17371730340E-01 -0.45890807615E-02  0.10205226394E+01  0.10202541610E+01 0.  0.
     999903    2    3    3    0    0 -0.66895607077E-01  0.21514160471E-01 -0.11067040973E+00  0.13262437530E+00  0.20084919392E-01 0.  0.
         14    1    1    2    0    0  0.15002261602E-01 -0.17371730340E-01  0.45890807615E-02  0.23407360603E-01  0.00000000000E+00 0. -1.
     999901    1    3    3    0    0  0.51893345474E-01 -0.41424301318E-02  0.10608132897E+00  0.88789826410E+00  0.88000000000E+00 0.  1.
        -11    1    4    4    0    0 -0.49612996725E-01  0.14671434690E-01 -0.95545205991E-01  0.10865471894E+00  0.51100000000E-03 0. -1.
         11    1    4    4    0    0 -0.17282610351E-01  0.68427257811E-02 -0.15125203738E-01  0.23969656355E-01  0.51100000000E-03 0.  1.
</event>
<event>
 8    1  0.1120016E+005  0.1043930E+01  0.7957747E-01            NaN
         13   -1    0    0    0    0  0.00000000000E+00  0.00000000000E+00  0.74505805969E-08  0.10566000000E+00  0.10566000000E+00 0. -1.
     999900   -1    0    0    0    0 -0.00000000000E+00 -0.00000000000E+00 -0.74505805969E-08  0.93827000000E+00  0.93827000000E+00 0.  1.
     999902    2    1    2    0    0 -0.12035791667E-01 -0.17912707266E-03  0.20268418324E-01  0.10203566857E+01  0.10200843420E+01 0.  0.
     999903    2    3    3    0    0  0.90249734167E-01 -0.33938419707E-01  0.86973684031E-01  0.13128322913E+00  0.19339950555E-01 0.  0.
         14    1    1    2    0    0  0.12035791667E-01  0.17912707266E-03 -0.20268418324E-01  0.23573314339E-01  0.00000000000E+00 0.  1.
     999901    1    3    3    0    0 -0.10228552583E+00  0.33759292635E-01 -0.66705265708E-01  0.88907345653E+00  0.88000000000E+00 0.  1.
        -11    1    4    4    0    0  0.54777963492E-01 -0.25295735841E-01  0.42823502441E-01  0.73990627909E-01  0.51100000000E-03 0.  1.
         11    1    4    4    0    0  0.35471770675E-01 -0.86426838662E-02  0.44150181591E-01  0.57292601222E-01  0.51100000000E-03 0. -1.
</event>
<event>
 8    1  0.1120016E+005  0.1043930E+01  0.7957747E-01            NaN
         13   -1    0    0    0    0  0.00000000000E+00  0.00000000000E+00  0.74505805969E-08  0.10566000000E+00  0.10566000000E+00 0. -1.
     999900   -1    0    0    0    0 -0.00000000000E+00 -0.00000000000E+00 -0.74505805969E-08  0.93827000000E+00  0.93827000000E+00 0. -1.
     999902    2    1    2    0    0  0.52151788385E-02 -0.13150768403E-02 -0.23147379058E-01  0.10201659794E+01  0.10198891591E+01 0.  0.
     999903    2    3    3    0    0  0.12551883397E+00 -0.27174896590E-01 -0.19741938602E-01  0.13159786343E+00  0.20851878367E-01 0.  0.
         14    1    1    2    0    0 -0.52151788385E-02  0.13150768403E-02  0.23147379058E-01  0.23764020592E-01  0.00000000000E+00 0. -1.
     999901    1    3    3    0    0 -0.12030365514E+00  0.25859819749E-01 -0.34054404566E-02  0.88856811598E+00  0.88000000000E+00 0. -1.
        -11    1    4    4    0    0  0.70108424899E-01 -0.56056345330E-02 -0.15231433693E-01  0.71964380590E-01  0.51100000000E-03 0. -1.
         11    1    4    4    0    0  0.55410409075E-01 -0.21569262057E-01 -0.45105049089E-02  0.59633482835E-01  0.51100000000E-03 0.  1.
</event>
<event>
 8    1  0.1120016E+005  0.1043930E+01  0.7957747E-01            NaN
         13   -1    0    0    0    0  0.00000000000E+00  0.00000000000E+00  0.74505805969E-08  0.10566000000E+00  0.10566000000E+00 0. -1.
     999900   -1    0    0    0    0 -0.00000000000E+00 -0.00000000000E+00 -0.74505805969E-08  0.93827000000E+00  0.93827000000E+00 0.  1.
     999902    2    1    2    0    0  0.70724029764E-02  0.38372299289E-02  0.22791107539E-01  0.10197602296E+01  0.10194737604E+01 0.  0.
     999903    2    3    3    0    0 -0.94429214988E-01  0.21779824593E-01 -0.80803881427E-01  0.12770841672E+00  0.19721436198E-01 0.  0.
         14    1    1    2    0    0 -0.70724029764E-02 -0.38372299289E-02 -0.22791107539E-01  0.24169770380E-01  0.00000000000E+00 0.  1.
     999901    1    3    3    0    0  0.10150161796E+00 -0.17942594664E-01  0.10359498897E+00  0.89205181290E+00  0.88000000000E+00 0.  1.
        -11    1    4    4    0    0 -0.54761351725E-01  0.20216454320E-01 -0.56009955088E-01  0.80900475017E-01  0.51100000000E-03 0.  1.
         11    1    4    4    0    0 -0.39667863263E-01  0.15633702727E-02 -0.24793926340E-01  0.46807941707E-01  0.51100000000E-03 0. -1.
</event>
<event>
 8    1  0.1120016E+005  0.1043930E+01  0.7957747E-01            NaN
         13   -1    0    0    0    0  0.00000000000E+00  0.00000000000E+00  0.74505805969E-08  0.10566000000E+00  0.10566000000E+00 0. -1.
     999900   -1    0    0    0    0 -0.00000000000E+00 -0.00000000000E+00 -0.74505805969E-08  0.93827000000E+00  0.93827000000E+00 0.  1.
     999902    2    1    2    0    0 -0.21120530323E-01 -0.62587402821E-02 -0.88125875692E-02  0.10202042686E+01  0.10199283501E+01 0.  0.
     999903    2    3    3    0    0 -0.18106427515E-01  0.15185497676E-01 -0.12808395683E+00  0.13189430035E+00  0.20788564396E-01 0.  0.
         14    1    1    2    0    0  0.21120530323E-01  0.62587402821E-02  0.88125875692E-02  0.23725731405E-01  0.00000000000E+00 0.  1.
     999901    1    3    3    0    0 -0.30141028085E-02 -0.21444237958E-01  0.11927136926E+00  0.88830996825E+00  0.88000000000E+00 0. -1.
        -11    1    4    4    0    0 -0.15186169152E-01  0.17228196487E-01 -0.69461749322E-01  0.73161644511E-01  0.51100000000E-03 0. -1.
         11    1    4    4    0    0 -0.29202583627E-02 -0.20426988113E-02 -0.58622207511E-01  0.58732655838E-01  0.51100000000E-03 0.  1.
</event>
<event>
 8    1  0.1120016E+005  0.1043930E+01  0.7957747E-01            NaN
         13   -1    0    0    0    0  0.00000000000E+00  0.00000000000E+00  0.74505805969E-08  0.10566000000E+00  0.10566000000E+00 0. -1.
     999900   -1    0    0    0    0 -0.00000000000E+00 -0.00000000000E+00 -0.74505805969E-08  0.93827000000E+00  0.93827000000E+00 0.  1.
     999902    2    1    2    0    0  0.11108268038E-01  0.19759398548E-01 -0.76498880360E-02  0.10200061994E+01  0.10197255996E+01 0.  0.
     999903    2    3    3    0    0 -0.11646820367E+00 -0.35679468038E-01 -0.36173944216E-01  0.12862365195E+00  0.19940478804E-01 0.  0.
         14    1    1    2    0    0 -0.11108268038E-01 -0.19759398548E-01  0.76498880360E-02  0.23923800634E-01  0.00000000000E+00 0. -1.
     999901    1    3    3    0    0  0.12757647171E+00  0.55438866587E-01  0.28524056180E-01  0.89138254742E+00  0.88000000000E+00 0.  1.
        -11    1    4    4    0    0 -0.61996050567E-01 -0.15199257470E-01 -0.92520417445E-02  0.64501078371E-01  0.51100000000E-03 0.  1.
         11    1    4    4    0    0 -0.54472153101E-01 -0.20480210568E-01 -0.26921902471E-01  0.64122573577E-01  0.51100000000E-03 0. -1.
</event>
<event>
 8    1  0.1120016E+005  0.1043930E+01  0.7957747E-01            NaN
         13   -1    0    0    0    0  0.00000000000E+00  0.00000000000E+00  0.74505805969E-08  0.10566000000E+00  0.10566000000E+00 0.  1.
     999900   -1    0    0    0    0 -0.00000000000E+00 -0.00000000000E+00 -0.74505805969E-08  0.93827000000E+00  0.93827000000E+00 0. -1.
     999902    2    1    2    0    0  0.77782001424E-02 -0.15709289160E-01  0.14723826247E-01  0.10210373544E+01  0.10207806845E+01 0.  0.
     999903    2    3    3    0    0  0.27038100497E-01 -0.92550671890E-01  0.91427815595E-01  0.13415571413E+00  0.18493902325E-01 0.  0.
         14    1    1    2    0    0 -0.77782001424E-02  0.15709289160E-01 -0.14723826247E-01  0.22892645603E-01  0.00000000000E+00 0.  1.
     999901    1    3    3    0    0 -0.19259900354E-01  0.76841382731E-01 -0.76703989348E-01  0.88688164027E+00  0.88000000000E+00 0. -1.
        -11    1    4    4    0    0  0.18605536961E-01 -0.66671420348E-01  0.53582260550E-01  0.87536072927E-01  0.51100000000E-03 0.  1.
         11    1    4    4    0    0  0.84325635356E-02 -0.25879251543E-01  0.37845555045E-01  0.46619641202E-01  0.51100000000E-03 0. -1.
</event>
<event>
 8    1  0.1120016E+005  0.1043930E+01  0.7957747E-01            NaN
         13   -1    0    0    0    0  0.00000000000E+00  0.00000000000E+00  0.74505805969E-08  0.10566000000E+00  0.10566000000E+00 0. -1.
     999900   -1    0    0    0    0 -0.00000000000E+00 -0.00000000000E+00 -0.74505805969E-08  0.93827000000E+00  0.93827000000E+00 0. -1.
     999902    2    1    2    0    0 -0.19066602405E-01 -0.56128661119E-02 -0.13334096831E-01  0.10199959713E+01  0.10197151287E+01 0.  0.
     999903    2    3    3    0    0  0.18747201828E-01  0.11111488533E+00  0.59030889162E-01  0.12854101281E+00  0.18443719331E-01 0.  0.
         14    1    1    2    0    0  0.19066602405E-01  0.56128661119E-02  0.13334096831E-01  0.23934028736E-01  0.00000000000E+00 0. -1.
     999901    1    3    3    0    0 -0.37813804233E-01 -0.11672775144E+00 -0.72364985993E-01  0.89145495845E+00  0.88000000000E+00 0.  1.
        -11    1    4    4    0    0  0.19918641948E-01  0.76562238995E-01  0.46487137284E-01  0.91759706794E-01  0.51100000000E-03 0. -1.
         11    1    4    4    0    0 -0.11714401205E-02  0.34552646331E-01  0.12543751878E-01  0.36781306021E-01  0.51100000000E-03 0.  1.
</event>
<event>
 8    1  0.1120016E+005  0.1043930E+01  0.7957747E-01            NaN
         13   -1    0    0    0    0  0.00000000000E+00  0.00000000000E+00  0.74505805969E-08  0.10566000000E+00  0.10566000000E+00 0. -1.
     999900   -1    0    0    0    0 -0.00000000000E+00 -0.00000000000E+00 -0.74505805969E-08  0.93827000000E+00  0.93827000000E+00 0.  1.
     999902    2    1    2    0    0 -0.99196741214E-02  0.14330884552E-01  0.16150098710E-01  0.10201686895E+01  0.10198919331E+01 0.  0.
     999903    2    3    3    0    0  0.76447496145E-01 -0.16659871473E-01 -0.99229153752E-01  0.12790634753E+00  0.19794893279E-01 0.  0.
         14    1    1    2    0    0  0.99196741214E-02 -0.14330884552E-01 -0.16150098710E-01  0.23761310466E-01  0.00000000000E+00 0.  1.
     999901    1    3    3    0    0 -0.86367170266E-01  0.30990756025E-01  0.11537925246E+00  0.89226234200E+00  0.88000000000E+00 0. -1.
        -11    1    4    4    0    0  0.44881042027E-01 -0.16048652293E-01 -0.47445965944E-01  0.67255096307E-01  0.51100000000E-03 0.  1.
         11    1    4    4    0    0  0.31566454117E-01 -0.61121918064E-03 -0.51783187809E-01  0.60651251224E-01  0.51100000000E-03 0. -1.
</event>
<event>
 8    1  0.1120016E+005  0.1043930E+01  0.7957747E-01            NaN
         13   -1    0    0    0    0  0.00000000000E+00  0.00000000000E+00  0.74505805969E-08  0.10566000000E+00  0.10566000000E+00 0. -1.
     999900   -1    0    0    0    0 -0.00000000000E+00 -0.00000000000E+00 -0.74505805969E-08  0.93827000000E+00  0.93827000000E+00 0.  1.
     999902    2    1    2    0    0 -0.20641582361E-01  0.73736034971E-02  0.11732760984E-01  0.10190683301E+01  0.10187650164E+01 0.  0.
     999903    2    3    3    0    0  0.30409376891E-01  0.93185632671E-01 -0.80437454800E-01  0.12863851619E+00  0.21665441906E-01 0.  0.
         14    1    1    2    0    0  0.20641582361E-01 -0.73736034971E-02 -0.11732760984E-01  0.24861669920E-01  0.00000000000E+00 0.  1.
     999901    1    3    3    0    0 -0.51050959252E-01 -0.85812029174E-01  0.92170215784E-01  0.89042981389E+00  0.88000000000E+00 0. -1.
        -11    1    4    4    0    0  0.19413566628E-01  0.46638652414E-01 -0.54159225451E-01  0.74064386115E-01  0.51100000000E-03 0.  1.
         11    1    4    4    0    0  0.10995810263E-01  0.46546980257E-01 -0.26278229350E-01  0.54574130072E-01  0.51100000000E-03 0. -1.
</event>
<event>
 8    1  0.1120016E+005  0.1043930E+01  0.7957747E-01            NaN
         13   -1    0    0    0    0  0.00000000000E+00  0.00000000000E+00  0.74505805969E-08  0.10566000000E+00  0.10566000000E+00 0. -1.
     999900   -1    0    0    0    0 -0.00000000000E+00 -0.00000000000E+00 -0.74505805969E-08  0.93827000000E+00  0.93827000000E+00 0. -1.
     999902    2    1    2    0    0  0.11922130608E-01 -0.16244220763E-01 -0.11282528481E-01  0.10208365517E+01  0.10205753073E+01 0.  0.
     999903    2    3    3    0    0 -0.47766712406E-01 -0.75471006419E-01 -0.96169046112E-01  0.13276206663E+00  0.19993731056E-01 0.  0.
         14    1    1    2    0    0 -0.11922130608E-01  0.16244220763E-01  0.11282528481E-01  0.23093448321E-01  0.00000000000E+00 0. -1.
     999901    1    3    3    0    0  0.59688843014E-01  0.59226785656E-01  0.84886517631E-01  0.88807448505E+00  0.88000000000E+00 0.  1.
        -11    1    4    4    0    0 -0.34801345414E-01 -0.37505927283E-01 -0.49113147598E-01  0.70923836698E-01  0.51100000000E-03 0.  1.
         11    1    4    4    0    0 -0.12965366992E-01 -0.37965079136E-01 -0.47055898514E-01  0.61838229931E-01  0.51100000000E-03 0. -1.
</event>
<event>
 8    1  0.1120016E+005  0.1043930E+01  0.7957747E-01            NaN
         13   -1    0    0    0    0  0.00000000000E+00  0.00000000000E+00  0.74505805969E-08  0.10566000000E+00  0.10566000000E+00 0. -1.
     999900   -1    0    0    0    0 -0.00000000000E+00 -0.00000000000E+00 -0.74505805969E-08  0.93827000000E+00  0.93827000000E+00 0. -1.
     999902    2    1    2    0    0 -0.22782214957E-01 -0.17935400835E-02 -0.63169368756E-02  0.10202203016E+01  0.10199447603E+01 0.  0.
     999903    2    3    3    0    0  0.29319019288E-01  0.12455894528E+00  0.51112002022E-02  0.12959687310E+00  0.19866791574E-01 0.  0.
         14    1    1    2    0    0  0.22782214957E-01  0.17935400835E-02  0.63169368756E-02  0.23709698350E-01  0.00000000000E+00 0.  1.
     999901    1    3    3    0    0 -0.52101234245E-01 -0.12635248537E+00 -0.11428137078E-01  0.89062342855E+00  0.88000000000E+00 0.  1.
        -11    1    4    4    0    0  0.20404025888E-01  0.10720459601E+00  0.96596096076E-02  0.10955692063E+00  0.51100000000E-03 0.  1.
         11    1    4    4    0    0  0.89149933996E-02  0.17354349270E-01 -0.45484094054E-02  0.20039952470E-01  0.51100000000E-03 0. -1.
</event>
<event>
 8    1  0.1120016E+005  0.1043930E+01  0.7957747E-01            NaN
         13   -1    0    0    0    0  0.00000000000E+00  0.00000000000E+00  0.74505805969E-08  0.10566000000E+00  0.10566000000E+00 0. -1.
     999900   -1    0    0    0    0 -0.00000000000E+00 -0.00000000000E+00 -0.74505805969E-08  0.93827000000E+00  0.93827000000E+00 0. -1.
     999902    2    1    2    0    0  0.38746686183E-02 -0.18396488856E-01  0.13903285025E-01  0.10205474169E+01  0.10202795131E+01 0.  0.
     999903    2    3    3    0    0  0.54049407313E-01 -0.70403977551E-01  0.97809543612E-01  0.13360742820E+00  0.20153896949E-01 0.  0.
         14    1    1    2    0    0 -0.38746686183E-02  0.18396488856E-01 -0.13903285025E-01  0.23382583126E-01  0.00000000000E+00 0.  1.
     999901    1    3    3    0    0 -0.50174738694E-01  0.52007488695E-01 -0.83906258587E-01  0.88693998868E+00  0.88000000000E+00 0. -1.
        -11    1    4    4    0    0  0.30154974043E-01 -0.25627468340E-01  0.34825406839E-01  0.52717735873E-01  0.51100000000E-03 0. -1.
         11    1    4    4    0    0  0.23894433269E-01 -0.44776509212E-01  0.62984136773E-01  0.80889692325E-01  0.51100000000E-03 0.  1.
</event>
<event>
 8    1  0.1120016E+005  0.1043930E+01  0.7957747E-01            NaN
         13   -1    0    0    0    0  0.00000000000E+00  0.00000000000E+00  0.74505805969E-08  0.10566000000E+00  0.10566000000E+00 0. -1.
     999900   -1    0    0    0    0 -0.00000000000E+00 -0.00000000000E+00 -0.74505805969E-08  0.93827000000E+00  0.93827000000E+00 0.  1.
     999902    2    1    2    0    0 -0.91063867111E-03  0.36437892324E-02  0.23852660839E-01  0.10197834497E+01  0.10194975372E+01 0.  0.
     999903    2    3    3    0    0 -0.25806969460E-01 -0.10641738874E+00 -0.64027173577E-01  0.12823639233E+00  0.18826392730E-01 0.  0.
         14    1    1    2    0    0  0.91063867111E-03 -0.36437892324E-02 -0.23852660839E-01  0.24146550310E-01  0.00000000000E+00 0.  1.
     999901    1    3    3    0    0  0.24896330789E-01  0.11006117797E+00  0.87879834417E-01  0.89154705736E+00  0.88000000000E+00 0. -1.
        -11    1    4    4    0    0 -0.84548429890E-02 -0.68568444341E-01 -0.34770128933E-01  0.77345581104E-01  0.51100000000E-03 0.  1.
         11    1    4    4    0    0 -0.17352126471E-01 -0.37848944401E-01 -0.29257044644E-01  0.50890811230E-01  0.51100000000E-03 0. -1.
</event>
<event>
 8    1  0.1120016E+005  0.1043930E+01  0.7957747E-01            NaN
         13   -1    0    0    0    0  0.00000000000E+00  0.00000000000E+00  0.74505805969E-08  0.10566000000E+00  0.10566000000E+00 0. -1.
     999900   -1    0    0    0    0 -0.00000000000E+00 -0.00000000000E+00 -0.74505805969E-08  0.93827000000E+00  0.93827000000E+00 0.  1.
     999902    2    1    2    0    0  0.81289415713E-03 -0.88144458491E-03  0.23228420605E-01  0.10206706521E+01  0.10204055972E+01 0.  0.
     999903    2    3    3    0    0  0.72026010431E-01 -0.43072262138E-01  0.10149376661E+00  0.13332808160E+00  0.20794872893E-01 0.  0.
         14    1    1    2    0    0 -0.81289415713E-03  0.88144458491E-03 -0.23228420605E-01  0.23259347912E-01  0.00000000000E+00 0.  1.
     999901    1    3    3    0    0 -0.71213116274E-01  0.42190817553E-01 -0.78265346003E-01  0.88734257049E+00  0.88000000000E+00 0.  1.
        -11    1    4    4    0    0  0.38346775997E-01 -0.15515627637E-01  0.36860903183E-01  0.55409360534E-01  0.51100000000E-03 0.  1.
         11    1    4    4    0    0  0.33679234434E-01 -0.27556634500E-01  0.64632863425E-01  0.77918721066E-01  0.51100000000E-03 0. -1.
</event>
<event>
 8    1  0.1120016E+005  0.1043930E+01  0.7957747E-01            NaN
         13   -1    0    0    0    0  0.00000000000E+00  0.00000000000E+00  0.74505805969E-08  0.10566000000E+00  0.10566000000E+00 0.  1.
     999900   -1    0    0    0    0 -0.00000000000E+00 -0.00000000000E+00 -0.74505805969E-08  0.93827000000E+00  0.93827000000E+00 0.  1.
     999902    2    1    2    0    0  0.29870640674E-03  0.21507712597E-01 -0.10990006152E-01  0.10197752663E+01  0.10194891576E+01 0.  0.
     999903    2    3    3    0    0 -0.57604522069E-01 -0.32267522391E-01  0.10811762839E+00  0.12824221114E+00  0.19929103976E-01 0.  0.
         14    1    1    2    0    0 -0.29870640674E-03 -0.21507712597E-01  0.10990006152E-01  0.24154733736E-01  0.00000000000E+00 0. -1.
     999901    1    3    3    0    0  0.57903228475E-01  0.53775234988E-01 -0.11910763455E+00  0.89153305512E+00  0.88000000000E+00 0.  1.
        -11    1    4    4    0    0 -0.24822052119E-01 -0.42644284765E-02  0.31596817901E-01  0.40409647908E-01  0.51100000000E-03 0. -1.
         11    1    4    4    0    0 -0.32782469950E-01 -0.28003093915E-01  0.76520810493E-01  0.87832563234E-01  0.51100000000E-03 0.  1.
</event>
<event>
 8    1  0.1120016E+005  0.1043930E+01  0.7957747E-01            NaN
         13   -1    0    0    0    0  0.00000000000E+00  0.00000000000E+00  0.74505805969E-08  0.10566000000E+00  0.10566000000E+00 0. -1.
     999900   -1    0    0    0    0 -0.00000000000E+00 -0.00000000000E+00 -0.74505805969E-08  0.93827000000E+00  0.93827000000E+00 0.  1.
     999902    2    1    2    0    0 -0.11615206586E-01  0.52615748887E-02 -0.20033568555E-01  0.10201825567E+01  0.10199061270E+01 0.  0.
     999903    2    3    3    0    0 -0.34303344078E-01  0.79580062440E-01 -0.99015166272E-01  0.13323493595E+00  0.20924608775E-01 0.  0.
         14    1    1    2    0    0  0.11615206586E-01 -0.52615748887E-02  0.20033568555E-01  0.23747443303E-01  0.00000000000E+00 0. -1.
     999901    1    3    3    0    0  0.22688137492E-01 -0.74318487552E-01  0.78981597716E-01  0.88694762075E+00  0.88000000000E+00 0. -1.
        -11    1    4    4    0    0 -0.26292477696E-01  0.35217769928E-01 -0.52241799345E-01  0.68271900676E-01  0.51100000000E-03 0.  1.
         11    1    4    4    0    0 -0.80108663821E-02  0.44362292513E-01 -0.46773366926E-01  0.64963035272E-01  0.51100000000E-03 0. -1.
</event>
<event>
 8    1  0.1120016E+005  0.1043930E+01  0.7957747E-01            NaN
         13   -1    0    0    0    0  0.00000000000E+00  0.00000000000E+00  0.74505805969E-08  0.10566000000E+00  0.10566000000E+00 0.  1.
     999900   -1    0    0    0    0 -0.00000000000E+00 -0.00000000000E+00 -0.74505805969E-08  0.93827000000E+00  0.93827000000E+00 0.  1.
     999902    2    1    2    0    0  0.11938374262E-01  0.66301449655E-04 -0.22463596810E-01  0.10184910071E+01  0.10181732609E+01 0.  0.
     999903    2    3    3    0    0  0.18510794865E-04  0.34412111299E-01  0.11978179006E+00  0.12632764324E+00  0.20659198235E-01 0.  0.
         14    1    1    2    0    0 -0.11938374262E-01 -0.66301449655E-04  0.22463596810E-01  0.25438992856E-01  0.00000000000E+00 0.  1.
     999901    1    3    3    0    0  0.11919863468E-01 -0.34345809850E-01 -0.14224538687E+00  0.89216336390E+00  0.88000000000E+00 0.  1.
        -11    1    4    4    0    0 -0.86355611029E-03  0.20865009381E-01  0.37444498207E-01  0.42877102427E-01  0.51100000000E-03 0. -1.
         11    1    4    4    0    0  0.88206690516E-03  0.13547101918E-01  0.82337291850E-01  0.83450540817E-01  0.51100000000E-03 0.  1.
</event>
<event>
 8    1  0.1120016E+005  0.1043930E+01  0.7957747E-01            NaN
         13   -1    0    0    0    0  0.00000000000E+00  0.00000000000E+00  0.74505805969E-08  0.10566000000E+00  0.10566000000E+00 0. -1.
     999900   -1    0    0    0    0 -0.00000000000E+00 -0.00000000000E+00 -0.74505805969E-08  0.93827000000E+00  0.93827000000E+00 0.  1.
     999902    2    1    2    0    0 -0.20350622441E-02  0.16325705130E-01  0.16218716314E-01  0.10208276866E+01  0.10205662393E+01 0.  0.
     999903    2    3    3    0    0 -0.74979400342E-01 -0.10355639558E+00 -0.33167322560E-02  0.12949484848E+00  0.20299692848E-01 0.  0.
         14    1    1    2    0    0  0.20350622441E-02 -0.16325705130E-01 -0.16218716314E-01  0.23102313417E-01  0.00000000000E+00 0.  1.
     999901    1    3    3    0    0  0.72944338098E-01  0.11988210071E+00  0.19535448570E-01  0.89133283810E+00  0.88000000000E+00 0. -1.
        -11    1    4    4    0    0 -0.56549454496E-01 -0.82503234255E-01 -0.10580688415E-01  0.10058248632E+00  0.51100000000E-03 0.  1.
         11    1    4    4    0    0 -0.18429945846E-01 -0.21053161321E-01  0.72639561595E-02  0.28912362158E-01  0.51100000000E-03 0. -1.
</event>
<event>
 8    1  0.1120016E+005  0.1043930E+01  0.7957747E-01            NaN
         13   -1    0    0    0    0  0.00000000000E+00  0.00000000000E+00  0.74505805969E-08  0.10566000000E+00  0.10566000000E+00 0.  1.
     999900   -1    0    0    0    0 -0.00000000000E+00 -0.00000000000E+00 -0.74505805969E-08  0.93827000000E+00  0.93827000000E+00 0. -1.
     999902    2    1    2    0    0  0.14861807188E-01  0.24808896875E-01 -0.58317246802E-02  0.10144280731E+01  0.10139989901E+01 0.  0.
     999903    2    3    3    0    0  0.63665931847E-01  0.61297900553E-01 -0.91019145465E-01  0.12821693200E+00  0.18555681643E-01 0.  0.
         14    1    1    2    0    0 -0.14861807188E-01 -0.24808896875E-01  0.58317246802E-02  0.29501926882E-01  0.00000000000E+00 0. -1.
     999901    1    3    3    0    0 -0.48804124658E-01 -0.36489003678E-01  0.85187420785E-01  0.88621114111E+00  0.88000000000E+00 0.  1.
        -11    1    4    4    0    0  0.27923005269E-01  0.37430793297E-01 -0.54876834261E-01  0.72058910411E-01  0.51100000000E-03 0. -1.
         11    1    4    4    0    0  0.35742926577E-01  0.23867107256E-01 -0.36142311205E-01  0.56158021594E-01  0.51100000000E-03 0.  1.
</event>
<event>
 8    1  0.1120016E+005  0.1043930E+01  0.7957747E-01            NaN
         13   -1    0    0    0    0  0.00000000000E+00  0.00000000000E+00  0.74505805969E-08  0.10566000000E+00  0.10566000000E+00 0. -1.
     999900   -1    0    0    0    0 -0.00000000000E+00 -0.00000000000E+00 -0.74505805969E-08  0.93827000000E+00  0.93827000000E+00 0.  1.
     999902    2    1    2    0    0  0.35030037239E-02 -0.17996897562E-02  0.23067458924E-01  0.10205287697E+01  0.10202604335E+01 0.  0.
     999903    2    3    3    0    0  0.57661789129E-01 -0.47478096573E-01 -0.10289672679E+00  0.12874030433E+00  0.20181129652E-01 0.  0.
         14    1    1    2    0    0 -0.35030037239E-02  0.17996897562E-02 -0.23067458924E-01  0.23401230300E-01  0.00000000000E+00 0.  1.
     999901    1    3    3    0    0 -0.54158785405E-01  0.45678406817E-01  0.12596418572E+00  0.89178846537E+00  0.88000000000E+00 0. -1.
        -11    1    4    4    0    0  0.82117508462E-02 -0.14998085626E-01 -0.14802405562E-01  0.22621842450E-01  0.51100000000E-03 0. -1.
         11    1    4    4    0    0  0.49450038283E-01 -0.32480010948E-01 -0.88094321231E-01  0.10611846188E+00  0.51100000000E-03 0.  1.
</event>
<event>
 8    1  0.1120016E+005  0.1043930E+01  0.7957747E-01            NaN
         13   -1    0    0    0    0  0.00000000000E+00  0.00000000000E+00  0.74505805969E-08  0.10566000000E+00  0.10566000000E+00 0.  1.
     999900   -1    0    0    0    0 -0.00000000000E+00 -0.00000000000E+00 -0.74505805969E-08  0.93827000000E+00  0.93827000000E+00 0.  1.
     999902    2    1    2    0    0 -0.45680866840E-02 -0.11788172820E-01  0.19779517974E-01  0.10204553804E+01  0.10201853389E+01 0.  0.
     999903    2    3    3    0    0 -0.97427600469E-01  0.63887930591E-01  0.57470343760E-01  0.13154010869E+00  0.20643516478E-01 0.  0.
         14    1    1    2    0    0  0.45680866840E-02  0.11788172820E-01 -0.19779517974E-01  0.23474619607E-01  0.00000000000E+00 0. -1.
     999901    1    3    3    0    0  0.92859513785E-01 -0.75676103411E-01 -0.37690825786E-01  0.88891527171E+00  0.88000000000E+00 0.  1.
        -11    1    4    4    0    0 -0.86371087170E-01  0.56924110515E-01  0.57726790553E-01  0.11846080586E+00  0.51100000000E-03 0. -1.
         11    1    4    4    0    0 -0.11056513299E-01  0.69638200763E-02 -0.25644679296E-03  0.13079302823E-01  0.51100000000E-03 0.  1.
</event>
<event>
 8    1  0.1120016E+005  0.1043930E+01  0.7957747E-01            NaN
         13   -1    0    0    0    0  0.00000000000E+00  0.00000000000E+00  0.74505805969E-08  0.10566000000E+00  0.10566000000E+00 0.  1.
     999900   -1    0    0    0    0 -0.00000000000E+00 -0.00000000000E+00 -0.74505805969E-08  0.93827000000E+00  0.93827000000E+00 0. -1.
     999902    2    1    2    0    0 -0.59229767257E-02 -0.22272759821E-01 -0.48142122859E-02  0.10203856987E+01  0.10201140328E+01 0.  0.
     999903    2    3    3    0    0 -0.81749163817E-02  0.12267837803E+00 -0.30441303970E-01  0.12815666341E+00  0.19510092193E-01 0.  0.
         14    1    1    2    0    0  0.59229767257E-02  0.22272759821E-01  0.48142122859E-02  0.23544301290E-01  0.00000000000E+00 0. -1.
     999901    1    3    3    0    0  0.22519396559E-02 -0.14495113785E+00  0.25627091684E-01  0.89222903529E+00  0.88000000000E+00 0. -1.
        -11    1    4    4    0    0 -0.48417502938E-02  0.28495184195E-01  0.65464250871E-03  0.28915527767E-01  0.51100000000E-03 0.  1.
         11    1    4    4    0    0 -0.33331660879E-02  0.94183193830E-01 -0.31095946479E-01  0.99241135648E-01  0.51100000000E-03 0. -1.
</event>
<event>
 8    1  0.1120016E+005  0.1043930E+01  0.7957747E-01            NaN
         13   -1    0    0    0    0  0.00000000000E+00  0.00000000000E+00  0.74505805969E-08  0.10566000000E+00  0.10566000000E+00 0.  1.
     999900   -1    0    0    0    0 -0.00000000000E+00 -0.00000000000E+00 -0.74505805969E-08  0.93827000000E+00  0.93827000000E+00 0.  1.
     999902    2    1    2    0    0  0.67771633933E-02 -0.10002865146E-01  0.18815573591E-01  0.10215690281E+01  0.10213242708E+01 0.  0.
     999903    2    3    3    0    0  0.10511491714E+00  0.50763430156E-01 -0.56582484989E-01  0.13081220175E+00  0.16857724366E-01 0.  0.
         14    1    1    2    0    0 -0.67771633933E-02  0.10002865146E-01 -0.18815573591E-01  0.22360971901E-01  0.00000000000E+00 0. -1.
     999901    1    3    3    0    0 -0.98337753749E-01 -0.60766295302E-01  0.75398058581E-01  0.89075682635E+00  0.88000000000E+00 0.  1.
        -11    1    4    4    0    0  0.17972348697E-01  0.15745653242E-01 -0.13941148505E-01  0.27668531879E-01  0.51100000000E-03 0.  1.
         11    1    4    4    0    0  0.87142568446E-01  0.35017776914E-01 -0.42641336484E-01  0.10314366987E+00  0.51100000000E-03 0. -1.
</event>
<event>
 8    1  0.1120016E+005  0.1043930E+01  0.7957747E-01            NaN
         13   -1    0    0    0    0  0.00000000000E+00  0.00000000000E+00  0.74505805969E-08  0.10566000000E+00  0.10566000000E+00 0.  1.
     999900   -1    0    0    0    0 -0.00000000000E+00 -0.00000000000E+00 -0.74505805969E-08  0.93827000000E+00  0.93827000000E+00 0. -1.
     999902    2    1    2    0    0  0.37199086126E-02  0.42706454848E-02 -0.22783263505E-01  0.10204533472E+01  0.10201832583E+01 0.  0.
     999903    2    3    3    0    0  0.38521247916E-01 -0.66052421238E-01  0.99837973814E-01  0.12849346309E+00  0.26384467969E-01 0.  0.
         14    1    1    2    0    0 -0.37199086126E-02 -0.42706454848E-02  0.22783263505E-01  0.23476652847E-01  0.00000000000E+00 0.  1.
     999901    1    3    3    0    0 -0.34801339303E-01  0.70323066723E-01 -0.12262123732E+00  0.89195988406E+00  0.88000000000E+00 0. -1.
        -11    1    4    4    0    0  0.33178465026E-01 -0.31045823903E-01  0.54324404035E-01  0.70824118195E-01  0.51100000000E-03 0.  1.
         11    1    4    4    0    0  0.53427828894E-02 -0.35006597335E-01  0.45513569779E-01  0.57669344898E-01  0.51100000000E-03 0. -1.
</event>
<event>
 8    1  0.1120016E+005  0.1043930E+01  0.7957747E-01            NaN
         13   -1    0    0    0    0  0.00000000000E+00  0.00000000000E+00  0.74505805969E-08  0.10566000000E+00  0.10566000000E+00 0.  1.
     999900   -1    0    0    0    0 -0.00000000000E+00 -0.00000000000E+00 -0.74505805969E-08  0.93827000000E+00  0.93827000000E+00 0.  1.
     999902    2    1    2    0    0  0.16743689263E-02  0.16049456033E-01 -0.12778553177E-01  0.10233465122E+01  0.10231394841E+01 0.  0.
     999903    2    3    3    0    0  0.20787215593E-01  0.12892243381E+00 -0.29391146415E-01  0.13577590186E+00  0.22762991174E-01 0.  0.
         14    1    1    2    0    0 -0.16743689263E-02 -0.16049456033E-01  0.12778553177E-01  0.20583487837E-01  0.00000000000E+00 0.  1.
     999901    1    3    3    0    0 -0.19112846667E-01 -0.11287297778E+00  0.16612593237E-01  0.88757061030E+00  0.88000000000E+00 0. -1.
        -11    1    4    4    0    0  0.17706368709E-01  0.67028346128E-01 -0.62006861352E-02  0.69606208825E-01  0.51100000000E-03 0.  1.
         11    1    4    4    0    0  0.30808468834E-02  0.61894087680E-01 -0.23190460280E-01  0.66169693034E-01  0.51100000000E-03 0. -1.
</event>
<event>
 8    1  0.1120016E+005  0.1043930E+01  0.7957747E-01            NaN
         13   -1    0    0    0    0  0.00000000000E+00  0.00000000000E+00  0.74505805969E-08  0.10566000000E+00  0.10566000000E+00 0. -1.
     999900   -1    0    0    0    0 -0.00000000000E+00 -0.00000000000E+00 -0.74505805969E-08  0.93827000000E+00  0.93827000000E+00 0.  1.
     999902    2    1    2    0    0  0.19209367123E-01 -0.60182353101E-02 -0.16349714036E-01  0.10179967763E+01  0.10176664014E+01 0.  0.
     999903    2    3    3    0    0 -0.18957582341E-01 -0.40742351165E-01  0.11659801548E+00  0.12651622183E+00  0.19797173158E-01 0.  0.
         14    1    1    2    0    0 -0.19209367123E-01  0.60182353101E-02  0.16349714036E-01  0.25933223683E-01  0.00000000000E+00 0. -1.
     999901    1    3    3    0    0  0.38166949464E-01  0.34724115855E-01 -0.13294772951E+00  0.89148055449E+00  0.88000000000E+00 0.  1.
        -11    1    4    4    0    0 -0.17229127101E-01 -0.20725719588E-01  0.84013326470E-01  0.88232071372E-01  0.51100000000E-03 0.  1.
         11    1    4    4    0    0 -0.17284552395E-02 -0.20016631577E-01  0.32584689008E-01  0.38284150454E-01  0.51100000000E-03 0. -1.
</event>
<event>
 8    1  0.1120016E+005  0.1043930E+01  0.7957747E-01            NaN
         13   -1    0    0    0    0  0.00000000000E+00  0.00000000000E+00  0.74505805969E-08  0.10566000000E+00  0.10566000000E+00 0.  1.
     999900   -1    0    0    0    0 -0.00000000000E+00 -0.00000000000E+00 -0.74505805969E-08  0.93827000000E+00  0.93827000000E+00 0.  1.
     999902    2    1    2    0    0  0.37598558538E-02  0.22942568624E-01  0.76470269207E-02  0.10194560344E+01  0.10191622202E+01 0.  0.
     999903    2    3    3    0    0  0.70330308023E-01 -0.10406499101E+00 -0.11509242073E-01  0.12764354966E+00  0.19609654165E-01 0.  0.
         14    1    1    2    0    0 -0.37598558538E-02 -0.22942568624E-01 -0.76470269207E-02  0.24473965593E-01  0.00000000000E+00 0. -1.
     999901    1    3    3    0    0 -0.66570452169E-01  0.12700755963E+00  0.19156268994E-01  0.89181248475E+00  0.88000000000E+00 0. -1.
        -11    1    4    4    0    0  0.55682865134E-01 -0.94269656328E-01 -0.94380526495E-02  0.10989398315E+00  0.51100000000E-03 0.  1.
         11    1    4    4    0    0  0.14647442888E-01 -0.97953346823E-02 -0.20711894235E-02  0.17749566511E-01  0.51100000000E-03 0. -1.
</event>
<event>
 8    1  0.1120016E+005  0.1043930E+01  0.7957747E-01            NaN
         13   -1    0    0    0    0  0.00000000000E+00  0.00000000000E+00  0.74505805969E-08  0.10566000000E+00  0.10566000000E+00 0.  1.
     999900   -1    0    0    0    0 -0.00000000000E+00 -0.00000000000E+00 -0.74505805969E-08  0.93827000000E+00  0.93827000000E+00 0. -1.
     999902    2    1    2    0    0  0.21520333116E-01  0.63597858006E-02 -0.67480962870E-02  0.10204969375E+01  0.10202278623E+01 0.  0.
     999903    2    3    3    0    0  0.12633354560E+00 -0.65730820504E-02 -0.37451143373E-01  0.13365098379E+00  0.21368836548E-01 0.  0.
         14    1    1    2    0    0 -0.21520333116E-01 -0.63597858006E-02  0.67480962870E-02  0.23433062462E-01  0.00000000000E+00 0.  1.
     999901    1    3    3    0    0 -0.10481321249E+00  0.12932867851E-01  0.30703047086E-01  0.88684595375E+00  0.88000000000E+00 0.  1.
        -11    1    4    4    0    0  0.84963790999E-01  0.80901631341E-03 -0.15984693190E-01  0.86459654323E-01  0.51100000000E-03 0.  1.
         11    1    4    4    0    0  0.41369754603E-01 -0.73820983639E-02 -0.21466450183E-01  0.47191329464E-01  0.51100000000E-03 0. -1.
</event>
<event>
 8    1  0.1120016E+005  0.1043930E+01  0.7957747E-01            NaN
         13   -1    0    0    0    0  0.00000000000E+00  0.00000000000E+00  0.74505805969E-08  0.10566000000E+00  0.10566000000E+00 0. -1.
     999900   -1    0    0    0    0 -0.00000000000E+00 -0.00000000000E+00 -0.74505805969E-08  0.93827000000E+00  0.93827000000E+00 0. -1.
     999902    2    1    2    0    0  0.13146019234E-01  0.19263129368E-01 -0.47998527267E-02  0.10201198223E+01  0.10198419129E+01 0.  0.
     999903    2    3    3    0    0 -0.10050383213E+00 -0.65367855479E-01  0.39025204047E-01  0.12770773819E+00  0.20305739059E-01 0.  0.
         14    1    1    2    0    0 -0.13146019234E-01 -0.19263129368E-01  0.47998527267E-02  0.23810177676E-01  0.00000000000E+00 0.  1.
     999901    1    3    3    0    0  0.11364985137E+00  0.84630984848E-01 -0.43825056774E-01  0.89241208414E+00  0.88000000000E+00 0.  1.
        -11    1    4    4    0    0 -0.87784484135E-01 -0.48051089049E-01  0.31030613522E-01  0.10477682430E+00  0.51100000000E-03 0. -1.
         11    1    4    4    0    0 -0.12719347997E-01 -0.17316766431E-01  0.79945905247E-02  0.22930913888E-01  0.51100000000E-03 0.  1.
</event>
<event>
 8    1  0.1120016E+005  0.1043930E+01  0.7957747E-01            NaN
         13   -1    0    0    0    0  0.00000000000E+00  0.00000000000E+00  0.74505805969E-08  0.10566000000E+00  0.10566000000E+00 0. -1.
     999900   -1    0    0    0    0 -0.00000000000E+00 -0.00000000000E+00 -0.74505805969E-08  0.93827000000E+00  0.93827000000E+00 0.  1.
     999902    2    1    2    0    0 -0.18083462396E-01  0.10243701223E-01 -0.14674159415E-01  0.10184883809E+01  0.10181705683E+01 0.  0.
     999903    2    3    3    0    0  0.65044142793E-01  0.57915128691E-01  0.90376581158E-01  0.12707466000E+00  0.19878132451E-01 0.  0.
         14    1    1    2    0    0  0.18083462396E-01 -0.10243701223E-01  0.14674159415E-01  0.25441619082E-01  0.00000000000E+00 0. -1.
     999901    1    3    3    0    0 -0.83127605190E-01 -0.47671427469E-01 -0.10505074057E+00  0.89141372092E+00  0.88000000000E+00 0.  1.
        -11    1    4    4    0    0  0.42858897337E-01  0.49791049829E-01  0.66744541354E-01  0.93654303935E-01  0.51100000000E-03 0. -1.
         11    1    4    4    0    0  0.22185245457E-01  0.81240788620E-02  0.23632039805E-01  0.33420356067E-01  0.51100000000E-03 0.  1.
</event>
<event>
 8    1  0.1120016E+005  0.1043930E+01  0.7957747E-01            NaN
         13   -1    0    0    0    0  0.00000000000E+00  0.00000000000E+00  0.74505805969E-08  0.10566000000E+00  0.10566000000E+00 0.  1.
     999900   -1    0    0    0    0 -0.00000000000E+00 -0.00000000000E+00 -0.74505805969E-08  0.93827000000E+00  0.93827000000E+00 0.  1.
     999902    2    1    2    0    0  0.18174064434E-01  0.10842100008E-01 -0.61251624248E-02  0.10218989908E+01  0.10216614812E+01 0.  0.
     999903    2    3    3    0    0 -0.67092521873E-01  0.11165014849E+00  0.59949362920E-02  0.13196666184E+00  0.20300207553E-01 0.  0.
         14    1    1    2    0    0 -0.18174064434E-01 -0.10842100008E-01  0.61251624248E-02  0.22031009177E-01  0.00000000000E+00 0. -1.
     999901    1    3    3    0    0  0.85266586307E-01 -0.10080804848E+00 -0.12120098717E-01  0.88993232898E+00  0.88000000000E+00 0.  1.
        -11    1    4    4    0    0 -0.31879807185E-01  0.42586550635E-01 -0.59366231344E-02  0.53529814276E-01  0.51100000000E-03 0.  1.
         11    1    4    4    0    0 -0.35212714688E-01  0.69063597854E-01  0.11931559426E-01  0.78436847562E-01  0.51100000000E-03 0. -1.
</event>
<event>
 8    1  0.1120016E+005  0.1043930E+01  0.7957747E-01            NaN
         13   -1    0    0    0    0  0.00000000000E+00  0.00000000000E+00  0.74505805969E-08  0.10566000000E+00  0.10566000000E+00 0. -1.
     999900   -1    0    0    0    0 -0.00000000000E+00 -0.00000000000E+00 -0.74505805969E-08  0.93827000000E+00  0.93827000000E+00 0. -1.
     999902    2    1    2    0    0 -0.15752167028E-01 -0.16141174122E-01  0.56619235258E-02  0.10206764917E+01  0.10204115715E+01 0.  0.
     999903    2    3    3    0    0 -0.69482744041E-01 -0.18848493028E-02  0.11120559997E+00  0.13262824681E+00  0.19803080787E-01 0.  0.
         14    1    1    2    0    0  0.15752167028E-01  0.16141174122E-01 -0.56619235258E-02  0.23253508254E-01  0.00000000000E+00 0. -1.
     999901    1    3    3    0    0  0.53730577012E-01 -0.14256324819E-01 -0.10554367645E+00  0.88804824494E+00  0.88000000000E+00 0. -1.
        -11    1    4    4    0    0 -0.41091558606E-01  0.77084460607E-02  0.57042215380E-01  0.70724902161E-01  0.51100000000E-03 0.  1.
         11    1    4    4    0    0 -0.28391185435E-01 -0.95932953636E-02  0.54163384595E-01  0.61903344644E-01  0.51100000000E-03 0. -1.
</event>
<event>
 8    1  0.1120016E+005  0.1043930E+01  0.7957747E-01            NaN
         13   -1    0    0    0    0  0.00000000000E+00  0.00000000000E+00  0.74505805969E-08  0.10566000000E+00  0.10566000000E+00 0.  1.
     999900   -1    0    0    0    0 -0.00000000000E+00 -0.00000000000E+00 -0.74505805969E-08  0.93827000000E+00  0.93827000000E+00 0. -1.
     999902    2    1    2    0    0 -0.18382337203E-01  0.79442383930E-02  0.12287413547E-01  0.10204352819E+01  0.10201647724E+01 0.  0.
     999903    2    3    3    0    0 -0.80645391151E-01 -0.90303117357E-01 -0.45823119358E-01  0.13088142476E+00  0.19283593070E-01 0.  0.
         14    1    1    2    0    0  0.18382337203E-01 -0.79442383930E-02 -0.12287413547E-01  0.23494718052E-01  0.00000000000E+00 0. -1.
     999901    1    3    3    0    0  0.62263053948E-01  0.98247355750E-01  0.58110532905E-01  0.88955385719E+00  0.88000000000E+00 0.  1.
        -11    1    4    4    0    0 -0.72083507072E-02 -0.11223429061E-01  0.68461348452E-03  0.13366207256E-01  0.51100000000E-03 0.  1.
         11    1    4    4    0    0 -0.73437040444E-01 -0.79079688296E-01 -0.46507732842E-01  0.11751521751E+00  0.51100000000E-03 0. -1.
</event>
<event>
 8    1  0.1120016E+005  0.1043930E+01  0.7957747E-01            NaN
         13   -1    0    0    0    0  0.00000000000E+00  0.00000000000E+00  0.74505805969E-08  0.10566000000E+00  0.10566000000E+00 0. -1.
     999900   -1    0    0    0    0 -0.00000000000E+00 -0.00000000000E+00 -0.74505805969E-08  0.93827000000E+00  0.93827000000E+00 0. -1.
     999902    2    1    2    0    0 -0.19189555198E-01  0.13265911557E-01  0.69160164845E-02  0.10195978254E+01  0.10193074466E+01 0.  0.
     999903    2    3    3    0    0 -0.92969340655E-01  0.49167154687E-02  0.93056630606E-01  0.13227974756E+00  0.13073741650E-01 0.  0.
         14    1    1    2    0    0  0.19189555198E-01 -0.13265911557E-01 -0.69160164845E-02  0.24332174629E-01  0.00000000000E+00 0. -1.
     999901    1    3    3    0    0  0.73779785457E-01  0.83491960881E-02 -0.86140614122E-01  0.88731807782E+00  0.88000000000E+00 0. -1.
        -11    1    4    4    0    0 -0.17202154646E-01  0.54669267133E-02  0.14750526269E-01  0.23316100840E-01  0.51100000000E-03 0. -1.
         11    1    4    4    0    0 -0.75767186010E-01 -0.55021124464E-03  0.78306104337E-01  0.10896364672E+00  0.51100000000E-03 0.  1.
</event>
<event>
 8    1  0.1120016E+005  0.1043930E+01  0.7957747E-01            NaN
         13   -1    0    0    0    0  0.00000000000E+00  0.00000000000E+00  0.74505805969E-08  0.10566000000E+00  0.10566000000E+00 0. -1.
     999900   -1    0    0    0    0 -0.00000000000E+00 -0.00000000000E+00 -0.74505805969E-08  0.93827000000E+00  0.93827000000E+00 0.  1.
     999902    2    1    2    0    0  0.81219358067E-02  0.57434811692E-02 -0.21093111356E-01  0.10206089202E+01  0.10203424402E+01 0.  0.
     999903    2    3    3    0    0 -0.90641439455E-01 -0.73810534875E-01 -0.54923142203E-01  0.13087439981E+00  0.21158718537E-01 0.  0.
         14    1    1    2    0    0 -0.81219358067E-02 -0.57434811692E-02  0.21093111356E-01  0.23321079817E-01  0.00000000000E+00 0. -1.
     999901    1    3    3    0    0  0.98763375262E-01  0.79554016045E-01  0.33830030848E-01  0.88973452038E+00  0.88000000000E+00 0. -1.
        -11    1    4    4    0    0 -0.28014925744E-01 -0.11081393797E-01 -0.12907280891E-01  0.32779450482E-01  0.51100000000E-03 0. -1.
         11    1    4    4    0    0 -0.62626513711E-01 -0.62729141079E-01 -0.42015861312E-01  0.98094949324E-01  0.51100000000E-03 0.  1.
</event>
<event>
 8    1  0.1120016E+005  0.1043930E+01  0.7957747E-01            NaN
         13   -1    0    0    0    0  0.00000000000E+00  0.00000000000E+00  0.74505805969E-08  0.10566000000E+00  0.10566000000E+00 0. -1.
     999900   -1    0    0    0    0 -0.00000000000E+00 -0.00000000000E+00 -0.74505805969E-08  0.93827000000E+00  0.93827000000E+00 0. -1.
     999902    2    1    2    0    0 -0.15675119410E-02  0.23229821670E-01 -0.14790294309E-02  0.10206004214E+01  0.10203337449E+01 0.  0.
     999903    2    3    3    0    0  0.10908950629E+00  0.42064575913E-01 -0.56496548819E-01  0.13176598741E+00  0.22371108134E-01 0.  0.
         14    1    1    2    0    0  0.15675119410E-02 -0.23229821670E-01  0.14790294309E-02  0.23329578577E-01  0.00000000000E+00 0.  1.
     999901    1    3    3    0    0 -0.11065701823E+00 -0.18834754243E-01  0.55017519388E-01  0.88883443402E+00  0.88000000000E+00 0.  1.
        -11    1    4    4    0    0  0.18097492883E-01  0.17375638046E-02 -0.20101988225E-02  0.18298644675E-01  0.51100000000E-03 0.  1.
         11    1    4    4    0    0  0.90992013410E-01  0.40327012109E-01 -0.54486349996E-01  0.11346734273E+00  0.51100000000E-03 0. -1.
</event>
<event>
 8    1  0.1120016E+005  0.1043930E+01  0.7957747E-01            NaN
         13   -1    0    0    0    0  0.00000000000E+00  0.00000000000E+00  0.74505805969E-08  0.10566000000E+00  0.10566000000E+00 0.  1.
     999900   -1    0    0    0    0 -0.00000000000E+00 -0.00000000000E+00 -0.74505805969E-08  0.93827000000E+00  0.93827000000E+00 0.  1.
     999902    2    1    2    0    0 -0.11151906364E-01 -0.24801316993E-02  0.20583894232E-01  0.10203882760E+01  0.10201166703E+01 0.  0.
     999903    2    3    3    0    0 -0.44541112074E-01 -0.43116914144E-01 -0.11111993228E+00  0.12903420206E+00  0.21429115741E-01 0.  0.
         14    1    1    2    0    0  0.11151906364E-01  0.24801316993E-02 -0.20583894232E-01  0.23541724035E-01  0.00000000000E+00 0. -1.
     999901    1    3    3    0    0  0.33389205710E-01  0.40636782444E-01  0.13170382651E+00  0.89135407390E+00  0.88000000000E+00 0. -1.
        -11    1    4    4    0    0 -0.19416164690E-01 -0.31248112585E-01 -0.74219805210E-01  0.82838835083E-01  0.51100000000E-03 0.  1.
         11    1    4    4    0    0 -0.25124947383E-01 -0.11868801559E-01 -0.36900127071E-01  0.46195366979E-01  0.51100000000E-03 0. -1.
</event>
<event>
 8    1  0.1120016E+005  0.1043930E+01  0.7957747E-01            NaN
         13   -1    0    0    0    0  0.00000000000E+00  0.00000000000E+00  0.74505805969E-08  0.10566000000E+00  0.10566000000E+00 0. -1.
     999900   -1    0    0    0    0 -0.00000000000E+00 -0.00000000000E+00 -0.74505805969E-08  0.93827000000E+00  0.93827000000E+00 0. -1.
     999902    2    1    2    0    0 -0.12497989779E-01  0.21127783448E-02  0.19913534430E-01  0.10203246524E+01  0.10200515594E+01 0.  0.
     999903    2    3    3    0    0 -0.60630545576E-01  0.11304873762E-01  0.11659536580E+00  0.13367443161E+00  0.21691268143E-01 0.  0.
         14    1    1    2    0    0  0.12497989779E-01 -0.21127783448E-02 -0.19913534430E-01  0.23605347579E-01  0.00000000000E+00 0.  1.
     999901    1    3    3    0    0  0.48132555798E-01 -0.91920954169E-02 -0.96681831367E-01  0.88665022081E+00  0.88000000000E+00 0. -1.
        -11    1    4    4    0    0 -0.40577062557E-01 -0.25166678628E-02  0.65968204288E-01  0.77491268675E-01  0.51100000000E-03 0. -1.
         11    1    4    4    0    0 -0.20053483019E-01  0.13821541625E-01  0.50627161508E-01  0.56183162936E-01  0.51100000000E-03 0.  1.
</event>
<event>
 8    1  0.1120016E+005  0.1043930E+01  0.7957747E-01            NaN
         13   -1    0    0    0    0  0.00000000000E+00  0.00000000000E+00  0.74505805969E-08  0.10566000000E+00  0.10566000000E+00 0. -1.
     999900   -1    0    0    0    0 -0.00000000000E+00 -0.00000000000E+00 -0.74505805969E-08  0.93827000000E+00  0.93827000000E+00 0.  1.
     999902    2    1    2    0    0 -0.25178757490E-01 -0.11638993221E-02 -0.71927877604E-02  0.10177181575E+01  0.10173805519E+01 0.  0.
     999903    2    3    3    0    0  0.41593064359E-01  0.11847696662E+00 -0.36691414456E-02  0.12710891151E+00  0.19402014472E-01 0.  0.
         14    1    1    2    0    0  0.25178757490E-01  0.11638993221E-02  0.71927877604E-02  0.26211842479E-01  0.00000000000E+00 0. -1.
     999901    1    3    3    0    0 -0.66771821849E-01 -0.11964086594E+00 -0.35236463148E-02  0.89060924601E+00  0.88000000000E+00 0.  1.
        -11    1    4    4    0    0  0.23456257144E-01  0.78422614616E-01 -0.10785859050E-01  0.82564510287E-01  0.51100000000E-03 0. -1.
         11    1    4    4    0    0  0.18136807214E-01  0.40054351999E-01  0.71167176044E-02  0.44544401225E-01  0.51100000000E-03 0.  1.
</event>
<event>
 8    1  0.1120016E+005  0.1043930E+01  0.7957747E-01            NaN
         13   -1    0    0    0    0  0.00000000000E+00  0.00000000000E+00  0.74505805969E-08  0.10566000000E+00  0.10566000000E+00 0.  1.
     999900   -1    0    0    0    0 -0.00000000000E+00 -0.00000000000E+00 -0.74505805969E-08  0.93827000000E+00  0.93827000000E+00 0.  1.
     999902    2    1    2    0    0 -0.23101385510E-01 -0.37139532554E-02 -0.34157180779E-02  0.10202839730E+01  0.10200099269E+01 0.  0.
     999903    2    3    3    0    0 -0.31966022379E-01  0.54209050321E-02  0.12517468612E+00  0.13084734265E+00  0.20027786557E-01 0.  0.
         14    1    1    2    0    0  0.23101385510E-01  0.37139532554E-02  0.34157180779E-02  0.23646026965E-01  0.00000000000E+00 0.  1.
     999901    1    3    3    0    0  0.88646368695E-02 -0.91348582875E-02 -0.12859040420E+00  0.88943663039E+00  0.88000000000E+00 0.  1.
        -11    1    4    4    0    0 -0.28558180074E-01 -0.31862425050E-02  0.90444766002E-01  0.94901204463E-01  0.51100000000E-03 0.  1.
         11    1    4    4    0    0 -0.34078423053E-02  0.86071475371E-02  0.34729920119E-01  0.35946138184E-01  0.51100000000E-03 0. -1.
</event>
<event>
 8    1  0.1120016E+005  0.1043930E+01  0.7957747E-01            NaN
         13   -1    0    0    0    0  0.00000000000E+00  0.00000000000E+00  0.74505805969E-08  0.10566000000E+00  0.10566000000E+00 0. -1.
     999900   -1    0    0    0    0 -0.00000000000E+00 -0.00000000000E+00 -0.74505805969E-08  0.93827000000E+00  0.93827000000E+00 0. -1.
     999902    2    1    2    0    0  0.13427052730E-01  0.87027201132E-02 -0.17928847359E-01  0.10198994642E+01  0.10196163251E+01 0.  0.
     999903    2    3    3    0    0 -0.37983539154E-01  0.10864526550E+00  0.56275426293E-01  0.12965352316E+00  0.19914052859E-01 0.  0.
         14    1    1    2    0    0 -0.13427052730E-01 -0.87027201132E-02  0.17928847359E-01  0.24030535783E-01  0.00000000000E+00 0. -1.
     999901    1    3    3    0    0  0.51410591883E-01 -0.99942545389E-01 -0.74204273652E-01  0.89024594105E+00  0.88000000000E+00 0. -1.
        -11    1    4    4    0    0 -0.23224932271E-01  0.83846579666E-01  0.49134990229E-01  0.99920742524E-01  0.51100000000E-03 0.  1.
         11    1    4    4    0    0 -0.14758606883E-01  0.24798685836E-01  0.71404360636E-02  0.29732780639E-01  0.51100000000E-03 0. -1.
</event>
<event>
 8    1  0.1120016E+005  0.1043930E+01  0.7957747E-01            NaN
         13   -1    0    0    0    0  0.00000000000E+00  0.00000000000E+00  0.74505805969E-08  0.10566000000E+00  0.10566000000E+00 0. -1.
     999900   -1    0    0    0    0 -0.00000000000E+00 -0.00000000000E+00 -0.74505805969E-08  0.93827000000E+00  0.93827000000E+00 0.  1.
     999902    2    1    2    0    0  0.19895796555E-02 -0.19354794055E-01  0.13322368230E-01  0.10203492457E+01  0.10200767281E+01 0.  0.
     999903    2    3    3    0    0 -0.54854558338E-01 -0.95830070537E-01 -0.68325375941E-01  0.13144763239E+00  0.20437663136E-01 0.  0.
         14    1    1    2    0    0 -0.19895796555E-02  0.19354794055E-01 -0.13322368230E-01  0.23580754343E-01  0.00000000000E+00 0.  1.
     999901    1    3    3    0    0  0.56844137993E-01  0.76475276482E-01  0.81647744171E-01  0.88890161327E+00  0.88000000000E+00 0.  1.
        -11    1    4    4    0    0 -0.49842580434E-02 -0.14405486626E-01 -0.24584265582E-02  0.15448814043E-01  0.51100000000E-03 0. -1.
         11    1    4    4    0    0 -0.49870300295E-01 -0.81424583910E-01 -0.65866949383E-01  0.11599881835E+00  0.51100000000E-03 0.  1.
</event>
<event>
 8    1  0.1120016E+005  0.1043930E+01  0.7957747E-01            NaN
         13   -1    0    0    0    0  0.00000000000E+00  0.00000000000E+00  0.74505805969E-08  0.10566000000E+00  0.10566000000E+00 0. -1.
     999900   -1    0    0    0    0 -0.00000000000E+00 -0.00000000000E+00 -0.74505805969E-08  0.93827000000E+00  0.93827000000E+00 0.  1.
     999902    2    1    2    0    0  0.13366424525E-01  0.18108594883E-01  0.46464667054E-02  0.10209480034E+01  0.10206893031E+01 0.  0.
     999903    2    3    3    0    0 -0.51127500754E-01 -0.21921668993E-01 -0.11524585976E+00  0.12958048194E+00  0.20369393797E-01 0.  0.
         14    1    1    2    0    0 -0.13366424525E-01 -0.18108594883E-01 -0.46464667054E-02  0.22981996564E-01  0.00000000000E+00 0. -1.
     999901    1    3    3    0    0  0.64493925279E-01  0.40030263876E-01  0.11989232647E+00  0.89136752149E+00  0.88000000000E+00 0. -1.
        -11    1    4    4    0    0 -0.92804434703E-02 -0.11418858060E-01 -0.42766657144E-01  0.45230134144E-01  0.51100000000E-03 0. -1.
         11    1    4    4    0    0 -0.41847057283E-01 -0.10502810933E-01 -0.72479202619E-01  0.84350347800E-01  0.51100000000E-03 0.  1.
</event>
<event>
 8    1  0.1120016E+005  0.1043930E+01  0.7957747E-01            NaN
         13   -1    0    0    0    0  0.00000000000E+00  0.00000000000E+00  0.74505805969E-08  0.10566000000E+00  0.10566000000E+00 0.  1.
     999900   -1    0    0    0    0 -0.00000000000E+00 -0.00000000000E+00 -0.74505805969E-08  0.93827000000E+00  0.93827000000E+00 0. -1.
     999902    2    1    2    0    0  0.11026135987E-01  0.16482689946E-01 -0.12193625677E-01  0.10206504113E+01  0.10203848896E+01 0.  0.
     999903    2    3    3    0    0  0.81054397690E-02  0.45299989137E-01  0.12028263442E+00  0.13026345796E+00  0.19567042878E-01 0.  0.
         14    1    1    2    0    0 -0.11026135987E-01 -0.16482689946E-01  0.12193625677E-01  0.23279588695E-01  0.00000000000E+00 0.  1.
     999901    1    3    3    0    0  0.29206962179E-02 -0.28817299191E-01 -0.13247626010E+00  0.89038695335E+00  0.88000000000E+00 0. -1.
        -11    1    4    4    0    0  0.86060760916E-02  0.35168217039E-01  0.11001572752E+00  0.11582136875E+00  0.51100000000E-03 0.  1.
         11    1    4    4    0    0 -0.50063632261E-03  0.10131772097E-01  0.10266906899E-01  0.14442089213E-01  0.51100000000E-03 0. -1.
</event>
<event>
 8    1  0.1120016E+005  0.1043930E+01  0.7957747E-01            NaN
         13   -1    0    0    0    0  0.00000000000E+00  0.00000000000E+00  0.74505805969E-08  0.10566000000E+00  0.10566000000E+00 0.  1.
     999900   -1    0    0    0    0 -0.00000000000E+00 -0.00000000000E+00 -0.74505805969E-08  0.93827000000E+00  0.93827000000E+00 0.  1.
     999902    2    1    2    0    0 -0.17132349850E-02  0.31682383299E-02 -0.22914618461E-01  0.10207340381E+01  0.10204704425E+01 0.  0.
     999903    2    3    3    0    0 -0.68130708459E-01 -0.97806440345E-01 -0.52551081149E-01  0.13197901764E+00  0.21188481740E-01 0.  0.
         14    1    1    2    0    0  0.17132349850E-02 -0.31682383299E-02  0.22914618461E-01  0.23195961878E-01  0.00000000000E+00 0.  1.
     999901    1    3    3    0    0  0.66417473474E-01  0.10097467868E+00  0.29636462689E-01  0.88875502048E+00  0.88000000000E+00 0.  1.
        -11    1    4    4    0    0 -0.48370258384E-01 -0.73880639995E-01 -0.28757016463E-01  0.92872267007E-01  0.51100000000E-03 0. -1.
         11    1    4    4    0    0 -0.19760450075E-01 -0.23925800351E-01 -0.23794064686E-01  0.39106750630E-01  0.51100000000E-03 0.  1.
</event>
<event>
 8    1  0.1120016E+005  0.1043930E+01  0.7957747E-01            NaN
         13   -1    0    0    0    0  0.00000000000E+00  0.00000000000E+00  0.74505805969E-08  0.10566000000E+00  0.10566000000E+00 0. -1.
     999900   -1    0    0    0    0 -0.00000000000E+00 -0.00000000000E+00 -0.74505805969E-08  0.93827000000E+00  0.93827000000E+00 0.  1.
     999902    2    1    2    0    0 -0.20996159398E-01  0.49528168306E-02 -0.17906466936E-01  0.10158941183E+01  0.10155071880E+01 0.  0.
     999903    2    3    3    0    0  0.53816013970E-01 -0.88265304175E-01  0.65528417156E-01  0.12390316586E+00  0.19263794398E-01 0.  0.
         14    1    1    2    0    0  0.20996159398E-01 -0.49528168306E-02  0.17906466936E-01  0.28035881690E-01  0.00000000000E+00 0. -1.
     999901    1    3    3    0    0 -0.74812173368E-01  0.93218121005E-01 -0.83434884092E-01  0.89199095245E+00  0.88000000000E+00 0.  1.
        -11    1    4    4    0    0  0.17247987083E-01 -0.26003514158E-01  0.30539254925E-01  0.43664436552E-01  0.51100000000E-03 0. -1.
         11    1    4    4    0    0  0.36568026887E-01 -0.62261790016E-01  0.34989162231E-01  0.80238729308E-01  0.51100000000E-03 0.  1.
</event>
<event>
 8    1  0.1120016E+005  0.1043930E+01  0.7957747E-01            NaN
         13   -1    0    0    0    0  0.00000000000E+00  0.00000000000E+00  0.74505805969E-08  0.10566000000E+00  0.10566000000E+00 0.  1.
     999900   -1    0    0    0    0 -0.00000000000E+00 -0.00000000000E+00 -0.74505805969E-08  0.93827000000E+00  0.93827000000E+00 0.  1.
     999902    2    1    2    0    0  0.18731252992E-01  0.14019735831E-01 -0.65548855369E-03  0.10205239645E+01  0.10202555169E+01 0.  0.
     999903    2    3    3    0    0 -0.19232754511E-01  0.29372125187E-01 -0.12452798303E+00  0.13090530655E+00  0.19908795619E-01 0.  0.
         14    1    1    2    0    0 -0.18731252992E-01 -0.14019735831E-01  0.65548855369E-03  0.23406035475E-01  0.00000000000E+00 0.  1.
     999901    1    3    3    0    0  0.37964007503E-01 -0.15352389356E-01  0.12387249447E+00  0.88961865797E+00  0.88000000000E+00 0. -1.
        -11    1    4    4    0    0 -0.92489792689E-03  0.68826630252E-02 -0.56842412630E-01  0.57267333455E-01  0.51100000000E-03 0.  1.
         11    1    4    4    0    0 -0.18307856584E-01  0.22489462162E-01 -0.67685570397E-01  0.73637973098E-01  0.51100000000E-03 0. -1.
</event>
<event>
 8    1  0.1120016E+005  0.1043930E+01  0.7957747E-01            NaN
         13   -1    0    0    0    0  0.00000000000E+00  0.00000000000E+00  0.74505805969E-08  0.10566000000E+00  0.10566000000E+00 0. -1.
     999900   -1    0    0    0    0 -0.00000000000E+00 -0.00000000000E+00 -0.74505805969E-08  0.93827000000E+00  0.93827000000E+00 0. -1.
     999902    2    1    2    0    0  0.23179309336E-02 -0.16013369899E-01 -0.17935138418E-01  0.10197748761E+01  0.10194887581E+01 0.  0.
     999903    2    3    3    0    0  0.11343861415E+00  0.23639141375E-01 -0.57647303054E-01  0.13101327485E+00  0.20350391889E-01 0.  0.
         14    1    1    2    0    0 -0.23179309336E-02  0.16013369899E-01  0.17935138418E-01  0.24155123875E-01  0.00000000000E+00 0. -1.
     999901    1    3    3    0    0 -0.11112068322E+00 -0.39652511273E-01  0.39712164636E-01  0.88876160128E+00  0.88000000000E+00 0.  1.
        -11    1    4    4    0    0  0.28038979887E-01  0.11477269509E-01 -0.74330168491E-02  0.31199727066E-01  0.51100000000E-03 0.  1.
         11    1    4    4    0    0  0.85399634267E-01  0.12161871866E-01 -0.50214286205E-01  0.99813547780E-01  0.51100000000E-03 0. -1.
</event>
<event>
 8    1  0.1120016E+005  0.1043930E+01  0.7957747E-01            NaN
         13   -1    0    0    0    0  0.00000000000E+00  0.00000000000E+00  0.74505805969E-08  0.10566000000E+00  0.10566000000E+00 0.  1.
     999900   -1    0    0    0    0 -0.00000000000E+00 -0.00000000000E+00 -0.74505805969E-08  0.93827000000E+00  0.93827000000E+00 0. -1.
     999902    2    1    2    0    0 -0.65632364348E-02  0.23287278833E-01  0.29833223714E-02  0.10195522716E+01  0.10192607914E+01 0.  0.
     999903    2    3    3    0    0  0.11026299739E+00 -0.13456808600E-01  0.62471915324E-01  0.12908195233E+00  0.20503558733E-01 0.  0.
         14    1    1    2    0    0  0.65632364348E-02 -0.23287278833E-01 -0.29833223714E-02  0.24377728366E-01  0.00000000000E+00 0. -1.
     999901    1    3    3    0    0 -0.11682623383E+00  0.36744087433E-01 -0.59488592952E-01  0.89047031931E+00  0.88000000000E+00 0. -1.
        -11    1    4    4    0    0  0.73279107069E-01 -0.16492717724E-01  0.48583961644E-01  0.89456691872E-01  0.51100000000E-03 0. -1.
         11    1    4    4    0    0  0.36983890325E-01  0.30359091243E-02  0.13887953680E-01  0.39625260456E-01  0.51100000000E-03 0.  1.
</event>
<event>
 8    1  0.1120016E+005  0.1043930E+01  0.7957747E-01            NaN
         13   -1    0    0    0    0  0.00000000000E+00  0.00000000000E+00  0.74505805969E-08  0.10566000000E+00  0.10566000000E+00 0.  1.
     999900   -1    0    0    0    0 -0.00000000000E+00 -0.00000000000E+00 -0.74505805969E-08  0.93827000000E+00  0.93827000000E+00 0. -1.
     999902    2    1    2    0    0 -0.11731303797E-01  0.97853435198E-03  0.21059553334E-01  0.10198035455E+01  0.10195181144E+01 0.  0.
     999903    2    3    3    0    0 -0.38078257013E-01 -0.11584851914E+00  0.44348302187E-01  0.13138636415E+00  0.20609991096E-01 0.  0.
         14    1    1    2    0    0  0.11731303797E-01 -0.97853435198E-03 -0.21059553334E-01  0.24126454461E-01  0.00000000000E+00 0. -1.
     999901    1    3    3    0    0  0.26346953216E-01  0.11682705349E+00 -0.23288748854E-01  0.88841718139E+00  0.88000000000E+00 0.  1.
        -11    1    4    4    0    0 -0.15665125307E-01 -0.65811428721E-01  0.15395785199E-01  0.69381781644E-01  0.51100000000E-03 0.  1.
         11    1    4    4    0    0 -0.22413131706E-01 -0.50037090417E-01  0.28952516989E-01  0.62004582502E-01  0.51100000000E-03 0. -1.
</event>
<event>
 8    1  0.1120016E+005  0.1043930E+01  0.7957747E-01            NaN
         13   -1    0    0    0    0  0.00000000000E+00  0.00000000000E+00  0.74505805969E-08  0.10566000000E+00  0.10566000000E+00 0.  1.
     999900   -1    0    0    0    0 -0.00000000000E+00 -0.00000000000E+00 -0.74505805969E-08  0.93827000000E+00  0.93827000000E+00 0. -1.
     999902    2    1    2    0    0  0.23664076042E-01  0.34314202044E-02 -0.30724975689E-02  0.10198218400E+01  0.10195368467E+01 0.  0.
     999903    2    3    3    0    0  0.47336056455E-01  0.32056435368E-01  0.11612264658E+00  0.13100957826E+00  0.20266308418E-01 0.  0.
         14    1    1    2    0    0 -0.23664076042E-01 -0.34314202044E-02  0.30724975689E-02  0.24108160047E-01  0.00000000000E+00 0. -1.
     999901    1    3    3    0    0 -0.23671980413E-01 -0.28625015164E-01 -0.11919514415E+00  0.88881226169E+00  0.88000000000E+00 0. -1.
        -11    1    4    4    0    0  0.45509218810E-01  0.28439050674E-01  0.91716866101E-01  0.10626435549E+00  0.51100000000E-03 0.  1.
         11    1    4    4    0    0  0.18268376454E-02  0.36173846937E-02  0.24405780481E-01  0.24745222765E-01  0.51100000000E-03 0. -1.
</event>
<event>
 8    1  0.1253994E+005  0.1043930E+01  0.7957747E-01            NaN
         13   -1    0    0    0    0  0.00000000000E+00  0.00000000000E+00  0.74505805969E-08  0.10566000000E+00  0.10566000000E+00 0.  1.
     999900   -1    0    0    0    0 -0.00000000000E+00 -0.00000000000E+00 -0.74505805969E-08  0.93827000000E+00  0.93827000000E+00 0.  1.
     999902    2    1    2    0    0  0.27008815713E-02  0.16981836498E-01  0.15379871456E-01  0.10208601500E+01  0.10205994454E+01 0.  0.
     999903    2    3    3    0    0  0.26993624701E-02  0.50462949893E-01 -0.11823340364E+00  0.13014499227E+00  0.20119279545E-01 0.  0.
         14    1    1    2    0    0 -0.27008815713E-02 -0.16981836498E-01 -0.15379871456E-01  0.23069849980E-01  0.00000000000E+00 0. -1.
     999901    1    3    3    0    0  0.15191011344E-05 -0.33481113395E-01  0.13361327509E+00  0.89071515775E+00  0.88000000000E+00 0. -1.
        -11    1    4    4    0    0 -0.20744830660E-02  0.13471101622E-01 -0.55569500917E-01  0.57218918306E-01  0.51100000000E-03 0.  1.
         11    1    4    4    0    0  0.47738455362E-02  0.36991848270E-01 -0.62663902719E-01  0.72926073969E-01  0.51100000000E-03 0. -1.
</event>
<event>
 8    1  0.1120016E+005  0.1043930E+01  0.7957747E-01            NaN
         13   -1    0    0    0    0  0.00000000000E+00  0.00000000000E+00  0.74505805969E-08  0.10566000000E+00  0.10566000000E+00 0. -1.
     999900   -1    0    0    0    0 -0.00000000000E+00 -0.00000000000E+00 -0.74505805969E-08  0.93827000000E+00  0.93827000000E+00 0.  1.
     999902    2    1    2    0    0 -0.19244082034E-02 -0.20907536144E-01  0.11932946639E-01  0.10197799766E+01  0.10194939809E+01 0.  0.
     999903    2    3    3    0    0 -0.57910467707E-01 -0.10525317320E+00  0.53475532999E-01  0.13300243301E+00  0.19953992507E-01 0.  0.
         14    1    1    2    0    0  0.19244082034E-02  0.20907536144E-01 -0.11932946639E-01  0.24150023396E-01  0.00000000000E+00 0.  1.
     999901    1    3    3    0    0  0.55986059503E-01  0.84345637058E-01 -0.41542586360E-01  0.88677754360E+00  0.88000000000E+00 0.  1.
        -11    1    4    4    0    0 -0.36923530835E-01 -0.81191030735E-01  0.45306566355E-01  0.10004137483E+00  0.51100000000E-03 0.  1.
         11    1    4    4    0    0 -0.20986936871E-01 -0.24062142466E-01  0.81689666442E-02  0.32961058180E-01  0.51100000000E-03 0. -1.
</event>
<event>
 8    1  0.1120016E+005  0.1043930E+01  0.7957747E-01            NaN
         13   -1    0    0    0    0  0.00000000000E+00  0.00000000000E+00  0.74505805969E-08  0.10566000000E+00  0.10566000000E+00 0. -1.
     999900   -1    0    0    0    0 -0.00000000000E+00 -0.00000000000E+00 -0.74505805969E-08  0.93827000000E+00  0.93827000000E+00 0.  1.
     999902    2    1    2    0    0  0.15374570507E-01  0.74192666169E-02  0.16833370212E-01  0.10199553199E+01  0.10196735111E+01 0.  0.
     999903    2    3    3    0    0  0.63214624712E-01 -0.70990003505E-01 -0.83630012955E-01  0.12948938800E+00  0.27163452721E-01 0.  0.
         14    1    1    2    0    0 -0.15374570507E-01 -0.74192666169E-02 -0.16833370212E-01  0.23974680146E-01  0.00000000000E+00 0.  1.
     999901    1    3    3    0    0 -0.47840054205E-01  0.78409270122E-01  0.10046338317E+00  0.89046593185E+00  0.88000000000E+00 0. -1.
        -11    1    4    4    0    0  0.19364588858E-01 -0.36192045904E-01 -0.47870339092E-01  0.63060938576E-01  0.51100000000E-03 0. -1.
         11    1    4    4    0    0  0.43850035854E-01 -0.34797957601E-01 -0.35759673863E-01  0.66428449428E-01  0.51100000000E-03 0.  1.
</event>
<event>
 8    1  0.1120016E+005  0.1043930E+01  0.7957747E-01            NaN
         13   -1    0    0    0    0  0.00000000000E+00  0.00000000000E+00  0.74505805969E-08  0.10566000000E+00  0.10566000000E+00 0. -1.
     999900   -1    0    0    0    0 -0.00000000000E+00 -0.00000000000E+00 -0.74505805969E-08  0.93827000000E+00  0.93827000000E+00 0.  1.
     999902    2    1    2    0    0  0.16394928188E-01 -0.17263821364E-01 -0.47109707280E-02  0.10196601330E+01  0.10193712574E+01 0.  0.
     999903    2    3    3    0    0  0.99887432962E-01  0.74998752911E-01 -0.31319347671E-01  0.13050807251E+00  0.21193000043E-01 0.  0.
         14    1    1    2    0    0 -0.16394928188E-01  0.17263821364E-01  0.47109707280E-02  0.24269866988E-01  0.00000000000E+00 0.  1.
     999901    1    3    3    0    0 -0.83492504773E-01 -0.92262574275E-01  0.26608376943E-01  0.88915206050E+00  0.88000000000E+00 0.  1.
        -11    1    4    4    0    0  0.36636570608E-01  0.15747610410E-01 -0.12771158689E-01  0.41875877959E-01  0.51100000000E-03 0. -1.
         11    1    4    4    0    0  0.63250862353E-01  0.59251142501E-01 -0.18548188981E-01  0.88632194555E-01  0.51100000000E-03 0.  1.
</event>
<event>
 8    1  0.1120016E+005  0.1043930E+01  0.7957747E-01            NaN
         13   -1    0    0    0    0  0.00000000000E+00  0.00000000000E+00  0.74505805969E-08  0.10566000000E+00  0.10566000000E+00 0. -1.
     999900   -1    0    0    0    0 -0.00000000000E+00 -0.00000000000E+00 -0.74505805969E-08  0.93827000000E+00  0.93827000000E+00 0.  1.
     999902    2    1    2    0    0 -0.22463751290E-01 -0.46060816808E-02  0.12908992404E-01  0.10176150196E+01  0.10172747170E+01 0.  0.
     999903    2    3    3    0    0 -0.56969198006E-01  0.77591568364E-01  0.85225055964E-01  0.13015984178E+00  0.20305990387E-01 0.  0.
         14    1    1    2    0    0  0.22463751290E-01  0.46060816808E-02 -0.12908992404E-01  0.26314980436E-01  0.00000000000E+00 0.  1.
     999901    1    3    3    0    0  0.34505446716E-01 -0.82197650045E-01 -0.72316063560E-01  0.88745517778E+00  0.88000000000E+00 0.  1.
        -11    1    4    4    0    0 -0.30845641875E-01  0.51171614967E-01  0.63156776320E-01  0.86942666840E-01  0.51100000000E-03 0. -1.
         11    1    4    4    0    0 -0.26123556131E-01  0.26419953397E-01  0.22068279643E-01  0.43217174940E-01  0.51100000000E-03 0.  1.
</event>
<event>
 8    1  0.1120016E+005  0.1043930E+01  0.7957747E-01            NaN
         13   -1    0    0    0    0  0.00000000000E+00  0.00000000000E+00  0.74505805969E-08  0.10566000000E+00  0.10566000000E+00 0.  1.
     999900   -1    0    0    0    0 -0.00000000000E+00 -0.00000000000E+00 -0.74505805969E-08  0.93827000000E+00  0.93827000000E+00 0.  1.
     999902    2    1    2    0    0 -0.69521870540E-02  0.20142299539E-01  0.56195800075E-02  0.10218931033E+01  0.10216554653E+01 0.  0.
     999903    2    3    3    0    0 -0.12446071709E+00  0.41853647070E-01  0.16413125950E-01  0.13375114515E+00  0.19436570024E-01 0.  0.
         14    1    1    2    0    0  0.69521870540E-02 -0.20142299539E-01 -0.56195800075E-02  0.22036896674E-01  0.00000000000E+00 0. -1.
     999901    1    3    3    0    0  0.11750853003E+00 -0.21711347531E-01 -0.10793545943E-01  0.88814195818E+00  0.88000000000E+00 0. -1.
        -11    1    4    4    0    0 -0.38137489628E-01  0.18727600807E-01  0.12523655462E-01  0.44297790174E-01  0.51100000000E-03 0. -1.
         11    1    4    4    0    0 -0.86323227458E-01  0.23126046263E-01  0.38894704882E-02  0.89453354975E-01  0.51100000000E-03 0.  1.
</event>
<event>
 8    1  0.1291757E+005  0.1043930E+01  0.7957747E-01            NaN
         13   -1    0    0    0    0  0.00000000000E+00  0.00000000000E+00  0.74505805969E-08  0.10566000000E+00  0.10566000000E+00 0. -1.
     999900   -1    0    0    0    0 -0.00000000000E+00 -0.00000000000E+00 -0.74505805969E-08  0.93827000000E+00  0.93827000000E+00 0. -1.
     999902    2    1    2    0    0  0.47045369930E-02  0.20513983810E-01  0.86823176864E-02  0.10211629440E+01  0.10209091141E+01 0.  0.
     999903    2    3    3    0    0 -0.30330971489E-01  0.87787111173E-01  0.94146523219E-01  0.13377504065E+00  0.20140728577E-01 0.  0.
         14    1    1    2    0    0 -0.47045369930E-02 -0.20513983810E-01 -0.86823176864E-02  0.22767056034E-01  0.00000000000E+00 0.  1.
     999901    1    3    3    0    0  0.35035508482E-01 -0.67273127363E-01 -0.85464205533E-01  0.88738790331E+00  0.88000000000E+00 0. -1.
        -11    1    4    4    0    0 -0.59229618525E-02  0.47443435598E-01  0.49930707474E-01  0.69132465082E-01  0.51100000000E-03 0. -1.
         11    1    4    4    0    0 -0.24408009636E-01  0.40343675575E-01  0.44215815745E-01  0.64642575570E-01  0.51100000000E-03 0.  1.
</event>
<event>
 8    1  0.1120016E+005  0.1043930E+01  0.7957747E-01            NaN
         13   -1    0    0    0    0  0.00000000000E+00  0.00000000000E+00  0.74505805969E-08  0.10566000000E+00  0.10566000000E+00 0. -1.
     999900   -1    0    0    0    0 -0.00000000000E+00 -0.00000000000E+00 -0.74505805969E-08  0.93827000000E+00  0.93827000000E+00 0.  1.
     999902    2    1    2    0    0 -0.13296937932E-01 -0.12473670312E-01  0.12968825755E-01  0.10215560989E+01  0.10213110553E+01 0.  0.
     999903    2    3    3    0    0 -0.72613589154E-01 -0.76091189438E-01 -0.78227517144E-01  0.13257779386E+00  0.19867675933E-01 0.  0.
         14    1    1    2    0    0  0.13296937932E-01  0.12473670312E-01 -0.12968825755E-01  0.22373901110E-01  0.00000000000E+00 0. -1.
     999901    1    3    3    0    0  0.59316651223E-01  0.63617519126E-01  0.91196342899E-01  0.88897830503E+00  0.88000000000E+00 0. -1.
        -11    1    4    4    0    0 -0.15987384766E-01 -0.25914183230E-01 -0.30619603913E-01  0.43185213082E-01  0.51100000000E-03 0. -1.
         11    1    4    4    0    0 -0.56626204389E-01 -0.50177006208E-01 -0.47607913232E-01  0.89392580781E-01  0.51100000000E-03 0.  1.
</event>
<event>
 8    1  0.1120016E+005  0.1043930E+01  0.7957747E-01            NaN
         13   -1    0    0    0    0  0.00000000000E+00  0.00000000000E+00  0.74505805969E-08  0.10566000000E+00  0.10566000000E+00 0.  1.
     999900   -1    0    0    0    0 -0.00000000000E+00 -0.00000000000E+00 -0.74505805969E-08  0.93827000000E+00  0.93827000000E+00 0.  1.
     999902    2    1    2    0    0  0.20419137816E-01 -0.13646730780E-01  0.12749689810E-02  0.10193373182E+01  0.10190406117E+01 0.  0.
     999903    2    3    3    0    0 -0.70379121864E-01 -0.42814756447E-01  0.97265193760E-01  0.12899512507E+00  0.19821710614E-01 0.  0.
         14    1    1    2    0    0 -0.20419137816E-01  0.13646730780E-01 -0.12749689810E-02  0.24592681758E-01  0.00000000000E+00 0. -1.
     999901    1    3    3    0    0  0.90798259680E-01  0.29168025667E-01 -0.95990224779E-01  0.89034219317E+00  0.88000000000E+00 0.  1.
        -11    1    4    4    0    0 -0.47647605904E-01 -0.36850069044E-01  0.78313899343E-01  0.98800556113E-01  0.51100000000E-03 0. -1.
         11    1    4    4    0    0 -0.22731515960E-01 -0.59646874036E-02  0.18951294417E-01  0.30194568961E-01  0.51100000000E-03 0.  1.
</event>
<event>
 8    1  0.1120016E+005  0.1043930E+01  0.7957747E-01            NaN
         13   -1    0    0    0    0  0.00000000000E+00  0.00000000000E+00  0.74505805969E-08  0.10566000000E+00  0.10566000000E+00 0. -1.
     999900   -1    0    0    0    0 -0.00000000000E+00 -0.00000000000E+00 -0.74505805969E-08  0.93827000000E+00  0.93827000000E+00 0.  1.
     999902    2    1    2    0    0 -0.22142967544E-01  0.54607546117E-02 -0.47187306570E-02  0.10206405760E+01  0.10203748272E+01 0.  0.
     999903    2    3    3    0    0 -0.64562568431E-01  0.10656023458E+00  0.40457960266E-01  0.13268705197E+00  0.21109201169E-01 0.  0.
         14    1    1    2    0    0  0.22142967544E-01 -0.54607546117E-02  0.47187306570E-02  0.23289424029E-01  0.00000000000E+00 0.  1.
     999901    1    3    3    0    0  0.42419600887E-01 -0.10109947997E+00 -0.45176690923E-01  0.88795352400E+00  0.88000000000E+00 0. -1.
        -11    1    4    4    0    0 -0.63818553709E-01  0.93168964226E-01  0.36794434045E-01  0.11877438777E+00  0.51100000000E-03 0. -1.
         11    1    4    4    0    0 -0.74401472170E-03  0.13391270357E-01  0.36635262216E-02  0.13912664197E-01  0.51100000000E-03 0.  1.
</event>
<event>
 8    1  0.1120016E+005  0.1043930E+01  0.7957747E-01            NaN
         13   -1    0    0    0    0  0.00000000000E+00  0.00000000000E+00  0.74505805969E-08  0.10566000000E+00  0.10566000000E+00 0.  1.
     999900   -1    0    0    0    0 -0.00000000000E+00 -0.00000000000E+00 -0.74505805969E-08  0.93827000000E+00  0.93827000000E+00 0.  1.
     999902    2    1    2    0    0  0.20056842121E-01 -0.10166698808E-02 -0.11088496505E-01  0.10209895273E+01  0.10207317716E+01 0.  0.
     999903    2    3    3    0    0  0.11193345568E+00  0.31880787666E-01 -0.63377423818E-01  0.13405227655E+00  0.20194847762E-01 0.  0.
         14    1    1    2    0    0 -0.20056842121E-01  0.10166698808E-02  0.11088496505E-01  0.22940472712E-01  0.00000000000E+00 0.  1.
     999901    1    3    3    0    0 -0.91876613555E-01 -0.32897457547E-01  0.52288927313E-01  0.88693725074E+00  0.88000000000E+00 0.  1.
        -11    1    4    4    0    0  0.85665732273E-01  0.33031776760E-01 -0.50036168632E-01  0.10456383339E+00  0.51100000000E-03 0. -1.
         11    1    4    4    0    0  0.26267723403E-01 -0.11509890940E-02 -0.13341255185E-01  0.29488443153E-01  0.51100000000E-03 0.  1.
</event>
<event>
 8    1  0.1120016E+005  0.1043930E+01  0.7957747E-01            NaN
         13   -1    0    0    0    0  0.00000000000E+00  0.00000000000E+00  0.74505805969E-08  0.10566000000E+00  0.10566000000E+00 0.  1.
     999900   -1    0    0    0    0 -0.00000000000E+00 -0.00000000000E+00 -0.74505805969E-08  0.93827000000E+00  0.93827000000E+00 0. -1.
     999902    2    1    2    0    0  0.11247619506E-01 -0.31560737735E-02  0.20922945253E-01  0.10199667076E+01  0.10196851696E+01 0.  0.
     999903    2    3    3    0    0  0.75276959722E-01 -0.71902318735E-01  0.80399157105E-01  0.13296996440E+00  0.19504431957E-01 0.  0.
         14    1    1    2    0    0 -0.11247619506E-01  0.31560737735E-02 -0.20922945253E-01  0.23963292433E-01  0.00000000000E+00 0. -1.
     999901    1    3    3    0    0 -0.64029340216E-01  0.68746244961E-01 -0.59476211852E-01  0.88699674316E+00  0.88000000000E+00 0.  1.
        -11    1    4    4    0    0  0.53562084879E-01 -0.47925426667E-01  0.44010518005E-01  0.84278883914E-01  0.51100000000E-03 0. -1.
         11    1    4    4    0    0  0.21714874843E-01 -0.23976892068E-01  0.36388639101E-01  0.48691080490E-01  0.51100000000E-03 0.  1.
</event>
<event>
 8    1  0.1120016E+005  0.1043930E+01  0.7957747E-01            NaN
         13   -1    0    0    0    0  0.00000000000E+00  0.00000000000E+00  0.74505805969E-08  0.10566000000E+00  0.10566000000E+00 0. -1.
     999900   -1    0    0    0    0 -0.00000000000E+00 -0.00000000000E+00 -0.74505805969E-08  0.93827000000E+00  0.93827000000E+00 0. -1.
     999902    2    1    2    0    0  0.19207244860E-01 -0.90327824424E-02  0.10016774408E-01  0.10204599087E+01  0.10201899726E+01 0.  0.
     999903    2    3    3    0    0  0.51521427970E-01 -0.44293286950E-01  0.11281124368E+00  0.13318643765E+00  0.19897177258E-01 0.  0.
         14    1    1    2    0    0 -0.19207244860E-01  0.90327824424E-02 -0.10016774408E-01  0.23470091251E-01  0.00000000000E+00 0. -1.
     999901    1    3    3    0    0 -0.32314183110E-01  0.35260504508E-01 -0.10279446928E+00  0.88727347110E+00  0.88000000000E+00 0. -1.
        -11    1    4    4    0    0  0.41030249403E-01 -0.23358099359E-01  0.79520248136E-01  0.92481420601E-01  0.51100000000E-03 0. -1.
         11    1    4    4    0    0  0.10491178567E-01 -0.20935187591E-01  0.33290995548E-01  0.40705017047E-01  0.51100000000E-03 0.  1.
</event>
<event>
 8    1  0.1120016E+005  0.1043930E+01  0.7957747E-01            NaN
         13   -1    0    0    0    0  0.00000000000E+00  0.00000000000E+00  0.74505805969E-08  0.10566000000E+00  0.10566000000E+00 0. -1.
     999900   -1    0    0    0    0 -0.00000000000E+00 -0.00000000000E+00 -0.74505805969E-08  0.93827000000E+00  0.93827000000E+00 0.  1.
     999902    2    1    2    0    0 -0.10368992029E-01  0.10621220821E-01 -0.17030014960E-01  0.10213391227E+01  0.10210892497E+01 0.  0.
     999903    2    3    3    0    0 -0.95233703822E-01  0.62726846532E-03  0.86578805997E-01  0.13114999327E+00  0.25190856998E-01 0.  0.
         14    1    1    2    0    0  0.10368992029E-01 -0.10621220821E-01  0.17030014960E-01  0.22590877295E-01  0.00000000000E+00 0. -1.
     999901    1    3    3    0    0  0.84864711793E-01  0.99939523555E-02 -0.10360882096E+00  0.89018912944E+00  0.88000000000E+00 0.  1.
        -11    1    4    4    0    0 -0.74007420337E-01 -0.99796190476E-02  0.63155553623E-01  0.97803763403E-01  0.51100000000E-03 0. -1.
         11    1    4    4    0    0 -0.21226283485E-01  0.10606887513E-01  0.23423252374E-01  0.33346229863E-01  0.51100000000E-03 0.  1.
</event>
<event>
 8    1  0.1120016E+005  0.1043930E+01  0.7957747E-01            NaN
         13   -1    0    0    0    0  0.00000000000E+00  0.00000000000E+00  0.74505805969E-08  0.10566000000E+00  0.10566000000E+00 0. -1.
     999900   -1    0    0    0    0 -0.00000000000E+00 -0.00000000000E+00 -0.74505805969E-08  0.93827000000E+00  0.93827000000E+00 0. -1.
     999902    2    1    2    0    0 -0.55417468091E-02  0.21027456412E-01  0.33907184948E-02  0.10219217776E+01  0.10216847643E+01 0.  0.
     999903    2    3    3    0    0  0.99949167524E-01 -0.71269824340E-01  0.38293141973E-01  0.13014529205E+00  0.20055133243E-01 0.  0.
         14    1    1    2    0    0  0.55417468091E-02 -0.21027456412E-01 -0.33907184948E-02  0.22008222390E-01  0.00000000000E+00 0.  1.
     999901    1    3    3    0    0 -0.10549091433E+00  0.92297280752E-01 -0.34902423479E-01  0.89177648556E+00  0.88000000000E+00 0.  1.
        -11    1    4    4    0    0  0.43889579529E-01 -0.21621847341E-01  0.90868288539E-02  0.49765761858E-01  0.51100000000E-03 0. -1.
         11    1    4    4    0    0  0.56059587995E-01 -0.49647976999E-01  0.29206313120E-01  0.80379530188E-01  0.51100000000E-03 0.  1.
</event>
<event>
 8    1  0.1120016E+005  0.1043930E+01  0.7957747E-01            NaN
         13   -1    0    0    0    0  0.00000000000E+00  0.00000000000E+00  0.74505805969E-08  0.10566000000E+00  0.10566000000E+00 0.  1.
     999900   -1    0    0    0    0 -0.00000000000E+00 -0.00000000000E+00 -0.74505805969E-08  0.93827000000E+00  0.93827000000E+00 0. -1.
     999902    2    1    2    0    0  0.17497488541E-01 -0.13522387973E-01 -0.72604070510E-02  0.10206548933E+01  0.10203894750E+01 0.  0.
     999903    2    3    3    0    0 -0.12474049374E+00 -0.15910159389E-01  0.20584201235E-01  0.12879578600E+00  0.18743564207E-01 0.  0.
         14    1    1    2    0    0 -0.17497488541E-01  0.13522387973E-01  0.72604070510E-02  0.23275106708E-01  0.00000000000E+00 0. -1.
     999901    1    3    3    0    0  0.14223798228E+00  0.23877714166E-02 -0.27844608285E-01  0.89185910730E+00  0.88000000000E+00 0. -1.
        -11    1    4    4    0    0 -0.36610195346E-01  0.19004613376E-02  0.49976708385E-03  0.36666456669E-01  0.51100000000E-03 0. -1.
         11    1    4    4    0    0 -0.88130298396E-01 -0.17810620727E-01  0.20084434151E-01  0.92129329327E-01  0.51100000000E-03 0.  1.
</event>
<event>
 8    1  0.1120016E+005  0.1043930E+01  0.7957747E-01            NaN
         13   -1    0    0    0    0  0.00000000000E+00  0.00000000000E+00  0.74505805969E-08  0.10566000000E+00  0.10566000000E+00 0. -1.
     999900   -1    0    0    0    0 -0.00000000000E+00 -0.00000000000E+00 -0.74505805969E-08  0.93827000000E+00  0.93827000000E+00 0. -1.
     999902    2    1    2    0    0  0.11088456212E-01 -0.12461669376E-01 -0.15637668122E-01  0.10210655357E+01  0.10208095045E+01 0.  0.
     999903    2    3    3    0    0 -0.10811191574E+00  0.63980024644E-01  0.21387044549E-01  0.12897647587E+00  0.19897129869E-01 0.  0.
         14    1    1    2    0    0 -0.11088456212E-01  0.12461669376E-01  0.15637668122E-01  0.22864464330E-01  0.00000000000E+00 0. -1.
     999901    1    3    3    0    0  0.11920037195E+00 -0.76441694020E-01 -0.37024712671E-01  0.89208905979E+00  0.88000000000E+00 0. -1.
        -11    1    4    4    0    0 -0.53279352525E-02  0.54661066649E-02 -0.29951066120E-02  0.82156558317E-02  0.51100000000E-03 0.  1.
         11    1    4    4    0    0 -0.10278398048E+00  0.58513917979E-01  0.24382151160E-01  0.12076082004E+00  0.51100000000E-03 0. -1.
</event>
<event>
 8    1  0.1120016E+005  0.1043930E+01  0.7957747E-01            NaN
         13   -1    0    0    0    0  0.00000000000E+00  0.00000000000E+00  0.74505805969E-08  0.10566000000E+00  0.10566000000E+00 0.  1.
     999900   -1    0    0    0    0 -0.00000000000E+00 -0.00000000000E+00 -0.74505805969E-08  0.93827000000E+00  0.93827000000E+00 0.  1.
     999902    2    1    2    0    0 -0.21026021250E-01 -0.29125598869E-02 -0.11865114574E-01  0.10196121564E+01  0.10193221237E+01 0.  0.
     999903    2    3    3    0    0 -0.12248010130E+00 -0.41087212652E-01 -0.24133756394E-01  0.13287614490E+00  0.19598403696E-01 0.  0.
         14    1    1    2    0    0  0.21026021250E-01  0.29125598869E-02  0.11865114574E-01  0.24317843625E-01  0.00000000000E+00 0. -1.
     999901    1    3    3    0    0  0.10145408005E+00  0.38174652765E-01  0.12268641821E-01  0.88673601147E+00  0.88000000000E+00 0.  1.
        -11    1    4    4    0    0 -0.28518727407E-01 -0.23472710488E-02 -0.97108912134E-02  0.30222343116E-01  0.51100000000E-03 0.  1.
         11    1    4    4    0    0 -0.93961373896E-01 -0.38739941603E-01 -0.14422865181E-01  0.10265380179E+00  0.51100000000E-03 0. -1.
</event>
<event>
 8    1  0.1120016E+005  0.1043930E+01  0.7957747E-01            NaN
         13   -1    0    0    0    0  0.00000000000E+00  0.00000000000E+00  0.74505805969E-08  0.10566000000E+00  0.10566000000E+00 0.  1.
     999900   -1    0    0    0    0 -0.00000000000E+00 -0.00000000000E+00 -0.74505805969E-08  0.93827000000E+00  0.93827000000E+00 0. -1.
     999902    2    1    2    0    0  0.22366257179E-01 -0.17336598611E-03  0.37594867172E-02  0.10212493198E+01  0.10209974338E+01 0.  0.
     999903    2    3    3    0    0 -0.92883345364E-01 -0.60508361378E-01 -0.63258739528E-01  0.12916511678E+00  0.19833850428E-01 0.  0.
         14    1    1    2    0    0 -0.22366257179E-01  0.17336598611E-03 -0.37594867172E-02  0.22680680244E-01  0.00000000000E+00 0. -1.
     999901    1    3    3    0    0  0.11524960254E+00  0.60334995391E-01  0.67018226245E-01  0.89208420298E+00  0.88000000000E+00 0. -1.
        -11    1    4    4    0    0 -0.62669011138E-01 -0.29444894173E-01 -0.40437311002E-01  0.80186308009E-01  0.51100000000E-03 0. -1.
         11    1    4    4    0    0 -0.30214334225E-01 -0.31063467204E-01 -0.22821428526E-01  0.48978808768E-01  0.51100000000E-03 0.  1.
</event>
<event>
 8    1  0.1120016E+005  0.1043930E+01  0.7957747E-01            NaN
         13   -1    0    0    0    0  0.00000000000E+00  0.00000000000E+00  0.74505805969E-08  0.10566000000E+00  0.10566000000E+00 0. -1.
     999900   -1    0    0    0    0 -0.00000000000E+00 -0.00000000000E+00 -0.74505805969E-08  0.93827000000E+00  0.93827000000E+00 0. -1.
     999902    2    1    2    0    0 -0.63432772678E-02  0.21174844799E-01 -0.88586773098E-02  0.10201164034E+01  0.10198384132E+01 0.  0.
     999903    2    3    3    0    0  0.49842500117E-03  0.11712429321E+00  0.58362050230E-01  0.13232603866E+00  0.19639325635E-01 0.  0.
         14    1    1    2    0    0  0.63432772678E-02 -0.21174844799E-01  0.88586773098E-02  0.23813596588E-01  0.00000000000E+00 0. -1.
     999901    1    3    3    0    0 -0.68417022690E-02 -0.95949448414E-01 -0.67220727540E-01  0.88779036476E+00  0.88000000000E+00 0. -1.
        -11    1    4    4    0    0 -0.72343428560E-02  0.78877705044E-01  0.33156972623E-01  0.85870099709E-01  0.51100000000E-03 0. -1.
         11    1    4    4    0    0  0.77327678572E-02  0.38246588170E-01  0.25205077608E-01  0.46455938948E-01  0.51100000000E-03 0.  1.
</event>
<event>
 8    1  0.1120016E+005  0.1043930E+01  0.7957747E-01            NaN
         13   -1    0    0    0    0  0.00000000000E+00  0.00000000000E+00  0.74505805969E-08  0.10566000000E+00  0.10566000000E+00 0.  1.
     999900   -1    0    0    0    0 -0.00000000000E+00 -0.00000000000E+00 -0.74505805969E-08  0.93827000000E+00  0.93827000000E+00 0.  1.
     999902    2    1    2    0    0 -0.10018574909E-01  0.20988188351E-01 -0.54918914647E-02  0.10200336244E+01  0.10197536753E+01 0.  0.
     999903    2    3    3    0    0  0.18525959449E-01  0.12739744839E+00 -0.27343584519E-01  0.13289484298E+00  0.18440353783E-01 0.  0.
         14    1    1    2    0    0  0.10018574909E-01 -0.20988188351E-01  0.54918914647E-02  0.23896375569E-01  0.00000000000E+00 0.  1.
     999901    1    3    3    0    0 -0.28544534358E-01 -0.10640926004E+00  0.21851693054E-01  0.88713878145E+00  0.88000000000E+00 0. -1.
        -11    1    4    4    0    0 -0.31194487218E-02  0.34841684743E-01 -0.81627445115E-02  0.35924441193E-01  0.51100000000E-03 0.  1.
         11    1    4    4    0    0  0.21645408171E-01  0.92555763644E-01 -0.19180840007E-01  0.96970401788E-01  0.51100000000E-03 0. -1.
</event>
<event>
 8    1  0.1120016E+005  0.1043930E+01  0.7957747E-01            NaN
         13   -1    0    0    0    0  0.00000000000E+00  0.00000000000E+00  0.74505805969E-08  0.10566000000E+00  0.10566000000E+00 0.  1.
     999900   -1    0    0    0    0 -0.00000000000E+00 -0.00000000000E+00 -0.74505805969E-08  0.93827000000E+00  0.93827000000E+00 0. -1.
     999902    2    1    2    0    0 -0.19235574543E-03 -0.11247345321E-01 -0.20976042965E-01  0.10201280220E+01  0.10198503062E+01 0.  0.
     999903    2    3    3    0    0 -0.10892468087E+00 -0.99158679190E-02  0.66228785285E-01  0.12915710586E+00  0.18231715678E-01 0.  0.
         14    1    1    2    0    0  0.19235574543E-03  0.11247345321E-01  0.20976042965E-01  0.23801977984E-01  0.00000000000E+00 0.  1.
     999901    1    3    3    0    0  0.10873232512E+00 -0.13314774019E-02 -0.87204828250E-01  0.89097091615E+00  0.88000000000E+00 0. -1.
        -11    1    4    4    0    0 -0.36034657190E-01 -0.80036662449E-02  0.14075465091E-01  0.39508670323E-01  0.51100000000E-03 0.  1.
         11    1    4    4    0    0 -0.72890023675E-01 -0.19122016741E-02  0.52153320194E-01  0.89648435541E-01  0.51100000000E-03 0. -1.
</event>
<event>
 8    1  0.1120016E+005  0.1043930E+01  0.7957747E-01            NaN
         13   -1    0    0    0    0  0.00000000000E+00  0.00000000000E+00  0.74505805969E-08  0.10566000000E+00  0.10566000000E+00 0.  1.
     999900   -1    0    0    0    0 -0.00000000000E+00 -0.00000000000E+00 -0.74505805969E-08  0.93827000000E+00  0.93827000000E+00 0.  1.
     999902    2    1    2    0    0  0.89310486991E-02  0.10527972237E-01 -0.20479799647E-01  0.10192313356E+01  0.10189320347E+01 0.  0.
     999903    2    3    3    0    0 -0.11372970929E+00 -0.39849337389E-01  0.36201190950E-01  0.12749355486E+00  0.20534454961E-01 0.  0.
         14    1    1    2    0    0 -0.89310486991E-02 -0.10527972237E-01  0.20479799647E-01  0.24698664415E-01  0.00000000000E+00 0.  1.
     999901    1    3    3    0    0  0.12266075798E+00  0.50377309626E-01 -0.56680990598E-01  0.89173778072E+00  0.88000000000E+00 0.  1.
        -11    1    4    4    0    0 -0.24147255710E-01 -0.59315769286E-02 -0.60020597517E-03  0.24877598988E-01  0.51100000000E-03 0.  1.
         11    1    4    4    0    0 -0.89582453575E-01 -0.33917760460E-01  0.36801396925E-01  0.10261595587E+00  0.51100000000E-03 0. -1.
</event>
<event>
 8    1  0.1274829E+005  0.1043930E+01  0.7957747E-01            NaN
         13   -1    0    0    0    0  0.00000000000E+00  0.00000000000E+00  0.74505805969E-08  0.10566000000E+00  0.10566000000E+00 0.  1.
     999900   -1    0    0    0    0 -0.00000000000E+00 -0.00000000000E+00 -0.74505805969E-08  0.93827000000E+00  0.93827000000E+00 0.  1.
     999902    2    1    2    0    0  0.77762531307E-02  0.62525180797E-02  0.20711492673E-01  0.10209402191E+01  0.10206813416E+01 0.  0.
     999903    2    3    3    0    0  0.13042274714E+00  0.25741335943E-02  0.96801942833E-02  0.13235855011E+00  0.20207931366E-01 0.  0.
         14    1    1    2    0    0 -0.77762531307E-02 -0.62525180797E-02 -0.20711492673E-01  0.22989780856E-01  0.00000000000E+00 0. -1.
     999901    1    3    3    0    0 -0.12264649401E+00  0.36783844853E-02  0.11031298389E-01  0.88858166904E+00  0.88000000000E+00 0. -1.
        -11    1    4    4    0    0  0.79519547865E-01  0.34224297245E-02  0.15579108448E-01  0.81105124739E-01  0.51100000000E-03 0.  1.
         11    1    4    4    0    0  0.50903199273E-01 -0.84829613019E-03 -0.58989141652E-02  0.51253425368E-01  0.51100000000E-03 0. -1.
</event>
<event>
 8    1  0.1120016E+005  0.1043930E+01  0.7957747E-01            NaN
         13   -1    0    0    0    0  0.00000000000E+00  0.00000000000E+00  0.74505805969E-08  0.10566000000E+00  0.10566000000E+00 0.  1.
     999900   -1    0    0    0    0 -0.00000000000E+00 -0.00000000000E+00 -0.74505805969E-08  0.93827000000E+00  0.93827000000E+00 0. -1.
     999902    2    1    2    0    0  0.15245913311E-02  0.39063817679E-02  0.23376154803E-01  0.10201807093E+01  0.10199042361E+01 0.  0.
     999903    2    3    3    0    0  0.93665054192E-01 -0.78727536558E-01 -0.38316178039E-01  0.12938097122E+00  0.17324515180E-01 0.  0.
         14    1    1    2    0    0 -0.15245913311E-02 -0.39063817679E-02 -0.23376154803E-01  0.23749290740E-01  0.00000000000E+00 0. -1.
     999901    1    3    3    0    0 -0.92140462861E-01  0.82633918325E-01  0.61692332842E-01  0.89079973804E+00  0.88000000000E+00 0. -1.
        -11    1    4    4    0    0  0.71767967471E-01 -0.58385995811E-01 -0.36418236329E-01  0.99428943070E-01  0.51100000000E-03 0.  1.
         11    1    4    4    0    0  0.21897086721E-01 -0.20341540746E-01 -0.18979417103E-02  0.29952028154E-01  0.51100000000E-03 0. -1.
</event>
<event>
 8    1  0.1120016E+005  0.1043930E+01  0.7957747E-01            NaN
         13   -1    0    0    0    0  0.00000000000E+00  0.00000000000E+00  0.74505805969E-08  0.10566000000E+00  0.10566000000E+00 0. -1.
     999900   -1    0    0    0    0 -0.00000000000E+00 -0.00000000000E+00 -0.74505805969E-08  0.93827000000E+00  0.93827000000E+00 0.  1.
     999902    2    1    2    0    0  0.90934079775E-02  0.13307712459E-01  0.88704137983E-02  0.10255324588E+01  0.10253674242E+01 0.  0.
     999903    2    3    3    0    0 -0.68124911661E-01 -0.10247223368E+00 -0.47644581977E-01  0.13280539554E+00  0.15023469213E-01 0.  0.
         14    1    1    2    0    0 -0.90934079775E-02 -0.13307712459E-01 -0.88704137983E-02  0.18397541153E-01  0.00000000000E+00 0. -1.
     999901    1    3    3    0    0  0.77218319638E-01  0.11577994614E+00  0.56514995775E-01  0.89272706331E+00  0.88000000000E+00 0. -1.
        -11    1    4    4    0    0 -0.17887293995E-01 -0.18157124612E-01 -0.13779382307E-01  0.28978767372E-01  0.51100000000E-03 0. -1.
         11    1    4    4    0    0 -0.50237617666E-01 -0.84315109073E-01 -0.33865199670E-01  0.10382662817E+00  0.51100000000E-03 0.  1.
</event>
<event>
 8    1  0.1120016E+005  0.1043930E+01  0.7957747E-01            NaN
         13   -1    0    0    0    0  0.00000000000E+00  0.00000000000E+00  0.74505805969E-08  0.10566000000E+00  0.10566000000E+00 0. -1.
     999900   -1    0    0    0    0 -0.00000000000E+00 -0.00000000000E+00 -0.74505805969E-08  0.93827000000E+00  0.93827000000E+00 0. -1.
     999902    2    1    2    0    0 -0.18478485113E-01  0.12410484383E-01 -0.31915252366E-02  0.10214431068E+01  0.10211955542E+01 0.  0.
     999903    2    3    3    0    0 -0.77736022165E-01 -0.49958715638E-01 -0.93007233627E-01  0.13269779212E+00  0.20484045390E-01 0.  0.
         14    1    1    2    0    0  0.18478485113E-01 -0.12410484383E-01  0.31915252366E-02  0.22486893250E-01  0.00000000000E+00 0.  1.
     999901    1    3    3    0    0  0.59257537052E-01  0.62369200021E-01  0.89815708390E-01  0.88874531463E+00  0.88000000000E+00 0.  1.
        -11    1    4    4    0    0 -0.57543634589E-01 -0.31753078250E-01 -0.53552837401E-01  0.84780277038E-01  0.51100000000E-03 0.  1.
         11    1    4    4    0    0 -0.20192387576E-01 -0.18205637389E-01 -0.39454396226E-01  0.47917515079E-01  0.51100000000E-03 0. -1.
</event>
<event>
 8    1  0.1120016E+005  0.1043930E+01  0.7957747E-01            NaN
         13   -1    0    0    0    0  0.00000000000E+00  0.00000000000E+00  0.74505805969E-08  0.10566000000E+00  0.10566000000E+00 0. -1.
     999900   -1    0    0    0    0 -0.00000000000E+00 -0.00000000000E+00 -0.74505805969E-08  0.93827000000E+00  0.93827000000E+00 0. -1.
     999902    2    1    2    0    0 -0.17266535442E-01  0.21998390397E-01 -0.11597293444E-02  0.10159405842E+01  0.10155549533E+01 0.  0.
     999903    2    3    3    0    0  0.34927769630E-01  0.31021011895E-01  0.11298571070E+00  0.12698904744E+00  0.34324846355E-01 0.  0.
         14    1    1    2    0    0  0.17266535442E-01 -0.21998390397E-01  0.11597293444E-02  0.27989415828E-01  0.00000000000E+00 0. -1.
     999901    1    3    3    0    0 -0.52194305072E-01 -0.90226214977E-02 -0.11414544004E+00  0.88895153673E+00  0.88000000000E+00 0. -1.
        -11    1    4    4    0    0  0.83492510918E-02  0.16664253808E-01  0.13508186834E-01  0.23024760179E-01  0.51100000000E-03 0.  1.
         11    1    4    4    0    0  0.26578518538E-01  0.14356758087E-01  0.99477523862E-01  0.10396428726E+00  0.51100000000E-03 0. -1.
</event>
<event>
 8    1  0.1120016E+005  0.1043930E+01  0.7957747E-01            NaN
         13   -1    0    0    0    0  0.00000000000E+00  0.00000000000E+00  0.74505805969E-08  0.10566000000E+00  0.10566000000E+00 0. -1.
     999900   -1    0    0    0    0 -0.00000000000E+00 -0.00000000000E+00 -0.74505805969E-08  0.93827000000E+00  0.93827000000E+00 0.  1.
     999902    2    1    2    0    0  0.99075164752E-02  0.16157332409E-01 -0.14851470750E-01  0.10198512862E+01  0.10195669971E+01 0.  0.
     999903    2    3    3    0    0 -0.12647615115E+00  0.16617749055E-01 -0.86870515848E-02  0.12932407337E+00  0.19413518375E-01 0.  0.
         14    1    1    2    0    0 -0.99075164752E-02 -0.16157332409E-01  0.14851470750E-01  0.24078713768E-01  0.00000000000E+00 0.  1.
     999901    1    3    3    0    0  0.13638366762E+00 -0.46041664640E-03 -0.61644191650E-02  0.89052721286E+00  0.88000000000E+00 0. -1.
        -11    1    4    4    0    0 -0.10102713907E+00  0.66282731760E-02 -0.24381824657E-02  0.10127498550E+00  0.51100000000E-03 0.  1.
         11    1    4    4    0    0 -0.25449012083E-01  0.99894758791E-02 -0.62488691191E-02  0.28049087875E-01  0.51100000000E-03 0. -1.
</event>
<event>
 8    1  0.1120016E+005  0.1043930E+01  0.7957747E-01            NaN
         13   -1    0    0    0    0  0.00000000000E+00  0.00000000000E+00  0.74505805969E-08  0.10566000000E+00  0.10566000000E+00 0. -1.
     999900   -1    0    0    0    0 -0.00000000000E+00 -0.00000000000E+00 -0.74505805969E-08  0.93827000000E+00  0.93827000000E+00 0. -1.
     999902    2    1    2    0    0  0.29122098897E-02  0.22942753942E-01  0.21802533067E-01  0.10121463348E+01  0.10116471725E+01 0.  0.
     999903    2    3    3    0    0 -0.87211592901E-01  0.87050623102E-01  0.78917475027E-02  0.12511441392E+00  0.20190690269E-01 0.  0.
         14    1    1    2    0    0 -0.29122098897E-02 -0.22942753942E-01 -0.21802533067E-01  0.31783665191E-01  0.00000000000E+00 0.  1.
     999901    1    3    3    0    0  0.90123802791E-01 -0.64107869160E-01  0.13910785564E-01  0.88703192089E+00  0.88000000000E+00 0. -1.
        -11    1    4    4    0    0 -0.61139025663E-01  0.71230927760E-01  0.10719390370E-01  0.94482760224E-01  0.51100000000E-03 0.  1.
         11    1    4    4    0    0 -0.26072567238E-01  0.15819695342E-01 -0.28276428668E-02  0.30631653698E-01  0.51100000000E-03 0. -1.
</event>
<event>
 8    1  0.1120016E+005  0.1043930E+01  0.7957747E-01            NaN
         13   -1    0    0    0    0  0.00000000000E+00  0.00000000000E+00  0.74505805969E-08  0.10566000000E+00  0.10566000000E+00 0. -1.
     999900   -1    0    0    0    0 -0.00000000000E+00 -0.00000000000E+00 -0.74505805969E-08  0.93827000000E+00  0.93827000000E+00 0.  1.
     999902    2    1    2    0    0 -0.19530126126E-01  0.13470352394E-01 -0.26405338173E-02  0.10200584973E+01  0.10197791375E+01 0.  0.
     999903    2    3    3    0    0 -0.10782678268E+00  0.10206771129E-01  0.73787736868E-01  0.13233769040E+00  0.18380450165E-01 0.  0.
         14    1    1    2    0    0  0.19530126126E-01 -0.13470352394E-01  0.26405338173E-02  0.23871502654E-01  0.00000000000E+00 0. -1.
     999901    1    3    3    0    0  0.88296656556E-01  0.32635812648E-02 -0.76428270686E-01  0.88772080694E+00  0.88000000000E+00 0. -1.
        -11    1    4    4    0    0 -0.55776018590E-01 -0.38473826222E-02  0.39090174308E-01  0.68220740623E-01  0.51100000000E-03 0.  1.
         11    1    4    4    0    0 -0.52050764092E-01  0.14054153751E-01  0.34697562560E-01  0.64116949778E-01  0.51100000000E-03 0. -1.
</event>
<event>
 8    1  0.1120016E+005  0.1043930E+01  0.7957747E-01            NaN
         13   -1    0    0    0    0  0.00000000000E+00  0.00000000000E+00  0.74505805969E-08  0.10566000000E+00  0.10566000000E+00 0. -1.
     999900   -1    0    0    0    0 -0.00000000000E+00 -0.00000000000E+00 -0.74505805969E-08  0.93827000000E+00  0.93827000000E+00 0. -1.
     999902    2    1    2    0    0 -0.85771142046E-02 -0.19203679330E-01  0.95155809971E-02  0.10208454929E+01  0.10205844531E+01 0.  0.
     999903    2    3    3    0    0  0.55107856280E-01 -0.12097065903E-01 -0.11512618009E+00  0.12975523480E+00  0.19979208861E-01 0.  0.
         14    1    1    2    0    0  0.85771142046E-02  0.19203679330E-01 -0.95155809971E-02  0.23084507134E-01  0.00000000000E+00 0.  1.
     999901    1    3    3    0    0 -0.63684970485E-01 -0.71066134268E-02  0.12464176109E+00  0.89109025807E+00  0.88000000000E+00 0.  1.
        -11    1    4    4    0    0  0.47641024698E-01 -0.10793915412E-01 -0.79353928302E-01  0.93185207528E-01  0.51100000000E-03 0.  1.
         11    1    4    4    0    0  0.74668315823E-02 -0.13031504913E-02 -0.35772251792E-01  0.36570027268E-01  0.51100000000E-03 0. -1.
</event>
<event>
 8    1  0.1120016E+005  0.1043930E+01  0.7957747E-01            NaN
         13   -1    0    0    0    0  0.00000000000E+00  0.00000000000E+00  0.74505805969E-08  0.10566000000E+00  0.10566000000E+00 0.  1.
     999900   -1    0    0    0    0 -0.00000000000E+00 -0.00000000000E+00 -0.74505805969E-08  0.93827000000E+00  0.93827000000E+00 0. -1.
     999902    2    1    2    0    0  0.23468221364E-01 -0.48639333522E-02 -0.34153258637E-02  0.10197209167E+01  0.10194335036E+01 0.  0.
     999903    2    3    3    0    0  0.61262447190E-01  0.86577174907E-01 -0.74755517101E-01  0.13130699144E+00  0.20110793421E-01 0.  0.
         14    1    1    2    0    0 -0.23468221364E-01  0.48639333522E-02  0.34153258637E-02  0.24209083262E-01  0.00000000000E+00 0.  1.
     999901    1    3    3    0    0 -0.37794225826E-01 -0.91441108259E-01  0.71340191238E-01  0.88841392530E+00  0.88000000000E+00 0.  1.
        -11    1    4    4    0    0  0.29486788914E-01  0.27957438794E-01 -0.35302134073E-01  0.53829275450E-01  0.51100000000E-03 0. -1.
         11    1    4    4    0    0  0.31775658276E-01  0.58619736113E-01 -0.39453383028E-01  0.77477715985E-01  0.51100000000E-03 0.  1.
</event>
<event>
 8    1  0.1120016E+005  0.1043930E+01  0.7957747E-01            NaN
         13   -1    0    0    0    0  0.00000000000E+00  0.00000000000E+00  0.74505805969E-08  0.10566000000E+00  0.10566000000E+00 0. -1.
     999900   -1    0    0    0    0 -0.00000000000E+00 -0.00000000000E+00 -0.74505805969E-08  0.93827000000E+00  0.93827000000E+00 0. -1.
     999902    2    1    2    0    0  0.21217196132E-01  0.48100313205E-02 -0.81342357977E-02  0.10207034720E+01  0.10204391731E+01 0.  0.
     999903    2    3    3    0    0 -0.77394289120E-01 -0.98440084473E-01  0.21795644928E-01  0.12869416192E+00  0.20169555130E-01 0.  0.
         14    1    1    2    0    0 -0.21217196132E-01 -0.48100313205E-02  0.81342357977E-02  0.23226528045E-01  0.00000000000E+00 0. -1.
     999901    1    3    3    0    0  0.98611485252E-01  0.10325011579E+00 -0.29929880726E-01  0.89200931004E+00  0.88000000000E+00 0. -1.
        -11    1    4    4    0    0 -0.19319651266E-01 -0.17318118159E-01 -0.23161701227E-02  0.26053635191E-01  0.51100000000E-03 0.  1.
         11    1    4    4    0    0 -0.58074637854E-01 -0.81121966313E-01  0.24111815051E-01  0.10264052673E+00  0.51100000000E-03 0. -1.
</event>
<event>
 8    1  0.1120016E+005  0.1043930E+01  0.7957747E-01            NaN
         13   -1    0    0    0    0  0.00000000000E+00  0.00000000000E+00  0.74505805969E-08  0.10566000000E+00  0.10566000000E+00 0.  1.
     999900   -1    0    0    0    0 -0.00000000000E+00 -0.00000000000E+00 -0.74505805969E-08  0.93827000000E+00  0.93827000000E+00 0. -1.
     999902    2    1    2    0    0 -0.61100191222E-02  0.10237914114E-01  0.19969536047E-01  0.10206721070E+01  0.10204070856E+01 0.  0.
     999903    2    3    3    0    0 -0.60040018527E-01 -0.10247347540E+00 -0.46475787548E-01  0.12936560345E+00  0.21675874679E-01 0.  0.
         14    1    1    2    0    0  0.61100191222E-02 -0.10237914114E-01 -0.19969536047E-01  0.23257893048E-01  0.00000000000E+00 0. -1.
     999901    1    3    3    0    0  0.53929999405E-01  0.11271138951E+00  0.66445323595E-01  0.89130650350E+00  0.88000000000E+00 0.  1.
        -11    1    4    4    0    0 -0.11403501113E-01 -0.31015791582E-01 -0.21355532881E-01  0.39348939894E-01  0.51100000000E-03 0. -1.
         11    1    4    4    0    0 -0.48636517413E-01 -0.71457683813E-01 -0.25120254667E-01  0.90016663555E-01  0.51100000000E-03 0.  1.
</event>
<event>
 8    1  0.1120016E+005  0.1043930E+01  0.7957747E-01            NaN
         13   -1    0    0    0    0  0.00000000000E+00  0.00000000000E+00  0.74505805969E-08  0.10566000000E+00  0.10566000000E+00 0. -1.
     999900   -1    0    0    0    0 -0.00000000000E+00 -0.00000000000E+00 -0.74505805969E-08  0.93827000000E+00  0.93827000000E+00 0. -1.
     999902    2    1    2    0    0  0.13036797372E-01  0.11545182697E-01 -0.16759769346E-01  0.10197610282E+01  0.10194745781E+01 0.  0.
     999903    2    3    3    0    0  0.37395878016E-01  0.81518552613E-01 -0.96206022539E-01  0.13308107216E+00  0.20279222890E-01 0.  0.
         14    1    1    2    0    0 -0.13036797372E-01 -0.11545182697E-01  0.16759769346E-01  0.24168971797E-01  0.00000000000E+00 0. -1.
     999901    1    3    3    0    0 -0.24359080644E-01 -0.69973369916E-01  0.79446253193E-01  0.88667995605E+00  0.88000000000E+00 0. -1.
        -11    1    4    4    0    0  0.13301170821E-01  0.43063767675E-01 -0.59891064788E-01  0.74957387854E-01  0.51100000000E-03 0. -1.
         11    1    4    4    0    0  0.24094707194E-01  0.38454784938E-01 -0.36314957751E-01  0.58123684302E-01  0.51100000000E-03 0.  1.
</event>
<event>
 8    1  0.1120016E+005  0.1043930E+01  0.7957747E-01            NaN
         13   -1    0    0    0    0  0.00000000000E+00  0.00000000000E+00  0.74505805969E-08  0.10566000000E+00  0.10566000000E+00 0.  1.
     999900   -1    0    0    0    0 -0.00000000000E+00 -0.00000000000E+00 -0.74505805969E-08  0.93827000000E+00  0.93827000000E+00 0.  1.
     999902    2    1    2    0    0 -0.32320080286E-03 -0.58286337442E-02 -0.22393917487E-01  0.10207877233E+01  0.10205253603E+01 0.  0.
     999903    2    3    3    0    0 -0.11256106841E+00 -0.52495993255E-02  0.61137455100E-01  0.12973488289E+00  0.19894697978E-01 0.  0.
         14    1    1    2    0    0  0.32320080286E-03  0.58286337442E-02  0.22393917487E-01  0.23142276692E-01  0.00000000000E+00 0.  1.
     999901    1    3    3    0    0  0.11223786761E+00 -0.57903441870E-03 -0.83531372587E-01  0.89105284042E+00  0.88000000000E+00 0. -1.
        -11    1    4    4    0    0 -0.61904399364E-01 -0.82624288398E-02  0.43067831113E-01  0.75865153982E-01  0.51100000000E-03 0. -1.
         11    1    4    4    0    0 -0.50656669049E-01  0.30128295143E-02  0.18069623987E-01  0.53869728911E-01  0.51100000000E-03 0.  1.
</event>
<event>
 8    1  0.1120016E+005  0.1043930E+01  0.7957747E-01            NaN
         13   -1    0    0    0    0  0.00000000000E+00  0.00000000000E+00  0.74505805969E-08  0.10566000000E+00  0.10566000000E+00 0.  1.
     999900   -1    0    0    0    0 -0.00000000000E+00 -0.00000000000E+00 -0.74505805969E-08  0.93827000000E+00  0.93827000000E+00 0.  1.
     999902    2    1    2    0    0  0.17887873900E-01 -0.99072493598E-02  0.12519768157E-01  0.10199534653E+01  0.10196716124E+01 0.  0.
     999903    2    3    3    0    0 -0.67637989543E-01 -0.29375436175E-02 -0.10654042043E+00  0.12779956677E+00  0.19958489137E-01 0.  0.
         14    1    1    2    0    0 -0.17887873900E-01  0.99072493598E-02 -0.12519768157E-01  0.23976534721E-01  0.00000000000E+00 0. -1.
     999901    1    3    3    0    0  0.85525863443E-01 -0.69697057423E-02  0.11906018859E+00  0.89215389851E+00  0.88000000000E+00 0. -1.
        -11    1    4    4    0    0 -0.18933663215E-01 -0.74949234937E-02 -0.43252108381E-01  0.47808613046E-01  0.51100000000E-03 0. -1.
         11    1    4    4    0    0 -0.48704326328E-01  0.45573798762E-02 -0.63288312052E-01  0.79990953725E-01  0.51100000000E-03 0.  1.
</event>
<event>
 8    1  0.1120016E+005  0.1043930E+01  0.7957747E-01            NaN
         13   -1    0    0    0    0  0.00000000000E+00  0.00000000000E+00  0.74505805969E-08  0.10566000000E+00  0.10566000000E+00 0. -1.
     999900   -1    0    0    0    0 -0.00000000000E+00 -0.00000000000E+00 -0.74505805969E-08  0.93827000000E+00  0.93827000000E+00 0. -1.
     999902    2    1    2    0    0  0.34471070161E-02 -0.18275224660E-01 -0.12719931587E-01  0.10213986209E+01  0.10211500770E+01 0.  0.
     999903    2    3    3    0    0  0.37687592699E-01 -0.12578322944E+00  0.15281884407E-01  0.13375314911E+00  0.20361568044E-01 0.  0.
         14    1    1    2    0    0 -0.34471070161E-02  0.18275224660E-01  0.12719931587E-01  0.22531379069E-01  0.00000000000E+00 0. -1.
     999901    1    3    3    0    0 -0.34240485683E-01  0.10750800478E+00 -0.28001815994E-01  0.88764547182E+00  0.88000000000E+00 0. -1.
        -11    1    4    4    0    0  0.69899099785E-02 -0.53574776157E-01  0.11218124386E-01  0.55183538465E-01  0.51100000000E-03 0.  1.
         11    1    4    4    0    0  0.30697682720E-01 -0.72208453283E-01  0.40637600211E-02  0.78569610642E-01  0.51100000000E-03 0. -1.
</event>
<event>
 8    1  0.1120016E+005  0.1043930E+01  0.7957747E-01            NaN
         13   -1    0    0    0    0  0.00000000000E+00  0.00000000000E+00  0.74505805969E-08  0.10566000000E+00  0.10566000000E+00 0.  1.
     999900   -1    0    0    0    0 -0.00000000000E+00 -0.00000000000E+00 -0.74505805969E-08  0.93827000000E+00  0.93827000000E+00 0. -1.
     999902    2    1    2    0    0  0.18339557948E-01  0.15423947177E-01 -0.13365290530E-02  0.10199295033E+01  0.10196470800E+01 0.  0.
     999903    2    3    3    0    0  0.16138951768E-01 -0.11328791221E+00 -0.55745192979E-01  0.12890094700E+00  0.20330046258E-01 0.  0.
         14    1    1    2    0    0 -0.18339557948E-01 -0.15423947177E-01  0.13365290530E-02  0.24000496707E-01  0.00000000000E+00 0.  1.
     999901    1    3    3    0    0  0.22006061805E-02  0.12871185939E+00  0.54408663926E-01  0.89102855629E+00  0.88000000000E+00 0. -1.
        -11    1    4    4    0    0  0.15044332886E-01 -0.51163196641E-01 -0.18459126535E-01  0.56435849564E-01  0.51100000000E-03 0.  1.
         11    1    4    4    0    0  0.10946188819E-02 -0.62124715569E-01 -0.37286066444E-01  0.72465097439E-01  0.51100000000E-03 0. -1.
</event>
<event>
 8    1  0.1120016E+005  0.1043930E+01  0.7957747E-01            NaN
         13   -1    0    0    0    0  0.00000000000E+00  0.00000000000E+00  0.74505805969E-08  0.10566000000E+00  0.10566000000E+00 0.  1.
     999900   -1    0    0    0    0 -0.00000000000E+00 -0.00000000000E+00 -0.74505805969E-08  0.93827000000E+00  0.93827000000E+00 0. -1.
     999902    2    1    2    0    0 -0.18389514831E-01  0.23530148056E-01 -0.14276639814E-01  0.10108291757E+01  0.10102870671E+01 0.  0.
     999903    2    3    3    0    0  0.58722801739E-01 -0.99384487987E-01  0.15972127792E-01  0.11843391293E+00  0.21114899218E-01 0.  0.
         14    1    1    2    0    0  0.18389514831E-01 -0.23530148056E-01  0.14276639814E-01  0.33100824274E-01  0.00000000000E+00 0.  1.
     999901    1    3    3    0    0 -0.77112316569E-01  0.12291463604E+00 -0.30248767606E-01  0.89239526280E+00  0.88000000000E+00 0.  1.
        -11    1    4    4    0    0  0.25445059687E-01 -0.30615711671E-01 -0.23046219468E-02  0.39879133227E-01  0.51100000000E-03 0.  1.
         11    1    4    4    0    0  0.33277742051E-01 -0.68768776316E-01  0.18276749739E-01  0.78554779702E-01  0.51100000000E-03 0. -1.
</event>
<event>
 8    1  0.1120016E+005  0.1043930E+01  0.7957747E-01            NaN
         13   -1    0    0    0    0  0.00000000000E+00  0.00000000000E+00  0.74505805969E-08  0.10566000000E+00  0.10566000000E+00 0.  1.
     999900   -1    0    0    0    0 -0.00000000000E+00 -0.00000000000E+00 -0.74505805969E-08  0.93827000000E+00  0.93827000000E+00 0. -1.
     999902    2    1    2    0    0  0.58791133439E-02  0.14268567206E-01 -0.18666722649E-01  0.10197101214E+01  0.10194224488E+01 0.  0.
     999903    2    3    3    0    0  0.10495499762E+00  0.72379889226E-01 -0.28097009393E-01  0.13219567822E+00  0.20781133550E-01 0.  0.
         14    1    1    2    0    0 -0.58791133439E-02 -0.14268567206E-01  0.18666722649E-01  0.24219878576E-01  0.00000000000E+00 0.  1.
     999901    1    3    3    0    0 -0.99075884280E-01 -0.58111322020E-01  0.94302867448E-02  0.88751444321E+00  0.88000000000E+00 0. -1.
        -11    1    4    4    0    0  0.51260365751E-01  0.23346924631E-01 -0.93242448674E-02  0.57095592212E-01  0.51100000000E-03 0.  1.
         11    1    4    4    0    0  0.53694631873E-01  0.49032964595E-01 -0.18772764526E-01  0.75100086005E-01  0.51100000000E-03 0. -1.
</event>
<event>
 8    1  0.1120016E+005  0.1043930E+01  0.7957747E-01            NaN
         13   -1    0    0    0    0  0.00000000000E+00  0.00000000000E+00  0.74505805969E-08  0.10566000000E+00  0.10566000000E+00 0.  1.
     999900   -1    0    0    0    0 -0.00000000000E+00 -0.00000000000E+00 -0.74505805969E-08  0.93827000000E+00  0.93827000000E+00 0.  1.
     999902    2    1    2    0    0  0.11895190864E-01  0.20108431843E-01  0.36779818030E-02  0.10202789504E+01  0.10200047865E+01 0.  0.
     999903    2    3    3    0    0 -0.10389956816E+00  0.28436085525E-01  0.70677920833E-01  0.13012909343E+00  0.18288828291E-01 0.  0.
         14    1    1    2    0    0 -0.11895190864E-01 -0.20108431843E-01 -0.36779818030E-02  0.23651049597E-01  0.00000000000E+00 0. -1.
     999901    1    3    3    0    0  0.11579475903E+00 -0.83276536823E-02 -0.66999939030E-01  0.89014985697E+00  0.88000000000E+00 0.  1.
        -11    1    4    4    0    0 -0.37984464183E-01  0.83987002918E-02  0.15569597984E-01  0.41905025811E-01  0.51100000000E-03 0.  1.
         11    1    4    4    0    0 -0.65915103979E-01  0.20037385234E-01  0.55108322849E-01  0.88224067622E-01  0.51100000000E-03 0. -1.
</event>
<event>
 7    1  0.1120016E+005  0.1043930E+01  0.7957747E-01            NaN
         13   -1    0    0    0    0  0.00000000000E+00  0.00000000000E+00  0.74505805969E-08  0.10566000000E+00  0.10566000000E+00 0.  1.
     999900   -1    0    0    0    0 -0.00000000000E+00 -0.00000000000E+00 -0.74505805969E-08  0.93827000000E+00  0.93827000000E+00 0. -1.
     999903    2    1    2    0    0  0.70279100919E-01 -0.30786058982E-01 -0.85963252348E-01  0.11725605686E+00  0.21734043838E-01 0.  0.
         14    1    1    2    0    0  0.98544293523E-02  0.37194032786E-01  0.99704673884E-02  0.39748158105E-01  0.00000000000E+00 0.  1.
     999901    1    1    2    0    0 -0.80133530271E-01 -0.64079738046E-02  0.75992784959E-01  0.88692578504E+00  0.88000000000E+00 0.  1.
        -11    1    3    3    0    0  0.48726503567E-01 -0.19760793255E-01 -0.42948024309E-01  0.67893703780E-01  0.51100000000E-03 0.  1.
         11    1    3    3    0    0  0.21552597352E-01 -0.11025265727E-01 -0.43015228039E-01  0.49362353076E-01  0.51100000000E-03 0. -1.
</event>
<event>
 8    1  0.1120016E+005  0.1043930E+01  0.7957747E-01            NaN
         13   -1    0    0    0    0  0.00000000000E+00  0.00000000000E+00  0.74505805969E-08  0.10566000000E+00  0.10566000000E+00 0. -1.
     999900   -1    0    0    0    0 -0.00000000000E+00 -0.00000000000E+00 -0.74505805969E-08  0.93827000000E+00  0.93827000000E+00 0.  1.
     999902    2    1    2    0    0 -0.48495689788E-02  0.12390865996E-01 -0.18568573033E-01  0.10210860996E+01  0.10208305340E+01 0.  0.
     999903    2    3    3    0    0  0.11910139848E+00 -0.27131309773E-01 -0.43437467889E-01  0.13117357211E+00  0.19960994781E-01 0.  0.
         14    1    1    2    0    0  0.48495689788E-02 -0.12390865996E-01  0.18568573033E-01  0.22843900365E-01  0.00000000000E+00 0. -1.
     999901    1    3    3    0    0 -0.12395096746E+00  0.39522175769E-01  0.24868894856E-01  0.88991252752E+00  0.88000000000E+00 0.  1.
        -11    1    4    4    0    0  0.72112673690E-01 -0.23534519429E-01 -0.19548665068E-01  0.78335960697E-01  0.51100000000E-03 0. -1.
         11    1    4    4    0    0  0.46988724795E-01 -0.35967903439E-02 -0.23888802821E-01  0.52837611413E-01  0.51100000000E-03 0.  1.
</event>
<event>
 8    1  0.1120016E+005  0.1043930E+01  0.7957747E-01            NaN
         13   -1    0    0    0    0  0.00000000000E+00  0.00000000000E+00  0.74505805969E-08  0.10566000000E+00  0.10566000000E+00 0.  1.
     999900   -1    0    0    0    0 -0.00000000000E+00 -0.00000000000E+00 -0.74505805969E-08  0.93827000000E+00  0.93827000000E+00 0. -1.
     999902    2    1    2    0    0 -0.85723930941E-03 -0.18077684075E-01 -0.15923783711E-01  0.10198238927E+01  0.10195389486E+01 0.  0.
     999903    2    3    3    0    0  0.26529413121E-01 -0.11870386974E+00  0.38391393638E-01  0.13200307945E+00  0.34007284907E-01 0.  0.
         14    1    1    2    0    0  0.85723930941E-03  0.18077684075E-01  0.15923783711E-01  0.24106107285E-01  0.00000000000E+00 0.  1.
     999901    1    3    3    0    0 -0.27386652430E-01  0.10062618567E+00 -0.54315177349E-01  0.88782081326E+00  0.88000000000E+00 0. -1.
        -11    1    4    4    0    0  0.16685599725E-01 -0.10758852696E+00  0.42031278730E-01  0.11670728291E+00  0.51100000000E-03 0. -1.
         11    1    4    4    0    0  0.98438133964E-02 -0.11115342785E-01 -0.36398850921E-02  0.15295796543E-01  0.51100000000E-03 0.  1.
</event>
<event>
 8    1  0.1120016E+005  0.1043930E+01  0.7957747E-01            NaN
         13   -1    0    0    0    0  0.00000000000E+00  0.00000000000E+00  0.74505805969E-08  0.10566000000E+00  0.10566000000E+00 0.  1.
     999900   -1    0    0    0    0 -0.00000000000E+00 -0.00000000000E+00 -0.74505805969E-08  0.93827000000E+00  0.93827000000E+00 0.  1.
     999902    2    1    2    0    0  0.17294949521E-01  0.53804220461E-03  0.25576971102E-02  0.10264386712E+01  0.10262896273E+01 0.  0.
     999903    2    3    3    0    0  0.21924089724E-02  0.13329684817E+00 -0.18547179069E-01  0.13610255317E+00  0.20175498490E-01 0.  0.
         14    1    1    2    0    0 -0.17294949521E-01 -0.53804220461E-03 -0.25576971102E-02  0.17491328790E-01  0.00000000000E+00 0.  1.
     999901    1    3    3    0    0  0.15102540549E-01 -0.13275880596E+00  0.21104876180E-01  0.89033611804E+00  0.88000000000E+00 0.  1.
        -11    1    4    4    0    0  0.36968109802E-02  0.34810411646E-01 -0.13341547874E-01  0.37465840322E-01  0.51100000000E-03 0.  1.
         11    1    4    4    0    0 -0.15044020078E-02  0.98486436520E-01 -0.52056311950E-02  0.98636712845E-01  0.51100000000E-03 0. -1.
</event>
<event>
 8    1  0.1120016E+005  0.1043930E+01  0.7957747E-01            NaN
         13   -1    0    0    0    0  0.00000000000E+00  0.00000000000E+00  0.74505805969E-08  0.10566000000E+00  0.10566000000E+00 0. -1.
     999900   -1    0    0    0    0 -0.00000000000E+00 -0.00000000000E+00 -0.74505805969E-08  0.93827000000E+00  0.93827000000E+00 0.  1.
     999902    2    1    2    0    0  0.48015929792E-02 -0.35792603467E-02 -0.24769540010E-01  0.10184467406E+01  0.10181278735E+01 0.  0.
     999903    2    3    3    0    0 -0.77179898210E-01  0.99249232453E-01 -0.18952032082E-01  0.12865546883E+00  0.19644421865E-01 0.  0.
         14    1    1    2    0    0 -0.48015929792E-02  0.35792603467E-02  0.24769540010E-01  0.25483259448E-01  0.00000000000E+00 0. -1.
     999901    1    3    3    0    0  0.81981491189E-01 -0.10282849280E+00 -0.58175079281E-02  0.88979127172E+00  0.88000000000E+00 0. -1.
        -11    1    4    4    0    0 -0.47611162322E-01  0.45394752469E-01 -0.84968974433E-02  0.66332229848E-01  0.51100000000E-03 0. -1.
         11    1    4    4    0    0 -0.29568735888E-01  0.53854479983E-01 -0.10455134639E-01  0.62323238985E-01  0.51100000000E-03 0.  1.
</event>
<event>
 8    1  0.1120016E+005  0.1043930E+01  0.7957747E-01            NaN
         13   -1    0    0    0    0  0.00000000000E+00  0.00000000000E+00  0.74505805969E-08  0.10566000000E+00  0.10566000000E+00 0. -1.
     999900   -1    0    0    0    0 -0.00000000000E+00 -0.00000000000E+00 -0.74505805969E-08  0.93827000000E+00  0.93827000000E+00 0. -1.
     999902    2    1    2    0    0  0.21602620232E-02  0.78464182486E-02 -0.22866111529E-01  0.10196587811E+01  0.10193698729E+01 0.  0.
     999903    2    3    3    0    0 -0.32774101695E-01  0.35796561790E-01 -0.12210342734E+00  0.13295157735E+00  0.20281503275E-01 0.  0.
         14    1    1    2    0    0 -0.21602620232E-02 -0.78464182486E-02  0.22866111529E-01  0.24271218918E-01  0.00000000000E+00 0. -1.
     999901    1    3    3    0    0  0.34934363718E-01 -0.27950143542E-01  0.99237315811E-01  0.88670720373E+00  0.88000000000E+00 0.  1.
        -11    1    4    4    0    0 -0.19265474017E-01  0.80894209690E-02 -0.37889708324E-01  0.43272258302E-01  0.51100000000E-03 0. -1.
         11    1    4    4    0    0 -0.13508627678E-01  0.27707140821E-01 -0.84213719016E-01  0.89679319053E-01  0.51100000000E-03 0.  1.
</event>
<event>
 8    1  0.1120016E+005  0.1043930E+01  0.7957747E-01            NaN
         13   -1    0    0    0    0  0.00000000000E+00  0.00000000000E+00  0.74505805969E-08  0.10566000000E+00  0.10566000000E+00 0. -1.
     999900   -1    0    0    0    0 -0.00000000000E+00 -0.00000000000E+00 -0.74505805969E-08  0.93827000000E+00  0.93827000000E+00 0. -1.
     999902    2    1    2    0    0 -0.87115433272E-02  0.24099891297E-01 -0.57757231398E-03  0.10182974165E+01  0.10179747537E+01 0.  0.
     999903    2    3    3    0    0  0.20509431436E-01  0.12857635892E+00 -0.20170943905E-03  0.13163550859E+00  0.19373940787E-01 0.  0.
         14    1    1    2    0    0  0.87115433272E-02 -0.24099891297E-01  0.57757231398E-03  0.25632583511E-01  0.00000000000E+00 0.  1.
     999901    1    3    3    0    0 -0.29220974763E-01 -0.10447646763E+00 -0.37586287493E-03  0.88666190790E+00  0.88000000000E+00 0.  1.
        -11    1    4    4    0    0  0.17144665086E-01  0.95559795541E-01  0.80917130529E-02  0.97423564941E-01  0.51100000000E-03 0. -1.
         11    1    4    4    0    0  0.33647663499E-02  0.33016563384E-01 -0.82934224919E-02  0.34211943644E-01  0.51100000000E-03 0.  1.
</event>
<event>
 8    1  0.1120016E+005  0.1043930E+01  0.7957747E-01            NaN
         13   -1    0    0    0    0  0.00000000000E+00  0.00000000000E+00  0.74505805969E-08  0.10566000000E+00  0.10566000000E+00 0. -1.
     999900   -1    0    0    0    0 -0.00000000000E+00 -0.00000000000E+00 -0.74505805969E-08  0.93827000000E+00  0.93827000000E+00 0.  1.
     999902    2    1    2    0    0  0.74211179185E-02  0.14437592751E-01 -0.15074607265E-01  0.10217768770E+01  0.10215366980E+01 0.  0.
     999903    2    3    3    0    0 -0.95279207888E-01  0.24920929349E-01  0.82027809875E-01  0.13043735879E+00  0.24210799225E-01 0.  0.
         14    1    1    2    0    0 -0.74211179185E-02 -0.14437592751E-01  0.15074607265E-01  0.22153123026E-01  0.00000000000E+00 0. -1.
     999901    1    3    3    0    0  0.10270032581E+00 -0.10483336597E-01 -0.97102417140E-01  0.89133951819E+00  0.88000000000E+00 0.  1.
        -11    1    4    4    0    0 -0.47502924790E-01  0.11244147810E-01  0.25182891708E-01  0.54930846337E-01  0.51100000000E-03 0. -1.
         11    1    4    4    0    0 -0.47776283099E-01  0.13676781539E-01  0.56844918167E-01  0.75506512450E-01  0.51100000000E-03 0.  1.
</event>
<event>
 8    1  0.1120016E+005  0.1043930E+01  0.7957747E-01            NaN
         13   -1    0    0    0    0  0.00000000000E+00  0.00000000000E+00  0.74505805969E-08  0.10566000000E+00  0.10566000000E+00 0.  1.
     999900   -1    0    0    0    0 -0.00000000000E+00 -0.00000000000E+00 -0.74505805969E-08  0.93827000000E+00  0.93827000000E+00 0.  1.
     999902    2    1    2    0    0  0.69928814011E-02  0.31308287352E-01 -0.10872052966E-01  0.10100580236E+01  0.10094899209E+01 0.  0.
     999903    2    3    3    0    0 -0.11350591650E+00  0.28022751001E-01  0.24632611417E-01  0.12113095338E+00  0.19926732487E-01 0.  0.
         14    1    1    2    0    0 -0.69928814011E-02 -0.31308287352E-01  0.10872052966E-01  0.33871976365E-01  0.00000000000E+00 0.  1.
     999901    1    3    3    0    0  0.12049879790E+00  0.32855363507E-02 -0.35504664383E-01  0.88892707026E+00  0.88000000000E+00 0. -1.
        -11    1    4    4    0    0 -0.48426019762E-01  0.18880485347E-02  0.10327416372E-01  0.49553615077E-01  0.51100000000E-03 0.  1.
         11    1    4    4    0    0 -0.65079896734E-01  0.26134702466E-01  0.14305195045E-01  0.71577338300E-01  0.51100000000E-03 0. -1.
</event>
<event>
 8    1  0.1120016E+005  0.1043930E+01  0.7957747E-01            NaN
         13   -1    0    0    0    0  0.00000000000E+00  0.00000000000E+00  0.74505805969E-08  0.10566000000E+00  0.10566000000E+00 0.  1.
     999900   -1    0    0    0    0 -0.00000000000E+00 -0.00000000000E+00 -0.74505805969E-08  0.93827000000E+00  0.93827000000E+00 0. -1.
     999902    2    1    2    0    0 -0.22281345901E-01 -0.34553400913E-02  0.61163768748E-02  0.10205674698E+01  0.10203000307E+01 0.  0.
     999903    2    3    3    0    0 -0.92321868801E-01  0.91757163037E-01 -0.12205057177E-01  0.13247582447E+00  0.21405051281E-01 0.  0.
         14    1    1    2    0    0  0.22281345901E-01  0.34553400913E-02 -0.61163768748E-02  0.23362530179E-01  0.00000000000E+00 0. -1.
     999901    1    3    3    0    0  0.70040522900E-01 -0.95212503128E-01  0.18321434052E-01  0.88809164535E+00  0.88000000000E+00 0.  1.
        -11    1    4    4    0    0 -0.23481507821E-02  0.16396731613E-02 -0.38931780212E-02  0.48600716328E-02  0.51100000000E-03 0.  1.
         11    1    4    4    0    0 -0.89973718019E-01  0.90117489875E-01 -0.83118791558E-02  0.12761575284E+00  0.51100000000E-03 0. -1.
</event>
<event>
 8    1  0.1120016E+005  0.1043930E+01  0.7957747E-01            NaN
         13   -1    0    0    0    0  0.00000000000E+00  0.00000000000E+00  0.74505805969E-08  0.10566000000E+00  0.10566000000E+00 0. -1.
     999900   -1    0    0    0    0 -0.00000000000E+00 -0.00000000000E+00 -0.74505805969E-08  0.93827000000E+00  0.93827000000E+00 0.  1.
     999902    2    1    2    0    0 -0.30628330760E-01  0.85806709257E-02 -0.18648858667E-01  0.10070585681E+01  0.10063833550E+01 0.  0.
     999903    2    3    3    0    0 -0.56735007071E-01  0.95652369707E-01 -0.46437488685E-01  0.12193979235E+00  0.18564367621E-01 0.  0.
         14    1    1    2    0    0  0.30628330760E-01 -0.85806709257E-02  0.18648858667E-01  0.36871431872E-01  0.00000000000E+00 0.  1.
     999901    1    3    3    0    0  0.26106676311E-01 -0.87071698781E-01  0.27788630018E-01  0.88511877578E+00  0.88000000000E+00 0. -1.
        -11    1    4    4    0    0 -0.30752616296E-01  0.37425562093E-01 -0.14140798842E-01  0.50464040861E-01  0.51100000000E-03 0. -1.
         11    1    4    4    0    0 -0.25982390775E-01  0.58226807613E-01 -0.32296689843E-01  0.71475751490E-01  0.51100000000E-03 0.  1.
</event>
<event>
 8    1  0.1120016E+005  0.1043930E+01  0.7957747E-01            NaN
         13   -1    0    0    0    0  0.00000000000E+00  0.00000000000E+00  0.74505805969E-08  0.10566000000E+00  0.10566000000E+00 0. -1.
     999900   -1    0    0    0    0 -0.00000000000E+00 -0.00000000000E+00 -0.74505805969E-08  0.93827000000E+00  0.93827000000E+00 0. -1.
     999902    2    1    2    0    0 -0.83725992651E-02  0.13339883961E-01 -0.16943790474E-01  0.10207967997E+01  0.10205346448E+01 0.  0.
     999903    2    3    3    0    0 -0.60508223936E-01  0.99029873253E-01  0.59661086872E-01  0.13179218501E+00  0.18481714837E-01 0.  0.
         14    1    1    2    0    0  0.83725992651E-02 -0.13339883961E-01  0.16943790474E-01  0.23133200344E-01  0.00000000000E+00 0. -1.
     999901    1    3    3    0    0  0.52135624671E-01 -0.85689989292E-01 -0.76604877345E-01  0.88900461464E+00  0.88000000000E+00 0. -1.
        -11    1    4    4    0    0 -0.11127195496E-01  0.27706497323E-01  0.22630022850E-01  0.37467899978E-01  0.51100000000E-03 0.  1.
         11    1    4    4    0    0 -0.49381028440E-01  0.71323375930E-01  0.37031064021E-01  0.94324285035E-01  0.51100000000E-03 0. -1.
</event>
<event>
 8    1  0.1120016E+005  0.1043930E+01  0.7957747E-01            NaN
         13   -1    0    0    0    0  0.00000000000E+00  0.00000000000E+00  0.74505805969E-08  0.10566000000E+00  0.10566000000E+00 0. -1.
     999900   -1    0    0    0    0 -0.00000000000E+00 -0.00000000000E+00 -0.74505805969E-08  0.93827000000E+00  0.93827000000E+00 0. -1.
     999902    2    1    2    0    0  0.14025243356E-01 -0.17110950803E-01  0.50240930408E-02  0.10212422588E+01  0.10209902143E+01 0.  0.
     999903    2    3    3    0    0  0.57689385482E-01 -0.11922612770E+00  0.11122810064E-01  0.13424098430E+00  0.18814628331E-01 0.  0.
         14    1    1    2    0    0 -0.14025243356E-01  0.17110950803E-01 -0.50240930408E-02  0.22687741171E-01  0.00000000000E+00 0.  1.
     999901    1    3    3    0    0 -0.43664142126E-01  0.10211517690E+00 -0.60987170231E-02  0.88700127453E+00  0.88000000000E+00 0. -1.
        -11    1    4    4    0    0  0.33237572826E-01 -0.54932038772E-01  0.12622900733E-01  0.65435952464E-01  0.51100000000E-03 0.  1.
         11    1    4    4    0    0  0.24451812656E-01 -0.64294088929E-01 -0.15000906693E-02  0.68805031839E-01  0.51100000000E-03 0. -1.
</event>
<event>
 8    1  0.1120016E+005  0.1043930E+01  0.7957747E-01            NaN
         13   -1    0    0    0    0  0.00000000000E+00  0.00000000000E+00  0.74505805969E-08  0.10566000000E+00  0.10566000000E+00 0.  1.
     999900   -1    0    0    0    0 -0.00000000000E+00 -0.00000000000E+00 -0.74505805969E-08  0.93827000000E+00  0.93827000000E+00 0.  1.
     999902    2    1    2    0    0  0.79687287465E-02 -0.12617264469E-01 -0.16921150660E-01  0.10213684987E+01  0.10211192824E+01 0.  0.
     999903    2    3    3    0    0 -0.37229921039E-02  0.71099233966E-01  0.10546341132E+00  0.12888705383E+00  0.20503165073E-01 0.  0.
         14    1    1    2    0    0 -0.79687287465E-02  0.12617264469E-01  0.16921150660E-01  0.22561501284E-01  0.00000000000E+00 0.  1.
     999901    1    3    3    0    0  0.11691720850E-01 -0.83716498435E-01 -0.12238456198E+00  0.89248144488E+00  0.88000000000E+00 0.  1.
        -11    1    4    4    0    0  0.13002470071E-02  0.24531728917E-01  0.53831451920E-01  0.59174172598E-01  0.51100000000E-03 0. -1.
         11    1    4    4    0    0 -0.50232391110E-02  0.46567505049E-01  0.51631959401E-01  0.69712881236E-01  0.51100000000E-03 0.  1.
</event>
<event>
 8    1  0.1120016E+005  0.1043930E+01  0.7957747E-01            NaN
         13   -1    0    0    0    0  0.00000000000E+00  0.00000000000E+00  0.74505805969E-08  0.10566000000E+00  0.10566000000E+00 0.  1.
     999900   -1    0    0    0    0 -0.00000000000E+00 -0.00000000000E+00 -0.74505805969E-08  0.93827000000E+00  0.93827000000E+00 0. -1.
     999902    2    1    2    0    0 -0.13523735256E-01  0.91111669422E-02  0.18656379465E-01  0.10191516774E+01  0.10188504189E+01 0.  0.
     999903    2    3    3    0    0  0.59029948998E-01  0.82914949246E-02 -0.11028290242E+00  0.12680082294E+00  0.19048526613E-01 0.  0.
         14    1    1    2    0    0  0.13523735256E-01 -0.91111669422E-02 -0.18656379465E-01  0.24778322644E-01  0.00000000000E+00 0. -1.
     999901    1    3    3    0    0 -0.72553684253E-01  0.81967201759E-03  0.12893928188E+00  0.89235085441E+00  0.88000000000E+00 0.  1.
        -11    1    4    4    0    0  0.23975857836E-01  0.10098553614E-01 -0.33880815383E-01  0.42719940497E-01  0.51100000000E-03 0.  1.
         11    1    4    4    0    0  0.35054091161E-01 -0.18070586895E-02 -0.76402087036E-01  0.84080882445E-01  0.51100000000E-03 0. -1.
</event>
<event>
 8    1  0.1120016E+005  0.1043930E+01  0.7957747E-01            NaN
         13   -1    0    0    0    0  0.00000000000E+00  0.00000000000E+00  0.74505805969E-08  0.10566000000E+00  0.10566000000E+00 0.  1.
     999900   -1    0    0    0    0 -0.00000000000E+00 -0.00000000000E+00 -0.74505805969E-08  0.93827000000E+00  0.93827000000E+00 0. -1.
     999902    2    1    2    0    0  0.18439852771E-01  0.16905960805E-01 -0.10057269271E-02  0.10188930040E+01  0.10185853437E+01 0.  0.
     999903    2    3    3    0    0 -0.23186098840E-01 -0.99959709657E-01 -0.72703931710E-01  0.12730400827E+00  0.19771446608E-01 0.  0.
         14    1    1    2    0    0 -0.18439852771E-01 -0.16905960805E-01  0.10057269271E-02  0.25036995978E-01  0.00000000000E+00 0.  1.
     999901    1    3    3    0    0  0.41625951611E-01  0.11686567046E+00  0.71698204783E-01  0.89158899575E+00  0.88000000000E+00 0.  1.
        -11    1    4    4    0    0 -0.24865267620E-01 -0.74534876326E-01 -0.59772633036E-01  0.98725670946E-01  0.51100000000E-03 0. -1.
         11    1    4    4    0    0  0.16791687800E-02 -0.25424833330E-01 -0.12931298674E-01  0.28578337322E-01  0.51100000000E-03 0.  1.
</event>
<event>
 8    1  0.1120016E+005  0.1043930E+01  0.7957747E-01            NaN
         13   -1    0    0    0    0  0.00000000000E+00  0.00000000000E+00  0.74505805969E-08  0.10566000000E+00  0.10566000000E+00 0.  1.
     999900   -1    0    0    0    0 -0.00000000000E+00 -0.00000000000E+00 -0.74505805969E-08  0.93827000000E+00  0.93827000000E+00 0. -1.
     999902    2    1    2    0    0  0.11698519119E-01  0.21033188830E-01  0.75419249140E-03  0.10198505650E+01  0.10195662587E+01 0.  0.
     999903    2    3    3    0    0  0.12697475287E-02  0.13009287582E+00  0.18375024077E-01  0.13288198143E+00  0.19854744528E-01 0.  0.
         14    1    1    2    0    0 -0.11698519119E-01 -0.21033188830E-01 -0.75419249140E-03  0.24079434965E-01  0.00000000000E+00 0.  1.
     999901    1    3    3    0    0  0.10428771590E-01 -0.10905968699E+00 -0.17620831585E-01  0.88696858361E+00  0.88000000000E+00 0. -1.
        -11    1    4    4    0    0 -0.43387080372E-02  0.47276008233E-01  0.15055996580E-01  0.49807524490E-01  0.51100000000E-03 0.  1.
         11    1    4    4    0    0  0.56084555659E-02  0.82816867586E-01  0.33190274968E-02  0.83074456936E-01  0.51100000000E-03 0. -1.
</event>
<event>
 8    1  0.1120016E+005  0.1043930E+01  0.7957747E-01            NaN
         13   -1    0    0    0    0  0.00000000000E+00  0.00000000000E+00  0.74505805969E-08  0.10566000000E+00  0.10566000000E+00 0. -1.
     999900   -1    0    0    0    0 -0.00000000000E+00 -0.00000000000E+00 -0.74505805969E-08  0.93827000000E+00  0.93827000000E+00 0. -1.
     999902    2    1    2    0    0 -0.32044690639E-03  0.12577981840E-01 -0.18531551114E-01  0.10215307433E+01  0.10212851379E+01 0.  0.
     999903    2    3    3    0    0  0.10939321220E+00 -0.70479080391E-01 -0.77571527909E-02  0.13077171291E+00  0.10338850521E-01 0.  0.
         14    1    1    2    0    0  0.32044690639E-03 -0.12577981840E-01  0.18531551114E-01  0.22399256686E-01  0.00000000000E+00 0.  1.
     999901    1    3    3    0    0 -0.10971365911E+00  0.83057062231E-01 -0.10774398323E-01  0.89075903040E+00  0.88000000000E+00 0. -1.
        -11    1    4    4    0    0  0.85139963524E-01 -0.56798264031E-01 -0.21964659112E-02  0.10237158673E+00  0.51100000000E-03 0. -1.
         11    1    4    4    0    0  0.24253248678E-01 -0.13680816360E-01 -0.55606868797E-02  0.28400126185E-01  0.51100000000E-03 0.  1.
</event>
<event>
 8    1  0.1120016E+005  0.1043930E+01  0.7957747E-01            NaN
         13   -1    0    0    0    0  0.00000000000E+00  0.00000000000E+00  0.74505805969E-08  0.10566000000E+00  0.10566000000E+00 0.  1.
     999900   -1    0    0    0    0 -0.00000000000E+00 -0.00000000000E+00 -0.74505805969E-08  0.93827000000E+00  0.93827000000E+00 0.  1.
     999902    2    1    2    0    0  0.87521829250E-02  0.20288084586E-01  0.12212221446E-01  0.10186842987E+01  0.10183714229E+01 0.  0.
     999903    2    3    3    0    0 -0.11309103218E+00  0.36891088696E-01 -0.43870804808E-01  0.12836596537E+00  0.20065880646E-01 0.  0.
         14    1    1    2    0    0 -0.87521829250E-02 -0.20288084586E-01 -0.12212221446E-01  0.25245701312E-01  0.00000000000E+00 0. -1.
     999901    1    3    3    0    0  0.12184321510E+00 -0.16603004110E-01  0.56083026254E-01  0.89031833332E+00  0.88000000000E+00 0. -1.
        -11    1    4    4    0    0 -0.38408511036E-01  0.13621126750E-01 -0.51431630096E-02  0.41078730027E-01  0.51100000000E-03 0.  1.
         11    1    4    4    0    0 -0.74682521142E-01  0.23269961946E-01 -0.38727641798E-01  0.87287235340E-01  0.51100000000E-03 0. -1.
</event>
<event>
 8    1  0.1120016E+005  0.1043930E+01  0.7957747E-01            NaN
         13   -1    0    0    0    0  0.00000000000E+00  0.00000000000E+00  0.74505805969E-08  0.10566000000E+00  0.10566000000E+00 0. -1.
     999900   -1    0    0    0    0 -0.00000000000E+00 -0.00000000000E+00 -0.74505805969E-08  0.93827000000E+00  0.93827000000E+00 0.  1.
     999902    2    1    2    0    0  0.78003019486E-02 -0.21287918817E-01  0.73824730144E-02  0.10200863194E+01  0.10198076181E+01 0.  0.
     999903    2    3    3    0    0 -0.10675962218E+00 -0.32377912198E-01  0.65285607586E-01  0.13070465936E+00  0.19379145887E-01 0.  0.
         14    1    1    2    0    0 -0.78003019486E-02  0.21287918817E-01 -0.73824730144E-02  0.23843680627E-01  0.00000000000E+00 0. -1.
     999901    1    3    3    0    0  0.11455992413E+00  0.11089993381E-01 -0.57903134571E-01  0.88938166001E+00  0.88000000000E+00 0. -1.
        -11    1    4    4    0    0 -0.28467938922E-01 -0.62845539964E-02  0.79721018878E-02  0.30228044841E-01  0.51100000000E-03 0.  1.
         11    1    4    4    0    0 -0.78291683256E-01 -0.26093358201E-01  0.57313505698E-01  0.10047661452E+00  0.51100000000E-03 0. -1.
</event>
<event>
 8    1  0.1120016E+005  0.1043930E+01  0.7957747E-01            NaN
         13   -1    0    0    0    0  0.00000000000E+00  0.00000000000E+00  0.74505805969E-08  0.10566000000E+00  0.10566000000E+00 0.  1.
     999900   -1    0    0    0    0 -0.00000000000E+00 -0.00000000000E+00 -0.74505805969E-08  0.93827000000E+00  0.93827000000E+00 0.  1.
     999902    2    1    2    0    0  0.89585884970E-02 -0.89407224727E-02 -0.19857898491E-01  0.10203815614E+01  0.10201097990E+01 0.  0.
     999903    2    3    3    0    0 -0.33885327813E-01 -0.11891182415E+00 -0.42333493807E-01  0.13221806480E+00  0.20031340441E-01 0.  0.
         14    1    1    2    0    0 -0.89585884970E-02  0.89407224727E-02  0.19857898491E-01  0.23548438562E-01  0.00000000000E+00 0.  1.
     999901    1    3    3    0    0  0.42843916310E-01  0.10997110167E+00  0.22475595316E-01  0.88816349663E+00  0.88000000000E+00 0. -1.
        -11    1    4    4    0    0 -0.56827973039E-02 -0.51433581143E-01 -0.12546545646E-01  0.53248327514E-01  0.51100000000E-03 0. -1.
         11    1    4    4    0    0 -0.28202530509E-01 -0.67478243003E-01 -0.29786948161E-01  0.78969737290E-01  0.51100000000E-03 0.  1.
</event>
<event>
 8    1  0.1120016E+005  0.1043930E+01  0.7957747E-01            NaN
         13   -1    0    0    0    0  0.00000000000E+00  0.00000000000E+00  0.74505805969E-08  0.10566000000E+00  0.10566000000E+00 0. -1.
     999900   -1    0    0    0    0 -0.00000000000E+00 -0.00000000000E+00 -0.74505805969E-08  0.93827000000E+00  0.93827000000E+00 0. -1.
     999902    2    1    2    0    0 -0.37409075329E-02  0.70055808017E-02 -0.22040219029E-01  0.10205025843E+01  0.10202336403E+01 0.  0.
     999903    2    3    3    0    0  0.10940676634E+00  0.41262540067E-01 -0.58667147457E-01  0.13184209387E+00  0.16372714899E-01 0.  0.
         14    1    1    2    0    0  0.37409075329E-02 -0.70055808017E-02  0.22040219029E-01  0.23427415700E-01  0.00000000000E+00 0. -1.
     999901    1    3    3    0    0 -0.11314767387E+00 -0.34256959265E-01  0.36626928428E-01  0.88866049043E+00  0.88000000000E+00 0.  1.
        -11    1    4    4    0    0  0.52492122459E-01  0.26175723623E-01 -0.35509183335E-01  0.68569341907E-01  0.51100000000E-03 0.  1.
         11    1    4    4    0    0  0.56914643877E-01  0.15086816444E-01 -0.23157964122E-01  0.63272751966E-01  0.51100000000E-03 0. -1.
</event>
<event>
 8    1  0.1120016E+005  0.1043930E+01  0.7957747E-01            NaN
         13   -1    0    0    0    0  0.00000000000E+00  0.00000000000E+00  0.74505805969E-08  0.10566000000E+00  0.10566000000E+00 0.  1.
     999900   -1    0    0    0    0 -0.00000000000E+00 -0.00000000000E+00 -0.74505805969E-08  0.93827000000E+00  0.93827000000E+00 0. -1.
     999902    2    1    2    0    0  0.82777578622E-02 -0.19524121066E-01 -0.74920124045E-02  0.10214390501E+01  0.10211914072E+01 0.  0.
     999903    2    3    3    0    0  0.91193026149E-02  0.54604739920E-01 -0.11754407772E+00  0.13149115648E+00  0.20210757642E-01 0.  0.
         14    1    1    2    0    0 -0.82777578622E-02  0.19524121066E-01  0.74920124045E-02  0.22490949925E-01  0.00000000000E+00 0.  1.
     999901    1    3    3    0    0 -0.84154475262E-03 -0.74128860986E-01  0.11005206532E+00  0.88994789359E+00  0.88000000000E+00 0. -1.
        -11    1    4    4    0    0  0.23681336883E-03  0.30983374113E-01 -0.83835749173E-01  0.89379637012E-01  0.51100000000E-03 0. -1.
         11    1    4    4    0    0  0.88824892460E-02  0.23621365806E-01 -0.33708328547E-01  0.42111519471E-01  0.51100000000E-03 0.  1.
</event>
<event>
 7    1  0.1120016E+005  0.1043930E+01  0.7957747E-01            NaN
         13   -1    0    0    0    0  0.00000000000E+00  0.00000000000E+00  0.74505805969E-08  0.10566000000E+00  0.10566000000E+00 0. -1.
     999900   -1    0    0    0    0 -0.00000000000E+00 -0.00000000000E+00 -0.74505805969E-08  0.93827000000E+00  0.93827000000E+00 0. -1.
     999903    2    1    2    0    0 -0.72926520730E-01 -0.17813145757E-02  0.31687244031E-01  0.81482590963E-01  0.17716678255E-01 0.  0.
         14    1    1    2    0    0  0.28905635846E-02 -0.75647648373E-01 -0.51665921374E-02  0.75878954504E-01  0.00000000000E+00 0. -1.
     999901    1    1    2    0    0  0.70035957145E-01  0.77428962949E-01 -0.26520651894E-01  0.88656845453E+00  0.88000000000E+00 0. -1.
        -11    1    3    3    0    0 -0.26210824427E-02 -0.35822305793E-02  0.33531235404E-03  0.44806254551E-02  0.51100000000E-03 0. -1.
         11    1    3    3    0    0 -0.70305438287E-01  0.18009160036E-02  0.31351931677E-01  0.77001965508E-01  0.51100000000E-03 0.  1.
</event>
<event>
 8    1  0.1120016E+005  0.1043930E+01  0.7957747E-01            NaN
         13   -1    0    0    0    0  0.00000000000E+00  0.00000000000E+00  0.74505805969E-08  0.10566000000E+00  0.10566000000E+00 0. -1.
     999900   -1    0    0    0    0 -0.00000000000E+00 -0.00000000000E+00 -0.74505805969E-08  0.93827000000E+00  0.93827000000E+00 0.  1.
     999902    2    1    2    0    0 -0.13818084619E-01 -0.10614835026E-01  0.18649272027E-01  0.10184072742E+01  0.10180874062E+01 0.  0.
     999903    2    3    3    0    0  0.64926307879E-01  0.33948376466E-01  0.10499669907E+00  0.12956395993E+00  0.19864419849E-01 0.  0.
         14    1    1    2    0    0  0.13818084619E-01  0.10614835026E-01 -0.18649272027E-01  0.25522725801E-01  0.00000000000E+00 0.  1.
     999901    1    3    3    0    0 -0.78744392498E-01 -0.44563211492E-01 -0.86347427047E-01  0.88884331427E+00  0.88000000000E+00 0.  1.
        -11    1    4    4    0    0  0.48459301366E-01  0.24983300597E-01  0.61459209809E-01  0.82158169338E-01  0.51100000000E-03 0.  1.
         11    1    4    4    0    0  0.16467006513E-01  0.89650758690E-02  0.43537489265E-01  0.47405790589E-01  0.51100000000E-03 0. -1.
</event>
<event>
 8    1  0.1120016E+005  0.1043930E+01  0.7957747E-01            NaN
         13   -1    0    0    0    0  0.00000000000E+00  0.00000000000E+00  0.74505805969E-08  0.10566000000E+00  0.10566000000E+00 0. -1.
     999900   -1    0    0    0    0 -0.00000000000E+00 -0.00000000000E+00 -0.74505805969E-08  0.93827000000E+00  0.93827000000E+00 0.  1.
     999902    2    1    2    0    0 -0.85308402981E-02 -0.15362416816E-01  0.15648152894E-01  0.10204003639E+01  0.10201290403E+01 0.  0.
     999903    2    3    3    0    0 -0.81055860656E-01 -0.95524406944E-01 -0.37276945552E-01  0.13220731658E+00  0.19855453128E-01 0.  0.
         14    1    1    2    0    0  0.85308402981E-02  0.15362416816E-01 -0.15648152894E-01  0.23529636113E-01  0.00000000000E+00 0.  1.
     999901    1    3    3    0    0  0.72525020358E-01  0.80161990128E-01  0.52925098446E-01  0.88819304731E+00  0.88000000000E+00 0. -1.
        -11    1    4    4    0    0 -0.39551262761E-01 -0.33456989116E-01 -0.10333769941E-01  0.52827269746E-01  0.51100000000E-03 0. -1.
         11    1    4    4    0    0 -0.41504597895E-01 -0.62067417828E-01 -0.26943175610E-01  0.79380046833E-01  0.51100000000E-03 0.  1.
</event>
<event>
 8    1  0.1120016E+005  0.1043930E+01  0.7957747E-01            NaN
         13   -1    0    0    0    0  0.00000000000E+00  0.00000000000E+00  0.74505805969E-08  0.10566000000E+00  0.10566000000E+00 0.  1.
     999900   -1    0    0    0    0 -0.00000000000E+00 -0.00000000000E+00 -0.74505805969E-08  0.93827000000E+00  0.93827000000E+00 0. -1.
     999902    2    1    2    0    0 -0.99433159869E-02 -0.12113355184E-01 -0.17718669526E-01  0.10202751029E+01  0.10200008488E+01 0.  0.
     999903    2    3    3    0    0  0.73483574498E-01  0.75769817094E-01  0.70463789310E-01  0.12760515042E+00  0.13305183453E-01 0.  0.
         14    1    1    2    0    0  0.99433159869E-02  0.12113355184E-01  0.17718669526E-01  0.23654897092E-01  0.00000000000E+00 0.  1.
     999901    1    3    3    0    0 -0.83426890485E-01 -0.87883172279E-01 -0.88182458836E-01  0.89266995249E+00  0.88000000000E+00 0. -1.
        -11    1    4    4    0    0  0.30575392843E-01  0.24050510200E-01  0.21438444039E-01  0.44420149620E-01  0.51100000000E-03 0. -1.
         11    1    4    4    0    0  0.42908181655E-01  0.51719306894E-01  0.49025345271E-01  0.83185000802E-01  0.51100000000E-03 0.  1.
</event>
<event>
 8    1  0.1120016E+005  0.1043930E+01  0.7957747E-01            NaN
         13   -1    0    0    0    0  0.00000000000E+00  0.00000000000E+00  0.74505805969E-08  0.10566000000E+00  0.10566000000E+00 0.  1.
     999900   -1    0    0    0    0 -0.00000000000E+00 -0.00000000000E+00 -0.74505805969E-08  0.93827000000E+00  0.93827000000E+00 0. -1.
     999902    2    1    2    0    0 -0.65138331365E-02 -0.20912594138E-01 -0.10367062111E-01  0.10196969112E+01  0.10194089210E+01 0.  0.
     999903    2    3    3    0    0 -0.97625815923E-01  0.79118733743E-01 -0.24898413432E-01  0.12923701871E+00  0.17079287186E-01 0.  0.
         14    1    1    2    0    0  0.65138331365E-02  0.20912594138E-01  0.10367062111E-01  0.24233088795E-01  0.00000000000E+00 0.  1.
     999901    1    3    3    0    0  0.91111982787E-01 -0.10003132788E+00  0.14531351321E-01  0.89045989249E+00  0.88000000000E+00 0.  1.
        -11    1    4    4    0    0 -0.50776541090E-01  0.39297510137E-01 -0.21274158504E-01  0.67641720625E-01  0.51100000000E-03 0. -1.
         11    1    4    4    0    0 -0.46849274833E-01  0.39821223606E-01 -0.36242549286E-02  0.61595298089E-01  0.51100000000E-03 0.  1.
</event>
<event>
 8    1  0.1120016E+005  0.1043930E+01  0.7957747E-01            NaN
         13   -1    0    0    0    0  0.00000000000E+00  0.00000000000E+00  0.74505805969E-08  0.10566000000E+00  0.10566000000E+00 0.  1.
     999900   -1    0    0    0    0 -0.00000000000E+00 -0.00000000000E+00 -0.74505805969E-08  0.93827000000E+00  0.93827000000E+00 0. -1.
     999902    2    1    2    0    0 -0.10411323961E-01 -0.15757304373E-01 -0.14076603648E-01  0.10203749776E+01  0.10201030614E+01 0.  0.
     999903    2    3    3    0    0 -0.28652981483E-01  0.37406002304E-01 -0.12171719864E+00  0.13203630747E+00  0.19957647360E-01 0.  0.
         14    1    1    2    0    0  0.10411323961E-01  0.15757304373E-01  0.14076603648E-01  0.23555022352E-01  0.00000000000E+00 0.  1.
     999901    1    3    3    0    0  0.18241657522E-01 -0.53163306678E-01  0.10764059499E+00  0.88833867018E+00  0.88000000000E+00 0.  1.
        -11    1    4    4    0    0 -0.50532077795E-02  0.12418479426E-01 -0.59106957225E-01  0.60610618323E-01  0.51100000000E-03 0. -1.
         11    1    4    4    0    0 -0.23599773704E-01  0.24987522878E-01 -0.62610241418E-01  0.71425689145E-01  0.51100000000E-03 0.  1.
</event>
<event>
 8    1  0.1120016E+005  0.1043930E+01  0.7957747E-01            NaN
         13   -1    0    0    0    0  0.00000000000E+00  0.00000000000E+00  0.74505805969E-08  0.10566000000E+00  0.10566000000E+00 0. -1.
     999900   -1    0    0    0    0 -0.00000000000E+00 -0.00000000000E+00 -0.74505805969E-08  0.93827000000E+00  0.93827000000E+00 0.  1.
     999902    2    1    2    0    0  0.14061853206E-01 -0.21014888581E-03 -0.20285149457E-01  0.10192466622E+01  0.10189477372E+01 0.  0.
     999903    2    3    3    0    0  0.26927036922E-01  0.98249363470E-01  0.75421472627E-01  0.12850565265E+00  0.21149503297E-01 0.  0.
         14    1    1    2    0    0 -0.14061853206E-01  0.21014888581E-03  0.20285149457E-01  0.24683337834E-01  0.00000000000E+00 0. -1.
     999901    1    3    3    0    0 -0.12865183716E-01 -0.98459512356E-01 -0.95706622084E-01  0.89074100952E+00  0.88000000000E+00 0. -1.
        -11    1    4    4    0    0  0.21512271928E-01  0.42699415806E-01  0.40532457967E-01  0.62683005860E-01  0.51100000000E-03 0. -1.
         11    1    4    4    0    0  0.54147649937E-02  0.55549947664E-01  0.34889014660E-01  0.65822646789E-01  0.51100000000E-03 0.  1.
</event>
<event>
 8    1  0.1120016E+005  0.1043930E+01  0.7957747E-01            NaN
         13   -1    0    0    0    0  0.00000000000E+00  0.00000000000E+00  0.74505805969E-08  0.10566000000E+00  0.10566000000E+00 0. -1.
     999900   -1    0    0    0    0 -0.00000000000E+00 -0.00000000000E+00 -0.74505805969E-08  0.93827000000E+00  0.93827000000E+00 0. -1.
     999902    2    1    2    0    0  0.66262084189E-02 -0.22794208442E-01 -0.26480182565E-02  0.10200449717E+01  0.10197652915E+01 0.  0.
     999903    2    3    3    0    0  0.23155221148E-01  0.10887410863E+00 -0.60396227518E-01  0.12822402013E+00  0.20098737336E-01 0.  0.
         14    1    1    2    0    0 -0.66262084189E-02  0.22794208442E-01  0.26480182565E-02  0.23885028307E-01  0.00000000000E+00 0. -1.
     999901    1    3    3    0    0 -0.16529012729E-01 -0.13166831707E+00  0.57748209262E-01  0.89182095157E+00  0.88000000000E+00 0.  1.
        -11    1    4    4    0    0  0.33166701864E-02  0.35807168236E-01 -0.29237909473E-01  0.46349434404E-01  0.51100000000E-03 0.  1.
         11    1    4    4    0    0  0.19838550962E-01  0.73066940393E-01 -0.31158318045E-01  0.81874585721E-01  0.51100000000E-03 0. -1.
</event>
<event>
 8    1  0.1120016E+005  0.1043930E+01  0.7957747E-01            NaN
         13   -1    0    0    0    0  0.00000000000E+00  0.00000000000E+00  0.74505805969E-08  0.10566000000E+00  0.10566000000E+00 0. -1.
     999900   -1    0    0    0    0 -0.00000000000E+00 -0.00000000000E+00 -0.74505805969E-08  0.93827000000E+00  0.93827000000E+00 0. -1.
     999902    2    1    2    0    0  0.19694772493E-01 -0.14263441731E-01 -0.37500352232E-02  0.10193252729E+01  0.10190282721E+01 0.  0.
     999903    2    3    3    0    0  0.47725159814E-02  0.12583201472E+00  0.12530135564E-01  0.12796986977E+00  0.19047583449E-01 0.  0.
         14    1    1    2    0    0 -0.19694772493E-01  0.14263441731E-01  0.37500352232E-02  0.24604727142E-01  0.00000000000E+00 0.  1.
     999901    1    3    3    0    0  0.14922256511E-01 -0.14009545645E+00 -0.16280170787E-01  0.89135540309E+00  0.88000000000E+00 0. -1.
        -11    1    4    4    0    0  0.98744733671E-02  0.85349255471E-01  0.25353733113E-02  0.85957488752E-01  0.51100000000E-03 0. -1.
         11    1    4    4    0    0 -0.51019573857E-02  0.40482759244E-01  0.99947622527E-02  0.42012381017E-01  0.51100000000E-03 0.  1.
</event>
<event>
 8    1  0.1120016E+005  0.1043930E+01  0.7957747E-01            NaN
         13   -1    0    0    0    0  0.00000000000E+00  0.00000000000E+00  0.74505805969E-08  0.10566000000E+00  0.10566000000E+00 0.  1.
     999900   -1    0    0    0    0 -0.00000000000E+00 -0.00000000000E+00 -0.74505805969E-08  0.93827000000E+00  0.93827000000E+00 0. -1.
     999902    2    1    2    0    0 -0.19024603403E-01 -0.43355441643E-03 -0.13657685789E-01  0.10205065954E+01  0.10202377445E+01 0.  0.
     999903    2    3    3    0    0 -0.11543396276E+00  0.60621263536E-01  0.56632290632E-02  0.13292800553E+00  0.25255596222E-01 0.  0.
         14    1    1    2    0    0  0.19024603403E-01  0.43355441643E-03  0.13657685789E-01  0.23423404645E-01  0.00000000000E+00 0.  1.
     999901    1    3    3    0    0  0.96409359352E-01 -0.61054817952E-01 -0.19320914853E-01  0.88757858983E+00  0.88000000000E+00 0.  1.
        -11    1    4    4    0    0 -0.20703462124E-01  0.17639106708E-01  0.95428851120E-02  0.28828791280E-01  0.51100000000E-03 0. -1.
         11    1    4    4    0    0 -0.94730500631E-01  0.42982156828E-01 -0.38796560488E-02  0.10409921425E+00  0.51100000000E-03 0.  1.
</event>
<event>
 7    1  0.1120016E+005  0.1043930E+01  0.7957747E-01            NaN
         13   -1    0    0    0    0  0.00000000000E+00  0.00000000000E+00  0.74505805969E-08  0.10566000000E+00  0.10566000000E+00 0. -1.
     999900   -1    0    0    0    0 -0.00000000000E+00 -0.00000000000E+00 -0.74505805969E-08  0.93827000000E+00  0.93827000000E+00 0.  1.
     999902    2    1    2    0    0 -0.23141116324E-01 -0.57711177616E-02 -0.16045950867E-02  0.10200261972E+01  0.10197460719E+01 0.  0.
         14    1    1    2    0    0  0.23141116324E-01  0.57711177616E-02  0.16045950867E-02  0.23903802843E-01  0.00000000000E+00 0.  1.
     999901    1    3    3    0    0  0.69907559073E-01  0.62361347009E-01 -0.58034205996E-01  0.88687314396E+00  0.88000000000E+00 0.  1.
        -11    1    3    3    0    0 -0.31954651017E-01 -0.68228545651E-02  0.24711522584E-01  0.40970373875E-01  0.51100000000E-03 0.  1.
         11    1    3    3    0    0 -0.61094024380E-01 -0.61309610206E-01  0.31718088325E-01  0.92182679320E-01  0.51100000000E-03 0. -1.
</event>
<event>
 8    1  0.1120016E+005  0.1043930E+01  0.7957747E-01            NaN
         13   -1    0    0    0    0  0.00000000000E+00  0.00000000000E+00  0.74505805969E-08  0.10566000000E+00  0.10566000000E+00 0.  1.
     999900   -1    0    0    0    0 -0.00000000000E+00 -0.00000000000E+00 -0.74505805969E-08  0.93827000000E+00  0.93827000000E+00 0. -1.
     999902    2    1    2    0    0  0.17257868294E-01 -0.60512642957E-02 -0.12032217302E-01  0.10220387673E+01  0.10218042942E+01 0.  0.
     999903    2    3    3    0    0 -0.30058637017E-01  0.77910076560E-01 -0.10075917946E+00  0.13234172206E+00  0.19708309499E-01 0.  0.
         14    1    1    2    0    0 -0.17257868294E-01  0.60512642957E-02  0.12032217302E-01  0.21891232739E-01  0.00000000000E+00 0.  1.
     999901    1    3    3    0    0  0.47316505310E-01 -0.83961340855E-01  0.88726962154E-01  0.88969704520E+00  0.88000000000E+00 0.  1.
        -11    1    4    4    0    0 -0.18657768982E-01  0.25253676232E-01 -0.30241327012E-01  0.43596553615E-01  0.51100000000E-03 0.  1.
         11    1    4    4    0    0 -0.11400868034E-01  0.52656400328E-01 -0.70517852444E-01  0.88745168441E-01  0.51100000000E-03 0. -1.
</event>
<event>
 8    1  0.1120016E+005  0.1043930E+01  0.7957747E-01            NaN
         13   -1    0    0    0    0  0.00000000000E+00  0.00000000000E+00  0.74505805969E-08  0.10566000000E+00  0.10566000000E+00 0.  1.
     999900   -1    0    0    0    0 -0.00000000000E+00 -0.00000000000E+00 -0.74505805969E-08  0.93827000000E+00  0.93827000000E+00 0. -1.
     999902    2    1    2    0    0  0.81636838828E-02  0.22115437232E-01  0.22347575011E-02  0.10202502103E+01  0.10199753719E+01 0.  0.
     999903    2    3    3    0    0 -0.55366183728E-01 -0.64519789068E-01 -0.94647239900E-01  0.12843866748E+00  0.17611751782E-01 0.  0.
         14    1    1    2    0    0 -0.81636838828E-02 -0.22115437232E-01 -0.22347575011E-02  0.23679789686E-01  0.00000000000E+00 0. -1.
     999901    1    3    3    0    0  0.63529867610E-01  0.86635226301E-01  0.96881997401E-01  0.89181154284E+00  0.88000000000E+00 0.  1.
        -11    1    4    4    0    0 -0.30226536197E-01 -0.36779285810E-01 -0.65580197664E-01  0.81039390433E-01  0.51100000000E-03 0. -1.
         11    1    4    4    0    0 -0.25139647531E-01 -0.27740503259E-01 -0.29067042236E-01  0.47399277045E-01  0.51100000000E-03 0.  1.
</event>
<event>
 8    1  0.1120016E+005  0.1043930E+01  0.7957747E-01            NaN
         13   -1    0    0    0    0  0.00000000000E+00  0.00000000000E+00  0.74505805969E-08  0.10566000000E+00  0.10566000000E+00 0. -1.
     999900   -1    0    0    0    0 -0.00000000000E+00 -0.00000000000E+00 -0.74505805969E-08  0.93827000000E+00  0.93827000000E+00 0. -1.
     999902    2    1    2    0    0  0.15197687375E-01 -0.13446714109E-01 -0.12762837953E-01  0.10199576440E+01  0.10196758905E+01 0.  0.
     999903    2    3    3    0    0  0.76119443419E-01 -0.44249000712E-01  0.94559907230E-01  0.13081287911E+00  0.20452128356E-01 0.  0.
         14    1    1    2    0    0 -0.15197687375E-01  0.13446714109E-01  0.12762837953E-01  0.23972356048E-01  0.00000000000E+00 0. -1.
     999901    1    3    3    0    0 -0.60921756045E-01  0.30802286603E-01 -0.10732274518E+00  0.88914476485E+00  0.88000000000E+00 0. -1.
        -11    1    4    4    0    0  0.28438570824E-01 -0.57418920249E-02  0.33032239903E-01  0.43967165346E-01  0.51100000000E-03 0.  1.
         11    1    4    4    0    0  0.47680872595E-01 -0.38507108687E-01  0.61527667327E-01  0.86845713760E-01  0.51100000000E-03 0. -1.
</event>
<event>
 8    1  0.1120016E+005  0.1043930E+01  0.7957747E-01            NaN
         13   -1    0    0    0    0  0.00000000000E+00  0.00000000000E+00  0.74505805969E-08  0.10566000000E+00  0.10566000000E+00 0.  1.
     999900   -1    0    0    0    0 -0.00000000000E+00 -0.00000000000E+00 -0.74505805969E-08  0.93827000000E+00  0.93827000000E+00 0.  1.
     999902    2    1    2    0    0 -0.17566894096E-01  0.81857529052E-02 -0.13432284002E-01  0.10203497419E+01  0.10200772359E+01 0.  0.
     999903    2    3    3    0    0  0.95794414583E-01 -0.78104088595E-01 -0.30081040437E-01  0.12873665084E+00  0.19784785942E-01 0.  0.
         14    1    1    2    0    0  0.17566894096E-01 -0.81857529052E-02  0.13432284002E-01  0.23580258105E-01  0.00000000000E+00 0.  1.
     999901    1    3    3    0    0 -0.11336130868E+00  0.86289841500E-01  0.16648756435E-01  0.89161309106E+00  0.88000000000E+00 0.  1.
        -11    1    4    4    0    0  0.14284003321E-01 -0.21930588254E-01 -0.66184494056E-02  0.27000897125E-01  0.51100000000E-03 0.  1.
         11    1    4    4    0    0  0.81510411262E-01 -0.56173500341E-01 -0.23462591031E-01  0.10173575371E+00  0.51100000000E-03 0. -1.
</event>
<event>
 8    1  0.1120016E+005  0.1043930E+01  0.7957747E-01            NaN
         13   -1    0    0    0    0  0.00000000000E+00  0.00000000000E+00  0.74505805969E-08  0.10566000000E+00  0.10566000000E+00 0. -1.
     999900   -1    0    0    0    0 -0.00000000000E+00 -0.00000000000E+00 -0.74505805969E-08  0.93827000000E+00  0.93827000000E+00 0.  1.
     999902    2    1    2    0    0  0.18030788266E-01 -0.66554455958E-02  0.14394294524E-01  0.10199175033E+01  0.10196347942E+01 0.  0.
     999903    2    3    3    0    0  0.81816827570E-01 -0.53170194533E-01 -0.84733758611E-01  0.13084008735E+00  0.20451301911E-01 0.  0.
         14    1    1    2    0    0 -0.18030788266E-01  0.66554455958E-02 -0.14394294524E-01  0.24012496672E-01  0.00000000000E+00 0. -1.
     999901    1    3    3    0    0 -0.63786039304E-01  0.46514748937E-01  0.99128053134E-01  0.88907741598E+00  0.88000000000E+00 0. -1.
        -11    1    4    4    0    0 -0.41911831375E-03 -0.35648664426E-02 -0.25001294695E-02  0.44040550949E-02  0.51100000000E-03 0.  1.
         11    1    4    4    0    0  0.82235945884E-01 -0.49605328090E-01 -0.82233629141E-01  0.12643603226E+00  0.51100000000E-03 0. -1.
</event>
<event>
 8    1  0.1120016E+005  0.1043930E+01  0.7957747E-01            NaN
         13   -1    0    0    0    0  0.00000000000E+00  0.00000000000E+00  0.74505805969E-08  0.10566000000E+00  0.10566000000E+00 0.  1.
     999900   -1    0    0    0    0 -0.00000000000E+00 -0.00000000000E+00 -0.74505805969E-08  0.93827000000E+00  0.93827000000E+00 0.  1.
     999902    2    1    2    0    0  0.70317540232E-02  0.18135572982E-01 -0.15179906093E-01  0.10192566516E+01  0.10189579715E+01 0.  0.
     999903    2    3    3    0    0  0.14919564002E-01  0.24262517947E-01  0.12356916785E+00  0.12832957124E+00  0.19694579113E-01 0.  0.
         14    1    1    2    0    0 -0.70317540232E-02 -0.18135572982E-01  0.15179906093E-01  0.24673348395E-01  0.00000000000E+00 0. -1.
     999901    1    3    3    0    0 -0.78878099784E-02 -0.61269449649E-02 -0.13874907394E+00  0.89092708036E+00  0.88000000000E+00 0.  1.
        -11    1    4    4    0    0  0.11143033803E-01  0.11720094482E-02  0.38635204840E-01  0.40230349023E-01  0.51100000000E-03 0.  1.
         11    1    4    4    0    0  0.37765301986E-02  0.23090508499E-01  0.84933963006E-01  0.88099222222E-01  0.51100000000E-03 0. -1.
</event>
<event>
 7    1  0.1120016E+005  0.1043930E+01  0.7957747E-01            NaN
         13   -1    0    0    0    0  0.00000000000E+00  0.00000000000E+00  0.74505805969E-08  0.10566000000E+00  0.10566000000E+00 0. -1.
     999900   -1    0    0    0    0 -0.00000000000E+00 -0.00000000000E+00 -0.74505805969E-08  0.93827000000E+00  0.93827000000E+00 0. -1.
     999903    2    1    2    0    0 -0.87965225564E-01  0.66306213053E-01 -0.16815631057E-01  0.11325085243E+00  0.20213741149E-01 0.  0.
         14    1    1    2    0    0  0.17143877552E-01 -0.36999692290E-01 -0.22308169176E-01  0.46481654221E-01  0.00000000000E+00 0.  1.
     999901    1    1    2    0    0  0.70821348011E-01 -0.29306520763E-01  0.39123800234E-01  0.88419749335E+00  0.88000000000E+00 0.  1.
        -11    1    3    3    0    0 -0.57881229403E-01  0.54000974473E-01 -0.79735103847E-02  0.79562428005E-01  0.51100000000E-03 0.  1.
         11    1    3    3    0    0 -0.30083996160E-01  0.12305238581E-01 -0.88421206727E-02  0.33688424429E-01  0.51100000000E-03 0. -1.
</event>
<event>
 8    1  0.1120016E+005  0.1043930E+01  0.7957747E-01            NaN
         13   -1    0    0    0    0  0.00000000000E+00  0.00000000000E+00  0.74505805969E-08  0.10566000000E+00  0.10566000000E+00 0.  1.
     999900   -1    0    0    0    0 -0.00000000000E+00 -0.00000000000E+00 -0.74505805969E-08  0.93827000000E+00  0.93827000000E+00 0.  1.
     999902    2    1    2    0    0 -0.16341826944E-01  0.94505899554E-02 -0.73035904569E-02  0.10236886712E+01  0.10234885364E+01 0.  0.
     999903    2    3    3    0    0 -0.12121024556E-01  0.10710967938E+00 -0.79017495398E-01  0.13537679067E+00  0.21533885364E-01 0.  0.
         14    1    1    2    0    0  0.16341826944E-01 -0.94505899554E-02  0.73035904569E-02  0.20241328808E-01  0.00000000000E+00 0.  1.
     999901    1    3    3    0    0 -0.42208023883E-02 -0.97659089425E-01  0.71713904941E-01  0.88831188053E+00  0.88000000000E+00 0. -1.
        -11    1    4    4    0    0 -0.40830516659E-02  0.92760601117E-01 -0.71960278479E-01  0.11747230836E+00  0.51100000000E-03 0. -1.
         11    1    4    4    0    0 -0.80379728897E-02  0.14349078263E-01 -0.70572169185E-02  0.17904482311E-01  0.51100000000E-03 0.  1.
</event>
<event>
 8    1  0.1120016E+005  0.1043930E+01  0.7957747E-01            NaN
         13   -1    0    0    0    0  0.00000000000E+00  0.00000000000E+00  0.74505805969E-08  0.10566000000E+00  0.10566000000E+00 0. -1.
     999900   -1    0    0    0    0 -0.00000000000E+00 -0.00000000000E+00 -0.74505805969E-08  0.93827000000E+00  0.93827000000E+00 0. -1.
     999902    2    1    2    0    0 -0.26224441351E-02  0.16052832701E-01 -0.15599516376E-01  0.10213930179E+01  0.10211443490E+01 0.  0.
     999903    2    3    3    0    0 -0.46488963279E-02  0.12399189150E+00  0.42774564575E-01  0.13287600611E+00  0.20754956728E-01 0.  0.
         14    1    1    2    0    0  0.26224441351E-02 -0.16052832701E-01  0.15599516376E-01  0.22536982099E-01  0.00000000000E+00 0. -1.
     999901    1    3    3    0    0  0.20264521928E-02 -0.10793905880E+00 -0.58374080951E-01  0.88851701180E+00  0.88000000000E+00 0. -1.
        -11    1    4    4    0    0  0.41863963882E-02  0.53960514793E-02  0.16940992605E-02  0.70550960015E-02  0.51100000000E-03 0.  1.
         11    1    4    4    0    0 -0.88352927161E-02  0.11859584002E+00  0.41080465315E-01  0.12582091010E+00  0.51100000000E-03 0. -1.
</event>
<event>
 8    1  0.1120016E+005  0.1043930E+01  0.7957747E-01            NaN
         13   -1    0    0    0    0  0.00000000000E+00  0.00000000000E+00  0.74505805969E-08  0.10566000000E+00  0.10566000000E+00 0. -1.
     999900   -1    0    0    0    0 -0.00000000000E+00 -0.00000000000E+00 -0.74505805969E-08  0.93827000000E+00  0.93827000000E+00 0.  1.
     999902    2    1    2    0    0  0.10263834281E-01 -0.20269577798E-01 -0.77247540446E-02  0.10199326272E+01  0.10196502783E+01 0.  0.
     999903    2    3    3    0    0 -0.79449449408E-01  0.37940483783E-01 -0.92660089796E-01  0.12939857627E+00  0.20159463730E-01 0.  0.
         14    1    1    2    0    0 -0.10263834281E-01  0.20269577798E-01  0.77247540446E-02  0.23997372842E-01  0.00000000000E+00 0. -1.
     999901    1    3    3    0    0  0.89713283689E-01 -0.58210061581E-01  0.84935335751E-01  0.89053405089E+00  0.88000000000E+00 0. -1.
        -11    1    4    4    0    0 -0.18107721664E-01 -0.14766846677E-03 -0.18688875798E-01  0.26027804160E-01  0.51100000000E-03 0.  1.
         11    1    4    4    0    0 -0.61341727744E-01  0.38088152250E-01 -0.73971213998E-01  0.10337077211E+00  0.51100000000E-03 0. -1.
</event>
<event>
 8    1  0.1120016E+005  0.1043930E+01  0.7957747E-01            NaN
         13   -1    0    0    0    0  0.00000000000E+00  0.00000000000E+00  0.74505805969E-08  0.10566000000E+00  0.10566000000E+00 0. -1.
     999900   -1    0    0    0    0 -0.00000000000E+00 -0.00000000000E+00 -0.74505805969E-08  0.93827000000E+00  0.93827000000E+00 0. -1.
     999902    2    1    2    0    0 -0.63621250916E-02  0.12019190212E-01  0.21742344375E-01  0.10182849789E+01  0.10179619989E+01 0.  0.
     999903    2    3    3    0    0  0.97104641906E-01 -0.21177897535E-01  0.80851189700E-01  0.12963359949E+00  0.19751972482E-01 0.  0.
         14    1    1    2    0    0  0.63621250916E-02 -0.12019190212E-01 -0.21742344375E-01  0.25645021114E-01  0.00000000000E+00 0.  1.
     999901    1    3    3    0    0 -0.10346676700E+00  0.33197087747E-01 -0.59108845325E-01  0.88865137940E+00  0.88000000000E+00 0.  1.
        -11    1    4    4    0    0  0.79177863233E-01 -0.92673512170E-02  0.65757034435E-01  0.10334053669E+00  0.51100000000E-03 0.  1.
         11    1    4    4    0    0  0.17926778673E-01 -0.11910546318E-01  0.15094155265E-01  0.26293062799E-01  0.51100000000E-03 0. -1.
</event>
<event>
 8    1  0.1120016E+005  0.1043930E+01  0.7957747E-01            NaN
         13   -1    0    0    0    0  0.00000000000E+00  0.00000000000E+00  0.74505805969E-08  0.10566000000E+00  0.10566000000E+00 0. -1.
     999900   -1    0    0    0    0 -0.00000000000E+00 -0.00000000000E+00 -0.74505805969E-08  0.93827000000E+00  0.93827000000E+00 0.  1.
     999902    2    1    2    0    0  0.36600617908E-02  0.71204290646E-02  0.20881014958E-01  0.10215667858E+01  0.10213219789E+01 0.  0.
     999903    2    3    3    0    0  0.10105628248E+00  0.77793036350E-01  0.33420060768E-01  0.13328875002E+00  0.19617892034E-01 0.  0.
         14    1    1    2    0    0 -0.36600617908E-02 -0.71204290646E-02 -0.20881014958E-01  0.22363214171E-01  0.00000000000E+00 0.  1.
     999901    1    3    3    0    0 -0.97396220689E-01 -0.70672607285E-01 -0.12539045810E-01  0.88827803581E+00  0.88000000000E+00 0.  1.
        -11    1    4    4    0    0  0.38347095433E-01  0.28716898587E-01  0.28640725731E-02  0.47996083437E-01  0.51100000000E-03 0. -1.
         11    1    4    4    0    0  0.62709187047E-01  0.49076137763E-01  0.30555988195E-01  0.85292666586E-01  0.51100000000E-03 0.  1.
</event>
<event>
 8    1  0.1120016E+005  0.1043930E+01  0.7957747E-01            NaN
         13   -1    0    0    0    0  0.00000000000E+00  0.00000000000E+00  0.74505805969E-08  0.10566000000E+00  0.10566000000E+00 0. -1.
     999900   -1    0    0    0    0 -0.00000000000E+00 -0.00000000000E+00 -0.74505805969E-08  0.93827000000E+00  0.93827000000E+00 0. -1.
     999902    2    1    2    0    0 -0.23773397613E-01 -0.51611084898E-02  0.11584921642E-02  0.10195752555E+01  0.10192843313E+01 0.  0.
     999903    2    3    3    0    0  0.86994169669E-02 -0.81947791021E-01  0.98739565703E-01  0.13026499232E+00  0.20696523406E-01 0.  0.
         14    1    1    2    0    0  0.23773397613E-01  0.51611084898E-02 -0.11584921642E-02  0.24354744487E-01  0.00000000000E+00 0.  1.
     999901    1    3    3    0    0 -0.32472814580E-01  0.76786682532E-01 -0.97581073539E-01  0.88931026319E+00  0.88000000000E+00 0. -1.
        -11    1    4    4    0    0  0.97917138777E-02 -0.76500634428E-01  0.81782861909E-01  0.11241406652E+00  0.51100000000E-03 0. -1.
         11    1    4    4    0    0 -0.10922969108E-02 -0.54471565932E-02  0.16956703794E-01  0.17850925804E-01  0.51100000000E-03 0.  1.
</event>
<event>
 8    1  0.1120016E+005  0.1043930E+01  0.7957747E-01            NaN
         13   -1    0    0    0    0  0.00000000000E+00  0.00000000000E+00  0.74505805969E-08  0.10566000000E+00  0.10566000000E+00 0. -1.
     999900   -1    0    0    0    0 -0.00000000000E+00 -0.00000000000E+00 -0.74505805969E-08  0.93827000000E+00  0.93827000000E+00 0. -1.
     999902    2    1    2    0    0 -0.21593533949E-01  0.10096511220E-01 -0.95179097182E-03  0.10200736350E+01  0.10197946335E+01 0.  0.
     999903    2    3    3    0    0  0.52657541334E-01 -0.29990027579E-02  0.11610158760E+00  0.12912683065E+00  0.20306380075E-01 0.  0.
         14    1    1    2    0    0  0.21593533949E-01 -0.10096511220E-01  0.95179097182E-03  0.23856365047E-01  0.00000000000E+00 0. -1.
     999901    1    3    3    0    0 -0.74251075282E-01  0.13095513978E-01 -0.11705337858E+00  0.89094680431E+00  0.88000000000E+00 0. -1.
        -11    1    4    4    0    0  0.39238657391E-01 -0.51986070430E-02  0.63787816261E-01  0.75072261012E-01  0.51100000000E-03 0.  1.
         11    1    4    4    0    0  0.13418883942E-01  0.21996042851E-02  0.52313771343E-01  0.54054569635E-01  0.51100000000E-03 0. -1.
</event>
<event>
 8    1  0.1120016E+005  0.1043930E+01  0.7957747E-01            NaN
         13   -1    0    0    0    0  0.00000000000E+00  0.00000000000E+00  0.74505805969E-08  0.10566000000E+00  0.10566000000E+00 0. -1.
     999900   -1    0    0    0    0 -0.00000000000E+00 -0.00000000000E+00 -0.74505805969E-08  0.93827000000E+00  0.93827000000E+00 0.  1.
     999902    2    1    2    0    0  0.14268705399E-01 -0.16897393054E-01  0.29242908699E-02  0.10216214966E+01  0.10213778992E+01 0.  0.
     999903    2    3    3    0    0  0.58058926103E-01  0.50853967992E-03  0.11783101889E+00  0.13290100847E+00  0.20184933155E-01 0.  0.
         14    1    1    2    0    0 -0.14268705399E-01  0.16897393054E-01 -0.29242908699E-02  0.22308503376E-01  0.00000000000E+00 0.  1.
     999901    1    3    3    0    0 -0.43790220704E-01 -0.17405932734E-01 -0.11490672802E+00  0.88872048816E+00  0.88000000000E+00 0.  1.
        -11    1    4    4    0    0  0.16896971539E-01  0.64102682625E-02  0.51814494893E-01  0.54878066552E-01  0.51100000000E-03 0. -1.
         11    1    4    4    0    0  0.41161954564E-01 -0.59017285825E-02  0.66016523996E-01  0.78022941916E-01  0.51100000000E-03 0.  1.
</event>
<event>
 8    1  0.1577128E+005  0.1043930E+01  0.7957747E-01            NaN
         13   -1    0    0    0    0  0.00000000000E+00  0.00000000000E+00  0.74505805969E-08  0.10566000000E+00  0.10566000000E+00 0. -1.
     999900   -1    0    0    0    0 -0.00000000000E+00 -0.00000000000E+00 -0.74505805969E-08  0.93827000000E+00  0.93827000000E+00 0. -1.
     999902    2    1    2    0    0  0.54704866564E-02  0.18526240932E-01  0.14841994096E-01  0.10195695276E+01  0.10192784649E+01 0.  0.
     999903    2    3    3    0    0  0.90446233271E-01  0.31358913609E-02 -0.90012506156E-01  0.12914703989E+00  0.19655831736E-01 0.  0.
         14    1    1    2    0    0 -0.54704866564E-02 -0.18526240932E-01 -0.14841994096E-01  0.24360472410E-01  0.00000000000E+00 0.  1.
     999901    1    3    3    0    0 -0.84975746614E-01  0.15390349571E-01  0.10485450025E+00  0.89042248770E+00  0.88000000000E+00 0.  1.
        -11    1    4    4    0    0  0.43944932527E-01  0.50242368472E-02 -0.31123692788E-01  0.54086462488E-01  0.51100000000E-03 0. -1.
         11    1    4    4    0    0  0.46501300744E-01 -0.18883454863E-02 -0.58888813368E-01  0.75060577405E-01  0.51100000000E-03 0.  1.
</event>
<event>
 8    1  0.1120016E+005  0.1043930E+01  0.7957747E-01            NaN
         13   -1    0    0    0    0  0.00000000000E+00  0.00000000000E+00  0.74505805969E-08  0.10566000000E+00  0.10566000000E+00 0.  1.
     999900   -1    0    0    0    0 -0.00000000000E+00 -0.00000000000E+00 -0.74505805969E-08  0.93827000000E+00  0.93827000000E+00 0.  1.
     999902    2    1    2    0    0  0.20979213014E-01  0.74141252822E-02 -0.76665703406E-02  0.10203954948E+01  0.10201240576E+01 0.  0.
     999903    2    3    3    0    0 -0.10254748020E+00 -0.73769811063E-01 -0.51982355614E-02  0.12806384790E+00  0.20380303356E-01 0.  0.
         14    1    1    2    0    0 -0.20979213014E-01 -0.74141252822E-02  0.76665703406E-02  0.23534505161E-01  0.00000000000E+00 0.  1.
     999901    1    3    3    0    0  0.12352669322E+00  0.81183936345E-01 -0.24683347792E-02  0.89233164694E+00  0.88000000000E+00 0. -1.
        -11    1    4    4    0    0 -0.54981684373E-01 -0.42104972492E-01  0.70833918007E-02  0.69615011926E-01  0.51100000000E-03 0. -1.
         11    1    4    4    0    0 -0.47565795831E-01 -0.31664838570E-01 -0.12281627362E-01  0.58448835971E-01  0.51100000000E-03 0.  1.
</event>
<event>
 8    1  0.1120016E+005  0.1043930E+01  0.7957747E-01            NaN
         13   -1    0    0    0    0  0.00000000000E+00  0.00000000000E+00  0.74505805969E-08  0.10566000000E+00  0.10566000000E+00 0.  1.
     999900   -1    0    0    0    0 -0.00000000000E+00 -0.00000000000E+00 -0.74505805969E-08  0.93827000000E+00  0.93827000000E+00 0.  1.
     999902    2    1    2    0    0  0.84618624224E-02 -0.16464897873E-01  0.14149547720E-01  0.10206296636E+01  0.10203636628E+01 0.  0.
     999903    2    3    3    0    0 -0.51434252498E-01 -0.10798867580E+00  0.54688147266E-01  0.13293178446E+00  0.19313969991E-01 0.  0.
         14    1    1    2    0    0 -0.84618624224E-02  0.16464897873E-01 -0.14149547720E-01  0.23300336442E-01  0.00000000000E+00 0. -1.
     999901    1    3    3    0    0  0.59896114920E-01  0.91523777925E-01 -0.40538599547E-01  0.88769787910E+00  0.88000000000E+00 0.  1.
        -11    1    4    4    0    0 -0.32060846092E-01 -0.44978025549E-01  0.24833537648E-01  0.60563077427E-01  0.51100000000E-03 0. -1.
         11    1    4    4    0    0 -0.19373406406E-01 -0.63010650249E-01  0.29854609618E-01  0.72368707029E-01  0.51100000000E-03 0.  1.
</event>
<event>
 8    1  0.1120016E+005  0.1043930E+01  0.7957747E-01            NaN
         13   -1    0    0    0    0  0.00000000000E+00  0.00000000000E+00  0.74505805969E-08  0.10566000000E+00  0.10566000000E+00 0.  1.
     999900   -1    0    0    0    0 -0.00000000000E+00 -0.00000000000E+00 -0.74505805969E-08  0.93827000000E+00  0.93827000000E+00 0. -1.
     999902    2    1    2    0    0 -0.64756419000E-02  0.21848827687E-01  0.79863469548E-02  0.10197828066E+01  0.10194968787E+01 0.  0.
     999903    2    3    3    0    0  0.22321112121E-01 -0.32191969317E-01  0.12262134409E+00  0.13023750518E+00  0.19780262743E-01 0.  0.
         14    1    1    2    0    0  0.64756419000E-02 -0.21848827687E-01 -0.79863469548E-02  0.24147193356E-01  0.00000000000E+00 0.  1.
     999901    1    3    3    0    0 -0.28796754021E-01  0.54040797004E-01 -0.11463499714E+00  0.88954530146E+00  0.88000000000E+00 0. -1.
        -11    1    4    4    0    0  0.17786903327E-01 -0.29489274069E-01  0.77538442389E-01  0.84843752770E-01  0.51100000000E-03 0. -1.
         11    1    4    4    0    0  0.45342087941E-02 -0.27026952483E-02  0.45082901704E-01  0.45393752413E-01  0.51100000000E-03 0.  1.
</event>
<event>
 8    1  0.1120016E+005  0.1043930E+01  0.7957747E-01            NaN
         13   -1    0    0    0    0  0.00000000000E+00  0.00000000000E+00  0.74505805969E-08  0.10566000000E+00  0.10566000000E+00 0. -1.
     999900   -1    0    0    0    0 -0.00000000000E+00 -0.00000000000E+00 -0.74505805969E-08  0.93827000000E+00  0.93827000000E+00 0. -1.
     999902    2    1    2    0    0  0.84478348245E-02  0.20232876585E-02  0.22270907770E-01  0.10200249181E+01  0.10197447625E+01 0.  0.
     999903    2    3    3    0    0  0.12795190950E+00 -0.91621893145E-03 -0.20525230391E-01  0.13091222899E+00  0.18552520415E-01 0.  0.
         14    1    1    2    0    0 -0.84478348245E-02 -0.20232876585E-02 -0.22270907770E-01  0.23905081867E-01  0.00000000000E+00 0.  1.
     999901    1    3    3    0    0 -0.11950407467E+00  0.29395065900E-02  0.42796138160E-01  0.88911268915E+00  0.88000000000E+00 0.  1.
        -11    1    4    4    0    0  0.11040461981E+00  0.47647025069E-02 -0.20850156449E-01  0.11245831499E+00  0.51100000000E-03 0.  1.
         11    1    4    4    0    0  0.17547289689E-01 -0.56809214384E-02  0.32492605806E-03  0.18453913995E-01  0.51100000000E-03 0. -1.
</event>
<event>
 8    1  0.1120016E+005  0.1043930E+01  0.7957747E-01            NaN
         13   -1    0    0    0    0  0.00000000000E+00  0.00000000000E+00  0.74505805969E-08  0.10566000000E+00  0.10566000000E+00 0. -1.
     999900   -1    0    0    0    0 -0.00000000000E+00 -0.00000000000E+00 -0.74505805969E-08  0.93827000000E+00  0.93827000000E+00 0. -1.
     999902    2    1    2    0    0  0.11774864471E-01 -0.24147438340E-01  0.82722563118E-02  0.10158199229E+01  0.10154309131E+01 0.  0.
     999903    2    3    3    0    0  0.62792605772E-01  0.71456061823E-01  0.80545455312E-01  0.12623223497E+00  0.19953111623E-01 0.  0.
         14    1    1    2    0    0 -0.11774864471E-01  0.24147438340E-01 -0.82722563118E-02  0.28110077128E-01  0.00000000000E+00 0. -1.
     999901    1    3    3    0    0 -0.51017741301E-01 -0.95603500163E-01 -0.72273199000E-01  0.88958768790E+00  0.88000000000E+00 0. -1.
        -11    1    4    4    0    0  0.18154079051E-01  0.25262542842E-01  0.38308188272E-01  0.49351241795E-01  0.51100000000E-03 0.  1.
         11    1    4    4    0    0  0.44638526721E-01  0.46193518982E-01  0.42237267040E-01  0.76880993176E-01  0.51100000000E-03 0. -1.
</event>
<event>
 8    1  0.1120016E+005  0.1043930E+01  0.7957747E-01            NaN
         13   -1    0    0    0    0  0.00000000000E+00  0.00000000000E+00  0.74505805969E-08  0.10566000000E+00  0.10566000000E+00 0. -1.
     999900   -1    0    0    0    0 -0.00000000000E+00 -0.00000000000E+00 -0.74505805969E-08  0.93827000000E+00  0.93827000000E+00 0.  1.
     999902    2    1    2    0    0 -0.11933984030E-01 -0.16600925357E-01  0.12950304250E-01  0.10197283249E+01  0.10194410898E+01 0.  0.
     999903    2    3    3    0    0 -0.12067702747E+00  0.43523077872E-01 -0.14057230255E-01  0.13058865523E+00  0.19964665901E-01 0.  0.
         14    1    1    2    0    0  0.11933984030E-01  0.16600925357E-01 -0.12950304250E-01  0.24201675101E-01  0.00000000000E+00 0. -1.
     999901    1    3    3    0    0  0.10874304344E+00 -0.60124003229E-01  0.27007534504E-01  0.88913966967E+00  0.88000000000E+00 0. -1.
        -11    1    4    4    0    0 -0.49934158805E-01  0.88253231194E-02 -0.10010168525E-01  0.51689178158E-01  0.51100000000E-03 0.  1.
         11    1    4    4    0    0 -0.70742868669E-01  0.34697754753E-01 -0.40470617294E-02  0.78899477070E-01  0.51100000000E-03 0. -1.
</event>
<event>
 8    1  0.1120016E+005  0.1043930E+01  0.7957747E-01            NaN
         13   -1    0    0    0    0  0.00000000000E+00  0.00000000000E+00  0.74505805969E-08  0.10566000000E+00  0.10566000000E+00 0. -1.
     999900   -1    0    0    0    0 -0.00000000000E+00 -0.00000000000E+00 -0.74505805969E-08  0.93827000000E+00  0.93827000000E+00 0. -1.
     999902    2    1    2    0    0  0.28713702739E-02 -0.14369920652E-01  0.83798994944E-02  0.10270491795E+01  0.10269104415E+01 0.  0.
     999903    2    3    3    0    0  0.60495986721E-01  0.54813474334E-01  0.10799410561E+00  0.13686384559E+00  0.20117256439E-01 0.  0.
         14    1    1    2    0    0 -0.28713702739E-02  0.14369920652E-01 -0.83798994944E-02  0.16880820547E-01  0.00000000000E+00 0.  1.
     999901    1    3    3    0    0 -0.57624616447E-01 -0.69183394986E-01 -0.99614206112E-01  0.89018533386E+00  0.88000000000E+00 0.  1.
        -11    1    4    4    0    0  0.40158387605E-01  0.28942912311E-01  0.51170750934E-01  0.71197578190E-01  0.51100000000E-03 0.  1.
         11    1    4    4    0    0  0.20337599116E-01  0.25870562023E-01  0.56823354673E-01  0.65666267402E-01  0.51100000000E-03 0. -1.
</event>
<event>
 8    1  0.1120016E+005  0.1043930E+01  0.7957747E-01            NaN
         13   -1    0    0    0    0  0.00000000000E+00  0.00000000000E+00  0.74505805969E-08  0.10566000000E+00  0.10566000000E+00 0. -1.
     999900   -1    0    0    0    0 -0.00000000000E+00 -0.00000000000E+00 -0.74505805969E-08  0.93827000000E+00  0.93827000000E+00 0.  1.
     999902    2    1    2    0    0 -0.84985323131E-02  0.58848152086E-02  0.20634920593E-01  0.10208506575E+01  0.10205897358E+01 0.  0.
     999903    2    3    3    0    0  0.55972956400E-01  0.24831509670E-01  0.11614564348E+00  0.13313569861E+00  0.22039238260E-01 0.  0.
         14    1    1    2    0    0  0.84985323131E-02 -0.58848152086E-02 -0.20634920593E-01  0.23079342481E-01  0.00000000000E+00 0.  1.
     999901    1    3    3    0    0 -0.64471488713E-01 -0.18946694462E-01 -0.95510722890E-01  0.88771495891E+00  0.88000000000E+00 0.  1.
        -11    1    4    4    0    0  0.44856518975E-01  0.13227546833E-01  0.69276747430E-01  0.83585908772E-01  0.51100000000E-03 0. -1.
         11    1    4    4    0    0  0.11116437425E-01  0.11603962837E-01  0.46868896052E-01  0.49549789835E-01  0.51100000000E-03 0.  1.
</event>
<event>
 8    1  0.1120016E+005  0.1043930E+01  0.7957747E-01            NaN
         13   -1    0    0    0    0  0.00000000000E+00  0.00000000000E+00  0.74505805969E-08  0.10566000000E+00  0.10566000000E+00 0. -1.
     999900   -1    0    0    0    0 -0.00000000000E+00 -0.00000000000E+00 -0.74505805969E-08  0.93827000000E+00  0.93827000000E+00 0. -1.
     999902    2    1    2    0    0  0.23128664215E-01  0.54970889621E-02 -0.19269239116E-02  0.10200790853E+01  0.10198002129E+01 0.  0.
     999903    2    3    3    0    0  0.67598735119E-01  0.16827729069E-01 -0.11056574278E+00  0.13221177340E+00  0.20060112005E-01 0.  0.
         14    1    1    2    0    0 -0.23128664215E-01 -0.54970889621E-02  0.19269239116E-02  0.23850914682E-01  0.00000000000E+00 0.  1.
     999901    1    3    3    0    0 -0.44470070904E-01 -0.11330640106E-01  0.10863881887E+00  0.88786731192E+00  0.88000000000E+00 0.  1.
        -11    1    4    4    0    0  0.49615657107E-02  0.50601423537E-02 -0.43199525640E-02  0.83153644596E-02  0.51100000000E-03 0. -1.
         11    1    4    4    0    0  0.62637169408E-01  0.11767586715E-01 -0.10624579021E+00  0.12389640894E+00  0.51100000000E-03 0.  1.
</event>
<event>
 8    1  0.1120016E+005  0.1043930E+01  0.7957747E-01            NaN
         13   -1    0    0    0    0  0.00000000000E+00  0.00000000000E+00  0.74505805969E-08  0.10566000000E+00  0.10566000000E+00 0. -1.
     999900   -1    0    0    0    0 -0.00000000000E+00 -0.00000000000E+00 -0.74505805969E-08  0.93827000000E+00  0.93827000000E+00 0. -1.
     999902    2    1    2    0    0  0.75951602473E-03 -0.28070609550E-02  0.23725285480E-01  0.10200271628E+01  0.10197470604E+01 0.  0.
     999903    2    3    3    0    0  0.77341270250E-01 -0.71940453655E-01 -0.70884410217E-01  0.12896308788E+00  0.21207957659E-01 0.  0.
         14    1    1    2    0    0 -0.75951602473E-03  0.28070609550E-02 -0.23725285480E-01  0.23902837214E-01  0.00000000000E+00 0.  1.
     999901    1    3    3    0    0 -0.76581754225E-01  0.69133392700E-01  0.94609695697E-01  0.89106407490E+00  0.88000000000E+00 0.  1.
        -11    1    4    4    0    0  0.36170617634E-01 -0.37630974012E-01 -0.47177615275E-01  0.70359024220E-01  0.51100000000E-03 0.  1.
         11    1    4    4    0    0  0.41170652616E-01 -0.34309479643E-01 -0.23706794942E-01  0.58604063661E-01  0.51100000000E-03 0. -1.
</event>
<event>
 8    1  0.1120016E+005  0.1043930E+01  0.7957747E-01            NaN
         13   -1    0    0    0    0  0.00000000000E+00  0.00000000000E+00  0.74505805969E-08  0.10566000000E+00  0.10566000000E+00 0.  1.
     999900   -1    0    0    0    0 -0.00000000000E+00 -0.00000000000E+00 -0.74505805969E-08  0.93827000000E+00  0.93827000000E+00 0. -1.
     999902    2    1    2    0    0 -0.20079141367E-01  0.60220731702E-02 -0.16409100262E-01  0.10173086579E+01  0.10169602793E+01 0.  0.
     999903    2    3    3    0    0  0.10393941335E+00 -0.66916814262E-01 -0.24860856686E-02  0.12551578198E+00  0.21604842649E-01 0.  0.
         14    1    1    2    0    0  0.20079141367E-01 -0.60220731702E-02  0.16409100262E-01  0.26621342091E-01  0.00000000000E+00 0.  1.
     999901    1    3    3    0    0 -0.12401855472E+00  0.72938887432E-01 -0.13923014594E-01  0.89179287592E+00  0.88000000000E+00 0.  1.
        -11    1    4    4    0    0  0.39007458789E-01 -0.13348984273E-01  0.13090268128E-02  0.41252295627E-01  0.51100000000E-03 0. -1.
         11    1    4    4    0    0  0.64931954564E-01 -0.53567829990E-01 -0.37951124814E-02  0.84263486357E-01  0.51100000000E-03 0.  1.
</event>
<event>
 8    1  0.1120016E+005  0.1043930E+01  0.7957747E-01            NaN
         13   -1    0    0    0    0  0.00000000000E+00  0.00000000000E+00  0.74505805969E-08  0.10566000000E+00  0.10566000000E+00 0.  1.
     999900   -1    0    0    0    0 -0.00000000000E+00 -0.00000000000E+00 -0.74505805969E-08  0.93827000000E+00  0.93827000000E+00 0. -1.
     999902    2    1    2    0    0 -0.93574834163E-02 -0.18281635813E-01  0.12586479781E-01  0.10198426552E+01  0.10195581598E+01 0.  0.
     999903    2    3    3    0    0 -0.12814334509E+00 -0.23097043214E-01  0.71853167455E-02  0.13183227150E+00  0.19337237011E-01 0.  0.
         14    1    1    2    0    0  0.93574834163E-02  0.18281635813E-01 -0.12586479781E-01  0.24087344751E-01  0.00000000000E+00 0.  1.
     999901    1    3    3    0    0  0.11878586168E+00  0.48154074012E-02  0.54011630351E-02  0.88801038375E+00  0.88000000000E+00 0. -1.
        -11    1    4    4    0    0 -0.26941726552E-01 -0.91266236340E-02 -0.52004859841E-02  0.28921584743E-01  0.51100000000E-03 0. -1.
         11    1    4    4    0    0 -0.10120161854E+00 -0.13970419580E-01  0.12385802730E-01  0.10291068676E+00  0.51100000000E-03 0.  1.
</event>
<event>
 8    1  0.1120016E+005  0.1043930E+01  0.7957747E-01            NaN
         13   -1    0    0    0    0  0.00000000000E+00  0.00000000000E+00  0.74505805969E-08  0.10566000000E+00  0.10566000000E+00 0.  1.
     999900   -1    0    0    0    0 -0.00000000000E+00 -0.00000000000E+00 -0.74505805969E-08  0.93827000000E+00  0.93827000000E+00 0.  1.
     999902    2    1    2    0    0 -0.22701067220E-01 -0.88287199634E-03 -0.58096321280E-02  0.10204806985E+01  0.10202112459E+01 0.  0.
     999903    2    3    3    0    0  0.86117851887E-01 -0.79239275890E-01  0.48977681130E-01  0.12863826124E+00  0.21303561867E-01 0.  0.
         14    1    1    2    0    0  0.22701067220E-01  0.88287199634E-03  0.58096321280E-02  0.23449301511E-01  0.00000000000E+00 0. -1.
     999901    1    3    3    0    0 -0.10881891911E+00  0.78356403894E-01 -0.54787313258E-01  0.89184243725E+00  0.88000000000E+00 0.  1.
        -11    1    4    4    0    0  0.46298811377E-01 -0.40593979996E-01  0.37101412400E-01  0.71890382319E-01  0.51100000000E-03 0. -1.
         11    1    4    4    0    0  0.39819040511E-01 -0.38645295894E-01  0.11876268729E-01  0.56747878919E-01  0.51100000000E-03 0.  1.
</event>
<event>
 8    1  0.1120016E+005  0.1043930E+01  0.7957747E-01            NaN
         13   -1    0    0    0    0  0.00000000000E+00  0.00000000000E+00  0.74505805969E-08  0.10566000000E+00  0.10566000000E+00 0. -1.
     999900   -1    0    0    0    0 -0.00000000000E+00 -0.00000000000E+00 -0.74505805969E-08  0.93827000000E+00  0.93827000000E+00 0.  1.
     999902    2    1    2    0    0  0.14272787786E-01  0.75638192169E-02  0.17986804680E-01  0.10197546205E+01  0.10194680167E+01 0.  0.
     999903    2    3    3    0    0  0.10259532824E+00  0.37751632195E-01 -0.69002078274E-01  0.13055315795E+00  0.18216836581E-01 0.  0.
         14    1    1    2    0    0 -0.14272787786E-01 -0.75638192169E-02 -0.17986804680E-01  0.24175379520E-01  0.00000000000E+00 0. -1.
     999901    1    3    3    0    0 -0.88322540453E-01 -0.30187812978E-01  0.86988882954E-01  0.88920146253E+00  0.88000000000E+00 0. -1.
        -11    1    4    4    0    0  0.55300213809E-01  0.14784804671E-01 -0.44699395196E-01  0.72629203137E-01  0.51100000000E-03 0.  1.
         11    1    4    4    0    0  0.47295114431E-01  0.22966827524E-01 -0.24302683078E-01  0.57923954815E-01  0.51100000000E-03 0. -1.
</event>
<event>
 8    1  0.1120016E+005  0.1043930E+01  0.7957747E-01            NaN
         13   -1    0    0    0    0  0.00000000000E+00  0.00000000000E+00  0.74505805969E-08  0.10566000000E+00  0.10566000000E+00 0. -1.
     999900   -1    0    0    0    0 -0.00000000000E+00 -0.00000000000E+00 -0.74505805969E-08  0.93827000000E+00  0.93827000000E+00 0.  1.
     999902    2    1    2    0    0 -0.12726838611E-01  0.17744220779E-01  0.77947625758E-02  0.10207440535E+01  0.10204806880E+01 0.  0.
     999903    2    3    3    0    0  0.11664428149E+00 -0.40955088324E-01 -0.29382329715E-01  0.12857555382E+00  0.19625087962E-01 0.  0.
         14    1    1    2    0    0  0.12726838611E-01 -0.17744220779E-01 -0.77947625758E-02  0.23185946513E-01  0.00000000000E+00 0. -1.
     999901    1    3    3    0    0 -0.12937112010E+00  0.58699309103E-01  0.37177092290E-01  0.89216849967E+00  0.88000000000E+00 0. -1.
        -11    1    4    4    0    0  0.28085674441E-01 -0.51725746116E-02  0.26673087437E-03  0.28563839085E-01  0.51100000000E-03 0. -1.
         11    1    4    4    0    0  0.88558607048E-01 -0.35782513712E-01 -0.29649060589E-01  0.10001171474E+00  0.51100000000E-03 0.  1.
</event>
<event>
 8    1  0.1120016E+005  0.1043930E+01  0.7957747E-01            NaN
         13   -1    0    0    0    0  0.00000000000E+00  0.00000000000E+00  0.74505805969E-08  0.10566000000E+00  0.10566000000E+00 0. -1.
     999900   -1    0    0    0    0 -0.00000000000E+00 -0.00000000000E+00 -0.74505805969E-08  0.93827000000E+00  0.93827000000E+00 0.  1.
     999902    2    1    2    0    0  0.54682499040E-02  0.18876193327E-01  0.14089072796E-01  0.10197491315E+01  0.10194623959E+01 0.  0.
     999903    2    3    3    0    0  0.80663657804E-01 -0.55958900074E-01 -0.80469778302E-01  0.12834797771E+00  0.18968235919E-01 0.  0.
         14    1    1    2    0    0 -0.54682499040E-02 -0.18876193327E-01 -0.14089072796E-01  0.24180868549E-01  0.00000000000E+00 0.  1.
     999901    1    3    3    0    0 -0.75195407900E-01  0.74835093401E-01  0.94558851098E-01  0.89140115374E+00  0.88000000000E+00 0. -1.
        -11    1    4    4    0    0  0.15623743690E-01 -0.75357734846E-02 -0.63197816274E-02  0.18468622301E-01  0.51100000000E-03 0.  1.
         11    1    4    4    0    0  0.65039914115E-01 -0.48423126589E-01 -0.74149996675E-01  0.10987935541E+00  0.51100000000E-03 0. -1.
</event>
<event>
 8    1  0.1120016E+005  0.1043930E+01  0.7957747E-01            NaN
         13   -1    0    0    0    0  0.00000000000E+00  0.00000000000E+00  0.74505805969E-08  0.10566000000E+00  0.10566000000E+00 0.  1.
     999900   -1    0    0    0    0 -0.00000000000E+00 -0.00000000000E+00 -0.74505805969E-08  0.93827000000E+00  0.93827000000E+00 0. -1.
     999902    2    1    2    0    0  0.13549711375E-01 -0.91997383451E-02 -0.17756525275E-01  0.10197737575E+01  0.10194876126E+01 0.  0.
     999903    2    3    3    0    0  0.12866763390E+00 -0.20484978347E-01  0.54309189327E-02  0.13190149733E+00  0.19837231814E-01 0.  0.
         14    1    1    2    0    0 -0.13549711375E-01  0.91997383451E-02  0.17756525275E-01  0.24156242543E-01  0.00000000000E+00 0.  1.
     999901    1    3    3    0    0 -0.11511792253E+00  0.11285240002E-01 -0.23187444207E-01  0.88787226012E+00  0.88000000000E+00 0. -1.
        -11    1    4    4    0    0  0.80952271093E-01 -0.66105302418E-02 -0.39936716599E-02  0.81321459895E-01  0.51100000000E-03 0.  1.
         11    1    4    4    0    0  0.47715362810E-01 -0.13874448105E-01  0.94245905925E-02  0.50580037438E-01  0.51100000000E-03 0. -1.
</event>
<event>
 8    1  0.1120016E+005  0.1043930E+01  0.7957747E-01            NaN
         13   -1    0    0    0    0  0.00000000000E+00  0.00000000000E+00  0.74505805969E-08  0.10566000000E+00  0.10566000000E+00 0. -1.
     999900   -1    0    0    0    0 -0.00000000000E+00 -0.00000000000E+00 -0.74505805969E-08  0.93827000000E+00  0.93827000000E+00 0. -1.
     999902    2    1    2    0    0  0.12487933252E-01  0.93199404790E-02 -0.16451234135E-01  0.10212705015E+01  0.10210190911E+01 0.  0.
     999903    2    3    3    0    0 -0.62327260252E-01  0.66899081229E-01  0.90312829964E-01  0.12980472201E+00  0.18239631586E-01 0.  0.
         14    1    1    2    0    0 -0.12487933252E-01 -0.93199404790E-02  0.16451234135E-01  0.22659498494E-01  0.00000000000E+00 0. -1.
     999901    1    3    3    0    0  0.74815193504E-01 -0.57579140750E-01 -0.10676406410E+00  0.89146577950E+00  0.88000000000E+00 0. -1.
        -11    1    4    4    0    0 -0.47068422743E-02  0.14275212545E-01  0.11900605415E-01  0.19178675335E-01  0.51100000000E-03 0.  1.
         11    1    4    4    0    0 -0.57620417978E-01  0.52623868685E-01  0.78412224549E-01  0.11062604668E+00  0.51100000000E-03 0. -1.
</event>
<event>
 8    1  0.1120016E+005  0.1043930E+01  0.7957747E-01            NaN
         13   -1    0    0    0    0  0.00000000000E+00  0.00000000000E+00  0.74505805969E-08  0.10566000000E+00  0.10566000000E+00 0. -1.
     999900   -1    0    0    0    0 -0.00000000000E+00 -0.00000000000E+00 -0.74505805969E-08  0.93827000000E+00  0.93827000000E+00 0. -1.
     999902    2    1    2    0    0  0.77538411866E-02  0.22272767452E-01 -0.13337200184E-02  0.10203084625E+01  0.10200349904E+01 0.  0.
     999903    2    3    3    0    0 -0.60791115204E-01 -0.47353539993E-01  0.10137425196E+00  0.12896388200E+00  0.20421225794E-01 0.  0.
         14    1    1    2    0    0 -0.77538411866E-02 -0.22272767452E-01  0.13337200184E-02  0.23621537465E-01  0.00000000000E+00 0. -1.
     999901    1    3    3    0    0  0.68544956390E-01  0.69626307445E-01 -0.10270797198E+00  0.89134458053E+00  0.88000000000E+00 0.  1.
        -11    1    4    4    0    0  0.65177746629E-03  0.89771628197E-03  0.36510918278E-02  0.38499741458E-02  0.51100000000E-03 0.  1.
         11    1    4    4    0    0 -0.61442892670E-01 -0.48251256275E-01  0.97723160134E-01  0.12511390786E+00  0.51100000000E-03 0. -1.
</event>
<event>
 8    1  0.1120016E+005  0.1043930E+01  0.7957747E-01            NaN
         13   -1    0    0    0    0  0.00000000000E+00  0.00000000000E+00  0.74505805969E-08  0.10566000000E+00  0.10566000000E+00 0.  1.
     999900   -1    0    0    0    0 -0.00000000000E+00 -0.00000000000E+00 -0.74505805969E-08  0.93827000000E+00  0.93827000000E+00 0. -1.
     999902    2    1    2    0    0 -0.17910485214E-01  0.39981543128E-03  0.13740391503E-01  0.10213524959E+01  0.10211029219E+01 0.  0.
     999903    2    3    3    0    0  0.37588972026E-01  0.50357482713E-01  0.11475284662E+00  0.13243209768E+00  0.20524078689E-01 0.  0.
         14    1    1    2    0    0  0.17910485214E-01 -0.39981543128E-03 -0.13740391503E-01  0.22577504106E-01  0.00000000000E+00 0. -1.
     999901    1    3    3    0    0 -0.55499457241E-01 -0.49957667281E-01 -0.10101245511E+00  0.88892039821E+00  0.88000000000E+00 0. -1.
        -11    1    4    4    0    0  0.84509736518E-02  0.28012080498E-01  0.54866676668E-01  0.62182866926E-01  0.51100000000E-03 0. -1.
         11    1    4    4    0    0  0.29137998374E-01  0.22345402214E-01  0.59886169948E-01  0.70249230754E-01  0.51100000000E-03 0.  1.
</event>
<event>
 8    1  0.1120016E+005  0.1043930E+01  0.7957747E-01            NaN
         13   -1    0    0    0    0  0.00000000000E+00  0.00000000000E+00  0.74505805969E-08  0.10566000000E+00  0.10566000000E+00 0. -1.
     999900   -1    0    0    0    0 -0.00000000000E+00 -0.00000000000E+00 -0.74505805969E-08  0.93827000000E+00  0.93827000000E+00 0.  1.
     999902    2    1    2    0    0  0.11052009287E-01  0.20255981826E-01 -0.55733052714E-02  0.10201915620E+01  0.10199153444E+01 0.  0.
     999903    2    3    3    0    0  0.19235823040E-01  0.88819331806E-01 -0.94926694643E-01  0.13297572804E+00  0.20311974318E-01 0.  0.
         14    1    1    2    0    0 -0.11052009287E-01 -0.20255981826E-01  0.55733052714E-02  0.23738438042E-01  0.00000000000E+00 0. -1.
     999901    1    3    3    0    0 -0.81838137525E-02 -0.68563349980E-01  0.89353389371E-01  0.88721583392E+00  0.88000000000E+00 0. -1.
        -11    1    4    4    0    0  0.13457204384E-01  0.41982882292E-01 -0.59044237097E-01  0.73689495932E-01  0.51100000000E-03 0.  1.
         11    1    4    4    0    0  0.57786186554E-02  0.46836449514E-01 -0.35882457545E-01  0.59286232105E-01  0.51100000000E-03 0. -1.
</event>
<event>
 8    1  0.1120016E+005  0.1043930E+01  0.7957747E-01            NaN
         13   -1    0    0    0    0  0.00000000000E+00  0.00000000000E+00  0.74505805969E-08  0.10566000000E+00  0.10566000000E+00 0. -1.
     999900   -1    0    0    0    0 -0.00000000000E+00 -0.00000000000E+00 -0.74505805969E-08  0.93827000000E+00  0.93827000000E+00 0. -1.
     999902    2    1    2    0    0 -0.52716435857E-02  0.90901859219E-02 -0.22816859341E-01  0.10188096740E+01  0.10184999367E+01 0.  0.
     999903    2    3    3    0    0  0.53613298688E-01 -0.31227722161E-01 -0.11391684711E+00  0.13123309824E+00  0.19887724580E-01 0.  0.
         14    1    1    2    0    0  0.52716435857E-02 -0.90901859219E-02  0.22816859341E-01  0.25120325960E-01  0.00000000000E+00 0. -1.
     999901    1    3    3    0    0 -0.58884942274E-01  0.40317908083E-01  0.91099987774E-01  0.88757657580E+00  0.88000000000E+00 0.  1.
        -11    1    4    4    0    0  0.33597230776E-01 -0.28190539785E-01 -0.88162029128E-01  0.98469715903E-01  0.51100000000E-03 0. -1.
         11    1    4    4    0    0  0.20016067913E-01 -0.30371823766E-02 -0.25754817987E-01  0.32763382335E-01  0.51100000000E-03 0.  1.
</event>
<event>
 8    1  0.1120016E+005  0.1043930E+01  0.7957747E-01            NaN
         13   -1    0    0    0    0  0.00000000000E+00  0.00000000000E+00  0.74505805969E-08  0.10566000000E+00  0.10566000000E+00 0.  1.
     999900   -1    0    0    0    0 -0.00000000000E+00 -0.00000000000E+00 -0.74505805969E-08  0.93827000000E+00  0.93827000000E+00 0.  1.
     999902    2    1    2    0    0  0.12350060992E-01 -0.17886616718E-01 -0.83115361922E-02  0.10206590589E+01  0.10203937367E+01 0.  0.
     999903    2    3    3    0    0 -0.63611823115E-01  0.93873351320E-01  0.55842928442E-01  0.12803579371E+00  0.20397590194E-01 0.  0.
         14    1    1    2    0    0 -0.12350060992E-01  0.17886616718E-01  0.83115361922E-02  0.23270941063E-01  0.00000000000E+00 0.  1.
     999901    1    3    3    0    0  0.75961884106E-01 -0.11175996804E+00 -0.64154464635E-01  0.89262326523E+00  0.88000000000E+00 0. -1.
        -11    1    4    4    0    0 -0.52732542247E-01  0.61355028736E-01  0.38166203491E-01  0.89454350218E-01  0.51100000000E-03 0. -1.
         11    1    4    4    0    0 -0.10879280868E-01  0.32518322583E-01  0.17676724951E-01  0.38581443491E-01  0.51100000000E-03 0.  1.
</event>
<event>
 8    1  0.1120016E+005  0.1043930E+01  0.7957747E-01            NaN
         13   -1    0    0    0    0  0.00000000000E+00  0.00000000000E+00  0.74505805969E-08  0.10566000000E+00  0.10566000000E+00 0.  1.
     999900   -1    0    0    0    0 -0.00000000000E+00 -0.00000000000E+00 -0.74505805969E-08  0.93827000000E+00  0.93827000000E+00 0.  1.
     999902    2    1    2    0    0  0.20253855556E-01 -0.11814215601E-01 -0.12391090056E-02  0.10204495880E+01  0.10201794117E+01 0.  0.
     999903    2    3    3    0    0  0.39523075729E-02  0.17485738552E-02 -0.12932386414E+00  0.13092421221E+00  0.19945156366E-01 0.  0.
         14    1    1    2    0    0 -0.20253855556E-01  0.11814215601E-01  0.12391090056E-02  0.23480411970E-01  0.00000000000E+00 0.  1.
     999901    1    3    3    0    0  0.16301547983E-01 -0.13562789456E-01  0.12808475513E+00  0.88952537582E+00  0.88000000000E+00 0. -1.
        -11    1    4    4    0    0  0.88898979104E-02 -0.38790074571E-02 -0.35624111623E-01  0.36924455767E-01  0.51100000000E-03 0.  1.
         11    1    4    4    0    0 -0.49375903375E-02  0.56275813123E-02 -0.93699752514E-01  0.93999756447E-01  0.51100000000E-03 0. -1.
</event>
<event>
 8    1  0.1120016E+005  0.1043930E+01  0.7957747E-01            NaN
         13   -1    0    0    0    0  0.00000000000E+00  0.00000000000E+00  0.74505805969E-08  0.10566000000E+00  0.10566000000E+00 0. -1.
     999900   -1    0    0    0    0 -0.00000000000E+00 -0.00000000000E+00 -0.74505805969E-08  0.93827000000E+00  0.93827000000E+00 0.  1.
     999902    2    1    2    0    0 -0.10116826451E-01  0.17836191337E-01  0.11031070158E-01  0.10206455759E+01  0.10203799425E+01 0.  0.
     999903    2    3    3    0    0  0.21493792260E-01 -0.83957939741E-01  0.95085179106E-01  0.13023759658E+00  0.20241579110E-01 0.  0.
         14    1    1    2    0    0  0.10116826451E-01 -0.17836191337E-01 -0.11031070158E-01  0.23284424143E-01  0.00000000000E+00 0.  1.
     999901    1    3    3    0    0 -0.31610618711E-01  0.10179413108E+00 -0.84054108948E-01  0.89040797928E+00  0.88000000000E+00 0.  1.
        -11    1    4    4    0    0  0.17974566083E-01 -0.37243430435E-01  0.53281297417E-01  0.67448616827E-01  0.51100000000E-03 0. -1.
         11    1    4    4    0    0  0.35192261771E-02 -0.46714509306E-01  0.41803881689E-01  0.62788979748E-01  0.51100000000E-03 0.  1.
</event>
<event>
 8    1  0.1120016E+005  0.1043930E+01  0.7957747E-01            NaN
         13   -1    0    0    0    0  0.00000000000E+00  0.00000000000E+00  0.74505805969E-08  0.10566000000E+00  0.10566000000E+00 0.  1.
     999900   -1    0    0    0    0 -0.00000000000E+00 -0.00000000000E+00 -0.74505805969E-08  0.93827000000E+00  0.93827000000E+00 0.  1.
     999902    2    1    2    0    0 -0.12036617232E-01 -0.10326738473E-01  0.20421034607E-01  0.10180738530E+01  0.10177454642E+01 0.  0.
     999903    2    3    3    0    0  0.34893182154E-01 -0.94975758305E-01 -0.75194802444E-01  0.12761877223E+00  0.19858597220E-01 0.  0.
         14    1    1    2    0    0  0.12036617232E-01  0.10326738473E-01 -0.20421034607E-01  0.25856146973E-01  0.00000000000E+00 0.  1.
     999901    1    3    3    0    0 -0.46929799386E-01  0.84649019831E-01  0.95615837051E-01  0.89045508080E+00  0.88000000000E+00 0. -1.
        -11    1    4    4    0    0 -0.76879321115E-03 -0.20591682597E-01 -0.14398421004E-01  0.25143271139E-01  0.51100000000E-03 0. -1.
         11    1    4    4    0    0  0.35661975365E-01 -0.74384075708E-01 -0.60796381439E-01  0.10247550109E+00  0.51100000000E-03 0.  1.
</event>
<event>
 8    1  0.1120016E+005  0.1043930E+01  0.7957747E-01            NaN
         13   -1    0    0    0    0  0.00000000000E+00  0.00000000000E+00  0.74505805969E-08  0.10566000000E+00  0.10566000000E+00 0. -1.
     999900   -1    0    0    0    0 -0.00000000000E+00 -0.00000000000E+00 -0.74505805969E-08  0.93827000000E+00  0.93827000000E+00 0. -1.
     999902    2    1    2    0    0 -0.16028089209E-01 -0.25887912626E-02  0.15656184348E-01  0.10213752313E+01  0.10211261653E+01 0.  0.
     999903    2    3    3    0    0 -0.11701230117E+00  0.50784297801E-01  0.35258266635E-01  0.13377693287E+00  0.19549907269E-01 0.  0.
         14    1    1    2    0    0  0.16028089209E-01  0.25887912626E-02 -0.15656184348E-01  0.22554768725E-01  0.00000000000E+00 0.  1.
     999901    1    3    3    0    0  0.10098421196E+00 -0.53373089063E-01 -0.19602082287E-01  0.88759829840E+00  0.88000000000E+00 0. -1.
        -11    1    4    4    0    0 -0.34247591310E-01  0.14319947808E-01  0.19626789511E-01  0.41993218539E-01  0.51100000000E-03 0.  1.
         11    1    4    4    0    0 -0.82764709859E-01  0.36464349993E-01  0.15631477124E-01  0.91783714332E-01  0.51100000000E-03 0. -1.
</event>
<event>
 8    1  0.1120016E+005  0.1043930E+01  0.7957747E-01            NaN
         13   -1    0    0    0    0  0.00000000000E+00  0.00000000000E+00  0.74505805969E-08  0.10566000000E+00  0.10566000000E+00 0.  1.
     999900   -1    0    0    0    0 -0.00000000000E+00 -0.00000000000E+00 -0.74505805969E-08  0.93827000000E+00  0.93827000000E+00 0.  1.
     999902    2    1    2    0    0 -0.12180832359E-01  0.17516632001E-01 -0.92328114477E-02  0.10206824220E+01  0.10204176384E+01 0.  0.
     999903    2    3    3    0    0  0.61040614222E-02  0.94234069355E-01 -0.92135841338E-01  0.13327450293E+00  0.18861613923E-01 0.  0.
         14    1    1    2    0    0  0.12180832359E-01 -0.17516632001E-01  0.92328114477E-02  0.23247577957E-01  0.00000000000E+00 0.  1.
     999901    1    3    3    0    0 -0.18284893781E-01 -0.76717437354E-01  0.82903029891E-01  0.88740791911E+00  0.88000000000E+00 0. -1.
        -11    1    4    4    0    0  0.69533630157E-02  0.39231921610E-01 -0.27587476796E-01  0.48464656477E-01  0.51100000000E-03 0.  1.
         11    1    4    4    0    0 -0.84930159353E-03  0.55002147745E-01 -0.64548364543E-01  0.84809846456E-01  0.51100000000E-03 0. -1.
</event>
<event>
 8    1  0.1120016E+005  0.1043930E+01  0.7957747E-01            NaN
         13   -1    0    0    0    0  0.00000000000E+00  0.00000000000E+00  0.74505805969E-08  0.10566000000E+00  0.10566000000E+00 0. -1.
     999900   -1    0    0    0    0 -0.00000000000E+00 -0.00000000000E+00 -0.74505805969E-08  0.93827000000E+00  0.93827000000E+00 0. -1.
     999902    2    1    2    0    0  0.13796053782E-01  0.17075941372E-01  0.63818534382E-02  0.10210685275E+01  0.10208125640E+01 0.  0.
     999903    2    3    3    0    0  0.94553047282E-01  0.31205868919E-01  0.86728416285E-01  0.13361322322E+00  0.20410541939E-01 0.  0.
         14    1    1    2    0    0 -0.13796053782E-01 -0.17075941372E-01 -0.63818534382E-02  0.22861472547E-01  0.00000000000E+00 0. -1.
     999901    1    3    3    0    0 -0.80756993500E-01 -0.14129927547E-01 -0.80346562847E-01  0.88745530423E+00  0.88000000000E+00 0. -1.
        -11    1    4    4    0    0  0.16125828315E-01  0.44509600030E-02  0.56107277364E-02  0.17652047205E-01  0.51100000000E-03 0.  1.
         11    1    4    4    0    0  0.78427218967E-01  0.26754908916E-01  0.81117688549E-01  0.11596117601E+00  0.51100000000E-03 0. -1.
</event>
<event>
 8    1  0.1120016E+005  0.1043930E+01  0.7957747E-01            NaN
         13   -1    0    0    0    0  0.00000000000E+00  0.00000000000E+00  0.74505805969E-08  0.10566000000E+00  0.10566000000E+00 0. -1.
     999900   -1    0    0    0    0 -0.00000000000E+00 -0.00000000000E+00 -0.74505805969E-08  0.93827000000E+00  0.93827000000E+00 0. -1.
     999902    2    1    2    0    0 -0.13785551323E-01  0.14093395146E-01  0.13596298494E-01  0.10199816275E+01  0.10197004442E+01 0.  0.
     999903    2    3    3    0    0  0.30140490579E-01  0.17740018856E-01  0.12579660240E+00  0.13176335298E+00  0.17709843876E-01 0.  0.
         14    1    1    2    0    0  0.13785551323E-01 -0.14093395146E-01 -0.13596298494E-01  0.23948372486E-01  0.00000000000E+00 0.  1.
     999901    1    3    3    0    0 -0.43926041902E-01 -0.36466237103E-02 -0.11220030391E+00  0.88821827454E+00  0.88000000000E+00 0.  1.
        -11    1    4    4    0    0  0.93472262304E-02 -0.91978993743E-03  0.52197928767E-01  0.53038679662E-01  0.51100000000E-03 0. -1.
         11    1    4    4    0    0  0.20793264349E-01  0.18659808794E-01  0.73598673637E-01  0.78724673316E-01  0.51100000000E-03 0.  1.
</event>
<event>
 8    1  0.1120016E+005  0.1043930E+01  0.7957747E-01            NaN
         13   -1    0    0    0    0  0.00000000000E+00  0.00000000000E+00  0.74505805969E-08  0.10566000000E+00  0.10566000000E+00 0.  1.
     999900   -1    0    0    0    0 -0.00000000000E+00 -0.00000000000E+00 -0.74505805969E-08  0.93827000000E+00  0.93827000000E+00 0. -1.
     999902    2    1    2    0    0 -0.68686344712E-02 -0.57090127575E-02  0.22080454631E-01  0.10201115735E+01  0.10198334692E+01 0.  0.
     999903    2    3    3    0    0  0.41352861393E-01  0.52410146073E-01  0.11220705927E+00  0.13229067139E+00  0.21295892350E-01 0.  0.
         14    1    1    2    0    0  0.68686344712E-02  0.57090127575E-02 -0.22080454631E-01  0.23818426541E-01  0.00000000000E+00 0. -1.
     999901    1    3    3    0    0 -0.48221495864E-01 -0.58119158831E-01 -0.90126604635E-01  0.88782090207E+00  0.88000000000E+00 0. -1.
        -11    1    4    4    0    0  0.22760578934E-01  0.25846801482E-01  0.77405315924E-01  0.84722754644E-01  0.51100000000E-03 0. -1.
         11    1    4    4    0    0  0.18592282459E-01  0.26563344591E-01  0.34801743343E-01  0.47567916746E-01  0.51100000000E-03 0.  1.
</event>
<event>
 8    1  0.1120016E+005  0.1043930E+01  0.7957747E-01            NaN
         13   -1    0    0    0    0  0.00000000000E+00  0.00000000000E+00  0.74505805969E-08  0.10566000000E+00  0.10566000000E+00 0. -1.
     999900   -1    0    0    0    0 -0.00000000000E+00 -0.00000000000E+00 -0.74505805969E-08  0.93827000000E+00  0.93827000000E+00 0. -1.
     999902    2    1    2    0    0  0.17097417040E-01 -0.64482711568E-02  0.13732686130E-01  0.10210719918E+01  0.10208161068E+01 0.  0.
     999903    2    3    3    0    0  0.64500201181E-01  0.18473284883E-01 -0.11031887487E+00  0.13075918291E+00  0.20643922955E-01 0.  0.
         14    1    1    2    0    0 -0.17097417040E-01  0.64482711568E-02 -0.13732686130E-01  0.22858008196E-01  0.00000000000E+00 0.  1.
     999901    1    3    3    0    0 -0.47402784141E-01 -0.24921556040E-01  0.12405156100E+00  0.89031280890E+00  0.88000000000E+00 0.  1.
        -11    1    4    4    0    0  0.42358596561E-01  0.20291547386E-01 -0.64013355282E-01  0.79397533800E-01  0.51100000000E-03 0.  1.
         11    1    4    4    0    0  0.22141604620E-01 -0.18182625027E-02 -0.46305519588E-01  0.51361649107E-01  0.51100000000E-03 0. -1.
</event>
<event>
 8    1  0.1120016E+005  0.1043930E+01  0.7957747E-01            NaN
         13   -1    0    0    0    0  0.00000000000E+00  0.00000000000E+00  0.74505805969E-08  0.10566000000E+00  0.10566000000E+00 0.  1.
     999900   -1    0    0    0    0 -0.00000000000E+00 -0.00000000000E+00 -0.74505805969E-08  0.93827000000E+00  0.93827000000E+00 0.  1.
     999902    2    1    2    0    0  0.11527379719E-01 -0.19220625907E-01  0.10329509521E-02  0.10214938700E+01  0.10212474462E+01 0.  0.
     999903    2    3    3    0    0 -0.57311978793E-01  0.11174796685E+00  0.20700301706E-01  0.12892542202E+00  0.20518063890E-01 0.  0.
         14    1    1    2    0    0 -0.11527379719E-01  0.19220625907E-01 -0.10329509521E-02  0.22436130039E-01  0.00000000000E+00 0. -1.
     999901    1    3    3    0    0  0.68839358511E-01 -0.13096859275E+00 -0.19667350754E-01  0.89256844794E+00  0.88000000000E+00 0.  1.
        -11    1    4    4    0    0 -0.13022487308E-01  0.20112582923E-01 -0.37339790216E-02  0.24254997173E-01  0.51100000000E-03 0.  1.
         11    1    4    4    0    0 -0.44289491484E-01  0.91635383923E-01  0.24434280728E-01  0.10467042485E+00  0.51100000000E-03 0. -1.
</event>
<event>
 8    1  0.1120016E+005  0.1043930E+01  0.7957747E-01            NaN
         13   -1    0    0    0    0  0.00000000000E+00  0.00000000000E+00  0.74505805969E-08  0.10566000000E+00  0.10566000000E+00 0.  1.
     999900   -1    0    0    0    0 -0.00000000000E+00 -0.00000000000E+00 -0.74505805969E-08  0.93827000000E+00  0.93827000000E+00 0.  1.
     999902    2    1    2    0    0 -0.14047114562E-01  0.15724858403E-01  0.12339715137E-01  0.10194992577E+01  0.10192064930E+01 0.  0.
     999903    2    3    3    0    0 -0.81002379588E-01  0.90998135320E-01 -0.45896675875E-01  0.13183910260E+00  0.20808603664E-01 0.  0.
         14    1    1    2    0    0  0.14047114562E-01 -0.15724858403E-01 -0.12339715137E-01  0.24430742293E-01  0.00000000000E+00 0. -1.
     999901    1    3    3    0    0  0.66955265026E-01 -0.75273276916E-01  0.58236391012E-01  0.88766015511E+00  0.88000000000E+00 0. -1.
        -11    1    4    4    0    0 -0.40782996110E-01  0.40884868793E-01 -0.11252569538E-01  0.58836270362E-01  0.51100000000E-03 0.  1.
         11    1    4    4    0    0 -0.40219383478E-01  0.50113266527E-01 -0.34644106337E-01  0.73002832234E-01  0.51100000000E-03 0. -1.
</event>
<event>
 8    1  0.1120016E+005  0.1043930E+01  0.7957747E-01            NaN
         13   -1    0    0    0    0  0.00000000000E+00  0.00000000000E+00  0.74505805969E-08  0.10566000000E+00  0.10566000000E+00 0.  1.
     999900   -1    0    0    0    0 -0.00000000000E+00 -0.00000000000E+00 -0.74505805969E-08  0.93827000000E+00  0.93827000000E+00 0. -1.
     999902    2    1    2    0    0 -0.43232116703E-02  0.21665046739E-01  0.91798209355E-02  0.10200065069E+01  0.10197259145E+01 0.  0.
     999903    2    3    3    0    0 -0.56915692573E-01  0.10432543626E-01  0.11705161856E+00  0.13179005643E+00  0.17869066562E-01 0.  0.
         14    1    1    2    0    0  0.43232116703E-02 -0.21665046739E-01 -0.91798209355E-02  0.23923493092E-01  0.00000000000E+00 0.  1.
     999901    1    3    3    0    0  0.52592480903E-01  0.11232503113E-01 -0.10787179762E+00  0.88821645048E+00  0.88000000000E+00 0. -1.
        -11    1    4    4    0    0 -0.31830890367E-01 -0.32135547161E-02  0.62447813076E-01  0.70167820220E-01  0.51100000000E-03 0. -1.
         11    1    4    4    0    0 -0.25084802206E-01  0.13646098342E-01  0.54603805481E-01  0.61622236212E-01  0.51100000000E-03 0.  1.
</event>
<event>
 8    1  0.1120016E+005  0.1043930E+01  0.7957747E-01            NaN
         13   -1    0    0    0    0  0.00000000000E+00  0.00000000000E+00  0.74505805969E-08  0.10566000000E+00  0.10566000000E+00 0.  1.
     999900   -1    0    0    0    0 -0.00000000000E+00 -0.00000000000E+00 -0.74505805969E-08  0.93827000000E+00  0.93827000000E+00 0.  1.
     999902    2    1    2    0    0  0.12198739475E-01  0.10313333950E-01  0.23714692180E-01  0.10153369811E+01  0.10149342957E+01 0.  0.
     999903    2    3    3    0    0 -0.12126798122E+00  0.41786236540E-02  0.21947105962E-01  0.12525039852E+00  0.21968220361E-01 0.  0.
         14    1    1    2    0    0 -0.12198739475E-01 -0.10313333950E-01 -0.23714692180E-01  0.28593018853E-01  0.00000000000E+00 0.  1.
     999901    1    3    3    0    0  0.13346672069E+00  0.61347102963E-02  0.17675862185E-02  0.89008658262E+00  0.88000000000E+00 0. -1.
        -11    1    4    4    0    0 -0.97065665126E-01  0.20271848097E-02  0.26238651595E-01  0.10057127216E+00  0.51100000000E-03 0.  1.
         11    1    4    4    0    0 -0.24202316093E-01  0.21514388442E-02 -0.42915456335E-02  0.24679126368E-01  0.51100000000E-03 0. -1.
</event>
<event>
 8    1  0.1120016E+005  0.1043930E+01  0.7957747E-01            NaN
         13   -1    0    0    0    0  0.00000000000E+00  0.00000000000E+00  0.74505805969E-08  0.10566000000E+00  0.10566000000E+00 0.  1.
     999900   -1    0    0    0    0 -0.00000000000E+00 -0.00000000000E+00 -0.74505805969E-08  0.93827000000E+00  0.93827000000E+00 0. -1.
     999902    2    1    2    0    0 -0.23404817093E-01 -0.60902962280E-02 -0.12320344185E-01  0.10167883705E+01  0.10164260535E+01 0.  0.
     999903    2    3    3    0    0 -0.81502396931E-01 -0.96420777625E-01  0.16524429923E-01  0.12978952853E+00  0.25152691089E-01 0.  0.
         14    1    1    2    0    0  0.23404817093E-01  0.60902962280E-02  0.12320344185E-01  0.27141629504E-01  0.00000000000E+00 0.  1.
     999901    1    3    3    0    0  0.58097579838E-01  0.90330481397E-01 -0.28844774108E-01  0.88699884196E+00  0.88000000000E+00 0. -1.
        -11    1    4    4    0    0 -0.30900645646E-01 -0.54029272665E-01  0.24496660444E-02  0.62291846904E-01  0.51100000000E-03 0.  1.
         11    1    4    4    0    0 -0.50601751285E-01 -0.42391504961E-01  0.14074763879E-01  0.67497681628E-01  0.51100000000E-03 0. -1.
</event>
<event>
 8    1  0.1120016E+005  0.1043930E+01  0.7957747E-01            NaN
         13   -1    0    0    0    0  0.00000000000E+00  0.00000000000E+00  0.74505805969E-08  0.10566000000E+00  0.10566000000E+00 0.  1.
     999900   -1    0    0    0    0 -0.00000000000E+00 -0.00000000000E+00 -0.74505805969E-08  0.93827000000E+00  0.93827000000E+00 0.  1.
     999902    2    1    2    0    0  0.45857917694E-02  0.22383075651E-01  0.51469073155E-02  0.10205094488E+01  0.10202406642E+01 0.  0.
     999903    2    3    3    0    0  0.35971498002E-01 -0.10726629553E+00  0.58580195535E-01  0.12885416887E+00  0.19280837689E-01 0.  0.
         14    1    1    2    0    0 -0.45857917694E-02 -0.22383075651E-01 -0.51469073155E-02  0.23420551160E-01  0.00000000000E+00 0. -1.
     999901    1    3    3    0    0 -0.31385706233E-01  0.12964937118E+00 -0.53433288220E-01  0.89165527997E+00  0.88000000000E+00 0.  1.
        -11    1    4    4    0    0  0.32472296548E-01 -0.68406272514E-01  0.39894407660E-01  0.85590262565E-01  0.51100000000E-03 0. -1.
         11    1    4    4    0    0  0.34992014546E-02 -0.38860023015E-01  0.18685787875E-01  0.43263906308E-01  0.51100000000E-03 0.  1.
</event>
<event>
 8    1  0.1120016E+005  0.1043930E+01  0.7957747E-01            NaN
         13   -1    0    0    0    0  0.00000000000E+00  0.00000000000E+00  0.74505805969E-08  0.10566000000E+00  0.10566000000E+00 0. -1.
     999900   -1    0    0    0    0 -0.00000000000E+00 -0.00000000000E+00 -0.74505805969E-08  0.93827000000E+00  0.93827000000E+00 0. -1.
     999902    2    1    2    0    0  0.87009352493E-02 -0.10367625090E-01  0.19377359860E-01  0.10202936720E+01  0.10200198533E+01 0.  0.
     999903    2    3    3    0    0 -0.10679740640E+00  0.65656726599E-01 -0.21067521955E-01  0.12857883117E+00  0.19292060065E-01 0.  0.
         14    1    1    2    0    0 -0.87009352493E-02  0.10367625090E-01 -0.19377359860E-01  0.23636327959E-01  0.00000000000E+00 0.  1.
     999901    1    3    3    0    0  0.11549834165E+00 -0.76024351689E-01  0.40444881815E-01  0.89171484088E+00  0.88000000000E+00 0.  1.
        -11    1    4    4    0    0 -0.24700890076E-01  0.24686351310E-01 -0.87247158879E-02  0.35999051375E-01  0.51100000000E-03 0. -1.
         11    1    4    4    0    0 -0.82096516322E-01  0.40970375289E-01 -0.12342806068E-01  0.92579779791E-01  0.51100000000E-03 0.  1.
</event>
<event>
 8    1  0.1120016E+005  0.1043930E+01  0.7957747E-01            NaN
         13   -1    0    0    0    0  0.00000000000E+00  0.00000000000E+00  0.74505805969E-08  0.10566000000E+00  0.10566000000E+00 0. -1.
     999900   -1    0    0    0    0 -0.00000000000E+00 -0.00000000000E+00 -0.74505805969E-08  0.93827000000E+00  0.93827000000E+00 0. -1.
     999902    2    1    2    0    0  0.62406872811E-02 -0.22554028343E-01  0.30348601731E-03  0.10205265285E+01  0.10202581404E+01 0.  0.
     999903    2    3    3    0    0  0.12330277105E+00  0.37978205684E-01 -0.49008123562E-02  0.13069802398E+00  0.20298720573E-01 0.  0.
         14    1    1    2    0    0 -0.62406872811E-02  0.22554028343E-01 -0.30348601731E-03  0.23403471452E-01  0.00000000000E+00 0. -1.
     999901    1    3    3    0    0 -0.11706208377E+00 -0.60532234027E-01  0.52042983735E-02  0.88982850456E+00  0.88000000000E+00 0.  1.
        -11    1    4    4    0    0  0.21586867447E-01  0.47360807126E-02  0.66000794737E-02  0.23070445959E-01  0.51100000000E-03 0. -1.
         11    1    4    4    0    0  0.10171590360E+00  0.33242124971E-01 -0.11500891830E-01  0.10762757803E+00  0.51100000000E-03 0.  1.
</event>
<event>
 8    1  0.1120016E+005  0.1043930E+01  0.7957747E-01            NaN
         13   -1    0    0    0    0  0.00000000000E+00  0.00000000000E+00  0.74505805969E-08  0.10566000000E+00  0.10566000000E+00 0.  1.
     999900   -1    0    0    0    0 -0.00000000000E+00 -0.00000000000E+00 -0.74505805969E-08  0.93827000000E+00  0.93827000000E+00 0.  1.
     999902    2    1    2    0    0  0.10919589147E-01  0.10071658225E-01  0.18020409011E-01  0.10205759668E+01  0.10203087244E+01 0.  0.
     999903    2    3    3    0    0 -0.10048925661E+00  0.18024418339E-01 -0.75509194270E-01  0.12859896932E+00  0.20324520692E-01 0.  0.
         14    1    1    2    0    0 -0.10919589147E-01 -0.10071658225E-01 -0.18020409011E-01  0.23354033216E-01  0.00000000000E+00 0. -1.
     999901    1    3    3    0    0  0.11140884576E+00 -0.79527601132E-02  0.93529603281E-01  0.89197699746E+00  0.88000000000E+00 0.  1.
        -11    1    4    4    0    0 -0.87196868911E-01  0.17233644824E-01 -0.56282672420E-01  0.10520595419E+00  0.51100000000E-03 0. -1.
         11    1    4    4    0    0 -0.13292387699E-01  0.79077351416E-03 -0.19226521850E-01  0.23393015132E-01  0.51100000000E-03 0.  1.
</event>
<event>
 8    1  0.1120016E+005  0.1043930E+01  0.7957747E-01            NaN
         13   -1    0    0    0    0  0.00000000000E+00  0.00000000000E+00  0.74505805969E-08  0.10566000000E+00  0.10566000000E+00 0.  1.
     999900   -1    0    0    0    0 -0.00000000000E+00 -0.00000000000E+00 -0.74505805969E-08  0.93827000000E+00  0.93827000000E+00 0. -1.
     999902    2    1    2    0    0  0.51168421446E-02 -0.21985593885E-01  0.57260151029E-02  0.10206418987E+01  0.10203761805E+01 0.  0.
     999903    2    3    3    0    0 -0.34533980997E-01 -0.59188169328E-01 -0.11040263562E+00  0.13134887451E+00  0.19182013787E-01 0.  0.
         14    1    1    2    0    0 -0.51168421446E-02  0.21985593885E-01 -0.57260151029E-02  0.23288101275E-01  0.00000000000E+00 0. -1.
     999901    1    3    3    0    0  0.39650823141E-01  0.37202575443E-01  0.11612865072E+00  0.88929302421E+00  0.88000000000E+00 0.  1.
        -11    1    4    4    0    0 -0.47351872433E-02 -0.17360323794E-01 -0.17017068751E-01  0.24771850765E-01  0.51100000000E-03 0.  1.
         11    1    4    4    0    0 -0.29798793753E-01 -0.41827845534E-01 -0.93385566865E-01  0.10657702375E+00  0.51100000000E-03 0. -1.
</event>
<event>
 8    1  0.1120016E+005  0.1043930E+01  0.7957747E-01            NaN
         13   -1    0    0    0    0  0.00000000000E+00  0.00000000000E+00  0.74505805969E-08  0.10566000000E+00  0.10566000000E+00 0.  1.
     999900   -1    0    0    0    0 -0.00000000000E+00 -0.00000000000E+00 -0.74505805969E-08  0.93827000000E+00  0.93827000000E+00 0.  1.
     999902    2    1    2    0    0 -0.13174529484E-01  0.17066723865E-01  0.11095686752E-01  0.10196822051E+01  0.10193938610E+01 0.  0.
     999903    2    3    3    0    0  0.11575738287E+00  0.53138151790E-01  0.13004539999E-01  0.12955399548E+00  0.19791028735E-01 0.  0.
         14    1    1    2    0    0  0.13174529484E-01 -0.17066723865E-01 -0.11095686752E-01  0.24247794850E-01  0.00000000000E+00 0. -1.
     999901    1    3    3    0    0 -0.12893191236E+00 -0.36071427925E-01 -0.19088532478E-02  0.89012820967E+00  0.88000000000E+00 0.  1.
        -11    1    4    4    0    0  0.53686552548E-01  0.15150803844E-01  0.98925165218E-03  0.55794556378E-01  0.51100000000E-03 0.  1.
         11    1    4    4    0    0  0.62070830324E-01  0.37987347946E-01  0.12015288347E-01  0.73759439098E-01  0.51100000000E-03 0. -1.
</event>
<event>
 8    1  0.1120016E+005  0.1043930E+01  0.7957747E-01            NaN
         13   -1    0    0    0    0  0.00000000000E+00  0.00000000000E+00  0.74505805969E-08  0.10566000000E+00  0.10566000000E+00 0.  1.
     999900   -1    0    0    0    0 -0.00000000000E+00 -0.00000000000E+00 -0.74505805969E-08  0.93827000000E+00  0.93827000000E+00 0. -1.
     999902    2    1    2    0    0  0.14283663944E-01 -0.15754724791E-01  0.12991238815E-01  0.10190099941E+01  0.10187052377E+01 0.  0.
     999903    2    3    3    0    0 -0.98630896828E-01 -0.26762887161E-01 -0.73706853847E-01  0.12750147649E+00  0.19483846243E-01 0.  0.
         14    1    1    2    0    0 -0.14283663944E-01  0.15754724791E-01 -0.12991238815E-01  0.24920005916E-01  0.00000000000E+00 0.  1.
     999901    1    3    3    0    0  0.11291456077E+00  0.11008162370E-01  0.86698092662E-01  0.89150851760E+00  0.88000000000E+00 0.  1.
        -11    1    4    4    0    0 -0.56526012155E-01 -0.24574154627E-01 -0.39534029917E-01  0.73227588846E-01  0.51100000000E-03 0.  1.
         11    1    4    4    0    0 -0.42104884674E-01 -0.21887325339E-02 -0.34172823930E-01  0.54273887642E-01  0.51100000000E-03 0. -1.
</event>
<event>
 8    1  0.1120016E+005  0.1043930E+01  0.7957747E-01            NaN
         13   -1    0    0    0    0  0.00000000000E+00  0.00000000000E+00  0.74505805969E-08  0.10566000000E+00  0.10566000000E+00 0. -1.
     999900   -1    0    0    0    0 -0.00000000000E+00 -0.00000000000E+00 -0.74505805969E-08  0.93827000000E+00  0.93827000000E+00 0. -1.
     999902    2    1    2    0    0 -0.80756835574E-02  0.62398867552E-02  0.22526300064E-01  0.10191997140E+01  0.10188996368E+01 0.  0.
     999903    2    3    3    0    0  0.22786248304E-01 -0.49832981090E-01 -0.11239431802E+00  0.12661907420E+00  0.19934094177E-01 0.  0.
         14    1    1    2    0    0  0.80756835574E-02 -0.62398867552E-02 -0.22526300064E-01  0.24730286012E-01  0.00000000000E+00 0.  1.
     999901    1    3    3    0    0 -0.30861931861E-01  0.56072867846E-01  0.13492061809E+00  0.89258063979E+00  0.88000000000E+00 0.  1.
        -11    1    4    4    0    0  0.20282352949E-01 -0.43540686167E-01 -0.10880660888E+00  0.11893823796E+00  0.51100000000E-03 0. -1.
         11    1    4    4    0    0  0.25038953549E-02 -0.62922949234E-02 -0.35877091431E-02  0.76808362335E-02  0.51100000000E-03 0.  1.
</event>
<event>
 7    1  0.1120016E+005  0.1043930E+01  0.7957747E-01            NaN
         13   -1    0    0    0    0  0.00000000000E+00  0.00000000000E+00  0.74505805969E-08  0.10566000000E+00  0.10566000000E+00 0.  1.
     999900   -1    0    0    0    0 -0.00000000000E+00 -0.00000000000E+00 -0.74505805969E-08  0.93827000000E+00  0.93827000000E+00 0.  1.
     999903    2    1    2    0    0 -0.60360304820E-01  0.10117369122E-01  0.92530757166E-01  0.11277300453E+00  0.20250480815E-01 0.  0.
         14    1    1    2    0    0 -0.15385577914E-01  0.33990946022E-01  0.15152954256E-01  0.40270490957E-01  0.00000000000E+00 0.  1.
     999901    1    1    2    0    0  0.75745882734E-01 -0.44108315144E-01 -0.10768371142E+00  0.89088650451E+00  0.88000000000E+00 0.  1.
        -11    1    3    3    0    0 -0.39978981882E-01  0.15553808969E-01  0.68156651477E-01  0.80534652339E-01  0.51100000000E-03 0.  1.
         11    1    3    3    0    0 -0.20381322938E-01 -0.54364398469E-02  0.24374105689E-01  0.32238352192E-01  0.51100000000E-03 0. -1.
</event>
<event>
 8    1  0.1120016E+005  0.1043930E+01  0.7957747E-01            NaN
         13   -1    0    0    0    0  0.00000000000E+00  0.00000000000E+00  0.74505805969E-08  0.10566000000E+00  0.10566000000E+00 0.  1.
     999900   -1    0    0    0    0 -0.00000000000E+00 -0.00000000000E+00 -0.74505805969E-08  0.93827000000E+00  0.93827000000E+00 0. -1.
     999902    2    1    2    0    0 -0.42218513257E-03 -0.11756229873E-01  0.19353563598E-01  0.10212816534E+01  0.10210304931E+01 0.  0.
     999903    2    3    3    0    0  0.52233299889E-01 -0.12038612268E+00 -0.29275833120E-02  0.13276068951E+00  0.19892053297E-01 0.  0.
         14    1    1    2    0    0  0.42218513257E-03  0.11756229873E-01 -0.19353563598E-01  0.22648346629E-01  0.00000000000E+00 0. -1.
     999901    1    3    3    0    0 -0.52655485021E-01  0.10862989280E+00  0.22281146910E-01  0.88852096386E+00  0.88000000000E+00 0.  1.
        -11    1    4    4    0    0  0.63227689869E-02 -0.20658893756E-01 -0.75041632393E-02  0.22876644986E-01  0.51100000000E-03 0. -1.
         11    1    4    4    0    0  0.45910530902E-01 -0.99727228921E-01  0.45765799272E-02  0.10988404452E+00  0.51100000000E-03 0.  1.
</event>
<event>
 8    1  0.1120016E+005  0.1043930E+01  0.7957747E-01            NaN
         13   -1    0    0    0    0  0.00000000000E+00  0.00000000000E+00  0.74505805969E-08  0.10566000000E+00  0.10566000000E+00 0. -1.
     999900   -1    0    0    0    0 -0.00000000000E+00 -0.00000000000E+00 -0.74505805969E-08  0.93827000000E+00  0.93827000000E+00 0.  1.
     999902    2    1    2    0    0  0.74182947342E-02 -0.18069404968E-01 -0.13586664735E-01  0.10201364725E+01  0.10198589562E+01 0.  0.
     999903    2    3    3    0    0  0.12251969951E+00 -0.37571803620E-01 -0.27113774032E-01  0.13232362081E+00  0.18752778069E-01 0.  0.
         14    1    1    2    0    0 -0.74182947342E-02  0.18069404968E-01  0.13586664735E-01  0.23793527508E-01  0.00000000000E+00 0. -1.
     999901    1    3    3    0    0 -0.11510140478E+00  0.19502398652E-01  0.13527109298E-01  0.88781285169E+00  0.88000000000E+00 0. -1.
        -11    1    4    4    0    0  0.68559916907E-01 -0.27089760737E-01 -0.22886532347E-01  0.77190490522E-01  0.51100000000E-03 0.  1.
         11    1    4    4    0    0  0.53959782603E-01 -0.10482042883E-01 -0.42272416857E-02  0.55133130284E-01  0.51100000000E-03 0. -1.
</event>
<event>
 8    1  0.1120016E+005  0.1043930E+01  0.7957747E-01            NaN
         13   -1    0    0    0    0  0.00000000000E+00  0.00000000000E+00  0.74505805969E-08  0.10566000000E+00  0.10566000000E+00 0.  1.
     999900   -1    0    0    0    0 -0.00000000000E+00 -0.00000000000E+00 -0.74505805969E-08  0.93827000000E+00  0.93827000000E+00 0. -1.
     999902    2    1    2    0    0 -0.24490100333E-03 -0.17799738105E-01 -0.14683575067E-01  0.10208540812E+01  0.10205932378E+01 0.  0.
     999903    2    3    3    0    0  0.53887322794E-01 -0.19196782858E-01 -0.11842031948E+00  0.13310774266E+00  0.20541155293E-01 0.  0.
         14    1    1    2    0    0  0.24490100333E-03  0.17799738105E-01  0.14683575067E-01  0.23075918830E-01  0.00000000000E+00 0.  1.
     999901    1    3    3    0    0 -0.54132223798E-01  0.13970447528E-02  0.10373674442E+00  0.88774633851E+00  0.88000000000E+00 0.  1.
        -11    1    4    4    0    0  0.40147836838E-01 -0.52487770194E-02 -0.69866058836E-01  0.80752249265E-01  0.51100000000E-03 0.  1.
         11    1    4    4    0    0  0.13739485956E-01 -0.13948005838E-01 -0.48554260646E-01  0.52355493400E-01  0.51100000000E-03 0. -1.
</event>
<event>
 8    1  0.1120016E+005  0.1043930E+01  0.7957747E-01            NaN
         13   -1    0    0    0    0  0.00000000000E+00  0.00000000000E+00  0.74505805969E-08  0.10566000000E+00  0.10566000000E+00 0.  1.
     999900   -1    0    0    0    0 -0.00000000000E+00 -0.00000000000E+00 -0.74505805969E-08  0.93827000000E+00  0.93827000000E+00 0.  1.
     999902    2    1    2    0    0  0.18458123607E-01 -0.69128221074E-02 -0.13183626888E-01  0.10202171880E+01  0.10199415734E+01 0.  0.
     999903    2    3    3    0    0  0.12218588541E+00 -0.31706617566E-01 -0.38105145362E-01  0.13342788777E+00  0.20403405156E-01 0.  0.
         14    1    1    2    0    0 -0.18458123607E-01  0.69128221074E-02  0.13183626888E-01  0.23712812033E-01  0.00000000000E+00 0.  1.
     999901    1    3    3    0    0 -0.10372776180E+00  0.24793795459E-01  0.24921518474E-01  0.88678930020E+00  0.88000000000E+00 0. -1.
        -11    1    4    4    0    0  0.10046857962E+00 -0.25198081495E-01 -0.39132853826E-01  0.11072723320E+00  0.51100000000E-03 0. -1.
         11    1    4    4    0    0  0.21717305785E-01 -0.65085360714E-02  0.10277084638E-02  0.22700654573E-01  0.51100000000E-03 0.  1.
</event>
<event>
 8    1  0.1120016E+005  0.1043930E+01  0.7957747E-01            NaN
         13   -1    0    0    0    0  0.00000000000E+00  0.00000000000E+00  0.74505805969E-08  0.10566000000E+00  0.10566000000E+00 0. -1.
     999900   -1    0    0    0    0 -0.00000000000E+00 -0.00000000000E+00 -0.74505805969E-08  0.93827000000E+00  0.93827000000E+00 0.  1.
     999902    2    1    2    0    0 -0.39471161378E-02  0.21587512285E-01  0.54706247357E-02  0.10213130120E+01  0.10210625545E+01 0.  0.
     999903    2    3    3    0    0  0.81989738102E-01 -0.84501756445E-01  0.50306863870E-01  0.12965704457E+00  0.20428036100E-01 0.  0.
         14    1    1    2    0    0  0.39471161378E-02 -0.21587512285E-01 -0.54706247357E-02  0.22616988028E-01  0.00000000000E+00 0.  1.
     999901    1    3    3    0    0 -0.85936854240E-01  0.10608926873E+00 -0.44836239134E-01  0.89165596740E+00  0.88000000000E+00 0. -1.
        -11    1    4    4    0    0  0.40559087003E-01 -0.34700034799E-01  0.13157374423E-01  0.54977355122E-01  0.51100000000E-03 0.  1.
         11    1    4    4    0    0  0.41430651100E-01 -0.49801721646E-01  0.37149489447E-01  0.74679689452E-01  0.51100000000E-03 0. -1.
</event>
<event>
 8    1  0.1120016E+005  0.1043930E+01  0.7957747E-01            NaN
         13   -1    0    0    0    0  0.00000000000E+00  0.00000000000E+00  0.74505805969E-08  0.10566000000E+00  0.10566000000E+00 0.  1.
     999900   -1    0    0    0    0 -0.00000000000E+00 -0.00000000000E+00 -0.74505805969E-08  0.93827000000E+00  0.93827000000E+00 0. -1.
     999902    2    1    2    0    0 -0.63538982857E-02 -0.78521217298E-02  0.18107867335E-01  0.10231954226E+01  0.10229853128E+01 0.  0.
     999903    2    3    3    0    0  0.49887444700E-01 -0.83122457423E-01  0.92087324555E-01  0.13510664769E+00  0.19381198082E-01 0.  0.
         14    1    1    2    0    0  0.63538982857E-02  0.78521217298E-02 -0.18107867335E-01  0.20734577365E-01  0.00000000000E+00 0. -1.
     999901    1    3    3    0    0 -0.56241342986E-01  0.75270335693E-01 -0.73979457219E-01  0.88808877495E+00  0.88000000000E+00 0. -1.
        -11    1    4    4    0    0  0.30200538658E-01 -0.32926521972E-01  0.36885386456E-01  0.57939807036E-01  0.51100000000E-03 0. -1.
         11    1    4    4    0    0  0.19686906042E-01 -0.50195935451E-01  0.55201938099E-01  0.77166840652E-01  0.51100000000E-03 0.  1.
</event>
<event>
 8    1  0.1120016E+005  0.1043930E+01  0.7957747E-01            NaN
         13   -1    0    0    0    0  0.00000000000E+00  0.00000000000E+00  0.74505805969E-08  0.10566000000E+00  0.10566000000E+00 0. -1.
     999900   -1    0    0    0    0 -0.00000000000E+00 -0.00000000000E+00 -0.74505805969E-08  0.93827000000E+00  0.93827000000E+00 0. -1.
     999902    2    1    2    0    0  0.75629047890E-02 -0.16503821482E-01 -0.11676143653E-01  0.10223451446E+01  0.10221172578E+01 0.  0.
     999903    2    3    3    0    0 -0.29010939594E-01  0.69445160079E-01  0.10409087145E+00  0.12986160115E+00  0.19101336597E-01 0.  0.
         14    1    1    2    0    0 -0.75629047890E-02  0.16503821482E-01  0.11676143653E-01  0.21584855407E-01  0.00000000000E+00 0. -1.
     999901    1    3    3    0    0  0.36573844384E-01 -0.85948981561E-01 -0.11576701511E+00  0.89248354344E+00  0.88000000000E+00 0. -1.
        -11    1    4    4    0    0 -0.25253643952E-01  0.39369231468E-01  0.55406496171E-01  0.72510853382E-01  0.51100000000E-03 0.  1.
         11    1    4    4    0    0 -0.37572956423E-02  0.30075928610E-01  0.48684375282E-01  0.57350747771E-01  0.51100000000E-03 0. -1.
</event>
<event>
 8    1  0.1120016E+005  0.1043930E+01  0.7957747E-01            NaN
         13   -1    0    0    0    0  0.00000000000E+00  0.00000000000E+00  0.74505805969E-08  0.10566000000E+00  0.10566000000E+00 0. -1.
     999900   -1    0    0    0    0 -0.00000000000E+00 -0.00000000000E+00 -0.74505805969E-08  0.93827000000E+00  0.93827000000E+00 0.  1.
     999902    2    1    2    0    0  0.15114871153E-01 -0.14586495911E-01 -0.10655076695E-01  0.10203767443E+01  0.10201048694E+01 0.  0.
     999903    2    3    3    0    0 -0.29561953476E-01  0.11649272899E+00  0.39689986377E-01  0.12812543039E+00  0.19908940025E-01 0.  0.
         14    1    1    2    0    0 -0.15114871153E-01  0.14586495911E-01  0.10655076695E-01  0.23553255663E-01  0.00000000000E+00 0. -1.
     999901    1    3    3    0    0  0.44676824630E-01 -0.13107922490E+00 -0.50345063071E-01  0.89225131394E+00  0.88000000000E+00 0.  1.
        -11    1    4    4    0    0 -0.22859846678E-01  0.91404812447E-01  0.39462597043E-01  0.10215170099E+00  0.51100000000E-03 0.  1.
         11    1    4    4    0    0 -0.67021067983E-02  0.25087916547E-01  0.22738933341E-03  0.25973729403E-01  0.51100000000E-03 0. -1.
</event>
<event>
 8    1  0.1120016E+005  0.1043930E+01  0.7957747E-01            NaN
         13   -1    0    0    0    0  0.00000000000E+00  0.00000000000E+00  0.74505805969E-08  0.10566000000E+00  0.10566000000E+00 0. -1.
     999900   -1    0    0    0    0 -0.00000000000E+00 -0.00000000000E+00 -0.74505805969E-08  0.93827000000E+00  0.93827000000E+00 0. -1.
     999902    2    1    2    0    0 -0.75821066191E-02 -0.43017495265E-02  0.22066431576E-01  0.10202040481E+01  0.10199281244E+01 0.  0.
     999903    2    3    3    0    0  0.76766072328E-01  0.65760365857E-01  0.81575120108E-01  0.13140452106E+00  0.19879445567E-01 0.  0.
         14    1    1    2    0    0  0.75821066191E-02  0.43017495265E-02 -0.22066431576E-01  0.23725951873E-01  0.00000000000E+00 0.  1.
     999901    1    3    3    0    0 -0.84348178947E-01 -0.70062115384E-01 -0.59508688532E-01  0.88879952707E+00  0.88000000000E+00 0.  1.
        -11    1    4    4    0    0  0.49301227617E-01  0.30229297054E-01  0.41147314221E-01  0.70977348735E-01  0.51100000000E-03 0. -1.
         11    1    4    4    0    0  0.27464844711E-01  0.35531068803E-01  0.40427805887E-01  0.60427172325E-01  0.51100000000E-03 0.  1.
</event>
<event>
 8    1  0.1120016E+005  0.1043930E+01  0.7957747E-01            NaN
         13   -1    0    0    0    0  0.00000000000E+00  0.00000000000E+00  0.74505805969E-08  0.10566000000E+00  0.10566000000E+00 0. -1.
     999900   -1    0    0    0    0 -0.00000000000E+00 -0.00000000000E+00 -0.74505805969E-08  0.93827000000E+00  0.93827000000E+00 0.  1.
     999902    2    1    2    0    0  0.96350619817E-02 -0.18871683682E-01 -0.86074158664E-02  0.10210594409E+01  0.10208032717E+01 0.  0.
     999903    2    3    3    0    0 -0.21012547644E-01 -0.11449640142E+00  0.60574181788E-01  0.13265105732E+00  0.19393772483E-01 0.  0.
         14    1    1    2    0    0 -0.96350619817E-02  0.18871683682E-01  0.86074158664E-02  0.22870559072E-01  0.00000000000E+00 0. -1.
     999901    1    3    3    0    0  0.30647609626E-01  0.95624717738E-01 -0.69181597654E-01  0.88840838361E+00  0.88000000000E+00 0.  1.
        -11    1    4    4    0    0 -0.13506547578E-01 -0.30255175877E-01  0.21368917576E-01  0.39429611388E-01  0.51100000000E-03 0. -1.
         11    1    4    4    0    0 -0.75060000662E-02 -0.84241225543E-01  0.39205264212E-01  0.93221445928E-01  0.51100000000E-03 0.  1.
</event>
<event>
 8    1  0.1120016E+005  0.1043930E+01  0.7957747E-01            NaN
         13   -1    0    0    0    0  0.00000000000E+00  0.00000000000E+00  0.74505805969E-08  0.10566000000E+00  0.10566000000E+00 0.  1.
     999900   -1    0    0    0    0 -0.00000000000E+00 -0.00000000000E+00 -0.74505805969E-08  0.93827000000E+00  0.93827000000E+00 0. -1.
     999902    2    1    2    0    0 -0.74230512633E-02 -0.84344120722E-02 -0.21081304782E-01  0.10200414586E+01  0.10197616952E+01 0.  0.
     999903    2    3    3    0    0 -0.46485555115E-01 -0.11465844651E+00  0.37624467830E-01  0.13085318137E+00  0.19987203507E-01 0.  0.
         14    1    1    2    0    0  0.74230512633E-02  0.84344120722E-02  0.21081304782E-01  0.23888541362E-01  0.00000000000E+00 0.  1.
     999901    1    3    3    0    0  0.39062503852E-01  0.10622403444E+00 -0.58705772612E-01  0.88918827727E+00  0.88000000000E+00 0. -1.
        -11    1    4    4    0    0 -0.29242274580E-01 -0.45981323498E-01  0.17586486890E-01  0.57262015118E-01  0.51100000000E-03 0.  1.
         11    1    4    4    0    0 -0.17243280535E-01 -0.68677123011E-01  0.20037980940E-01  0.73591166249E-01  0.51100000000E-03 0. -1.
</event>
<event>
 8    1  0.1120016E+005  0.1043930E+01  0.7957747E-01            NaN
         13   -1    0    0    0    0  0.00000000000E+00  0.00000000000E+00  0.74505805969E-08  0.10566000000E+00  0.10566000000E+00 0. -1.
     999900   -1    0    0    0    0 -0.00000000000E+00 -0.00000000000E+00 -0.74505805969E-08  0.93827000000E+00  0.93827000000E+00 0.  1.
     999902    2    1    2    0    0 -0.13513122638E-02 -0.23097476569E-01 -0.53776980353E-02  0.10201762823E+01  0.10198997048E+01 0.  0.
     999903    2    3    3    0    0 -0.18969801771E-01 -0.12794964336E-01 -0.12794963276E+00  0.13144660905E+00  0.19584126616E-01 0.  0.
         14    1    1    2    0    0  0.13513122638E-02  0.23097476569E-01  0.53776980353E-02  0.23753717706E-01  0.00000000000E+00 0. -1.
     999901    1    3    3    0    0  0.17618489507E-01 -0.10302512234E-01  0.12257193472E+00  0.88872967325E+00  0.88000000000E+00 0. -1.
        -11    1    4    4    0    0 -0.19993958039E-01 -0.41345043579E-02 -0.72846481524E-01  0.75655293773E-01  0.51100000000E-03 0.  1.
         11    1    4    4    0    0  0.10241562685E-02 -0.86604599778E-02 -0.55103151233E-01  0.55791315273E-01  0.51100000000E-03 0. -1.
</event>
<event>
 8    1  0.1120016E+005  0.1043930E+01  0.7957747E-01            NaN
         13   -1    0    0    0    0  0.00000000000E+00  0.00000000000E+00  0.74505805969E-08  0.10566000000E+00  0.10566000000E+00 0. -1.
     999900   -1    0    0    0    0 -0.00000000000E+00 -0.00000000000E+00 -0.74505805969E-08  0.93827000000E+00  0.93827000000E+00 0.  1.
     999902    2    1    2    0    0 -0.11599405384E-03 -0.22471943303E-01  0.12689943036E-01  0.10181223200E+01  0.10177951770E+01 0.  0.
     999903    2    3    3    0    0 -0.31798332445E-01 -0.11702871175E+00  0.47700729914E-01  0.13179816477E+00  0.19711501254E-01 0.  0.
         14    1    1    2    0    0  0.11599405384E-03  0.22471943303E-01 -0.12689943036E-01  0.25807679955E-01  0.00000000000E+00 0. -1.
     999901    1    3    3    0    0  0.31682338391E-01  0.94556768450E-01 -0.35010786878E-01  0.88632415527E+00  0.88000000000E+00 0.  1.
        -11    1    4    4    0    0 -0.44419057229E-02 -0.40591636770E-01  0.88069339107E-02  0.41776006368E-01  0.51100000000E-03 0.  1.
         11    1    4    4    0    0 -0.27356426722E-01 -0.76437074983E-01  0.38893796003E-01  0.90022158402E-01  0.51100000000E-03 0. -1.
</event>
<event>
 8    1  0.1120016E+005  0.1043930E+01  0.7957747E-01            NaN
         13   -1    0    0    0    0  0.00000000000E+00  0.00000000000E+00  0.74505805969E-08  0.10566000000E+00  0.10566000000E+00 0. -1.
     999900   -1    0    0    0    0 -0.00000000000E+00 -0.00000000000E+00 -0.74505805969E-08  0.93827000000E+00  0.93827000000E+00 0.  1.
     999902    2    1    2    0    0 -0.81607869135E-02 -0.11983573706E-01 -0.20618923035E-01  0.10187239597E+01  0.10184120785E+01 0.  0.
     999903    2    3    3    0    0  0.90061691161E-01 -0.42752305966E-01 -0.82175334213E-01  0.13058908149E+00  0.19022480696E-01 0.  0.
         14    1    1    2    0    0  0.81607869135E-02  0.11983573706E-01  0.20618923035E-01  0.25206040327E-01  0.00000000000E+00 0. -1.
     999901    1    3    3    0    0 -0.98222478075E-01  0.30768732261E-01  0.61556411177E-01  0.88813487818E+00  0.88000000000E+00 0. -1.
        -11    1    4    4    0    0  0.30591352297E-01 -0.14735295567E-01 -0.40049370206E-01  0.52508789223E-01  0.51100000000E-03 0.  1.
         11    1    4    4    0    0  0.59470338865E-01 -0.28017010399E-01 -0.42125964007E-01  0.78080292270E-01  0.51100000000E-03 0. -1.
</event>
<event>
 8    1  0.1120016E+005  0.1043930E+01  0.7957747E-01            NaN
         13   -1    0    0    0    0  0.00000000000E+00  0.00000000000E+00  0.74505805969E-08  0.10566000000E+00  0.10566000000E+00 0. -1.
     999900   -1    0    0    0    0 -0.00000000000E+00 -0.00000000000E+00 -0.74505805969E-08  0.93827000000E+00  0.93827000000E+00 0. -1.
     999902    2    1    2    0    0  0.20537925608E-01  0.98801906814E-02  0.72309680421E-02  0.10200195116E+01  0.10197392277E+01 0.  0.
     999903    2    3    3    0    0  0.48400163042E-01 -0.11916703491E+00 -0.85820484414E-03  0.13013472950E+00  0.19772539405E-01 0.  0.
         14    1    1    2    0    0 -0.20537925608E-01 -0.98801906814E-02 -0.72309680421E-02  0.23910488389E-01  0.00000000000E+00 0. -1.
     999901    1    3    3    0    0 -0.27862237434E-01  0.12904722560E+00  0.80891728862E-02  0.88988478211E+00  0.88000000000E+00 0.  1.
        -11    1    4    4    0    0  0.17000216403E-01 -0.20936026994E-01 -0.12977361197E-02  0.27004996280E-01  0.51100000000E-03 0. -1.
         11    1    4    4    0    0  0.31399946639E-01 -0.98231007920E-01  0.43953127557E-03  0.10312973322E+00  0.51100000000E-03 0.  1.
</event>
<event>
 8    1  0.1120016E+005  0.1043930E+01  0.7957747E-01            NaN
         13   -1    0    0    0    0  0.00000000000E+00  0.00000000000E+00  0.74505805969E-08  0.10566000000E+00  0.10566000000E+00 0.  1.
     999900   -1    0    0    0    0 -0.00000000000E+00 -0.00000000000E+00 -0.74505805969E-08  0.93827000000E+00  0.93827000000E+00 0.  1.
     999902    2    1    2    0    0 -0.23391956402E-01  0.20289786284E-02 -0.40830157233E-02  0.10200978495E+01  0.10198194209E+01 0.  0.
     999903    2    3    3    0    0 -0.74856748591E-01  0.90459487061E-01  0.57093536304E-01  0.13206004055E+00  0.19842651391E-01 0.  0.
         14    1    1    2    0    0  0.23391956402E-01 -0.20289786284E-02  0.40830157233E-02  0.23832150469E-01  0.00000000000E+00 0.  1.
     999901    1    3    3    0    0  0.51464792189E-01 -0.88430508432E-01 -0.61176552028E-01  0.88803780898E+00  0.88000000000E+00 0.  1.
        -11    1    4    4    0    0 -0.44266870662E-01  0.38612727625E-01  0.25031589435E-01  0.63854053618E-01  0.51100000000E-03 0.  1.
         11    1    4    4    0    0 -0.30589877929E-01  0.51846759436E-01  0.32061946869E-01  0.68205986935E-01  0.51100000000E-03 0. -1.
</event>
<event>
 8    1  0.1120016E+005  0.1043930E+01  0.7957747E-01            NaN
         13   -1    0    0    0    0  0.00000000000E+00  0.00000000000E+00  0.74505805969E-08  0.10566000000E+00  0.10566000000E+00 0. -1.
     999900   -1    0    0    0    0 -0.00000000000E+00 -0.00000000000E+00 -0.74505805969E-08  0.93827000000E+00  0.93827000000E+00 0.  1.
     999902    2    1    2    0    0 -0.16653606848E-01  0.17112786576E-01 -0.10746584165E-01  0.10177445239E+01  0.10174076060E+01 0.  0.
     999903    2    3    3    0    0  0.75981308565E-01  0.10089952110E+00 -0.15777220119E-01  0.12891003331E+00  0.20371632289E-01 0.  0.
         14    1    1    2    0    0  0.16653606848E-01 -0.17112786576E-01  0.10746584165E-01  0.26185476063E-01  0.00000000000E+00 0.  1.
     999901    1    3    3    0    0 -0.92634915413E-01 -0.83786734528E-01  0.50306359537E-02  0.88883449063E+00  0.88000000000E+00 0. -1.
        -11    1    4    4    0    0  0.27049690074E-01  0.52253448024E-01 -0.97894965616E-02  0.59650682539E-01  0.51100000000E-03 0. -1.
         11    1    4    4    0    0  0.48931618491E-01  0.48646073080E-01 -0.59877235574E-02  0.69259350767E-01  0.51100000000E-03 0.  1.
</event>
<event>
 8    1  0.1120016E+005  0.1043930E+01  0.7957747E-01            NaN
         13   -1    0    0    0    0  0.00000000000E+00  0.00000000000E+00  0.74505805969E-08  0.10566000000E+00  0.10566000000E+00 0.  1.
     999900   -1    0    0    0    0 -0.00000000000E+00 -0.00000000000E+00 -0.74505805969E-08  0.93827000000E+00  0.93827000000E+00 0.  1.
     999902    2    1    2    0    0 -0.22974877075E-01 -0.40365067250E-02  0.34114977869E-02  0.10203550837E+01  0.10200827026E+01 0.  0.
     999903    2    3    3    0    0  0.13311643993E-01 -0.10285556683E+00  0.77531397703E-01  0.13098694964E+00  0.19748312654E-01 0.  0.
         14    1    1    2    0    0  0.22974877075E-01  0.40365067250E-02 -0.34114977869E-02  0.23574916337E-01  0.00000000000E+00 0. -1.
     999901    1    3    3    0    0 -0.36286521068E-01  0.98819060104E-01 -0.74119899916E-01  0.88936813402E+00  0.88000000000E+00 0.  1.
        -11    1    4    4    0    0  0.46621017205E-02 -0.50250509739E-01  0.25720747428E-01  0.56645095910E-01  0.51100000000E-03 0.  1.
         11    1    4    4    0    0  0.86495422724E-02 -0.52605057091E-01  0.51810650276E-01  0.74341853730E-01  0.51100000000E-03 0. -1.
</event>
<event>
 8    1  0.1120016E+005  0.1043930E+01  0.7957747E-01            NaN
         13   -1    0    0    0    0  0.00000000000E+00  0.00000000000E+00  0.74505805969E-08  0.10566000000E+00  0.10566000000E+00 0. -1.
     999900   -1    0    0    0    0 -0.00000000000E+00 -0.00000000000E+00 -0.74505805969E-08  0.93827000000E+00  0.93827000000E+00 0.  1.
     999902    2    1    2    0    0 -0.69440362780E-02 -0.13568027559E-01 -0.18411517399E-01  0.10200282221E+01  0.10197481449E+01 0.  0.
     999903    2    3    3    0    0  0.11506648674E+00  0.36924182565E-01  0.39786882338E-01  0.12827540620E+00  0.16367412815E-01 0.  0.
         14    1    1    2    0    0  0.69440362780E-02  0.13568027559E-01  0.18411517399E-01  0.23901777854E-01  0.00000000000E+00 0. -1.
     999901    1    3    3    0    0 -0.12201052301E+00 -0.50492210124E-01 -0.58198399737E-01  0.89175281594E+00  0.88000000000E+00 0. -1.
        -11    1    4    4    0    0  0.38302113426E-01  0.90829410251E-02  0.20432570824E-01  0.44354287076E-01  0.51100000000E-03 0. -1.
         11    1    4    4    0    0  0.76764373311E-01  0.27841241540E-01  0.19354311515E-01  0.83921119127E-01  0.51100000000E-03 0.  1.
</event>
<event>
 8    1  0.1120016E+005  0.1043930E+01  0.7957747E-01            NaN
         13   -1    0    0    0    0  0.00000000000E+00  0.00000000000E+00  0.74505805969E-08  0.10566000000E+00  0.10566000000E+00 0.  1.
     999900   -1    0    0    0    0 -0.00000000000E+00 -0.00000000000E+00 -0.74505805969E-08  0.93827000000E+00  0.93827000000E+00 0.  1.
     999902    2    1    2    0    0  0.27360990345E-02 -0.17134580213E-01 -0.14610481976E-01  0.10212463878E+01  0.10209944360E+01 0.  0.
     999903    2    3    3    0    0 -0.31696968991E-01 -0.11337720412E+00  0.57246327066E-01  0.13242037571E+00  0.19973124029E-01 0.  0.
         14    1    1    2    0    0 -0.27360990345E-02  0.17134580213E-01  0.14610481976E-01  0.22683612159E-01  0.00000000000E+00 0. -1.
     999901    1    3    3    0    0  0.34433068025E-01  0.96242623909E-01 -0.71856809042E-01  0.88882601213E+00  0.88000000000E+00 0.  1.
        -11    1    4    4    0    0 -0.26092868492E-01 -0.60402528717E-01  0.26690406707E-01  0.71006634851E-01  0.51100000000E-03 0. -1.
         11    1    4    4    0    0 -0.56041004984E-02 -0.52974675405E-01  0.30555920359E-01  0.61413740862E-01  0.51100000000E-03 0.  1.
</event>
<event>
 8    1  0.1120016E+005  0.1043930E+01  0.7957747E-01            NaN
         13   -1    0    0    0    0  0.00000000000E+00  0.00000000000E+00  0.74505805969E-08  0.10566000000E+00  0.10566000000E+00 0. -1.
     999900   -1    0    0    0    0 -0.00000000000E+00 -0.00000000000E+00 -0.74505805969E-08  0.93827000000E+00  0.93827000000E+00 0. -1.
     999902    2    1    2    0    0  0.70680075227E-02  0.17297639502E-01  0.13581079222E-01  0.10208299832E+01  0.10205685885E+01 0.  0.
     999903    2    3    3    0    0  0.45009105790E-02  0.61034671957E-01  0.11785325576E+00  0.13359145565E+00  0.14553272883E-01 0.  0.
         14    1    1    2    0    0 -0.70680075227E-02 -0.17297639502E-01 -0.13581079222E-01  0.23100016786E-01  0.00000000000E+00 0.  1.
     999901    1    3    3    0    0  0.25670969437E-02 -0.43737032454E-01 -0.10427217654E+00  0.88723852756E+00  0.88000000000E+00 0. -1.
        -11    1    4    4    0    0  0.93554783626E-02  0.28318876860E-01  0.56127779584E-01  0.63561564833E-01  0.51100000000E-03 0. -1.
         11    1    4    4    0    0 -0.48545677835E-02  0.32715795097E-01  0.61725476179E-01  0.70029890816E-01  0.51100000000E-03 0.  1.
</event>
<event>
 8    1  0.1120016E+005  0.1043930E+01  0.7957747E-01            NaN
         13   -1    0    0    0    0  0.00000000000E+00  0.00000000000E+00  0.74505805969E-08  0.10566000000E+00  0.10566000000E+00 0. -1.
     999900   -1    0    0    0    0 -0.00000000000E+00 -0.00000000000E+00 -0.74505805969E-08  0.93827000000E+00  0.93827000000E+00 0. -1.
     999902    2    1    2    0    0 -0.11768979752E-01  0.13050934247E-01  0.15107415738E-01  0.10207552340E+01  0.10204921254E+01 0.  0.
     999903    2    3    3    0    0  0.11585119525E+00  0.84927492710E-02  0.56387847419E-01  0.13058010507E+00  0.19440891770E-01 0.  0.
         14    1    1    2    0    0  0.11768979752E-01 -0.13050934247E-01 -0.15107415738E-01  0.23174766006E-01  0.00000000000E+00 0.  1.
     999901    1    3    3    0    0 -0.12762017500E+00  0.45581849760E-02 -0.41280431681E-01  0.89017512893E+00  0.88000000000E+00 0. -1.
        -11    1    4    4    0    0  0.36761086540E-01  0.82622751458E-02  0.26328959186E-01  0.45968662010E-01  0.51100000000E-03 0. -1.
         11    1    4    4    0    0  0.79090108707E-01  0.23047412518E-03  0.30058888233E-01  0.84611443059E-01  0.51100000000E-03 0.  1.
</event>
<event>
 8    1  0.1120016E+005  0.1043930E+01  0.7957747E-01            NaN
         13   -1    0    0    0    0  0.00000000000E+00  0.00000000000E+00  0.74505805969E-08  0.10566000000E+00  0.10566000000E+00 0. -1.
     999900   -1    0    0    0    0 -0.00000000000E+00 -0.00000000000E+00 -0.74505805969E-08  0.93827000000E+00  0.93827000000E+00 0. -1.
     999902    2    1    2    0    0 -0.15599293372E-01  0.31794538831E-02  0.17679462693E-01  0.10201390294E+01  0.10198615735E+01 0.  0.
     999903    2    3    3    0    0  0.44164602917E-01 -0.72749239982E-01  0.97953969523E-01  0.13121783701E+00  0.19498116174E-01 0.  0.
         14    1    1    2    0    0  0.15599293372E-01 -0.31794538831E-02 -0.17679462693E-01  0.23790970594E-01  0.00000000000E+00 0.  1.
     999901    1    3    3    0    0 -0.59763896289E-01  0.75928693865E-01 -0.80274506830E-01  0.88892119240E+00  0.88000000000E+00 0. -1.
        -11    1    4    4    0    0  0.36497493317E-01 -0.59953853912E-01  0.67884129180E-01  0.97647569006E-01  0.51100000000E-03 0. -1.
         11    1    4    4    0    0  0.76671095998E-02 -0.12795386070E-01  0.30069840343E-01  0.33570267999E-01  0.51100000000E-03 0.  1.
</event>
<event>
 8    1  0.1120016E+005  0.1043930E+01  0.7957747E-01            NaN
         13   -1    0    0    0    0  0.00000000000E+00  0.00000000000E+00  0.74505805969E-08  0.10566000000E+00  0.10566000000E+00 0. -1.
     999900   -1    0    0    0    0 -0.00000000000E+00 -0.00000000000E+00 -0.74505805969E-08  0.93827000000E+00  0.93827000000E+00 0. -1.
     999902    2    1    2    0    0  0.11759885218E-02 -0.16320571596E-01 -0.15431876317E-01  0.10214380723E+01  0.10211904076E+01 0.  0.
     999903    2    3    3    0    0  0.32866604306E-01 -0.26458097390E-01  0.12156073026E+00  0.13021753906E+00  0.19983786972E-01 0.  0.
         14    1    1    2    0    0 -0.11759885218E-02  0.16320571596E-01  0.15431876317E-01  0.22491927727E-01  0.00000000000E+00 0. -1.
     999901    1    3    3    0    0 -0.31690615784E-01  0.10137525794E-01 -0.13699260658E+00  0.89122053321E+00  0.88000000000E+00 0. -1.
        -11    1    4    4    0    0  0.18223908910E-01 -0.11243060457E-01  0.87949795092E-01  0.90520411191E-01  0.51100000000E-03 0.  1.
         11    1    4    4    0    0  0.14642695396E-01 -0.15215036933E-01  0.33610935170E-01  0.39697127872E-01  0.51100000000E-03 0. -1.
</event>
<event>
 8    1  0.1120016E+005  0.1043930E+01  0.7957747E-01            NaN
         13   -1    0    0    0    0  0.00000000000E+00  0.00000000000E+00  0.74505805969E-08  0.10566000000E+00  0.10566000000E+00 0. -1.
     999900   -1    0    0    0    0 -0.00000000000E+00 -0.00000000000E+00 -0.74505805969E-08  0.93827000000E+00  0.93827000000E+00 0. -1.
     999902    2    1    2    0    0 -0.99254815785E-02 -0.90401385423E-03  0.20903388514E-01  0.10207721919E+01  0.10205094726E+01 0.  0.
     999903    2    3    3    0    0  0.28734247807E-01  0.41515650961E-02 -0.12298722525E+00  0.12823387770E+00  0.21798562469E-01 0.  0.
         14    1    1    2    0    0  0.99254815785E-02  0.90401385423E-03 -0.20903388514E-01  0.23157808121E-01  0.00000000000E+00 0.  1.
     999901    1    3    3    0    0 -0.38659729385E-01 -0.50555789504E-02  0.14389061376E+00  0.89253831418E+00  0.88000000000E+00 0.  1.
        -11    1    4    4    0    0  0.25367880413E-01  0.24954116741E-02 -0.60769663202E-01  0.65901210328E-01  0.51100000000E-03 0. -1.
         11    1    4    4    0    0  0.33663673944E-02  0.16561534220E-02 -0.62217562044E-01  0.62332667369E-01  0.51100000000E-03 0.  1.
</event>
<event>
 8    1  0.1120016E+005  0.1043930E+01  0.7957747E-01            NaN
         13   -1    0    0    0    0  0.00000000000E+00  0.00000000000E+00  0.74505805969E-08  0.10566000000E+00  0.10566000000E+00 0.  1.
     999900   -1    0    0    0    0 -0.00000000000E+00 -0.00000000000E+00 -0.74505805969E-08  0.93827000000E+00  0.93827000000E+00 0. -1.
     999902    2    1    2    0    0  0.17532672504E-01 -0.12629251784E-01  0.66608824940E-02  0.10213189416E+01  0.10210686170E+01 0.  0.
     999903    2    3    3    0    0  0.10431691826E+00 -0.71007672688E-01 -0.39766180736E-01  0.13390978145E+00  0.20648763208E-01 0.  0.
         14    1    1    2    0    0 -0.17532672504E-01  0.12629251784E-01 -0.66608824940E-02  0.22611058386E-01  0.00000000000E+00 0. -1.
     999901    1    3    3    0    0 -0.86784245758E-01  0.58378420905E-01  0.46427063230E-01  0.88740916016E+00  0.88000000000E+00 0.  1.
        -11    1    4    4    0    0  0.48802805568E-01 -0.45149358574E-01 -0.23820485168E-01  0.70624748110E-01  0.51100000000E-03 0. -1.
         11    1    4    4    0    0  0.55514112693E-01 -0.25858314114E-01 -0.15945695568E-01  0.63285033342E-01  0.51100000000E-03 0.  1.
</event>
<event>
 8    1  0.1120016E+005  0.1043930E+01  0.7957747E-01            NaN
         13   -1    0    0    0    0  0.00000000000E+00  0.00000000000E+00  0.74505805969E-08  0.10566000000E+00  0.10566000000E+00 0.  1.
     999900   -1    0    0    0    0 -0.00000000000E+00 -0.00000000000E+00 -0.74505805969E-08  0.93827000000E+00  0.93827000000E+00 0.  1.
     999902    2    1    2    0    0  0.13960636747E-02 -0.16739808489E-03 -0.24620625812E-01  0.10192692573E+01  0.10189708860E+01 0.  0.
     999903    2    3    3    0    0  0.12759261967E+00 -0.88676747932E-02 -0.12471627822E-01  0.13014110920E+00  0.20558563986E-01 0.  0.
         14    1    1    2    0    0 -0.13960636747E-02  0.16739808489E-03  0.24620625812E-01  0.24660742715E-01  0.00000000000E+00 0.  1.
     999901    1    3    3    0    0 -0.12619655600E+00  0.87002767083E-02 -0.12148997990E-01  0.88912814808E+00  0.88000000000E+00 0. -1.
        -11    1    4    4    0    0  0.87637296552E-02 -0.49964827492E-02 -0.42672958183E-02  0.10965342308E-01  0.51100000000E-03 0.  1.
         11    1    4    4    0    0  0.11882889002E+00 -0.38711920440E-02 -0.82043320037E-02  0.11917576689E+00  0.51100000000E-03 0. -1.
</event>
<event>
 8    1  0.1120016E+005  0.1043930E+01  0.7957747E-01            NaN
         13   -1    0    0    0    0  0.00000000000E+00  0.00000000000E+00  0.74505805969E-08  0.10566000000E+00  0.10566000000E+00 0.  1.
     999900   -1    0    0    0    0 -0.00000000000E+00 -0.00000000000E+00 -0.74505805969E-08  0.93827000000E+00  0.93827000000E+00 0.  1.
     999902    2    1    2    0    0 -0.17664456478E-01  0.11766606283E-01 -0.10072238046E-01  0.10204366813E+01  0.10201662043E+01 0.  0.
     999903    2    3    3    0    0 -0.82458405792E-01 -0.96957787160E-01 -0.25244714871E-01  0.13125196836E+00  0.19737841672E-01 0.  0.
         14    1    1    2    0    0  0.17664456478E-01 -0.11766606283E-01  0.10072238046E-01  0.23493318739E-01  0.00000000000E+00 0.  1.
     999901    1    3    3    0    0  0.64793949314E-01  0.10872439344E+00  0.15172476825E-01  0.88918471290E+00  0.88000000000E+00 0. -1.
        -11    1    4    4    0    0 -0.17696630208E-01 -0.31967465745E-01 -0.12498033882E-01  0.38620610544E-01  0.51100000000E-03 0.  1.
         11    1    4    4    0    0 -0.64761775584E-01 -0.64990321415E-01 -0.12746680989E-01  0.92631357820E-01  0.51100000000E-03 0. -1.
</event>
<event>
 8    1  0.1120016E+005  0.1043930E+01  0.7957747E-01            NaN
         13   -1    0    0    0    0  0.00000000000E+00  0.00000000000E+00  0.74505805969E-08  0.10566000000E+00  0.10566000000E+00 0. -1.
     999900   -1    0    0    0    0 -0.00000000000E+00 -0.00000000000E+00 -0.74505805969E-08  0.93827000000E+00  0.93827000000E+00 0. -1.
     999902    2    1    2    0    0 -0.15366033762E-02  0.19008765954E-01  0.13501051100E-01  0.10205639410E+01  0.10202964201E+01 0.  0.
     999903    2    3    3    0    0 -0.39844599801E-02 -0.10382457562E+00 -0.72047843256E-01  0.12792031942E+00  0.19424159666E-01 0.  0.
         14    1    1    2    0    0  0.15366033762E-02 -0.19008765954E-01 -0.13501051100E-01  0.23366059014E-01  0.00000000000E+00 0.  1.
     999901    1    3    3    0    0  0.24478566038E-02  0.12283334157E+00  0.85548894355E-01  0.89264362157E+00  0.88000000000E+00 0. -1.
        -11    1    4    4    0    0  0.21961734766E-02 -0.93034580393E-01 -0.65952790025E-01  0.11406264928E+00  0.51100000000E-03 0.  1.
         11    1    4    4    0    0 -0.61806334567E-02 -0.10789995222E-01 -0.60950532303E-02  0.13857670140E-01  0.51100000000E-03 0. -1.
</event>
<event>
 8    1  0.1120016E+005  0.1043930E+01  0.7957747E-01            NaN
         13   -1    0    0    0    0  0.00000000000E+00  0.00000000000E+00  0.74505805969E-08  0.10566000000E+00  0.10566000000E+00 0.  1.
     999900   -1    0    0    0    0 -0.00000000000E+00 -0.00000000000E+00 -0.74505805969E-08  0.93827000000E+00  0.93827000000E+00 0. -1.
     999902    2    1    2    0    0 -0.39650278788E-02  0.68908133129E-02  0.21662170814E-01  0.10208550266E+01  0.10205942048E+01 0.  0.
     999903    2    3    3    0    0 -0.93759878873E-01 -0.62555911809E-01 -0.61164132286E-01  0.12970624024E+00  0.19455094220E-01 0.  0.
         14    1    1    2    0    0  0.39650278788E-02 -0.68908133129E-02 -0.21662170814E-01  0.23074973425E-01  0.00000000000E+00 0. -1.
     999901    1    3    3    0    0  0.89794850994E-01  0.69446725122E-01  0.82826303100E-01  0.89114878633E+00  0.88000000000E+00 0. -1.
        -11    1    4    4    0    0 -0.78125971342E-01 -0.43537946385E-01 -0.51828417101E-01  0.10337149565E+00  0.51100000000E-03 0. -1.
         11    1    4    4    0    0 -0.15633907531E-01 -0.19017965423E-01 -0.93357151857E-02  0.26334744589E-01  0.51100000000E-03 0.  1.
</event>
<event>
 8    1  0.1120016E+005  0.1043930E+01  0.7957747E-01            NaN
         13   -1    0    0    0    0  0.00000000000E+00  0.00000000000E+00  0.74505805969E-08  0.10566000000E+00  0.10566000000E+00 0. -1.
     999900   -1    0    0    0    0 -0.00000000000E+00 -0.00000000000E+00 -0.74505805969E-08  0.93827000000E+00  0.93827000000E+00 0.  1.
     999902    2    1    2    0    0  0.12354853227E-02 -0.27807972006E-02  0.20628399824E-01  0.10230783781E+01  0.10228658649E+01 0.  0.
     999903    2    3    3    0    0 -0.22259680876E-01  0.99225890665E-01  0.85677762357E-01  0.13449028073E+00  0.20141645335E-01 0.  0.
         14    1    1    2    0    0 -0.12354853227E-02  0.27807972006E-02 -0.20628399824E-01  0.20851621912E-01  0.00000000000E+00 0.  1.
     999901    1    3    3    0    0  0.23495166198E-01 -0.10200668787E+00 -0.65049362533E-01  0.88858809736E+00  0.88000000000E+00 0.  1.
        -11    1    4    4    0    0 -0.16692569777E-01  0.63229013468E-01  0.42480504265E-01  0.77983359722E-01  0.51100000000E-03 0. -1.
         11    1    4    4    0    0 -0.55671110991E-02  0.35996877197E-01  0.43197258092E-01  0.56506921006E-01  0.51100000000E-03 0.  1.
</event>
<event>
 8    1  0.1120016E+005  0.1043930E+01  0.7957747E-01            NaN
         13   -1    0    0    0    0  0.00000000000E+00  0.00000000000E+00  0.74505805969E-08  0.10566000000E+00  0.10566000000E+00 0. -1.
     999900   -1    0    0    0    0 -0.00000000000E+00 -0.00000000000E+00 -0.74505805969E-08  0.93827000000E+00  0.93827000000E+00 0. -1.
     999902    2    1    2    0    0 -0.87211044509E-02  0.48512501544E-02  0.20584688473E-01  0.10210537746E+01  0.10207974769E+01 0.  0.
     999903    2    3    3    0    0 -0.60851685143E-01  0.10141932711E+00  0.58608268714E-01  0.13342277939E+00  0.19439686261E-01 0.  0.
         14    1    1    2    0    0  0.87211044509E-02 -0.48512501544E-02 -0.20584688473E-01  0.22876225441E-01  0.00000000000E+00 0.  1.
     999901    1    3    3    0    0  0.52130580692E-01 -0.96568076957E-01 -0.38023580241E-01  0.88763099517E+00  0.88000000000E+00 0. -1.
        -11    1    4    4    0    0 -0.72579519628E-02  0.15211315995E-01  0.16287294048E-01  0.23443529372E-01  0.51100000000E-03 0. -1.
         11    1    4    4    0    0 -0.53593733180E-01  0.86208011116E-01  0.42320974666E-01  0.10997925002E+00  0.51100000000E-03 0.  1.
</event>
<event>
 8    1  0.1120016E+005  0.1043930E+01  0.7957747E-01            NaN
         13   -1    0    0    0    0  0.00000000000E+00  0.00000000000E+00  0.74505805969E-08  0.10566000000E+00  0.10566000000E+00 0. -1.
     999900   -1    0    0    0    0 -0.00000000000E+00 -0.00000000000E+00 -0.74505805969E-08  0.93827000000E+00  0.93827000000E+00 0. -1.
     999902    2    1    2    0    0 -0.18239895931E-01  0.91437583831E-02  0.12274869999E-01  0.10201187725E+01  0.10198408383E+01 0.  0.
     999903    2    3    3    0    0  0.60885493691E-02 -0.43935961143E-01  0.12228689269E+00  0.13134885009E+00  0.18193327913E-01 0.  0.
         14    1    1    2    0    0  0.18239895931E-01 -0.91437583831E-02 -0.12274869999E-01  0.23811227487E-01  0.00000000000E+00 0.  1.
     999901    1    3    3    0    0 -0.24328445300E-01  0.53079719527E-01 -0.11001202269E+00  0.88876992243E+00  0.88000000000E+00 0. -1.
        -11    1    4    4    0    0  0.65023638630E-03 -0.18466478296E-01  0.76198577919E-01  0.78408660401E-01  0.51100000000E-03 0.  1.
         11    1    4    4    0    0  0.54383129828E-02 -0.25469482847E-01  0.46088314769E-01  0.52940189685E-01  0.51100000000E-03 0. -1.
</event>
<event>
 8    1  0.1120016E+005  0.1043930E+01  0.7957747E-01            NaN
         13   -1    0    0    0    0  0.00000000000E+00  0.00000000000E+00  0.74505805969E-08  0.10566000000E+00  0.10566000000E+00 0.  1.
     999900   -1    0    0    0    0 -0.00000000000E+00 -0.00000000000E+00 -0.74505805969E-08  0.93827000000E+00  0.93827000000E+00 0. -1.
     999902    2    1    2    0    0  0.12749746338E-01  0.13488295150E-01 -0.15786002432E-01  0.10195642862E+01  0.10192730967E+01 0.  0.
     999903    2    3    3    0    0 -0.69318353732E-01 -0.19424960950E-01 -0.10693190604E+00  0.13044897800E+00  0.20003501170E-01 0.  0.
         14    1    1    2    0    0 -0.12749746338E-01 -0.13488295150E-01  0.15786002432E-01  0.24365713832E-01  0.00000000000E+00 0. -1.
     999901    1    3    3    0    0  0.82068100071E-01  0.32913256100E-01  0.91145903611E-01  0.88911530817E+00  0.88000000000E+00 0.  1.
        -11    1    4    4    0    0 -0.47948438360E-01 -0.21971942900E-01 -0.82119692307E-01  0.97599815581E-01  0.51100000000E-03 0. -1.
         11    1    4    4    0    0 -0.21369915372E-01  0.25469819502E-02 -0.24812213735E-01  0.32849162418E-01  0.51100000000E-03 0.  1.
</event>
<event>
 8    1  0.1120016E+005  0.1043930E+01  0.7957747E-01            NaN
         13   -1    0    0    0    0  0.00000000000E+00  0.00000000000E+00  0.74505805969E-08  0.10566000000E+00  0.10566000000E+00 0. -1.
     999900   -1    0    0    0    0 -0.00000000000E+00 -0.00000000000E+00 -0.74505805969E-08  0.93827000000E+00  0.93827000000E+00 0.  1.
     999902    2    1    2    0    0  0.67589523284E-02  0.22327602614E-01 -0.27362234806E-02  0.10204418712E+01  0.10201715152E+01 0.  0.
     999903    2    3    3    0    0 -0.11564260535E+00 -0.47073927964E-01 -0.27505539496E-01  0.12891944705E+00  0.16568109635E-01 0.  0.
         14    1    1    2    0    0 -0.67589523284E-02 -0.22327602614E-01  0.27362234806E-02  0.23488128789E-01  0.00000000000E+00 0.  1.
     999901    1    3    3    0    0  0.12240155768E+00  0.69401530579E-01  0.24769316015E-01  0.89152242416E+00  0.88000000000E+00 0.  1.
        -11    1    4    4    0    0 -0.22883308358E-01 -0.25983628313E-02 -0.37334188754E-02  0.23336598474E-01  0.51100000000E-03 0. -1.
         11    1    4    4    0    0 -0.92759296996E-01 -0.44475565133E-01 -0.23772120621E-01  0.10558284857E+00  0.51100000000E-03 0.  1.
</event>
<event>
 8    1  0.1120016E+005  0.1043930E+01  0.7957747E-01            NaN
         13   -1    0    0    0    0  0.00000000000E+00  0.00000000000E+00  0.74505805969E-08  0.10566000000E+00  0.10566000000E+00 0. -1.
     999900   -1    0    0    0    0 -0.00000000000E+00 -0.00000000000E+00 -0.74505805969E-08  0.93827000000E+00  0.93827000000E+00 0.  1.
     999902    2    1    2    0    0 -0.24993620925E-01  0.87109275001E-02 -0.31895755876E-02  0.10172703913E+01  0.10169209970E+01 0.  0.
     999903    2    3    3    0    0 -0.76453884173E-01  0.37704464831E-02  0.10236667650E+00  0.12945583327E+00  0.20505210027E-01 0.  0.
         14    1    1    2    0    0  0.24993620925E-01 -0.87109275001E-02  0.31895755876E-02  0.26659608723E-01  0.00000000000E+00 0. -1.
     999901    1    3    3    0    0  0.51460263248E-01  0.49404810170E-02 -0.10555625209E+00  0.88781455800E+00  0.88000000000E+00 0.  1.
        -11    1    4    4    0    0 -0.21482387915E-01 -0.79428943306E-02  0.33052211197E-01  0.40215573437E-01  0.51100000000E-03 0.  1.
         11    1    4    4    0    0 -0.54971496258E-01  0.11713340814E-01  0.69314465308E-01  0.89240259837E-01  0.51100000000E-03 0. -1.
</event>
<event>
 8    1  0.1120016E+005  0.1043930E+01  0.7957747E-01            NaN
         13   -1    0    0    0    0  0.00000000000E+00  0.00000000000E+00  0.74505805969E-08  0.10566000000E+00  0.10566000000E+00 0.  1.
     999900   -1    0    0    0    0 -0.00000000000E+00 -0.00000000000E+00 -0.74505805969E-08  0.93827000000E+00  0.93827000000E+00 0.  1.
     999902    2    1    2    0    0 -0.16282789888E-01  0.72019959625E-02 -0.13875170915E-01  0.10213574866E+01  0.10211080242E+01 0.  0.
     999903    2    3    3    0    0  0.55629817972E-01 -0.53317818587E-01  0.10119669337E+00  0.12890266699E+00  0.20920334166E-01 0.  0.
         14    1    1    2    0    0  0.16282789888E-01 -0.72019959625E-02  0.13875170915E-01  0.22572513380E-01  0.00000000000E+00 0.  1.
     999901    1    3    3    0    0 -0.71912607860E-01  0.60519814550E-01 -0.11507186429E+00  0.89245481963E+00  0.88000000000E+00 0.  1.
        -11    1    4    4    0    0  0.18463512392E-01 -0.22372225593E-01  0.23288710264E-01  0.37202727247E-01  0.51100000000E-03 0. -1.
         11    1    4    4    0    0  0.37166305580E-01 -0.30945592994E-01  0.77907983111E-01  0.91699939747E-01  0.51100000000E-03 0.  1.
</event>
<event>
 8    1  0.1120016E+005  0.1043930E+01  0.7957747E-01            NaN
         13   -1    0    0    0    0  0.00000000000E+00  0.00000000000E+00  0.74505805969E-08  0.10566000000E+00  0.10566000000E+00 0. -1.
     999900   -1    0    0    0    0 -0.00000000000E+00 -0.00000000000E+00 -0.74505805969E-08  0.93827000000E+00  0.93827000000E+00 0.  1.
     999902    2    1    2    0    0  0.13230933533E-01 -0.18527366673E-01  0.10124806589E-01  0.10190134869E+01  0.10187088170E+01 0.  0.
     999903    2    3    3    0    0 -0.37073856167E-02  0.11354902305E+00  0.55163288044E-01  0.12785719071E+00  0.19933577822E-01 0.  0.
         14    1    1    2    0    0 -0.13230933533E-01  0.18527366673E-01 -0.10124806589E-01  0.24916513128E-01  0.00000000000E+00 0. -1.
     999901    1    3    3    0    0  0.16938319150E-01 -0.13207638972E+00 -0.45038481454E-01  0.89115629616E+00  0.88000000000E+00 0. -1.
        -11    1    4    4    0    0 -0.81937697457E-02  0.84419222171E-01  0.48244751803E-01  0.97578481911E-01  0.51100000000E-03 0.  1.
         11    1    4    4    0    0  0.44863841289E-02  0.29129800879E-01  0.69185362404E-02  0.30278708799E-01  0.51100000000E-03 0. -1.
</event>
<event>
 8    1  0.1120016E+005  0.1043930E+01  0.7957747E-01            NaN
         13   -1    0    0    0    0  0.00000000000E+00  0.00000000000E+00  0.74505805969E-08  0.10566000000E+00  0.10566000000E+00 0. -1.
     999900   -1    0    0    0    0 -0.00000000000E+00 -0.00000000000E+00 -0.74505805969E-08  0.93827000000E+00  0.93827000000E+00 0. -1.
     999902    2    1    2    0    0 -0.17914031438E-01 -0.10615622670E-01 -0.11642955143E-01  0.10200728759E+01  0.10197938565E+01 0.  0.
     999903    2    3    3    0    0  0.18830557187E-01 -0.98444187658E-01  0.80468430660E-01  0.13015797600E+00  0.20495912193E-01 0.  0.
         14    1    1    2    0    0  0.17914031438E-01  0.10615622670E-01  0.11642955143E-01  0.23857124125E-01  0.00000000000E+00 0. -1.
     999901    1    3    3    0    0 -0.36744588625E-01  0.87828564987E-01 -0.92111385803E-01  0.88991489987E+00  0.88000000000E+00 0. -1.
        -11    1    4    4    0    0  0.14206995601E-01 -0.42097970292E-01  0.25142894873E-01  0.51053933348E-01  0.51100000000E-03 0.  1.
         11    1    4    4    0    0  0.46235615867E-02 -0.56346217366E-01  0.55325535788E-01  0.79104042655E-01  0.51100000000E-03 0. -1.
</event>
<event>
 8    1  0.1120016E+005  0.1043930E+01  0.7957747E-01            NaN
         13   -1    0    0    0    0  0.00000000000E+00  0.00000000000E+00  0.74505805969E-08  0.10566000000E+00  0.10566000000E+00 0. -1.
     999900   -1    0    0    0    0 -0.00000000000E+00 -0.00000000000E+00 -0.74505805969E-08  0.93827000000E+00  0.93827000000E+00 0.  1.
     999902    2    1    2    0    0 -0.19228053176E-01 -0.53480356151E-02 -0.12918500748E-01  0.10201559138E+01  0.10198788562E+01 0.  0.
     999903    2    3    3    0    0 -0.12163670872E+00 -0.48665456269E-01  0.84470385913E-02  0.13290148695E+00  0.20679391470E-01 0.  0.
         14    1    1    2    0    0  0.19228053176E-01  0.53480356151E-02  0.12918500748E-01  0.23774086217E-01  0.00000000000E+00 0. -1.
     999901    1    3    3    0    0  0.10240865554E+00  0.43317420654E-01 -0.21365539340E-01  0.88725442683E+00  0.88000000000E+00 0. -1.
        -11    1    4    4    0    0 -0.64214872726E-01 -0.20362207804E-01 -0.47499242055E-02  0.67535118915E-01  0.51100000000E-03 0.  1.
         11    1    4    4    0    0 -0.57421835990E-01 -0.28303248465E-01  0.13196962797E-01  0.65366368036E-01  0.51100000000E-03 0. -1.
</event>
<event>
 8    1  0.1120016E+005  0.1043930E+01  0.7957747E-01            NaN
         13   -1    0    0    0    0  0.00000000000E+00  0.00000000000E+00  0.74505805969E-08  0.10566000000E+00  0.10566000000E+00 0.  1.
     999900   -1    0    0    0    0 -0.00000000000E+00 -0.00000000000E+00 -0.74505805969E-08  0.93827000000E+00  0.93827000000E+00 0.  1.
     999902    2    1    2    0    0  0.82455170764E-02  0.94755346149E-02 -0.17334310875E-01  0.10225231637E+01  0.10222990598E+01 0.  0.
     999903    2    3    3    0    0  0.76888234181E-01  0.66497676530E-01  0.82564805072E-01  0.13238655581E+00  0.19378121278E-01 0.  0.
         14    1    1    2    0    0 -0.82455170764E-02 -0.94755346149E-02  0.17334310875E-01  0.21406836329E-01  0.00000000000E+00 0.  1.
     999901    1    3    3    0    0 -0.68642717104E-01 -0.57022141915E-01 -0.99899115948E-01  0.89013660786E+00  0.88000000000E+00 0.  1.
        -11    1    4    4    0    0  0.49624777496E-01  0.50552741599E-01  0.65510687037E-01  0.96488908491E-01  0.51100000000E-03 0. -1.
         11    1    4    4    0    0  0.27263456685E-01  0.15944934931E-01  0.17054118035E-01  0.35897647323E-01  0.51100000000E-03 0.  1.
</event>
<event>
 8    1  0.1120016E+005  0.1043930E+01  0.7957747E-01            NaN
         13   -1    0    0    0    0  0.00000000000E+00  0.00000000000E+00  0.74505805969E-08  0.10566000000E+00  0.10566000000E+00 0. -1.
     999900   -1    0    0    0    0 -0.00000000000E+00 -0.00000000000E+00 -0.74505805969E-08  0.93827000000E+00  0.93827000000E+00 0. -1.
     999902    2    1    2    0    0 -0.14685311435E-02  0.12091640098E-01  0.23306148702E-01  0.10176328345E+01  0.10172929986E+01 0.  0.
     999903    2    3    3    0    0  0.93433610141E-01  0.81669826676E-01  0.31847220825E-01  0.12975869347E+00  0.20573598696E-01 0.  0.
         14    1    1    2    0    0  0.14685311435E-02 -0.12091640098E-01 -0.23306148702E-01  0.26297165461E-01  0.00000000000E+00 0.  1.
     999901    1    3    3    0    0 -0.94902141284E-01 -0.69578186578E-01 -0.85410721225E-02  0.88787414107E+00  0.88000000000E+00 0.  1.
        -11    1    4    4    0    0  0.26907528070E-01  0.28769150972E-01  0.19205679665E-01  0.43826913728E-01  0.51100000000E-03 0. -1.
         11    1    4    4    0    0  0.66526082070E-01  0.52900675704E-01  0.12641541159E-01  0.85931779741E-01  0.51100000000E-03 0.  1.
</event>
<event>
 8    1  0.1498997E+005  0.1043930E+01  0.7957747E-01            NaN
         13   -1    0    0    0    0  0.00000000000E+00  0.00000000000E+00  0.74505805969E-08  0.10566000000E+00  0.10566000000E+00 0.  1.
     999900   -1    0    0    0    0 -0.00000000000E+00 -0.00000000000E+00 -0.74505805969E-08  0.93827000000E+00  0.93827000000E+00 0. -1.
     999902    2    1    2    0    0 -0.15486982030E-01  0.87184984227E-02 -0.16722499749E-01  0.10195271144E+01  0.10192350250E+01 0.  0.
     999903    2    3    3    0    0  0.35353167869E-01 -0.23194604997E-01 -0.12251598135E+00  0.13116039522E+00  0.20125789641E-01 0.  0.
         14    1    1    2    0    0  0.15486982030E-01 -0.87184984227E-02  0.16722499749E-01  0.24402885588E-01  0.00000000000E+00 0.  1.
     999901    1    3    3    0    0 -0.50840149900E-01  0.31913103419E-01  0.10579348161E+00  0.88836671919E+00  0.88000000000E+00 0.  1.
        -11    1    4    4    0    0  0.23291153161E-01 -0.33572470185E-02 -0.58122803301E-01  0.62707816958E-01  0.51100000000E-03 0. -1.
         11    1    4    4    0    0  0.12062014709E-01 -0.19837357978E-01 -0.64393178053E-01  0.68452578265E-01  0.51100000000E-03 0.  1.
</event>
<event>
 8    1  0.1120016E+005  0.1043930E+01  0.7957747E-01            NaN
         13   -1    0    0    0    0  0.00000000000E+00  0.00000000000E+00  0.74505805969E-08  0.10566000000E+00  0.10566000000E+00 0.  1.
     999900   -1    0    0    0    0 -0.00000000000E+00 -0.00000000000E+00 -0.74505805969E-08  0.93827000000E+00  0.93827000000E+00 0. -1.
     999902    2    1    2    0    0 -0.84038852525E-02  0.13591031560E-01  0.18478121561E-01  0.10195008698E+01  0.10192081442E+01 0.  0.
     999903    2    3    3    0    0  0.42420354428E-01  0.12213492864E+00 -0.66183655217E-02  0.13102199295E+00  0.20162653885E-01 0.  0.
         14    1    1    2    0    0  0.84038852525E-02 -0.13591031560E-01 -0.18478121561E-01  0.24429130206E-01  0.00000000000E+00 0. -1.
     999901    1    3    3    0    0 -0.50824239681E-01 -0.10854389708E+00  0.25096487082E-01  0.88847887684E+00  0.88000000000E+00 0.  1.
        -11    1    4    4    0    0  0.31871303503E-01  0.86511519102E-01  0.42932218546E-02  0.92296889434E-01  0.51100000000E-03 0. -1.
         11    1    4    4    0    0  0.10549050926E-01  0.35623409535E-01 -0.10911587376E-01  0.38725103517E-01  0.51100000000E-03 0.  1.
</event>
<event>
 8    1  0.1120016E+005  0.1043930E+01  0.7957747E-01            NaN
         13   -1    0    0    0    0  0.00000000000E+00  0.00000000000E+00  0.74505805969E-08  0.10566000000E+00  0.10566000000E+00 0. -1.
     999900   -1    0    0    0    0 -0.00000000000E+00 -0.00000000000E+00 -0.74505805969E-08  0.93827000000E+00  0.93827000000E+00 0.  1.
     999902    2    1    2    0    0  0.48863464252E-02 -0.63803586910E-02  0.21919465102E-01  0.10205837303E+01  0.10203166676E+01 0.  0.
     999903    2    3    3    0    0 -0.79760591862E-01 -0.24901038967E-01  0.10174634573E+00  0.13273213762E+00  0.16843032121E-01 0.  0.
         14    1    1    2    0    0 -0.48863464252E-02  0.63803586910E-02 -0.21919465102E-01  0.23346269697E-01  0.00000000000E+00 0.  1.
     999901    1    3    3    0    0  0.84646938287E-01  0.18520680276E-01 -0.79826880633E-01  0.88785159268E+00  0.88000000000E+00 0.  1.
        -11    1    4    4    0    0 -0.51929994087E-01 -0.23768986900E-01  0.73201158761E-01  0.92845892689E-01  0.51100000000E-03 0.  1.
         11    1    4    4    0    0 -0.27830597774E-01 -0.11320520669E-02  0.28545186973E-01  0.39886244931E-01  0.51100000000E-03 0. -1.
</event>
<event>
 8    1  0.1120016E+005  0.1043930E+01  0.7957747E-01            NaN
         13   -1    0    0    0    0  0.00000000000E+00  0.00000000000E+00  0.74505805969E-08  0.10566000000E+00  0.10566000000E+00 0.  1.
     999900   -1    0    0    0    0 -0.00000000000E+00 -0.00000000000E+00 -0.74505805969E-08  0.93827000000E+00  0.93827000000E+00 0.  1.
     999902    2    1    2    0    0 -0.12426911036E-01 -0.89026463499E-02  0.15289663677E-01  0.10223091988E+01  0.10220805442E+01 0.  0.
     999903    2    3    3    0    0  0.10484514536E+00  0.27963069404E-01 -0.68458905078E-01  0.12982634798E+00  0.19844928561E-01 0.  0.
         14    1    1    2    0    0  0.12426911036E-01  0.89026463499E-02 -0.15289663677E-01  0.21620801218E-01  0.00000000000E+00 0. -1.
     999901    1    3    3    0    0 -0.11727205639E+00 -0.36865715753E-01  0.83748568755E-01  0.89248285080E+00  0.88000000000E+00 0. -1.
        -11    1    4    4    0    0  0.30993351921E-01  0.50643310647E-02 -0.30137927089E-01  0.43529198047E-01  0.51100000000E-03 0.  1.
         11    1    4    4    0    0  0.73851793437E-01  0.22898738339E-01 -0.38320977989E-01  0.86297149932E-01  0.51100000000E-03 0. -1.
</event>
<event>
 8    1  0.1120016E+005  0.1043930E+01  0.7957747E-01            NaN
         13   -1    0    0    0    0  0.00000000000E+00  0.00000000000E+00  0.74505805969E-08  0.10566000000E+00  0.10566000000E+00 0. -1.
     999900   -1    0    0    0    0 -0.00000000000E+00 -0.00000000000E+00 -0.74505805969E-08  0.93827000000E+00  0.93827000000E+00 0. -1.
     999902    2    1    2    0    0  0.51413755156E-02  0.57316899230E-02 -0.23039229982E-01  0.10196381880E+01  0.10193487834E+01 0.  0.
     999903    2    3    3    0    0 -0.10851509163E+00 -0.59741298635E-01  0.30065457701E-01  0.12833318264E+00  0.14863584525E-01 0.  0.
         14    1    1    2    0    0 -0.51413755156E-02 -0.57316899230E-02  0.23039229982E-01  0.24291811989E-01  0.00000000000E+00 0. -1.
     999901    1    3    3    0    0  0.11365646714E+00  0.65472988558E-01 -0.53104687682E-01  0.89130500538E+00  0.88000000000E+00 0. -1.
        -11    1    4    4    0    0 -0.67168210181E-01 -0.39006215326E-01  0.11643556960E-01  0.78542261444E-01  0.51100000000E-03 0. -1.
         11    1    4    4    0    0 -0.41346881446E-01 -0.20735083309E-01  0.18421900741E-01  0.49790921191E-01  0.51100000000E-03 0.  1.
</event>
<event>
 8    1  0.1120016E+005  0.1043930E+01  0.7957747E-01            NaN
         13   -1    0    0    0    0  0.00000000000E+00  0.00000000000E+00  0.74505805969E-08  0.10566000000E+00  0.10566000000E+00 0. -1.
     999900   -1    0    0    0    0 -0.00000000000E+00 -0.00000000000E+00 -0.74505805969E-08  0.93827000000E+00  0.93827000000E+00 0.  1.
     999902    2    1    2    0    0 -0.51123540963E-02 -0.73358998327E-02 -0.22287265727E-01  0.10199159665E+01  0.10196332208E+01 0.  0.
     999903    2    3    3    0    0  0.97861723675E-01  0.81271544561E-01 -0.14991873113E-01  0.12946205830E+00  0.18806577686E-01 0.  0.
         14    1    1    2    0    0  0.51123540963E-02  0.73358998327E-02  0.22287265727E-01  0.24014033487E-01  0.00000000000E+00 0. -1.
     999901    1    3    3    0    0 -0.10297407777E+00 -0.88607444394E-01 -0.72953926137E-02  0.89045390821E+00  0.88000000000E+00 0.  1.
        -11    1    4    4    0    0  0.92984106402E-01  0.71143414665E-01 -0.15981556540E-01  0.11816556505E+00  0.51100000000E-03 0. -1.
         11    1    4    4    0    0  0.48776172728E-02  0.10128129896E-01  0.98968342699E-03  0.11296493250E-01  0.51100000000E-03 0.  1.
</event>
<event>
 8    1  0.1120016E+005  0.1043930E+01  0.7957747E-01            NaN
         13   -1    0    0    0    0  0.00000000000E+00  0.00000000000E+00  0.74505805969E-08  0.10566000000E+00  0.10566000000E+00 0.  1.
     999900   -1    0    0    0    0 -0.00000000000E+00 -0.00000000000E+00 -0.74505805969E-08  0.93827000000E+00  0.93827000000E+00 0.  1.
     999902    2    1    2    0    0 -0.21121607247E-01 -0.59168618303E-02 -0.91270674844E-02  0.10201721611E+01  0.10198954865E+01 0.  0.
     999903    2    3    3    0    0 -0.20076238134E-01 -0.72761327961E-01  0.10430069348E+00  0.13037716654E+00  0.20550053765E-01 0.  0.
         14    1    1    2    0    0  0.21121607247E-01  0.59168618303E-02  0.91270674844E-02  0.23757838864E-01  0.00000000000E+00 0. -1.
     999901    1    3    3    0    0 -0.10453691130E-02  0.66844466131E-01 -0.11342776097E+00  0.88979499460E+00  0.88000000000E+00 0.  1.
        -11    1    4    4    0    0 -0.20855137942E-01 -0.37302884011E-01  0.58350826118E-01  0.72329260771E-01  0.51100000000E-03 0. -1.
         11    1    4    4    0    0  0.77889980724E-03 -0.35458443950E-01  0.45949867366E-01  0.58047905769E-01  0.51100000000E-03 0.  1.
</event>
<event>
 8    1  0.1120016E+005  0.1043930E+01  0.7957747E-01            NaN
         13   -1    0    0    0    0  0.00000000000E+00  0.00000000000E+00  0.74505805969E-08  0.10566000000E+00  0.10566000000E+00 0. -1.
     999900   -1    0    0    0    0 -0.00000000000E+00 -0.00000000000E+00 -0.74505805969E-08  0.93827000000E+00  0.93827000000E+00 0.  1.
     999902    2    1    2    0    0 -0.81871856264E-02  0.19119746913E-01  0.11140777688E-01  0.10203352621E+01  0.10200624174E+01 0.  0.
     999903    2    3    3    0    0  0.10179869057E+00  0.43759363000E-01 -0.64478696780E-01  0.12992956321E+00  0.21126613687E-01 0.  0.
         14    1    1    2    0    0  0.81871856264E-02 -0.19119746913E-01 -0.11140777688E-01  0.23594737930E-01  0.00000000000E+00 0.  1.
     999901    1    3    3    0    0 -0.10998587620E+00 -0.24639616087E-01  0.75619474468E-01  0.89040569886E+00  0.88000000000E+00 0.  1.
        -11    1    4    4    0    0  0.56307995212E-01  0.22801923364E-01 -0.23226910217E-01  0.65040514397E-01  0.51100000000E-03 0.  1.
         11    1    4    4    0    0  0.45490695357E-01  0.20957439636E-01 -0.41251786563E-01  0.64889048813E-01  0.51100000000E-03 0. -1.
</event>
<event>
 8    1  0.1120016E+005  0.1043930E+01  0.7957747E-01            NaN
         13   -1    0    0    0    0  0.00000000000E+00  0.00000000000E+00  0.74505805969E-08  0.10566000000E+00  0.10566000000E+00 0. -1.
     999900   -1    0    0    0    0 -0.00000000000E+00 -0.00000000000E+00 -0.74505805969E-08  0.93827000000E+00  0.93827000000E+00 0.  1.
     999902    2    1    2    0    0 -0.75166274322E-02 -0.13951919055E-01  0.16568999892E-01  0.10210021242E+01  0.10207446547E+01 0.  0.
     999903    2    3    3    0    0  0.90546825125E-01 -0.28495771994E-02  0.93984675333E-01  0.13210792937E+00  0.20311035779E-01 0.  0.
         14    1    1    2    0    0  0.75166274322E-02  0.13951919055E-01 -0.16568999892E-01  0.22927875843E-01  0.00000000000E+00 0.  1.
     999901    1    3    3    0    0 -0.98063452557E-01 -0.11102341855E-01 -0.77415675442E-01  0.88889419479E+00  0.88000000000E+00 0.  1.
        -11    1    4    4    0    0  0.64883239292E-01  0.71783867188E-02  0.66437018816E-01  0.93142377934E-01  0.51100000000E-03 0. -1.
         11    1    4    4    0    0  0.25663585833E-01 -0.10027963918E-01  0.27547656517E-01  0.38965551436E-01  0.51100000000E-03 0.  1.
</event>
<event>
 8    1  0.1120016E+005  0.1043930E+01  0.7957747E-01            NaN
         13   -1    0    0    0    0  0.00000000000E+00  0.00000000000E+00  0.74505805969E-08  0.10566000000E+00  0.10566000000E+00 0. -1.
     999900   -1    0    0    0    0 -0.00000000000E+00 -0.00000000000E+00 -0.74505805969E-08  0.93827000000E+00  0.93827000000E+00 0. -1.
     999902    2    1    2    0    0  0.14395381245E-02 -0.25079960328E-01  0.34143644935E-02  0.10185777897E+01  0.10182622350E+01 0.  0.
     999903    2    3    3    0    0  0.14405088015E-01 -0.75471946490E-01 -0.10258216196E+00  0.13069112953E+00  0.25564626325E-01 0.  0.
         14    1    1    2    0    0 -0.14395381245E-02  0.25079960328E-01 -0.34143644935E-02  0.25352210258E-01  0.00000000000E+00 0. -1.
     999901    1    3    3    0    0 -0.12965549890E-01  0.50391986162E-01  0.10599652645E+00  0.88788666021E+00  0.88000000000E+00 0.  1.
        -11    1    4    4    0    0  0.18031311733E-01 -0.28991884557E-01 -0.48010644535E-01  0.58914689871E-01  0.51100000000E-03 0. -1.
         11    1    4    4    0    0 -0.36262237183E-02 -0.46480061934E-01 -0.54571517425E-01  0.71776439664E-01  0.51100000000E-03 0.  1.
</event>
<event>
 8    1  0.1120016E+005  0.1043930E+01  0.7957747E-01            NaN
         13   -1    0    0    0    0  0.00000000000E+00  0.00000000000E+00  0.74505805969E-08  0.10566000000E+00  0.10566000000E+00 0.  1.
     999900   -1    0    0    0    0 -0.00000000000E+00 -0.00000000000E+00 -0.74505805969E-08  0.93827000000E+00  0.93827000000E+00 0.  1.
     999902    2    1    2    0    0 -0.10577625396E-01  0.18316374328E-01 -0.84244282819E-02  0.10211627709E+01  0.10209089372E+01 0.  0.
     999903    2    3    3    0    0  0.37483418389E-01 -0.79082302179E-02 -0.12457673166E+00  0.13184339557E+00  0.19894022351E-01 0.  0.
         14    1    1    2    0    0  0.10577625396E-01 -0.18316374328E-01  0.84244282819E-02  0.22767229067E-01  0.00000000000E+00 0.  1.
     999901    1    3    3    0    0 -0.48061043785E-01  0.26224604546E-01  0.11615230338E+00  0.88931937536E+00  0.88000000000E+00 0. -1.
        -11    1    4    4    0    0  0.21561033713E-01 -0.10613668914E-01 -0.49247771466E-01  0.54800841763E-01  0.51100000000E-03 0. -1.
         11    1    4    4    0    0  0.15922384675E-01  0.27054386958E-02 -0.75328960194E-01  0.77042553808E-01  0.51100000000E-03 0.  1.
</event>
<event>
 8    1  0.1120016E+005  0.1043930E+01  0.7957747E-01            NaN
         13   -1    0    0    0    0  0.00000000000E+00  0.00000000000E+00  0.74505805969E-08  0.10566000000E+00  0.10566000000E+00 0.  1.
     999900   -1    0    0    0    0 -0.00000000000E+00 -0.00000000000E+00 -0.74505805969E-08  0.93827000000E+00  0.93827000000E+00 0.  1.
     999902    2    1    2    0    0 -0.33210386165E-02 -0.23316242142E-01 -0.23142097839E-02  0.10202650045E+01  0.10199905134E+01 0.  0.
     999903    2    3    3    0    0  0.68246201539E-01 -0.10943600309E+00  0.25379953658E-01  0.13273728675E+00  0.18473290159E-01 0.  0.
         14    1    1    2    0    0  0.33210386165E-02  0.23316242142E-01  0.23142097839E-02  0.23664995501E-01  0.00000000000E+00 0.  1.
     999901    1    3    3    0    0 -0.71567240155E-01  0.86119760945E-01 -0.27694163442E-01  0.88752771775E+00  0.88000000000E+00 0.  1.
        -11    1    4    4    0    0  0.40331132737E-01 -0.80279598670E-01  0.15389725181E-01  0.91151077847E-01  0.51100000000E-03 0.  1.
         11    1    4    4    0    0  0.27915068801E-01 -0.29156404417E-01  0.99902284765E-02  0.41586208900E-01  0.51100000000E-03 0. -1.
</event>
<event>
 8    1  0.1120016E+005  0.1043930E+01  0.7957747E-01            NaN
         13   -1    0    0    0    0  0.00000000000E+00  0.00000000000E+00  0.74505805969E-08  0.10566000000E+00  0.10566000000E+00 0. -1.
     999900   -1    0    0    0    0 -0.00000000000E+00 -0.00000000000E+00 -0.74505805969E-08  0.93827000000E+00  0.93827000000E+00 0. -1.
     999902    2    1    2    0    0 -0.12166520089E-04  0.22856252799E-01 -0.64637880665E-02  0.10201773371E+01  0.10199007844E+01 0.  0.
     999903    2    3    3    0    0 -0.47495072851E-01  0.12205890464E+00  0.99423975351E-02  0.13317961698E+00  0.21995475927E-01 0.  0.
         14    1    1    2    0    0  0.12166520089E-04 -0.22856252799E-01  0.64637880665E-02  0.23752662929E-01  0.00000000000E+00 0.  1.
     999901    1    3    3    0    0  0.47482906331E-01 -0.99202651845E-01 -0.16406185602E-01  0.88699772009E+00  0.88000000000E+00 0. -1.
        -11    1    4    4    0    0 -0.21055227652E-01  0.79498557461E-01  0.79772251743E-03  0.82245004298E-01  0.51100000000E-03 0. -1.
         11    1    4    4    0    0 -0.26439845199E-01  0.42560347184E-01  0.91446750177E-02  0.50934612678E-01  0.51100000000E-03 0.  1.
</event>
<event>
 8    1  0.1120016E+005  0.1043930E+01  0.7957747E-01            NaN
         13   -1    0    0    0    0  0.00000000000E+00  0.00000000000E+00  0.74505805969E-08  0.10566000000E+00  0.10566000000E+00 0.  1.
     999900   -1    0    0    0    0 -0.00000000000E+00 -0.00000000000E+00 -0.74505805969E-08  0.93827000000E+00  0.93827000000E+00 0.  1.
     999902    2    1    2    0    0  0.51862367298E-03  0.19156791374E-02 -0.23241114072E-01  0.10206043021E+01  0.10203377154E+01 0.  0.
     999903    2    3    3    0    0  0.26396766007E-01  0.12687886461E+00 -0.40828590281E-02  0.13119297171E+00  0.19997263473E-01 0.  0.
         14    1    1    2    0    0 -0.51862367298E-03 -0.19156791374E-02  0.23241114072E-01  0.23325697854E-01  0.00000000000E+00 0.  1.
     999901    1    3    3    0    0 -0.25878142334E-01 -0.12496318548E+00 -0.19158255044E-01  0.88941133044E+00  0.88000000000E+00 0. -1.
        -11    1    4    4    0    0 -0.31376704154E-02  0.14593236155E-01  0.10605495054E-02  0.14973089306E-01  0.51100000000E-03 0. -1.
         11    1    4    4    0    0  0.29534436422E-01  0.11228562846E+00 -0.51434085335E-02  0.11621988240E+00  0.51100000000E-03 0.  1.
</event>
<event>
 8    1  0.1120016E+005  0.1043930E+01  0.7957747E-01            NaN
         13   -1    0    0    0    0  0.00000000000E+00  0.00000000000E+00  0.74505805969E-08  0.10566000000E+00  0.10566000000E+00 0. -1.
     999900   -1    0    0    0    0 -0.00000000000E+00 -0.00000000000E+00 -0.74505805969E-08  0.93827000000E+00  0.93827000000E+00 0. -1.
     999902    2    1    2    0    0  0.15676863118E-01 -0.17508137595E-01  0.64077202297E-02  0.10195710633E+01  0.10192800377E+01 0.  0.
     999903    2    3    3    0    0 -0.10561177202E+00  0.52126913281E-01 -0.43552261088E-01  0.12712724261E+00  0.19836201557E-01 0.  0.
         14    1    1    2    0    0 -0.15676863118E-01  0.17508137595E-01 -0.64077202297E-02  0.24358936713E-01  0.00000000000E+00 0. -1.
     999901    1    3    3    0    0  0.12128863513E+00 -0.69635050875E-01  0.49959981318E-01  0.89244382067E+00  0.88000000000E+00 0.  1.
        -11    1    4    4    0    0 -0.91367056764E-01  0.36836913064E-01 -0.36714522636E-01  0.10513379342E+00  0.51100000000E-03 0.  1.
         11    1    4    4    0    0 -0.14244715252E-01  0.15290000217E-01 -0.68377384520E-02  0.21993449193E-01  0.51100000000E-03 0. -1.
</event>
<event>
 8    1  0.1120016E+005  0.1043930E+01  0.7957747E-01            NaN
         13   -1    0    0    0    0  0.00000000000E+00  0.00000000000E+00  0.74505805969E-08  0.10566000000E+00  0.10566000000E+00 0.  1.
     999900   -1    0    0    0    0 -0.00000000000E+00 -0.00000000000E+00 -0.74505805969E-08  0.93827000000E+00  0.93827000000E+00 0. -1.
     999902    2    1    2    0    0 -0.29974887099E-02  0.23372849034E-01 -0.20717285827E-03  0.10203648153E+01  0.10200926616E+01 0.  0.
     999903    2    3    3    0    0 -0.97516228430E-01  0.53102164191E-01 -0.68558184543E-01  0.13217030666E+00  0.20964509188E-01 0.  0.
         14    1    1    2    0    0  0.29974887099E-02 -0.23372849034E-01  0.20717285827E-03  0.23565184725E-01  0.00000000000E+00 0.  1.
     999901    1    3    3    0    0  0.94518739720E-01 -0.29729315157E-01  0.68351011684E-01  0.88819450862E+00  0.88000000000E+00 0.  1.
        -11    1    4    4    0    0 -0.61746320773E-02 -0.17436912021E-02 -0.44713392697E-02  0.78371255038E-02  0.51100000000E-03 0.  1.
         11    1    4    4    0    0 -0.91341596353E-01  0.54845855393E-01 -0.64086845273E-01  0.12433318116E+00  0.51100000000E-03 0. -1.
</event>
<event>
 8    1  0.1120016E+005  0.1043930E+01  0.7957747E-01            NaN
         13   -1    0    0    0    0  0.00000000000E+00  0.00000000000E+00  0.74505805969E-08  0.10566000000E+00  0.10566000000E+00 0. -1.
     999900   -1    0    0    0    0 -0.00000000000E+00 -0.00000000000E+00 -0.74505805969E-08  0.93827000000E+00  0.93827000000E+00 0. -1.
     999902    2    1    2    0    0 -0.10731940389E-01 -0.34055566714E-02  0.22424986589E-01  0.10188371248E+01  0.10185280725E+01 0.  0.
     999903    2    3    3    0    0  0.10196519913E+00 -0.75345375783E-01  0.62549224718E-02  0.12859139819E+00  0.20562007401E-01 0.  0.
         14    1    1    2    0    0  0.10731940389E-01  0.34055566714E-02 -0.22424986589E-01  0.25092875170E-01  0.00000000000E+00 0.  1.
     999901    1    3    3    0    0 -0.11269713952E+00  0.71939819112E-01  0.16170064118E-01  0.89024572664E+00  0.88000000000E+00 0. -1.
        -11    1    4    4    0    0  0.51735436820E-01 -0.42558977548E-01  0.12950985950E-01  0.68233504607E-01  0.51100000000E-03 0.  1.
         11    1    4    4    0    0  0.50229762307E-01 -0.32786398235E-01 -0.66960634778E-02  0.60357893583E-01  0.51100000000E-03 0. -1.
</event>
<event>
 8    1  0.1120016E+005  0.1043930E+01  0.7957747E-01            NaN
         13   -1    0    0    0    0  0.00000000000E+00  0.00000000000E+00  0.74505805969E-08  0.10566000000E+00  0.10566000000E+00 0. -1.
     999900   -1    0    0    0    0 -0.00000000000E+00 -0.00000000000E+00 -0.74505805969E-08  0.93827000000E+00  0.93827000000E+00 0. -1.
     999902    2    1    2    0    0  0.14121985197E-01 -0.18636309901E-01  0.20541072603E-03  0.10205465720E+01  0.10202786486E+01 0.  0.
     999903    2    3    3    0    0  0.11024831654E+00 -0.32496290117E-01  0.63416457572E-01  0.13294981270E+00  0.21054819737E-01 0.  0.
         14    1    1    2    0    0 -0.14121985197E-01  0.18636309901E-01 -0.20541072603E-03  0.23383428025E-01  0.00000000000E+00 0. -1.
     999901    1    3    3    0    0 -0.96126331348E-01  0.13859980216E-01 -0.63211046846E-01  0.88759675927E+00  0.88000000000E+00 0. -1.
        -11    1    4    4    0    0  0.15637252005E-01  0.23370089343E-02  0.59492500996E-02  0.16900886331E-01  0.51100000000E-03 0.  1.
         11    1    4    4    0    0  0.94611064540E-01 -0.34833299051E-01  0.57467207473E-01  0.11604892637E+00  0.51100000000E-03 0. -1.
</event>
<event>
 8    1  0.1120016E+005  0.1043930E+01  0.7957747E-01            NaN
         13   -1    0    0    0    0  0.00000000000E+00  0.00000000000E+00  0.74505805969E-08  0.10566000000E+00  0.10566000000E+00 0.  1.
     999900   -1    0    0    0    0 -0.00000000000E+00 -0.00000000000E+00 -0.74505805969E-08  0.93827000000E+00  0.93827000000E+00 0.  1.
     999902    2    1    2    0    0 -0.13195796591E-01 -0.20614806355E-01 -0.51755663057E-02  0.10189122908E+01  0.10186051102E+01 0.  0.
     999903    2    3    3    0    0  0.73637520314E-01 -0.82176769564E-01  0.65145462045E-01  0.12971324260E+00  0.20151630848E-01 0.  0.
         14    1    1    2    0    0  0.13195796591E-01  0.20614806355E-01  0.51755663057E-02  0.25017709234E-01  0.00000000000E+00 0. -1.
     999901    1    3    3    0    0 -0.86833316905E-01  0.61561963209E-01 -0.70321028350E-01  0.88919904817E+00  0.88000000000E+00 0.  1.
        -11    1    4    4    0    0  0.28109866973E-01 -0.46181308690E-01  0.33558746622E-01  0.63634334203E-01  0.51100000000E-03 0.  1.
         11    1    4    4    0    0  0.45527653342E-01 -0.35995460873E-01  0.31586715423E-01  0.66078908393E-01  0.51100000000E-03 0. -1.
</event>
<event>
 8    1  0.1120016E+005  0.1043930E+01  0.7957747E-01            NaN
         13   -1    0    0    0    0  0.00000000000E+00  0.00000000000E+00  0.74505805969E-08  0.10566000000E+00  0.10566000000E+00 0. -1.
     999900   -1    0    0    0    0 -0.00000000000E+00 -0.00000000000E+00 -0.74505805969E-08  0.93827000000E+00  0.93827000000E+00 0. -1.
     999902    2    1    2    0    0  0.18065037995E-01  0.12641025918E-01  0.86116997848E-02  0.10202592901E+01  0.10199846648E+01 0.  0.
     999903    2    3    3    0    0 -0.34448291295E-01 -0.11469999726E-01 -0.12197990713E+00  0.12874756325E+00  0.19457431312E-01 0.  0.
         14    1    1    2    0    0 -0.18065037995E-01 -0.12641025918E-01 -0.86116997848E-02  0.23670709901E-01  0.00000000000E+00 0.  1.
     999901    1    3    3    0    0  0.52513329291E-01  0.24111025644E-01  0.13059160691E+00  0.89151172685E+00  0.88000000000E+00 0.  1.
        -11    1    4    4    0    0 -0.40433674964E-02 -0.99306257424E-02 -0.30555279978E-01  0.32385990858E-01  0.51100000000E-03 0. -1.
         11    1    4    4    0    0 -0.30404923799E-01 -0.15393739835E-02 -0.91424627151E-01  0.96361572393E-01  0.51100000000E-03 0.  1.
</event>
<event>
 8    1  0.1120016E+005  0.1043930E+01  0.7957747E-01            NaN
         13   -1    0    0    0    0  0.00000000000E+00  0.00000000000E+00  0.74505805969E-08  0.10566000000E+00  0.10566000000E+00 0.  1.
     999900   -1    0    0    0    0 -0.00000000000E+00 -0.00000000000E+00 -0.74505805969E-08  0.93827000000E+00  0.93827000000E+00 0.  1.
     999902    2    1    2    0    0  0.18157016822E-01 -0.12732803974E-01 -0.10117369859E-01  0.10195545466E+01  0.10192631214E+01 0.  0.
     999903    2    3    3    0    0 -0.15194786300E-01  0.26851975822E-01 -0.12511343444E+00  0.13056444965E+00  0.21018893818E-01 0.  0.
         14    1    1    2    0    0 -0.18157016822E-01  0.12732803974E-01  0.10117369859E-01  0.24375453428E-01  0.00000000000E+00 0.  1.
     999901    1    3    3    0    0  0.33351803122E-01 -0.39584779796E-01  0.11499606458E+00  0.88899009693E+00  0.88000000000E+00 0. -1.
        -11    1    4    4    0    0 -0.10669564804E-01  0.12794842211E-01 -0.10037129239E+00  0.10174578644E+00  0.51100000000E-03 0. -1.
         11    1    4    4    0    0 -0.45252214952E-02  0.14057133611E-01 -0.24742142052E-01  0.28818663211E-01  0.51100000000E-03 0.  1.
</event>
<event>
 8    1  0.1120016E+005  0.1043930E+01  0.7957747E-01            NaN
         13   -1    0    0    0    0  0.00000000000E+00  0.00000000000E+00  0.74505805969E-08  0.10566000000E+00  0.10566000000E+00 0.  1.
     999900   -1    0    0    0    0 -0.00000000000E+00 -0.00000000000E+00 -0.74505805969E-08  0.93827000000E+00  0.93827000000E+00 0. -1.
     999902    2    1    2    0    0 -0.57736869379E-02  0.21851930180E-01  0.63626867313E-02  0.10204496658E+01  0.10201794912E+01 0.  0.
     999903    2    3    3    0    0  0.12653536672E+00  0.20036697207E-01 -0.14736144540E-01  0.13030690113E+00  0.18710057725E-01 0.  0.
         14    1    1    2    0    0  0.57736869379E-02 -0.21851930180E-01 -0.63626867313E-02  0.23480334237E-01  0.00000000000E+00 0.  1.
     999901    1    3    3    0    0 -0.13230905366E+00  0.18152329732E-02  0.21098831271E-01  0.89014276463E+00  0.88000000000E+00 0.  1.
        -11    1    4    4    0    0  0.71947369837E-01  0.43515788047E-02 -0.14409829942E-01  0.73506901611E-01  0.51100000000E-03 0.  1.
         11    1    4    4    0    0  0.54587996883E-01  0.15685118402E-01 -0.32631459735E-03  0.56799999517E-01  0.51100000000E-03 0. -1.
</event>
<event>
 8    1  0.1120016E+005  0.1043930E+01  0.7957747E-01            NaN
         13   -1    0    0    0    0  0.00000000000E+00  0.00000000000E+00  0.74505805969E-08  0.10566000000E+00  0.10566000000E+00 0.  1.
     999900   -1    0    0    0    0 -0.00000000000E+00 -0.00000000000E+00 -0.74505805969E-08  0.93827000000E+00  0.93827000000E+00 0.  1.
     999902    2    1    2    0    0 -0.21083189144E-01 -0.41011140989E-03 -0.10825887637E-01  0.10202262261E+01  0.10199508240E+01 0.  0.
     999903    2    3    3    0    0  0.28799723753E-01  0.10069887837E+00  0.72703939126E-01  0.12910975513E+00  0.20341531694E-01 0.  0.
         14    1    1    2    0    0  0.21083189144E-01  0.41011140989E-03  0.10825887637E-01  0.23703773939E-01  0.00000000000E+00 0.  1.
     999901    1    3    3    0    0 -0.49882912896E-01 -0.10110898978E+00 -0.83529826763E-01  0.89111647094E+00  0.88000000000E+00 0.  1.
        -11    1    4    4    0    0  0.47519359707E-02  0.35016159278E-01  0.34590098559E-01  0.49451474653E-01  0.51100000000E-03 0.  1.
         11    1    4    4    0    0  0.24047787782E-01  0.65682719089E-01  0.38113840567E-01  0.79658280473E-01  0.51100000000E-03 0. -1.
</event>
<event>
 8    1  0.1120016E+005  0.1043930E+01  0.7957747E-01            NaN
         13   -1    0    0    0    0  0.00000000000E+00  0.00000000000E+00  0.74505805969E-08  0.10566000000E+00  0.10566000000E+00 0.  1.
     999900   -1    0    0    0    0 -0.00000000000E+00 -0.00000000000E+00 -0.74505805969E-08  0.93827000000E+00  0.93827000000E+00 0.  1.
     999902    2    1    2    0    0 -0.10788079343E-01  0.65024134274E-02 -0.22835636089E-01  0.10178506919E+01  0.10175165358E+01 0.  0.
     999903    2    3    3    0    0  0.10532961542E+00  0.26468343215E-01 -0.67158044932E-01  0.12889263139E+00  0.17555806774E-01 0.  0.
         14    1    1    2    0    0  0.10788079343E-01 -0.65024134274E-02  0.22835636089E-01  0.26079308117E-01  0.00000000000E+00 0.  1.
     999901    1    3    3    0    0 -0.11611769476E+00 -0.19965929787E-01  0.44322408843E-01  0.88895806049E+00  0.88000000000E+00 0. -1.
        -11    1    4    4    0    0  0.52608966225E-01  0.15551462399E-01 -0.43805385224E-01  0.70204873090E-01  0.51100000000E-03 0. -1.
         11    1    4    4    0    0  0.52720649191E-01  0.10916880816E-01 -0.23352659708E-01  0.58687758300E-01  0.51100000000E-03 0.  1.
</event>
<event>
 8    1  0.1120016E+005  0.1043930E+01  0.7957747E-01            NaN
         13   -1    0    0    0    0  0.00000000000E+00  0.00000000000E+00  0.74505805969E-08  0.10566000000E+00  0.10566000000E+00 0. -1.
     999900   -1    0    0    0    0 -0.00000000000E+00 -0.00000000000E+00 -0.74505805969E-08  0.93827000000E+00  0.93827000000E+00 0.  1.
     999902    2    1    2    0    0 -0.20600011963E-01 -0.84670380029E-02  0.24473077795E-02  0.10215237388E+01  0.10212779780E+01 0.  0.
     999903    2    3    3    0    0  0.11296020021E+00  0.54163371653E-01 -0.22351667658E-01  0.12890070097E+00  0.20545461851E-01 0.  0.
         14    1    1    2    0    0  0.20600011963E-01  0.84670380029E-02 -0.24473077795E-02  0.22406261196E-01  0.00000000000E+00 0. -1.
     999901    1    3    3    0    0 -0.13356021217E+00 -0.62630409656E-01  0.24798975437E-01  0.89262303783E+00  0.88000000000E+00 0. -1.
        -11    1    4    4    0    0  0.21074689184E-01  0.14385158320E-01  0.27661646956E-02  0.25670763374E-01  0.51100000000E-03 0.  1.
         11    1    4    4    0    0  0.91885511028E-01  0.39778213333E-01 -0.25117832353E-01  0.10322993760E+00  0.51100000000E-03 0. -1.
</event>
<event>
 8    1  0.1120016E+005  0.1043930E+01  0.7957747E-01            NaN
         13   -1    0    0    0    0  0.00000000000E+00  0.00000000000E+00  0.74505805969E-08  0.10566000000E+00  0.10566000000E+00 0. -1.
     999900   -1    0    0    0    0 -0.00000000000E+00 -0.00000000000E+00 -0.74505805969E-08  0.93827000000E+00  0.93827000000E+00 0. -1.
     999902    2    1    2    0    0  0.20261053204E-01  0.10518323650E-01 -0.52448002946E-02  0.10205066497E+01  0.10202378001E+01 0.  0.
     999903    2    3    3    0    0 -0.64246626687E-01 -0.57802865485E-01 -0.94439349413E-01  0.12934729221E+00  0.18523795103E-01 0.  0.
         14    1    1    2    0    0 -0.20261053204E-01 -0.10518323650E-01  0.52448002946E-02  0.23423350304E-01  0.00000000000E+00 0. -1.
     999901    1    3    3    0    0  0.84507679891E-01  0.68321189136E-01  0.89194549118E-01  0.89115935749E+00  0.88000000000E+00 0.  1.
        -11    1    4    4    0    0 -0.51785341385E-01 -0.36849926905E-01 -0.73829931433E-01  0.97420524489E-01  0.51100000000E-03 0. -1.
         11    1    4    4    0    0 -0.12461285302E-01 -0.20952938580E-01 -0.20609417980E-01  0.31926767719E-01  0.51100000000E-03 0.  1.
</event>
<event>
 8    1  0.1120016E+005  0.1043930E+01  0.7957747E-01            NaN
         13   -1    0    0    0    0  0.00000000000E+00  0.00000000000E+00  0.74505805969E-08  0.10566000000E+00  0.10566000000E+00 0. -1.
     999900   -1    0    0    0    0 -0.00000000000E+00 -0.00000000000E+00 -0.74505805969E-08  0.93827000000E+00  0.93827000000E+00 0. -1.
     999902    2    1    2    0    0 -0.22786214112E-01 -0.39497296531E-02  0.33145469172E-02  0.10205676769E+01  0.10203002426E+01 0.  0.
     999903    2    3    3    0    0 -0.86317561565E-01 -0.53766491333E-01 -0.82905452052E-01  0.13267588731E+00  0.19698225018E-01 0.  0.
         14    1    1    2    0    0  0.22786214112E-01  0.39497296531E-02 -0.33145469172E-02  0.23362323068E-01  0.00000000000E+00 0.  1.
     999901    1    3    3    0    0  0.63531347453E-01  0.49816761680E-01  0.86219998970E-01  0.88789178962E+00  0.88000000000E+00 0.  1.
        -11    1    4    4    0    0 -0.32130936879E-01 -0.12478362429E-01 -0.36744326966E-01  0.50383661228E-01  0.51100000000E-03 0.  1.
         11    1    4    4    0    0 -0.54186624686E-01 -0.41288128905E-01 -0.46161125087E-01  0.82292226083E-01  0.51100000000E-03 0. -1.
</event>
<event>
 8    1  0.1120016E+005  0.1043930E+01  0.7957747E-01            NaN
         13   -1    0    0    0    0  0.00000000000E+00  0.00000000000E+00  0.74505805969E-08  0.10566000000E+00  0.10566000000E+00 0.  1.
     999900   -1    0    0    0    0 -0.00000000000E+00 -0.00000000000E+00 -0.74505805969E-08  0.93827000000E+00  0.93827000000E+00 0. -1.
     999902    2    1    2    0    0 -0.16254322163E-01 -0.17233025271E-01  0.15433887532E-02  0.10201905350E+01  0.10199142932E+01 0.  0.
     999903    2    3    3    0    0 -0.66473236262E-01  0.37920656281E-01  0.10450156765E+00  0.13105373197E+00  0.19945819379E-01 0.  0.
         14    1    1    2    0    0  0.16254322163E-01  0.17233025271E-01 -0.15433887532E-02  0.23739464986E-01  0.00000000000E+00 0. -1.
     999901    1    3    3    0    0  0.50218914099E-01 -0.55153681552E-01 -0.10295817890E+00  0.88913680304E+00  0.88000000000E+00 0. -1.
        -11    1    4    4    0    0 -0.29037059006E-01  0.85915238609E-02  0.29738138788E-01  0.42445059754E-01  0.51100000000E-03 0.  1.
         11    1    4    4    0    0 -0.37436177255E-01  0.29329132420E-01  0.74763428862E-01  0.88608672218E-01  0.51100000000E-03 0. -1.
</event>
<event>
 8    1  0.1120016E+005  0.1043930E+01  0.7957747E-01            NaN
         13   -1    0    0    0    0  0.00000000000E+00  0.00000000000E+00  0.74505805969E-08  0.10566000000E+00  0.10566000000E+00 0. -1.
     999900   -1    0    0    0    0 -0.00000000000E+00 -0.00000000000E+00 -0.74505805969E-08  0.93827000000E+00  0.93827000000E+00 0. -1.
     999902    2    1    2    0    0 -0.16020733851E-01  0.11339870760E-02 -0.17862679397E-01  0.10199086521E+01  0.10196257321E+01 0.  0.
     999903    2    3    3    0    0  0.71913868404E-01 -0.10339256071E+00  0.18502438305E-01  0.12862827239E+00  0.18473390481E-01 0.  0.
         14    1    1    2    0    0  0.16020733851E-01 -0.11339870760E-02  0.17862679397E-01  0.24021347903E-01  0.00000000000E+00 0. -1.
     999901    1    3    3    0    0 -0.87934602255E-01  0.10452654779E+00 -0.36365117702E-01  0.89128037971E+00  0.88000000000E+00 0.  1.
        -11    1    4    4    0    0  0.29614272876E-02 -0.60488937587E-02  0.53448403229E-02  0.86132227628E-02  0.51100000000E-03 0.  1.
         11    1    4    4    0    0  0.68952441116E-01 -0.97343666951E-01  0.13157597982E-01  0.12001504963E+00  0.51100000000E-03 0. -1.
</event>
<event>
 8    1  0.1120016E+005  0.1043930E+01  0.7957747E-01            NaN
         13   -1    0    0    0    0  0.00000000000E+00  0.00000000000E+00  0.74505805969E-08  0.10566000000E+00  0.10566000000E+00 0.  1.
     999900   -1    0    0    0    0 -0.00000000000E+00 -0.00000000000E+00 -0.74505805969E-08  0.93827000000E+00  0.93827000000E+00 0. -1.
     999902    2    1    2    0    0  0.21494344590E-01 -0.65154904712E-03  0.88290192591E-02  0.10206838617E+01  0.10204191112E+01 0.  0.
     999903    2    3    3    0    0 -0.45801961327E-02  0.11454385371E+00 -0.58294372720E-01  0.13025957392E+00  0.20689371346E-01 0.  0.
         14    1    1    2    0    0 -0.21494344590E-01  0.65154904712E-03 -0.88290192591E-02  0.23246138316E-01  0.00000000000E+00 0.  1.
     999901    1    3    3    0    0  0.26074540723E-01 -0.11519540276E+00  0.67123391979E-01  0.89042428776E+00  0.88000000000E+00 0.  1.
        -11    1    4    4    0    0 -0.49312752935E-02  0.10012266056E+00 -0.58014572821E-01  0.11582234851E+00  0.51100000000E-03 0. -1.
         11    1    4    4    0    0  0.35107916079E-03  0.14421193154E-01 -0.27979989877E-03  0.14437225410E-01  0.51100000000E-03 0.  1.
</event>
<event>
 8    1  0.1120016E+005  0.1043930E+01  0.7957747E-01            NaN
         13   -1    0    0    0    0  0.00000000000E+00  0.00000000000E+00  0.74505805969E-08  0.10566000000E+00  0.10566000000E+00 0.  1.
     999900   -1    0    0    0    0 -0.00000000000E+00 -0.00000000000E+00 -0.74505805969E-08  0.93827000000E+00  0.93827000000E+00 0. -1.
     999902    2    1    2    0    0  0.15901430696E-01  0.17182792122E-01  0.26353708594E-02  0.10203705216E+01  0.10200985013E+01 0.  0.
     999903    2    3    3    0    0 -0.83811364039E-02 -0.11533831133E+00 -0.51998917922E-01  0.12844205393E+00  0.20501322985E-01 0.  0.
         14    1    1    2    0    0 -0.15901430696E-01 -0.17182792122E-01 -0.26353708594E-02  0.23559478408E-01  0.00000000000E+00 0.  1.
     999901    1    3    3    0    0  0.24282567099E-01  0.13252110345E+00  0.54634288782E-01  0.89192846767E+00  0.88000000000E+00 0. -1.
        -11    1    4    4    0    0  0.82091857305E-03 -0.30258519689E-01 -0.46198424183E-02  0.30624434461E-01  0.51100000000E-03 0.  1.
         11    1    4    4    0    0 -0.92020549769E-02 -0.85079791638E-01 -0.47379075504E-01  0.97817619464E-01  0.51100000000E-03 0. -1.
</event>
<event>
 8    1  0.1120016E+005  0.1043930E+01  0.7957747E-01            NaN
         13   -1    0    0    0    0  0.00000000000E+00  0.00000000000E+00  0.74505805969E-08  0.10566000000E+00  0.10566000000E+00 0. -1.
     999900   -1    0    0    0    0 -0.00000000000E+00 -0.00000000000E+00 -0.74505805969E-08  0.93827000000E+00  0.93827000000E+00 0. -1.
     999902    2    1    2    0    0 -0.17255743417E-01  0.12896983740E-01  0.12449228677E-01  0.10190487588E+01  0.10187449615E+01 0.  0.
     999903    2    3    3    0    0 -0.42461879011E-01 -0.68902519887E-01 -0.97216752659E-01  0.12812051501E+00  0.20327344967E-01 0.  0.
         14    1    1    2    0    0  0.17255743417E-01 -0.12896983740E-01 -0.12449228677E-01  0.24881241229E-01  0.00000000000E+00 0.  1.
     999901    1    3    3    0    0  0.25206135594E-01  0.81799503627E-01  0.10966598134E+00  0.89092824376E+00  0.88000000000E+00 0.  1.
        -11    1    4    4    0    0  0.11745854612E-02 -0.85541022255E-02 -0.69390476566E-02  0.11088905233E-01  0.51100000000E-03 0.  1.
         11    1    4    4    0    0 -0.43636464472E-01 -0.60348417661E-01 -0.90277705003E-01  0.11703160978E+00  0.51100000000E-03 0. -1.
</event>
<event>
 8    1  0.1120016E+005  0.1043930E+01  0.7957747E-01            NaN
         13   -1    0    0    0    0  0.00000000000E+00  0.00000000000E+00  0.74505805969E-08  0.10566000000E+00  0.10566000000E+00 0.  1.
     999900   -1    0    0    0    0 -0.00000000000E+00 -0.00000000000E+00 -0.74505805969E-08  0.93827000000E+00  0.93827000000E+00 0.  1.
     999902    2    1    2    0    0  0.80276963288E-02  0.17238580345E-01 -0.10521453713E-01  0.10221972241E+01  0.10219661694E+01 0.  0.
     999903    2    3    3    0    0 -0.85969321498E-01  0.24779523758E-01 -0.96409322571E-01  0.13300150255E+00  0.19745712563E-01 0.  0.
         14    1    1    2    0    0 -0.80276963288E-02 -0.17238580345E-01  0.10521453713E-01  0.21732775913E-01  0.00000000000E+00 0.  1.
     999901    1    3    3    0    0  0.93997017827E-01 -0.75409434135E-02  0.85887868858E-01  0.88919572154E+00  0.88000000000E+00 0. -1.
        -11    1    4    4    0    0 -0.64378687857E-03 -0.19693537817E-02 -0.15426468783E-02  0.26331912680E-02  0.51100000000E-03 0. -1.
         11    1    4    4    0    0 -0.85325534620E-01  0.26748877540E-01 -0.94866675693E-01  0.13036831128E+00  0.51100000000E-03 0.  1.
</event>
<event>
 8    1  0.1120016E+005  0.1043930E+01  0.7957747E-01            NaN
         13   -1    0    0    0    0  0.00000000000E+00  0.00000000000E+00  0.74505805969E-08  0.10566000000E+00  0.10566000000E+00 0.  1.
     999900   -1    0    0    0    0 -0.00000000000E+00 -0.00000000000E+00 -0.74505805969E-08  0.93827000000E+00  0.93827000000E+00 0.  1.
     999902    2    1    2    0    0  0.17298177003E-01 -0.10893240757E-01  0.12179712193E-01  0.10201343069E+01  0.10198567395E+01 0.  0.
     999903    2    3    3    0    0 -0.85280312304E-01 -0.95633221732E-01 -0.23938893393E-02  0.13001319113E+00  0.21891879697E-01 0.  0.
         14    1    1    2    0    0 -0.17298177003E-01  0.10893240757E-01 -0.12179712193E-01  0.23795693117E-01  0.00000000000E+00 0. -1.
     999901    1    3    3    0    0  0.10257848931E+00  0.84739980974E-01  0.14573601532E-01  0.89012111575E+00  0.88000000000E+00 0. -1.
        -11    1    4    4    0    0 -0.37831790366E-01 -0.54583143812E-01  0.61172480074E-02  0.66695170701E-01  0.51100000000E-03 0. -1.
         11    1    4    4    0    0 -0.47448521938E-01 -0.41050077920E-01 -0.85111373466E-02  0.63318020431E-01  0.51100000000E-03 0.  1.
</event>
<event>
 8    1  0.1120016E+005  0.1043930E+01  0.7957747E-01            NaN
         13   -1    0    0    0    0  0.00000000000E+00  0.00000000000E+00  0.74505805969E-08  0.10566000000E+00  0.10566000000E+00 0. -1.
     999900   -1    0    0    0    0 -0.00000000000E+00 -0.00000000000E+00 -0.74505805969E-08  0.93827000000E+00  0.93827000000E+00 0. -1.
     999902    2    1    2    0    0  0.79585056007E-02  0.56167852697E-02 -0.20646193302E-01  0.10211012596E+01  0.10208460369E+01 0.  0.
     999903    2    3    3    0    0 -0.21833874056E-01 -0.12350789426E+00  0.27337323754E-01  0.12988681483E+00  0.19807508586E-01 0.  0.
         14    1    1    2    0    0 -0.79585056007E-02 -0.56167852697E-02  0.20646193302E-01  0.22828740351E-01  0.00000000000E+00 0. -1.
     999901    1    3    3    0    0  0.29792379657E-01  0.12912467953E+00 -0.47983517056E-01  0.89121444482E+00  0.88000000000E+00 0. -1.
        -11    1    4    4    0    0 -0.74775043873E-02 -0.77813473441E-01  0.93899397571E-02  0.78735518100E-01  0.51100000000E-03 0.  1.
         11    1    4    4    0    0 -0.14356369669E-01 -0.45694420815E-01  0.17947383997E-01  0.51151296729E-01  0.51100000000E-03 0. -1.
</event>
<event>
 8    1  0.1120016E+005  0.1043930E+01  0.7957747E-01            NaN
         13   -1    0    0    0    0  0.00000000000E+00  0.00000000000E+00  0.74505805969E-08  0.10566000000E+00  0.10566000000E+00 0.  1.
     999900   -1    0    0    0    0 -0.00000000000E+00 -0.00000000000E+00 -0.74505805969E-08  0.93827000000E+00  0.93827000000E+00 0.  1.
     999902    2    1    2    0    0 -0.48258470516E-02 -0.87763247373E-02  0.11939585435E-01  0.10283458293E+01  0.10282277366E+01 0.  0.
     999903    2    3    3    0    0 -0.59425848685E-01  0.38850071842E-01 -0.11477295590E+00  0.13632256618E+00  0.19241909240E-01 0.  0.
         14    1    1    2    0    0  0.48258470516E-02  0.87763247373E-02 -0.11939585435E-01  0.15584170688E-01  0.00000000000E+00 0. -1.
     999901    1    3    3    0    0  0.54600001633E-01 -0.47626396579E-01  0.12671254133E+00  0.89202326313E+00  0.88000000000E+00 0. -1.
        -11    1    4    4    0    0 -0.26839987202E-01  0.11055545210E-01 -0.32579993568E-01  0.43638596389E-01  0.51100000000E-03 0.  1.
         11    1    4    4    0    0 -0.32585861483E-01  0.27794526632E-01 -0.82192962331E-01  0.92683969796E-01  0.51100000000E-03 0. -1.
</event>
<event>
 8    1  0.1120016E+005  0.1043930E+01  0.7957747E-01            NaN
         13   -1    0    0    0    0  0.00000000000E+00  0.00000000000E+00  0.74505805969E-08  0.10566000000E+00  0.10566000000E+00 0.  1.
     999900   -1    0    0    0    0 -0.00000000000E+00 -0.00000000000E+00 -0.74505805969E-08  0.93827000000E+00  0.93827000000E+00 0. -1.
     999902    2    1    2    0    0  0.28902208557E-02  0.20108193865E-01 -0.12991070244E-01  0.10198165029E+01  0.10195313820E+01 0.  0.
     999903    2    3    3    0    0 -0.82408703245E-01 -0.94175475538E-01  0.13506736173E-01  0.12794274652E+00  0.22949943394E-01 0.  0.
         14    1    1    2    0    0 -0.28902208557E-02 -0.20108193865E-01  0.12991070244E-01  0.24113497117E-01  0.00000000000E+00 0. -1.
     999901    1    3    3    0    0  0.85298924100E-01  0.11428366940E+00 -0.26497806417E-01  0.89187375636E+00  0.88000000000E+00 0.  1.
        -11    1    4    4    0    0 -0.28647225459E-01 -0.17480585956E-01  0.38794600474E-02  0.33786768759E-01  0.51100000000E-03 0.  1.
         11    1    4    4    0    0 -0.53761477785E-01 -0.76694889581E-01  0.96272761260E-02  0.94155977761E-01  0.51100000000E-03 0. -1.
</event>
<event>
 8    1  0.1269273E+005  0.1043930E+01  0.7957747E-01            NaN
         13   -1    0    0    0    0  0.00000000000E+00  0.00000000000E+00  0.74505805969E-08  0.10566000000E+00  0.10566000000E+00 0. -1.
     999900   -1    0    0    0    0 -0.00000000000E+00 -0.00000000000E+00 -0.74505805969E-08  0.93827000000E+00  0.93827000000E+00 0. -1.
     999902    2    1    2    0    0 -0.22553306911E-01  0.24578564468E-02 -0.90749322929E-02  0.10194954526E+01  0.10192025955E+01 0.  0.
     999903    2    3    3    0    0 -0.55162830770E-01  0.16036848972E-01 -0.11737579877E+00  0.13215287626E+00  0.19677046130E-01 0.  0.
         14    1    1    2    0    0  0.22553306911E-01 -0.24578564468E-02  0.90749322929E-02  0.24434547408E-01  0.00000000000E+00 0.  1.
     999901    1    3    3    0    0  0.32609523859E-01 -0.13578992525E-01  0.10830086648E+00  0.88734257633E+00  0.88000000000E+00 0.  1.
        -11    1    4    4    0    0 -0.36389300937E-01  0.83000591163E-03 -0.75116013558E-01  0.83471832053E-01  0.51100000000E-03 0. -1.
         11    1    4    4    0    0 -0.18773529832E-01  0.15206843061E-01 -0.42259785213E-01  0.48681044211E-01  0.51100000000E-03 0.  1.
</event>
<event>
 8    1  0.1120016E+005  0.1043930E+01  0.7957747E-01            NaN
         13   -1    0    0    0    0  0.00000000000E+00  0.00000000000E+00  0.74505805969E-08  0.10566000000E+00  0.10566000000E+00 0. -1.
     999900   -1    0    0    0    0 -0.00000000000E+00 -0.00000000000E+00 -0.74505805969E-08  0.93827000000E+00  0.93827000000E+00 0.  1.
     999902    2    1    2    0    0 -0.22830202768E-01  0.81583375212E-02 -0.22579208236E-02  0.10195809787E+01  0.10192901929E+01 0.  0.
     999903    2    3    3    0    0 -0.84961264925E-01  0.59604051903E-01 -0.80491025550E-01  0.13243535987E+00  0.17007639740E-01 0.  0.
         14    1    1    2    0    0  0.22830202768E-01 -0.81583375212E-02  0.22579208236E-02  0.24349021253E-01  0.00000000000E+00 0. -1.
     999901    1    3    3    0    0  0.62131062158E-01 -0.51445714382E-01  0.78233104727E-01  0.88714561887E+00  0.88000000000E+00 0. -1.
        -11    1    4    4    0    0 -0.67447252804E-01  0.48377577990E-01 -0.55199625023E-01  0.99683407278E-01  0.51100000000E-03 0.  1.
         11    1    4    4    0    0 -0.17514012121E-01  0.11226473914E-01 -0.25291400527E-01  0.32751952595E-01  0.51100000000E-03 0. -1.
</event>
<event>
 8    1  0.1120016E+005  0.1043930E+01  0.7957747E-01            NaN
         13   -1    0    0    0    0  0.00000000000E+00  0.00000000000E+00  0.74505805969E-08  0.10566000000E+00  0.10566000000E+00 0.  1.
     999900   -1    0    0    0    0 -0.00000000000E+00 -0.00000000000E+00 -0.74505805969E-08  0.93827000000E+00  0.93827000000E+00 0. -1.
     999902    2    1    2    0    0  0.32676074757E-03  0.21065761835E-01  0.12104690197E-01  0.10196319215E+01  0.10193423658E+01 0.  0.
     999903    2    3    3    0    0  0.58907689029E-01  0.10143031856E+00 -0.56230447801E-01  0.13139778670E+00  0.18581973496E-01 0.  0.
         14    1    1    2    0    0 -0.32676074757E-03 -0.21065761835E-01 -0.12104690197E-01  0.24298078505E-01  0.00000000000E+00 0. -1.
     999901    1    3    3    0    0 -0.58580928282E-01 -0.80364556724E-01  0.68335137998E-01  0.88823413480E+00  0.88000000000E+00 0.  1.
        -11    1    4    4    0    0  0.20819425119E-01  0.52671963513E-01 -0.22665519789E-01  0.61006320254E-01  0.51100000000E-03 0.  1.
         11    1    4    4    0    0  0.38088263910E-01  0.48758355046E-01 -0.33564928011E-01  0.70391466442E-01  0.51100000000E-03 0. -1.
</event>
<event>
 8    1  0.1120016E+005  0.1043930E+01  0.7957747E-01            NaN
         13   -1    0    0    0    0  0.00000000000E+00  0.00000000000E+00  0.74505805969E-08  0.10566000000E+00  0.10566000000E+00 0.  1.
     999900   -1    0    0    0    0 -0.00000000000E+00 -0.00000000000E+00 -0.74505805969E-08  0.93827000000E+00  0.93827000000E+00 0.  1.
     999902    2    1    2    0    0 -0.22771605756E-01  0.68033950271E-02 -0.44734003316E-02  0.10197464617E+01  0.10194596621E+01 0.  0.
     999903    2    3    3    0    0  0.25834276270E-01 -0.86462495296E-01 -0.90389731521E-01  0.12932932688E+00  0.20312515965E-01 0.  0.
         14    1    1    2    0    0  0.22771605756E-01 -0.68033950271E-02  0.44734003316E-02  0.24183538268E-01  0.00000000000E+00 0.  1.
     999901    1    3    3    0    0 -0.48605882026E-01  0.93265890323E-01  0.85916331189E-01  0.89041713485E+00  0.88000000000E+00 0. -1.
        -11    1    4    4    0    0  0.75120123774E-02 -0.15197144943E-01 -0.28562260825E-01  0.33218178891E-01  0.51100000000E-03 0. -1.
         11    1    4    4    0    0  0.18322263892E-01 -0.71265350353E-01 -0.61827470696E-01  0.96111147994E-01  0.51100000000E-03 0.  1.
</event>
<event>
 8    1  0.1120016E+005  0.1043930E+01  0.7957747E-01            NaN
         13   -1    0    0    0    0  0.00000000000E+00  0.00000000000E+00  0.74505805969E-08  0.10566000000E+00  0.10566000000E+00 0.  1.
     999900   -1    0    0    0    0 -0.00000000000E+00 -0.00000000000E+00 -0.74505805969E-08  0.93827000000E+00  0.93827000000E+00 0. -1.
     999902    2    1    2    0    0 -0.15479826982E-01  0.13755315043E-01 -0.12403156940E-01  0.10197913994E+01  0.10195056774E+01 0.  0.
     999903    2    3    3    0    0 -0.12020120888E+00 -0.43179037384E-01  0.12433617997E-01  0.13140806230E+00  0.28297068666E-01 0.  0.
         14    1    1    2    0    0  0.15479826982E-01 -0.13755315043E-01  0.12403156940E-01  0.24138600569E-01  0.00000000000E+00 0.  1.
     999901    1    3    3    0    0  0.10472138189E+00  0.56934352428E-01 -0.24836774936E-01  0.88838333714E+00  0.88000000000E+00 0.  1.
        -11    1    4    4    0    0 -0.11332638707E+00 -0.43531459266E-01  0.53516812156E-02  0.12151855646E+00  0.51100000000E-03 0. -1.
         11    1    4    4    0    0 -0.68748218097E-02  0.35242188200E-03  0.70819367809E-02  0.98895058354E-02  0.51100000000E-03 0.  1.
</event>
<event>
 8    1  0.1120016E+005  0.1043930E+01  0.7957747E-01            NaN
         13   -1    0    0    0    0  0.00000000000E+00  0.00000000000E+00  0.74505805969E-08  0.10566000000E+00  0.10566000000E+00 0. -1.
     999900   -1    0    0    0    0 -0.00000000000E+00 -0.00000000000E+00 -0.74505805969E-08  0.93827000000E+00  0.93827000000E+00 0. -1.
     999902    2    1    2    0    0 -0.23359914751E-01 -0.62028544710E-02  0.23335895338E-02  0.10196481825E+01  0.10193590189E+01 0.  0.
     999903    2    3    3    0    0 -0.14005789352E-01 -0.10073001438E+00  0.80172605886E-01  0.13112030107E+00  0.20547230620E-01 0.  0.
         14    1    1    2    0    0  0.23359914751E-01  0.62028544710E-02 -0.23335895338E-02  0.24281817495E-01  0.00000000000E+00 0. -1.
     999901    1    3    3    0    0 -0.93541253988E-02  0.94527159906E-01 -0.77839016352E-01  0.88852788144E+00  0.88000000000E+00 0.  1.
        -11    1    4    4    0    0 -0.87292720144E-02 -0.13846253512E-01  0.16709546446E-01  0.23396345648E-01  0.51100000000E-03 0. -1.
         11    1    4    4    0    0 -0.52765173380E-02 -0.86883760864E-01  0.63463059439E-01  0.10772395542E+00  0.51100000000E-03 0.  1.
</event>
<event>
 8    1  0.1120016E+005  0.1043930E+01  0.7957747E-01            NaN
         13   -1    0    0    0    0  0.00000000000E+00  0.00000000000E+00  0.74505805969E-08  0.10566000000E+00  0.10566000000E+00 0. -1.
     999900   -1    0    0    0    0 -0.00000000000E+00 -0.00000000000E+00 -0.74505805969E-08  0.93827000000E+00  0.93827000000E+00 0.  1.
     999902    2    1    2    0    0  0.20837578151E-01  0.28837878248E-03 -0.13273684714E-01  0.10192221362E+01  0.10189226097E+01 0.  0.
     999903    2    3    3    0    0 -0.73453225065E-01  0.16312023399E-01  0.10000051670E+00  0.12682168944E+00  0.20546999589E-01 0.  0.
         14    1    1    2    0    0 -0.20837578151E-01 -0.28837878248E-03  0.13273684714E-01  0.24707863756E-01  0.00000000000E+00 0. -1.
     999901    1    3    3    0    0  0.94290803216E-01 -0.16023644616E-01 -0.11327420141E+00  0.89240044681E+00  0.88000000000E+00 0.  1.
        -11    1    4    4    0    0 -0.10074790205E-01  0.94879076669E-02  0.13234445805E-01  0.19155507468E-01  0.51100000000E-03 0.  1.
         11    1    4    4    0    0 -0.63378434860E-01  0.68241157318E-02  0.86766070891E-01  0.10766618197E+00  0.51100000000E-03 0. -1.
</event>
<event>
 8    1  0.1120016E+005  0.1043930E+01  0.7957747E-01            NaN
         13   -1    0    0    0    0  0.00000000000E+00  0.00000000000E+00  0.74505805969E-08  0.10566000000E+00  0.10566000000E+00 0.  1.
     999900   -1    0    0    0    0 -0.00000000000E+00 -0.00000000000E+00 -0.74505805969E-08  0.93827000000E+00  0.93827000000E+00 0. -1.
     999902    2    1    2    0    0  0.51404292221E-02  0.20712517080E-01  0.10953051126E-01  0.10199424677E+01  0.10196603531E+01 0.  0.
     999903    2    3    3    0    0 -0.48947930841E-01  0.11516228545E+00 -0.35909129501E-01  0.13199969173E+00  0.21822032740E-01 0.  0.
         14    1    1    2    0    0 -0.51404292221E-02 -0.20712517080E-01 -0.10953051126E-01  0.23987532289E-01  0.00000000000E+00 0. -1.
     999901    1    3    3    0    0  0.54088360063E-01 -0.94449768367E-01  0.46862180627E-01  0.88794277598E+00  0.88000000000E+00 0.  1.
        -11    1    4    4    0    0 -0.50463557061E-01  0.10793071221E+00 -0.30997092856E-01  0.12311250999E+00  0.51100000000E-03 0.  1.
         11    1    4    4    0    0  0.15156262203E-02  0.72315732353E-02 -0.49120366451E-02  0.88871817412E-02  0.51100000000E-03 0. -1.
</event>
<event>
 8    1  0.1120016E+005  0.1043930E+01  0.7957747E-01            NaN
         13   -1    0    0    0    0  0.00000000000E+00  0.00000000000E+00  0.74505805969E-08  0.10566000000E+00  0.10566000000E+00 0. -1.
     999900   -1    0    0    0    0 -0.00000000000E+00 -0.00000000000E+00 -0.74505805969E-08  0.93827000000E+00  0.93827000000E+00 0.  1.
     999902    2    1    2    0    0 -0.74731119549E-02  0.18550506894E-01 -0.12993081913E-01  0.10200807047E+01  0.10198018706E+01 0.  0.
     999903    2    3    3    0    0 -0.56110080749E-01  0.56222931335E-01  0.10149292136E+00  0.13053485921E+00  0.20716592723E-01 0.  0.
         14    1    1    2    0    0  0.74731119549E-02 -0.18550506894E-01  0.12993081913E-01  0.23849295292E-01  0.00000000000E+00 0. -1.
     999901    1    3    3    0    0  0.48636968794E-01 -0.37672424441E-01 -0.11448600327E+00  0.88954584550E+00  0.88000000000E+00 0.  1.
        -11    1    4    4    0    0 -0.32279304037E-01  0.45658434362E-01  0.66215450902E-01  0.86668293837E-01  0.51100000000E-03 0. -1.
         11    1    4    4    0    0 -0.23830776712E-01  0.10564496974E-01  0.35277470455E-01  0.43866565374E-01  0.51100000000E-03 0.  1.
</event>
<event>
 8    1  0.1120016E+005  0.1043930E+01  0.7957747E-01            NaN
         13   -1    0    0    0    0  0.00000000000E+00  0.00000000000E+00  0.74505805969E-08  0.10566000000E+00  0.10566000000E+00 0.  1.
     999900   -1    0    0    0    0 -0.00000000000E+00 -0.00000000000E+00 -0.74505805969E-08  0.93827000000E+00  0.93827000000E+00 0.  1.
     999902    2    1    2    0    0  0.11495796753E-01  0.18708754247E-01  0.63455909766E-02  0.10210731115E+01  0.10208172518E+01 0.  0.
     999903    2    3    3    0    0  0.44107611241E-01  0.73070149129E-01 -0.99395924951E-01  0.13247873838E+00  0.19655486828E-01 0.  0.
         14    1    1    2    0    0 -0.11495796753E-01 -0.18708754247E-01 -0.63455909766E-02  0.22856888531E-01  0.00000000000E+00 0. -1.
     999901    1    3    3    0    0 -0.32611814488E-01 -0.54361394881E-01  0.10574151593E+00  0.88859437309E+00  0.88000000000E+00 0. -1.
        -11    1    4    4    0    0  0.36062973224E-01  0.43268690912E-01 -0.70000713507E-01  0.89850312539E-01  0.51100000000E-03 0.  1.
         11    1    4    4    0    0  0.80446380172E-02  0.29801458217E-01 -0.29395211444E-01  0.42628425839E-01  0.51100000000E-03 0. -1.
</event>
<event>
 8    1  0.1120016E+005  0.1043930E+01  0.7957747E-01            NaN
         13   -1    0    0    0    0  0.00000000000E+00  0.00000000000E+00  0.74505805969E-08  0.10566000000E+00  0.10566000000E+00 0. -1.
     999900   -1    0    0    0    0 -0.00000000000E+00 -0.00000000000E+00 -0.74505805969E-08  0.93827000000E+00  0.93827000000E+00 0. -1.
     999902    2    1    2    0    0 -0.21334628928E-01  0.72347699704E-02 -0.24420218901E-02  0.10212700848E+01  0.10210186650E+01 0.  0.
     999903    2    3    3    0    0  0.74981539722E-01  0.63889999645E-01 -0.83293515242E-01  0.13052680896E+00  0.19881519626E-01 0.  0.
         14    1    1    2    0    0  0.21334628928E-01 -0.72347699704E-02  0.24420218901E-02  0.22659915246E-01  0.00000000000E+00 0.  1.
     999901    1    3    3    0    0 -0.96316168650E-01 -0.56655229675E-01  0.80851493352E-01  0.89074327579E+00  0.88000000000E+00 0.  1.
        -11    1    4    4    0    0  0.41998778913E-01  0.26090819716E-01 -0.32725323500E-01  0.59294487288E-01  0.51100000000E-03 0.  1.
         11    1    4    4    0    0  0.32982760809E-01  0.37799179929E-01 -0.50568191742E-01  0.71232321673E-01  0.51100000000E-03 0. -1.
</event>
<event>
 8    1  0.1120016E+005  0.1043930E+01  0.7957747E-01            NaN
         13   -1    0    0    0    0  0.00000000000E+00  0.00000000000E+00  0.74505805969E-08  0.10566000000E+00  0.10566000000E+00 0.  1.
     999900   -1    0    0    0    0 -0.00000000000E+00 -0.00000000000E+00 -0.74505805969E-08  0.93827000000E+00  0.93827000000E+00 0.  1.
     999902    2    1    2    0    0  0.67704916261E-02  0.95844817160E-02 -0.20937897573E-01  0.10199279709E+01  0.10196455111E+01 0.  0.
     999903    2    3    3    0    0 -0.11401471809E+00  0.53515874474E-01 -0.27808268630E-01  0.13056514496E+00  0.20264562936E-01 0.  0.
         14    1    1    2    0    0 -0.67704916261E-02 -0.95844817160E-02  0.20937897573E-01  0.24002029110E-01  0.00000000000E+00 0.  1.
     999901    1    3    3    0    0  0.12078520972E+00 -0.43931392758E-01  0.68703710573E-02  0.88936282593E+00  0.88000000000E+00 0.  1.
        -11    1    4    4    0    0 -0.96776732864E-01  0.52371548562E-01 -0.21212114022E-01  0.11206573975E+00  0.51100000000E-03 0.  1.
         11    1    4    4    0    0 -0.17237985226E-01  0.11443259117E-02 -0.65961546082E-02  0.18499405208E-01  0.51100000000E-03 0. -1.
</event>
<event>
 8    1  0.1120016E+005  0.1043930E+01  0.7957747E-01            NaN
         13   -1    0    0    0    0  0.00000000000E+00  0.00000000000E+00  0.74505805969E-08  0.10566000000E+00  0.10566000000E+00 0. -1.
     999900   -1    0    0    0    0 -0.00000000000E+00 -0.00000000000E+00 -0.74505805969E-08  0.93827000000E+00  0.93827000000E+00 0. -1.
     999902    2    1    2    0    0 -0.22218468760E-01  0.14160917097E-01  0.53373264663E-02  0.10170473108E+01  0.10166919658E+01 0.  0.
     999903    2    3    3    0    0 -0.10937890006E+00  0.67397474465E-01  0.14690789794E-01  0.13109101437E+00  0.21514446362E-01 0.  0.
         14    1    1    2    0    0  0.22218468760E-01 -0.14160917097E-01 -0.53373264663E-02  0.26882689242E-01  0.00000000000E+00 0. -1.
     999901    1    3    3    0    0  0.87160431301E-01 -0.53236557368E-01 -0.93534633275E-02  0.88595629638E+00  0.88000000000E+00 0. -1.
        -11    1    4    4    0    0 -0.82715604518E-01  0.54208480890E-01  0.19920090212E-01  0.10088360494E+00  0.51100000000E-03 0. -1.
         11    1    4    4    0    0 -0.26663295543E-01  0.13188993574E-01 -0.52293004186E-02  0.30207409432E-01  0.51100000000E-03 0.  1.
</event>
<event>
 8    1  0.1120016E+005  0.1043930E+01  0.7957747E-01            NaN
         13   -1    0    0    0    0  0.00000000000E+00  0.00000000000E+00  0.74505805969E-08  0.10566000000E+00  0.10566000000E+00 0.  1.
     999900   -1    0    0    0    0 -0.00000000000E+00 -0.00000000000E+00 -0.74505805969E-08  0.93827000000E+00  0.93827000000E+00 0.  1.
     999902    2    1    2    0    0  0.13672712742E-01 -0.19154232794E-01  0.70366725569E-03  0.10203859380E+01  0.10201142777E+01 0.  0.
     999903    2    3    3    0    0  0.54778907126E-01  0.11253152930E+00 -0.25359861128E-01  0.12925734646E+00  0.20006631542E-01 0.  0.
         14    1    1    2    0    0 -0.13672712742E-01  0.19154232794E-01 -0.70366725569E-03  0.23544061996E-01  0.00000000000E+00 0.  1.
     999901    1    3    3    0    0 -0.41106194384E-01 -0.13168576209E+00  0.26063528383E-01  0.89112859154E+00  0.88000000000E+00 0.  1.
        -11    1    4    4    0    0  0.18553419930E-01  0.51910028542E-01 -0.31226806185E-02  0.55216779239E-01  0.51100000000E-03 0. -1.
         11    1    4    4    0    0  0.36225487196E-01  0.60621500756E-01 -0.22237180509E-01  0.74040567222E-01  0.51100000000E-03 0.  1.
</event>
<event>
 8    1  0.1120016E+005  0.1043930E+01  0.7957747E-01            NaN
         13   -1    0    0    0    0  0.00000000000E+00  0.00000000000E+00  0.74505805969E-08  0.10566000000E+00  0.10566000000E+00 0. -1.
     999900   -1    0    0    0    0 -0.00000000000E+00 -0.00000000000E+00 -0.74505805969E-08  0.93827000000E+00  0.93827000000E+00 0. -1.
     999902    2    1    2    0    0  0.18882589007E-01  0.59619232826E-02  0.15747874818E-01  0.10186299554E+01  0.10183157142E+01 0.  0.
     999903    2    3    3    0    0 -0.30484177154E-01 -0.12138929911E+00  0.18419968593E-01  0.12808936027E+00  0.20073414656E-01 0.  0.
         14    1    1    2    0    0 -0.18882589007E-01 -0.59619232826E-02 -0.15747874818E-01  0.25300044627E-01  0.00000000000E+00 0.  1.
     999901    1    3    3    0    0  0.49366766161E-01  0.12735122239E+00 -0.26720937754E-02  0.89054059511E+00  0.88000000000E+00 0. -1.
        -11    1    4    4    0    0 -0.21709360470E-01 -0.82324509949E-01  0.30364384977E-02  0.85194497182E-01  0.51100000000E-03 0. -1.
         11    1    4    4    0    0 -0.87748166839E-02 -0.39064789160E-01  0.15383530095E-01  0.42894863085E-01  0.51100000000E-03 0.  1.
</event>
<event>
 8    1  0.1120016E+005  0.1043930E+01  0.7957747E-01            NaN
         13   -1    0    0    0    0  0.00000000000E+00  0.00000000000E+00  0.74505805969E-08  0.10566000000E+00  0.10566000000E+00 0. -1.
     999900   -1    0    0    0    0 -0.00000000000E+00 -0.00000000000E+00 -0.74505805969E-08  0.93827000000E+00  0.93827000000E+00 0. -1.
     999902    2    1    2    0    0  0.86164159343E-02  0.20019017757E-02  0.24977354523E-01  0.10174324818E+01  0.10170873790E+01 0.  0.
     999903    2    3    3    0    0 -0.57249760859E-01  0.31141612344E-02  0.11227265325E+00  0.13066303057E+00  0.34357615930E-01 0.  0.
         14    1    1    2    0    0 -0.86164159343E-02 -0.20019017757E-02 -0.24977354523E-01  0.26497518247E-01  0.00000000000E+00 0.  1.
     999901    1    3    3    0    0  0.65866176793E-01 -0.11122594587E-02 -0.87295298726E-01  0.88676945118E+00  0.88000000000E+00 0. -1.
        -11    1    4    4    0    0 -0.54739406736E-01 -0.80082147094E-02  0.90229658864E-01  0.10584038271E+00  0.51100000000E-03 0. -1.
         11    1    4    4    0    0 -0.25103541235E-02  0.11122375944E-01  0.22042994385E-01  0.24822647862E-01  0.51100000000E-03 0.  1.
</event>
<event>
 8    1  0.1195601E+005  0.1043930E+01  0.7957747E-01            NaN
         13   -1    0    0    0    0  0.00000000000E+00  0.00000000000E+00  0.74505805969E-08  0.10566000000E+00  0.10566000000E+00 0.  1.
     999900   -1    0    0    0    0 -0.00000000000E+00 -0.00000000000E+00 -0.74505805969E-08  0.93827000000E+00  0.93827000000E+00 0.  1.
     999902    2    1    2    0    0  0.25992307255E-02 -0.26081170757E-01  0.27058332338E-01  0.10062585676E+01  0.10055531652E+01 0.  0.
     999903    2    3    3    0    0  0.83445698501E-01  0.33813611635E-02  0.83676259287E-01  0.12025079012E+00  0.21998135271E-01 0.  0.
         14    1    1    2    0    0 -0.25992307255E-02  0.26081170757E-01 -0.27058332338E-01  0.37671432377E-01  0.00000000000E+00 0. -1.
     999901    1    3    3    0    0 -0.80846467775E-01 -0.29462531920E-01 -0.56617926949E-01  0.88600777750E+00  0.88000000000E+00 0.  1.
        -11    1    4    4    0    0  0.51195697039E-01  0.12776327064E-01  0.51085008594E-01  0.73445034908E-01  0.51100000000E-03 0. -1.
         11    1    4    4    0    0  0.32250001461E-01 -0.93949659006E-02  0.32591250692E-01  0.46805755215E-01  0.51100000000E-03 0.  1.
</event>
<event>
 8    1  0.1120016E+005  0.1043930E+01  0.7957747E-01            NaN
         13   -1    0    0    0    0  0.00000000000E+00  0.00000000000E+00  0.74505805969E-08  0.10566000000E+00  0.10566000000E+00 0. -1.
     999900   -1    0    0    0    0 -0.00000000000E+00 -0.00000000000E+00 -0.74505805969E-08  0.93827000000E+00  0.93827000000E+00 0. -1.
     999902    2    1    2    0    0 -0.27962116483E-02 -0.13176843214E-01 -0.16916247709E-01  0.10223057675E+01  0.10220770395E+01 0.  0.
     999903    2    3    3    0    0  0.18429745926E-01  0.80860132068E-01  0.97419135097E-01  0.12968822687E+00  0.21225734677E-01 0.  0.
         14    1    1    2    0    0  0.27962116483E-02  0.13176843214E-01  0.16916247709E-01  0.21624232547E-01  0.00000000000E+00 0. -1.
     999901    1    3    3    0    0 -0.21225957574E-01 -0.94036975283E-01 -0.11433538281E+00  0.89261754058E+00  0.88000000000E+00 0. -1.
        -11    1    4    4    0    0  0.13559402568E-01  0.46319986848E-01  0.71332583686E-01  0.86127795722E-01  0.51100000000E-03 0. -1.
         11    1    4    4    0    0  0.48703433574E-02  0.34540145220E-01  0.26086551411E-01  0.43560431148E-01  0.51100000000E-03 0.  1.
</event>
<event>
 8    1  0.1120016E+005  0.1043930E+01  0.7957747E-01            NaN
         13   -1    0    0    0    0  0.00000000000E+00  0.00000000000E+00  0.74505805969E-08  0.10566000000E+00  0.10566000000E+00 0. -1.
     999900   -1    0    0    0    0 -0.00000000000E+00 -0.00000000000E+00 -0.74505805969E-08  0.93827000000E+00  0.93827000000E+00 0. -1.
     999902    2    1    2    0    0 -0.65058445235E-02 -0.19089145021E-01  0.13342007906E-01  0.10197487956E+01  0.10194620520E+01 0.  0.
     999903    2    3    3    0    0  0.21810594781E-01 -0.53407346195E-01 -0.11440219728E+00  0.12941282441E+00  0.18214546527E-01 0.  0.
         14    1    1    2    0    0  0.65058445235E-02  0.19089145021E-01 -0.13342007906E-01  0.24181204387E-01  0.00000000000E+00 0.  1.
     999901    1    3    3    0    0 -0.28316439305E-01  0.34318201174E-01  0.12774420519E+00  0.89033597121E+00  0.88000000000E+00 0.  1.
        -11    1    4    4    0    0  0.15201077977E-01 -0.31455882926E-01 -0.86544653503E-01  0.93331578329E-01  0.51100000000E-03 0. -1.
         11    1    4    4    0    0  0.66095168036E-02 -0.21951463269E-01 -0.27857543780E-01  0.36081246077E-01  0.51100000000E-03 0.  1.
</event>
<event>
 8    1  0.1120016E+005  0.1043930E+01  0.7957747E-01            NaN
         13   -1    0    0    0    0  0.00000000000E+00  0.00000000000E+00  0.74505805969E-08  0.10566000000E+00  0.10566000000E+00 0. -1.
     999900   -1    0    0    0    0 -0.00000000000E+00 -0.00000000000E+00 -0.74505805969E-08  0.93827000000E+00  0.93827000000E+00 0. -1.
     999902    2    1    2    0    0 -0.81951628841E-02 -0.17388670921E-01 -0.11676578397E-01  0.10214384671E+01  0.10211908112E+01 0.  0.
     999903    2    3    3    0    0  0.82925226034E-01  0.12588139452E-01  0.96802506892E-01  0.12960370300E+00  0.19782318438E-01 0.  0.
         14    1    1    2    0    0  0.81951628841E-02  0.17388670921E-01  0.11676578397E-01  0.22491532944E-01  0.00000000000E+00 0. -1.
     999901    1    3    3    0    0 -0.91120388918E-01 -0.29976810373E-01 -0.10847908529E+00  0.89183476406E+00  0.88000000000E+00 0. -1.
        -11    1    4    4    0    0  0.11600384965E-01  0.70627960409E-02  0.88010650730E-02  0.16191722783E-01  0.51100000000E-03 0.  1.
         11    1    4    4    0    0  0.71324841069E-01  0.55253434112E-02  0.88001441819E-01  0.11341198022E+00  0.51100000000E-03 0. -1.
</event>
<event>
 8    1  0.1120016E+005  0.1043930E+01  0.7957747E-01            NaN
         13   -1    0    0    0    0  0.00000000000E+00  0.00000000000E+00  0.74505805969E-08  0.10566000000E+00  0.10566000000E+00 0.  1.
     999900   -1    0    0    0    0 -0.00000000000E+00 -0.00000000000E+00 -0.74505805969E-08  0.93827000000E+00  0.93827000000E+00 0. -1.
     999902    2    1    2    0    0  0.21320348357E-01  0.99547867172E-02 -0.14031778212E-03  0.10203997063E+01  0.10201283674E+01 0.  0.
     999903    2    3    3    0    0 -0.11362933273E+00 -0.32583451448E-01  0.44584914931E-01  0.12797533159E+00  0.20409906662E-01 0.  0.
         14    1    1    2    0    0 -0.21320348357E-01 -0.99547867172E-02  0.14031778212E-03  0.23530293703E-01  0.00000000000E+00 0.  1.
     999901    1    3    3    0    0  0.13494968109E+00  0.42538238165E-01 -0.44725232713E-01  0.89242437471E+00  0.88000000000E+00 0.  1.
        -11    1    4    4    0    0 -0.90282075501E-01 -0.31667834633E-01  0.41906628928E-01  0.10445157527E+00  0.51100000000E-03 0.  1.
         11    1    4    4    0    0 -0.23347257233E-01 -0.91561681472E-03  0.26782860031E-02  0.23523756319E-01  0.51100000000E-03 0. -1.
</event>
<event>
 8    1  0.1120016E+005  0.1043930E+01  0.7957747E-01            NaN
         13   -1    0    0    0    0  0.00000000000E+00  0.00000000000E+00  0.74505805969E-08  0.10566000000E+00  0.10566000000E+00 0.  1.
     999900   -1    0    0    0    0 -0.00000000000E+00 -0.00000000000E+00 -0.74505805969E-08  0.93827000000E+00  0.93827000000E+00 0. -1.
     999902    2    1    2    0    0 -0.10943421820E-01 -0.15061665805E-01  0.14919813897E-01  0.10200718126E+01  0.10197927681E+01 0.  0.
     999903    2    3    3    0    0 -0.92607372576E-01 -0.53697071573E-01  0.76997286187E-01  0.13327121046E+00  0.19316638104E-01 0.  0.
         14    1    1    2    0    0  0.10943421820E-01  0.15061665805E-01 -0.14919813897E-01  0.23858187372E-01  0.00000000000E+00 0.  1.
     999901    1    3    3    0    0  0.81663950756E-01  0.38635405768E-01 -0.62077472290E-01  0.88680060216E+00  0.88000000000E+00 0. -1.
        -11    1    4    4    0    0 -0.57518533413E-01 -0.40708386360E-01  0.41994348595E-01  0.82032559639E-01  0.51100000000E-03 0.  1.
         11    1    4    4    0    0 -0.35088839163E-01 -0.12988685213E-01  0.35002937592E-01  0.51238650825E-01  0.51100000000E-03 0. -1.
</event>
<event>
 8    1  0.1120016E+005  0.1043930E+01  0.7957747E-01            NaN
         13   -1    0    0    0    0  0.00000000000E+00  0.00000000000E+00  0.74505805969E-08  0.10566000000E+00  0.10566000000E+00 0. -1.
     999900   -1    0    0    0    0 -0.00000000000E+00 -0.00000000000E+00 -0.74505805969E-08  0.93827000000E+00  0.93827000000E+00 0. -1.
     999902    2    1    2    0    0  0.64703596173E-02  0.12926971710E-01 -0.18917627097E-01  0.10201214140E+01  0.10198435422E+01 0.  0.
     999903    2    3    3    0    0  0.10857516909E+00  0.30269104616E-01 -0.66627518267E-01  0.13276445349E+00  0.21963330449E-01 0.  0.
         14    1    1    2    0    0 -0.64703596173E-02 -0.12926971710E-01  0.18917627097E-01  0.23808585976E-01  0.00000000000E+00 0. -1.
     999901    1    3    3    0    0 -0.10210480947E+00 -0.17342132906E-01  0.47709891170E-01  0.88735696053E+00  0.88000000000E+00 0.  1.
        -11    1    4    4    0    0  0.49487186260E-01  0.23852149560E-01 -0.26082665375E-01  0.60815073762E-01  0.51100000000E-03 0.  1.
         11    1    4    4    0    0  0.59087982825E-01  0.64169550565E-02 -0.40544852892E-01  0.71949379730E-01  0.51100000000E-03 0. -1.
</event>
<event>
 8    1  0.1120016E+005  0.1043930E+01  0.7957747E-01            NaN
         13   -1    0    0    0    0  0.00000000000E+00  0.00000000000E+00  0.74505805969E-08  0.10566000000E+00  0.10566000000E+00 0. -1.
     999900   -1    0    0    0    0 -0.00000000000E+00 -0.00000000000E+00 -0.74505805969E-08  0.93827000000E+00  0.93827000000E+00 0.  1.
     999902    2    1    2    0    0 -0.15681228265E-01 -0.16439607913E-01  0.12986684509E-02  0.10211737224E+01  0.10209201356E+01 0.  0.
     999903    2    3    3    0    0 -0.71212771787E-01  0.96837116312E-01 -0.47730811263E-01  0.13082589241E+00  0.19710348025E-01 0.  0.
         14    1    1    2    0    0  0.15681228265E-01  0.16439607913E-01 -0.12986684509E-02  0.22756277551E-01  0.00000000000E+00 0.  1.
     999901    1    3    3    0    0  0.55531543522E-01 -0.11327672423E+00  0.49029479714E-01  0.89034783004E+00  0.88000000000E+00 0. -1.
        -11    1    4    4    0    0 -0.28795062418E-01  0.38122815120E-01 -0.87674817627E-02  0.48576069311E-01  0.51100000000E-03 0.  1.
         11    1    4    4    0    0 -0.42417709370E-01  0.58714301193E-01 -0.38963329500E-01  0.82249823097E-01  0.51100000000E-03 0. -1.
</event>
<event>
 8    1  0.1120016E+005  0.1043930E+01  0.7957747E-01            NaN
         13   -1    0    0    0    0  0.00000000000E+00  0.00000000000E+00  0.74505805969E-08  0.10566000000E+00  0.10566000000E+00 0. -1.
     999900   -1    0    0    0    0 -0.00000000000E+00 -0.00000000000E+00 -0.74505805969E-08  0.93827000000E+00  0.93827000000E+00 0.  1.
     999902    2    1    2    0    0 -0.52325374078E-02 -0.23375422956E-01  0.22554215966E-01  0.10110288981E+01  0.10104934193E+01 0.  0.
     999903    2    3    3    0    0  0.36165736606E-02  0.56365408065E-01  0.10771759360E+00  0.12328473015E+00  0.20147106138E-01 0.  0.
         14    1    1    2    0    0  0.52325374078E-02  0.23375422956E-01 -0.22554215966E-01  0.32901101865E-01  0.00000000000E+00 0.  1.
     999901    1    3    3    0    0 -0.88491110684E-02 -0.79740831020E-01 -0.85163377636E-01  0.88774416798E+00  0.88000000000E+00 0.  1.
        -11    1    4    4    0    0 -0.27085188174E-02  0.28172126344E-01  0.34860920149E-01  0.44906009080E-01  0.51100000000E-03 0.  1.
         11    1    4    4    0    0  0.63250924780E-02  0.28193281721E-01  0.72856673453E-01  0.78378721071E-01  0.51100000000E-03 0. -1.
</event>
<event>
 8    1  0.1143817E+005  0.1043930E+01  0.7957747E-01            NaN
         13   -1    0    0    0    0  0.00000000000E+00  0.00000000000E+00  0.74505805969E-08  0.10566000000E+00  0.10566000000E+00 0.  1.
     999900   -1    0    0    0    0 -0.00000000000E+00 -0.00000000000E+00 -0.74505805969E-08  0.93827000000E+00  0.93827000000E+00 0.  1.
     999902    2    1    2    0    0 -0.92020717198E-02  0.11282688794E-01 -0.18578145922E-01  0.10203265109E+01  0.10200534614E+01 0.  0.
     999903    2    3    3    0    0  0.11020784038E+00 -0.61700617149E-01 -0.18831309835E-01  0.12926795273E+00  0.20071151794E-01 0.  0.
         14    1    1    2    0    0  0.92020717198E-02 -0.11282688794E-01  0.18578145922E-01  0.23603489070E-01  0.00000000000E+00 0. -1.
     999901    1    3    3    0    0 -0.11940991210E+00  0.72983305944E-01  0.25316391304E-03  0.89105855820E+00  0.88000000000E+00 0.  1.
        -11    1    4    4    0    0  0.68815065121E-01 -0.47165882395E-01 -0.64347306036E-02  0.83676762178E-01  0.51100000000E-03 0. -1.
         11    1    4    4    0    0  0.41392775259E-01 -0.14534734754E-01 -0.12396579232E-01  0.45591190549E-01  0.51100000000E-03 0.  1.
</event>
<event>
 8    1  0.1120016E+005  0.1043930E+01  0.7957747E-01            NaN
         13   -1    0    0    0    0  0.00000000000E+00  0.00000000000E+00  0.74505805969E-08  0.10566000000E+00  0.10566000000E+00 0. -1.
     999900   -1    0    0    0    0 -0.00000000000E+00 -0.00000000000E+00 -0.74505805969E-08  0.93827000000E+00  0.93827000000E+00 0. -1.
     999902    2    1    2    0    0 -0.21894230425E-01 -0.58374548863E-04 -0.10845118456E-01  0.10194968805E+01  0.10192040581E+01 0.  0.
     999903    2    3    3    0    0  0.29762477496E-01 -0.73258260058E-01  0.98790126612E-01  0.12817958254E+00  0.20443544945E-01 0.  0.
         14    1    1    2    0    0  0.21894230425E-01  0.58374548863E-04  0.10845118456E-01  0.24433119486E-01  0.00000000000E+00 0. -1.
     999901    1    3    3    0    0 -0.51656707921E-01  0.73199885509E-01 -0.10963524507E+00  0.89131729798E+00  0.88000000000E+00 0. -1.
        -11    1    4    4    0    0  0.20972299510E-02 -0.30122058119E-01  0.32097587954E-01  0.44070999901E-01  0.51100000000E-03 0. -1.
         11    1    4    4    0    0  0.27665247545E-01 -0.43136201940E-01  0.66692538657E-01  0.84108582636E-01  0.51100000000E-03 0.  1.
</event>
<event>
 8    1  0.1120016E+005  0.1043930E+01  0.7957747E-01            NaN
         13   -1    0    0    0    0  0.00000000000E+00  0.00000000000E+00  0.74505805969E-08  0.10566000000E+00  0.10566000000E+00 0. -1.
     999900   -1    0    0    0    0 -0.00000000000E+00 -0.00000000000E+00 -0.74505805969E-08  0.93827000000E+00  0.93827000000E+00 0. -1.
     999902    2    1    2    0    0  0.74071256224E-03 -0.11653673906E-01  0.19911866458E-01  0.10208466901E+01  0.10205856777E+01 0.  0.
     999903    2    3    3    0    0 -0.67858009427E-01 -0.32794932324E-02 -0.10771653597E+00  0.12895828862E+00  0.20295900159E-01 0.  0.
         14    1    1    2    0    0 -0.74071256224E-03  0.11653673906E-01 -0.19911866458E-01  0.23083309911E-01  0.00000000000E+00 0.  1.
     999901    1    3    3    0    0  0.68598721989E-01 -0.83741806734E-02  0.12762840243E+00  0.89188840147E+00  0.88000000000E+00 0.  1.
        -11    1    4    4    0    0 -0.40362449634E-01 -0.10924172728E-01 -0.71689708833E-01  0.82994821307E-01  0.51100000000E-03 0.  1.
         11    1    4    4    0    0 -0.27495559793E-01  0.76446794955E-02 -0.36026827142E-01  0.45963467317E-01  0.51100000000E-03 0. -1.
</event>
<event>
 8    1  0.1120016E+005  0.1043930E+01  0.7957747E-01            NaN
         13   -1    0    0    0    0  0.00000000000E+00  0.00000000000E+00  0.74505805969E-08  0.10566000000E+00  0.10566000000E+00 0.  1.
     999900   -1    0    0    0    0 -0.00000000000E+00 -0.00000000000E+00 -0.74505805969E-08  0.93827000000E+00  0.93827000000E+00 0. -1.
     999902    2    1    2    0    0 -0.73585841531E-02 -0.21911876415E-01 -0.45938347639E-02  0.10203634473E+01  0.10200912617E+01 0.  0.
     999903    2    3    3    0    0 -0.15198082854E-02 -0.12565466677E+00  0.36640177976E-01  0.13329135233E+00  0.25153068701E-01 0.  0.
         14    1    1    2    0    0  0.73585841531E-02  0.21911876415E-01  0.45938347639E-02  0.23566552709E-01  0.00000000000E+00 0.  1.
     999901    1    3    3    0    0 -0.58387758678E-02  0.10374279035E+00 -0.41234012740E-01  0.88707209496E+00  0.88000000000E+00 0. -1.
        -11    1    4    4    0    0  0.55459262584E-02 -0.11541444259E+00  0.31087831768E-01  0.11965770038E+00  0.51100000000E-03 0. -1.
         11    1    4    4    0    0 -0.70657345437E-02 -0.10240224181E-01  0.55523462074E-02  0.13633651944E-01  0.51100000000E-03 0.  1.
</event>
<event>
 8    1  0.1120016E+005  0.1043930E+01  0.7957747E-01            NaN
         13   -1    0    0    0    0  0.00000000000E+00  0.00000000000E+00  0.74505805969E-08  0.10566000000E+00  0.10566000000E+00 0. -1.
     999900   -1    0    0    0    0 -0.00000000000E+00 -0.00000000000E+00 -0.74505805969E-08  0.93827000000E+00  0.93827000000E+00 0.  1.
     999902    2    1    2    0    0  0.15511412266E-01  0.17422133411E-01 -0.21081316956E-02  0.10205082396E+01  0.10202394269E+01 0.  0.
     999903    2    3    3    0    0  0.87610402040E-01  0.80454413916E-01 -0.57382194931E-01  0.13358853926E+00  0.20116815392E-01 0.  0.
         14    1    1    2    0    0 -0.15511412266E-01 -0.17422133411E-01  0.21081316956E-02  0.23421760444E-01  0.00000000000E+00 0.  1.
     999901    1    3    3    0    0 -0.72098989774E-01 -0.63032280505E-01  0.55274063236E-01  0.88691970030E+00  0.88000000000E+00 0. -1.
        -11    1    4    4    0    0  0.19590365631E-01  0.87265559238E-02 -0.65373185798E-02  0.22426164609E-01  0.51100000000E-03 0. -1.
         11    1    4    4    0    0  0.68020036409E-01  0.71727857992E-01 -0.50844876351E-01  0.11116237465E+00  0.51100000000E-03 0.  1.
</event>
<event>
 8    1  0.1120016E+005  0.1043930E+01  0.7957747E-01            NaN
         13   -1    0    0    0    0  0.00000000000E+00  0.00000000000E+00  0.74505805969E-08  0.10566000000E+00  0.10566000000E+00 0.  1.
     999900   -1    0    0    0    0 -0.00000000000E+00 -0.00000000000E+00 -0.74505805969E-08  0.93827000000E+00  0.93827000000E+00 0. -1.
     999902    2    1    2    0    0  0.11894946000E-01 -0.20258170336E-01 -0.33145885871E-02  0.10202051248E+01  0.10199292265E+01 0.  0.
     999903    2    3    3    0    0 -0.63791869025E-01  0.92424142933E-01 -0.58432857597E-01  0.12809312439E+00  0.19540340821E-01 0.  0.
         14    1    1    2    0    0 -0.11894946000E-01  0.20258170336E-01  0.33145885871E-02  0.23724875199E-01  0.00000000000E+00 0.  1.
     999901    1    3    3    0    0  0.75686815025E-01 -0.11268231327E+00  0.55118269010E-01  0.89211200041E+00  0.88000000000E+00 0.  1.
        -11    1    4    4    0    0 -0.53402988766E-01  0.81659055487E-01 -0.43108650756E-01  0.10667097751E+00  0.51100000000E-03 0. -1.
         11    1    4    4    0    0 -0.10388880259E-01  0.10765087446E-01 -0.15324206841E-01  0.21422146883E-01  0.51100000000E-03 0.  1.
</event>
<event>
 8    1  0.1120016E+005  0.1043930E+01  0.7957747E-01            NaN
         13   -1    0    0    0    0  0.00000000000E+00  0.00000000000E+00  0.74505805969E-08  0.10566000000E+00  0.10566000000E+00 0.  1.
     999900   -1    0    0    0    0 -0.00000000000E+00 -0.00000000000E+00 -0.74505805969E-08  0.93827000000E+00  0.93827000000E+00 0.  1.
     999902    2    1    2    0    0  0.13693929766E-01  0.13778649626E-01 -0.15076850774E-01  0.10193396294E+01  0.10190429793E+01 0.  0.
     999903    2    3    3    0    0  0.39694338716E-01  0.16282841349E-01 -0.12353190769E+00  0.13229690684E+00  0.20039159006E-01 0.  0.
         14    1    1    2    0    0 -0.13693929766E-01 -0.13778649626E-01  0.15076850774E-01  0.24590370619E-01  0.00000000000E+00 0.  1.
     999901    1    3    3    0    0 -0.26000408950E-01 -0.25041917231E-02  0.10845505692E+00  0.88704272254E+00  0.88000000000E+00 0. -1.
        -11    1    4    4    0    0  0.11754531848E-01  0.15396429255E-01 -0.48808617550E-01  0.52514391560E-01  0.51100000000E-03 0. -1.
         11    1    4    4    0    0  0.27939806868E-01  0.88641209417E-03 -0.74723290139E-01  0.79782515280E-01  0.51100000000E-03 0.  1.
</event>
<event>
 8    1  0.1120016E+005  0.1043930E+01  0.7957747E-01            NaN
         13   -1    0    0    0    0  0.00000000000E+00  0.00000000000E+00  0.74505805969E-08  0.10566000000E+00  0.10566000000E+00 0. -1.
     999900   -1    0    0    0    0 -0.00000000000E+00 -0.00000000000E+00 -0.74505805969E-08  0.93827000000E+00  0.93827000000E+00 0.  1.
     999902    2    1    2    0    0  0.12794955365E-01 -0.84553626839E-02  0.17092696121E-01  0.10209655862E+01  0.10207072861E+01 0.  0.
     999903    2    3    3    0    0  0.81096357282E-01  0.24479659509E-01  0.10149136405E+00  0.13368156608E+00  0.19859285994E-01 0.  0.
         14    1    1    2    0    0 -0.12794955365E-01  0.84553626839E-02 -0.17092696121E-01  0.22964413809E-01  0.00000000000E+00 0.  1.
     999901    1    3    3    0    0 -0.68301401918E-01 -0.32935022193E-01 -0.84398667927E-01  0.88728402011E+00  0.88000000000E+00 0.  1.
        -11    1    4    4    0    0  0.19726765686E-01  0.11885073586E-01  0.17663067019E-01  0.29028353658E-01  0.51100000000E-03 0.  1.
         11    1    4    4    0    0  0.61369591597E-01  0.12594585922E-01  0.83828297029E-01  0.10465321243E+00  0.51100000000E-03 0. -1.
</event>
<event>
 8    1  0.1120016E+005  0.1043930E+01  0.7957747E-01            NaN
         13   -1    0    0    0    0  0.00000000000E+00  0.00000000000E+00  0.74505805969E-08  0.10566000000E+00  0.10566000000E+00 0.  1.
     999900   -1    0    0    0    0 -0.00000000000E+00 -0.00000000000E+00 -0.74505805969E-08  0.93827000000E+00  0.93827000000E+00 0.  1.
     999902    2    1    2    0    0  0.19297661120E-02  0.10748346427E-01 -0.20366063719E-01  0.10208209650E+01  0.10205593638E+01 0.  0.
     999903    2    3    3    0    0 -0.70840040631E-02 -0.38001726966E-01  0.12055620723E+00  0.12823096719E+00  0.20373204888E-01 0.  0.
         14    1    1    2    0    0 -0.19297661120E-02 -0.10748346427E-01  0.20366063719E-01  0.23109035020E-01  0.00000000000E+00 0.  1.
     999901    1    3    3    0    0  0.90137701751E-02  0.48750073393E-01 -0.14092227095E+00  0.89258999779E+00  0.88000000000E+00 0.  1.
        -11    1    4    4    0    0 -0.39429488056E-02 -0.97564911585E-02  0.64766141361E-01  0.65617453111E-01  0.51100000000E-03 0.  1.
         11    1    4    4    0    0 -0.31410552575E-02 -0.28245235807E-01  0.55790065873E-01  0.62613514076E-01  0.51100000000E-03 0. -1.
</event>
<event>
 8    1  0.1260617E+005  0.1043930E+01  0.7957747E-01            NaN
         13   -1    0    0    0    0  0.00000000000E+00  0.00000000000E+00  0.74505805969E-08  0.10566000000E+00  0.10566000000E+00 0.  1.
     999900   -1    0    0    0    0 -0.00000000000E+00 -0.00000000000E+00 -0.74505805969E-08  0.93827000000E+00  0.93827000000E+00 0.  1.
     999902    2    1    2    0    0 -0.15618471917E-01 -0.10205215729E-01  0.13603698003E-01  0.10208400954E+01  0.10205789322E+01 0.  0.
     999903    2    3    3    0    0 -0.65661571519E-01  0.89710970300E-01  0.68627915736E-01  0.13206834714E+00  0.19306924428E-01 0.  0.
         14    1    1    2    0    0  0.15618471917E-01  0.10205215729E-01 -0.13603698003E-01  0.23089904557E-01  0.00000000000E+00 0. -1.
     999901    1    3    3    0    0  0.50043099603E-01 -0.99916186029E-01 -0.55024217732E-01  0.88877174831E+00  0.88000000000E+00 0. -1.
        -11    1    4    4    0    0 -0.30215674040E-01  0.25720766197E-01  0.24057160051E-01  0.46406387946E-01  0.51100000000E-03 0. -1.
         11    1    4    4    0    0 -0.35445897479E-01  0.63990204103E-01  0.44570755685E-01  0.85661959191E-01  0.51100000000E-03 0.  1.
</event>
<event>
 8    1  0.1120016E+005  0.1043930E+01  0.7957747E-01            NaN
         13   -1    0    0    0    0  0.00000000000E+00  0.00000000000E+00  0.74505805969E-08  0.10566000000E+00  0.10566000000E+00 0.  1.
     999900   -1    0    0    0    0 -0.00000000000E+00 -0.00000000000E+00 -0.74505805969E-08  0.93827000000E+00  0.93827000000E+00 0. -1.
     999902    2    1    2    0    0 -0.13809278968E-01  0.55689709174E-02 -0.18798308592E-01  0.10199490486E+01  0.10196670907E+01 0.  0.
     999903    2    3    3    0    0 -0.42624387088E-01  0.46411628548E-01  0.11089612302E+00  0.12903991817E+00  0.19556910371E-01 0.  0.
         14    1    1    2    0    0  0.13809278968E-01 -0.55689709174E-02  0.18798308592E-01  0.23980951370E-01  0.00000000000E+00 0.  1.
     999901    1    3    3    0    0  0.28815108120E-01 -0.40842657631E-01 -0.12969443161E+00  0.89090913046E+00  0.88000000000E+00 0. -1.
        -11    1    4    4    0    0 -0.30247639470E-01  0.19178887126E-01  0.65900665225E-01  0.75006054442E-01  0.51100000000E-03 0. -1.
         11    1    4    4    0    0 -0.12376747618E-01  0.27232741422E-01  0.44995457791E-01  0.54033863732E-01  0.51100000000E-03 0.  1.
</event>
<event>
 8    1  0.1120016E+005  0.1043930E+01  0.7957747E-01            NaN
         13   -1    0    0    0    0  0.00000000000E+00  0.00000000000E+00  0.74505805969E-08  0.10566000000E+00  0.10566000000E+00 0. -1.
     999900   -1    0    0    0    0 -0.00000000000E+00 -0.00000000000E+00 -0.74505805969E-08  0.93827000000E+00  0.93827000000E+00 0.  1.
     999902    2    1    2    0    0  0.11177832584E-01 -0.20123804082E-01 -0.11390700526E-01  0.10182461629E+01  0.10179221919E+01 0.  0.
     999903    2    3    3    0    0 -0.90417459243E-02 -0.11004938444E+00 -0.68893522431E-01  0.13156582819E+00  0.19251740902E-01 0.  0.
         14    1    1    2    0    0 -0.11177832584E-01  0.20123804082E-01  0.11390700526E-01  0.25683837145E-01  0.00000000000E+00 0.  1.
     999901    1    3    3    0    0  0.20219578508E-01  0.89925580362E-01  0.57502821905E-01  0.88668033467E+00  0.88000000000E+00 0. -1.
        -11    1    4    4    0    0 -0.94870443393E-02 -0.93984287042E-01 -0.50428356711E-01  0.10708095303E+00  0.51100000000E-03 0.  1.
         11    1    4    4    0    0  0.44529841496E-03 -0.16065097403E-01 -0.18465165720E-01  0.24484875154E-01  0.51100000000E-03 0. -1.
</event>
<event>
 8    1  0.1120016E+005  0.1043930E+01  0.7957747E-01            NaN
         13   -1    0    0    0    0  0.00000000000E+00  0.00000000000E+00  0.74505805969E-08  0.10566000000E+00  0.10566000000E+00 0.  1.
     999900   -1    0    0    0    0 -0.00000000000E+00 -0.00000000000E+00 -0.74505805969E-08  0.93827000000E+00  0.93827000000E+00 0. -1.
     999902    2    1    2    0    0 -0.11655601451E-01 -0.60149181687E-02 -0.20898113256E-01  0.10192568684E+01  0.10189581936E+01 0.  0.
     999903    2    3    3    0    0 -0.95589983724E-01  0.55953840729E-01  0.63301968356E-01  0.12910252146E+00  0.19800115408E-01 0.  0.
         14    1    1    2    0    0  0.11655601451E-01  0.60149181687E-02  0.20898113256E-01  0.24673131610E-01  0.00000000000E+00 0.  1.
     999901    1    3    3    0    0  0.83934382272E-01 -0.61968758898E-01 -0.84200081612E-01  0.89015434693E+00  0.88000000000E+00 0. -1.
        -11    1    4    4    0    0 -0.51528387739E-01  0.33785178731E-01  0.45750252375E-01  0.76746073243E-01  0.51100000000E-03 0.  1.
         11    1    4    4    0    0 -0.44061595985E-01  0.22168661998E-01  0.17551715981E-01  0.52356448222E-01  0.51100000000E-03 0. -1.
</event>
<event>
 8    1  0.1120016E+005  0.1043930E+01  0.7957747E-01            NaN
         13   -1    0    0    0    0  0.00000000000E+00  0.00000000000E+00  0.74505805969E-08  0.10566000000E+00  0.10566000000E+00 0. -1.
     999900   -1    0    0    0    0 -0.00000000000E+00 -0.00000000000E+00 -0.74505805969E-08  0.93827000000E+00  0.93827000000E+00 0.  1.
     999902    2    1    2    0    0  0.70671343325E-02 -0.17501719106E-01  0.16542283417E-01  0.10188321575E+01  0.10185229813E+01 0.  0.
     999903    2    3    3    0    0 -0.10322105052E+00  0.67435130879E-01 -0.21625945522E-01  0.12707290413E+00  0.21857705671E-01 0.  0.
         14    1    1    2    0    0 -0.70671343325E-02  0.17501719106E-01 -0.16542283417E-01  0.25097842536E-01  0.00000000000E+00 0.  1.
     999901    1    3    3    0    0  0.11028818485E+00 -0.84936849984E-01  0.38168228939E-01  0.89175925333E+00  0.88000000000E+00 0. -1.
        -11    1    4    4    0    0 -0.97493717880E-01  0.59453168890E-01 -0.24566660232E-01  0.11680533478E+00  0.51100000000E-03 0.  1.
         11    1    4    4    0    0 -0.57273326422E-02  0.79819619887E-02  0.29407147100E-02  0.10267569352E-01  0.51100000000E-03 0. -1.
</event>
<event>
 8    1  0.1120016E+005  0.1043930E+01  0.7957747E-01            NaN
         13   -1    0    0    0    0  0.00000000000E+00  0.00000000000E+00  0.74505805969E-08  0.10566000000E+00  0.10566000000E+00 0.  1.
     999900   -1    0    0    0    0 -0.00000000000E+00 -0.00000000000E+00 -0.74505805969E-08  0.93827000000E+00  0.93827000000E+00 0.  1.
     999902    2    1    2    0    0  0.15321377982E-01 -0.91296095497E-02  0.15614670575E-01  0.10202253099E+01  0.10199498864E+01 0.  0.
     999903    2    3    3    0    0  0.12578133640E+00  0.11429390906E-01  0.36084605573E-01  0.13284540643E+00  0.19855167741E-01 0.  0.
         14    1    1    2    0    0 -0.15321377982E-01  0.91296095497E-02 -0.15614670575E-01  0.23704690063E-01  0.00000000000E+00 0. -1.
     999901    1    3    3    0    0 -0.11045995842E+00 -0.20559000456E-01 -0.20469934998E-01  0.88737990351E+00  0.88000000000E+00 0. -1.
        -11    1    4    4    0    0  0.50978161852E-01 -0.32620031851E-02  0.20441811531E-01  0.55023108148E-01  0.51100000000E-03 0.  1.
         11    1    4    4    0    0  0.74803174550E-01  0.14691394091E-01  0.15642794042E-01  0.77822298280E-01  0.51100000000E-03 0. -1.
</event>
<event>
 8    1  0.1120016E+005  0.1043930E+01  0.7957747E-01            NaN
         13   -1    0    0    0    0  0.00000000000E+00  0.00000000000E+00  0.74505805969E-08  0.10566000000E+00  0.10566000000E+00 0.  1.
     999900   -1    0    0    0    0 -0.00000000000E+00 -0.00000000000E+00 -0.74505805969E-08  0.93827000000E+00  0.93827000000E+00 0.  1.
     999902    2    1    2    0    0  0.11408795490E-01  0.19489754043E-01 -0.96335355617E-02  0.10193776858E+01  0.10190819644E+01 0.  0.
     999903    2    3    3    0    0 -0.15688723783E-02 -0.36810361754E-01  0.12088072919E+00  0.12787777202E+00  0.19573190700E-01 0.  0.
         14    1    1    2    0    0 -0.11408795490E-01 -0.19489754043E-01  0.96335355617E-02  0.24552314241E-01  0.00000000000E+00 0.  1.
     999901    1    3    3    0    0  0.12977667868E-01  0.56300115796E-01 -0.13051426475E+00  0.89149991374E+00  0.88000000000E+00 0.  1.
        -11    1    4    4    0    0 -0.69401104182E-02 -0.35207933853E-02  0.18193332143E-01  0.19794432908E-01  0.51100000000E-03 0.  1.
         11    1    4    4    0    0  0.53712380398E-02 -0.33289568368E-01  0.10268739704E+00  0.10808333911E+00  0.51100000000E-03 0. -1.
</event>
<event>
 8    1  0.1120016E+005  0.1043930E+01  0.7957747E-01            NaN
         13   -1    0    0    0    0  0.00000000000E+00  0.00000000000E+00  0.74505805969E-08  0.10566000000E+00  0.10566000000E+00 0.  1.
     999900   -1    0    0    0    0 -0.00000000000E+00 -0.00000000000E+00 -0.74505805969E-08  0.93827000000E+00  0.93827000000E+00 0.  1.
     999902    2    1    2    0    0  0.23839082297E-01 -0.29930635826E-02 -0.11840894993E-02  0.10198745985E+01  0.10195908661E+01 0.  0.
     999903    2    3    3    0    0 -0.12188257899E+00 -0.77022855655E-02 -0.30014185926E-01  0.12741274843E+00  0.20456510923E-01 0.  0.
         14    1    1    2    0    0 -0.23839082297E-01  0.29930635826E-02  0.11840894993E-02  0.24055401521E-01  0.00000000000E+00 0. -1.
     999901    1    3    3    0    0  0.14572166129E+00  0.47092219829E-02  0.28830096427E-01  0.89246185005E+00  0.88000000000E+00 0.  1.
        -11    1    4    4    0    0 -0.81801041348E-01 -0.11918452260E-01 -0.13083373066E-01  0.83695254594E-01  0.51100000000E-03 0. -1.
         11    1    4    4    0    0 -0.40081537647E-01  0.42161666950E-02 -0.16930812860E-01  0.43717493831E-01  0.51100000000E-03 0.  1.
</event>
<event>
 7    1  0.1120016E+005  0.1043930E+01  0.7957747E-01            NaN
         13   -1    0    0    0    0  0.00000000000E+00  0.00000000000E+00  0.74505805969E-08  0.10566000000E+00  0.10566000000E+00 0.  1.
     999900   -1    0    0    0    0 -0.00000000000E+00 -0.00000000000E+00 -0.74505805969E-08  0.93827000000E+00  0.93827000000E+00 0. -1.
     999903    2    1    2    0    0 -0.35343885273E-01  0.55522946220E-01  0.67775237303E-01  0.96554049048E-01  0.19930223604E-01 0.  0.
         14    1    1    2    0    0 -0.20683954854E-01  0.51053885986E-01 -0.17325753356E-01  0.57745190207E-01  0.00000000000E+00 0. -1.
     999901    1    1    2    0    0  0.56027840127E-01 -0.10657683221E+00 -0.50449483947E-01  0.88963076074E+00  0.88000000000E+00 0. -1.
        -11    1    3    3    0    0 -0.14029889602E-01  0.35658505321E-01  0.47608236318E-01  0.61116054276E-01  0.51100000000E-03 0.  1.
         11    1    3    3    0    0 -0.21313995671E-01  0.19864440899E-01  0.20167000985E-01  0.35437994772E-01  0.51100000000E-03 0. -1.
</event>
<event>
 8    1  0.1120016E+005  0.1043930E+01  0.7957747E-01            NaN
         13   -1    0    0    0    0  0.00000000000E+00  0.00000000000E+00  0.74505805969E-08  0.10566000000E+00  0.10566000000E+00 0. -1.
     999900   -1    0    0    0    0 -0.00000000000E+00 -0.00000000000E+00 -0.74505805969E-08  0.93827000000E+00  0.93827000000E+00 0. -1.
     999902    2    1    2    0    0  0.85100526827E-02 -0.10623522579E-01  0.17627911093E-01  0.10216584155E+01  0.10214156325E+01 0.  0.
     999903    2    3    3    0    0  0.88980808428E-01  0.69763575232E-01 -0.63046959243E-01  0.13067802132E+00  0.17812509351E-01 0.  0.
         14    1    1    2    0    0 -0.85100526827E-02  0.10623522579E-01 -0.17627911093E-01  0.22271584545E-01  0.00000000000E+00 0.  1.
     999901    1    3    3    0    0 -0.80470755746E-01 -0.80387097810E-01  0.80674870335E-01  0.89098039413E+00  0.88000000000E+00 0.  1.
        -11    1    4    4    0    0  0.51992772380E-01  0.47309578947E-01 -0.46822912258E-01  0.84463547601E-01  0.51100000000E-03 0. -1.
         11    1    4    4    0    0  0.36988036049E-01  0.22453996284E-01 -0.16224046984E-01  0.46214473722E-01  0.51100000000E-03 0.  1.
</event>
<event>
 8    1  0.1120016E+005  0.1043930E+01  0.7957747E-01            NaN
         13   -1    0    0    0    0  0.00000000000E+00  0.00000000000E+00  0.74505805969E-08  0.10566000000E+00  0.10566000000E+00 0.  1.
     999900   -1    0    0    0    0 -0.00000000000E+00 -0.00000000000E+00 -0.74505805969E-08  0.93827000000E+00  0.93827000000E+00 0.  1.
     999902    2    1    2    0    0 -0.15729282301E-01  0.52346632858E-02 -0.17715635625E-01  0.10196677708E+01  0.10193790791E+01 0.  0.
     999903    2    3    3    0    0 -0.88341750896E-01  0.13118747264E-01  0.91729642626E-01  0.12988521402E+00  0.21896917658E-01 0.  0.
         14    1    1    2    0    0  0.15729282301E-01 -0.52346632858E-02  0.17715635625E-01  0.24262229226E-01  0.00000000000E+00 0. -1.
     999901    1    3    3    0    0  0.72612468595E-01 -0.78840839780E-02 -0.10944527825E+00  0.88978255676E+00  0.88000000000E+00 0.  1.
        -11    1    4    4    0    0 -0.41933516318E-01 -0.33974283467E-04  0.30095347994E-01  0.51617942974E-01  0.51100000000E-03 0. -1.
         11    1    4    4    0    0 -0.46408234579E-01  0.13152721547E-01  0.61634294632E-01  0.78267271043E-01  0.51100000000E-03 0.  1.
</event>
<event>
 8    1  0.1120016E+005  0.1043930E+01  0.7957747E-01            NaN
         13   -1    0    0    0    0  0.00000000000E+00  0.00000000000E+00  0.74505805969E-08  0.10566000000E+00  0.10566000000E+00 0. -1.
     999900   -1    0    0    0    0 -0.00000000000E+00 -0.00000000000E+00 -0.74505805969E-08  0.93827000000E+00  0.93827000000E+00 0.  1.
     999902    2    1    2    0    0 -0.53059632115E-02  0.15664707955E-01  0.16365278074E-01  0.10206628849E+01  0.10203976509E+01 0.  0.
     999903    2    3    3    0    0 -0.10024110559E+00 -0.76545603731E-02 -0.80167392074E-01  0.13000300255E+00  0.19159811494E-01 0.  0.
         14    1    1    2    0    0  0.53059632115E-02 -0.15664707955E-01 -0.16365278074E-01  0.23267115149E-01  0.00000000000E+00 0.  1.
     999901    1    3    3    0    0  0.94935142375E-01  0.23319268328E-01  0.96532670148E-01  0.89065988230E+00  0.88000000000E+00 0.  1.
        -11    1    4    4    0    0 -0.89637172620E-01 -0.77910168534E-02 -0.78189741184E-01  0.11920326928E+00  0.51100000000E-03 0. -1.
         11    1    4    4    0    0 -0.10603932967E-01  0.13645648033E-03 -0.19776508898E-02  0.10799733274E-01  0.51100000000E-03 0.  1.
</event>
<event>
 8    1  0.1120016E+005  0.1043930E+01  0.7957747E-01            NaN
         13   -1    0    0    0    0  0.00000000000E+00  0.00000000000E+00  0.74505805969E-08  0.10566000000E+00  0.10566000000E+00 0. -1.
     999900   -1    0    0    0    0 -0.00000000000E+00 -0.00000000000E+00 -0.74505805969E-08  0.93827000000E+00  0.93827000000E+00 0. -1.
     999902    2    1    2    0    0  0.95773748269E-02  0.15838615066E-01  0.15595490420E-01  0.10197265466E+01  0.10194392687E+01 0.  0.
     999903    2    3    3    0    0  0.77040792546E-01 -0.81635322814E-01  0.63526986415E-01  0.13048534781E+00  0.19777217760E-01 0.  0.
         14    1    1    2    0    0 -0.95773748269E-02 -0.15838615066E-01 -0.15595490420E-01  0.24203453415E-01  0.00000000000E+00 0. -1.
     999901    1    3    3    0    0 -0.67463417719E-01  0.97473937880E-01 -0.47931495995E-01  0.88924119878E+00  0.88000000000E+00 0.  1.
        -11    1    4    4    0    0  0.29262758112E-01 -0.19619685159E-01  0.25202438039E-01  0.43320492404E-01  0.51100000000E-03 0. -1.
         11    1    4    4    0    0  0.47778034434E-01 -0.62015637655E-01  0.38324548376E-01  0.87164855402E-01  0.51100000000E-03 0.  1.
</event>
<event>
 8    1  0.1120016E+005  0.1043930E+01  0.7957747E-01            NaN
         13   -1    0    0    0    0  0.00000000000E+00  0.00000000000E+00  0.74505805969E-08  0.10566000000E+00  0.10566000000E+00 0.  1.
     999900   -1    0    0    0    0 -0.00000000000E+00 -0.00000000000E+00 -0.74505805969E-08  0.93827000000E+00  0.93827000000E+00 0. -1.
     999902    2    1    2    0    0 -0.52512273071E-02 -0.21850862121E-01  0.86218262957E-02  0.10198598639E+01  0.10195757797E+01 0.  0.
     999903    2    3    3    0    0 -0.64304199339E-01  0.10284689959E+00  0.37480948098E-01  0.12864180180E+00  0.20769614661E-01 0.  0.
         14    1    1    2    0    0  0.52512273071E-02  0.21850862121E-01 -0.86218262957E-02  0.24070136109E-01  0.00000000000E+00 0. -1.
     999901    1    3    3    0    0  0.59052972032E-01 -0.12469776171E+00 -0.28859121802E-01  0.89121806209E+00  0.88000000000E+00 0. -1.
        -11    1    4    4    0    0 -0.23102197004E-01  0.35629188723E-01  0.23610773332E-01  0.48588891054E-01  0.51100000000E-03 0. -1.
         11    1    4    4    0    0 -0.41202002335E-01  0.67217710865E-01  0.13870174766E-01  0.80052910749E-01  0.51100000000E-03 0.  1.
</event>
<event>
 8    1  0.1120016E+005  0.1043930E+01  0.7957747E-01            NaN
         13   -1    0    0    0    0  0.00000000000E+00  0.00000000000E+00  0.74505805969E-08  0.10566000000E+00  0.10566000000E+00 0.  1.
     999900   -1    0    0    0    0 -0.00000000000E+00 -0.00000000000E+00 -0.74505805969E-08  0.93827000000E+00  0.93827000000E+00 0. -1.
     999902    2    1    2    0    0  0.13678714420E-01 -0.21497902682E-02  0.19031092674E-01  0.10203946794E+01  0.10201232232E+01 0.  0.
     999903    2    3    3    0    0 -0.80831587029E-01 -0.92126076194E-01 -0.34927485323E-01  0.12913744537E+00  0.20870821476E-01 0.  0.
         14    1    1    2    0    0 -0.13678714420E-01  0.21497902682E-02 -0.19031092674E-01  0.23535320579E-01  0.00000000000E+00 0. -1.
     999901    1    3    3    0    0  0.94510301449E-01  0.89976285926E-01  0.53958577997E-01  0.89125723405E+00  0.88000000000E+00 0.  1.
        -11    1    4    4    0    0 -0.32643226808E-01 -0.50895663068E-01 -0.11649005432E-01  0.61578480204E-01  0.51100000000E-03 0.  1.
         11    1    4    4    0    0 -0.48188360221E-01 -0.41230413126E-01 -0.23278479891E-01  0.67558965166E-01  0.51100000000E-03 0. -1.
</event>
<event>
 8    1  0.1120016E+005  0.1043930E+01  0.7957747E-01            NaN
         13   -1    0    0    0    0  0.00000000000E+00  0.00000000000E+00  0.74505805969E-08  0.10566000000E+00  0.10566000000E+00 0. -1.
     999900   -1    0    0    0    0 -0.00000000000E+00 -0.00000000000E+00 -0.74505805969E-08  0.93827000000E+00  0.93827000000E+00 0. -1.
     999902    2    1    2    0    0  0.52306357440E-02  0.85449852546E-02  0.21317460706E-01  0.10203755852E+01  0.10201036832E+01 0.  0.
     999903    2    3    3    0    0 -0.47096808309E-01  0.77958308344E-01 -0.89343866065E-01  0.12919530042E+00  0.20334504046E-01 0.  0.
         14    1    1    2    0    0 -0.52306357440E-02 -0.85449852546E-02 -0.21317460706E-01  0.23554414750E-01  0.00000000000E+00 0.  1.
     999901    1    3    3    0    0  0.52327444053E-01 -0.69413323090E-01  0.11066132677E+00  0.89118028483E+00  0.88000000000E+00 0.  1.
        -11    1    4    4    0    0 -0.23243739299E-01  0.31566426604E-01 -0.25584325751E-01  0.46813775219E-01  0.51100000000E-03 0.  1.
         11    1    4    4    0    0 -0.23853069010E-01  0.46391881740E-01 -0.63759540314E-01  0.82381525203E-01  0.51100000000E-03 0. -1.
</event>
<event>
 8    1  0.1120016E+005  0.1043930E+01  0.7957747E-01            NaN
         13   -1    0    0    0    0  0.00000000000E+00  0.00000000000E+00  0.74505805969E-08  0.10566000000E+00  0.10566000000E+00 0. -1.
     999900   -1    0    0    0    0 -0.00000000000E+00 -0.00000000000E+00 -0.74505805969E-08  0.93827000000E+00  0.93827000000E+00 0.  1.
     999902    2    1    2    0    0 -0.70018813978E-02 -0.67399180766E-02  0.21817305512E-01  0.10200459539E+01  0.10197662969E+01 0.  0.
     999903    2    3    3    0    0 -0.12727098992E+00  0.14202490663E-01 -0.15567912490E-01  0.13083231394E+00  0.21797221268E-01 0.  0.
         14    1    1    2    0    0  0.70018813978E-02  0.67399180766E-02 -0.21817305512E-01  0.23884046111E-01  0.00000000000E+00 0.  1.
     999901    1    3    3    0    0  0.12026910852E+00 -0.20942408740E-01  0.37385218002E-01  0.88921363995E+00  0.88000000000E+00 0.  1.
        -11    1    4    4    0    0 -0.66570873764E-01  0.15527497581E-01 -0.15593246545E-01  0.70115582246E-01  0.51100000000E-03 0.  1.
         11    1    4    4    0    0 -0.60700116156E-01 -0.13250069174E-02  0.25334055416E-04  0.60716731694E-01  0.51100000000E-03 0. -1.
</event>
<event>
 8    1  0.1120016E+005  0.1043930E+01  0.7957747E-01            NaN
         13   -1    0    0    0    0  0.00000000000E+00  0.00000000000E+00  0.74505805969E-08  0.10566000000E+00  0.10566000000E+00 0. -1.
     999900   -1    0    0    0    0 -0.00000000000E+00 -0.00000000000E+00 -0.74505805969E-08  0.93827000000E+00  0.93827000000E+00 0. -1.
     999902    2    1    2    0    0 -0.11599926467E-01 -0.11132271684E-01  0.18330378461E-01  0.10195478643E+01  0.10192562774E+01 0.  0.
     999903    2    3    3    0    0  0.25908406456E-01  0.56482511415E-01  0.11377048781E+00  0.13101680215E+00  0.18977853582E-01 0.  0.
         14    1    1    2    0    0  0.11599926467E-01  0.11132271684E-01 -0.18330378461E-01  0.24382135703E-01  0.00000000000E+00 0.  1.
     999901    1    3    3    0    0 -0.37508332923E-01 -0.67614783099E-01 -0.95440109353E-01  0.88853106215E+00  0.88000000000E+00 0. -1.
        -11    1    4    4    0    0  0.22984022618E-01  0.40778283150E-01  0.97782307534E-01  0.10841021382E+00  0.51100000000E-03 0.  1.
         11    1    4    4    0    0  0.29243838383E-02  0.15704228264E-01  0.15988180281E-01  0.22606588330E-01  0.51100000000E-03 0. -1.
</event>
<event>
 8    1  0.1120016E+005  0.1043930E+01  0.7957747E-01            NaN
         13   -1    0    0    0    0  0.00000000000E+00  0.00000000000E+00  0.74505805969E-08  0.10566000000E+00  0.10566000000E+00 0. -1.
     999900   -1    0    0    0    0 -0.00000000000E+00 -0.00000000000E+00 -0.74505805969E-08  0.93827000000E+00  0.93827000000E+00 0. -1.
     999902    2    1    2    0    0 -0.82724309391E-02  0.84689054380E-02  0.18150225116E-01  0.10222600636E+01  0.10220303574E+01 0.  0.
     999903    2    3    3    0    0 -0.63353837579E-01  0.11541697420E+00 -0.10828109232E-01  0.13360287735E+00  0.19942272118E-01 0.  0.
         14    1    1    2    0    0  0.82724309391E-02 -0.84689054380E-02 -0.18150225116E-01  0.21669936427E-01  0.00000000000E+00 0.  1.
     999901    1    3    3    0    0  0.55081406640E-01 -0.10694806876E+00  0.28978334349E-01  0.88865718623E+00  0.88000000000E+00 0.  1.
        -11    1    4    4    0    0 -0.44339135366E-02  0.23934619324E-01 -0.18345286227E-02  0.24416228368E-01  0.51100000000E-03 0. -1.
         11    1    4    4    0    0 -0.58919924043E-01  0.91482354873E-01 -0.89935806096E-02  0.10918664898E+00  0.51100000000E-03 0.  1.
</event>
<event>
 8    1  0.1120016E+005  0.1043930E+01  0.7957747E-01            NaN
         13   -1    0    0    0    0  0.00000000000E+00  0.00000000000E+00  0.74505805969E-08  0.10566000000E+00  0.10566000000E+00 0. -1.
     999900   -1    0    0    0    0 -0.00000000000E+00 -0.00000000000E+00 -0.74505805969E-08  0.93827000000E+00  0.93827000000E+00 0.  1.
     999902    2    1    2    0    0  0.57801086011E-02 -0.13236125163E-01 -0.19405416501E-01  0.10197396124E+01  0.10194526483E+01 0.  0.
     999903    2    3    3    0    0  0.67123388743E-01 -0.76290423587E-01 -0.83605316226E-01  0.13302631614E+00  0.19503175029E-01 0.  0.
         14    1    1    2    0    0 -0.57801086011E-02  0.13236125163E-01  0.19405416501E-01  0.24190387644E-01  0.00000000000E+00 0. -1.
     999901    1    3    3    0    0 -0.61343280142E-01  0.63054298424E-01  0.64199899725E-01  0.88671329622E+00  0.88000000000E+00 0. -1.
        -11    1    4    4    0    0  0.41126280541E-01 -0.55635777001E-01 -0.65155201295E-01  0.95037739927E-01  0.51100000000E-03 0.  1.
         11    1    4    4    0    0  0.25997108202E-01 -0.20654646586E-01 -0.18450114931E-01  0.37988576210E-01  0.51100000000E-03 0. -1.
</event>
<event>
 8    1  0.1120016E+005  0.1043930E+01  0.7957747E-01            NaN
         13   -1    0    0    0    0  0.00000000000E+00  0.00000000000E+00  0.74505805969E-08  0.10566000000E+00  0.10566000000E+00 0. -1.
     999900   -1    0    0    0    0 -0.00000000000E+00 -0.00000000000E+00 -0.74505805969E-08  0.93827000000E+00  0.93827000000E+00 0. -1.
     999902    2    1    2    0    0 -0.43350735345E-02  0.79551955328E-04  0.23219834475E-01  0.10203088251E+01  0.10200353615E+01 0.  0.
     999903    2    3    3    0    0  0.55469238178E-01 -0.11034204820E+00  0.39858514593E-01  0.13123833792E+00  0.19560065666E-01 0.  0.
         14    1    1    2    0    0  0.43350735345E-02 -0.79551955328E-04 -0.23219834475E-01  0.23621174910E-01  0.00000000000E+00 0.  1.
     999901    1    3    3    0    0 -0.59804311712E-01  0.11042160016E+00 -0.16638680118E-01  0.88907048717E+00  0.88000000000E+00 0. -1.
        -11    1    4    4    0    0  0.32286136209E-01 -0.79716261528E-01  0.21456116377E-01  0.88643685586E-01  0.51100000000E-03 0. -1.
         11    1    4    4    0    0  0.23183101969E-01 -0.30625786675E-01  0.18402398216E-01  0.42594652334E-01  0.51100000000E-03 0.  1.
</event>
<event>
 8    1  0.1120016E+005  0.1043930E+01  0.7957747E-01            NaN
         13   -1    0    0    0    0  0.00000000000E+00  0.00000000000E+00  0.74505805969E-08  0.10566000000E+00  0.10566000000E+00 0.  1.
     999900   -1    0    0    0    0 -0.00000000000E+00 -0.00000000000E+00 -0.74505805969E-08  0.93827000000E+00  0.93827000000E+00 0.  1.
     999902    2    1    2    0    0 -0.57017438184E-02  0.14840621598E-01 -0.16650912198E-01  0.10209081233E+01  0.10206485141E+01 0.  0.
     999903    2    3    3    0    0 -0.49269984808E-01 -0.11570471616E+00 -0.26748274902E-01  0.13015437862E+00  0.20238066141E-01 0.  0.
         14    1    1    2    0    0  0.57017438184E-02 -0.14840621598E-01  0.16650912198E-01  0.23021876749E-01  0.00000000000E+00 0.  1.
     999901    1    3    3    0    0  0.43568240989E-01  0.13054533776E+00  0.10097362704E-01  0.89075374463E+00  0.88000000000E+00 0. -1.
        -11    1    4    4    0    0 -0.30590771131E-01 -0.84273806058E-01 -0.10951365386E-01  0.90321997270E-01  0.51100000000E-03 0.  1.
         11    1    4    4    0    0 -0.18679213676E-01 -0.31430910098E-01 -0.15796909516E-01  0.39832381355E-01  0.51100000000E-03 0. -1.
</event>
<event>
 8    1  0.1120016E+005  0.1043930E+01  0.7957747E-01            NaN
         13   -1    0    0    0    0  0.00000000000E+00  0.00000000000E+00  0.74505805969E-08  0.10566000000E+00  0.10566000000E+00 0. -1.
     999900   -1    0    0    0    0 -0.00000000000E+00 -0.00000000000E+00 -0.74505805969E-08  0.93827000000E+00  0.93827000000E+00 0.  1.
     999902    2    1    2    0    0 -0.26251660624E-02 -0.84863728247E-02 -0.21440928121E-01  0.10207217381E+01  0.10204578596E+01 0.  0.
     999903    2    3    3    0    0 -0.82418506537E-01 -0.35141656797E-01 -0.96702088065E-01  0.13351165954E+00  0.21126361126E-01 0.  0.
         14    1    1    2    0    0  0.26251660624E-02  0.84863728247E-02  0.21440928121E-01  0.23208261875E-01  0.00000000000E+00 0. -1.
     999901    1    3    3    0    0  0.79793340474E-01  0.26655283973E-01  0.75261159944E-01  0.88721007859E+00  0.88000000000E+00 0. -1.
        -11    1    4    4    0    0 -0.47255482696E-01 -0.12162886890E-01 -0.40944845489E-01  0.63700533400E-01  0.51100000000E-03 0.  1.
         11    1    4    4    0    0 -0.35163023841E-01 -0.22978769908E-01 -0.55757242576E-01  0.69811126139E-01  0.51100000000E-03 0. -1.
</event>
<event>
 8    1  0.1120016E+005  0.1043930E+01  0.7957747E-01            NaN
         13   -1    0    0    0    0  0.00000000000E+00  0.00000000000E+00  0.74505805969E-08  0.10566000000E+00  0.10566000000E+00 0. -1.
     999900   -1    0    0    0    0 -0.00000000000E+00 -0.00000000000E+00 -0.74505805969E-08  0.93827000000E+00  0.93827000000E+00 0. -1.
     999902    2    1    2    0    0  0.11308623303E-01 -0.14773076142E-01  0.14204948650E-01  0.10205225374E+01  0.10202540566E+01 0.  0.
     999903    2    3    3    0    0 -0.79875824746E-01 -0.40619222735E-01 -0.90916144944E-01  0.12921278698E+00  0.20003256553E-01 0.  0.
         14    1    1    2    0    0 -0.11308623303E-01  0.14773076142E-01 -0.14204948650E-01  0.23407462611E-01  0.00000000000E+00 0.  1.
     999901    1    3    3    0    0  0.91184448049E-01  0.25846146592E-01  0.10512109359E+00  0.89130975041E+00  0.88000000000E+00 0. -1.
        -11    1    4    4    0    0 -0.70708870825E-01 -0.33195903419E-01 -0.86640473749E-01  0.11665566951E+00  0.51100000000E-03 0. -1.
         11    1    4    4    0    0 -0.91669539212E-02 -0.74233193159E-02 -0.42756711950E-02  0.12557117465E-01  0.51100000000E-03 0.  1.
</event>
<event>
 8    1  0.1120016E+005  0.1043930E+01  0.7957747E-01            NaN
         13   -1    0    0    0    0  0.00000000000E+00  0.00000000000E+00  0.74505805969E-08  0.10566000000E+00  0.10566000000E+00 0.  1.
     999900   -1    0    0    0    0 -0.00000000000E+00 -0.00000000000E+00 -0.74505805969E-08  0.93827000000E+00  0.93827000000E+00 0. -1.
     999902    2    1    2    0    0 -0.25744832599E-02  0.18812846667E-01 -0.13735114008E-01  0.10204948870E+01  0.10202257642E+01 0.  0.
     999903    2    3    3    0    0  0.69065581188E-01  0.41813350483E-01 -0.10346075484E+00  0.13273815647E+00  0.19921837430E-01 0.  0.
         14    1    1    2    0    0  0.25744832599E-02 -0.18812846667E-01  0.13735114008E-01  0.23435112984E-01  0.00000000000E+00 0.  1.
     999901    1    3    3    0    0 -0.71640064447E-01 -0.23000503817E-01  0.89725640835E-01  0.88775673055E+00  0.88000000000E+00 0.  1.
        -11    1    4    4    0    0  0.91520277732E-02  0.85434705511E-02 -0.68275953549E-02  0.14269817124E-01  0.51100000000E-03 0.  1.
         11    1    4    4    0    0  0.59913553414E-01  0.33269879932E-01 -0.96633159488E-01  0.11846833934E+00  0.51100000000E-03 0. -1.
</event>
<event>
 8    1  0.1120016E+005  0.1043930E+01  0.7957747E-01            NaN
         13   -1    0    0    0    0  0.00000000000E+00  0.00000000000E+00  0.74505805969E-08  0.10566000000E+00  0.10566000000E+00 0.  1.
     999900   -1    0    0    0    0 -0.00000000000E+00 -0.00000000000E+00 -0.74505805969E-08  0.93827000000E+00  0.93827000000E+00 0. -1.
     999902    2    1    2    0    0  0.22323679598E-01  0.70371457082E-02  0.44495732036E-02  0.10201042410E+01  0.10198259634E+01 0.  0.
     999903    2    3    3    0    0 -0.61005059617E-01 -0.10467623788E+00  0.37781856832E-01  0.12851319125E+00  0.20234612548E-01 0.  0.
         14    1    1    2    0    0 -0.22323679598E-01 -0.70371457082E-02 -0.44495732036E-02  0.23825759006E-01  0.00000000000E+00 0.  1.
     999901    1    3    3    0    0  0.83328739214E-01  0.11171338358E+00 -0.33332283628E-01  0.89159104974E+00  0.88000000000E+00 0. -1.
        -11    1    4    4    0    0 -0.25340478628E-01 -0.25731097056E-01  0.89198979894E-02  0.37202888516E-01  0.51100000000E-03 0.  1.
         11    1    4    4    0    0 -0.35664580989E-01 -0.78945140821E-01  0.28861958842E-01  0.91310302735E-01  0.51100000000E-03 0. -1.
</event>
<event>
 8    1  0.1120016E+005  0.1043930E+01  0.7957747E-01            NaN
         13   -1    0    0    0    0  0.00000000000E+00  0.00000000000E+00  0.74505805969E-08  0.10566000000E+00  0.10566000000E+00 0. -1.
     999900   -1    0    0    0    0 -0.00000000000E+00 -0.00000000000E+00 -0.74505805969E-08  0.93827000000E+00  0.93827000000E+00 0. -1.
     999902    2    1    2    0    0 -0.34120200190E-02 -0.19418756364E-01  0.13776501453E-01  0.10198775163E+01  0.10195938536E+01 0.  0.
     999903    2    3    3    0    0 -0.90936699756E-01 -0.92406663547E-01  0.18412198227E-01  0.13251665745E+00  0.20326844985E-01 0.  0.
         14    1    1    2    0    0  0.34120200190E-02  0.19418756364E-01 -0.13776501453E-01  0.24052483689E-01  0.00000000000E+00 0.  1.
     999901    1    3    3    0    0  0.87524679737E-01  0.72987907183E-01 -0.46356967739E-02  0.88736085886E+00  0.88000000000E+00 0. -1.
        -11    1    4    4    0    0 -0.54544233591E-01 -0.49758205598E-01  0.19767576590E-01  0.76432785162E-01  0.51100000000E-03 0.  1.
         11    1    4    4    0    0 -0.36392466165E-01 -0.42648457949E-01 -0.13553783635E-02  0.56083872285E-01  0.51100000000E-03 0. -1.
</event>
<event>
 8    1  0.1120016E+005  0.1043930E+01  0.7957747E-01            NaN
         13   -1    0    0    0    0  0.00000000000E+00  0.00000000000E+00  0.74505805969E-08  0.10566000000E+00  0.10566000000E+00 0.  1.
     999900   -1    0    0    0    0 -0.00000000000E+00 -0.00000000000E+00 -0.74505805969E-08  0.93827000000E+00  0.93827000000E+00 0.  1.
     999902    2    1    2    0    0 -0.21887756558E-01 -0.90066392184E-02  0.33566744939E-02  0.10200247558E+01  0.10197445963E+01 0.  0.
     999903    2    3    3    0    0  0.96060204726E-01 -0.44585066639E-01 -0.69410563087E-01  0.12846846652E+00  0.21700910647E-01 0.  0.
         14    1    1    2    0    0  0.21887756558E-01  0.90066392184E-02 -0.33566744939E-02  0.23905244212E-01  0.00000000000E+00 0. -1.
     999901    1    3    3    0    0 -0.11794796128E+00  0.35578427420E-01  0.72767237581E-01  0.89155628927E+00  0.88000000000E+00 0. -1.
        -11    1    4    4    0    0  0.23541504231E-02 -0.64302488113E-02 -0.54830530753E-02  0.87872132110E-02  0.51100000000E-03 0.  1.
         11    1    4    4    0    0  0.93706054303E-01 -0.38154817827E-01 -0.63927510012E-01  0.11968125331E+00  0.51100000000E-03 0. -1.
</event>
<event>
 8    1  0.1120016E+005  0.1043930E+01  0.7957747E-01            NaN
         13   -1    0    0    0    0  0.00000000000E+00  0.00000000000E+00  0.74505805969E-08  0.10566000000E+00  0.10566000000E+00 0.  1.
     999900   -1    0    0    0    0 -0.00000000000E+00 -0.00000000000E+00 -0.74505805969E-08  0.93827000000E+00  0.93827000000E+00 0. -1.
     999902    2    1    2    0    0 -0.13132618649E-01 -0.20959976521E-01 -0.32880817124E-02  0.10189780909E+01  0.10186725440E+01 0.  0.
     999903    2    3    3    0    0 -0.64499169922E-01 -0.37667435362E-01 -0.10620920846E+00  0.13133490799E+00  0.19735335967E-01 0.  0.
         14    1    1    2    0    0  0.13132618649E-01  0.20959976521E-01  0.32880817124E-02  0.24951909140E-01  0.00000000000E+00 0.  1.
     999901    1    3    3    0    0  0.51366551272E-01  0.16707458841E-01  0.10292112675E+00  0.88764318287E+00  0.88000000000E+00 0.  1.
        -11    1    4    4    0    0 -0.55182277666E-01 -0.25783939132E-01 -0.74664116476E-01  0.96358116916E-01  0.51100000000E-03 0.  1.
         11    1    4    4    0    0 -0.93168922558E-02 -0.11883496230E-01 -0.31545091989E-01  0.34976791070E-01  0.51100000000E-03 0. -1.
</event>
<event>
 8    1  0.1120016E+005  0.1043930E+01  0.7957747E-01            NaN
         13   -1    0    0    0    0  0.00000000000E+00  0.00000000000E+00  0.74505805969E-08  0.10566000000E+00  0.10566000000E+00 0.  1.
     999900   -1    0    0    0    0 -0.00000000000E+00 -0.00000000000E+00 -0.74505805969E-08  0.93827000000E+00  0.93827000000E+00 0.  1.
     999902    2    1    2    0    0 -0.10147243784E-01  0.20685164878E-01 -0.10567642849E-01  0.10185820676E+01  0.10182666206E+01 0.  0.
     999903    2    3    3    0    0 -0.13722888789E-01  0.31374921770E-01 -0.12547666543E+00  0.13103987726E+00  0.15948431615E-01 0.  0.
         14    1    1    2    0    0  0.10147243784E-01 -0.20685164878E-01  0.10567642849E-01  0.25347932417E-01  0.00000000000E+00 0. -1.
     999901    1    3    3    0    0  0.35756450048E-02 -0.10689756892E-01  0.11490902258E+00  0.88754219033E+00  0.88000000000E+00 0. -1.
        -11    1    4    4    0    0 -0.16623314727E-03  0.17675754959E-01 -0.73649966282E-01  0.75743241290E-01  0.51100000000E-03 0. -1.
         11    1    4    4    0    0 -0.13556655642E-01  0.13699166811E-01 -0.51826699148E-01  0.55296635966E-01  0.51100000000E-03 0.  1.
</event>
<event>
 8    1  0.1120016E+005  0.1043930E+01  0.7957747E-01            NaN
         13   -1    0    0    0    0  0.00000000000E+00  0.00000000000E+00  0.74505805969E-08  0.10566000000E+00  0.10566000000E+00 0.  1.
     999900   -1    0    0    0    0 -0.00000000000E+00 -0.00000000000E+00 -0.74505805969E-08  0.93827000000E+00  0.93827000000E+00 0. -1.
     999902    2    1    2    0    0  0.57257325113E-02  0.19494418206E-01 -0.13108564967E-01  0.10197504460E+01  0.10194637421E+01 0.  0.
     999903    2    3    3    0    0  0.12559481246E+00 -0.17831352738E-01  0.21049717790E-01  0.13018392364E+00  0.20316232353E-01 0.  0.
         14    1    1    2    0    0 -0.57257325113E-02 -0.19494418206E-01  0.13108564967E-01  0.24179553955E-01  0.00000000000E+00 0. -1.
     999901    1    3    3    0    0 -0.11986907995E+00  0.37325770944E-01 -0.34158282757E-01  0.88956652241E+00  0.88000000000E+00 0. -1.
        -11    1    4    4    0    0  0.10436906898E+00 -0.12698286834E-01  0.24788757994E-01  0.10802264898E+00  0.51100000000E-03 0.  1.
         11    1    4    4    0    0  0.21225743478E-01 -0.51330659031E-02 -0.37390402041E-02  0.22161274657E-01  0.51100000000E-03 0. -1.
</event>
<event>
 8    1  0.1120016E+005  0.1043930E+01  0.7957747E-01            NaN
         13   -1    0    0    0    0  0.00000000000E+00  0.00000000000E+00  0.74505805969E-08  0.10566000000E+00  0.10566000000E+00 0.  1.
     999900   -1    0    0    0    0 -0.00000000000E+00 -0.00000000000E+00 -0.74505805969E-08  0.93827000000E+00  0.93827000000E+00 0.  1.
     999902    2    1    2    0    0 -0.11077985182E-03  0.22054654770E-01 -0.13660848898E-01  0.10179870075E+01  0.10176563804E+01 0.  0.
     999903    2    3    3    0    0 -0.93545815325E-01 -0.27942826259E-01 -0.82063920256E-01  0.12899384993E+00  0.19321107851E-01 0.  0.
         14    1    1    2    0    0  0.11077985182E-03 -0.22054654770E-01  0.13660848898E-01  0.25942992537E-01  0.00000000000E+00 0.  1.
     999901    1    3    3    0    0  0.93435035473E-01  0.49997481028E-01  0.68403071359E-01  0.88899315753E+00  0.88000000000E+00 0.  1.
        -11    1    4    4    0    0 -0.84302131367E-01 -0.18861509645E-01 -0.73774467669E-01  0.11360254883E+00  0.51100000000E-03 0. -1.
         11    1    4    4    0    0 -0.92436839581E-02 -0.90813166132E-02 -0.82894525875E-02  0.15391301106E-01  0.51100000000E-03 0.  1.
</event>
<event>
 8    1  0.1120016E+005  0.1043930E+01  0.7957747E-01            NaN
         13   -1    0    0    0    0  0.00000000000E+00  0.00000000000E+00  0.74505805969E-08  0.10566000000E+00  0.10566000000E+00 0. -1.
     999900   -1    0    0    0    0 -0.00000000000E+00 -0.00000000000E+00 -0.74505805969E-08  0.93827000000E+00  0.93827000000E+00 0. -1.
     999902    2    1    2    0    0  0.24663299291E-02 -0.23173486215E-01  0.45809393309E-02  0.10201796684E+01  0.10199031707E+01 0.  0.
     999903    2    3    3    0    0  0.12741737645E+00 -0.21688730722E-01 -0.11710798868E-01  0.13120250937E+00  0.19270879410E-01 0.  0.
         14    1    1    2    0    0 -0.24663299291E-02  0.23173486215E-01 -0.45809393309E-02  0.23750331615E-01  0.00000000000E+00 0.  1.
     999901    1    3    3    0    0 -0.12495104652E+00 -0.14847554924E-02  0.16291738199E-01  0.88897715902E+00  0.88000000000E+00 0. -1.
        -11    1    4    4    0    0  0.31229198814E-01 -0.13800291390E-01 -0.40708652525E-02  0.34388136993E-01  0.51100000000E-03 0.  1.
         11    1    4    4    0    0  0.96188177632E-01 -0.78884393327E-02 -0.76399336155E-02  0.96814372373E-01  0.51100000000E-03 0. -1.
</event>
<event>
 7    1  0.1245834E+005  0.1043930E+01  0.7957747E-01            NaN
         13   -1    0    0    0    0  0.00000000000E+00  0.00000000000E+00  0.74505805969E-08  0.10566000000E+00  0.10566000000E+00 0. -1.
     999900   -1    0    0    0    0 -0.00000000000E+00 -0.00000000000E+00 -0.74505805969E-08  0.93827000000E+00  0.93827000000E+00 0.  1.
     999903    2    1    2    0    0  0.26249358934E-01 -0.54293547860E-01 -0.55385124848E-01  0.84347630212E-01  0.20253209235E-01 0.  0.
         14    1    1    2    0    0  0.22872188810E-01 -0.11588327483E-01 -0.62851131266E-01  0.67879975370E-01  0.00000000000E+00 0.  1.
     999901    1    1    2    0    0 -0.49121547744E-01  0.65881875342E-01  0.11823625611E+00  0.89170239442E+00  0.88000000000E+00 0. -1.
        -11    1    3    3    0    0  0.20353752034E-01 -0.51409525997E-01 -0.42019156056E-01  0.69448435416E-01  0.51100000000E-03 0.  1.
         11    1    3    3    0    0  0.58956068995E-02 -0.28840218630E-02 -0.13365968791E-01  0.14899194796E-01  0.51100000000E-03 0. -1.
</event>
<event>
 8    1  0.1120016E+005  0.1043930E+01  0.7957747E-01            NaN
         13   -1    0    0    0    0  0.00000000000E+00  0.00000000000E+00  0.74505805969E-08  0.10566000000E+00  0.10566000000E+00 0.  1.
     999900   -1    0    0    0    0 -0.00000000000E+00 -0.00000000000E+00 -0.74505805969E-08  0.93827000000E+00  0.93827000000E+00 0.  1.
     999902    2    1    2    0    0 -0.99235822896E-02 -0.21060593558E-01 -0.73139395000E-02  0.10195267257E+01  0.10192346269E+01 0.  0.
     999903    2    3    3    0    0  0.20806558892E-01 -0.83120606107E-01  0.97033823930E-01  0.13065989512E+00  0.17734067618E-01 0.  0.
         14    1    1    2    0    0  0.99235822896E-02  0.21060593558E-01  0.73139395000E-02  0.24403274319E-01  0.00000000000E+00 0.  1.
     999901    1    3    3    0    0 -0.30730141182E-01  0.62060012549E-01 -0.10434776343E+00  0.88886683056E+00  0.88000000000E+00 0.  1.
        -11    1    4    4    0    0  0.14254767027E-01 -0.68640074682E-01  0.87491439412E-01  0.11211454556E+00  0.51100000000E-03 0.  1.
         11    1    4    4    0    0  0.65517918648E-02 -0.14480531425E-01  0.95423845186E-02  0.18545349560E-01  0.51100000000E-03 0. -1.
</event>
<event>
 8    1  0.1120016E+005  0.1043930E+01  0.7957747E-01            NaN
         13   -1    0    0    0    0  0.00000000000E+00  0.00000000000E+00  0.74505805969E-08  0.10566000000E+00  0.10566000000E+00 0.  1.
     999900   -1    0    0    0    0 -0.00000000000E+00 -0.00000000000E+00 -0.74505805969E-08  0.93827000000E+00  0.93827000000E+00 0.  1.
     999902    2    1    2    0    0  0.61521285509E-02 -0.67474568048E-02 -0.21805652722E-01  0.10202897092E+01  0.10200157976E+01 0.  0.
     999903    2    3    3    0    0  0.40712113649E-01 -0.96644897205E-01  0.73415508036E-01  0.12992853988E+00  0.22223327854E-01 0.  0.
         14    1    1    2    0    0 -0.61521285509E-02  0.67474568048E-02  0.21805652722E-01  0.23640290812E-01  0.00000000000E+00 0.  1.
     999901    1    3    3    0    0 -0.34559985099E-01  0.89897440400E-01 -0.95221160758E-01  0.89036116931E+00  0.88000000000E+00 0.  1.
        -11    1    4    4    0    0  0.17097432996E-01 -0.43287193146E-01  0.46062171239E-01  0.65483494453E-01  0.51100000000E-03 0.  1.
         11    1    4    4    0    0  0.23614680653E-01 -0.53357704059E-01  0.27353336797E-01  0.64445045424E-01  0.51100000000E-03 0. -1.
</event>
<event>
 8    1  0.1120016E+005  0.1043930E+01  0.7957747E-01            NaN
         13   -1    0    0    0    0  0.00000000000E+00  0.00000000000E+00  0.74505805969E-08  0.10566000000E+00  0.10566000000E+00 0.  1.
     999900   -1    0    0    0    0 -0.00000000000E+00 -0.00000000000E+00 -0.74505805969E-08  0.93827000000E+00  0.93827000000E+00 0. -1.
     999902    2    1    2    0    0  0.16891011542E-01  0.17329489692E-01 -0.81269758237E-02  0.10184022657E+01  0.10180822705E+01 0.  0.
     999903    2    3    3    0    0 -0.57873989589E-01 -0.10191263896E+00  0.41358816996E-01  0.12584563759E+00  0.19773419172E-01 0.  0.
         14    1    1    2    0    0 -0.16891011542E-01 -0.17329489692E-01  0.81269758237E-02  0.25527734329E-01  0.00000000000E+00 0.  1.
     999901    1    3    3    0    0  0.74765001131E-01  0.11924212866E+00 -0.49485792819E-01  0.89255662808E+00  0.88000000000E+00 0.  1.
        -11    1    4    4    0    0 -0.45017517424E-01 -0.75954170122E-01  0.39748084101E-01  0.96828632876E-01  0.51100000000E-03 0. -1.
         11    1    4    4    0    0 -0.12856472165E-01 -0.25958468841E-01  0.16107328947E-02  0.29017004714E-01  0.51100000000E-03 0.  1.
</event>
<event>
 8    1  0.1120016E+005  0.1043930E+01  0.7957747E-01            NaN
         13   -1    0    0    0    0  0.00000000000E+00  0.00000000000E+00  0.74505805969E-08  0.10566000000E+00  0.10566000000E+00 0.  1.
     999900   -1    0    0    0    0 -0.00000000000E+00 -0.00000000000E+00 -0.74505805969E-08  0.93827000000E+00  0.93827000000E+00 0. -1.
     999902    2    1    2    0    0  0.13659213282E-01 -0.51414912729E-02 -0.18896559121E-01  0.10200534637E+01  0.10197739847E+01 0.  0.
     999903    2    3    3    0    0  0.10480550841E+00  0.70327208498E-01 -0.28563423588E-01  0.13208014199E+00  0.26442085635E-01 0.  0.
         14    1    1    2    0    0 -0.13659213282E-01  0.51414912729E-02  0.18896559121E-01  0.23876536319E-01  0.00000000000E+00 0.  1.
     999901    1    3    3    0    0 -0.91146295132E-01 -0.75468699771E-01  0.96668644668E-02  0.88797332169E+00  0.88000000000E+00 0.  1.
        -11    1    4    4    0    0  0.31643759830E-01  0.13821430989E-01 -0.18258682249E-01  0.39064051111E-01  0.51100000000E-03 0.  1.
         11    1    4    4    0    0  0.73161748584E-01  0.56505777509E-01 -0.10304741339E-01  0.93016090881E-01  0.51100000000E-03 0. -1.
</event>
<event>
 8    1  0.1120016E+005  0.1043930E+01  0.7957747E-01            NaN
         13   -1    0    0    0    0  0.00000000000E+00  0.00000000000E+00  0.74505805969E-08  0.10566000000E+00  0.10566000000E+00 0. -1.
     999900   -1    0    0    0    0 -0.00000000000E+00 -0.00000000000E+00 -0.74505805969E-08  0.93827000000E+00  0.93827000000E+00 0. -1.
     999902    2    1    2    0    0  0.15393554342E-01 -0.15758614885E-01 -0.10655815167E-01  0.10194587545E+01  0.10191650064E+01 0.  0.
     999903    2    3    3    0    0  0.10117959361E+00 -0.60334008753E-02  0.79993000496E-01  0.13059935501E+00  0.19585691487E-01 0.  0.
         14    1    1    2    0    0 -0.15393554342E-01  0.15758614885E-01  0.10655815167E-01  0.24471245478E-01  0.00000000000E+00 0. -1.
     999901    1    3    3    0    0 -0.85786039269E-01 -0.97252140099E-02 -0.90648815664E-01  0.88885939951E+00  0.88000000000E+00 0. -1.
        -11    1    4    4    0    0  0.32282696204E-01 -0.48009753735E-02  0.37167530941E-01  0.49466234100E-01  0.51100000000E-03 0.  1.
         11    1    4    4    0    0  0.68896897407E-01 -0.12324255018E-02  0.42825469555E-01  0.81133120909E-01  0.51100000000E-03 0. -1.
</event>
<event>
 8    1  0.1120016E+005  0.1043930E+01  0.7957747E-01            NaN
         13   -1    0    0    0    0  0.00000000000E+00  0.00000000000E+00  0.74505805969E-08  0.10566000000E+00  0.10566000000E+00 0. -1.
     999900   -1    0    0    0    0 -0.00000000000E+00 -0.00000000000E+00 -0.74505805969E-08  0.93827000000E+00  0.93827000000E+00 0. -1.
     999902    2    1    2    0    0  0.22612969577E-01  0.84290214546E-02  0.23941404617E-03  0.10197959553E+01  0.10195103424E+01 0.  0.
     999903    2    3    3    0    0  0.56943592213E-01  0.11144301804E+00  0.37788594608E-01  0.13232741155E+00  0.20504804344E-01 0.  0.
         14    1    1    2    0    0 -0.22612969577E-01 -0.84290214546E-02 -0.23941404617E-03  0.24134044726E-01  0.00000000000E+00 0.  1.
     999901    1    3    3    0    0 -0.34330622636E-01 -0.10301399658E+00 -0.37549180562E-01  0.88746854373E+00  0.88000000000E+00 0. -1.
        -11    1    4    4    0    0  0.36473751543E-01  0.50150412145E-01  0.22041439158E-01  0.65814014854E-01  0.51100000000E-03 0. -1.
         11    1    4    4    0    0  0.20469840669E-01  0.61292605892E-01  0.15747155450E-01  0.66513396694E-01  0.51100000000E-03 0.  1.
</event>
<event>
 8    1  0.1120016E+005  0.1043930E+01  0.7957747E-01            NaN
         13   -1    0    0    0    0  0.00000000000E+00  0.00000000000E+00  0.74505805969E-08  0.10566000000E+00  0.10566000000E+00 0. -1.
     999900   -1    0    0    0    0 -0.00000000000E+00 -0.00000000000E+00 -0.74505805969E-08  0.93827000000E+00  0.93827000000E+00 0.  1.
     999902    2    1    2    0    0 -0.33728474221E-02 -0.20546155935E-01  0.13387207715E-01  0.10191764557E+01  0.10188758069E+01 0.  0.
     999903    2    3    3    0    0  0.47029317855E-01  0.68934825230E-01 -0.93393813646E-01  0.12679233957E+00  0.19751609525E-01 0.  0.
         14    1    1    2    0    0  0.33728474221E-02  0.20546155935E-01 -0.13387207715E-01  0.24753544269E-01  0.00000000000E+00 0. -1.
     999901    1    3    3    0    0 -0.50402165277E-01 -0.89480981165E-01  0.10678102136E+00  0.89238411616E+00  0.88000000000E+00 0. -1.
        -11    1    4    4    0    0  0.14295377328E-01  0.76308571971E-02 -0.16097891312E-01  0.22847122799E-01  0.51100000000E-03 0. -1.
         11    1    4    4    0    0  0.32733940527E-01  0.61303968033E-01 -0.77295922334E-01  0.10394521677E+00  0.51100000000E-03 0.  1.
</event>
<event>
 8    1  0.1120016E+005  0.1043930E+01  0.7957747E-01            NaN
         13   -1    0    0    0    0  0.00000000000E+00  0.00000000000E+00  0.74505805969E-08  0.10566000000E+00  0.10566000000E+00 0.  1.
     999900   -1    0    0    0    0 -0.00000000000E+00 -0.00000000000E+00 -0.74505805969E-08  0.93827000000E+00  0.93827000000E+00 0. -1.
     999902    2    1    2    0    0 -0.70167354166E-02  0.10751258191E-01 -0.20716149159E-01  0.10195582343E+01  0.10192668984E+01 0.  0.
     999903    2    3    3    0    0  0.53978564869E-01  0.80996587092E-01  0.81911838610E-01  0.12872304370E+00  0.19645357959E-01 0.  0.
         14    1    1    2    0    0  0.70167354166E-02 -0.10751258191E-01  0.20716149159E-01  0.24371765726E-01  0.00000000000E+00 0. -1.
     999901    1    3    3    0    0 -0.60995300286E-01 -0.70245328901E-01 -0.10262798777E+00  0.89083519057E+00  0.88000000000E+00 0. -1.
        -11    1    4    4    0    0  0.45084642978E-01  0.53663570604E-01  0.63550903549E-01  0.94611745071E-01  0.51100000000E-03 0.  1.
         11    1    4    4    0    0  0.88939218908E-02  0.27333016488E-01  0.18360935062E-01  0.34111298631E-01  0.51100000000E-03 0. -1.
</event>
<event>
 8    1  0.1120016E+005  0.1043930E+01  0.7957747E-01            NaN
         13   -1    0    0    0    0  0.00000000000E+00  0.00000000000E+00  0.74505805969E-08  0.10566000000E+00  0.10566000000E+00 0. -1.
     999900   -1    0    0    0    0 -0.00000000000E+00 -0.00000000000E+00 -0.74505805969E-08  0.93827000000E+00  0.93827000000E+00 0.  1.
     999902    2    1    2    0    0  0.11822015503E-01  0.17926623508E-01 -0.11186220624E-01  0.10197172882E+01  0.10194297879E+01 0.  0.
     999903    2    3    3    0    0  0.68382218598E-01 -0.10183849268E+00 -0.36187948056E-01  0.12945450340E+00  0.20042316540E-01 0.  0.
         14    1    1    2    0    0 -0.11822015503E-01 -0.17926623508E-01  0.11186220624E-01  0.24212711802E-01  0.00000000000E+00 0. -1.
     999901    1    3    3    0    0 -0.56560203095E-01  0.11976511619E+00  0.25001727431E-01  0.89026278480E+00  0.88000000000E+00 0. -1.
        -11    1    4    4    0    0  0.46953980581E-01 -0.80660024000E-01 -0.33658086726E-01  0.99216146303E-01  0.51100000000E-03 0.  1.
         11    1    4    4    0    0  0.21428238017E-01 -0.21178468684E-01 -0.25298613294E-02  0.30238357093E-01  0.51100000000E-03 0. -1.
</event>
<event>
 8    1  0.1120016E+005  0.1043930E+01  0.7957747E-01            NaN
         13   -1    0    0    0    0  0.00000000000E+00  0.00000000000E+00  0.74505805969E-08  0.10566000000E+00  0.10566000000E+00 0. -1.
     999900   -1    0    0    0    0 -0.00000000000E+00 -0.00000000000E+00 -0.74505805969E-08  0.93827000000E+00  0.93827000000E+00 0. -1.
     999902    2    1    2    0    0  0.52925791921E-02  0.20472294369E-01  0.10386840888E-01  0.10203712926E+01  0.10200992903E+01 0.  0.
     999903    2    3    3    0    0 -0.46525184403E-01 -0.11745426305E+00 -0.77655442885E-02  0.12793735949E+00  0.18643164466E-01 0.  0.
         14    1    1    2    0    0 -0.52925791921E-02 -0.20472294369E-01 -0.10386840888E-01  0.23558707411E-01  0.00000000000E+00 0. -1.
     999901    1    3    3    0    0  0.51817763596E-01  0.13792655742E+00  0.18152385177E-01  0.89243393310E+00  0.88000000000E+00 0.  1.
        -11    1    4    4    0    0 -0.30782146771E-01 -0.52472393336E-01 -0.34869513368E-02  0.60936955723E-01  0.51100000000E-03 0.  1.
         11    1    4    4    0    0 -0.15743037633E-01 -0.64981869716E-01 -0.42785929517E-02  0.67000403763E-01  0.51100000000E-03 0. -1.
</event>
<event>
 8    1  0.1120016E+005  0.1043930E+01  0.7957747E-01            NaN
         13   -1    0    0    0    0  0.00000000000E+00  0.00000000000E+00  0.74505805969E-08  0.10566000000E+00  0.10566000000E+00 0. -1.
     999900   -1    0    0    0    0 -0.00000000000E+00 -0.00000000000E+00 -0.74505805969E-08  0.93827000000E+00  0.93827000000E+00 0. -1.
     999902    2    1    2    0    0 -0.10099850866E-01 -0.22781888960E-02 -0.22101440743E-01  0.10195236317E+01  0.10192314579E+01 0.  0.
     999903    2    3    3    0    0 -0.24425135723E-01  0.10435228666E+00 -0.72527303450E-01  0.13153824906E+00  0.23582074383E-01 0.  0.
         14    1    1    2    0    0  0.10099850866E-01  0.22781888960E-02  0.22101440743E-01  0.24406368330E-01  0.00000000000E+00 0. -1.
     999901    1    3    3    0    0  0.14325284857E-01 -0.10663047556E+00  0.50425862707E-01  0.88798538261E+00  0.88000000000E+00 0.  1.
        -11    1    4    4    0    0 -0.19137366887E-01  0.61819230410E-01 -0.56060028753E-01  0.85620348076E-01  0.51100000000E-03 0.  1.
         11    1    4    4    0    0 -0.52877688362E-02  0.42533056254E-01 -0.16467274696E-01  0.45917900981E-01  0.51100000000E-03 0. -1.
</event>
<event>
 8    1  0.1120016E+005  0.1043930E+01  0.7957747E-01            NaN
         13   -1    0    0    0    0  0.00000000000E+00  0.00000000000E+00  0.74505805969E-08  0.10566000000E+00  0.10566000000E+00 0. -1.
     999900   -1    0    0    0    0 -0.00000000000E+00 -0.00000000000E+00 -0.74505805969E-08  0.93827000000E+00  0.93827000000E+00 0.  1.
     999902    2    1    2    0    0 -0.45944979574E-02  0.18083536120E-01  0.62632428070E-02  0.10242487424E+01  0.10240596342E+01 0.  0.
     999903    2    3    3    0    0  0.58374117565E-01 -0.11655821815E+00 -0.69201158647E-02  0.13168655999E+00  0.17323575248E-01 0.  0.
         14    1    1    2    0    0  0.45944979574E-02 -0.18083536120E-01 -0.62632428070E-02  0.19681257595E-01  0.00000000000E+00 0.  1.
     999901    1    3    3    0    0 -0.62968615522E-01  0.13464175427E+00  0.13183358672E-01  0.89256218242E+00  0.88000000000E+00 0.  1.
        -11    1    4    4    0    0  0.23753599920E-01 -0.65511153275E-01 -0.66622371896E-02  0.70004223001E-01  0.51100000000E-03 0.  1.
         11    1    4    4    0    0  0.34620517645E-01 -0.51047064871E-01 -0.25787867504E-03  0.61682336989E-01  0.51100000000E-03 0. -1.
</event>
<event>
 8    1  0.1120016E+005  0.1043930E+01  0.7957747E-01            NaN
         13   -1    0    0    0    0  0.00000000000E+00  0.00000000000E+00  0.74505805969E-08  0.10566000000E+00  0.10566000000E+00 0. -1.
     999900   -1    0    0    0    0 -0.00000000000E+00 -0.00000000000E+00 -0.74505805969E-08  0.93827000000E+00  0.93827000000E+00 0. -1.
     999902    2    1    2    0    0  0.23917537549E-01  0.32345870772E-02  0.73630978938E-03  0.10197835032E+01  0.10194975920E+01 0.  0.
     999903    2    3    3    0    0  0.96645736635E-01  0.88415478621E-01  0.69577776372E-02  0.13266238300E+00  0.19829319818E-01 0.  0.
         14    1    1    2    0    0 -0.23917537549E-01 -0.32345870772E-02 -0.73630978938E-03  0.24146496808E-01  0.00000000000E+00 0. -1.
     999901    1    3    3    0    0 -0.72728199085E-01 -0.85180891544E-01 -0.62214678478E-02  0.88712112019E+00  0.88000000000E+00 0. -1.
        -11    1    4    4    0    0  0.40120185117E-01  0.44217513685E-01 -0.50001178193E-02  0.59917276886E-01  0.51100000000E-03 0. -1.
         11    1    4    4    0    0  0.56525551518E-01  0.44197964937E-01  0.11957895456E-01  0.72745106115E-01  0.51100000000E-03 0.  1.
</event>
<event>
 8    1  0.1120016E+005  0.1043930E+01  0.7957747E-01            NaN
         13   -1    0    0    0    0  0.00000000000E+00  0.00000000000E+00  0.74505805969E-08  0.10566000000E+00  0.10566000000E+00 0. -1.
     999900   -1    0    0    0    0 -0.00000000000E+00 -0.00000000000E+00 -0.74505805969E-08  0.93827000000E+00  0.93827000000E+00 0. -1.
     999902    2    1    2    0    0 -0.12162531140E-01 -0.21076655159E-01 -0.18168644563E-02  0.10195280830E+01  0.10192360171E+01 0.  0.
     999903    2    3    3    0    0  0.26914500540E-01 -0.12356591238E+00 -0.35220234427E-01  0.13208972043E+00  0.14639135504E-01 0.  0.
         14    1    1    2    0    0  0.12162531140E-01  0.21076655159E-01  0.18168644563E-02  0.24401916992E-01  0.00000000000E+00 0. -1.
     999901    1    3    3    0    0 -0.39077031680E-01  0.10248925722E+00  0.33403369971E-01  0.88743836258E+00  0.88000000000E+00 0.  1.
        -11    1    4    4    0    0  0.16551865150E-01 -0.58712546972E-01 -0.23505826382E-01  0.65375166590E-01  0.51100000000E-03 0.  1.
         11    1    4    4    0    0  0.10362635390E-01 -0.64853365409E-01 -0.11714408045E-01  0.66714553839E-01  0.51100000000E-03 0. -1.
</event>
<event>
 8    1  0.1120016E+005  0.1043930E+01  0.7957747E-01            NaN
         13   -1    0    0    0    0  0.00000000000E+00  0.00000000000E+00  0.74505805969E-08  0.10566000000E+00  0.10566000000E+00 0. -1.
     999900   -1    0    0    0    0 -0.00000000000E+00 -0.00000000000E+00 -0.74505805969E-08  0.93827000000E+00  0.93827000000E+00 0. -1.
     999902    2    1    2    0    0 -0.21818717940E-01  0.83565455705E-02  0.48921725206E-02  0.10200590625E+01  0.10197797161E+01 0.  0.
     999903    2    3    3    0    0 -0.79938821457E-01  0.90252210675E-01 -0.51152911298E-01  0.13257616246E+00  0.20594703470E-01 0.  0.
         14    1    1    2    0    0  0.21818717940E-01 -0.83565455705E-02 -0.48921725206E-02  0.23870937526E-01  0.00000000000E+00 0.  1.
     999901    1    3    3    0    0  0.58120103517E-01 -0.81895665104E-01  0.56045083818E-01  0.88748290001E+00  0.88000000000E+00 0.  1.
        -11    1    4    4    0    0 -0.50331614118E-01  0.44257222915E-01 -0.34575034687E-01  0.75416624855E-01  0.51100000000E-03 0.  1.
         11    1    4    4    0    0 -0.29607207339E-01  0.45994987760E-01 -0.16577876610E-01  0.57159537606E-01  0.51100000000E-03 0. -1.
</event>
<event>
 8    1  0.1120016E+005  0.1043930E+01  0.7957747E-01            NaN
         13   -1    0    0    0    0  0.00000000000E+00  0.00000000000E+00  0.74505805969E-08  0.10566000000E+00  0.10566000000E+00 0.  1.
     999900   -1    0    0    0    0 -0.00000000000E+00 -0.00000000000E+00 -0.74505805969E-08  0.93827000000E+00  0.93827000000E+00 0. -1.
     999902    2    1    2    0    0  0.10163221807E-01  0.21345418331E-01  0.17156013591E-02  0.10202263874E+01  0.10199509892E+01 0.  0.
     999903    2    3    3    0    0  0.75446142620E-01 -0.10323264458E+00 -0.12090826892E-01  0.12895080099E+00  0.11533500695E-01 0.  0.
         14    1    1    2    0    0 -0.10163221807E-01 -0.21345418331E-01 -0.17156013591E-02  0.23703612578E-01  0.00000000000E+00 0. -1.
     999901    1    3    3    0    0 -0.65282920814E-01  0.12457806291E+00  0.13806428251E-01  0.89127558643E+00  0.88000000000E+00 0.  1.
        -11    1    4    4    0    0  0.26335761093E-01 -0.44715271056E-01 -0.25278277466E-02  0.51958433503E-01  0.51100000000E-03 0.  1.
         11    1    4    4    0    0  0.49110381527E-01 -0.58517373521E-01 -0.95629991454E-02  0.76992367487E-01  0.51100000000E-03 0. -1.
</event>
<event>
 8    1  0.1120016E+005  0.1043930E+01  0.7957747E-01            NaN
         13   -1    0    0    0    0  0.00000000000E+00  0.00000000000E+00  0.74505805969E-08  0.10566000000E+00  0.10566000000E+00 0. -1.
     999900   -1    0    0    0    0 -0.00000000000E+00 -0.00000000000E+00 -0.74505805969E-08  0.93827000000E+00  0.93827000000E+00 0.  1.
     999902    2    1    2    0    0 -0.19937639718E-01  0.13135078057E-01  0.29205099919E-02  0.10198765360E+01  0.10195928499E+01 0.  0.
     999903    2    3    3    0    0 -0.97473405052E-01  0.88337847376E-01  0.70334609424E-02  0.13326265847E+00  0.20120303120E-01 0.  0.
         14    1    1    2    0    0  0.19937639718E-01 -0.13135078057E-01 -0.29205099919E-02  0.24053464027E-01  0.00000000000E+00 0.  1.
     999901    1    3    3    0    0  0.77535765335E-01 -0.75202769320E-01 -0.41129509506E-02  0.88661387751E+00  0.88000000000E+00 0.  1.
        -11    1    4    4    0    0 -0.67943581022E-02  0.14882151747E-01  0.14031951495E-02  0.16427775877E-01  0.51100000000E-03 0. -1.
         11    1    4    4    0    0 -0.90679046950E-01  0.73455695629E-01  0.56302657929E-02  0.11683488259E+00  0.51100000000E-03 0.  1.
</event>
<event>
 8    1  0.1120016E+005  0.1043930E+01  0.7957747E-01            NaN
         13   -1    0    0    0    0  0.00000000000E+00  0.00000000000E+00  0.74505805969E-08  0.10566000000E+00  0.10566000000E+00 0.  1.
     999900   -1    0    0    0    0 -0.00000000000E+00 -0.00000000000E+00 -0.74505805969E-08  0.93827000000E+00  0.93827000000E+00 0.  1.
     999902    2    1    2    0    0 -0.15563397202E-01  0.52800079635E-02 -0.15652281757E-01  0.10212343674E+01  0.10209821455E+01 0.  0.
     999903    2    3    3    0    0 -0.87590272571E-01  0.25060631596E-01 -0.96617625691E-01  0.13436654702E+00  0.20477115474E-01 0.  0.
         14    1    1    2    0    0  0.15563397202E-01 -0.52800079635E-02  0.15652281757E-01  0.22695632637E-01  0.00000000000E+00 0.  1.
     999901    1    3    3    0    0  0.72026875369E-01 -0.19780623633E-01  0.80965343933E-01  0.88686782035E+00  0.88000000000E+00 0. -1.
        -11    1    4    4    0    0 -0.22951725491E-01  0.16223567269E-01 -0.30518844776E-01  0.41492732441E-01  0.51100000000E-03 0.  1.
         11    1    4    4    0    0 -0.64638547080E-01  0.88370643273E-02 -0.66098780915E-01  0.92873814577E-01  0.51100000000E-03 0. -1.
</event>
<event>
 8    1  0.1120016E+005  0.1043930E+01  0.7957747E-01            NaN
         13   -1    0    0    0    0  0.00000000000E+00  0.00000000000E+00  0.74505805969E-08  0.10566000000E+00  0.10566000000E+00 0. -1.
     999900   -1    0    0    0    0 -0.00000000000E+00 -0.00000000000E+00 -0.74505805969E-08  0.93827000000E+00  0.93827000000E+00 0. -1.
     999902    2    1    2    0    0  0.14053287514E-01  0.45335620290E-02  0.18376663695E-01  0.10203556529E+01  0.10200832851E+01 0.  0.
     999903    2    3    3    0    0  0.57092326246E-01 -0.42803668880E-01  0.11070765115E+00  0.13321519976E+00  0.19960401716E-01 0.  0.
         14    1    1    2    0    0 -0.14053287514E-01 -0.45335620290E-02 -0.18376663695E-01  0.23574347143E-01  0.00000000000E+00 0.  1.
     999901    1    3    3    0    0 -0.43039038731E-01  0.47337230909E-01 -0.92330987456E-01  0.88714045310E+00  0.88000000000E+00 0. -1.
        -11    1    4    4    0    0  0.55561364226E-01 -0.36451650390E-01  0.92751291126E-01  0.11410018027E+00  0.51100000000E-03 0.  1.
         11    1    4    4    0    0  0.15309620191E-02 -0.63520184905E-02  0.17956360025E-01  0.19115019486E-01  0.51100000000E-03 0. -1.
</event>
<event>
 8    1  0.1120016E+005  0.1043930E+01  0.7957747E-01            NaN
         13   -1    0    0    0    0  0.00000000000E+00  0.00000000000E+00  0.74505805969E-08  0.10566000000E+00  0.10566000000E+00 0.  1.
     999900   -1    0    0    0    0 -0.00000000000E+00 -0.00000000000E+00 -0.74505805969E-08  0.93827000000E+00  0.93827000000E+00 0.  1.
     999902    2    1    2    0    0  0.40166926151E-02  0.18975448916E-01 -0.61334130531E-03  0.10245243908E+01  0.10243405926E+01 0.  0.
     999903    2    3    3    0    0  0.94190805985E-01  0.96770733317E-01  0.34051830697E-03  0.13650165074E+00  0.19902310023E-01 0.  0.
         14    1    1    2    0    0 -0.40166926151E-02 -0.18975448916E-01  0.61334130531E-03  0.19405609207E-01  0.00000000000E+00 0. -1.
     999901    1    3    3    0    0 -0.90174113370E-01 -0.77795284401E-01 -0.95385961228E-03  0.88802274005E+00  0.88000000000E+00 0.  1.
        -11    1    4    4    0    0  0.58749071972E-01  0.70667766641E-01  0.61216023554E-02  0.92103864393E-01  0.51100000000E-03 0. -1.
         11    1    4    4    0    0  0.35441734013E-01  0.26102966676E-01 -0.57810840484E-02  0.44397786351E-01  0.51100000000E-03 0.  1.
</event>
<event>
 8    1  0.1120016E+005  0.1043930E+01  0.7957747E-01            NaN
         13   -1    0    0    0    0  0.00000000000E+00  0.00000000000E+00  0.74505805969E-08  0.10566000000E+00  0.10566000000E+00 0. -1.
     999900   -1    0    0    0    0 -0.00000000000E+00 -0.00000000000E+00 -0.74505805969E-08  0.93827000000E+00  0.93827000000E+00 0.  1.
     999902    2    1    2    0    0  0.79277176415E-02 -0.20786466467E-01  0.81384409277E-02  0.10202411816E+01  0.10199661311E+01 0.  0.
     999903    2    3    3    0    0 -0.51888881607E-01 -0.11853033220E+00 -0.18953178209E-01  0.13239781444E+00  0.20689674200E-01 0.  0.
         14    1    1    2    0    0 -0.79277176415E-02  0.20786466467E-01 -0.81384409277E-02  0.23688818373E-01  0.00000000000E+00 0.  1.
     999901    1    3    3    0    0  0.59816599249E-01  0.97743865730E-01  0.27091619136E-01  0.88784336719E+00  0.88000000000E+00 0.  1.
        -11    1    4    4    0    0 -0.11359401683E-01 -0.49401163942E-01 -0.37393412090E-02  0.50830648226E-01  0.51100000000E-03 0. -1.
         11    1    4    4    0    0 -0.40529479924E-01 -0.69129168255E-01 -0.15213837000E-01  0.81567166212E-01  0.51100000000E-03 0.  1.
</event>
<event>
 8    1  0.1120016E+005  0.1043930E+01  0.7957747E-01            NaN
         13   -1    0    0    0    0  0.00000000000E+00  0.00000000000E+00  0.74505805969E-08  0.10566000000E+00  0.10566000000E+00 0. -1.
     999900   -1    0    0    0    0 -0.00000000000E+00 -0.00000000000E+00 -0.74505805969E-08  0.93827000000E+00  0.93827000000E+00 0.  1.
     999902    2    1    2    0    0 -0.24224590414E-02 -0.34477900691E-02 -0.21659569059E-01  0.10218643594E+01  0.10216260943E+01 0.  0.
     999903    2    3    3    0    0  0.32482357050E-01  0.12512490249E+00 -0.15669413107E-01  0.13181651492E+00  0.20462608728E-01 0.  0.
         14    1    1    2    0    0  0.24224590414E-02  0.34477900691E-02  0.21659569059E-01  0.22065640620E-01  0.00000000000E+00 0. -1.
     999901    1    3    3    0    0 -0.34904816091E-01 -0.12857269256E+00 -0.59901559516E-02  0.89004784446E+00  0.88000000000E+00 0.  1.
        -11    1    4    4    0    0  0.25404595859E-01  0.60506909478E-01 -0.38029923714E-02  0.65735861273E-01  0.51100000000E-03 0.  1.
         11    1    4    4    0    0  0.70777611910E-02  0.64617993012E-01 -0.11866420736E-01  0.66080653647E-01  0.51100000000E-03 0. -1.
</event>
<event>
 8    1  0.1120016E+005  0.1043930E+01  0.7957747E-01            NaN
         13   -1    0    0    0    0  0.00000000000E+00  0.00000000000E+00  0.74505805969E-08  0.10566000000E+00  0.10566000000E+00 0.  1.
     999900   -1    0    0    0    0 -0.00000000000E+00 -0.00000000000E+00 -0.74505805969E-08  0.93827000000E+00  0.93827000000E+00 0. -1.
     999902    2    1    2    0    0  0.19988335166E-01  0.14905612374E-02 -0.11583437551E-01  0.10207798091E+01  0.10205172645E+01 0.  0.
     999903    2    3    3    0    0 -0.26954757012E-01  0.12561663334E+00  0.11716822073E-01  0.13052488052E+00  0.19833381406E-01 0.  0.
         14    1    1    2    0    0 -0.19988335166E-01 -0.14905612374E-02  0.11583437551E-01  0.23150190950E-01  0.00000000000E+00 0. -1.
     999901    1    3    3    0    0  0.46943092178E-01 -0.12412607210E+00 -0.23300259623E-01  0.89025492853E+00  0.88000000000E+00 0. -1.
        -11    1    4    4    0    0 -0.89305866463E-02  0.85871859492E-01  0.67665513795E-02  0.86601264246E-01  0.51100000000E-03 0. -1.
         11    1    4    4    0    0 -0.18024170366E-01  0.39744773845E-01  0.49502706931E-02  0.43923616271E-01  0.51100000000E-03 0.  1.
</event>
<event>
 8    1  0.1120016E+005  0.1043930E+01  0.7957747E-01            NaN
         13   -1    0    0    0    0  0.00000000000E+00  0.00000000000E+00  0.74505805969E-08  0.10566000000E+00  0.10566000000E+00 0. -1.
     999900   -1    0    0    0    0 -0.00000000000E+00 -0.00000000000E+00 -0.74505805969E-08  0.93827000000E+00  0.93827000000E+00 0. -1.
     999902    2    1    2    0    0  0.18797396969E-01  0.12648909683E-01 -0.75131991646E-02  0.10200598259E+01  0.10197804976E+01 0.  0.
     999903    2    3    3    0    0  0.88566823887E-01 -0.32161570294E-01  0.89392733438E-01  0.13086552104E+00  0.16008588613E-01 0.  0.
         14    1    1    2    0    0 -0.18797396969E-01 -0.12648909683E-01  0.75131991646E-02  0.23870174081E-01  0.00000000000E+00 0.  1.
     999901    1    3    3    0    0 -0.69769426918E-01  0.44810479977E-01 -0.96905932603E-01  0.88919430487E+00  0.88000000000E+00 0. -1.
        -11    1    4    4    0    0  0.32698055836E-01 -0.45208685719E-02  0.26715847721E-01  0.42468797352E-01  0.51100000000E-03 0. -1.
         11    1    4    4    0    0  0.55868768051E-01 -0.27640701722E-01  0.62676885717E-01  0.88396723692E-01  0.51100000000E-03 0.  1.
</event>
<event>
 8    1  0.1120016E+005  0.1043930E+01  0.7957747E-01            NaN
         13   -1    0    0    0    0  0.00000000000E+00  0.00000000000E+00  0.74505805969E-08  0.10566000000E+00  0.10566000000E+00 0. -1.
     999900   -1    0    0    0    0 -0.00000000000E+00 -0.00000000000E+00 -0.74505805969E-08  0.93827000000E+00  0.93827000000E+00 0.  1.
     999902    2    1    2    0    0 -0.56070090630E-02  0.89424765103E-02  0.21816691921E-01  0.10196941901E+01  0.10194061344E+01 0.  0.
     999903    2    3    3    0    0 -0.51838746349E-01 -0.11491555351E+00 -0.18135101504E-01  0.12892242865E+00  0.19981757738E-01 0.  0.
         14    1    1    2    0    0  0.56070090630E-02 -0.89424765103E-02 -0.21816691921E-01  0.24235809934E-01  0.00000000000E+00 0.  1.
     999901    1    3    3    0    0  0.46231737286E-01  0.12385803002E+00  0.39951793425E-01  0.89077176141E+00  0.88000000000E+00 0. -1.
        -11    1    4    4    0    0 -0.98753296508E-02 -0.42746621653E-01 -0.10325989999E-01  0.45074194268E-01  0.51100000000E-03 0.  1.
         11    1    4    4    0    0 -0.41963416698E-01 -0.72168931855E-01 -0.78091115051E-02  0.83848234386E-01  0.51100000000E-03 0. -1.
</event>
<event>
 8    1  0.1120016E+005  0.1043930E+01  0.7957747E-01            NaN
         13   -1    0    0    0    0  0.00000000000E+00  0.00000000000E+00  0.74505805969E-08  0.10566000000E+00  0.10566000000E+00 0.  1.
     999900   -1    0    0    0    0 -0.00000000000E+00 -0.00000000000E+00 -0.74505805969E-08  0.93827000000E+00  0.93827000000E+00 0.  1.
     999902    2    1    2    0    0  0.21400710485E-01  0.78353091210E-02  0.39862306709E-02  0.10207940428E+01  0.10205318248E+01 0.  0.
     999903    2    3    3    0    0  0.25072268654E-01 -0.59264683185E-01 -0.11194055526E+00  0.13065084706E+00  0.19950804472E-01 0.  0.
         14    1    1    2    0    0 -0.21400710485E-01 -0.78353091210E-02 -0.39862306709E-02  0.23135957150E-01  0.00000000000E+00 0. -1.
     999901    1    3    3    0    0 -0.36715581685E-02  0.67099992307E-01  0.11592678593E+00  0.89014319578E+00  0.88000000000E+00 0. -1.
        -11    1    4    4    0    0  0.62924406127E-03 -0.40253360718E-02 -0.21519104345E-01  0.21907356103E-01  0.51100000000E-03 0.  1.
         11    1    4    4    0    0  0.24443024593E-01 -0.55239347114E-01 -0.90421450911E-01  0.10874349096E+00  0.51100000000E-03 0. -1.
</event>
<event>
 8    1  0.1120016E+005  0.1043930E+01  0.7957747E-01            NaN
         13   -1    0    0    0    0  0.00000000000E+00  0.00000000000E+00  0.74505805969E-08  0.10566000000E+00  0.10566000000E+00 0.  1.
     999900   -1    0    0    0    0 -0.00000000000E+00 -0.00000000000E+00 -0.74505805969E-08  0.93827000000E+00  0.93827000000E+00 0. -1.
     999902    2    1    2    0    0  0.61152970910E-02  0.22841834368E-01 -0.31818830214E-02  0.10200706070E+01  0.10197915339E+01 0.  0.
     999903    2    3    3    0    0 -0.89365049930E-03 -0.12274928965E+00 -0.28418038934E-01  0.12772383341E+00  0.20919033477E-01 0.  0.
         14    1    1    2    0    0 -0.61152970910E-02 -0.22841834368E-01  0.31818830214E-02  0.23859393022E-01  0.00000000000E+00 0.  1.
     999901    1    3    3    0    0  0.70089475903E-02  0.14559112402E+00  0.25236155913E-01  0.89234677357E+00  0.88000000000E+00 0.  1.
        -11    1    4    4    0    0 -0.65934766309E-02 -0.54958854812E-01 -0.21335313357E-01  0.59324584898E-01  0.51100000000E-03 0. -1.
         11    1    4    4    0    0  0.56998261316E-02 -0.67790434840E-01 -0.70827255776E-02  0.68399248507E-01  0.51100000000E-03 0.  1.
</event>
<event>
 8    1  0.1120016E+005  0.1043930E+01  0.7957747E-01            NaN
         13   -1    0    0    0    0  0.00000000000E+00  0.00000000000E+00  0.74505805969E-08  0.10566000000E+00  0.10566000000E+00 0. -1.
     999900   -1    0    0    0    0 -0.00000000000E+00 -0.00000000000E+00 -0.74505805969E-08  0.93827000000E+00  0.93827000000E+00 0.  1.
     999902    2    1    2    0    0 -0.16639215613E-01 -0.83623113332E-02  0.14133488671E-01  0.10205516500E+01  0.10202838444E+01 0.  0.
     999903    2    3    3    0    0  0.12185311166E+00 -0.33854926615E-01 -0.15071245949E-01  0.12887742996E+00  0.19695497477E-01 0.  0.
         14    1    1    2    0    0  0.16639215613E-01  0.83623113332E-02 -0.14133488671E-01  0.23378350007E-01  0.00000000000E+00 0.  1.
     999901    1    3    3    0    0 -0.13849232727E+00  0.25492615282E-01  0.29204734620E-01  0.89167422003E+00  0.88000000000E+00 0. -1.
        -11    1    4    4    0    0  0.93922172442E-01 -0.34251012001E-01 -0.13667617665E-01  0.10090377195E+00  0.51100000000E-03 0. -1.
         11    1    4    4    0    0  0.27930939219E-01  0.39608538538E-03 -0.14036282840E-02  0.27973658013E-01  0.51100000000E-03 0.  1.
</event>
<event>
 8    1  0.1120016E+005  0.1043930E+01  0.7957747E-01            NaN
         13   -1    0    0    0    0  0.00000000000E+00  0.00000000000E+00  0.74505805969E-08  0.10566000000E+00  0.10566000000E+00 0. -1.
     999900   -1    0    0    0    0 -0.00000000000E+00 -0.00000000000E+00 -0.74505805969E-08  0.93827000000E+00  0.93827000000E+00 0. -1.
     999902    2    1    2    0    0  0.10663678034E-01  0.43855135695E-02  0.19333189570E-01  0.10214195807E+01  0.10211715041E+01 0.  0.
     999903    2    3    3    0    0  0.11999519956E+00  0.52149986729E-01  0.16641474089E-01  0.13336436179E+00  0.19764748985E-01 0.  0.
         14    1    1    2    0    0 -0.10663678034E-01 -0.43855135695E-02 -0.19333189570E-01  0.22510419308E-01  0.00000000000E+00 0.  1.
     999901    1    3    3    0    0 -0.10933152152E+00 -0.47764473159E-01  0.26917154806E-02  0.88805521891E+00  0.88000000000E+00 0.  1.
        -11    1    4    4    0    0  0.10392757813E+00  0.37761973235E-01  0.11400076647E-01  0.11116263306E+00  0.51100000000E-03 0. -1.
         11    1    4    4    0    0  0.16067621421E-01  0.14388013493E-01  0.52413974420E-02  0.22201728729E-01  0.51100000000E-03 0.  1.
</event>
<event>
 8    1  0.1120016E+005  0.1043930E+01  0.7957747E-01            NaN
         13   -1    0    0    0    0  0.00000000000E+00  0.00000000000E+00  0.74505805969E-08  0.10566000000E+00  0.10566000000E+00 0. -1.
     999900   -1    0    0    0    0 -0.00000000000E+00 -0.00000000000E+00 -0.74505805969E-08  0.93827000000E+00  0.93827000000E+00 0. -1.
     999902    2    1    2    0    0  0.84737891926E-02  0.19264681481E-01 -0.10959633816E-01  0.10202013964E+01  0.10199254103E+01 0.  0.
     999903    2    3    3    0    0 -0.12654581078E+00 -0.66386379795E-02  0.14117862978E-01  0.12917381254E+00  0.20703768978E-01 0.  0.
         14    1    1    2    0    0 -0.84737891926E-02 -0.19264681481E-01  0.10959633816E-01  0.23728603608E-01  0.00000000000E+00 0. -1.
     999901    1    3    3    0    0  0.13501959998E+00  0.25903319460E-01 -0.25077496794E-01  0.89102758385E+00  0.88000000000E+00 0.  1.
        -11    1    4    4    0    0 -0.10760620958E+00 -0.69986255668E-02  0.19253985662E-01  0.10954019438E+00  0.51100000000E-03 0.  1.
         11    1    4    4    0    0 -0.18939601209E-01  0.35998758730E-03 -0.51361226839E-02  0.19633618165E-01  0.51100000000E-03 0. -1.
</event>
<event>
 8    1  0.1120016E+005  0.1043930E+01  0.7957747E-01            NaN
         13   -1    0    0    0    0  0.00000000000E+00  0.00000000000E+00  0.74505805969E-08  0.10566000000E+00  0.10566000000E+00 0. -1.
     999900   -1    0    0    0    0 -0.00000000000E+00 -0.00000000000E+00 -0.74505805969E-08  0.93827000000E+00  0.93827000000E+00 0.  1.
     999902    2    1    2    0    0  0.22102348781E-01  0.45075662277E-02  0.16198999881E-02  0.10213146059E+01  0.10210641841E+01 0.  0.
     999903    2    3    3    0    0  0.12560685202E+00  0.35252812914E-01  0.26529643120E-01  0.13436536963E+00  0.18176592109E-01 0.  0.
         14    1    1    2    0    0 -0.22102348781E-01 -0.45075662277E-02 -0.16198999881E-02  0.22615394113E-01  0.00000000000E+00 0.  1.
     999901    1    3    3    0    0 -0.10350450324E+00 -0.30745246686E-01 -0.24909743132E-01  0.88694923625E+00  0.88000000000E+00 0.  1.
        -11    1    4    4    0    0  0.44151738804E-01  0.20063223199E-01  0.50204828682E-02  0.48758336044E-01  0.51100000000E-03 0. -1.
         11    1    4    4    0    0  0.81455113215E-01  0.15189589715E-01  0.21509160252E-01  0.85607033591E-01  0.51100000000E-03 0.  1.
</event>
<event>
 8    1  0.1120016E+005  0.1043930E+01  0.7957747E-01            NaN
         13   -1    0    0    0    0  0.00000000000E+00  0.00000000000E+00  0.74505805969E-08  0.10566000000E+00  0.10566000000E+00 0.  1.
     999900   -1    0    0    0    0 -0.00000000000E+00 -0.00000000000E+00 -0.74505805969E-08  0.93827000000E+00  0.93827000000E+00 0.  1.
     999902    2    1    2    0    0  0.48877086940E-02 -0.11643462960E-01 -0.21236522485E-01  0.10192227174E+01  0.10189232051E+01 0.  0.
     999903    2    3    3    0    0  0.11542431458E+00 -0.50198031017E-01  0.26454481934E-01  0.13018996893E+00  0.20173588697E-01 0.  0.
         14    1    1    2    0    0 -0.48877086940E-02  0.11643462960E-01  0.21236522485E-01  0.24707282595E-01  0.00000000000E+00 0.  1.
     999901    1    3    3    0    0 -0.11053660589E+00  0.38554568057E-01 -0.47691004419E-01  0.88903274848E+00  0.88000000000E+00 0. -1.
        -11    1    4    4    0    0  0.74470294366E-01 -0.42671314903E-01  0.17836760619E-01  0.87664571002E-01  0.51100000000E-03 0. -1.
         11    1    4    4    0    0  0.40954020216E-01 -0.75267161137E-02  0.86177213155E-02  0.42525397928E-01  0.51100000000E-03 0.  1.
</event>
<event>
 8    1  0.1120016E+005  0.1043930E+01  0.7957747E-01            NaN
         13   -1    0    0    0    0  0.00000000000E+00  0.00000000000E+00  0.74505805969E-08  0.10566000000E+00  0.10566000000E+00 0.  1.
     999900   -1    0    0    0    0 -0.00000000000E+00 -0.00000000000E+00 -0.74505805969E-08  0.93827000000E+00  0.93827000000E+00 0. -1.
     999902    2    1    2    0    0 -0.21384396783E-01 -0.21467850151E-02 -0.10104859594E-01  0.10201811200E+01  0.10199046565E+01 0.  0.
     999903    2    3    3    0    0 -0.99785368214E-01 -0.37009638776E-01  0.75447035171E-01  0.13187866165E+00  0.19310443044E-01 0.  0.
         14    1    1    2    0    0  0.21384396783E-01  0.21467850151E-02  0.10104859594E-01  0.23748879954E-01  0.00000000000E+00 0.  1.
     999901    1    3    3    0    0  0.78400971431E-01  0.34862853761E-01 -0.85551894765E-01  0.88830245840E+00  0.88000000000E+00 0.  1.
        -11    1    4    4    0    0 -0.69977271492E-01 -0.24346320086E-01  0.41355562309E-01  0.84853435300E-01  0.51100000000E-03 0. -1.
         11    1    4    4    0    0 -0.29808096722E-01 -0.12663318690E-01  0.34091472862E-01  0.47025226351E-01  0.51100000000E-03 0.  1.
</event>
<event>
 8    1  0.1120016E+005  0.1043930E+01  0.7957747E-01            NaN
         13   -1    0    0    0    0  0.00000000000E+00  0.00000000000E+00  0.74505805969E-08  0.10566000000E+00  0.10566000000E+00 0.  1.
     999900   -1    0    0    0    0 -0.00000000000E+00 -0.00000000000E+00 -0.74505805969E-08  0.93827000000E+00  0.93827000000E+00 0.  1.
     999902    2    1    2    0    0 -0.10617880886E-01 -0.15837331745E-01 -0.16753776994E-01  0.10185479293E+01  0.10182316213E+01 0.  0.
     999903    2    3    3    0    0  0.41522055775E-01 -0.87669537267E-01 -0.86176522654E-01  0.13136251665E+00  0.20486308663E-01 0.  0.
         14    1    1    2    0    0  0.10617880886E-01  0.15837331745E-01  0.16753776994E-01  0.25382070736E-01  0.00000000000E+00 0.  1.
     999901    1    3    3    0    0 -0.52139936661E-01  0.71832205522E-01  0.69422745660E-01  0.88718541262E+00  0.88000000000E+00 0. -1.
        -11    1    4    4    0    0  0.39367442250E-01 -0.86798583369E-01 -0.78976205903E-01  0.12377920586E+00  0.51100000000E-03 0. -1.
         11    1    4    4    0    0  0.21546135249E-02 -0.87095389826E-03 -0.72003167511E-02  0.75833107842E-02  0.51100000000E-03 0.  1.
</event>
<event>
 8    1  0.1120016E+005  0.1043930E+01  0.7957747E-01            NaN
         13   -1    0    0    0    0  0.00000000000E+00  0.00000000000E+00  0.74505805969E-08  0.10566000000E+00  0.10566000000E+00 0.  1.
     999900   -1    0    0    0    0 -0.00000000000E+00 -0.00000000000E+00 -0.74505805969E-08  0.93827000000E+00  0.93827000000E+00 0. -1.
     999902    2    1    2    0    0  0.16990461829E-02  0.16727955772E-01 -0.16442785490E-01  0.10204124224E+01  0.10201413801E+01 0.  0.
     999903    2    3    3    0    0 -0.59834317543E-01 -0.59372791195E-01 -0.98604261572E-01  0.13118343799E+00  0.19519736468E-01 0.  0.
         14    1    1    2    0    0 -0.16990461829E-02 -0.16727955772E-01  0.16442785490E-01  0.23517577615E-01  0.00000000000E+00 0.  1.
     999901    1    3    3    0    0  0.61533363726E-01  0.76100746967E-01  0.82161476083E-01  0.88922898440E+00  0.88000000000E+00 0.  1.
        -11    1    4    4    0    0 -0.43649160258E-01 -0.39332469742E-01 -0.54705975992E-01  0.80282608936E-01  0.51100000000E-03 0. -1.
         11    1    4    4    0    0 -0.16185157285E-01 -0.20040321453E-01 -0.43898285580E-01  0.50900829052E-01  0.51100000000E-03 0.  1.
</event>
<event>
 8    1  0.1120016E+005  0.1043930E+01  0.7957747E-01            NaN
         13   -1    0    0    0    0  0.00000000000E+00  0.00000000000E+00  0.74505805969E-08  0.10566000000E+00  0.10566000000E+00 0. -1.
     999900   -1    0    0    0    0 -0.00000000000E+00 -0.00000000000E+00 -0.74505805969E-08  0.93827000000E+00  0.93827000000E+00 0.  1.
     999902    2    1    2    0    0  0.15318160199E-01 -0.13403151891E-01 -0.10301524687E-01  0.10211174613E+01  0.10208626048E+01 0.  0.
     999903    2    3    3    0    0  0.11017147514E+00 -0.45441571150E-01  0.55495328063E-01  0.13299988037E+00  0.20162996318E-01 0.  0.
         14    1    1    2    0    0 -0.15318160199E-01  0.13403151891E-01  0.10301524687E-01  0.22812538731E-01  0.00000000000E+00 0. -1.
     999901    1    3    3    0    0 -0.94853314937E-01  0.32038419259E-01 -0.65796852750E-01  0.88811758090E+00  0.88000000000E+00 0.  1.
        -11    1    4    4    0    0  0.43078883158E-01 -0.13516654683E-01  0.30975158427E-01  0.54755928341E-01  0.51100000000E-03 0. -1.
         11    1    4    4    0    0  0.67092591978E-01 -0.31924916467E-01  0.24520169636E-01  0.78243952033E-01  0.51100000000E-03 0.  1.
</event>
<event>
 8    1  0.1120016E+005  0.1043930E+01  0.7957747E-01            NaN
         13   -1    0    0    0    0  0.00000000000E+00  0.00000000000E+00  0.74505805969E-08  0.10566000000E+00  0.10566000000E+00 0.  1.
     999900   -1    0    0    0    0 -0.00000000000E+00 -0.00000000000E+00 -0.74505805969E-08  0.93827000000E+00  0.93827000000E+00 0. -1.
     999902    2    1    2    0    0 -0.18338001226E-01 -0.10956627990E-01 -0.14205097665E-01  0.10182762520E+01  0.10179530493E+01 0.  0.
     999903    2    3    3    0    0  0.73556026460E-01  0.96627053599E-01 -0.30716691426E-01  0.12682160169E+00  0.19822386491E-01 0.  0.
         14    1    1    2    0    0  0.18338001226E-01  0.10956627990E-01  0.14205097665E-01  0.25653747983E-01  0.00000000000E+00 0.  1.
     999901    1    3    3    0    0 -0.91894027686E-01 -0.10758368159E+00  0.16511593761E-01  0.89145465033E+00  0.88000000000E+00 0.  1.
        -11    1    4    4    0    0  0.63602624625E-01  0.75258236510E-01 -0.18470309035E-01  0.10025222920E+00  0.51100000000E-03 0. -1.
         11    1    4    4    0    0  0.99534018349E-02  0.21368817089E-01 -0.12246382391E-01  0.26569372491E-01  0.51100000000E-03 0.  1.
</event>
<event>
 8    1  0.1120016E+005  0.1043930E+01  0.7957747E-01            NaN
         13   -1    0    0    0    0  0.00000000000E+00  0.00000000000E+00  0.74505805969E-08  0.10566000000E+00  0.10566000000E+00 0. -1.
     999900   -1    0    0    0    0 -0.00000000000E+00 -0.00000000000E+00 -0.74505805969E-08  0.93827000000E+00  0.93827000000E+00 0.  1.
     999902    2    1    2    0    0 -0.21270773242E-01  0.23143258338E-02  0.87114549845E-02  0.10208282393E+01  0.10205668047E+01 0.  0.
     999903    2    3    3    0    0 -0.71855462982E-01 -0.50885266107E-01  0.98009832811E-01  0.13326798351E+00  0.20047698966E-01 0.  0.
         14    1    1    2    0    0  0.21270773242E-01 -0.23143258338E-02 -0.87114549845E-02  0.23101760676E-01  0.00000000000E+00 0. -1.
     999901    1    3    3    0    0  0.50584689740E-01  0.53199591941E-01 -0.89298377827E-01  0.88756025581E+00  0.88000000000E+00 0.  1.
        -11    1    4    4    0    0 -0.28493704645E-01 -0.11627635735E-01  0.24594511920E-01  0.39398531124E-01  0.51100000000E-03 0. -1.
         11    1    4    4    0    0 -0.43361758338E-01 -0.39257630372E-01  0.73415320892E-01  0.93869452386E-01  0.51100000000E-03 0.  1.
</event>
<event>
 8    1  0.1120016E+005  0.1043930E+01  0.7957747E-01            NaN
         13   -1    0    0    0    0  0.00000000000E+00  0.00000000000E+00  0.74505805969E-08  0.10566000000E+00  0.10566000000E+00 0. -1.
     999900   -1    0    0    0    0 -0.00000000000E+00 -0.00000000000E+00 -0.74505805969E-08  0.93827000000E+00  0.93827000000E+00 0.  1.
     999902    2    1    2    0    0 -0.27250485500E-02  0.23084069008E-01  0.46719803715E-02  0.10202207712E+01  0.10199452409E+01 0.  0.
     999903    2    3    3    0    0  0.12285073946E+00 -0.34458365684E-01  0.86874815563E-02  0.12943654669E+00  0.19966575356E-01 0.  0.
         14    1    1    2    0    0  0.27250485500E-02 -0.23084069008E-01 -0.46719803715E-02  0.23709228840E-01  0.00000000000E+00 0.  1.
     999901    1    3    3    0    0 -0.12557578801E+00  0.57542434692E-01 -0.40155011848E-02  0.89078422447E+00  0.88000000000E+00 0.  1.
        -11    1    4    4    0    0  0.92046486037E-01 -0.25968645105E-01  0.15148344653E-01  0.96833153347E-01  0.51100000000E-03 0.  1.
         11    1    4    4    0    0  0.30804253420E-01 -0.84897205788E-02 -0.64608630966E-02  0.32603393339E-01  0.51100000000E-03 0. -1.
</event>
<event>
 8    1  0.1120016E+005  0.1043930E+01  0.7957747E-01            NaN
         13   -1    0    0    0    0  0.00000000000E+00  0.00000000000E+00  0.74505805969E-08  0.10566000000E+00  0.10566000000E+00 0.  1.
     999900   -1    0    0    0    0 -0.00000000000E+00 -0.00000000000E+00 -0.74505805969E-08  0.93827000000E+00  0.93827000000E+00 0. -1.
     999902    2    1    2    0    0 -0.56639843316E-02  0.23002168281E-01  0.27192344763E-02  0.10200851955E+01  0.10198064676E+01 0.  0.
     999903    2    3    3    0    0  0.42538542561E-01 -0.11773915806E+00 -0.14621176650E-01  0.12743056220E+00  0.18781172314E-01 0.  0.
         14    1    1    2    0    0  0.56639843316E-02 -0.23002168281E-01 -0.27192344763E-02  0.23844804472E-01  0.00000000000E+00 0. -1.
     999901    1    3    3    0    0 -0.48202526893E-01  0.14074132634E+00  0.17340411127E-01  0.89265463332E+00  0.88000000000E+00 0.  1.
        -11    1    4    4    0    0  0.33118621463E-01 -0.10789247362E+00 -0.14530573178E-01  0.11379379433E+00  0.51100000000E-03 0.  1.
         11    1    4    4    0    0  0.94199210982E-02 -0.98466844416E-02 -0.90603472051E-04  0.13636767871E-01  0.51100000000E-03 0. -1.
</event>
<event>
 8    1  0.1120016E+005  0.1043930E+01  0.7957747E-01            NaN
         13   -1    0    0    0    0  0.00000000000E+00  0.00000000000E+00  0.74505805969E-08  0.10566000000E+00  0.10566000000E+00 0. -1.
     999900   -1    0    0    0    0 -0.00000000000E+00 -0.00000000000E+00 -0.74505805969E-08  0.93827000000E+00  0.93827000000E+00 0. -1.
     999902    2    1    2    0    0  0.15786081724E-01 -0.33434376569E-02  0.18502730965E-01  0.10193794398E+01  0.10190837612E+01 0.  0.
     999903    2    3    3    0    0  0.32228190217E-01 -0.90527235916E-01  0.88615583840E-01  0.13214374975E+00  0.19375557061E-01 0.  0.
         14    1    1    2    0    0 -0.15786081724E-01  0.33434376569E-02 -0.18502730965E-01  0.24550560171E-01  0.00000000000E+00 0.  1.
     999901    1    3    3    0    0 -0.16442108493E-01  0.87183798259E-01 -0.70112852876E-01  0.88723569008E+00  0.88000000000E+00 0. -1.
        -11    1    4    4    0    0  0.73577100245E-02 -0.30688654813E-01  0.40931774308E-01  0.51687529444E-01  0.51100000000E-03 0. -1.
         11    1    4    4    0    0  0.24870480193E-01 -0.59838581103E-01  0.47683809533E-01  0.80456220307E-01  0.51100000000E-03 0.  1.
</event>
<event>
 8    1  0.1120016E+005  0.1043930E+01  0.7957747E-01            NaN
         13   -1    0    0    0    0  0.00000000000E+00  0.00000000000E+00  0.74505805969E-08  0.10566000000E+00  0.10566000000E+00 0. -1.
     999900   -1    0    0    0    0 -0.00000000000E+00 -0.00000000000E+00 -0.74505805969E-08  0.93827000000E+00  0.93827000000E+00 0. -1.
     999902    2    1    2    0    0 -0.22588754120E-01 -0.48521735027E-02  0.40321842121E-02  0.10204767719E+01  0.10202072280E+01 0.  0.
     999903    2    3    3    0    0  0.75346074940E-01 -0.10322844449E+00 -0.45059341153E-02  0.12955476579E+00  0.20760326023E-01 0.  0.
         14    1    1    2    0    0  0.22588754120E-01  0.48521735027E-02 -0.40321842121E-02  0.23453228134E-01  0.00000000000E+00 0. -1.
     999901    1    3    3    0    0 -0.97934829060E-01  0.98376270990E-01  0.85381183274E-02  0.89092200607E+00  0.88000000000E+00 0.  1.
        -11    1    4    4    0    0  0.22074249618E-01 -0.46649161699E-01 -0.48748719871E-02  0.51840546692E-01  0.51100000000E-03 0. -1.
         11    1    4    4    0    0  0.53271825322E-01 -0.56579282794E-01  0.36893787189E-03  0.77714219102E-01  0.51100000000E-03 0.  1.
</event>
<event>
 8    1  0.1120016E+005  0.1043930E+01  0.7957747E-01            NaN
         13   -1    0    0    0    0  0.00000000000E+00  0.00000000000E+00  0.74505805969E-08  0.10566000000E+00  0.10566000000E+00 0.  1.
     999900   -1    0    0    0    0 -0.00000000000E+00 -0.00000000000E+00 -0.74505805969E-08  0.93827000000E+00  0.93827000000E+00 0. -1.
     999902    2    1    2    0    0  0.14998575846E-02 -0.15654590580E-01  0.18038517057E-01  0.10199987678E+01  0.10197179916E+01 0.  0.
     999903    2    3    3    0    0 -0.17083047479E-01 -0.12930857938E+00  0.11922376356E-01  0.13247414235E+00  0.19867463889E-01 0.  0.
         14    1    1    2    0    0 -0.14998575846E-02  0.15654590580E-01 -0.18038517057E-01  0.23931232242E-01  0.00000000000E+00 0. -1.
     999901    1    3    3    0    0  0.18582905064E-01  0.11365398880E+00  0.61161407010E-02  0.88752462541E+00  0.88000000000E+00 0. -1.
        -11    1    4    4    0    0 -0.18882894120E-01 -0.10382799979E+00  0.35640928020E-02  0.10559252393E+00  0.51100000000E-03 0.  1.
         11    1    4    4    0    0  0.17998466405E-02 -0.25480579587E-01  0.83582835536E-02  0.26881618422E-01  0.51100000000E-03 0. -1.
</event>
<event>
 8    1  0.1120016E+005  0.1043930E+01  0.7957747E-01            NaN
         13   -1    0    0    0    0  0.00000000000E+00  0.00000000000E+00  0.74505805969E-08  0.10566000000E+00  0.10566000000E+00 0.  1.
     999900   -1    0    0    0    0 -0.00000000000E+00 -0.00000000000E+00 -0.74505805969E-08  0.93827000000E+00  0.93827000000E+00 0.  1.
     999902    2    1    2    0    0 -0.17442901014E-01 -0.16889548327E-01 -0.83744036110E-03  0.10196357014E+01  0.10193462369E+01 0.  0.
     999903    2    3    3    0    0 -0.12380562224E+00 -0.24387367402E-01 -0.32711166278E-01  0.13262658072E+00  0.24437956680E-01 0.  0.
         14    1    1    2    0    0  0.17442901014E-01  0.16889548327E-01  0.83744036110E-03  0.24294298608E-01  0.00000000000E+00 0.  1.
     999901    1    3    3    0    0  0.10636272122E+00  0.74978190745E-02  0.31873725917E-01  0.88700912068E+00  0.88000000000E+00 0.  1.
        -11    1    4    4    0    0 -0.41642586813E-01  0.26929157381E-02 -0.14802659047E-01  0.44280206273E-01  0.51100000000E-03 0.  1.
         11    1    4    4    0    0 -0.82163035425E-01 -0.27080283140E-01 -0.17908507231E-01  0.88346374445E-01  0.51100000000E-03 0. -1.
</event>
<event>
 8    1  0.1120016E+005  0.1043930E+01  0.7957747E-01            NaN
         13   -1    0    0    0    0  0.00000000000E+00  0.00000000000E+00  0.74505805969E-08  0.10566000000E+00  0.10566000000E+00 0. -1.
     999900   -1    0    0    0    0 -0.00000000000E+00 -0.00000000000E+00 -0.74505805969E-08  0.93827000000E+00  0.93827000000E+00 0.  1.
     999902    2    1    2    0    0  0.17792238487E-01  0.32848635147E-02 -0.15969317347E-01  0.10197975908E+01  0.10195120171E+01 0.  0.
     999903    2    3    3    0    0  0.41692079386E-01  0.60862181212E-01 -0.10858136024E+00  0.13274441288E+00  0.19716307333E-01 0.  0.
         14    1    1    2    0    0 -0.17792238487E-01 -0.32848635147E-02  0.15969317347E-01  0.24132409230E-01  0.00000000000E+00 0. -1.
     999901    1    3    3    0    0 -0.23899840898E-01 -0.57577317697E-01  0.92612042894E-01  0.88705317789E+00  0.88000000000E+00 0. -1.
        -11    1    4    4    0    0  0.13253931018E-01  0.20554067983E-01 -0.53337103265E-01  0.58679162432E-01  0.51100000000E-03 0. -1.
         11    1    4    4    0    0  0.28438148367E-01  0.40308113229E-01 -0.55244256976E-01  0.74065250452E-01  0.51100000000E-03 0.  1.
</event>
<event>
 8    1  0.1120016E+005  0.1043930E+01  0.7957747E-01            NaN
         13   -1    0    0    0    0  0.00000000000E+00  0.00000000000E+00  0.74505805969E-08  0.10566000000E+00  0.10566000000E+00 0. -1.
     999900   -1    0    0    0    0 -0.00000000000E+00 -0.00000000000E+00 -0.74505805969E-08  0.93827000000E+00  0.93827000000E+00 0. -1.
     999902    2    1    2    0    0  0.68628252134E-02  0.10511693029E-02  0.31025031685E-01  0.10121376123E+01  0.10116381716E+01 0.  0.
     999903    2    3    3    0    0 -0.12003438098E+00  0.10426731468E-01  0.15450252704E-01  0.12284948357E+00  0.18338919166E-01 0.  0.
         14    1    1    2    0    0 -0.68628252134E-02 -0.10511693029E-02 -0.31025031685E-01  0.31792387735E-01  0.00000000000E+00 0.  1.
     999901    1    3    3    0    0  0.12689720620E+00 -0.93755621654E-02  0.15574778981E-01  0.88928812870E+00  0.88000000000E+00 0. -1.
        -11    1    4    4    0    0 -0.40424358638E-01 -0.43771621287E-02  0.15857026681E-02  0.40694764940E-01  0.51100000000E-03 0. -1.
         11    1    4    4    0    0 -0.79610022347E-01  0.14803893597E-01  0.13864550036E-01  0.82154718625E-01  0.51100000000E-03 0.  1.
</event>
<event>
 8    1  0.1304184E+005  0.1043930E+01  0.7957747E-01            NaN
         13   -1    0    0    0    0  0.00000000000E+00  0.00000000000E+00  0.74505805969E-08  0.10566000000E+00  0.10566000000E+00 0. -1.
     999900   -1    0    0    0    0 -0.00000000000E+00 -0.00000000000E+00 -0.74505805969E-08  0.93827000000E+00  0.93827000000E+00 0.  1.
     999902    2    1    2    0    0  0.15180120890E-01 -0.46430528692E-04 -0.18519681760E-01  0.10199838763E+01  0.10197027465E+01 0.  0.
     999903    2    3    3    0    0 -0.50578072200E-01  0.41196871576E-01 -0.11255140719E+00  0.13157681011E+00  0.19731043671E-01 0.  0.
         14    1    1    2    0    0 -0.15180120890E-01  0.46430528692E-04  0.18519681760E-01  0.23946123664E-01  0.00000000000E+00 0. -1.
     999901    1    3    3    0    0  0.65758193090E-01 -0.41243302105E-01  0.94031725428E-01  0.88840706622E+00  0.88000000000E+00 0. -1.
        -11    1    4    4    0    0 -0.20895779922E-01  0.28956354982E-01 -0.65673759373E-01  0.74755654659E-01  0.51100000000E-03 0. -1.
         11    1    4    4    0    0 -0.29682292278E-01  0.12240516594E-01 -0.46877647816E-01  0.56821155454E-01  0.51100000000E-03 0.  1.
</event>
<event>
 8    1  0.1120016E+005  0.1043930E+01  0.7957747E-01            NaN
         13   -1    0    0    0    0  0.00000000000E+00  0.00000000000E+00  0.74505805969E-08  0.10566000000E+00  0.10566000000E+00 0. -1.
     999900   -1    0    0    0    0 -0.00000000000E+00 -0.00000000000E+00 -0.74505805969E-08  0.93827000000E+00  0.93827000000E+00 0.  1.
     999902    2    1    2    0    0 -0.10954485823E-01  0.19050402847E-01 -0.76845272849E-03  0.10219411590E+01  0.10217045676E+01 0.  0.
     999903    2    3    3    0    0 -0.12960826450E+00  0.23526216579E-01  0.18332375035E-01  0.13376122582E+00  0.14290012824E-01 0.  0.
         14    1    1    2    0    0  0.10954485823E-01 -0.19050402847E-01  0.76845272849E-03  0.21988840985E-01  0.00000000000E+00 0. -1.
     999901    1    3    3    0    0  0.11865377868E+00 -0.44758137318E-02 -0.19100827764E-01  0.88817993319E+00  0.88000000000E+00 0.  1.
        -11    1    4    4    0    0 -0.69620558504E-01  0.15228055883E-01  0.32098799257E-02  0.71340593651E-01  0.51100000000E-03 0.  1.
         11    1    4    4    0    0 -0.59987705995E-01  0.82981606956E-02  0.15122495109E-01  0.62420632172E-01  0.51100000000E-03 0. -1.
</event>
<event>
 8    1  0.1120016E+005  0.1043930E+01  0.7957747E-01            NaN
         13   -1    0    0    0    0  0.00000000000E+00  0.00000000000E+00  0.74505805969E-08  0.10566000000E+00  0.10566000000E+00 0.  1.
     999900   -1    0    0    0    0 -0.00000000000E+00 -0.00000000000E+00 -0.74505805969E-08  0.93827000000E+00  0.93827000000E+00 0.  1.
     999902    2    1    2    0    0  0.84496036601E-03  0.71286158028E-02  0.22313205473E-01  0.10204904979E+01  0.10202212731E+01 0.  0.
     999903    2    3    3    0    0 -0.86573495191E-01 -0.49891577614E-01  0.84090770816E-01  0.13217199846E+00  0.20347969278E-01 0.  0.
         14    1    1    2    0    0 -0.84496036601E-03 -0.71286158028E-02 -0.22313205473E-01  0.23439502123E-01  0.00000000000E+00 0. -1.
     999901    1    3    3    0    0  0.87418455557E-01  0.57020193416E-01 -0.61777565343E-01  0.88831849942E+00  0.88000000000E+00 0.  1.
        -11    1    4    4    0    0 -0.59606799519E-01 -0.44599497097E-01  0.63017505378E-01  0.97537443042E-01  0.51100000000E-03 0.  1.
         11    1    4    4    0    0 -0.26966695672E-01 -0.52920805169E-02  0.21073265439E-01  0.34634555417E-01  0.51100000000E-03 0. -1.
</event>
<event>
 8    1  0.1120016E+005  0.1043930E+01  0.7957747E-01            NaN
         13   -1    0    0    0    0  0.00000000000E+00  0.00000000000E+00  0.74505805969E-08  0.10566000000E+00  0.10566000000E+00 0.  1.
     999900   -1    0    0    0    0 -0.00000000000E+00 -0.00000000000E+00 -0.74505805969E-08  0.93827000000E+00  0.93827000000E+00 0. -1.
     999902    2    1    2    0    0  0.21589042680E-01  0.44989018750E-02 -0.45091326187E-02  0.10214209094E+01  0.10211728625E+01 0.  0.
     999903    2    3    3    0    0  0.61206851103E-02  0.11291958243E-01  0.12909183378E+00  0.13117676654E+00  0.19433770204E-01 0.  0.
         14    1    1    2    0    0 -0.21589042680E-01 -0.44989018750E-02  0.45091326187E-02  0.22509090584E-01  0.00000000000E+00 0. -1.
     999901    1    3    3    0    0  0.15468357570E-01 -0.67930563678E-02 -0.13360096640E+00  0.89024414288E+00  0.88000000000E+00 0. -1.
        -11    1    4    4    0    0  0.77159015011E-02  0.12255412950E-01  0.49904511672E-01  0.51965870422E-01  0.51100000000E-03 0.  1.
         11    1    4    4    0    0 -0.15952163908E-02 -0.96345470695E-03  0.79187322108E-01  0.79210896119E-01  0.51100000000E-03 0. -1.
</event>
<event>
 8    1  0.1120016E+005  0.1043930E+01  0.7957747E-01            NaN
         13   -1    0    0    0    0  0.00000000000E+00  0.00000000000E+00  0.74505805969E-08  0.10566000000E+00  0.10566000000E+00 0.  1.
     999900   -1    0    0    0    0 -0.00000000000E+00 -0.00000000000E+00 -0.74505805969E-08  0.93827000000E+00  0.93827000000E+00 0. -1.
     999902    2    1    2    0    0 -0.21065435983E-01 -0.10000345477E-01 -0.33192206296E-02  0.10203763012E+01  0.10201044159E+01 0.  0.
     999903    2    3    3    0    0 -0.51773367579E-03 -0.77177930499E-01  0.10411844969E+00  0.13106314542E+00  0.19498602942E-01 0.  0.
         14    1    1    2    0    0  0.21065435983E-01  0.10000345477E-01  0.33192206296E-02  0.23553698826E-01  0.00000000000E+00 0. -1.
     999901    1    3    3    0    0 -0.20547702307E-01  0.67177585022E-01 -0.10743767032E+00  0.88931315576E+00  0.88000000000E+00 0. -1.
        -11    1    4    4    0    0 -0.60642854941E-03 -0.39237058238E-01  0.68901342220E-01  0.79294202660E-01  0.51100000000E-03 0. -1.
         11    1    4    4    0    0  0.88694873622E-04 -0.37940872261E-01  0.35217107469E-01  0.51768942757E-01  0.51100000000E-03 0.  1.
</event>
<event>
 8    1  0.1120016E+005  0.1043930E+01  0.7957747E-01            NaN
         13   -1    0    0    0    0  0.00000000000E+00  0.00000000000E+00  0.74505805969E-08  0.10566000000E+00  0.10566000000E+00 0. -1.
     999900   -1    0    0    0    0 -0.00000000000E+00 -0.00000000000E+00 -0.74505805969E-08  0.93827000000E+00  0.93827000000E+00 0.  1.
     999902    2    1    2    0    0 -0.96667846808E-02 -0.12958749780E-01 -0.16762380579E-01  0.10206415195E+01  0.10203757925E+01 0.  0.
     999903    2    3    3    0    0  0.36626818823E-01  0.12199232446E+00 -0.67776708712E-02  0.12909534312E+00  0.19900243955E-01 0.  0.
         14    1    1    2    0    0  0.96667846808E-02  0.12958749780E-01  0.16762380579E-01  0.23288480513E-01  0.00000000000E+00 0. -1.
     999901    1    3    3    0    0 -0.46293603504E-01 -0.13495107424E+00 -0.99847097076E-02  0.89154617637E+00  0.88000000000E+00 0. -1.
        -11    1    4    4    0    0  0.46872484977E-02  0.49138465296E-01 -0.21072600731E-02  0.49409115922E-01  0.51100000000E-03 0.  1.
         11    1    4    4    0    0  0.31939570325E-01  0.72853859162E-01 -0.46704107981E-02  0.79686227200E-01  0.51100000000E-03 0. -1.
</event>
<event>
 8    1  0.1120016E+005  0.1043930E+01  0.7957747E-01            NaN
         13   -1    0    0    0    0  0.00000000000E+00  0.00000000000E+00  0.74505805969E-08  0.10566000000E+00  0.10566000000E+00 0.  1.
     999900   -1    0    0    0    0 -0.00000000000E+00 -0.00000000000E+00 -0.74505805969E-08  0.93827000000E+00  0.93827000000E+00 0.  1.
     999902    2    1    2    0    0 -0.56817940643E-02  0.52281385404E-02 -0.23433093334E-01  0.10192576252E+01  0.10189589689E+01 0.  0.
     999903    2    3    3    0    0 -0.81735586469E-01 -0.80588241156E-01 -0.60139516640E-01  0.13105945366E+00  0.19612450754E-01 0.  0.
         14    1    1    2    0    0  0.56817940643E-02 -0.52281385404E-02  0.23433093334E-01  0.24672374827E-01  0.00000000000E+00 0.  1.
     999901    1    3    3    0    0  0.76053792405E-01  0.85816379696E-01  0.36706423306E-01  0.88819817151E+00  0.88000000000E+00 0. -1.
        -11    1    4    4    0    0 -0.74450599990E-01 -0.70620439801E-01 -0.46520442678E-01  0.11267009836E+00  0.51100000000E-03 0.  1.
         11    1    4    4    0    0 -0.72849864797E-02 -0.99678013547E-02 -0.13619073962E-01  0.18389355302E-01  0.51100000000E-03 0. -1.
</event>
<event>
 8    1  0.1120016E+005  0.1043930E+01  0.7957747E-01            NaN
         13   -1    0    0    0    0  0.00000000000E+00  0.00000000000E+00  0.74505805969E-08  0.10566000000E+00  0.10566000000E+00 0. -1.
     999900   -1    0    0    0    0 -0.00000000000E+00 -0.00000000000E+00 -0.74505805969E-08  0.93827000000E+00  0.93827000000E+00 0. -1.
     999902    2    1    2    0    0  0.21133552584E-01 -0.79757313670E-02 -0.87451173179E-03  0.10213246001E+01  0.10210744021E+01 0.  0.
     999903    2    3    3    0    0 -0.68155639152E-01 -0.97803936722E-01 -0.50325771519E-01  0.13088252259E+00  0.19665966885E-01 0.  0.
         14    1    1    2    0    0 -0.21133552584E-01  0.79757313670E-02  0.87451173179E-03  0.22605399940E-01  0.00000000000E+00 0. -1.
     999901    1    3    3    0    0  0.89289191736E-01  0.89828205355E-01  0.49451259787E-01  0.89044207747E+00  0.88000000000E+00 0.  1.
        -11    1    4    4    0    0 -0.56123961497E-01 -0.66533350839E-01 -0.32397613615E-01  0.92878696788E-01  0.51100000000E-03 0. -1.
         11    1    4    4    0    0 -0.12031677655E-01 -0.31270585883E-01 -0.17928157904E-01  0.38003825801E-01  0.51100000000E-03 0.  1.
</event>
<event>
 8    1  0.1120016E+005  0.1043930E+01  0.7957747E-01            NaN
         13   -1    0    0    0    0  0.00000000000E+00  0.00000000000E+00  0.74505805969E-08  0.10566000000E+00  0.10566000000E+00 0.  1.
     999900   -1    0    0    0    0 -0.00000000000E+00 -0.00000000000E+00 -0.74505805969E-08  0.93827000000E+00  0.93827000000E+00 0.  1.
     999902    2    1    2    0    0 -0.23205619291E-01 -0.56542683114E-02 -0.11456168062E-02  0.10200179956E+01  0.10197376758E+01 0.  0.
     999903    2    3    3    0    0 -0.10879392419E+00  0.30405542333E-01  0.66475987201E-01  0.13255061636E+00  0.19748267710E-01 0.  0.
         14    1    1    2    0    0  0.23205619291E-01  0.56542683114E-02  0.11456168062E-02  0.23912004405E-01  0.00000000000E+00 0.  1.
     999901    1    3    3    0    0  0.85588304899E-01 -0.36059810645E-01 -0.67621604007E-01  0.88746737924E+00  0.88000000000E+00 0.  1.
        -11    1    4    4    0    0 -0.36612364746E-01  0.79512598078E-02  0.11900569974E-01  0.39313769490E-01  0.51100000000E-03 0.  1.
         11    1    4    4    0    0 -0.72181559444E-01  0.22454282525E-01  0.54575417227E-01  0.93236846869E-01  0.51100000000E-03 0. -1.
</event>
<event>
 8    1  0.1120016E+005  0.1043930E+01  0.7957747E-01            NaN
         13   -1    0    0    0    0  0.00000000000E+00  0.00000000000E+00  0.74505805969E-08  0.10566000000E+00  0.10566000000E+00 0.  1.
     999900   -1    0    0    0    0 -0.00000000000E+00 -0.00000000000E+00 -0.74505805969E-08  0.93827000000E+00  0.93827000000E+00 0.  1.
     999902    2    1    2    0    0  0.17287605715E-01 -0.21279687167E-02  0.17402964347E-01  0.10193078001E+01  0.10190103721E+01 0.  0.
     999903    2    3    3    0    0  0.12644814490E+00  0.10762605481E-01  0.31344368838E-01  0.13235991377E+00  0.20777639214E-01 0.  0.
         14    1    1    2    0    0 -0.17287605715E-01  0.21279687167E-02 -0.17402964347E-01  0.24622199947E-01  0.00000000000E+00 0. -1.
     999901    1    3    3    0    0 -0.10916053918E+00 -0.12890574198E-01 -0.13941404491E-01  0.88694788628E+00  0.88000000000E+00 0.  1.
        -11    1    4    4    0    0  0.81154725840E-01 -0.22333891505E-02  0.15574224705E-01  0.82667376573E-01  0.51100000000E-03 0. -1.
         11    1    4    4    0    0  0.45293419057E-01  0.12995994632E-01  0.15770144133E-01  0.49692537199E-01  0.51100000000E-03 0.  1.
</event>
<event>
 8    1  0.1120016E+005  0.1043930E+01  0.7957747E-01            NaN
         13   -1    0    0    0    0  0.00000000000E+00  0.00000000000E+00  0.74505805969E-08  0.10566000000E+00  0.10566000000E+00 0.  1.
     999900   -1    0    0    0    0 -0.00000000000E+00 -0.00000000000E+00 -0.74505805969E-08  0.93827000000E+00  0.93827000000E+00 0. -1.
     999902    2    1    2    0    0  0.78752661375E-02  0.22794094913E-01 -0.22378616179E-02  0.10197102022E+01  0.10194225316E+01 0.  0.
     999903    2    3    3    0    0 -0.71104698399E-01 -0.55816683612E-01 -0.89082895790E-01  0.12844169652E+00  0.19751627253E-01 0.  0.
         14    1    1    2    0    0 -0.78752661375E-02 -0.22794094913E-01  0.22378616179E-02  0.24219797775E-01  0.00000000000E+00 0. -1.
     999901    1    3    3    0    0  0.78979964536E-01  0.78610778525E-01  0.86845034172E-01  0.89126850570E+00  0.88000000000E+00 0.  1.
        -11    1    4    4    0    0 -0.18879548684E-01 -0.26318315728E-01 -0.34799088395E-01  0.47542915091E-01  0.51100000000E-03 0.  1.
         11    1    4    4    0    0 -0.52225149715E-01 -0.29498367884E-01 -0.54283807395E-01  0.80898781430E-01  0.51100000000E-03 0. -1.
</event>
<event>
 8    1  0.1120016E+005  0.1043930E+01  0.7957747E-01            NaN
         13   -1    0    0    0    0  0.00000000000E+00  0.00000000000E+00  0.74505805969E-08  0.10566000000E+00  0.10566000000E+00 0. -1.
     999900   -1    0    0    0    0 -0.00000000000E+00 -0.00000000000E+00 -0.74505805969E-08  0.93827000000E+00  0.93827000000E+00 0. -1.
     999902    2    1    2    0    0  0.38656069393E-02 -0.22282888620E-01  0.73462590164E-02  0.10201510689E+01  0.10198738970E+01 0.  0.
     999903    2    3    3    0    0 -0.56581731901E-01  0.87723941102E-01 -0.70965328578E-01  0.12780131231E+00  0.20002883283E-01 0.  0.
         14    1    1    2    0    0 -0.38656069393E-02  0.22282888620E-01 -0.73462590164E-02  0.23778931090E-01  0.00000000000E+00 0. -1.
     999901    1    3    3    0    0  0.60447338840E-01 -0.11000682972E+00  0.78311587595E-01  0.89234975660E+00  0.88000000000E+00 0. -1.
        -11    1    4    4    0    0 -0.22963979945E-01  0.40622872107E-01 -0.43290409305E-01  0.63654401042E-01  0.51100000000E-03 0. -1.
         11    1    4    4    0    0 -0.33617751956E-01  0.47101068995E-01 -0.27674919273E-01  0.64146911265E-01  0.51100000000E-03 0.  1.
</event>
<event>
 8    1  0.1120016E+005  0.1043930E+01  0.7957747E-01            NaN
         13   -1    0    0    0    0  0.00000000000E+00  0.00000000000E+00  0.74505805969E-08  0.10566000000E+00  0.10566000000E+00 0. -1.
     999900   -1    0    0    0    0 -0.00000000000E+00 -0.00000000000E+00 -0.74505805969E-08  0.93827000000E+00  0.93827000000E+00 0. -1.
     999902    2    1    2    0    0 -0.21075703268E-01 -0.10460300944E-01  0.44307658033E-02  0.10199876766E+01  0.10197066370E+01 0.  0.
     999903    2    3    3    0    0  0.12035266819E+00  0.33718075999E-01  0.10069234831E-01  0.12758333687E+00  0.23546655138E-01 0.  0.
         14    1    1    2    0    0  0.21075703268E-01  0.10460300944E-01 -0.44307658033E-02  0.23942323398E-01  0.00000000000E+00 0.  1.
     999901    1    3    3    0    0 -0.14142837145E+00 -0.44178376943E-01 -0.56384690282E-02  0.89240433973E+00  0.88000000000E+00 0.  1.
        -11    1    4    4    0    0  0.83872212505E-01  0.19941218089E-01 -0.35238673091E-02  0.86283712085E-01  0.51100000000E-03 0.  1.
         11    1    4    4    0    0  0.36480455680E-01  0.13776857910E-01  0.13593102141E-01  0.41299624784E-01  0.51100000000E-03 0. -1.
</event>
<event>
 8    1  0.1120016E+005  0.1043930E+01  0.7957747E-01            NaN
         13   -1    0    0    0    0  0.00000000000E+00  0.00000000000E+00  0.74505805969E-08  0.10566000000E+00  0.10566000000E+00 0. -1.
     999900   -1    0    0    0    0 -0.00000000000E+00 -0.00000000000E+00 -0.74505805969E-08  0.93827000000E+00  0.93827000000E+00 0.  1.
     999902    2    1    2    0    0 -0.10791755352E-01  0.12260686045E-01  0.58006062773E-02  0.10265969841E+01  0.10264506488E+01 0.  0.
     999903    2    3    3    0    0  0.10082419247E+00  0.51102681920E-01  0.73156935109E-01  0.13614558429E+00  0.20166335342E-01 0.  0.
         14    1    1    2    0    0  0.10791755352E-01 -0.12260686045E-01 -0.58006062773E-02  0.17333015867E-01  0.00000000000E+00 0.  1.
     999901    1    3    3    0    0 -0.11161594782E+00 -0.38841995875E-01 -0.67356328831E-01  0.89045139984E+00  0.88000000000E+00 0. -1.
        -11    1    4    4    0    0  0.84148809548E-01  0.38389731543E-01  0.67241599415E-01  0.11435247024E+00  0.51100000000E-03 0.  1.
         11    1    4    4    0    0  0.16675382917E-01  0.12712950377E-01  0.59153356936E-02  0.21793114052E-01  0.51100000000E-03 0. -1.
</event>
<event>
 8    1  0.1120016E+005  0.1043930E+01  0.7957747E-01            NaN
         13   -1    0    0    0    0  0.00000000000E+00  0.00000000000E+00  0.74505805969E-08  0.10566000000E+00  0.10566000000E+00 0.  1.
     999900   -1    0    0    0    0 -0.00000000000E+00 -0.00000000000E+00 -0.74505805969E-08  0.93827000000E+00  0.93827000000E+00 0.  1.
     999902    2    1    2    0    0  0.14806279926E-01 -0.17676562475E-01  0.62662837822E-02  0.10200353751E+01  0.10197554674E+01 0.  0.
     999903    2    3    3    0    0  0.11442875405E+00  0.60524976448E-01 -0.10179058225E-02  0.13093854267E+00  0.19663501604E-01 0.  0.
         14    1    1    2    0    0 -0.14806279926E-01  0.17676562475E-01 -0.62662837822E-02  0.23894624890E-01  0.00000000000E+00 0. -1.
     999901    1    3    3    0    0 -0.99622474127E-01 -0.78201538923E-01  0.72841896047E-02  0.88909683244E+00  0.88000000000E+00 0. -1.
        -11    1    4    4    0    0  0.46010004584E-01  0.30181254207E-01 -0.86471838440E-02  0.55703353012E-01  0.51100000000E-03 0. -1.
         11    1    4    4    0    0  0.68418749469E-01  0.30343722242E-01  0.76292780215E-02  0.75235189656E-01  0.51100000000E-03 0.  1.
</event>
<event>
 8    1  0.1120016E+005  0.1043930E+01  0.7957747E-01            NaN
         13   -1    0    0    0    0  0.00000000000E+00  0.00000000000E+00  0.74505805969E-08  0.10566000000E+00  0.10566000000E+00 0.  1.
     999900   -1    0    0    0    0 -0.00000000000E+00 -0.00000000000E+00 -0.74505805969E-08  0.93827000000E+00  0.93827000000E+00 0. -1.
     999902    2    1    2    0    0  0.18855896274E-01  0.12750628509E-01 -0.46932728300E-02  0.10206888692E+01  0.10204242341E+01 0.  0.
     999903    2    3    3    0    0 -0.28303263286E-02  0.12362476880E+00 -0.43426832662E-01  0.13262149793E+00  0.20284913327E-01 0.  0.
         14    1    1    2    0    0 -0.18855896274E-01 -0.12750628509E-01  0.46932728300E-02  0.23241130814E-01  0.00000000000E+00 0.  1.
     999901    1    3    3    0    0  0.21686222603E-01 -0.11087414029E+00  0.38733559832E-01  0.88806737126E+00  0.88000000000E+00 0. -1.
        -11    1    4    4    0    0 -0.90317680799E-02  0.31533925740E-01 -0.80983825346E-02  0.33790623373E-01  0.51100000000E-03 0.  1.
         11    1    4    4    0    0  0.62014417513E-02  0.92090843063E-01 -0.35328450127E-01  0.98830874554E-01  0.51100000000E-03 0. -1.
</event>
<event>
 8    1  0.1120016E+005  0.1043930E+01  0.7957747E-01            NaN
         13   -1    0    0    0    0  0.00000000000E+00  0.00000000000E+00  0.74505805969E-08  0.10566000000E+00  0.10566000000E+00 0.  1.
     999900   -1    0    0    0    0 -0.00000000000E+00 -0.00000000000E+00 -0.74505805969E-08  0.93827000000E+00  0.93827000000E+00 0.  1.
     999902    2    1    2    0    0  0.15752342876E-01 -0.78810288932E-02 -0.14710605814E-01  0.10209811690E+01  0.10207232233E+01 0.  0.
     999903    2    3    3    0    0  0.46958373803E-01 -0.11158212720E+00  0.48920238367E-01  0.13206237712E+00  0.19789435289E-01 0.  0.
         14    1    1    2    0    0 -0.15752342876E-01  0.78810288932E-02  0.14710605814E-01  0.22948831036E-01  0.00000000000E+00 0.  1.
     999901    1    3    3    0    0 -0.31206030926E-01  0.10370109831E+00 -0.63630844181E-01  0.88891879184E+00  0.88000000000E+00 0.  1.
        -11    1    4    4    0    0  0.20118577537E-01 -0.47849114156E-01  0.31598359904E-01  0.60770160089E-01  0.51100000000E-03 0. -1.
         11    1    4    4    0    0  0.26839796265E-01 -0.63733013043E-01  0.17321878463E-01  0.71292217034E-01  0.51100000000E-03 0.  1.
</event>
<event>
 8    1  0.1120016E+005  0.1043930E+01  0.7957747E-01            NaN
         13   -1    0    0    0    0  0.00000000000E+00  0.00000000000E+00  0.74505805969E-08  0.10566000000E+00  0.10566000000E+00 0. -1.
     999900   -1    0    0    0    0 -0.00000000000E+00 -0.00000000000E+00 -0.74505805969E-08  0.93827000000E+00  0.93827000000E+00 0. -1.
     999902    2    1    2    0    0 -0.19984160852E-01  0.48821259632E-02 -0.86165977968E-02  0.10216264667E+01  0.10213829791E+01 0.  0.
     999903    2    3    3    0    0  0.61454182868E-01 -0.13592159372E-01 -0.11302929738E+00  0.13152786832E+00  0.23719078658E-01 0.  0.
         14    1    1    2    0    0  0.19984160852E-01 -0.48821259632E-02  0.86165977968E-02  0.22303533273E-01  0.00000000000E+00 0. -1.
     999901    1    3    3    0    0 -0.81438343719E-01  0.18474285335E-01  0.10441269958E+00  0.89009859840E+00  0.88000000000E+00 0.  1.
        -11    1    4    4    0    0  0.58334986112E-01 -0.12072754542E-01 -0.88088710982E-01  0.10634192085E+00  0.51100000000E-03 0.  1.
         11    1    4    4    0    0  0.31191967555E-02 -0.15194048303E-02 -0.24940586393E-01  0.25185947472E-01  0.51100000000E-03 0. -1.
</event>
<event>
 8    1  0.1120016E+005  0.1043930E+01  0.7957747E-01            NaN
         13   -1    0    0    0    0  0.00000000000E+00  0.00000000000E+00  0.74505805969E-08  0.10566000000E+00  0.10566000000E+00 0. -1.
     999900   -1    0    0    0    0 -0.00000000000E+00 -0.00000000000E+00 -0.74505805969E-08  0.93827000000E+00  0.93827000000E+00 0. -1.
     999902    2    1    2    0    0  0.23475250623E-03  0.13841979837E-01  0.19071942294E-01  0.10203631908E+01  0.10200909992E+01 0.  0.
     999903    2    3    3    0    0  0.10688938515E+00  0.18229866244E-01  0.73289106446E-01  0.13225623488E+00  0.19045993235E-01 0.  0.
         14    1    1    2    0    0 -0.23475250623E-03 -0.13841979837E-01 -0.19071942294E-01  0.23566809233E-01  0.00000000000E+00 0.  1.
     999901    1    3    3    0    0 -0.10665463265E+00 -0.43878864073E-02 -0.54217164151E-01  0.88810695589E+00  0.88000000000E+00 0.  1.
        -11    1    4    4    0    0  0.69549346404E-01  0.59409661178E-02  0.38267088766E-01  0.79605514051E-01  0.51100000000E-03 0. -1.
         11    1    4    4    0    0  0.37340038750E-01  0.12288900126E-01  0.35022017680E-01  0.52650720826E-01  0.51100000000E-03 0.  1.
</event>
<event>
 8    1  0.1324005E+005  0.1043930E+01  0.7957747E-01            NaN
         13   -1    0    0    0    0  0.00000000000E+00  0.00000000000E+00  0.74505805969E-08  0.10566000000E+00  0.10566000000E+00 0. -1.
     999900   -1    0    0    0    0 -0.00000000000E+00 -0.00000000000E+00 -0.74505805969E-08  0.93827000000E+00  0.93827000000E+00 0.  1.
     999902    2    1    2    0    0 -0.12684086649E-01 -0.17194064482E-01  0.88304239555E-02  0.10208107808E+01  0.10205489464E+01 0.  0.
     999903    2    3    3    0    0  0.78495121111E-01 -0.28381671298E-03  0.10294261153E+00  0.13094747209E+00  0.19710266049E-01 0.  0.
         14    1    1    2    0    0  0.12684086649E-01  0.17194064482E-01 -0.88304239555E-02  0.23119219164E-01  0.00000000000E+00 0.  1.
     999901    1    3    3    0    0 -0.91179207760E-01 -0.16910247769E-01 -0.94112187572E-01  0.88986330875E+00  0.88000000000E+00 0.  1.
        -11    1    4    4    0    0  0.53386646792E-01 -0.90666325040E-02  0.64921333096E-01  0.84542169907E-01  0.51100000000E-03 0.  1.
         11    1    4    4    0    0  0.25108474320E-01  0.87828157910E-02  0.38021278431E-01  0.46405302180E-01  0.51100000000E-03 0. -1.
</event>
<event>
 7    1  0.1120016E+005  0.1043930E+01  0.7957747E-01            NaN
         13   -1    0    0    0    0  0.00000000000E+00  0.00000000000E+00  0.74505805969E-08  0.10566000000E+00  0.10566000000E+00 0. -1.
     999900   -1    0    0    0    0 -0.00000000000E+00 -0.00000000000E+00 -0.74505805969E-08  0.93827000000E+00  0.93827000000E+00 0.  1.
     999903    2    1    2    0    0  0.46065159656E-01  0.87022821714E-01 -0.41025082570E-01  0.10850792065E+00  0.19898266523E-01 0.  0.
         14    1    1    2    0    0  0.29813724834E-01  0.23491514758E-01 -0.20513405544E-01  0.43145211335E-01  0.00000000000E+00 0.  1.
     999901    1    1    2    0    0 -0.75878884489E-01 -0.11051433647E+00  0.61538488115E-01  0.89227686802E+00  0.88000000000E+00 0. -1.
        -11    1    3    3    0    0  0.30559815424E-01  0.60792127422E-01 -0.18206224177E-01  0.70436587049E-01  0.51100000000E-03 0.  1.
         11    1    3    3    0    0  0.15505344231E-01  0.26230694291E-01 -0.22818858394E-01  0.38071333601E-01  0.51100000000E-03 0. -1.
</event>
<event>
 8    1  0.1120016E+005  0.1043930E+01  0.7957747E-01            NaN
         13   -1    0    0    0    0  0.00000000000E+00  0.00000000000E+00  0.74505805969E-08  0.10566000000E+00  0.10566000000E+00 0. -1.
     999900   -1    0    0    0    0 -0.00000000000E+00 -0.00000000000E+00 -0.74505805969E-08  0.93827000000E+00  0.93827000000E+00 0.  1.
     999902    2    1    2    0    0 -0.83423315591E-02 -0.53065115726E-02  0.21993196681E-01  0.10198166373E+01  0.10195315196E+01 0.  0.
     999903    2    3    3    0    0  0.62733504769E-01  0.47504762065E-01  0.10372090230E+00  0.13160482528E+00  0.19225228789E-01 0.  0.
         14    1    1    2    0    0  0.83423315591E-02  0.53065115726E-02 -0.21993196681E-01  0.24113362710E-01  0.00000000000E+00 0.  1.
     999901    1    3    3    0    0 -0.71075836328E-01 -0.52811273637E-01 -0.81727705624E-01  0.88821181201E+00  0.88000000000E+00 0.  1.
        -11    1    4    4    0    0  0.35179895000E-01  0.16955609356E-01  0.59795873421E-01  0.71420762388E-01  0.51100000000E-03 0.  1.
         11    1    4    4    0    0  0.27553609769E-01  0.30549152708E-01  0.43925028884E-01  0.60184062890E-01  0.51100000000E-03 0. -1.
</event>
<event>
 8    1  0.1120016E+005  0.1043930E+01  0.7957747E-01            NaN
         13   -1    0    0    0    0  0.00000000000E+00  0.00000000000E+00  0.74505805969E-08  0.10566000000E+00  0.10566000000E+00 0.  1.
     999900   -1    0    0    0    0 -0.00000000000E+00 -0.00000000000E+00 -0.74505805969E-08  0.93827000000E+00  0.93827000000E+00 0. -1.
     999902    2    1    2    0    0  0.17379076005E-01 -0.10947829932E-01 -0.10071259839E-01  0.10210538653E+01  0.10207975697E+01 0.  0.
     999903    2    3    3    0    0  0.50694905247E-01 -0.20943262531E-01 -0.12003159132E+00  0.13352858250E+00  0.20339758279E-01 0.  0.
         14    1    1    2    0    0 -0.17379076005E-01  0.10947829932E-01  0.10071259839E-01  0.22876134677E-01  0.00000000000E+00 0. -1.
     999901    1    3    3    0    0 -0.33315829242E-01  0.99954325994E-02  0.10996033148E+00  0.88752528282E+00  0.88000000000E+00 0.  1.
        -11    1    4    4    0    0  0.26875776909E-02 -0.27326876226E-02 -0.26928170092E-01  0.27204376872E-01  0.51100000000E-03 0.  1.
         11    1    4    4    0    0  0.48007327556E-01 -0.18210574909E-01 -0.93103421226E-01  0.10632420563E+00  0.51100000000E-03 0. -1.
</event>
<event>
 8    1  0.1120016E+005  0.1043930E+01  0.7957747E-01            NaN
         13   -1    0    0    0    0  0.00000000000E+00  0.00000000000E+00  0.74505805969E-08  0.10566000000E+00  0.10566000000E+00 0. -1.
     999900   -1    0    0    0    0 -0.00000000000E+00 -0.00000000000E+00 -0.74505805969E-08  0.93827000000E+00  0.93827000000E+00 0. -1.
     999902    2    1    2    0    0  0.18672809347E-01 -0.24649234676E-02 -0.17599352592E-01  0.10181523572E+01  0.10178259849E+01 0.  0.
     999903    2    3    3    0    0  0.24942718770E-01  0.66271273874E-01  0.10391509083E+00  0.12712500827E+00  0.18665493913E-01 0.  0.
         14    1    1    2    0    0 -0.18672809347E-01  0.24649234676E-02  0.17599352592E-01  0.25777642799E-01  0.00000000000E+00 0. -1.
     999901    1    3    3    0    0 -0.62699094229E-02 -0.68736197342E-01 -0.12151444343E+00  0.89102734894E+00  0.88000000000E+00 0. -1.
        -11    1    4    4    0    0  0.19356956773E-01  0.47290948289E-01  0.59069942577E-01  0.78106624576E-01  0.51100000000E-03 0.  1.
         11    1    4    4    0    0  0.55857619974E-02  0.18980325585E-01  0.44845148256E-01  0.49018383689E-01  0.51100000000E-03 0. -1.
</event>
<event>
 8    1  0.1120016E+005  0.1043930E+01  0.7957747E-01            NaN
         13   -1    0    0    0    0  0.00000000000E+00  0.00000000000E+00  0.74505805969E-08  0.10566000000E+00  0.10566000000E+00 0.  1.
     999900   -1    0    0    0    0 -0.00000000000E+00 -0.00000000000E+00 -0.74505805969E-08  0.93827000000E+00  0.93827000000E+00 0. -1.
     999902    2    1    2    0    0  0.18398373156E-01  0.22703447897E-02 -0.15702383130E-01  0.10196355678E+01  0.10193461000E+01 0.  0.
     999903    2    3    3    0    0 -0.11480660662E+00 -0.81125243934E-02 -0.54302717470E-01  0.12871393464E+00  0.19290460590E-01 0.  0.
         14    1    1    2    0    0 -0.18398373156E-01 -0.22703447897E-02  0.15702383130E-01  0.24294432206E-01  0.00000000000E+00 0.  1.
     999901    1    3    3    0    0  0.13320497978E+00  0.10382869183E-01  0.38600334340E-01  0.89092163315E+00  0.88000000000E+00 0.  1.
        -11    1    4    4    0    0 -0.40708847361E-01  0.51604196084E-02 -0.14239331580E-01  0.43438000286E-01  0.51100000000E-03 0. -1.
         11    1    4    4    0    0 -0.74097759262E-01 -0.13272944002E-01 -0.40063385890E-01  0.85275934354E-01  0.51100000000E-03 0.  1.
</event>
<event>
 8    1  0.1120016E+005  0.1043930E+01  0.7957747E-01            NaN
         13   -1    0    0    0    0  0.00000000000E+00  0.00000000000E+00  0.74505805969E-08  0.10566000000E+00  0.10566000000E+00 0.  1.
     999900   -1    0    0    0    0 -0.00000000000E+00 -0.00000000000E+00 -0.74505805969E-08  0.93827000000E+00  0.93827000000E+00 0. -1.
     999902    2    1    2    0    0  0.12605430693E-01  0.10759630982E-02 -0.20068726428E-01  0.10202064176E+01  0.10199305497E+01 0.  0.
     999903    2    3    3    0    0  0.61438722157E-01  0.10162481248E+00  0.49191334451E-01  0.13043581940E+00  0.22167465001E-01 0.  0.
         14    1    1    2    0    0 -0.12605430693E-01 -0.10759630982E-02  0.20068726428E-01  0.23723582360E-01  0.00000000000E+00 0.  1.
     999901    1    3    3    0    0 -0.48833291464E-01 -0.10054884938E+00 -0.69260060878E-01  0.88977059824E+00  0.88000000000E+00 0. -1.
        -11    1    4    4    0    0  0.16451760827E-01  0.20183726650E-01  0.20270544014E-01  0.33003020034E-01  0.51100000000E-03 0. -1.
         11    1    4    4    0    0  0.44986961330E-01  0.81441085831E-01  0.28920790437E-01  0.97432799362E-01  0.51100000000E-03 0.  1.
</event>
<event>
 8    1  0.1120016E+005  0.1043930E+01  0.7957747E-01            NaN
         13   -1    0    0    0    0  0.00000000000E+00  0.00000000000E+00  0.74505805969E-08  0.10566000000E+00  0.10566000000E+00 0.  1.
     999900   -1    0    0    0    0 -0.00000000000E+00 -0.00000000000E+00 -0.74505805969E-08  0.93827000000E+00  0.93827000000E+00 0.  1.
     999902    2    1    2    0    0 -0.10263046239E-01  0.19378217032E-01  0.93005716530E-02  0.10201109730E+01  0.10198328545E+01 0.  0.
     999903    2    3    3    0    0  0.53088241019E-01 -0.11437728103E+00  0.26835122887E-02  0.12772781297E+00  0.20166041224E-01 0.  0.
         14    1    1    2    0    0  0.10263046239E-01 -0.19378217032E-01 -0.93005716530E-02  0.23819026985E-01  0.00000000000E+00 0. -1.
     999901    1    3    3    0    0 -0.63351287257E-01  0.13375549806E+00  0.66170593643E-02  0.89238316005E+00  0.88000000000E+00 0.  1.
        -11    1    4    4    0    0  0.22855034116E-01 -0.65844706984E-01  0.86538561381E-02  0.70235520709E-01  0.51100000000E-03 0.  1.
         11    1    4    4    0    0  0.30233206903E-01 -0.48532574042E-01 -0.59703438494E-02  0.57492292261E-01  0.51100000000E-03 0. -1.
</event>
<event>
 8    1  0.1120016E+005  0.1043930E+01  0.7957747E-01            NaN
         13   -1    0    0    0    0  0.00000000000E+00  0.00000000000E+00  0.74505805969E-08  0.10566000000E+00  0.10566000000E+00 0. -1.
     999900   -1    0    0    0    0 -0.00000000000E+00 -0.00000000000E+00 -0.74505805969E-08  0.93827000000E+00  0.93827000000E+00 0.  1.
     999902    2    1    2    0    0 -0.17924217385E-01 -0.11447632669E-01 -0.61709514679E-02  0.10217848763E+01  0.10215448727E+01 0.  0.
     999903    2    3    3    0    0 -0.52003598156E-01  0.77106269970E-01 -0.92085568468E-01  0.13252421748E+00  0.20812621409E-01 0.  0.
         14    1    1    2    0    0  0.17924217385E-01  0.11447632669E-01  0.61709514679E-02  0.22145123720E-01  0.00000000000E+00 0. -1.
     999901    1    3    3    0    0  0.34079380771E-01 -0.88553902639E-01  0.85914617000E-01  0.88926065880E+00  0.88000000000E+00 0. -1.
        -11    1    4    4    0    0 -0.49847075156E-01  0.71159136771E-01 -0.76750873074E-01  0.11592804357E+00  0.51100000000E-03 0.  1.
         11    1    4    4    0    0 -0.21565230001E-02  0.59471331989E-02 -0.15334695394E-01  0.16596173913E-01  0.51100000000E-03 0. -1.
</event>
<event>
 8    1  0.1120016E+005  0.1043930E+01  0.7957747E-01            NaN
         13   -1    0    0    0    0  0.00000000000E+00  0.00000000000E+00  0.74505805969E-08  0.10566000000E+00  0.10566000000E+00 0.  1.
     999900   -1    0    0    0    0 -0.00000000000E+00 -0.00000000000E+00 -0.74505805969E-08  0.93827000000E+00  0.93827000000E+00 0.  1.
     999902    2    1    2    0    0  0.21297529992E-01 -0.71025190891E-02  0.62954715638E-02  0.10206134067E+01  0.10203470304E+01 0.  0.
     999903    2    3    3    0    0 -0.33536991478E-01 -0.12416695164E+00  0.13514832627E-01  0.13113995274E+00  0.21745685219E-01 0.  0.
         14    1    1    2    0    0 -0.21297529992E-01  0.71025190891E-02 -0.62954715638E-02  0.23316593306E-01  0.00000000000E+00 0.  1.
     999901    1    3    3    0    0  0.54834521470E-01  0.11706443256E+00 -0.72193610628E-02  0.88947345395E+00  0.88000000000E+00 0. -1.
        -11    1    4    4    0    0 -0.27842488337E-01 -0.67317095767E-01  0.21334191499E-02  0.72880780303E-01  0.51100000000E-03 0.  1.
         11    1    4    4    0    0 -0.56945031411E-02 -0.56849855878E-01  0.11381413477E-01  0.58259172438E-01  0.51100000000E-03 0. -1.
</event>
<event>
 8    1  0.1120016E+005  0.1043930E+01  0.7957747E-01            NaN
         13   -1    0    0    0    0  0.00000000000E+00  0.00000000000E+00  0.74505805969E-08  0.10566000000E+00  0.10566000000E+00 0.  1.
     999900   -1    0    0    0    0 -0.00000000000E+00 -0.00000000000E+00 -0.74505805969E-08  0.93827000000E+00  0.93827000000E+00 0. -1.
     999902    2    1    2    0    0 -0.85762229991E-02  0.22224834094E-02 -0.21001826599E-01  0.10211359711E+01  0.10208815326E+01 0.  0.
     999903    2    3    3    0    0  0.34839160628E-01  0.11984261835E+00  0.32765133807E-01  0.13062472596E+00  0.20328422273E-01 0.  0.
         14    1    1    2    0    0  0.85762229991E-02 -0.22224834094E-02  0.21001826599E-01  0.22794028909E-01  0.00000000000E+00 0.  1.
     999901    1    3    3    0    0 -0.43415383627E-01 -0.11762013494E+00 -0.53766960406E-01  0.89051124513E+00  0.88000000000E+00 0. -1.
        -11    1    4    4    0    0  0.11096150610E-01  0.40618745938E-01  0.12860285675E-02  0.42129824001E-01  0.51100000000E-03 0. -1.
         11    1    4    4    0    0  0.23743010018E-01  0.79223872411E-01  0.31479105239E-01  0.88494901956E-01  0.51100000000E-03 0.  1.
</event>
<event>
 8    1  0.1120016E+005  0.1043930E+01  0.7957747E-01            NaN
         13   -1    0    0    0    0  0.00000000000E+00  0.00000000000E+00  0.74505805969E-08  0.10566000000E+00  0.10566000000E+00 0.  1.
     999900   -1    0    0    0    0 -0.00000000000E+00 -0.00000000000E+00 -0.74505805969E-08  0.93827000000E+00  0.93827000000E+00 0. -1.
     999902    2    1    2    0    0 -0.16134016191E-01 -0.20077664976E-01  0.11374211656E-01  0.10157734413E+01  0.10153831258E+01 0.  0.
     999903    2    3    3    0    0 -0.48701704218E-01 -0.55635382179E-01 -0.10175458500E+00  0.12722230025E+00  0.19088383090E-01 0.  0.
         14    1    1    2    0    0  0.16134016191E-01  0.20077664976E-01 -0.11374211656E-01  0.28156558741E-01  0.00000000000E+00 0.  1.
     999901    1    3    3    0    0  0.32567688027E-01  0.35557717202E-01  0.11312879665E+00  0.88855114101E+00  0.88000000000E+00 0.  1.
        -11    1    4    4    0    0 -0.39710857915E-01 -0.53798021054E-01 -0.85431296713E-01  0.10848938605E+00  0.51100000000E-03 0.  1.
         11    1    4    4    0    0 -0.89908463034E-02 -0.18373611251E-02 -0.16323288284E-01  0.18732914203E-01  0.51100000000E-03 0. -1.
</event>
<event>
 8    1  0.1120016E+005  0.1043930E+01  0.7957747E-01            NaN
         13   -1    0    0    0    0  0.00000000000E+00  0.00000000000E+00  0.74505805969E-08  0.10566000000E+00  0.10566000000E+00 0.  1.
     999900   -1    0    0    0    0 -0.00000000000E+00 -0.00000000000E+00 -0.74505805969E-08  0.93827000000E+00  0.93827000000E+00 0. -1.
     999902    2    1    2    0    0  0.21015775732E-01 -0.35586099101E-02 -0.85906176613E-02  0.10209490243E+01  0.10206903472E+01 0.  0.
     999903    2    3    3    0    0 -0.73997261994E-01 -0.84491711384E-01  0.60980166582E-01  0.12942351242E+00  0.20430877965E-01 0.  0.
         14    1    1    2    0    0 -0.21015775732E-01  0.35586099101E-02  0.85906176613E-02  0.22980975739E-01  0.00000000000E+00 0.  1.
     999901    1    3    3    0    0  0.95013037725E-01  0.80933101474E-01 -0.69570784244E-01  0.89152551185E+00  0.88000000000E+00 0. -1.
        -11    1    4    4    0    0 -0.38072129602E-01 -0.58475222864E-01  0.38432598542E-01  0.79662817507E-01  0.51100000000E-03 0.  1.
         11    1    4    4    0    0 -0.35925132391E-01 -0.26016488519E-01  0.22547568041E-01  0.49760694908E-01  0.51100000000E-03 0. -1.
</event>
<event>
 8    1  0.1120016E+005  0.1043930E+01  0.7957747E-01            NaN
         13   -1    0    0    0    0  0.00000000000E+00  0.00000000000E+00  0.74505805969E-08  0.10566000000E+00  0.10566000000E+00 0. -1.
     999900   -1    0    0    0    0 -0.00000000000E+00 -0.00000000000E+00 -0.74505805969E-08  0.93827000000E+00  0.93827000000E+00 0.  1.
     999902    2    1    2    0    0 -0.74095437261E-03 -0.12092270404E-01  0.20729851037E-01  0.10199196118E+01  0.10196369529E+01 0.  0.
     999903    2    3    3    0    0 -0.21756953236E-01 -0.12803198683E+00  0.13245546287E-01  0.13203465030E+00  0.19802770472E-01 0.  0.
         14    1    1    2    0    0  0.74095437261E-03  0.12092270404E-01 -0.20729851037E-01  0.24010388188E-01  0.00000000000E+00 0.  1.
     999901    1    3    3    0    0  0.21015998863E-01  0.11593971643E+00  0.74843047497E-02  0.88788496151E+00  0.88000000000E+00 0.  1.
        -11    1    4    4    0    0 -0.84497771695E-02 -0.85969392399E-01  0.15892902605E-01  0.87834962503E-01  0.51100000000E-03 0. -1.
         11    1    4    4    0    0 -0.13307176067E-01 -0.42062594433E-01 -0.26473563176E-02  0.44199687802E-01  0.51100000000E-03 0.  1.
</event>
<event>
 8    1  0.1120016E+005  0.1043930E+01  0.7957747E-01            NaN
         13   -1    0    0    0    0  0.00000000000E+00  0.00000000000E+00  0.74505805969E-08  0.10566000000E+00  0.10566000000E+00 0.  1.
     999900   -1    0    0    0    0 -0.00000000000E+00 -0.00000000000E+00 -0.74505805969E-08  0.93827000000E+00  0.93827000000E+00 0. -1.
     999902    2    1    2    0    0 -0.10918204919E-01  0.36387291610E-02 -0.20095438210E-01  0.10207724054E+01  0.10205096911E+01 0.  0.
     999903    2    3    3    0    0 -0.58517048042E-01  0.88977732202E-01  0.73003027644E-01  0.13048272245E+00  0.18841896768E-01 0.  0.
         14    1    1    2    0    0  0.10918204919E-01 -0.36387291610E-02  0.20095438210E-01  0.23157594551E-01  0.00000000000E+00 0.  1.
     999901    1    3    3    0    0  0.47598843123E-01 -0.85339003041E-01 -0.93098465853E-01  0.89028968300E+00  0.88000000000E+00 0. -1.
        -11    1    4    4    0    0 -0.29031661299E-01  0.42784147932E-01  0.24162786787E-01  0.57073829891E-01  0.51100000000E-03 0.  1.
         11    1    4    4    0    0 -0.29485386742E-01  0.46193584271E-01  0.48840240856E-01  0.73408892561E-01  0.51100000000E-03 0. -1.
</event>
<event>
 8    1  0.1120016E+005  0.1043930E+01  0.7957747E-01            NaN
         13   -1    0    0    0    0  0.00000000000E+00  0.00000000000E+00  0.74505805969E-08  0.10566000000E+00  0.10566000000E+00 0.  1.
     999900   -1    0    0    0    0 -0.00000000000E+00 -0.00000000000E+00 -0.74505805969E-08  0.93827000000E+00  0.93827000000E+00 0.  1.
     999902    2    1    2    0    0  0.12053263385E-02  0.17340351758E-01 -0.67855970058E-02  0.10252702857E+01  0.10251004701E+01 0.  0.
     999903    2    3    3    0    0  0.38894317506E-01 -0.13595972229E-01 -0.12760966889E+00  0.13567713570E+00  0.20650403466E-01 0.  0.
         14    1    1    2    0    0 -0.12053263385E-02 -0.17340351758E-01  0.67855970058E-02  0.18659714291E-01  0.00000000000E+00 0. -1.
     999901    1    3    3    0    0 -0.37688991168E-01  0.30936323987E-01  0.12082407188E+00  0.88959315001E+00  0.88000000000E+00 0.  1.
        -11    1    4    4    0    0  0.72999363559E-02  0.39896382475E-02 -0.40692069420E-01  0.41536874206E-01  0.51100000000E-03 0. -1.
         11    1    4    4    0    0  0.31594381150E-01 -0.17585610476E-01 -0.86917599467E-01  0.94140261494E-01  0.51100000000E-03 0.  1.
</event>
<event>
 8    1  0.1120016E+005  0.1043930E+01  0.7957747E-01            NaN
         13   -1    0    0    0    0  0.00000000000E+00  0.00000000000E+00  0.74505805969E-08  0.10566000000E+00  0.10566000000E+00 0.  1.
     999900   -1    0    0    0    0 -0.00000000000E+00 -0.00000000000E+00 -0.74505805969E-08  0.93827000000E+00  0.93827000000E+00 0. -1.
     999902    2    1    2    0    0 -0.10716356129E-01  0.66625297100E-02  0.13654895115E-01  0.10253373737E+01  0.10251687882E+01 0.  0.
     999903    2    3    3    0    0 -0.26203498608E-01  0.12263389105E+00 -0.48333951332E-01  0.13543185891E+00  0.16730899034E-01 0.  0.
         14    1    1    2    0    0  0.10716356129E-01 -0.66625297100E-02 -0.13654895115E-01  0.18592626265E-01  0.00000000000E+00 0.  1.
     999901    1    3    3    0    0  0.15487142479E-01 -0.11597136134E+00  0.61988846447E-01  0.88990551483E+00  0.88000000000E+00 0.  1.
        -11    1    4    4    0    0 -0.26832045189E-01  0.11018922859E+00 -0.47427888213E-01  0.12292798887E+00  0.51100000000E-03 0. -1.
         11    1    4    4    0    0  0.62854658034E-03  0.12444662461E-01 -0.90606311919E-03  0.12503870039E-01  0.51100000000E-03 0.  1.
</event>
<event>
 8    1  0.1120016E+005  0.1043930E+01  0.7957747E-01            NaN
         13   -1    0    0    0    0  0.00000000000E+00  0.00000000000E+00  0.74505805969E-08  0.10566000000E+00  0.10566000000E+00 0. -1.
     999900   -1    0    0    0    0 -0.00000000000E+00 -0.00000000000E+00 -0.74505805969E-08  0.93827000000E+00  0.93827000000E+00 0. -1.
     999902    2    1    2    0    0  0.15917271016E-01  0.81697568291E-02  0.11434821721E-01  0.10226965455E+01  0.10224760948E+01 0.  0.
     999903    2    3    3    0    0 -0.12262838782E+00 -0.32172348210E-01  0.26812669680E-01  0.13081153987E+00  0.17887375907E-01 0.  0.
         14    1    1    2    0    0 -0.15917271016E-01 -0.81697568291E-02 -0.11434821721E-01  0.21233454525E-01  0.00000000000E+00 0. -1.
     999901    1    3    3    0    0  0.13854565884E+00  0.40342105039E-01 -0.15377847959E-01  0.89188500561E+00  0.88000000000E+00 0.  1.
        -11    1    4    4    0    0 -0.52126733880E-01 -0.65245265231E-02  0.55221750603E-02  0.52825385656E-01  0.51100000000E-03 0. -1.
         11    1    4    4    0    0 -0.70501653945E-01 -0.25647821687E-01  0.21290494620E-01  0.77986154210E-01  0.51100000000E-03 0.  1.
</event>
<event>
 8    1  0.1120016E+005  0.1043930E+01  0.7957747E-01            NaN
         13   -1    0    0    0    0  0.00000000000E+00  0.00000000000E+00  0.74505805969E-08  0.10566000000E+00  0.10566000000E+00 0.  1.
     999900   -1    0    0    0    0 -0.00000000000E+00 -0.00000000000E+00 -0.74505805969E-08  0.93827000000E+00  0.93827000000E+00 0. -1.
     999902    2    1    2    0    0 -0.10565643224E-01 -0.53830404009E-02  0.21383416174E-01  0.10194788154E+01  0.10191855546E+01 0.  0.
     999903    2    3    3    0    0 -0.99774166443E-01 -0.78463542003E-01  0.30038263497E-01  0.13191257748E+00  0.19677883782E-01 0.  0.
         14    1    1    2    0    0  0.10565643224E-01  0.53830404009E-02 -0.21383416174E-01  0.24451184592E-01  0.00000000000E+00 0. -1.
     999901    1    3    3    0    0  0.89208523220E-01  0.73080501602E-01 -0.86548473231E-02  0.88756623793E+00  0.88000000000E+00 0. -1.
        -11    1    4    4    0    0 -0.63648423999E-01 -0.47795799822E-01  0.91467386687E-02  0.80121684377E-01  0.51100000000E-03 0.  1.
         11    1    4    4    0    0 -0.36125742445E-01 -0.30667742181E-01  0.20891524828E-01  0.51790893102E-01  0.51100000000E-03 0. -1.
</event>
<event>
 8    1  0.1120016E+005  0.1043930E+01  0.7957747E-01            NaN
         13   -1    0    0    0    0  0.00000000000E+00  0.00000000000E+00  0.74505805969E-08  0.10566000000E+00  0.10566000000E+00 0.  1.
     999900   -1    0    0    0    0 -0.00000000000E+00 -0.00000000000E+00 -0.74505805969E-08  0.93827000000E+00  0.93827000000E+00 0. -1.
     999902    2    1    2    0    0  0.19179359899E-01  0.21330395793E-02  0.14444724865E-01  0.10198250673E+01  0.10195401513E+01 0.  0.
     999903    2    3    3    0    0 -0.55801780428E-01  0.39320912953E-01  0.10950153981E+00  0.13075763038E+00  0.21142322161E-01 0.  0.
         14    1    1    2    0    0 -0.19179359899E-01 -0.21330395793E-02 -0.14444724865E-01  0.24104932699E-01  0.00000000000E+00 0.  1.
     999901    1    3    3    0    0  0.74981140327E-01 -0.37187873373E-01 -0.95056814946E-01  0.88906743692E+00  0.88000000000E+00 0.  1.
        -11    1    4    4    0    0 -0.21978035099E-01  0.44528367957E-02  0.28010799635E-01  0.35884924405E-01  0.51100000000E-03 0. -1.
         11    1    4    4    0    0 -0.33823745329E-01  0.34868076157E-01  0.81490740177E-01  0.94872705973E-01  0.51100000000E-03 0.  1.
</event>
<event>
 8    1  0.1120016E+005  0.1043930E+01  0.7957747E-01            NaN
         13   -1    0    0    0    0  0.00000000000E+00  0.00000000000E+00  0.74505805969E-08  0.10566000000E+00  0.10566000000E+00 0. -1.
     999900   -1    0    0    0    0 -0.00000000000E+00 -0.00000000000E+00 -0.74505805969E-08  0.93827000000E+00  0.93827000000E+00 0.  1.
     999902    2    1    2    0    0 -0.83714506962E-02  0.74426421348E-02 -0.20442591973E-01  0.10206196230E+01  0.10203533904E+01 0.  0.
     999903    2    3    3    0    0 -0.37012000324E-01 -0.64859164740E-01 -0.10800038956E+00  0.13286166035E+00  0.20286380334E-01 0.  0.
         14    1    1    2    0    0  0.83714506962E-02 -0.74426421348E-02  0.20442591973E-01  0.23310376987E-01  0.00000000000E+00 0. -1.
     999901    1    3    3    0    0  0.28640549628E-01  0.72301806875E-01  0.87557797582E-01  0.88775796267E+00  0.88000000000E+00 0. -1.
        -11    1    4    4    0    0 -0.38684032130E-02  0.37585416206E-03 -0.32926042430E-02  0.51193919044E-02  0.51100000000E-03 0.  1.
         11    1    4    4    0    0 -0.33143597111E-01 -0.65235018902E-01 -0.10470778531E+00  0.12774226844E+00  0.51100000000E-03 0. -1.
</event>
<event>
 8    1  0.1120016E+005  0.1043930E+01  0.7957747E-01            NaN
         13   -1    0    0    0    0  0.00000000000E+00  0.00000000000E+00  0.74505805969E-08  0.10566000000E+00  0.10566000000E+00 0.  1.
     999900   -1    0    0    0    0 -0.00000000000E+00 -0.00000000000E+00 -0.74505805969E-08  0.93827000000E+00  0.93827000000E+00 0. -1.
     999902    2    1    2    0    0 -0.14607081119E-01 -0.30222280372E-02  0.19568562635E-01  0.10193245265E+01  0.10190275075E+01 0.  0.
     999903    2    3    3    0    0  0.68175811761E-01  0.45136685120E-01 -0.94735739290E-01  0.12677886288E+00  0.20316449496E-01 0.  0.
         14    1    1    2    0    0  0.14607081119E-01  0.30222280372E-02 -0.19568562635E-01  0.24605473470E-01  0.00000000000E+00 0. -1.
     999901    1    3    3    0    0 -0.82782892880E-01 -0.48158913157E-01  0.11430430192E+00  0.89254566365E+00  0.88000000000E+00 0.  1.
        -11    1    4    4    0    0  0.49129804193E-01  0.34653834113E-01 -0.55018681518E-01  0.81498112345E-01  0.51100000000E-03 0.  1.
         11    1    4    4    0    0  0.19046007568E-01  0.10482851008E-01 -0.39717057772E-01  0.45280750530E-01  0.51100000000E-03 0. -1.
</event>
<event>
 8    1  0.1120016E+005  0.1043930E+01  0.7957747E-01            NaN
         13   -1    0    0    0    0  0.00000000000E+00  0.00000000000E+00  0.74505805969E-08  0.10566000000E+00  0.10566000000E+00 0. -1.
     999900   -1    0    0    0    0 -0.00000000000E+00 -0.00000000000E+00 -0.74505805969E-08  0.93827000000E+00  0.93827000000E+00 0.  1.
     999902    2    1    2    0    0  0.78103638478E-02 -0.11749494452E-01  0.45566566309E-02  0.10291038230E+01  0.10289970180E+01 0.  0.
     999903    2    3    3    0    0  0.98772758945E-01 -0.35276005740E-01 -0.89615521511E-01  0.13910604036E+00  0.17863210192E-01 0.  0.
         14    1    1    2    0    0 -0.78103638478E-02  0.11749494452E-01 -0.45566566309E-02  0.14826176950E-01  0.00000000000E+00 0.  1.
     999901    1    3    3    0    0 -0.90962395097E-01  0.23526511288E-01  0.94172178142E-01  0.88999778269E+00  0.88000000000E+00 0. -1.
        -11    1    4    4    0    0  0.37199536402E-01 -0.11597607704E-01 -0.44673081858E-01  0.59281155325E-01  0.51100000000E-03 0.  1.
         11    1    4    4    0    0  0.61573222543E-01 -0.23678398036E-01 -0.44942439653E-01  0.79824885035E-01  0.51100000000E-03 0. -1.
</event>
<event>
 8    1  0.1120016E+005  0.1043930E+01  0.7957747E-01            NaN
         13   -1    0    0    0    0  0.00000000000E+00  0.00000000000E+00  0.74505805969E-08  0.10566000000E+00  0.10566000000E+00 0. -1.
     999900   -1    0    0    0    0 -0.00000000000E+00 -0.00000000000E+00 -0.74505805969E-08  0.93827000000E+00  0.93827000000E+00 0. -1.
     999902    2    1    2    0    0 -0.20975546977E-01  0.70584494871E-02  0.12500792075E-01  0.10185121897E+01  0.10181949791E+01 0.  0.
     999903    2    3    3    0    0  0.81261882780E-01 -0.74480327702E-02  0.96788324240E-01  0.12847437128E+00  0.21879615639E-01 0.  0.
         14    1    1    2    0    0  0.20975546977E-01 -0.70584494871E-02 -0.12500792075E-01  0.25417810343E-01  0.00000000000E+00 0.  1.
     999901    1    3    3    0    0 -0.10223742976E+00  0.14506482257E-01 -0.84287532164E-01  0.89003781838E+00  0.88000000000E+00 0.  1.
        -11    1    4    4    0    0  0.24219778282E-01 -0.64382504057E-02  0.44554612765E-01  0.51121652633E-01  0.51100000000E-03 0.  1.
         11    1    4    4    0    0  0.57042104498E-01 -0.10097823645E-02  0.52233711475E-01  0.77352718643E-01  0.51100000000E-03 0. -1.
</event>
<event>
 8    1  0.1120016E+005  0.1043930E+01  0.7957747E-01            NaN
         13   -1    0    0    0    0  0.00000000000E+00  0.00000000000E+00  0.74505805969E-08  0.10566000000E+00  0.10566000000E+00 0.  1.
     999900   -1    0    0    0    0 -0.00000000000E+00 -0.00000000000E+00 -0.74505805969E-08  0.93827000000E+00  0.93827000000E+00 0. -1.
     999902    2    1    2    0    0  0.19365420873E-01 -0.87727699635E-02 -0.10634425584E-01  0.10201587563E+01  0.10198817657E+01 0.  0.
     999903    2    3    3    0    0  0.12429381513E+00 -0.21815169908E-01 -0.38408851130E-01  0.13339413658E+00  0.19846957230E-01 0.  0.
         14    1    1    2    0    0 -0.19365420873E-01  0.87727699635E-02  0.10634425584E-01  0.23771243676E-01  0.00000000000E+00 0.  1.
     999901    1    3    3    0    0 -0.10492839426E+00  0.13042399944E-01  0.27774425547E-01  0.88676461975E+00  0.88000000000E+00 0.  1.
        -11    1    4    4    0    0  0.57709429349E-01 -0.87346846209E-02 -0.75748907501E-02  0.58858415219E-01  0.51100000000E-03 0. -1.
         11    1    4    4    0    0  0.66584385779E-01 -0.13080485287E-01 -0.30833960380E-01  0.74535721360E-01  0.51100000000E-03 0.  1.
</event>
<event>
 8    1  0.1120016E+005  0.1043930E+01  0.7957747E-01            NaN
         13   -1    0    0    0    0  0.00000000000E+00  0.00000000000E+00  0.74505805969E-08  0.10566000000E+00  0.10566000000E+00 0. -1.
     999900   -1    0    0    0    0 -0.00000000000E+00 -0.00000000000E+00 -0.74505805969E-08  0.93827000000E+00  0.93827000000E+00 0. -1.
     999902    2    1    2    0    0  0.75322449931E-02 -0.19705570349E-01 -0.40463972175E-02  0.10224493681E+01  0.10222236999E+01 0.  0.
     999903    2    3    3    0    0  0.86509077662E-02  0.12812883731E+00  0.12429160083E-02  0.13010176746E+00  0.20810764015E-01 0.  0.
         14    1    1    2    0    0 -0.75322449931E-02  0.19705570349E-01  0.40463972175E-02  0.21480631924E-01  0.00000000000E+00 0.  1.
     999901    1    3    3    0    0 -0.11186627731E-02 -0.14783440766E+00 -0.52893132259E-02  0.89234760062E+00  0.88000000000E+00 0. -1.
        -11    1    4    4    0    0  0.14051671005E-01  0.56356542095E-01 -0.93739121729E-03  0.58091730205E-01  0.51100000000E-03 0.  1.
         11    1    4    4    0    0 -0.54007632386E-02  0.71772295219E-01  0.21803072256E-02  0.72010037252E-01  0.51100000000E-03 0. -1.
</event>
<event>
 8    1  0.1120016E+005  0.1043930E+01  0.7957747E-01            NaN
         13   -1    0    0    0    0  0.00000000000E+00  0.00000000000E+00  0.74505805969E-08  0.10566000000E+00  0.10566000000E+00 0.  1.
     999900   -1    0    0    0    0 -0.00000000000E+00 -0.00000000000E+00 -0.74505805969E-08  0.93827000000E+00  0.93827000000E+00 0. -1.
     999902    2    1    2    0    0  0.20767575340E-01 -0.10367326323E-02 -0.97341415336E-02  0.10209708948E+01  0.10207127155E+01 0.  0.
     999903    2    3    3    0    0 -0.42478318758E-01 -0.10445748523E+00  0.61109009193E-01  0.12983978930E+00  0.20206090586E-01 0.  0.
         14    1    1    2    0    0 -0.20767575340E-01  0.10367326323E-02  0.97341415336E-02  0.22959105197E-01  0.00000000000E+00 0. -1.
     999901    1    3    3    0    0  0.63245894099E-01  0.10342075259E+00 -0.70843150727E-01  0.89113110550E+00  0.88000000000E+00 0.  1.
        -11    1    4    4    0    0 -0.37445430164E-01 -0.69879034727E-01  0.37786519821E-01  0.87825519843E-01  0.51100000000E-03 0.  1.
         11    1    4    4    0    0 -0.50328885942E-02 -0.34578450499E-01  0.23322489372E-01  0.42014269458E-01  0.51100000000E-03 0. -1.
</event>
<event>
 8    1  0.1120016E+005  0.1043930E+01  0.7957747E-01            NaN
         13   -1    0    0    0    0  0.00000000000E+00  0.00000000000E+00  0.74505805969E-08  0.10566000000E+00  0.10566000000E+00 0. -1.
     999900   -1    0    0    0    0 -0.00000000000E+00 -0.00000000000E+00 -0.74505805969E-08  0.93827000000E+00  0.93827000000E+00 0. -1.
     999902    2    1    2    0    0  0.21154464688E-03  0.22285318974E-01  0.52781001814E-02  0.10210271937E+01  0.10207702934E+01 0.  0.
     999903    2    3    3    0    0  0.85477706550E-01 -0.61170819834E-01 -0.72962416659E-01  0.12953584553E+00  0.20191917076E-01 0.  0.
         14    1    1    2    0    0 -0.21154464688E-03 -0.22285318974E-01 -0.52781001814E-02  0.22902806257E-01  0.00000000000E+00 0. -1.
     999901    1    3    3    0    0 -0.85266161903E-01  0.83456138808E-01  0.78240516841E-01  0.89149134822E+00  0.88000000000E+00 0.  1.
        -11    1    4    4    0    0  0.53157146084E-01 -0.30555361747E-01 -0.51675719953E-01  0.80186990622E-01  0.51100000000E-03 0.  1.
         11    1    4    4    0    0  0.32320560466E-01 -0.30615458087E-01 -0.21286696706E-01  0.49348854904E-01  0.51100000000E-03 0. -1.
</event>
<event>
 8    1  0.1120016E+005  0.1043930E+01  0.7957747E-01            NaN
         13   -1    0    0    0    0  0.00000000000E+00  0.00000000000E+00  0.74505805969E-08  0.10566000000E+00  0.10566000000E+00 0. -1.
     999900   -1    0    0    0    0 -0.00000000000E+00 -0.00000000000E+00 -0.74505805969E-08  0.93827000000E+00  0.93827000000E+00 0. -1.
     999902    2    1    2    0    0 -0.18991481907E-01 -0.11469641001E-01 -0.54189361974E-02  0.10210915692E+01  0.10208361273E+01 0.  0.
     999903    2    3    3    0    0 -0.95369391755E-01  0.84935753280E-01  0.26588921214E-01  0.13196160794E+00  0.19937205668E-01 0.  0.
         14    1    1    2    0    0  0.18991481907E-01  0.11469641001E-01  0.54189361974E-02  0.22838430752E-01  0.00000000000E+00 0. -1.
     999901    1    3    3    0    0  0.76377909848E-01 -0.96405394281E-01 -0.32007857411E-01  0.88912996131E+00  0.88000000000E+00 0. -1.
        -11    1    4    4    0    0 -0.33940989847E-01  0.41567183499E-01  0.16150138069E-01  0.56043818718E-01  0.51100000000E-03 0. -1.
         11    1    4    4    0    0 -0.61428401908E-01  0.43368569781E-01  0.10438783144E-01  0.75917789222E-01  0.51100000000E-03 0.  1.
</event>
<event>
 8    1  0.1120016E+005  0.1043930E+01  0.7957747E-01            NaN
         13   -1    0    0    0    0  0.00000000000E+00  0.00000000000E+00  0.74505805969E-08  0.10566000000E+00  0.10566000000E+00 0.  1.
     999900   -1    0    0    0    0 -0.00000000000E+00 -0.00000000000E+00 -0.74505805969E-08  0.93827000000E+00  0.93827000000E+00 0.  1.
     999902    2    1    2    0    0 -0.82567653213E-02  0.22205561890E-01 -0.15412603286E-02  0.10201889673E+01  0.10199126886E+01 0.  0.
     999903    2    3    3    0    0  0.19753156962E-01 -0.45719117796E-01  0.11629297086E+00  0.12929995964E+00  0.26720769992E-01 0.  0.
         14    1    1    2    0    0  0.82567653213E-02 -0.22205561890E-01  0.15412603286E-02  0.23741032746E-01  0.00000000000E+00 0. -1.
     999901    1    3    3    0    0 -0.28009922283E-01  0.67924679687E-01 -0.11783423119E+00  0.89088900762E+00  0.88000000000E+00 0.  1.
        -11    1    4    4    0    0  0.53554796839E-02 -0.32336144840E-01  0.47222971083E-01  0.57485455070E-01  0.51100000000E-03 0. -1.
         11    1    4    4    0    0  0.14397677278E-01 -0.13382972956E-01  0.69069999774E-01  0.71814504565E-01  0.51100000000E-03 0.  1.
</event>
<event>
 8    1  0.1120016E+005  0.1043930E+01  0.7957747E-01            NaN
         13   -1    0    0    0    0  0.00000000000E+00  0.00000000000E+00  0.74505805969E-08  0.10566000000E+00  0.10566000000E+00 0.  1.
     999900   -1    0    0    0    0 -0.00000000000E+00 -0.00000000000E+00 -0.74505805969E-08  0.93827000000E+00  0.93827000000E+00 0.  1.
     999902    2    1    2    0    0  0.19175519462E-01 -0.30018139119E-02 -0.12991354843E-01  0.10205743426E+01  0.10203070626E+01 0.  0.
     999903    2    3    3    0    0  0.54655682564E-01 -0.85285667151E-01 -0.83968540881E-01  0.13318083605E+00  0.20628392437E-01 0.  0.
         14    1    1    2    0    0 -0.19175519462E-01  0.30018139119E-02  0.12991354843E-01  0.23355657432E-01  0.00000000000E+00 0.  1.
     999901    1    3    3    0    0 -0.35480163102E-01  0.82283853239E-01  0.70977186038E-01  0.88739350652E+00  0.88000000000E+00 0.  1.
        -11    1    4    4    0    0  0.36753609907E-01 -0.39467743298E-01 -0.48510849342E-01  0.72540293817E-01  0.51100000000E-03 0.  1.
         11    1    4    4    0    0  0.17902072657E-01 -0.45817923854E-01 -0.35457691540E-01  0.60640542230E-01  0.51100000000E-03 0. -1.
</event>
<event>
 8    1  0.1120016E+005  0.1043930E+01  0.7957747E-01            NaN
         13   -1    0    0    0    0  0.00000000000E+00  0.00000000000E+00  0.74505805969E-08  0.10566000000E+00  0.10566000000E+00 0.  1.
     999900   -1    0    0    0    0 -0.00000000000E+00 -0.00000000000E+00 -0.74505805969E-08  0.93827000000E+00  0.93827000000E+00 0. -1.
     999902    2    1    2    0    0  0.13576962281E-02  0.20876225829E-01 -0.12253070795E-01  0.10196854565E+01  0.10193971907E+01 0.  0.
     999903    2    3    3    0    0 -0.11286880867E+00  0.50677699121E-01 -0.39295279166E-01  0.13139096524E+00  0.20294571289E-01 0.  0.
         14    1    1    2    0    0 -0.13576962281E-02 -0.20876225829E-01  0.12253070795E-01  0.24244543465E-01  0.00000000000E+00 0.  1.
     999901    1    3    3    0    0  0.11422650490E+00 -0.29801473292E-01  0.27042208370E-01  0.88829449129E+00  0.88000000000E+00 0. -1.
        -11    1    4    4    0    0 -0.10394153917E+00  0.49229826788E-01 -0.31019306026E-01  0.11912127383E+00  0.51100000000E-03 0.  1.
         11    1    4    4    0    0 -0.89272694951E-02  0.14478723328E-02 -0.82759731402E-02  0.12269691412E-01  0.51100000000E-03 0. -1.
</event>
<event>
 8    1  0.1120016E+005  0.1043930E+01  0.7957747E-01            NaN
         13   -1    0    0    0    0  0.00000000000E+00  0.00000000000E+00  0.74505805969E-08  0.10566000000E+00  0.10566000000E+00 0. -1.
     999900   -1    0    0    0    0 -0.00000000000E+00 -0.00000000000E+00 -0.74505805969E-08  0.93827000000E+00  0.93827000000E+00 0. -1.
     999902    2    1    2    0    0  0.16650733012E-01  0.16173568443E-01 -0.35132043328E-02  0.10204529084E+01  0.10201828093E+01 0.  0.
     999903    2    3    3    0    0 -0.33578848669E-01 -0.88478776497E-01 -0.85722653291E-01  0.12903072015E+00  0.18561263079E-01 0.  0.
         14    1    1    2    0    0 -0.16650733012E-01 -0.16173568443E-01  0.35132043328E-02  0.23477091616E-01  0.00000000000E+00 0.  1.
     999901    1    3    3    0    0  0.50229581681E-01  0.10465234494E+00  0.82209448958E-01  0.89142218823E+00  0.88000000000E+00 0.  1.
        -11    1    4    4    0    0 -0.99671448051E-02 -0.46821781496E-01 -0.35209977152E-01  0.59427492039E-01  0.51100000000E-03 0. -1.
         11    1    4    4    0    0 -0.23611703864E-01 -0.41656995001E-01 -0.50512676138E-01  0.69603228111E-01  0.51100000000E-03 0.  1.
</event>
<event>
 8    1  0.1120016E+005  0.1043930E+01  0.7957747E-01            NaN
         13   -1    0    0    0    0  0.00000000000E+00  0.00000000000E+00  0.74505805969E-08  0.10566000000E+00  0.10566000000E+00 0.  1.
     999900   -1    0    0    0    0 -0.00000000000E+00 -0.00000000000E+00 -0.74505805969E-08  0.93827000000E+00  0.93827000000E+00 0.  1.
     999902    2    1    2    0    0  0.79939150527E-02 -0.17412222255E-01  0.14850368262E-01  0.10196890924E+01  0.10194009141E+01 0.  0.
     999903    2    3    3    0    0  0.74502503084E-01  0.73277922544E-01  0.75487496608E-01  0.13046192463E+00  0.20041824648E-01 0.  0.
         14    1    1    2    0    0 -0.79939150527E-02  0.17412222255E-01 -0.14850368262E-01  0.24240907558E-01  0.00000000000E+00 0. -1.
     999901    1    3    3    0    0 -0.66508588031E-01 -0.90690144799E-01 -0.60637128347E-01  0.88922716781E+00  0.88000000000E+00 0.  1.
        -11    1    4    4    0    0  0.39142751834E-01  0.50685265748E-01  0.40031193798E-01  0.75524226464E-01  0.51100000000E-03 0.  1.
         11    1    4    4    0    0  0.35359751250E-01  0.22592656796E-01  0.35456302810E-01  0.54937698163E-01  0.51100000000E-03 0. -1.
</event>
<event>
 8    1  0.1120016E+005  0.1043930E+01  0.7957747E-01            NaN
         13   -1    0    0    0    0  0.00000000000E+00  0.00000000000E+00  0.74505805969E-08  0.10566000000E+00  0.10566000000E+00 0.  1.
     999900   -1    0    0    0    0 -0.00000000000E+00 -0.00000000000E+00 -0.74505805969E-08  0.93827000000E+00  0.93827000000E+00 0. -1.
     999902    2    1    2    0    0  0.22465259979E-01  0.40704741688E-02  0.33119718906E-02  0.10208599800E+01  0.10205992715E+01 0.  0.
     999903    2    3    3    0    0 -0.35952815957E-01  0.44043752042E-01 -0.11450785527E+00  0.13019054287E+00  0.24598200424E-01 0.  0.
         14    1    1    2    0    0 -0.22465259979E-01 -0.40704741688E-02 -0.33119718906E-02  0.23070020019E-01  0.00000000000E+00 0.  1.
     999901    1    3    3    0    0  0.58418075936E-01 -0.39973277874E-01  0.11781982716E+00  0.89066943712E+00  0.88000000000E+00 0.  1.
        -11    1    4    4    0    0 -0.96767301366E-02  0.11966151783E-01 -0.58555935821E-01  0.60546565844E-01  0.51100000000E-03 0. -1.
         11    1    4    4    0    0 -0.26276085820E-01  0.32077600259E-01 -0.55951919448E-01  0.69643977021E-01  0.51100000000E-03 0.  1.
</event>
<event>
 8    1  0.1120016E+005  0.1043930E+01  0.7957747E-01            NaN
         13   -1    0    0    0    0  0.00000000000E+00  0.00000000000E+00  0.74505805969E-08  0.10566000000E+00  0.10566000000E+00 0.  1.
     999900   -1    0    0    0    0 -0.00000000000E+00 -0.00000000000E+00 -0.74505805969E-08  0.93827000000E+00  0.93827000000E+00 0. -1.
     999902    2    1    2    0    0  0.17348395664E-01  0.15561187176E-02 -0.17883431540E-01  0.10189659166E+01  0.10186600678E+01 0.  0.
     999903    2    3    3    0    0 -0.87382816429E-01  0.10495942682E-01  0.88201125327E-01  0.12638399852E+00  0.21155499347E-01 0.  0.
         14    1    1    2    0    0 -0.17348395664E-01 -0.15561187176E-02  0.17883431540E-01  0.24964083424E-01  0.00000000000E+00 0.  1.
     999901    1    3    3    0    0  0.10473121209E+00 -0.89398239641E-02 -0.10608455687E+00  0.89258191806E+00  0.88000000000E+00 0. -1.
        -11    1    4    4    0    0 -0.51392361213E-01 -0.15470864197E-02  0.60481549635E-01  0.79384174964E-01  0.51100000000E-03 0. -1.
         11    1    4    4    0    0 -0.35990455215E-01  0.12043029101E-01  0.27719575692E-01  0.46999823553E-01  0.51100000000E-03 0.  1.
</event>
<event>
 8    1  0.1120016E+005  0.1043930E+01  0.7957747E-01            NaN
         13   -1    0    0    0    0  0.00000000000E+00  0.00000000000E+00  0.74505805969E-08  0.10566000000E+00  0.10566000000E+00 0.  1.
     999900   -1    0    0    0    0 -0.00000000000E+00 -0.00000000000E+00 -0.74505805969E-08  0.93827000000E+00  0.93827000000E+00 0. -1.
     999902    2    1    2    0    0 -0.13699956999E-01  0.20584155540E-01  0.46285992068E-02  0.10187740820E+01  0.10184634554E+01 0.  0.
     999903    2    3    3    0    0 -0.90551639798E-01  0.92945727858E-01  0.17685652414E-01  0.13236962297E+00  0.19246479880E-01 0.  0.
         14    1    1    2    0    0  0.13699956999E-01 -0.20584155540E-01 -0.46285992068E-02  0.25155918026E-01  0.00000000000E+00 0. -1.
     999901    1    3    3    0    0  0.76851682798E-01 -0.72361572318E-01 -0.13057053208E-01  0.88640445900E+00  0.88000000000E+00 0. -1.
        -11    1    4    4    0    0 -0.80666412245E-01  0.83721998601E-01  0.21673588228E-01  0.11826431694E+00  0.51100000000E-03 0.  1.
         11    1    4    4    0    0 -0.98852275524E-02  0.92237292577E-02 -0.39879358138E-02  0.14105306031E-01  0.51100000000E-03 0. -1.
</event>
<event>
 8    1  0.1120016E+005  0.1043930E+01  0.7957747E-01            NaN
         13   -1    0    0    0    0  0.00000000000E+00  0.00000000000E+00  0.74505805969E-08  0.10566000000E+00  0.10566000000E+00 0.  1.
     999900   -1    0    0    0    0 -0.00000000000E+00 -0.00000000000E+00 -0.74505805969E-08  0.93827000000E+00  0.93827000000E+00 0. -1.
     999902    2    1    2    0    0 -0.30131372352E-02  0.37033827999E-02 -0.23150613085E-01  0.10202922140E+01  0.10200183611E+01 0.  0.
     999903    2    3    3    0    0  0.12060508682E+00 -0.15140365571E-01  0.39284580373E-01  0.12926207673E+00  0.19763314216E-01 0.  0.
         14    1    1    2    0    0  0.30131372352E-02 -0.37033827999E-02  0.23150613085E-01  0.23637785987E-01  0.00000000000E+00 0.  1.
     999901    1    3    3    0    0 -0.12361822405E+00  0.18843748371E-01 -0.62435193457E-01  0.89103013729E+00  0.88000000000E+00 0. -1.
        -11    1    4    4    0    0  0.11123299024E+00 -0.18300272096E-01  0.32726183075E-01  0.11738373932E+00  0.51100000000E-03 0. -1.
         11    1    4    4    0    0  0.93720965796E-02  0.31599065248E-02  0.65583972976E-02  0.11878337411E-01  0.51100000000E-03 0.  1.
</event>
<event>
 8    1  0.1120016E+005  0.1043930E+01  0.7957747E-01            NaN
         13   -1    0    0    0    0  0.00000000000E+00  0.00000000000E+00  0.74505805969E-08  0.10566000000E+00  0.10566000000E+00 0.  1.
     999900   -1    0    0    0    0 -0.00000000000E+00 -0.00000000000E+00 -0.74505805969E-08  0.93827000000E+00  0.93827000000E+00 0. -1.
     999902    2    1    2    0    0 -0.23671955629E-01 -0.42585580724E-02 -0.47630122922E-02  0.10194109648E+01  0.10191160543E+01 0.  0.
     999903    2    3    3    0    0  0.81928399261E-01 -0.33934236176E-01  0.88791250720E-01  0.12767979403E+00  0.23546732460E-01 0.  0.
         14    1    1    2    0    0  0.23671955629E-01  0.42585580724E-02  0.47630122922E-02  0.24519035182E-01  0.00000000000E+00 0. -1.
     999901    1    3    3    0    0 -0.10560035489E+00  0.29675678104E-01 -0.93554263012E-01  0.89173117079E+00  0.88000000000E+00 0. -1.
        -11    1    4    4    0    0  0.35667401174E-01 -0.18357960156E-01  0.24687678747E-01  0.47105422304E-01  0.51100000000E-03 0. -1.
         11    1    4    4    0    0  0.46260998087E-01 -0.15576276020E-01  0.64103571973E-01  0.80574371728E-01  0.51100000000E-03 0.  1.
</event>
<event>
 8    1  0.1120016E+005  0.1043930E+01  0.7957747E-01            NaN
         13   -1    0    0    0    0  0.00000000000E+00  0.00000000000E+00  0.74505805969E-08  0.10566000000E+00  0.10566000000E+00 0. -1.
     999900   -1    0    0    0    0 -0.00000000000E+00 -0.00000000000E+00 -0.74505805969E-08  0.93827000000E+00  0.93827000000E+00 0.  1.
     999902    2    1    2    0    0 -0.19220199350E-01  0.47452074814E-04  0.12996313859E-01  0.10207282223E+01  0.10204644929E+01 0.  0.
     999903    2    3    3    0    0 -0.48720398830E-01 -0.92804726144E-01  0.78918200568E-01  0.13290082695E+00  0.21169623697E-01 0.  0.
         14    1    1    2    0    0  0.19220199350E-01 -0.47452074814E-04 -0.12996313859E-01  0.23201777705E-01  0.00000000000E+00 0.  1.
     999901    1    3    3    0    0  0.29500199480E-01  0.92852178219E-01 -0.65921886709E-01  0.88782739534E+00  0.88000000000E+00 0.  1.
        -11    1    4    4    0    0 -0.27119089988E-01 -0.45884104359E-01  0.52762845611E-01  0.74999833817E-01  0.51100000000E-03 0. -1.
         11    1    4    4    0    0 -0.21601308842E-01 -0.46920621785E-01  0.26155354957E-01  0.57900993137E-01  0.51100000000E-03 0.  1.
</event>
<event>
 8    1  0.1120016E+005  0.1043930E+01  0.7957747E-01            NaN
         13   -1    0    0    0    0  0.00000000000E+00  0.00000000000E+00  0.74505805969E-08  0.10566000000E+00  0.10566000000E+00 0. -1.
     999900   -1    0    0    0    0 -0.00000000000E+00 -0.00000000000E+00 -0.74505805969E-08  0.93827000000E+00  0.93827000000E+00 0. -1.
     999902    2    1    2    0    0 -0.14072020351E-01  0.31496969553E-02 -0.18417647311E-01  0.10205387179E+01  0.10202706124E+01 0.  0.
     999903    2    3    3    0    0  0.80962741994E-01  0.57847274999E-01  0.77159086995E-01  0.12859794447E+00  0.26127261619E-01 0.  0.
         14    1    1    2    0    0  0.14072020351E-01 -0.31496969553E-02  0.18417647311E-01  0.23391282140E-01  0.00000000000E+00 0. -1.
     999901    1    3    3    0    0 -0.95034762345E-01 -0.54697578044E-01 -0.95576734306E-01  0.89194077339E+00  0.88000000000E+00 0. -1.
        -11    1    4    4    0    0  0.47605551982E-01  0.43190111704E-01  0.36186080933E-01  0.73765628193E-01  0.51100000000E-03 0.  1.
         11    1    4    4    0    0  0.33357190012E-01  0.14657163295E-01  0.40973006062E-01  0.54832316275E-01  0.51100000000E-03 0. -1.
</event>
<event>
 8    1  0.1120016E+005  0.1043930E+01  0.7957747E-01            NaN
         13   -1    0    0    0    0  0.00000000000E+00  0.00000000000E+00  0.74505805969E-08  0.10566000000E+00  0.10566000000E+00 0. -1.
     999900   -1    0    0    0    0 -0.00000000000E+00 -0.00000000000E+00 -0.74505805969E-08  0.93827000000E+00  0.93827000000E+00 0.  1.
     999902    2    1    2    0    0  0.40192144376E-02  0.22015609300E-01  0.32884276737E-02  0.10213102101E+01  0.10210596899E+01 0.  0.
     999903    2    3    3    0    0  0.12531076776E-01  0.13861279397E-01 -0.12862386839E+00  0.13140021538E+00  0.19306841537E-01 0.  0.
         14    1    1    2    0    0 -0.40192144376E-02 -0.22015609300E-01 -0.32884276737E-02  0.22619789878E-01  0.00000000000E+00 0.  1.
     999901    1    3    3    0    0 -0.85118623383E-02  0.81543299032E-02  0.13191229606E+00  0.88990999475E+00  0.88000000000E+00 0. -1.
        -11    1    4    4    0    0  0.12632656307E-01  0.17541576457E-01 -0.12101930658E+00  0.12293585562E+00  0.51100000000E-03 0.  1.
         11    1    4    4    0    0 -0.10157953094E-03 -0.36802970599E-02 -0.76045618037E-02  0.84643597559E-02  0.51100000000E-03 0. -1.
</event>
<event>
 8    1  0.1120016E+005  0.1043930E+01  0.7957747E-01            NaN
         13   -1    0    0    0    0  0.00000000000E+00  0.00000000000E+00  0.74505805969E-08  0.10566000000E+00  0.10566000000E+00 0.  1.
     999900   -1    0    0    0    0 -0.00000000000E+00 -0.00000000000E+00 -0.74505805969E-08  0.93827000000E+00  0.93827000000E+00 0. -1.
     999902    2    1    2    0    0  0.20199975501E-01 -0.55570937670E-02  0.11635141657E-01  0.10199655091E+01  0.10196839427E+01 0.  0.
     999903    2    3    3    0    0 -0.41199490529E-01  0.10970299513E+00 -0.48251521508E-01  0.12831468344E+00  0.20107299615E-01 0.  0.
         14    1    1    2    0    0 -0.20199975501E-01  0.55570937670E-02 -0.11635141657E-01  0.23964490871E-01  0.00000000000E+00 0. -1.
     999901    1    3    3    0    0  0.61399466030E-01 -0.11526008890E+00  0.59886663165E-01  0.89165082569E+00  0.88000000000E+00 0.  1.
        -11    1    4    4    0    0 -0.26450053887E-01  0.67363624310E-01 -0.19157449060E-01  0.74864759442E-01  0.51100000000E-03 0. -1.
         11    1    4    4    0    0 -0.14749436642E-01  0.42339370824E-01 -0.29094072448E-01  0.53449924000E-01  0.51100000000E-03 0.  1.
</event>
<event>
 8    1  0.1120016E+005  0.1043930E+01  0.7957747E-01            NaN
         13   -1    0    0    0    0  0.00000000000E+00  0.00000000000E+00  0.74505805969E-08  0.10566000000E+00  0.10566000000E+00 0. -1.
     999900   -1    0    0    0    0 -0.00000000000E+00 -0.00000000000E+00 -0.74505805969E-08  0.93827000000E+00  0.93827000000E+00 0.  1.
     999902    2    1    2    0    0 -0.71697306907E-02 -0.88545181460E-02 -0.20628243820E-01  0.10203645173E+01  0.10200923567E+01 0.  0.
     999903    2    3    3    0    0 -0.24449967455E-01 -0.12461754437E+00 -0.32119466721E-01  0.13254036075E+00  0.20197866510E-01 0.  0.
         14    1    1    2    0    0  0.71697306907E-02  0.88545181460E-02  0.20628243820E-01  0.23565482658E-01  0.00000000000E+00 0. -1.
     999901    1    3    3    0    0  0.17280236764E-01  0.11576302623E+00  0.11491222901E-01  0.88782415659E+00  0.88000000000E+00 0.  1.
        -11    1    4    4    0    0 -0.10213563931E-01 -0.96467922849E-01 -0.22956699139E-01  0.99687753427E-01  0.51100000000E-03 0. -1.
         11    1    4    4    0    0 -0.14236403524E-01 -0.28149621523E-01 -0.91627675823E-02  0.32852607324E-01  0.51100000000E-03 0.  1.
</event>
<event>
 8    1  0.1120016E+005  0.1043930E+01  0.7957747E-01            NaN
         13   -1    0    0    0    0  0.00000000000E+00  0.00000000000E+00  0.74505805969E-08  0.10566000000E+00  0.10566000000E+00 0. -1.
     999900   -1    0    0    0    0 -0.00000000000E+00 -0.00000000000E+00 -0.74505805969E-08  0.93827000000E+00  0.93827000000E+00 0.  1.
     999902    2    1    2    0    0 -0.67625772766E-02  0.82826191324E-02 -0.20186807561E-01  0.10210861511E+01  0.10208305866E+01 0.  0.
     999903    2    3    3    0    0 -0.10058641885E+00  0.23040973923E-01 -0.82759404159E-01  0.13376656265E+00  0.19896235033E-01 0.  0.
         14    1    1    2    0    0  0.67625772766E-02 -0.82826191324E-02  0.20186807561E-01  0.22843848857E-01  0.00000000000E+00 0. -1.
     999901    1    3    3    0    0  0.93823841577E-01 -0.14758354790E-01  0.62572596598E-01  0.88731958850E+00  0.88000000000E+00 0.  1.
        -11    1    4    4    0    0 -0.40515430757E-01  0.18822587241E-01 -0.31253839947E-01  0.54523880569E-01  0.51100000000E-03 0.  1.
         11    1    4    4    0    0 -0.60070988097E-01  0.42183866819E-02 -0.51505564211E-01  0.79242682078E-01  0.51100000000E-03 0. -1.
</event>
<event>
 8    1  0.1120016E+005  0.1043930E+01  0.7957747E-01            NaN
         13   -1    0    0    0    0  0.00000000000E+00  0.00000000000E+00  0.74505805969E-08  0.10566000000E+00  0.10566000000E+00 0. -1.
     999900   -1    0    0    0    0 -0.00000000000E+00 -0.00000000000E+00 -0.74505805969E-08  0.93827000000E+00  0.93827000000E+00 0. -1.
     999902    2    1    2    0    0  0.49788909126E-02 -0.93430673239E-03 -0.21461357844E-01  0.10218788739E+01  0.10216409255E+01 0.  0.
     999903    2    3    3    0    0  0.13070713878E+00  0.48749571150E-02 -0.12865335441E-01  0.13288211826E+00  0.19596406891E-01 0.  0.
         14    1    1    2    0    0 -0.49788909126E-02  0.93430673239E-03  0.21461357844E-01  0.22051126146E-01  0.00000000000E+00 0. -1.
     999901    1    3    3    0    0 -0.12572824786E+00 -0.58092638473E-02 -0.85960224035E-02  0.88899675559E+00  0.88000000000E+00 0. -1.
        -11    1    4    4    0    0  0.51757361014E-01  0.44784901837E-02 -0.14409731362E-01  0.53914587751E-01  0.51100000000E-03 0.  1.
         11    1    4    4    0    0  0.78949777762E-01  0.39646693124E-03  0.15443959211E-02  0.78967530507E-01  0.51100000000E-03 0. -1.
</event>
<event>
 8    1  0.1120016E+005  0.1043930E+01  0.7957747E-01            NaN
         13   -1    0    0    0    0  0.00000000000E+00  0.00000000000E+00  0.74505805969E-08  0.10566000000E+00  0.10566000000E+00 0.  1.
     999900   -1    0    0    0    0 -0.00000000000E+00 -0.00000000000E+00 -0.74505805969E-08  0.93827000000E+00  0.93827000000E+00 0.  1.
     999902    2    1    2    0    0  0.21440465583E-01 -0.81165391472E-02 -0.12683611449E-02  0.10209695882E+01  0.10207113791E+01 0.  0.
     999903    2    3    3    0    0  0.64011288181E-01  0.33524566222E-01  0.10886846127E+00  0.13210718247E+00  0.19458269309E-01 0.  0.
         14    1    1    2    0    0 -0.21440465583E-01  0.81165391472E-02  0.12683611449E-02  0.22960411846E-01  0.00000000000E+00 0.  1.
     999901    1    3    3    0    0 -0.42570822599E-01 -0.41641105369E-01 -0.11013682242E+00  0.88886240569E+00  0.88000000000E+00 0.  1.
        -11    1    4    4    0    0  0.24897562932E-01  0.29741848955E-02  0.40131213410E-01  0.47323459579E-01  0.51100000000E-03 0. -1.
         11    1    4    4    0    0  0.39113725250E-01  0.30550381326E-01  0.68737247862E-01  0.84783722888E-01  0.51100000000E-03 0.  1.
</event>
<event>
 8    1  0.1120016E+005  0.1043930E+01  0.7957747E-01            NaN
         13   -1    0    0    0    0  0.00000000000E+00  0.00000000000E+00  0.74505805969E-08  0.10566000000E+00  0.10566000000E+00 0. -1.
     999900   -1    0    0    0    0 -0.00000000000E+00 -0.00000000000E+00 -0.74505805969E-08  0.93827000000E+00  0.93827000000E+00 0. -1.
     999902    2    1    2    0    0 -0.22974910808E-01  0.42112832531E-02  0.26854437125E-02  0.10204184488E+01  0.10201475470E+01 0.  0.
     999903    2    3    3    0    0 -0.43018805016E-01 -0.29035845356E-01  0.11958973198E+00  0.13183882833E+00  0.19648785178E-01 0.  0.
         14    1    1    2    0    0  0.22974910808E-01 -0.42112832531E-02 -0.26854437125E-02  0.23511551229E-01  0.00000000000E+00 0.  1.
     999901    1    3    3    0    0  0.20043894208E-01  0.33247128609E-01 -0.11690428827E+00  0.88857962045E+00  0.88000000000E+00 0. -1.
        -11    1    4    4    0    0 -0.24833384967E-01 -0.11399664344E-01  0.82593652060E-01  0.86997826626E-01  0.51100000000E-03 0.  1.
         11    1    4    4    0    0 -0.18185420050E-01 -0.17636181012E-01  0.36996079919E-01  0.44841001700E-01  0.51100000000E-03 0. -1.
</event>
<event>
 8    1  0.1120016E+005  0.1043930E+01  0.7957747E-01            NaN
         13   -1    0    0    0    0  0.00000000000E+00  0.00000000000E+00  0.74505805969E-08  0.10566000000E+00  0.10566000000E+00 0. -1.
     999900   -1    0    0    0    0 -0.00000000000E+00 -0.00000000000E+00 -0.74505805969E-08  0.93827000000E+00  0.93827000000E+00 0. -1.
     999902    2    1    2    0    0 -0.58948890651E-02 -0.21175760429E-01  0.90052109797E-02  0.10201759188E+01  0.10198993328E+01 0.  0.
     999903    2    3    3    0    0  0.31712143353E-01  0.48852205571E-01  0.11460628490E+00  0.13030525873E+00  0.21275852249E-01 0.  0.
         14    1    1    2    0    0  0.58948890651E-02  0.21175760429E-01 -0.90052109797E-02  0.23754081157E-01  0.00000000000E+00 0.  1.
     999901    1    3    3    0    0 -0.37607032419E-01 -0.70027966000E-01 -0.10560107392E+00  0.88987066011E+00  0.88000000000E+00 0.  1.
        -11    1    4    4    0    0  0.29853334239E-01  0.28572412099E-01  0.82689936408E-01  0.92441824963E-01  0.51100000000E-03 0.  1.
         11    1    4    4    0    0  0.18588091149E-02  0.20279793472E-01  0.31916348496E-01  0.37863433770E-01  0.51100000000E-03 0. -1.
</event>
<event>
 7    1  0.1120016E+005  0.1043930E+01  0.7957747E-01            NaN
         13   -1    0    0    0    0  0.00000000000E+00  0.00000000000E+00  0.74505805969E-08  0.10566000000E+00  0.10566000000E+00 0.  1.
     999900   -1    0    0    0    0 -0.00000000000E+00 -0.00000000000E+00 -0.74505805969E-08  0.93827000000E+00  0.93827000000E+00 0. -1.
     999903    2    1    2    0    0  0.32892103277E-01  0.97949054659E-01 -0.35800646686E-01  0.11125215747E+00  0.20480441205E-01 0.  0.
         14    1    1    2    0    0  0.18513937159E-01 -0.11195055428E-01  0.41611338248E-01  0.46899878528E-01  0.00000000000E+00 0.  1.
     999901    1    1    2    0    0 -0.51406040436E-01 -0.86753999230E-01 -0.58106915621E-02  0.88577796400E+00  0.88000000000E+00 0.  1.
        -11    1    3    3    0    0  0.31077425795E-02  0.39779506600E-01 -0.15643794779E-01  0.42860898793E-01  0.51100000000E-03 0. -1.
         11    1    3    3    0    0  0.29784360698E-01  0.58169548059E-01 -0.20156851907E-01  0.68391258677E-01  0.51100000000E-03 0.  1.
</event>
<event>
 8    1  0.1120016E+005  0.1043930E+01  0.7957747E-01            NaN
         13   -1    0    0    0    0  0.00000000000E+00  0.00000000000E+00  0.74505805969E-08  0.10566000000E+00  0.10566000000E+00 0.  1.
     999900   -1    0    0    0    0 -0.00000000000E+00 -0.00000000000E+00 -0.74505805969E-08  0.93827000000E+00  0.93827000000E+00 0.  1.
     999902    2    1    2    0    0 -0.13416959579E-01  0.66433468136E-02  0.18304228381E-01  0.10202827245E+01  0.10200086491E+01 0.  0.
     999903    2    3    3    0    0  0.51074142695E-01  0.36674077667E-01  0.11273956321E+00  0.13237564631E+00  0.29318025131E-01 0.  0.
         14    1    1    2    0    0  0.13416959579E-01 -0.66433468136E-02 -0.18304228381E-01  0.23647275485E-01  0.00000000000E+00 0. -1.
     999901    1    3    3    0    0 -0.64491102274E-01 -0.30030730853E-01 -0.94435334830E-01  0.88790707821E+00  0.88000000000E+00 0.  1.
        -11    1    4    4    0    0  0.42681777929E-01  0.13671893100E-01  0.70136119382E-01  0.83234555270E-01  0.51100000000E-03 0.  1.
         11    1    4    4    0    0  0.83923647658E-02  0.23002184567E-01  0.42603443829E-01  0.49141091037E-01  0.51100000000E-03 0. -1.
</event>
<event>
 8    1  0.1120016E+005  0.1043930E+01  0.7957747E-01            NaN
         13   -1    0    0    0    0  0.00000000000E+00  0.00000000000E+00  0.74505805969E-08  0.10566000000E+00  0.10566000000E+00 0.  1.
     999900   -1    0    0    0    0 -0.00000000000E+00 -0.00000000000E+00 -0.74505805969E-08  0.93827000000E+00  0.93827000000E+00 0.  1.
     999902    2    1    2    0    0 -0.80910610667E-03  0.25608811272E-01  0.85303920793E-03  0.10182942136E+01  0.10179714691E+01 0.  0.
     999903    2    3    3    0    0  0.10118967608E+00  0.13259242995E-01 -0.76345584498E-01  0.12895969225E+00  0.19667126929E-01 0.  0.
         14    1    1    2    0    0  0.80910610667E-03 -0.25608811272E-01 -0.85303920793E-03  0.25635786380E-01  0.00000000000E+00 0. -1.
     999901    1    3    3    0    0 -0.10199878219E+00  0.12349568277E-01  0.77198623706E-01  0.88933452137E+00  0.88000000000E+00 0. -1.
        -11    1    4    4    0    0  0.64309377194E-01  0.12669286241E-01 -0.38067421421E-01  0.75799713084E-01  0.51100000000E-03 0. -1.
         11    1    4    4    0    0  0.36880298887E-01  0.58995675327E-03 -0.38278163077E-01  0.53159979162E-01  0.51100000000E-03 0.  1.
</event>
<event>
 8    1  0.1120016E+005  0.1043930E+01  0.7957747E-01            NaN
         13   -1    0    0    0    0  0.00000000000E+00  0.00000000000E+00  0.74505805969E-08  0.10566000000E+00  0.10566000000E+00 0. -1.
     999900   -1    0    0    0    0 -0.00000000000E+00 -0.00000000000E+00 -0.74505805969E-08  0.93827000000E+00  0.93827000000E+00 0.  1.
     999902    2    1    2    0    0  0.96510377455E-03  0.41255665654E-02 -0.22499409648E-01  0.10210351281E+01  0.10207784077E+01 0.  0.
     999903    2    3    3    0    0  0.78674504339E-01  0.98072103717E-01  0.30790555726E-01  0.13103258699E+00  0.20338765206E-01 0.  0.
         14    1    1    2    0    0 -0.96510377455E-03 -0.41255665654E-02  0.22499409648E-01  0.22894871899E-01  0.00000000000E+00 0. -1.
     999901    1    3    3    0    0 -0.77709400564E-01 -0.93946537152E-01 -0.53289965374E-01  0.89000254111E+00  0.88000000000E+00 0.  1.
        -11    1    4    4    0    0  0.60603411869E-01  0.76446224809E-01  0.14934557763E-01  0.98691949795E-01  0.51100000000E-03 0. -1.
         11    1    4    4    0    0  0.18071092470E-01  0.21625878908E-01  0.15855997962E-01  0.32340637192E-01  0.51100000000E-03 0.  1.
</event>
<event>
 7    1  0.1120016E+005  0.1043930E+01  0.7957747E-01            NaN
         13   -1    0    0    0    0  0.00000000000E+00  0.00000000000E+00  0.74505805969E-08  0.10566000000E+00  0.10566000000E+00 0. -1.
     999900   -1    0    0    0    0 -0.00000000000E+00 -0.00000000000E+00 -0.74505805969E-08  0.93827000000E+00  0.93827000000E+00 0.  1.
     999903    2    1    2    0    0 -0.12415151417E-01 -0.71356668051E-02  0.10296858297E+00  0.10613584459E+00  0.21383047067E-01 0.  0.
         14    1    1    2    0    0 -0.11886809728E-01  0.40152035701E-01  0.23166241708E-01  0.47855584536E-01  0.00000000000E+00 0. -1.
     999901    1    1    2    0    0  0.24301961145E-01 -0.33016368895E-01 -0.12613482468E+00  0.88993857087E+00  0.88000000000E+00 0.  1.
        -11    1    3    3    0    0 -0.15540145889E-01  0.23585370525E-02  0.62705633036E-01  0.64647632337E-01  0.51100000000E-03 0.  1.
         11    1    3    3    0    0  0.31249944719E-02 -0.94942038576E-02  0.40262949938E-01  0.41488212254E-01  0.51100000000E-03 0. -1.
</event>
<event>
 8    1  0.1120016E+005  0.1043930E+01  0.7957747E-01            NaN
         13   -1    0    0    0    0  0.00000000000E+00  0.00000000000E+00  0.74505805969E-08  0.10566000000E+00  0.10566000000E+00 0.  1.
     999900   -1    0    0    0    0 -0.00000000000E+00 -0.00000000000E+00 -0.74505805969E-08  0.93827000000E+00  0.93827000000E+00 0. -1.
     999902    2    1    2    0    0  0.85800441341E-02 -0.19135244852E-01 -0.67196211589E-02  0.10219089178E+01  0.10216716245E+01 0.  0.
     999903    2    3    3    0    0  0.11149813850E+00  0.15050648066E-02 -0.70489546565E-01  0.13337936853E+00  0.19676881539E-01 0.  0.
         14    1    1    2    0    0 -0.85800441341E-02  0.19135244852E-01  0.67196211589E-02  0.22021082204E-01  0.00000000000E+00 0. -1.
     999901    1    3    3    0    0 -0.10291809436E+00 -0.20640309659E-01  0.63769925406E-01  0.88852954926E+00  0.88000000000E+00 0.  1.
        -11    1    4    4    0    0  0.93659978545E-01 -0.30516671403E-02 -0.65384882517E-01  0.11426700414E+00  0.51100000000E-03 0. -1.
         11    1    4    4    0    0  0.17838159950E-01  0.45567319468E-02 -0.51046640482E-02  0.19112364387E-01  0.51100000000E-03 0.  1.
</event>
<event>
 8    1  0.1120016E+005  0.1043930E+01  0.7957747E-01            NaN
         13   -1    0    0    0    0  0.00000000000E+00  0.00000000000E+00  0.74505805969E-08  0.10566000000E+00  0.10566000000E+00 0. -1.
     999900   -1    0    0    0    0 -0.00000000000E+00 -0.00000000000E+00 -0.74505805969E-08  0.93827000000E+00  0.93827000000E+00 0.  1.
     999902    2    1    2    0    0 -0.14554139848E-01 -0.10560262204E-01 -0.15537123916E-01  0.10201656497E+01  0.10198888217E+01 0.  0.
     999903    2    3    3    0    0 -0.24019036854E-01  0.97102905967E-01  0.78361453308E-01  0.12859518988E+00  0.19756442433E-01 0.  0.
         14    1    1    2    0    0  0.14554139848E-01  0.10560262204E-01  0.15537123916E-01  0.23764350278E-01  0.00000000000E+00 0. -1.
     999901    1    3    3    0    0  0.94648970061E-02 -0.10766316817E+00 -0.93898577224E-01  0.89157045984E+00  0.88000000000E+00 0.  1.
        -11    1    4    4    0    0  0.22297066981E-03  0.48150627386E-02  0.10316053204E-01  0.11398097201E-01  0.51100000000E-03 0. -1.
         11    1    4    4    0    0 -0.24242007524E-01  0.92287843228E-01  0.68045400104E-01  0.11719709268E+00  0.51100000000E-03 0.  1.
</event>
<event>
 8    1  0.1120016E+005  0.1043930E+01  0.7957747E-01            NaN
         13   -1    0    0    0    0  0.00000000000E+00  0.00000000000E+00  0.74505805969E-08  0.10566000000E+00  0.10566000000E+00 0.  1.
     999900   -1    0    0    0    0 -0.00000000000E+00 -0.00000000000E+00 -0.74505805969E-08  0.93827000000E+00  0.93827000000E+00 0.  1.
     999902    2    1    2    0    0 -0.12697204003E-01  0.18280125509E-01 -0.60230220299E-02  0.10208722730E+01  0.10206118455E+01 0.  0.
     999903    2    3    3    0    0  0.51404883186E-01 -0.11306184073E+00  0.22209002700E-01  0.12837194425E+00  0.23678564668E-01 0.  0.
         14    1    1    2    0    0  0.12697204003E-01 -0.18280125509E-01  0.60230220299E-02  0.23057726958E-01  0.00000000000E+00 0. -1.
     999901    1    3    3    0    0 -0.64102087189E-01  0.13134196624E+00 -0.28232024730E-01  0.89250032879E+00  0.88000000000E+00 0.  1.
        -11    1    4    4    0    0  0.54700187151E-02 -0.23423999842E-01 -0.37673004650E-02  0.24352793416E-01  0.51100000000E-03 0.  1.
         11    1    4    4    0    0  0.45934864471E-01 -0.89637840886E-01  0.25976303165E-01  0.10401915083E+00  0.51100000000E-03 0. -1.
</event>
<event>
 8    1  0.1120016E+005  0.1043930E+01  0.7957747E-01            NaN
         13   -1    0    0    0    0  0.00000000000E+00  0.00000000000E+00  0.74505805969E-08  0.10566000000E+00  0.10566000000E+00 0.  1.
     999900   -1    0    0    0    0 -0.00000000000E+00 -0.00000000000E+00 -0.74505805969E-08  0.93827000000E+00  0.93827000000E+00 0. -1.
     999902    2    1    2    0    0 -0.46008054806E-02  0.13393113723E-01 -0.20407994391E-01  0.10190899287E+01  0.10187871484E+01 0.  0.
     999903    2    3    3    0    0  0.54446435206E-01  0.74030997740E-01 -0.92337834541E-01  0.13210772398E+00  0.21935635738E-01 0.  0.
         14    1    1    2    0    0  0.46008054806E-02 -0.13393113723E-01  0.20407994391E-01  0.24840071283E-01  0.00000000000E+00 0.  1.
     999901    1    3    3    0    0 -0.59047240687E-01 -0.60637884017E-01  0.71929840150E-01  0.88698220473E+00  0.88000000000E+00 0.  1.
        -11    1    4    4    0    0  0.32801470962E-01  0.28266699835E-01 -0.35532014295E-01  0.56015426247E-01  0.51100000000E-03 0.  1.
         11    1    4    4    0    0  0.21644964245E-01  0.45764297905E-01 -0.56805820246E-01  0.76092297736E-01  0.51100000000E-03 0. -1.
</event>
<event>
 8    1  0.1190378E+005  0.1043930E+01  0.7957747E-01            NaN
         13   -1    0    0    0    0  0.00000000000E+00  0.00000000000E+00  0.74505805969E-08  0.10566000000E+00  0.10566000000E+00 0. -1.
     999900   -1    0    0    0    0 -0.00000000000E+00 -0.00000000000E+00 -0.74505805969E-08  0.93827000000E+00  0.93827000000E+00 0.  1.
     999902    2    1    2    0    0  0.18844038544E-02 -0.24352888528E-02  0.23369224500E-01  0.10203587832E+01  0.10200864885E+01 0.  0.
     999903    2    3    3    0    0 -0.90850878120E-01 -0.88760632219E-01  0.31473400578E-01  0.13124823036E+00  0.10158304043E-01 0.  0.
         14    1    1    2    0    0 -0.18844038544E-02  0.24352888528E-02 -0.23369224500E-01  0.23571216842E-01  0.00000000000E+00 0.  1.
     999901    1    3    3    0    0  0.92735281975E-01  0.86325343366E-01 -0.81041760775E-02  0.88911055280E+00  0.88000000000E+00 0.  1.
        -11    1    4    4    0    0 -0.34141244810E-01 -0.40229958837E-01  0.12241153625E-01  0.54168082376E-01  0.51100000000E-03 0.  1.
         11    1    4    4    0    0 -0.56709633310E-01 -0.48530673382E-01  0.19232246953E-01  0.77080147982E-01  0.51100000000E-03 0. -1.
</event>
<event>
 8    1  0.1120016E+005  0.1043930E+01  0.7957747E-01            NaN
         13   -1    0    0    0    0  0.00000000000E+00  0.00000000000E+00  0.74505805969E-08  0.10566000000E+00  0.10566000000E+00 0.  1.
     999900   -1    0    0    0    0 -0.00000000000E+00 -0.00000000000E+00 -0.74505805969E-08  0.93827000000E+00  0.93827000000E+00 0.  1.
     999902    2    1    2    0    0  0.15216797342E-01  0.18219008529E-01 -0.92509947871E-03  0.10201741796E+01  0.10198975526E+01 0.  0.
     999903    2    3    3    0    0  0.22594015417E-01  0.17161429597E-01  0.12645626473E+00  0.13097141659E+00  0.18902933041E-01 0.  0.
         14    1    1    2    0    0 -0.15216797342E-01 -0.18219008529E-01  0.92509947871E-03  0.23755820385E-01  0.00000000000E+00 0. -1.
     999901    1    3    3    0    0 -0.73772180748E-02  0.10575789315E-02 -0.12738136420E+00  0.88920276302E+00  0.88000000000E+00 0.  1.
        -11    1    4    4    0    0 -0.26647203314E-02  0.36839265993E-02  0.92706661892E-02  0.10338202079E-01  0.51100000000E-03 0. -1.
         11    1    4    4    0    0  0.25258735748E-01  0.13477502998E-01  0.11718559854E+00  0.12063321451E+00  0.51100000000E-03 0.  1.
</event>
<event>
 8    1  0.1581561E+005  0.1043930E+01  0.7957747E-01            NaN
         13   -1    0    0    0    0  0.00000000000E+00  0.00000000000E+00  0.74505805969E-08  0.10566000000E+00  0.10566000000E+00 0.  1.
     999900   -1    0    0    0    0 -0.00000000000E+00 -0.00000000000E+00 -0.74505805969E-08  0.93827000000E+00  0.93827000000E+00 0.  1.
     999902    2    1    2    0    0 -0.17619625236E-01 -0.95653540772E-02  0.93280729621E-02  0.10218175570E+01  0.10215782689E+01 0.  0.
     999903    2    3    3    0    0 -0.12779168919E-01 -0.62982519459E-01 -0.11384223412E+00  0.13162221428E+00  0.15305166016E-01 0.  0.
         14    1    1    2    0    0  0.17619625236E-01  0.95653540772E-02 -0.93280729621E-02  0.22112443041E-01  0.00000000000E+00 0. -1.
     999901    1    3    3    0    0 -0.48404563165E-02  0.53417165381E-01  0.12317030709E+00  0.89019534268E+00  0.88000000000E+00 0. -1.
        -11    1    4    4    0    0 -0.10316612832E-01 -0.33908679833E-01 -0.48626413575E-01  0.60174914096E-01  0.51100000000E-03 0.  1.
         11    1    4    4    0    0 -0.24625560871E-02 -0.29073839626E-01 -0.65215820549E-01  0.71447300186E-01  0.51100000000E-03 0. -1.
</event>
<event>
 8    1  0.1120016E+005  0.1043930E+01  0.7957747E-01            NaN
         13   -1    0    0    0    0  0.00000000000E+00  0.00000000000E+00  0.74505805969E-08  0.10566000000E+00  0.10566000000E+00 0.  1.
     999900   -1    0    0    0    0 -0.00000000000E+00 -0.00000000000E+00 -0.74505805969E-08  0.93827000000E+00  0.93827000000E+00 0.  1.
     999902    2    1    2    0    0 -0.99794531872E-02  0.15719926710E-01  0.13814618786E-01  0.10207448911E+01  0.10204815449E+01 0.  0.
     999903    2    3    3    0    0 -0.10134178532E+00 -0.23724753866E-01  0.79401962485E-01  0.13271073738E+00  0.21781799070E-01 0.  0.
         14    1    1    2    0    0  0.99794531872E-02 -0.15719926710E-01 -0.13814618786E-01  0.23185108882E-01  0.00000000000E+00 0. -1.
     999901    1    3    3    0    0  0.91362332133E-01  0.39444680576E-01 -0.65587343699E-01  0.88803415374E+00  0.88000000000E+00 0.  1.
        -11    1    4    4    0    0 -0.35580918790E-01 -0.15932237693E-01  0.38946912947E-01  0.55108630258E-01  0.51100000000E-03 0. -1.
         11    1    4    4    0    0 -0.65760866530E-01 -0.77925161730E-02  0.40455049538E-01  0.77602107118E-01  0.51100000000E-03 0.  1.
</event>
<event>
 8    1  0.1120016E+005  0.1043930E+01  0.7957747E-01            NaN
         13   -1    0    0    0    0  0.00000000000E+00  0.00000000000E+00  0.74505805969E-08  0.10566000000E+00  0.10566000000E+00 0. -1.
     999900   -1    0    0    0    0 -0.00000000000E+00 -0.00000000000E+00 -0.74505805969E-08  0.93827000000E+00  0.93827000000E+00 0. -1.
     999902    2    1    2    0    0 -0.18168342543E-01  0.18604325285E-02 -0.13156265724E-01  0.10214213970E+01  0.10211733609E+01 0.  0.
     999903    2    3    3    0    0 -0.54056057671E-01  0.10559913687E+00  0.54449275962E-01  0.13202825778E+00  0.19836887873E-01 0.  0.
         14    1    1    2    0    0  0.18168342543E-01 -0.18604325285E-02  0.13156265724E-01  0.22508602972E-01  0.00000000000E+00 0. -1.
     999901    1    3    3    0    0  0.35887715128E-01 -0.10373870434E+00 -0.67605541686E-01  0.88939313925E+00  0.88000000000E+00 0. -1.
        -11    1    4    4    0    0 -0.32935362445E-01  0.49230391863E-01  0.19191310480E-01  0.62265055218E-01  0.51100000000E-03 0. -1.
         11    1    4    4    0    0 -0.21120695226E-01  0.56368745009E-01  0.35257965482E-01  0.69763202562E-01  0.51100000000E-03 0.  1.
</event>
<event>
 8    1  0.1120016E+005  0.1043930E+01  0.7957747E-01            NaN
         13   -1    0    0    0    0  0.00000000000E+00  0.00000000000E+00  0.74505805969E-08  0.10566000000E+00  0.10566000000E+00 0.  1.
     999900   -1    0    0    0    0 -0.00000000000E+00 -0.00000000000E+00 -0.74505805969E-08  0.93827000000E+00  0.93827000000E+00 0.  1.
     999902    2    1    2    0    0  0.21553500709E-01  0.56757454528E-02  0.86658214261E-02  0.10200163232E+01  0.10197359637E+01 0.  0.
     999903    2    3    3    0    0  0.10499299354E+00 -0.29662832825E-01 -0.68991010800E-01  0.13196139936E+00  0.27397792013E-01 0.  0.
         14    1    1    2    0    0 -0.21553500709E-01 -0.56757454528E-02 -0.86658214261E-02  0.23913676845E-01  0.00000000000E+00 0. -1.
     999901    1    3    3    0    0 -0.83439492831E-01  0.35338578277E-01  0.77656832226E-01  0.88805492379E+00  0.88000000000E+00 0.  1.
        -11    1    4    4    0    0  0.92612998641E-01 -0.21152582572E-01 -0.68132061101E-01  0.11690525282E+00  0.51100000000E-03 0. -1.
         11    1    4    4    0    0  0.12379994899E-01 -0.85102502530E-02 -0.85894969846E-03  0.15056146540E-01  0.51100000000E-03 0.  1.
</event>
<event>
 6    1  0.1120016E+005  0.1043930E+01  0.7957747E-01            NaN
         13   -1    0    0    0    0  0.00000000000E+00  0.00000000000E+00  0.74505805969E-08  0.10566000000E+00  0.10566000000E+00 0.  1.
     999900   -1    0    0    0    0 -0.00000000000E+00 -0.00000000000E+00 -0.74505805969E-08  0.93827000000E+00  0.93827000000E+00 0.  1.
         14    1    1    2    0    0 -0.11651532701E-01  0.19903890441E-02  0.36898677122E-01  0.38745738297E-01  0.00000000000E+00 0.  1.
     999901    1    1    2    0    0 -0.79805398380E-02  0.27999513007E-01 -0.13421320948E+00  0.89065192266E+00  0.88000000000E+00 0.  1.
        -11    1    1    2    0    0 -0.58337074161E-02 -0.49476946563E-02  0.67700849715E-01  0.68133530642E-01  0.51100000000E-03 0.  1.
         11    1    1    2    0    0  0.25465779955E-01 -0.25042207395E-01  0.29613682645E-01  0.46398808398E-01  0.51100000000E-03 0. -1.
</event>
<event>
 8    1  0.1120016E+005  0.1043930E+01  0.7957747E-01            NaN
         13   -1    0    0    0    0  0.00000000000E+00  0.00000000000E+00  0.74505805969E-08  0.10566000000E+00  0.10566000000E+00 0.  1.
     999900   -1    0    0    0    0 -0.00000000000E+00 -0.00000000000E+00 -0.74505805969E-08  0.93827000000E+00  0.93827000000E+00 0.  1.
     999902    2    1    2    0    0  0.41456865315E-02  0.35634816871E-02 -0.22896826296E-01  0.10203896140E+01  0.10201180395E+01 0.  0.
     999903    2    3    3    0    0 -0.12135796034E+00  0.13818254428E-01 -0.42510118699E-01  0.13120965079E+00  0.22139638072E-01 0.  0.
         14    1    1    2    0    0 -0.41456865315E-02 -0.35634816871E-02  0.22896826296E-01  0.23540385999E-01  0.00000000000E+00 0.  1.
     999901    1    3    3    0    0  0.12550364687E+00 -0.10254772741E-01  0.19613292402E-01  0.88917996321E+00  0.88000000000E+00 0. -1.
        -11    1    4    4    0    0 -0.52358216300E-01 -0.40303179167E-02 -0.13226454564E-01  0.54155576794E-01  0.51100000000E-03 0. -1.
         11    1    4    4    0    0 -0.68999744043E-01  0.17848572345E-01 -0.29283664135E-01  0.77054073993E-01  0.51100000000E-03 0.  1.
</event>
<event>
 8    1  0.1120016E+005  0.1043930E+01  0.7957747E-01            NaN
         13   -1    0    0    0    0  0.00000000000E+00  0.00000000000E+00  0.74505805969E-08  0.10566000000E+00  0.10566000000E+00 0.  1.
     999900   -1    0    0    0    0 -0.00000000000E+00 -0.00000000000E+00 -0.74505805969E-08  0.93827000000E+00  0.93827000000E+00 0. -1.
     999902    2    1    2    0    0  0.16690560789E-01 -0.12733322133E-01  0.11060519210E-01  0.10202013802E+01  0.10199253937E+01 0.  0.
     999903    2    3    3    0    0 -0.83282955509E-01 -0.87758317852E-01 -0.42235815072E-01  0.12977229646E+00  0.20479546442E-01 0.  0.
         14    1    1    2    0    0 -0.16690560789E-01  0.12733322133E-01 -0.11060519210E-01  0.23728619791E-01  0.00000000000E+00 0. -1.
     999901    1    3    3    0    0  0.99973516298E-01  0.75024995720E-01  0.53296334281E-01  0.89042908375E+00  0.88000000000E+00 0.  1.
        -11    1    4    4    0    0 -0.24374275680E-01 -0.18362955770E-01 -0.18535453152E-01  0.35708928912E-01  0.51100000000E-03 0.  1.
         11    1    4    4    0    0 -0.58908679829E-01 -0.69395362083E-01 -0.23700361920E-01  0.94063367545E-01  0.51100000000E-03 0. -1.
</event>
<event>
 8    1  0.1120016E+005  0.1043930E+01  0.7957747E-01            NaN
         13   -1    0    0    0    0  0.00000000000E+00  0.00000000000E+00  0.74505805969E-08  0.10566000000E+00  0.10566000000E+00 0.  1.
     999900   -1    0    0    0    0 -0.00000000000E+00 -0.00000000000E+00 -0.74505805969E-08  0.93827000000E+00  0.93827000000E+00 0. -1.
     999902    2    1    2    0    0 -0.22008813472E-01 -0.24186092155E-02 -0.83540811806E-02  0.10202650848E+01  0.10199905955E+01 0.  0.
     999903    2    3    3    0    0 -0.11832830103E+00  0.57814701488E-01 -0.32186533901E-02  0.13294785399E+00  0.17906580333E-01 0.  0.
         14    1    1    2    0    0  0.22008813472E-01  0.24186092155E-02  0.83540811806E-02  0.23664915241E-01  0.00000000000E+00 0.  1.
     999901    1    3    3    0    0  0.96319487554E-01 -0.60233310704E-01 -0.51354277904E-02  0.88731723077E+00  0.88000000000E+00 0. -1.
        -11    1    4    4    0    0 -0.44531249974E-01  0.25104400812E-01  0.69262594250E-02  0.51589702025E-01  0.51100000000E-03 0. -1.
         11    1    4    4    0    0 -0.73797051051E-01  0.32710300676E-01 -0.10144912815E-01  0.81358151965E-01  0.51100000000E-03 0.  1.
</event>
<event>
 8    1  0.1120016E+005  0.1043930E+01  0.7957747E-01            NaN
         13   -1    0    0    0    0  0.00000000000E+00  0.00000000000E+00  0.74505805969E-08  0.10566000000E+00  0.10566000000E+00 0.  1.
     999900   -1    0    0    0    0 -0.00000000000E+00 -0.00000000000E+00 -0.74505805969E-08  0.93827000000E+00  0.93827000000E+00 0.  1.
     999902    2    1    2    0    0 -0.99484829799E-04  0.67721918336E-02 -0.22270794741E-01  0.10206520968E+01  0.10203866139E+01 0.  0.
     999903    2    3    3    0    0  0.12861298728E+00  0.14809733762E-01 -0.10273920303E-01  0.13117167117E+00  0.18434347565E-01 0.  0.
         14    1    1    2    0    0  0.99484829799E-04 -0.67721918336E-02  0.22270794741E-01  0.23277903210E-01  0.00000000000E+00 0.  1.
     999901    1    3    3    0    0 -0.12871247211E+00 -0.80375419287E-02 -0.11996874438E-01  0.88948042562E+00  0.88000000000E+00 0.  1.
        -11    1    4    4    0    0  0.47678006930E-01 -0.50493087870E-03  0.28106075267E-02  0.47766179831E-01  0.51100000000E-03 0. -1.
         11    1    4    4    0    0  0.80934980347E-01  0.15314664641E-01 -0.13084527829E-01  0.83405491344E-01  0.51100000000E-03 0.  1.
</event>
<event>
 8    1  0.1120016E+005  0.1043930E+01  0.7957747E-01            NaN
         13   -1    0    0    0    0  0.00000000000E+00  0.00000000000E+00  0.74505805969E-08  0.10566000000E+00  0.10566000000E+00 0. -1.
     999900   -1    0    0    0    0 -0.00000000000E+00 -0.00000000000E+00 -0.74505805969E-08  0.93827000000E+00  0.93827000000E+00 0. -1.
     999902    2    1    2    0    0  0.16668231950E-01  0.13560590242E-01  0.94409035053E-02  0.10204598014E+01  0.10201898627E+01 0.  0.
     999903    2    3    3    0    0  0.80493981009E-01  0.57299085383E-02 -0.10154007171E+00  0.13116130106E+00  0.19513787486E-01 0.  0.
         14    1    1    2    0    0 -0.16668231950E-01 -0.13560590242E-01 -0.94409035053E-02  0.23470198615E-01  0.00000000000E+00 0.  1.
     999901    1    3    3    0    0 -0.63825749060E-01  0.78306817034E-02  0.11098097522E+00  0.88929850032E+00  0.88000000000E+00 0.  1.
        -11    1    4    4    0    0  0.32536080062E-01 -0.69816909125E-02 -0.44340221504E-01  0.55440570684E-01  0.51100000000E-03 0.  1.
         11    1    4    4    0    0  0.47957900948E-01  0.12711599451E-01 -0.57199850207E-01  0.75720730376E-01  0.51100000000E-03 0. -1.
</event>
<event>
 8    1  0.1120016E+005  0.1043930E+01  0.7957747E-01            NaN
         13   -1    0    0    0    0  0.00000000000E+00  0.00000000000E+00  0.74505805969E-08  0.10566000000E+00  0.10566000000E+00 0.  1.
     999900   -1    0    0    0    0 -0.00000000000E+00 -0.00000000000E+00 -0.74505805969E-08  0.93827000000E+00  0.93827000000E+00 0.  1.
     999902    2    1    2    0    0 -0.16543749512E-01  0.55750202846E-02 -0.17012185171E-01  0.10195539679E+01  0.10192625287E+01 0.  0.
     999903    2    3    3    0    0  0.10538583652E-01  0.40014557939E-01  0.12003717935E+00  0.12786901068E+00  0.15143740443E-01 0.  0.
         14    1    1    2    0    0  0.16543749512E-01 -0.55750202846E-02  0.17012185171E-01  0.24376032150E-01  0.00000000000E+00 0.  1.
     999901    1    3    3    0    0 -0.27082333164E-01 -0.34439537654E-01 -0.13704936452E+00  0.89168495717E+00  0.88000000000E+00 0.  1.
        -11    1    4    4    0    0  0.33723840650E-02  0.23342773122E-01  0.46724707344E-01  0.52342310120E-01  0.51100000000E-03 0. -1.
         11    1    4    4    0    0  0.71661995870E-02  0.16671784817E-01  0.73312472005E-01  0.75526700563E-01  0.51100000000E-03 0.  1.
</event>
<event>
 8    1  0.1120016E+005  0.1043930E+01  0.7957747E-01            NaN
         13   -1    0    0    0    0  0.00000000000E+00  0.00000000000E+00  0.74505805969E-08  0.10566000000E+00  0.10566000000E+00 0. -1.
     999900   -1    0    0    0    0 -0.00000000000E+00 -0.00000000000E+00 -0.74505805969E-08  0.93827000000E+00  0.93827000000E+00 0.  1.
     999902    2    1    2    0    0  0.28424846474E-02 -0.20736108569E-01  0.11638403551E-01  0.10199817567E+01  0.10197005765E+01 0.  0.
     999903    2    3    3    0    0 -0.24931703677E-01  0.12259301248E+00 -0.15223990508E-01  0.12754899699E+00  0.19655538345E-01 0.  0.
         14    1    1    2    0    0 -0.28424846474E-02  0.20736108569E-01 -0.11638403551E-01  0.23948243250E-01  0.00000000000E+00 0.  1.
     999901    1    3    3    0    0  0.27774188325E-01 -0.14332912105E+00  0.26862394059E-01  0.89243275976E+00  0.88000000000E+00 0.  1.
        -11    1    4    4    0    0 -0.25828546214E-01  0.91980404455E-01 -0.67966325127E-02  0.95780811950E-01  0.51100000000E-03 0. -1.
         11    1    4    4    0    0  0.89684253710E-03  0.30612608030E-01 -0.84273579950E-02  0.31768185039E-01  0.51100000000E-03 0.  1.
</event>
<event>
 8    1  0.1120016E+005  0.1043930E+01  0.7957747E-01            NaN
         13   -1    0    0    0    0  0.00000000000E+00  0.00000000000E+00  0.74505805969E-08  0.10566000000E+00  0.10566000000E+00 0.  1.
     999900   -1    0    0    0    0 -0.00000000000E+00 -0.00000000000E+00 -0.74505805969E-08  0.93827000000E+00  0.93827000000E+00 0.  1.
     999902    2    1    2    0    0  0.91153577015E-02 -0.21485750072E-01 -0.54984893566E-02  0.10199516642E+01  0.10196697685E+01 0.  0.
     999903    2    3    3    0    0  0.95398777278E-01  0.17480925551E-01  0.84672887850E-01  0.13029211833E+00  0.20000717434E-01 0.  0.
         14    1    1    2    0    0 -0.91153577015E-02  0.21485750072E-01  0.54984893566E-02  0.23978335793E-01  0.00000000000E+00 0.  1.
     999901    1    3    3    0    0 -0.86283419576E-01 -0.38966675623E-01 -0.90171377207E-01  0.88965954588E+00  0.88000000000E+00 0.  1.
        -11    1    4    4    0    0  0.46601702409E-01  0.11692599274E-01  0.54367663404E-01  0.72557146376E-01  0.51100000000E-03 0. -1.
         11    1    4    4    0    0  0.48797074869E-01  0.57883262770E-02  0.30305224446E-01  0.57734971955E-01  0.51100000000E-03 0.  1.
</event>
<event>
 8    1  0.1120016E+005  0.1043930E+01  0.7957747E-01            NaN
         13   -1    0    0    0    0  0.00000000000E+00  0.00000000000E+00  0.74505805969E-08  0.10566000000E+00  0.10566000000E+00 0.  1.
     999900   -1    0    0    0    0 -0.00000000000E+00 -0.00000000000E+00 -0.74505805969E-08  0.93827000000E+00  0.93827000000E+00 0.  1.
     999902    2    1    2    0    0  0.15990314990E-01 -0.17353693968E-01 -0.16515667098E-02  0.10202747989E+01  0.10200005376E+01 0.  0.
     999903    2    3    3    0    0  0.22605801652E-01  0.54044661015E-01 -0.11456164770E+00  0.13016796475E+00  0.19684518576E-01 0.  0.
         14    1    1    2    0    0 -0.15990314990E-01  0.17353693968E-01  0.16515667098E-02  0.23655201128E-01  0.00000000000E+00 0.  1.
     999901    1    3    3    0    0 -0.66154866625E-02 -0.71398354983E-01  0.11291008099E+00  0.89010683412E+00  0.88000000000E+00 0. -1.
        -11    1    4    4    0    0  0.17058969769E-01  0.46246537263E-01 -0.77194415831E-01  0.91591427628E-01  0.51100000000E-03 0. -1.
         11    1    4    4    0    0  0.55468318830E-02  0.77981237515E-02 -0.37367231868E-01  0.38576537124E-01  0.51100000000E-03 0.  1.
</event>
<event>
 8    1  0.1120016E+005  0.1043930E+01  0.7957747E-01            NaN
         13   -1    0    0    0    0  0.00000000000E+00  0.00000000000E+00  0.74505805969E-08  0.10566000000E+00  0.10566000000E+00 0.  1.
     999900   -1    0    0    0    0 -0.00000000000E+00 -0.00000000000E+00 -0.74505805969E-08  0.93827000000E+00  0.93827000000E+00 0. -1.
     999902    2    1    2    0    0 -0.28970259349E-02  0.23722014576E-01  0.10196105410E-02  0.10200100012E+01  0.10197294917E+01 0.  0.
     999903    2    3    3    0    0  0.62475277775E-01 -0.10202601248E+00  0.40469622304E-01  0.12779791445E+00  0.19546075080E-01 0.  0.
         14    1    1    2    0    0  0.28970259349E-02 -0.23722014576E-01 -0.10196105410E-02  0.23919998756E-01  0.00000000000E+00 0. -1.
     999901    1    3    3    0    0 -0.65372303710E-01  0.12574802706E+00 -0.39450011763E-01  0.89221208680E+00  0.88000000000E+00 0. -1.
        -11    1    4    4    0    0  0.30496764717E-01 -0.33951739293E-01  0.10490502437E-01  0.46830385666E-01  0.51100000000E-03 0. -1.
         11    1    4    4    0    0  0.31978513058E-01 -0.68074273190E-01  0.29979119866E-01  0.80967528780E-01  0.51100000000E-03 0.  1.
</event>
<event>
 8    1  0.1120016E+005  0.1043930E+01  0.7957747E-01            NaN
         13   -1    0    0    0    0  0.00000000000E+00  0.00000000000E+00  0.74505805969E-08  0.10566000000E+00  0.10566000000E+00 0.  1.
     999900   -1    0    0    0    0 -0.00000000000E+00 -0.00000000000E+00 -0.74505805969E-08  0.93827000000E+00  0.93827000000E+00 0. -1.
     999902    2    1    2    0    0 -0.78897628587E-02 -0.16284916278E-01 -0.16063100332E-01  0.10197335117E+01  0.10194464011E+01 0.  0.
     999903    2    3    3    0    0 -0.17596600051E-01  0.68658470594E-01  0.10407788872E+00  0.12746479713E+00  0.19784884883E-01 0.  0.
         14    1    1    2    0    0  0.78897628587E-02  0.16284916278E-01  0.16063100332E-01  0.24196488349E-01  0.00000000000E+00 0.  1.
     999901    1    3    3    0    0  0.97068371922E-02 -0.84943386872E-01 -0.12014098905E+00  0.89226871452E+00  0.88000000000E+00 0. -1.
        -11    1    4    4    0    0 -0.16471634473E-02  0.16760192885E-01  0.40452941929E-01  0.43821442750E-01  0.51100000000E-03 0.  1.
         11    1    4    4    0    0 -0.15949436604E-01  0.51898277709E-01  0.63624946789E-01  0.83643354381E-01  0.51100000000E-03 0. -1.
</event>
<event>
 8    1  0.1120016E+005  0.1043930E+01  0.7957747E-01            NaN
         13   -1    0    0    0    0  0.00000000000E+00  0.00000000000E+00  0.74505805969E-08  0.10566000000E+00  0.10566000000E+00 0. -1.
     999900   -1    0    0    0    0 -0.00000000000E+00 -0.00000000000E+00 -0.74505805969E-08  0.93827000000E+00  0.93827000000E+00 0. -1.
     999902    2    1    2    0    0  0.19385405120E-02  0.19352488339E-01  0.14824739494E-01  0.10194749464E+01  0.10191815916E+01 0.  0.
     999903    2    3    3    0    0 -0.74450580301E-01  0.10461844768E+00  0.26152457660E-01  0.13198753874E+00  0.15775006806E-01 0.  0.
         14    1    1    2    0    0 -0.19385405120E-02 -0.19352488339E-01 -0.14824739494E-01  0.24455053574E-01  0.00000000000E+00 0.  1.
     999901    1    3    3    0    0  0.76389120813E-01 -0.85265959339E-01 -0.11327718166E-01  0.88748740768E+00  0.88000000000E+00 0. -1.
        -11    1    4    4    0    0 -0.20891291100E-01  0.24825759809E-01  0.23429754706E-03  0.32451200444E-01  0.51100000000E-03 0.  1.
         11    1    4    4    0    0 -0.53559289201E-01  0.79792687868E-01  0.25918160113E-01  0.99536338297E-01  0.51100000000E-03 0. -1.
</event>
<event>
 8    1  0.1120016E+005  0.1043930E+01  0.7957747E-01            NaN
         13   -1    0    0    0    0  0.00000000000E+00  0.00000000000E+00  0.74505805969E-08  0.10566000000E+00  0.10566000000E+00 0.  1.
     999900   -1    0    0    0    0 -0.00000000000E+00 -0.00000000000E+00 -0.74505805969E-08  0.93827000000E+00  0.93827000000E+00 0.  1.
     999902    2    1    2    0    0 -0.54832349615E-02 -0.20792283811E-01 -0.98464168972E-02  0.10202796965E+01  0.10200055501E+01 0.  0.
     999903    2    3    3    0    0  0.72078907058E-01 -0.10653894540E+00 -0.24315863277E-01  0.13259859340E+00  0.21100000855E-01 0.  0.
         14    1    1    2    0    0  0.54832349615E-02  0.20792283811E-01  0.98464168972E-02  0.23650303538E-01  0.00000000000E+00 0.  1.
     999901    1    3    3    0    0 -0.77562142020E-01  0.85746661590E-01  0.14469446380E-01  0.88768110306E+00  0.88000000000E+00 0. -1.
        -11    1    4    4    0    0  0.53565195880E-01 -0.88463936882E-01 -0.26090826736E-01  0.10665875819E+00  0.51100000000E-03 0. -1.
         11    1    4    4    0    0  0.18513711178E-01 -0.18075008518E-01  0.17749634591E-02  0.25939835212E-01  0.51100000000E-03 0.  1.
</event>
<event>
 8    1  0.1120016E+005  0.1043930E+01  0.7957747E-01            NaN
         13   -1    0    0    0    0  0.00000000000E+00  0.00000000000E+00  0.74505805969E-08  0.10566000000E+00  0.10566000000E+00 0.  1.
     999900   -1    0    0    0    0 -0.00000000000E+00 -0.00000000000E+00 -0.74505805969E-08  0.93827000000E+00  0.93827000000E+00 0. -1.
     999902    2    1    2    0    0 -0.16629049164E-01 -0.48774730152E-02 -0.16048637845E-01  0.10203106479E+01  0.10200372269E+01 0.  0.
     999903    2    3    3    0    0 -0.10720977150E-01 -0.10868543583E+00 -0.71865005443E-01  0.13243314203E+00  0.21130423277E-01 0.  0.
         14    1    1    2    0    0  0.16629049164E-01  0.48774730152E-02  0.16048637845E-01  0.23619352146E-01  0.00000000000E+00 0.  1.
     999901    1    3    3    0    0 -0.59080720141E-02  0.10380796281E+00  0.55816367598E-01  0.88787750583E+00  0.88000000000E+00 0. -1.
        -11    1    4    4    0    0  0.56014312829E-02 -0.41439336763E-01 -0.23085445845E-01  0.47768123206E-01  0.51100000000E-03 0.  1.
         11    1    4    4    0    0 -0.16322408433E-01 -0.67246099066E-01 -0.48779559598E-01  0.84665018822E-01  0.51100000000E-03 0. -1.
</event>
<event>
 8    1  0.1120016E+005  0.1043930E+01  0.7957747E-01            NaN
         13   -1    0    0    0    0  0.00000000000E+00  0.00000000000E+00  0.74505805969E-08  0.10566000000E+00  0.10566000000E+00 0.  1.
     999900   -1    0    0    0    0 -0.00000000000E+00 -0.00000000000E+00 -0.74505805969E-08  0.93827000000E+00  0.93827000000E+00 0.  1.
     999902    2    1    2    0    0 -0.30332896466E-02  0.21607182785E-01 -0.10777668497E-01  0.10195942376E+01  0.10193037722E+01 0.  0.
     999903    2    3    3    0    0 -0.29054545084E-01 -0.42945140967E-01  0.11521655139E+00  0.12789997850E+00  0.19877098981E-01 0.  0.
         14    1    1    2    0    0  0.30332896466E-02 -0.21607182785E-01  0.10777668497E-01  0.24335762413E-01  0.00000000000E+00 0. -1.
     999901    1    3    3    0    0  0.26021255437E-01  0.64552323752E-01 -0.12599421989E+00  0.89169425908E+00  0.88000000000E+00 0.  1.
        -11    1    4    4    0    0 -0.30977505712E-01 -0.32601909017E-01  0.94732637750E-01  0.10486669685E+00  0.51100000000E-03 0. -1.
         11    1    4    4    0    0  0.19229606283E-02 -0.10343231950E-01  0.20483913643E-01  0.23033281657E-01  0.51100000000E-03 0.  1.
</event>
<event>
 8    1  0.1120016E+005  0.1043930E+01  0.7957747E-01            NaN
         13   -1    0    0    0    0  0.00000000000E+00  0.00000000000E+00  0.74505805969E-08  0.10566000000E+00  0.10566000000E+00 0. -1.
     999900   -1    0    0    0    0 -0.00000000000E+00 -0.00000000000E+00 -0.74505805969E-08  0.93827000000E+00  0.93827000000E+00 0. -1.
     999902    2    1    2    0    0 -0.23590001452E-02  0.20964497087E-01 -0.19550287008E-01  0.10151673725E+01  0.10147598265E+01 0.  0.
     999903    2    3    3    0    0 -0.12446878839E+00 -0.25349368150E-02 -0.72396320677E-02  0.12633973114E+00  0.20258583461E-01 0.  0.
         14    1    1    2    0    0  0.23590001452E-02 -0.20964497087E-01  0.19550287008E-01  0.28762627521E-01  0.00000000000E+00 0.  1.
     999901    1    3    3    0    0  0.12210978825E+00  0.23499433902E-01 -0.12310654941E-01  0.88882764134E+00  0.88000000000E+00 0. -1.
        -11    1    4    4    0    0 -0.57984917271E-01  0.49998090904E-02  0.46200700637E-02  0.58385399632E-01  0.51100000000E-03 0.  1.
         11    1    4    4    0    0 -0.66483871123E-01 -0.75347459054E-02 -0.11859702131E-01  0.67954331510E-01  0.51100000000E-03 0. -1.
</event>
<event>
 8    1  0.1120016E+005  0.1043930E+01  0.7957747E-01            NaN
         13   -1    0    0    0    0  0.00000000000E+00  0.00000000000E+00  0.74505805969E-08  0.10566000000E+00  0.10566000000E+00 0.  1.
     999900   -1    0    0    0    0 -0.00000000000E+00 -0.00000000000E+00 -0.74505805969E-08  0.93827000000E+00  0.93827000000E+00 0. -1.
     999902    2    1    2    0    0  0.86597092288E-02  0.21992984415E-01  0.10303353210E-02  0.10202711007E+01  0.10199967526E+01 0.  0.
     999903    2    3    3    0    0 -0.10855534507E+00 -0.64644420944E-01  0.80334009012E-02  0.12825403137E+00  0.20527954858E-01 0.  0.
         14    1    1    2    0    0 -0.86597092288E-02 -0.21992984415E-01 -0.10303353210E-02  0.23658899347E-01  0.00000000000E+00 0.  1.
     999901    1    3    3    0    0  0.11721505430E+00  0.86637405360E-01 -0.70030655802E-02  0.89201706928E+00  0.88000000000E+00 0.  1.
        -11    1    4    4    0    0 -0.40442195910E-01 -0.33482455774E-01 -0.27437474283E-02  0.52577897692E-01  0.51100000000E-03 0. -1.
         11    1    4    4    0    0 -0.68113149160E-01 -0.31161965170E-01  0.10777148329E-01  0.75676133680E-01  0.51100000000E-03 0.  1.
</event>
<event>
 8    1  0.1120016E+005  0.1043930E+01  0.7957747E-01            NaN
         13   -1    0    0    0    0  0.00000000000E+00  0.00000000000E+00  0.74505805969E-08  0.10566000000E+00  0.10566000000E+00 0. -1.
     999900   -1    0    0    0    0 -0.00000000000E+00 -0.00000000000E+00 -0.74505805969E-08  0.93827000000E+00  0.93827000000E+00 0.  1.
     999902    2    1    2    0    0 -0.14212595044E-01 -0.19163560734E-01  0.29662582985E-03  0.10200694069E+01  0.10197903054E+01 0.  0.
     999903    2    3    3    0    0  0.58452572979E-01  0.82130529452E-01  0.76224632954E-01  0.12804598698E+00  0.20577972633E-01 0.  0.
         14    1    1    2    0    0  0.14212595044E-01  0.19163560734E-01 -0.29662582985E-03  0.23860593136E-01  0.00000000000E+00 0.  1.
     999901    1    3    3    0    0 -0.72665168023E-01 -0.10129409019E+00 -0.75928007124E-01  0.89202341988E+00  0.88000000000E+00 0.  1.
        -11    1    4    4    0    0  0.20936274338E-01  0.26202865288E-01  0.37684689976E-01  0.50451112099E-01  0.51100000000E-03 0.  1.
         11    1    4    4    0    0  0.37516298641E-01  0.55927664164E-01  0.38539942978E-01  0.77594874884E-01  0.51100000000E-03 0. -1.
</event>
<event>
 8    1  0.1120016E+005  0.1043930E+01  0.7957747E-01            NaN
         13   -1    0    0    0    0  0.00000000000E+00  0.00000000000E+00  0.74505805969E-08  0.10566000000E+00  0.10566000000E+00 0. -1.
     999900   -1    0    0    0    0 -0.00000000000E+00 -0.00000000000E+00 -0.74505805969E-08  0.93827000000E+00  0.93827000000E+00 0. -1.
     999902    2    1    2    0    0  0.14315740820E-01 -0.17800114335E-01 -0.73045698959E-02  0.10199478974E+01  0.10196659120E+01 0.  0.
     999903    2    3    3    0    0 -0.10618873516E+00 -0.69053496310E-01  0.20717706834E-01  0.12981673518E+00  0.19460948810E-01 0.  0.
         14    1    1    2    0    0 -0.14315740820E-01  0.17800114335E-01  0.73045698959E-02  0.23982102637E-01  0.00000000000E+00 0.  1.
     999901    1    3    3    0    0  0.12050447598E+00  0.51253381975E-01 -0.28022276730E-01  0.89013116218E+00  0.88000000000E+00 0.  1.
        -11    1    4    4    0    0 -0.31661670334E-01 -0.10499018998E-01  0.46036811927E-02  0.33677080779E-01  0.51100000000E-03 0.  1.
         11    1    4    4    0    0 -0.74527064827E-01 -0.58554477312E-01  0.16114025642E-01  0.96139654401E-01  0.51100000000E-03 0. -1.
</event>
<event>
 8    1  0.1120016E+005  0.1043930E+01  0.7957747E-01            NaN
         13   -1    0    0    0    0  0.00000000000E+00  0.00000000000E+00  0.74505805969E-08  0.10566000000E+00  0.10566000000E+00 0.  1.
     999900   -1    0    0    0    0 -0.00000000000E+00 -0.00000000000E+00 -0.74505805969E-08  0.93827000000E+00  0.93827000000E+00 0.  1.
     999902    2    1    2    0    0 -0.74692291175E-02  0.15267369742E-01  0.15122447178E-01  0.10211798270E+01  0.10209263777E+01 0.  0.
     999903    2    3    3    0    0 -0.87789201059E-01 -0.77706093896E-01 -0.52891411962E-01  0.13004501798E+00  0.19210007553E-01 0.  0.
         14    1    1    2    0    0  0.74692291175E-02 -0.15267369742E-01 -0.15122447178E-01  0.22750172990E-01  0.00000000000E+00 0. -1.
     999901    1    3    3    0    0  0.80319971942E-01  0.92973463638E-01  0.68013859140E-01  0.89113480903E+00  0.88000000000E+00 0. -1.
        -11    1    4    4    0    0 -0.23123258863E-01 -0.28556751698E-01 -0.95023200941E-02  0.37956927907E-01  0.51100000000E-03 0. -1.
         11    1    4    4    0    0 -0.64665942196E-01 -0.49149342198E-01 -0.43389091868E-01  0.92088090071E-01  0.51100000000E-03 0.  1.
</event>
<event>
 8    1  0.1120016E+005  0.1043930E+01  0.7957747E-01            NaN
         13   -1    0    0    0    0  0.00000000000E+00  0.00000000000E+00  0.74505805969E-08  0.10566000000E+00  0.10566000000E+00 0.  1.
     999900   -1    0    0    0    0 -0.00000000000E+00 -0.00000000000E+00 -0.74505805969E-08  0.93827000000E+00  0.93827000000E+00 0. -1.
     999902    2    1    2    0    0  0.12989173926E-02 -0.58091030284E-02 -0.22906285511E-01  0.10202629178E+01  0.10199883777E+01 0.  0.
     999903    2    3    3    0    0 -0.66953602111E-01  0.53745438199E-01 -0.98905261508E-01  0.13235470511E+00  0.19082983177E-01 0.  0.
         14    1    1    2    0    0 -0.12989173926E-02  0.58091030284E-02  0.22906285511E-01  0.23667082210E-01  0.00000000000E+00 0.  1.
     999901    1    3    3    0    0  0.68252519503E-01 -0.59554541227E-01  0.75998975997E-01  0.88790821268E+00  0.88000000000E+00 0.  1.
        -11    1    4    4    0    0 -0.38833061284E-01  0.38336345364E-01 -0.50908465012E-01  0.74629852978E-01  0.51100000000E-03 0. -1.
         11    1    4    4    0    0 -0.28120540826E-01  0.15409092834E-01 -0.47996796496E-01  0.57724852128E-01  0.51100000000E-03 0.  1.
</event>
<event>
 8    1  0.1120016E+005  0.1043930E+01  0.7957747E-01            NaN
         13   -1    0    0    0    0  0.00000000000E+00  0.00000000000E+00  0.74505805969E-08  0.10566000000E+00  0.10566000000E+00 0. -1.
     999900   -1    0    0    0    0 -0.00000000000E+00 -0.00000000000E+00 -0.74505805969E-08  0.93827000000E+00  0.93827000000E+00 0.  1.
     999902    2    1    2    0    0 -0.23955759791E-02 -0.82336570072E-02  0.21919802293E-01  0.10203925910E+01  0.10201210860E+01 0.  0.
     999903    2    3    3    0    0  0.92099064502E-01  0.84514443322E-01  0.31794872269E-01  0.13043249960E+00  0.19411188463E-01 0.  0.
         14    1    1    2    0    0  0.23955759791E-02  0.82336570072E-02 -0.21919802293E-01  0.23537409045E-01  0.00000000000E+00 0.  1.
     999901    1    3    3    0    0 -0.94494640482E-01 -0.92748100329E-01 -0.98750699764E-02  0.88996009135E+00  0.88000000000E+00 0. -1.
        -11    1    4    4    0    0  0.54877485441E-01  0.50565196185E-01  0.28714637418E-01  0.79957294830E-01  0.51100000000E-03 0.  1.
         11    1    4    4    0    0  0.37221579061E-01  0.33949247137E-01  0.30802348517E-02  0.50475204771E-01  0.51100000000E-03 0. -1.
</event>
<event>
 8    1  0.1120016E+005  0.1043930E+01  0.7957747E-01            NaN
         13   -1    0    0    0    0  0.00000000000E+00  0.00000000000E+00  0.74505805969E-08  0.10566000000E+00  0.10566000000E+00 0. -1.
     999900   -1    0    0    0    0 -0.00000000000E+00 -0.00000000000E+00 -0.74505805969E-08  0.93827000000E+00  0.93827000000E+00 0. -1.
     999902    2    1    2    0    0 -0.14078860025E-01 -0.17615218352E-01 -0.44654297885E-02  0.10209419535E+01  0.10206831155E+01 0.  0.
     999903    2    3    3    0    0 -0.16926509540E-01  0.33297308077E-01  0.12321185214E+00  0.13026710670E+00  0.19827786840E-01 0.  0.
         14    1    1    2    0    0  0.14078860025E-01  0.17615218352E-01  0.44654297885E-02  0.22988046467E-01  0.00000000000E+00 0. -1.
     999901    1    3    3    0    0  0.28476495157E-02 -0.50912526428E-01 -0.12767728193E+00  0.89067484683E+00  0.88000000000E+00 0. -1.
        -11    1    4    4    0    0 -0.81010245045E-02  0.77452484282E-03  0.17365950266E-01  0.19184989872E-01  0.51100000000E-03 0. -1.
         11    1    4    4    0    0 -0.88254850357E-02  0.32522783234E-01  0.10584590187E+00  0.11108211683E+00  0.51100000000E-03 0.  1.
</event>
<event>
 8    1  0.1120016E+005  0.1043930E+01  0.7957747E-01            NaN
         13   -1    0    0    0    0  0.00000000000E+00  0.00000000000E+00  0.74505805969E-08  0.10566000000E+00  0.10566000000E+00 0. -1.
     999900   -1    0    0    0    0 -0.00000000000E+00 -0.00000000000E+00 -0.74505805969E-08  0.93827000000E+00  0.93827000000E+00 0. -1.
     999902    2    1    2    0    0  0.34354152385E-02 -0.19113511318E-01 -0.18657919948E-01  0.10169996014E+01  0.10166429771E+01 0.  0.
     999903    2    3    3    0    0  0.12467710248E+00  0.18519037923E-01 -0.46130081982E-02  0.12777914782E+00  0.20466952030E-01 0.  0.
         14    1    1    2    0    0 -0.34354152385E-02  0.19113511318E-01  0.18657919948E-01  0.26930398615E-01  0.00000000000E+00 0. -1.
     999901    1    3    3    0    0 -0.12124168724E+00 -0.37632549241E-01 -0.14044911750E-01  0.88922045356E+00  0.88000000000E+00 0. -1.
        -11    1    4    4    0    0  0.57752830395E-01  0.17872397722E-02  0.55494475746E-02  0.58048610095E-01  0.51100000000E-03 0. -1.
         11    1    4    4    0    0  0.66924272084E-01  0.16731798151E-01 -0.10162455773E-01  0.69730537727E-01  0.51100000000E-03 0.  1.
</event>
<event>
 7    1  0.1120016E+005  0.1043930E+01  0.7957747E-01            NaN
         13   -1    0    0    0    0  0.00000000000E+00  0.00000000000E+00  0.74505805969E-08  0.10566000000E+00  0.10566000000E+00 0.  1.
     999900   -1    0    0    0    0 -0.00000000000E+00 -0.00000000000E+00 -0.74505805969E-08  0.93827000000E+00  0.93827000000E+00 0.  1.
     999903    2    1    2    0    0  0.61548568852E-01  0.49654786418E-02 -0.20090371257E-01  0.67996160063E-01  0.20173558441E-01 0.  0.
         14    1    1    2    0    0  0.22872698729E-01 -0.77493545466E-01  0.36758154824E-01  0.88766952646E-01  0.00000000000E+00 0.  1.
     999901    1    1    2    0    0 -0.84421267581E-01  0.72528066824E-01 -0.16667783567E-01  0.88716688729E+00  0.88000000000E+00 0. -1.
        -11    1    3    3    0    0  0.12379324418E-01 -0.26747743727E-02 -0.12236924578E-01  0.17618329521E-01  0.51100000000E-03 0.  1.
         11    1    3    3    0    0  0.49169244434E-01  0.76402530145E-02 -0.78534466791E-02  0.50377830542E-01  0.51100000000E-03 0. -1.
</event>
<event>
 8    1  0.1120016E+005  0.1043930E+01  0.7957747E-01            NaN
         13   -1    0    0    0    0  0.00000000000E+00  0.00000000000E+00  0.74505805969E-08  0.10566000000E+00  0.10566000000E+00 0.  1.
     999900   -1    0    0    0    0 -0.00000000000E+00 -0.00000000000E+00 -0.74505805969E-08  0.93827000000E+00  0.93827000000E+00 0.  1.
     999902    2    1    2    0    0  0.21729396118E-01 -0.33587700352E-02 -0.75834832192E-02  0.10206715132E+01  0.10204064781E+01 0.  0.
     999903    2    3    3    0    0  0.12959784144E+00 -0.25173405486E-01  0.76940628390E-02  0.13368510785E+00  0.19575714714E-01 0.  0.
         14    1    1    2    0    0 -0.21729396118E-01  0.33587700352E-02  0.75834832192E-02  0.23258486828E-01  0.00000000000E+00 0. -1.
     999901    1    3    3    0    0 -0.10786844533E+00  0.21814635450E-01 -0.15277546058E-01  0.88698640532E+00  0.88000000000E+00 0.  1.
        -11    1    4    4    0    0  0.68094229823E-01 -0.35298199064E-02  0.17203545507E-02  0.68209269931E-01  0.51100000000E-03 0. -1.
         11    1    4    4    0    0  0.61503611621E-01 -0.21643585579E-01  0.59737082883E-02  0.65475837916E-01  0.51100000000E-03 0.  1.
</event>
<event>
 8    1  0.1120016E+005  0.1043930E+01  0.7957747E-01            NaN
         13   -1    0    0    0    0  0.00000000000E+00  0.00000000000E+00  0.74505805969E-08  0.10566000000E+00  0.10566000000E+00 0.  1.
     999900   -1    0    0    0    0 -0.00000000000E+00 -0.00000000000E+00 -0.74505805969E-08  0.93827000000E+00  0.93827000000E+00 0.  1.
     999902    2    1    2    0    0 -0.88661663098E-02  0.22491314930E-01  0.18569106856E-04  0.10197542167E+01  0.10194676032E+01 0.  0.
     999903    2    3    3    0    0 -0.71915197336E-01 -0.31573135629E-02  0.10721792090E+00  0.13063963834E+00  0.19729883647E-01 0.  0.
         14    1    1    2    0    0  0.88661663098E-02 -0.22491314930E-01 -0.18569106856E-04  0.24175783279E-01  0.00000000000E+00 0. -1.
     999901    1    3    3    0    0  0.63049031026E-01  0.25648628493E-01 -0.10719935179E+00  0.88911457838E+00  0.88000000000E+00 0.  1.
        -11    1    4    4    0    0 -0.59038282516E-01 -0.38870043528E-02  0.72375427884E-01  0.93483106964E-01  0.51100000000E-03 0. -1.
         11    1    4    4    0    0 -0.12876914821E-01  0.72969078989E-03  0.34842493013E-01  0.37156531381E-01  0.51100000000E-03 0.  1.
</event>
<event>
 8    1  0.1120016E+005  0.1043930E+01  0.7957747E-01            NaN
         13   -1    0    0    0    0  0.00000000000E+00  0.00000000000E+00  0.74505805969E-08  0.10566000000E+00  0.10566000000E+00 0. -1.
     999900   -1    0    0    0    0 -0.00000000000E+00 -0.00000000000E+00 -0.74505805969E-08  0.93827000000E+00  0.93827000000E+00 0. -1.
     999902    2    1    2    0    0 -0.19334207172E-01 -0.11317547493E-02  0.13706020788E-01  0.10202034865E+01  0.10199275496E+01 0.  0.
     999903    2    3    3    0    0  0.10662807831E+00  0.43561010943E-01 -0.51557711561E-01  0.12772194866E+00  0.19687300251E-01 0.  0.
         14    1    1    2    0    0  0.19334207172E-01  0.11317547493E-02 -0.13706020788E-01  0.23726513473E-01  0.00000000000E+00 0.  1.
     999901    1    3    3    0    0 -0.12596228548E+00 -0.44692765692E-01  0.65263732349E-01  0.89248153786E+00  0.88000000000E+00 0.  1.
        -11    1    4    4    0    0  0.53628840821E-01  0.29881461630E-01 -0.20167253524E-01  0.64621463560E-01  0.51100000000E-03 0.  1.
         11    1    4    4    0    0  0.52999237485E-01  0.13679549313E-01 -0.31390458037E-01  0.63100485102E-01  0.51100000000E-03 0. -1.
</event>
<event>
 8    1  0.1120016E+005  0.1043930E+01  0.7957747E-01            NaN
         13   -1    0    0    0    0  0.00000000000E+00  0.00000000000E+00  0.74505805969E-08  0.10566000000E+00  0.10566000000E+00 0. -1.
     999900   -1    0    0    0    0 -0.00000000000E+00 -0.00000000000E+00 -0.74505805969E-08  0.93827000000E+00  0.93827000000E+00 0. -1.
     999902    2    1    2    0    0 -0.80724450111E-02  0.19092611992E-01  0.13437016044E-01  0.10192268504E+01  0.10189274395E+01 0.  0.
     999903    2    3    3    0    0 -0.88557813926E-01 -0.87311761233E-01  0.28749740470E-01  0.12903908098E+00  0.18939556135E-01 0.  0.
         14    1    1    2    0    0  0.80724450111E-02 -0.19092611992E-01 -0.13437016044E-01  0.24703149623E-01  0.00000000000E+00 0.  1.
     999901    1    3    3    0    0  0.80485368915E-01  0.10640437323E+00 -0.15312724426E-01  0.89018776939E+00  0.88000000000E+00 0.  1.
        -11    1    4    4    0    0 -0.50550187765E-01 -0.42806554272E-01  0.70429464382E-02  0.66615214383E-01  0.51100000000E-03 0.  1.
         11    1    4    4    0    0 -0.38007626160E-01 -0.44505206962E-01  0.21706794032E-01  0.62423866599E-01  0.51100000000E-03 0. -1.
</event>
<event>
 8    1  0.1120016E+005  0.1043930E+01  0.7957747E-01            NaN
         13   -1    0    0    0    0  0.00000000000E+00  0.00000000000E+00  0.74505805969E-08  0.10566000000E+00  0.10566000000E+00 0.  1.
     999900   -1    0    0    0    0 -0.00000000000E+00 -0.00000000000E+00 -0.74505805969E-08  0.93827000000E+00  0.93827000000E+00 0.  1.
     999902    2    1    2    0    0  0.13442968153E-01  0.17981817178E-01  0.77401018024E-02  0.10201819829E+01  0.10199055397E+01 0.  0.
     999903    2    3    3    0    0 -0.91564413388E-02 -0.27597878525E-01  0.12603504626E+00  0.13081033060E+00  0.19519897280E-01 0.  0.
         14    1    1    2    0    0 -0.13442968153E-01 -0.17981817178E-01 -0.77401018024E-02  0.23748017132E-01  0.00000000000E+00 0.  1.
     999901    1    3    3    0    0  0.22599409492E-01  0.45579695703E-01 -0.11829494446E+00  0.88937165227E+00  0.88000000000E+00 0.  1.
        -11    1    4    4    0    0 -0.40743654163E-02 -0.28133767802E-01  0.11712156119E+00  0.12052315363E+00  0.51100000000E-03 0. -1.
         11    1    4    4    0    0 -0.50820759225E-02  0.53588927673E-03  0.89134850681E-02  0.10287176972E-01  0.51100000000E-03 0.  1.
</event>
<event>
 8    1  0.1120016E+005  0.1043930E+01  0.7957747E-01            NaN
         13   -1    0    0    0    0  0.00000000000E+00  0.00000000000E+00  0.74505805969E-08  0.10566000000E+00  0.10566000000E+00 0. -1.
     999900   -1    0    0    0    0 -0.00000000000E+00 -0.00000000000E+00 -0.74505805969E-08  0.93827000000E+00  0.93827000000E+00 0.  1.
     999902    2    1    2    0    0  0.10614638899E-01 -0.33399073638E-02  0.20644730072E-01  0.10204772727E+01  0.10202077404E+01 0.  0.
     999903    2    3    3    0    0 -0.90861914057E-01 -0.45888874611E-01 -0.75595029054E-01  0.12841785947E+00  0.20368160800E-01 0.  0.
         14    1    1    2    0    0 -0.10614638899E-01  0.33399073638E-02 -0.20644730072E-01  0.23452727344E-01  0.00000000000E+00 0.  1.
     999901    1    3    3    0    0  0.10147655296E+00  0.42548967248E-01  0.96239759126E-01  0.89205941318E+00  0.88000000000E+00 0. -1.
        -11    1    4    4    0    0 -0.52136955628E-01 -0.16269910613E-01 -0.34061160639E-01  0.64369215612E-01  0.51100000000E-03 0.  1.
         11    1    4    4    0    0 -0.38724958430E-01 -0.29618963998E-01 -0.41533868415E-01  0.64048643859E-01  0.51100000000E-03 0. -1.
</event>
<event>
 8    1  0.1120016E+005  0.1043930E+01  0.7957747E-01            NaN
         13   -1    0    0    0    0  0.00000000000E+00  0.00000000000E+00  0.74505805969E-08  0.10566000000E+00  0.10566000000E+00 0. -1.
     999900   -1    0    0    0    0 -0.00000000000E+00 -0.00000000000E+00 -0.74505805969E-08  0.93827000000E+00  0.93827000000E+00 0. -1.
     999902    2    1    2    0    0 -0.20765070835E-01  0.39575134439E-02 -0.10973472047E-01  0.10201126289E+01  0.10198345495E+01 0.  0.
     999903    2    3    3    0    0 -0.11700974659E-01 -0.40340768279E-01  0.12021414385E+00  0.12923963781E+00  0.22071547482E-01 0.  0.
         14    1    1    2    0    0  0.20765070835E-01 -0.39575134439E-02  0.10973472047E-01  0.23817371144E-01  0.00000000000E+00 0.  1.
     999901    1    3    3    0    0 -0.90640961767E-02  0.44298281723E-01 -0.13118761589E+00  0.89087299104E+00  0.88000000000E+00 0. -1.
        -11    1    4    4    0    0 -0.13332864675E-01 -0.11980526974E-01  0.33615696843E-01  0.38099534147E-01  0.51100000000E-03 0. -1.
         11    1    4    4    0    0  0.16318900166E-02 -0.28360241305E-01  0.86598447004E-01  0.91140103667E-01  0.51100000000E-03 0.  1.
</event>
<event>
 8    1  0.1120016E+005  0.1043930E+01  0.7957747E-01            NaN
         13   -1    0    0    0    0  0.00000000000E+00  0.00000000000E+00  0.74505805969E-08  0.10566000000E+00  0.10566000000E+00 0.  1.
     999900   -1    0    0    0    0 -0.00000000000E+00 -0.00000000000E+00 -0.74505805969E-08  0.93827000000E+00  0.93827000000E+00 0.  1.
     999902    2    1    2    0    0 -0.10815558520E-01  0.20586187634E-01 -0.23976719406E-02  0.10205523128E+01  0.10202845225E+01 0.  0.
     999903    2    3    3    0    0  0.10672317408E+00  0.59702851325E-02 -0.71229821451E-01  0.12995316445E+00  0.19714393131E-01 0.  0.
         14    1    1    2    0    0  0.10815558520E-01 -0.20586187634E-01  0.23976719406E-02  0.23377687185E-01  0.00000000000E+00 0. -1.
     999901    1    3    3    0    0 -0.11753873260E+00  0.14615902502E-01  0.68832149511E-01  0.89059914837E+00  0.88000000000E+00 0.  1.
        -11    1    4    4    0    0  0.83648031400E-01  0.49610137156E-02 -0.64925475081E-01  0.10600558122E+00  0.51100000000E-03 0.  1.
         11    1    4    4    0    0  0.23075142676E-01  0.10092714169E-02 -0.63043463703E-02  0.23947583228E-01  0.51100000000E-03 0. -1.
</event>
<event>
 8    1  0.1120016E+005  0.1043930E+01  0.7957747E-01            NaN
         13   -1    0    0    0    0  0.00000000000E+00  0.00000000000E+00  0.74505805969E-08  0.10566000000E+00  0.10566000000E+00 0.  1.
     999900   -1    0    0    0    0 -0.00000000000E+00 -0.00000000000E+00 -0.74505805969E-08  0.93827000000E+00  0.93827000000E+00 0. -1.
     999902    2    1    2    0    0 -0.18168532837E-01 -0.84596504734E-02 -0.12738373968E-01  0.10201828435E+01  0.10199064206E+01 0.  0.
     999903    2    3    3    0    0  0.11633309039E+00 -0.42793279169E-02  0.48039811576E-01  0.12788124111E+00  0.22228085043E-01 0.  0.
         14    1    1    2    0    0  0.18168532837E-01  0.84596504734E-02  0.12738373968E-01  0.23747156523E-01  0.00000000000E+00 0.  1.
     999901    1    3    3    0    0 -0.13450162323E+00 -0.41803225566E-02 -0.60778185544E-01  0.89230160237E+00  0.88000000000E+00 0.  1.
        -11    1    4    4    0    0  0.56027097779E-01 -0.13154697364E-01  0.23869981379E-01  0.62306651974E-01  0.51100000000E-03 0.  1.
         11    1    4    4    0    0  0.60305992611E-01  0.88753694469E-02  0.24169830198E-01  0.65574589136E-01  0.51100000000E-03 0. -1.
</event>
<event>
 8    1  0.1120016E+005  0.1043930E+01  0.7957747E-01            NaN
         13   -1    0    0    0    0  0.00000000000E+00  0.00000000000E+00  0.74505805969E-08  0.10566000000E+00  0.10566000000E+00 0.  1.
     999900   -1    0    0    0    0 -0.00000000000E+00 -0.00000000000E+00 -0.74505805969E-08  0.93827000000E+00  0.93827000000E+00 0. -1.
     999902    2    1    2    0    0  0.21088137179E-01 -0.14360685387E-01  0.18959252445E-02  0.10183461507E+01  0.10180247292E+01 0.  0.
     999903    2    3    3    0    0  0.12660456917E+00 -0.30463874106E-01  0.73129322637E-02  0.13187992227E+00  0.19546620148E-01 0.  0.
         14    1    1    2    0    0 -0.21088137179E-01  0.14360685387E-01 -0.18959252445E-02  0.25583849339E-01  0.00000000000E+00 0.  1.
     999901    1    3    3    0    0 -0.10551643200E+00  0.16103188719E-01 -0.54170070192E-02  0.88646622839E+00  0.88000000000E+00 0.  1.
        -11    1    4    4    0    0  0.76715961352E-02 -0.50686310369E-02  0.44580753196E-02  0.10231322710E-01  0.51100000000E-03 0. -1.
         11    1    4    4    0    0  0.11893297304E+00 -0.25395243069E-01  0.28548569441E-02  0.12164859956E+00  0.51100000000E-03 0.  1.
</event>
<event>
 8    1  0.1120016E+005  0.1043930E+01  0.7957747E-01            NaN
         13   -1    0    0    0    0  0.00000000000E+00  0.00000000000E+00  0.74505805969E-08  0.10566000000E+00  0.10566000000E+00 0. -1.
     999900   -1    0    0    0    0 -0.00000000000E+00 -0.00000000000E+00 -0.74505805969E-08  0.93827000000E+00  0.93827000000E+00 0. -1.
     999902    2    1    2    0    0  0.20727021177E-01 -0.12284940200E-01 -0.58584596621E-02  0.10191338166E+01  0.10188321184E+01 0.  0.
     999903    2    3    3    0    0  0.19578259709E-01  0.30352591995E-01  0.12210787546E+00  0.12885596011E+00  0.19721488566E-01 0.  0.
         14    1    1    2    0    0 -0.20727021177E-01  0.12284940200E-01  0.58584596621E-02  0.24796183420E-01  0.00000000000E+00 0. -1.
     999901    1    3    3    0    0  0.11487614681E-02 -0.42637532195E-01 -0.12796633512E+00  0.89027785647E+00  0.88000000000E+00 0. -1.
        -11    1    4    4    0    0 -0.36256765733E-02  0.84316872460E-02  0.29571140830E-01  0.30966956122E-01  0.51100000000E-03 0.  1.
         11    1    4    4    0    0  0.23203936282E-01  0.21920904749E-01  0.92536734630E-01  0.97889003984E-01  0.51100000000E-03 0. -1.
</event>
<event>
 8    1  0.1120016E+005  0.1043930E+01  0.7957747E-01            NaN
         13   -1    0    0    0    0  0.00000000000E+00  0.00000000000E+00  0.74505805969E-08  0.10566000000E+00  0.10566000000E+00 0. -1.
     999900   -1    0    0    0    0 -0.00000000000E+00 -0.00000000000E+00 -0.74505805969E-08  0.93827000000E+00  0.93827000000E+00 0.  1.
     999902    2    1    2    0    0  0.63148997016E-02 -0.19370035310E-01 -0.12457691662E-01  0.10200496669E+01  0.10197700980E+01 0.  0.
     999903    2    3    3    0    0  0.22523662282E-01 -0.78314749746E-01  0.10028893475E+00  0.13075275076E+00  0.19947330833E-01 0.  0.
         14    1    1    2    0    0 -0.63148997016E-02  0.19370035310E-01  0.12457691662E-01  0.23880333073E-01  0.00000000000E+00 0. -1.
     999901    1    3    3    0    0 -0.16208762581E-01  0.58944714436E-01 -0.11274662641E+00  0.88929691617E+00  0.88000000000E+00 0.  1.
        -11    1    4    4    0    0  0.14155877995E-01 -0.34026611468E-01  0.59341046804E-01  0.69855709334E-01  0.51100000000E-03 0. -1.
         11    1    4    4    0    0  0.83677842868E-02 -0.44288138277E-01  0.40947887943E-01  0.60897041422E-01  0.51100000000E-03 0.  1.
</event>
<event>
 8    1  0.1120016E+005  0.1043930E+01  0.7957747E-01            NaN
         13   -1    0    0    0    0  0.00000000000E+00  0.00000000000E+00  0.74505805969E-08  0.10566000000E+00  0.10566000000E+00 0. -1.
     999900   -1    0    0    0    0 -0.00000000000E+00 -0.00000000000E+00 -0.74505805969E-08  0.93827000000E+00  0.93827000000E+00 0.  1.
     999902    2    1    2    0    0 -0.90775545835E-02 -0.10418963131E-01  0.18709638299E-01  0.10206704352E+01  0.10204053753E+01 0.  0.
     999903    2    3    3    0    0 -0.10415579055E+00  0.55383940850E-01  0.56360555285E-01  0.13230818662E+00  0.20325708996E-01 0.  0.
         14    1    1    2    0    0  0.90775545835E-02  0.10418963131E-01 -0.18709638299E-01  0.23259564811E-01  0.00000000000E+00 0.  1.
     999901    1    3    3    0    0  0.95078235967E-01 -0.65802903981E-01 -0.37650916986E-01  0.88836224857E+00  0.88000000000E+00 0. -1.
        -11    1    4    4    0    0 -0.86274325687E-01  0.44650346206E-01  0.37331247258E-01  0.10407110950E+00  0.51100000000E-03 0. -1.
         11    1    4    4    0    0 -0.17881464863E-01  0.10733594644E-01  0.19029308027E-01  0.28237077126E-01  0.51100000000E-03 0.  1.
</event>
<event>
 8    1  0.1120016E+005  0.1043930E+01  0.7957747E-01            NaN
         13   -1    0    0    0    0  0.00000000000E+00  0.00000000000E+00  0.74505805969E-08  0.10566000000E+00  0.10566000000E+00 0.  1.
     999900   -1    0    0    0    0 -0.00000000000E+00 -0.00000000000E+00 -0.74505805969E-08  0.93827000000E+00  0.93827000000E+00 0. -1.
     999902    2    1    2    0    0  0.84016262301E-02  0.60264744760E-02 -0.21701360257E-01  0.10198913903E+01  0.10196080587E+01 0.  0.
     999903    2    3    3    0    0  0.23026361321E-01  0.12140126032E+00  0.35724796780E-01  0.13038423038E+00  0.21337926404E-01 0.  0.
         14    1    1    2    0    0 -0.84016262301E-02 -0.60264744760E-02  0.21701360257E-01  0.24038609671E-01  0.00000000000E+00 0.  1.
     999901    1    3    3    0    0 -0.14624735090E-01 -0.11537478585E+00 -0.57426157037E-01  0.88950715995E+00  0.88000000000E+00 0.  1.
        -11    1    4    4    0    0  0.41681210084E-02  0.48649158657E-01  0.46351633754E-02  0.49049564028E-01  0.51100000000E-03 0.  1.
         11    1    4    4    0    0  0.18858240312E-01  0.72752101666E-01  0.31089633405E-01  0.81334666353E-01  0.51100000000E-03 0. -1.
</event>
<event>
 8    1  0.1120016E+005  0.1043930E+01  0.7957747E-01            NaN
         13   -1    0    0    0    0  0.00000000000E+00  0.00000000000E+00  0.74505805969E-08  0.10566000000E+00  0.10566000000E+00 0.  1.
     999900   -1    0    0    0    0 -0.00000000000E+00 -0.00000000000E+00 -0.74505805969E-08  0.93827000000E+00  0.93827000000E+00 0.  1.
     999902    2    1    2    0    0  0.17867988223E-03  0.18894812556E-01  0.14773823352E-01  0.10199443434E+01  0.10196622734E+01 0.  0.
     999903    2    3    3    0    0 -0.56514200720E-01  0.11761757075E+00  0.12295506720E-01  0.13260764979E+00  0.20146003725E-01 0.  0.
         14    1    1    2    0    0 -0.17867988223E-03 -0.18894812556E-01 -0.14773823352E-01  0.23985656640E-01  0.00000000000E+00 0. -1.
     999901    1    3    3    0    0  0.56692880602E-01 -0.98722758194E-01  0.24783166315E-02  0.88733669357E+00  0.88000000000E+00 0.  1.
        -11    1    4    4    0    0 -0.32547607837E-01  0.79784351949E-01  0.27358230155E-04  0.86169318562E-01  0.51100000000E-03 0.  1.
         11    1    4    4    0    0 -0.23966592883E-01  0.37833218801E-01  0.12268148490E-01  0.46438331232E-01  0.51100000000E-03 0. -1.
</event>
<event>
 8    1  0.1120016E+005  0.1043930E+01  0.7957747E-01            NaN
         13   -1    0    0    0    0  0.00000000000E+00  0.00000000000E+00  0.74505805969E-08  0.10566000000E+00  0.10566000000E+00 0. -1.
     999900   -1    0    0    0    0 -0.00000000000E+00 -0.00000000000E+00 -0.74505805969E-08  0.93827000000E+00  0.93827000000E+00 0.  1.
     999902    2    1    2    0    0 -0.28074805029E-02 -0.23821828649E-01  0.19068227158E-02  0.10198676344E+01  0.10195837357E+01 0.  0.
     999903    2    3    3    0    0 -0.11564879053E+00  0.39064969451E-01  0.38983255943E-01  0.12966396524E+00  0.19807449332E-01 0.  0.
         14    1    1    2    0    0  0.28074805029E-02  0.23821828649E-01 -0.19068227158E-02  0.24062365633E-01  0.00000000000E+00 0. -1.
     999901    1    3    3    0    0  0.11284131003E+00 -0.62886798100E-01 -0.37076433227E-01  0.89020366913E+00  0.88000000000E+00 0.  1.
        -11    1    4    4    0    0 -0.68694635044E-01  0.29746034811E-01  0.31467191192E-01  0.81204831835E-01  0.51100000000E-03 0. -1.
         11    1    4    4    0    0 -0.46954155486E-01  0.93189346400E-02  0.75160647512E-02  0.48459133407E-01  0.51100000000E-03 0.  1.
</event>
<event>
 8    1  0.1120016E+005  0.1043930E+01  0.7957747E-01            NaN
         13   -1    0    0    0    0  0.00000000000E+00  0.00000000000E+00  0.74505805969E-08  0.10566000000E+00  0.10566000000E+00 0.  1.
     999900   -1    0    0    0    0 -0.00000000000E+00 -0.00000000000E+00 -0.74505805969E-08  0.93827000000E+00  0.93827000000E+00 0. -1.
     999902    2    1    2    0    0  0.22035468746E-01 -0.81704578111E-02  0.43092090337E-02  0.10200367468E+01  0.10197568717E+01 0.  0.
     999903    2    3    3    0    0 -0.10358932679E+00  0.30742316291E-01  0.65724561365E-01  0.12814682161E+00  0.20641009804E-01 0.  0.
         14    1    1    2    0    0 -0.22035468746E-01  0.81704578111E-02 -0.43092090337E-02  0.23893253152E-01  0.00000000000E+00 0. -1.
     999901    1    3    3    0    0  0.12562479554E+00 -0.38912774102E-01 -0.61415352331E-01  0.89188992524E+00  0.88000000000E+00 0. -1.
        -11    1    4    4    0    0 -0.79922245627E-01  0.32035233979E-01  0.54614465803E-01  0.10196481039E+00  0.51100000000E-03 0.  1.
         11    1    4    4    0    0 -0.23667081165E-01 -0.12929176877E-02  0.11110095561E-01  0.26182011218E-01  0.51100000000E-03 0. -1.
</event>
<event>
 8    1  0.1120016E+005  0.1043930E+01  0.7957747E-01            NaN
         13   -1    0    0    0    0  0.00000000000E+00  0.00000000000E+00  0.74505805969E-08  0.10566000000E+00  0.10566000000E+00 0. -1.
     999900   -1    0    0    0    0 -0.00000000000E+00 -0.00000000000E+00 -0.74505805969E-08  0.93827000000E+00  0.93827000000E+00 0. -1.
     999902    2    1    2    0    0  0.23316024006E-01  0.45353987092E-02 -0.51828516899E-02  0.10196180941E+01  0.10193282048E+01 0.  0.
     999903    2    3    3    0    0 -0.91249701999E-02  0.12579444975E+00 -0.26609792700E-01  0.13045259243E+00  0.20057146701E-01 0.  0.
         14    1    1    2    0    0 -0.23316024006E-01 -0.45353987092E-02  0.51828516899E-02  0.24311905901E-01  0.00000000000E+00 0. -1.
     999901    1    3    3    0    0  0.32440994206E-01 -0.12125905104E+00  0.21426941010E-01  0.88916550167E+00  0.88000000000E+00 0. -1.
        -11    1    4    4    0    0  0.51445841015E-02  0.51295496565E-01 -0.63964569583E-02  0.51950654434E-01  0.51100000000E-03 0.  1.
         11    1    4    4    0    0 -0.14269554301E-01  0.74498953186E-01 -0.20213335742E-01  0.78501937992E-01  0.51100000000E-03 0. -1.
</event>
<event>
 8    1  0.1120016E+005  0.1043930E+01  0.7957747E-01            NaN
         13   -1    0    0    0    0  0.00000000000E+00  0.00000000000E+00  0.74505805969E-08  0.10566000000E+00  0.10566000000E+00 0. -1.
     999900   -1    0    0    0    0 -0.00000000000E+00 -0.00000000000E+00 -0.74505805969E-08  0.93827000000E+00  0.93827000000E+00 0.  1.
     999902    2    1    2    0    0  0.47561208068E-02 -0.18344649769E-01 -0.18661985248E-01  0.10173326965E+01  0.10169849551E+01 0.  0.
     999903    2    3    3    0    0 -0.76828492938E-01  0.82602834961E-01 -0.54898402364E-01  0.12707457561E+00  0.20205630758E-01 0.  0.
         14    1    1    2    0    0 -0.47561208068E-02  0.18344649769E-01  0.18661985248E-01  0.26597303504E-01  0.00000000000E+00 0.  1.
     999901    1    3    3    0    0  0.81584613745E-01 -0.10094748473E+00  0.36236417116E-01  0.89025812088E+00  0.88000000000E+00 0.  1.
        -11    1    4    4    0    0 -0.71600049312E-01  0.67391142581E-01 -0.44614902335E-01  0.10797631125E+00  0.51100000000E-03 0. -1.
         11    1    4    4    0    0 -0.52284436258E-02  0.15211692380E-01 -0.10283500029E-01  0.19098264362E-01  0.51100000000E-03 0.  1.
</event>
<event>
 8    1  0.1120016E+005  0.1043930E+01  0.7957747E-01            NaN
         13   -1    0    0    0    0  0.00000000000E+00  0.00000000000E+00  0.74505805969E-08  0.10566000000E+00  0.10566000000E+00 0.  1.
     999900   -1    0    0    0    0 -0.00000000000E+00 -0.00000000000E+00 -0.74505805969E-08  0.93827000000E+00  0.93827000000E+00 0.  1.
     999902    2    1    2    0    0  0.70788579044E-02  0.22068107415E-01 -0.14637383348E-02  0.10207081542E+01  0.10204439631E+01 0.  0.
     999903    2    3    3    0    0  0.75755499669E-02 -0.31569412975E-01  0.12445090756E+00  0.13012872012E+00  0.19784807643E-01 0.  0.
         14    1    1    2    0    0 -0.70788579044E-02 -0.22068107415E-01  0.14637383348E-02  0.23221845836E-01  0.00000000000E+00 0. -1.
     999901    1    3    3    0    0 -0.49669206256E-03  0.53637520390E-01 -0.12591464590E+00  0.89057943405E+00  0.88000000000E+00 0.  1.
        -11    1    4    4    0    0 -0.25422994739E-02 -0.26461323684E-01  0.91108908347E-01  0.94909215774E-01  0.51100000000E-03 0. -1.
         11    1    4    4    0    0  0.10117849441E-01 -0.51080892910E-02  0.33341999215E-01  0.35219504343E-01  0.51100000000E-03 0.  1.
</event>
<event>
 8    1  0.1120016E+005  0.1043930E+01  0.7957747E-01            NaN
         13   -1    0    0    0    0  0.00000000000E+00  0.00000000000E+00  0.74505805969E-08  0.10566000000E+00  0.10566000000E+00 0. -1.
     999900   -1    0    0    0    0 -0.00000000000E+00 -0.00000000000E+00 -0.74505805969E-08  0.93827000000E+00  0.93827000000E+00 0. -1.
     999902    2    1    2    0    0  0.80817014428E-02 -0.22346309460E-01  0.53764157526E-03  0.10201611022E+01  0.10198841669E+01 0.  0.
     999903    2    3    3    0    0 -0.11127501195E+00 -0.57072679802E-01  0.36008533841E-01  0.13071738276E+00  0.12288229394E-01 0.  0.
         14    1    1    2    0    0 -0.80817014428E-02  0.22346309460E-01 -0.53764157526E-03  0.23768897811E-01  0.00000000000E+00 0. -1.
     999901    1    3    3    0    0  0.11935671340E+00  0.34726370342E-01 -0.35470892266E-01  0.88944371943E+00  0.88000000000E+00 0. -1.
        -11    1    4    4    0    0 -0.73389937680E-01 -0.41585068688E-01  0.19479884001E-01  0.86574406680E-01  0.51100000000E-03 0. -1.
         11    1    4    4    0    0 -0.37885074274E-01 -0.15487611114E-01  0.16528649840E-01  0.44142976081E-01  0.51100000000E-03 0.  1.
</event>
<event>
 8    1  0.1120016E+005  0.1043930E+01  0.7957747E-01            NaN
         13   -1    0    0    0    0  0.00000000000E+00  0.00000000000E+00  0.74505805969E-08  0.10566000000E+00  0.10566000000E+00 0.  1.
     999900   -1    0    0    0    0 -0.00000000000E+00 -0.00000000000E+00 -0.74505805969E-08  0.93827000000E+00  0.93827000000E+00 0. -1.
     999902    2    1    2    0    0  0.17217882442E-01 -0.17577428082E-01  0.11400572702E-01  0.10168118417E+01  0.10164501595E+01 0.  0.
     999903    2    3    3    0    0 -0.39592740402E-01 -0.45910394564E-01 -0.10906626529E+00  0.12633867367E+00  0.19765141490E-01 0.  0.
         14    1    1    2    0    0 -0.17217882442E-01  0.17577428082E-01 -0.11400572702E-01  0.27118158339E-01  0.00000000000E+00 0.  1.
     999901    1    3    3    0    0  0.56810622844E-01  0.28332966481E-01  0.12046683799E+00  0.89047316799E+00  0.88000000000E+00 0.  1.
        -11    1    4    4    0    0 -0.24913582558E-01 -0.19946371541E-01 -0.40512904023E-01  0.51576165493E-01  0.51100000000E-03 0.  1.
         11    1    4    4    0    0 -0.14679157844E-01 -0.25964023023E-01 -0.68553361269E-01  0.74762508176E-01  0.51100000000E-03 0. -1.
</event>
<event>
 8    1  0.1120016E+005  0.1043930E+01  0.7957747E-01            NaN
         13   -1    0    0    0    0  0.00000000000E+00  0.00000000000E+00  0.74505805969E-08  0.10566000000E+00  0.10566000000E+00 0. -1.
     999900   -1    0    0    0    0 -0.00000000000E+00 -0.00000000000E+00 -0.74505805969E-08  0.93827000000E+00  0.93827000000E+00 0.  1.
     999902    2    1    2    0    0  0.74638840110E-03  0.20723480278E-01  0.12370785715E-01  0.10197834460E+01  0.10194975334E+01 0.  0.
     999903    2    3    3    0    0  0.12445552369E+00  0.34965417747E-01  0.44882843032E-02  0.13098149013E+00  0.20597287334E-01 0.  0.
         14    1    1    2    0    0 -0.74638840110E-03 -0.20723480278E-01 -0.12370785715E-01  0.24146553992E-01  0.00000000000E+00 0.  1.
     999901    1    3    3    0    0 -0.12370913529E+00 -0.14241937468E-01  0.78825014122E-02  0.88880195587E+00  0.88000000000E+00 0.  1.
        -11    1    4    4    0    0  0.94898956991E-01  0.17304390526E-01  0.37884460331E-02  0.96539460398E-01  0.51100000000E-03 0. -1.
         11    1    4    4    0    0  0.29556566702E-01  0.17661027221E-01  0.69983827013E-03  0.34442029735E-01  0.51100000000E-03 0.  1.
</event>
<event>
 8    1  0.1120016E+005  0.1043930E+01  0.7957747E-01            NaN
         13   -1    0    0    0    0  0.00000000000E+00  0.00000000000E+00  0.74505805969E-08  0.10566000000E+00  0.10566000000E+00 0.  1.
     999900   -1    0    0    0    0 -0.00000000000E+00 -0.00000000000E+00 -0.74505805969E-08  0.93827000000E+00  0.93827000000E+00 0. -1.
     999902    2    1    2    0    0  0.13273927445E-01 -0.18369162890E-01  0.66037798986E-02  0.10203242125E+01  0.10200511092E+01 0.  0.
     999903    2    3    3    0    0 -0.99471341510E-01  0.60837014609E-01 -0.48579041891E-01  0.12789479901E+00  0.20036620818E-01 0.  0.
         14    1    1    2    0    0 -0.13273927445E-01  0.18369162890E-01 -0.66037798986E-02  0.23605787512E-01  0.00000000000E+00 0. -1.
     999901    1    3    3    0    0  0.11274526895E+00 -0.79206177499E-01  0.55182821789E-01  0.89242941348E+00  0.88000000000E+00 0. -1.
        -11    1    4    4    0    0 -0.12231027762E-01  0.15468103902E-01 -0.11290088184E-01  0.22728561121E-01  0.51100000000E-03 0.  1.
         11    1    4    4    0    0 -0.87240313748E-01  0.45368910706E-01 -0.37288953707E-01  0.10516623789E+00  0.51100000000E-03 0. -1.
</event>
<event>
 8    1  0.1120016E+005  0.1043930E+01  0.7957747E-01            NaN
         13   -1    0    0    0    0  0.00000000000E+00  0.00000000000E+00  0.74505805969E-08  0.10566000000E+00  0.10566000000E+00 0.  1.
     999900   -1    0    0    0    0 -0.00000000000E+00 -0.00000000000E+00 -0.74505805969E-08  0.93827000000E+00  0.93827000000E+00 0. -1.
     999902    2    1    2    0    0  0.83571397388E-03  0.22305853670E-01 -0.80649713871E-03  0.10215939313E+01  0.10213497249E+01 0.  0.
     999903    2    3    3    0    0 -0.42459114987E-01  0.10661813366E+00  0.66679867414E-01  0.13393554424E+00  0.17953340184E-01 0.  0.
         14    1    1    2    0    0 -0.83571397388E-03 -0.22305853670E-01  0.80649713871E-03  0.22336068666E-01  0.00000000000E+00 0.  1.
     999901    1    3    3    0    0  0.43294828961E-01 -0.84312279986E-01 -0.67486364552E-01  0.88765838709E+00  0.88000000000E+00 0. -1.
        -11    1    4    4    0    0 -0.10013264250E-02  0.15798558772E-01  0.13544429700E-01  0.20840101026E-01  0.51100000000E-03 0.  1.
         11    1    4    4    0    0 -0.41457788562E-01  0.90819574884E-01  0.53135437714E-01  0.11309544322E+00  0.51100000000E-03 0. -1.
</event>
<event>
 8    1  0.1120016E+005  0.1043930E+01  0.7957747E-01            NaN
         13   -1    0    0    0    0  0.00000000000E+00  0.00000000000E+00  0.74505805969E-08  0.10566000000E+00  0.10566000000E+00 0. -1.
     999900   -1    0    0    0    0 -0.00000000000E+00 -0.00000000000E+00 -0.74505805969E-08  0.93827000000E+00  0.93827000000E+00 0.  1.
     999902    2    1    2    0    0 -0.15989782653E-01 -0.15693777954E-01  0.71001470192E-02  0.10204272363E+01  0.10201565393E+01 0.  0.
     999903    2    3    3    0    0  0.18952264447E-02  0.17977344708E-01  0.12841262091E+00  0.13128701426E+00  0.20486632230E-01 0.  0.
         14    1    1    2    0    0  0.15989782653E-01  0.15693777954E-01 -0.71001470192E-02  0.23502763741E-01  0.00000000000E+00 0. -1.
     999901    1    3    3    0    0 -0.17885009098E-01 -0.33671122662E-01 -0.12131247389E+00  0.88914022200E+00  0.88000000000E+00 0.  1.
        -11    1    4    4    0    0 -0.15481005042E-02  0.21833613766E-01  0.10987727352E+00  0.11203740296E+00  0.51100000000E-03 0.  1.
         11    1    4    4    0    0  0.34433269489E-02 -0.38562690581E-02  0.18535347385E-01  0.19249611300E-01  0.51100000000E-03 0. -1.
</event>
<event>
 8    1  0.1120016E+005  0.1043930E+01  0.7957747E-01            NaN
         13   -1    0    0    0    0  0.00000000000E+00  0.00000000000E+00  0.74505805969E-08  0.10566000000E+00  0.10566000000E+00 0. -1.
     999900   -1    0    0    0    0 -0.00000000000E+00 -0.00000000000E+00 -0.74505805969E-08  0.93827000000E+00  0.93827000000E+00 0.  1.
     999902    2    1    2    0    0  0.29996688053E-02  0.22913501740E-01 -0.39310362689E-02  0.10204890183E+01  0.10202197591E+01 0.  0.
     999903    2    3    3    0    0 -0.35533306645E-01  0.79530953088E-01 -0.98375189856E-01  0.13278973134E+00  0.19174107292E-01 0.  0.
         14    1    1    2    0    0 -0.29996688053E-02 -0.22913501740E-01  0.39310362689E-02  0.23440981657E-01  0.00000000000E+00 0. -1.
     999901    1    3    3    0    0  0.38532975450E-01 -0.56617451348E-01  0.94444153587E-01  0.88769928700E+00  0.88000000000E+00 0. -1.
        -11    1    4    4    0    0 -0.21690160113E-01  0.66659388553E-01 -0.80835666302E-01  0.10699814576E+00  0.51100000000E-03 0.  1.
         11    1    4    4    0    0 -0.13843146531E-01  0.12871564534E-01 -0.17539523555E-01  0.25791585585E-01  0.51100000000E-03 0. -1.
</event>
<event>
 8    1  0.1120016E+005  0.1043930E+01  0.7957747E-01            NaN
         13   -1    0    0    0    0  0.00000000000E+00  0.00000000000E+00  0.74505805969E-08  0.10566000000E+00  0.10566000000E+00 0.  1.
     999900   -1    0    0    0    0 -0.00000000000E+00 -0.00000000000E+00 -0.74505805969E-08  0.93827000000E+00  0.93827000000E+00 0.  1.
     999902    2    1    2    0    0  0.18440230246E-01 -0.11473302427E-01  0.93062800186E-02  0.10203019318E+01  0.10200283067E+01 0.  0.
     999903    2    3    3    0    0  0.93692522975E-01  0.55980343767E-02  0.92391338466E-01  0.13302662781E+00  0.18716234441E-01 0.  0.
         14    1    1    2    0    0 -0.18440230246E-01  0.11473302427E-01 -0.93062800186E-02  0.23628068222E-01  0.00000000000E+00 0. -1.
     999901    1    3    3    0    0 -0.75252292729E-01 -0.17071336803E-01 -0.83085058447E-01  0.88727530397E+00  0.88000000000E+00 0.  1.
        -11    1    4    4    0    0  0.37068751400E-01  0.63911323828E-02  0.48488657842E-01  0.61370595271E-01  0.51100000000E-03 0.  1.
         11    1    4    4    0    0  0.56623771575E-01 -0.79309800608E-03  0.43902680623E-01  0.71656032536E-01  0.51100000000E-03 0. -1.
</event>
<event>
 8    1  0.1120016E+005  0.1043930E+01  0.7957747E-01            NaN
         13   -1    0    0    0    0  0.00000000000E+00  0.00000000000E+00  0.74505805969E-08  0.10566000000E+00  0.10566000000E+00 0. -1.
     999900   -1    0    0    0    0 -0.00000000000E+00 -0.00000000000E+00 -0.74505805969E-08  0.93827000000E+00  0.93827000000E+00 0.  1.
     999902    2    1    2    0    0 -0.20126506950E-01 -0.10692527534E-01 -0.47185397019E-02  0.10206561726E+01  0.10203907837E+01 0.  0.
     999903    2    3    3    0    0 -0.10139814229E+00 -0.12131302630E-01  0.82345387684E-01  0.13263180564E+00  0.19536663766E-01 0.  0.
         14    1    1    2    0    0  0.20126506950E-01  0.10692527534E-01  0.47185397019E-02  0.23273827447E-01  0.00000000000E+00 0.  1.
     999901    1    3    3    0    0  0.81271635337E-01  0.14387750957E-02 -0.87063927386E-01  0.88802436692E+00  0.88000000000E+00 0.  1.
        -11    1    4    4    0    0 -0.71026411747E-01 -0.42693842331E-02  0.66868340904E-01  0.97645352904E-01  0.51100000000E-03 0. -1.
         11    1    4    4    0    0 -0.30371730540E-01 -0.78619183971E-02  0.15477046779E-01  0.34986452734E-01  0.51100000000E-03 0.  1.
</event>
<event>
 8    1  0.1120016E+005  0.1043930E+01  0.7957747E-01            NaN
         13   -1    0    0    0    0  0.00000000000E+00  0.00000000000E+00  0.74505805969E-08  0.10566000000E+00  0.10566000000E+00 0. -1.
     999900   -1    0    0    0    0 -0.00000000000E+00 -0.00000000000E+00 -0.74505805969E-08  0.93827000000E+00  0.93827000000E+00 0. -1.
     999902    2    1    2    0    0  0.17096039181E-01 -0.78307766148E-02 -0.16578957641E-01  0.10188609463E+01  0.10185524878E+01 0.  0.
     999903    2    3    3    0    0 -0.21623410394E-01  0.23299809917E-01  0.12102050489E+00  0.12678363949E+00  0.20437113803E-01 0.  0.
         14    1    1    2    0    0 -0.17096039181E-01  0.78307766148E-02  0.16578957641E-01  0.25069053722E-01  0.00000000000E+00 0.  1.
     999901    1    3    3    0    0  0.38719449575E-01 -0.31130586531E-01 -0.13759946253E+00  0.89207730679E+00  0.88000000000E+00 0. -1.
        -11    1    4    4    0    0 -0.78816338424E-02  0.70898047681E-02  0.78823503388E-01  0.79534843252E-01  0.51100000000E-03 0. -1.
         11    1    4    4    0    0 -0.13741776551E-01  0.16210005148E-01  0.42197001500E-01  0.47248796241E-01  0.51100000000E-03 0.  1.
</event>
<event>
 8    1  0.1120016E+005  0.1043930E+01  0.7957747E-01            NaN
         13   -1    0    0    0    0  0.00000000000E+00  0.00000000000E+00  0.74505805969E-08  0.10566000000E+00  0.10566000000E+00 0.  1.
     999900   -1    0    0    0    0 -0.00000000000E+00 -0.00000000000E+00 -0.74505805969E-08  0.93827000000E+00  0.93827000000E+00 0. -1.
     999902    2    1    2    0    0  0.12301928002E-01  0.19659210968E-01 -0.68215837866E-02  0.10197565432E+01  0.10194699855E+01 0.  0.
     999903    2    3    3    0    0 -0.65677026850E-01  0.84510914515E-01  0.71845603424E-01  0.13044501893E+00  0.19963609491E-01 0.  0.
         14    1    1    2    0    0 -0.12301928002E-01 -0.19659210968E-01  0.68215837866E-02  0.24173456803E-01  0.00000000000E+00 0.  1.
     999901    1    3    3    0    0  0.77978954852E-01 -0.64851703547E-01 -0.78667187210E-01  0.88931152427E+00  0.88000000000E+00 0. -1.
        -11    1    4    4    0    0 -0.26211449185E-01  0.25554596189E-01  0.34331288958E-01  0.50189401045E-01  0.51100000000E-03 0.  1.
         11    1    4    4    0    0 -0.39465577665E-01  0.58956318326E-01  0.37514314466E-01  0.80255617884E-01  0.51100000000E-03 0. -1.
</event>
<event>
 8    1  0.1120016E+005  0.1043930E+01  0.7957747E-01            NaN
         13   -1    0    0    0    0  0.00000000000E+00  0.00000000000E+00  0.74505805969E-08  0.10566000000E+00  0.10566000000E+00 0. -1.
     999900   -1    0    0    0    0 -0.00000000000E+00 -0.00000000000E+00 -0.74505805969E-08  0.93827000000E+00  0.93827000000E+00 0. -1.
     999902    2    1    2    0    0 -0.13465121764E-01 -0.19000572520E-01  0.53922162582E-02  0.10200258737E+01  0.10197457407E+01 0.  0.
     999903    2    3    3    0    0  0.74846973049E-01 -0.26005223217E-01 -0.10029410976E+00  0.12928590558E+00  0.19431827478E-01 0.  0.
         14    1    1    2    0    0  0.13465121764E-01  0.19000572520E-01 -0.53922162582E-02  0.23904126346E-01  0.00000000000E+00 0. -1.
     999901    1    3    3    0    0 -0.88312094813E-01  0.70046506972E-02  0.10568632602E+00  0.89073996808E+00  0.88000000000E+00 0. -1.
        -11    1    4    4    0    0  0.42097809335E-01 -0.56220394507E-02 -0.59885404777E-01  0.73419041840E-01  0.51100000000E-03 0. -1.
         11    1    4    4    0    0  0.32749163714E-01 -0.20383183766E-01 -0.40408704984E-01  0.55866863738E-01  0.51100000000E-03 0.  1.
</event>
<event>
 8    1  0.1120016E+005  0.1043930E+01  0.7957747E-01            NaN
         13   -1    0    0    0    0  0.00000000000E+00  0.00000000000E+00  0.74505805969E-08  0.10566000000E+00  0.10566000000E+00 0.  1.
     999900   -1    0    0    0    0 -0.00000000000E+00 -0.00000000000E+00 -0.74505805969E-08  0.93827000000E+00  0.93827000000E+00 0. -1.
     999902    2    1    2    0    0 -0.20748609162E-03  0.24127133908E-01  0.19099865744E-02  0.10197264943E+01  0.10194392152E+01 0.  0.
     999903    2    3    3    0    0  0.11478447666E+00 -0.18935379087E-02 -0.57274685172E-01  0.12989333450E+00  0.20318149942E-01 0.  0.
         14    1    1    2    0    0  0.20748609162E-03 -0.24127133908E-01 -0.19099865744E-02  0.24203505733E-01  0.00000000000E+00 0.  1.
     999901    1    3    3    0    0 -0.11499196275E+00  0.26020671816E-01  0.59184671747E-01  0.88983315977E+00  0.88000000000E+00 0. -1.
        -11    1    4    4    0    0  0.73561802446E-01 -0.28465721742E-02 -0.47178142892E-01  0.87438435713E-01  0.51100000000E-03 0. -1.
         11    1    4    4    0    0  0.41222674213E-01  0.95303426543E-03 -0.10096542280E-01  0.42454898782E-01  0.51100000000E-03 0.  1.
</event>
<event>
 8    1  0.1120016E+005  0.1043930E+01  0.7957747E-01            NaN
         13   -1    0    0    0    0  0.00000000000E+00  0.00000000000E+00  0.74505805969E-08  0.10566000000E+00  0.10566000000E+00 0. -1.
     999900   -1    0    0    0    0 -0.00000000000E+00 -0.00000000000E+00 -0.74505805969E-08  0.93827000000E+00  0.93827000000E+00 0.  1.
     999902    2    1    2    0    0  0.13844035241E-01  0.94980950937E-02  0.16439381576E-01  0.10204326727E+01  0.10201621024E+01 0.  0.
     999903    2    3    3    0    0 -0.12520267687E+00  0.23501132610E-01  0.12090164994E-01  0.12939452041E+00  0.19203028261E-01 0.  0.
         14    1    1    2    0    0 -0.13844035241E-01 -0.94980950937E-02 -0.16439381576E-01  0.23497327269E-01  0.00000000000E+00 0.  1.
     999901    1    3    3    0    0  0.13904671211E+00 -0.14003037516E-01  0.43492165824E-02  0.89103815232E+00  0.88000000000E+00 0.  1.
        -11    1    4    4    0    0 -0.43737753023E-01 -0.66665276714E-03  0.66084157562E-02  0.44242148967E-01  0.51100000000E-03 0.  1.
         11    1    4    4    0    0 -0.81464923842E-01  0.24167785377E-01  0.54817492378E-02  0.85152371443E-01  0.51100000000E-03 0. -1.
</event>
<event>
 8    1  0.1120016E+005  0.1043930E+01  0.7957747E-01            NaN
         13   -1    0    0    0    0  0.00000000000E+00  0.00000000000E+00  0.74505805969E-08  0.10566000000E+00  0.10566000000E+00 0.  1.
     999900   -1    0    0    0    0 -0.00000000000E+00 -0.00000000000E+00 -0.74505805969E-08  0.93827000000E+00  0.93827000000E+00 0. -1.
     999902    2    1    2    0    0  0.11184531138E-01 -0.55963423015E-02  0.19989926719E-01  0.10203501367E+01  0.10200776399E+01 0.  0.
     999903    2    3    3    0    0 -0.99225585428E-01 -0.46349375986E-01  0.69218904630E-01  0.13115122988E+00  0.20381532878E-01 0.  0.
         14    1    1    2    0    0 -0.11184531138E-01  0.55963423015E-02 -0.19989926719E-01  0.23579863319E-01  0.00000000000E+00 0. -1.
     999901    1    3    3    0    0  0.11041011657E+00  0.40753033684E-01 -0.49228977911E-01  0.88919890680E+00  0.88000000000E+00 0.  1.
        -11    1    4    4    0    0 -0.11381112715E-01 -0.10249383827E-01  0.36848529971E-02  0.15761308895E-01  0.51100000000E-03 0.  1.
         11    1    4    4    0    0 -0.87844472712E-01 -0.36099992159E-01  0.65534051632E-01  0.11538992098E+00  0.51100000000E-03 0. -1.
</event>
<event>
 8    1  0.1120016E+005  0.1043930E+01  0.7957747E-01            NaN
         13   -1    0    0    0    0  0.00000000000E+00  0.00000000000E+00  0.74505805969E-08  0.10566000000E+00  0.10566000000E+00 0. -1.
     999900   -1    0    0    0    0 -0.00000000000E+00 -0.00000000000E+00 -0.74505805969E-08  0.93827000000E+00  0.93827000000E+00 0. -1.
     999902    2    1    2    0    0 -0.27643336633E-02 -0.32626156673E-02  0.23758250525E-01  0.10197899778E+01  0.10195042218E+01 0.  0.
     999903    2    3    3    0    0 -0.86156113807E-01 -0.34807354200E-01 -0.86540711011E-01  0.12843420127E+00  0.19277487906E-01 0.  0.
         14    1    1    2    0    0  0.27643336633E-02  0.32626156673E-02 -0.23758250525E-01  0.24140022154E-01  0.00000000000E+00 0.  1.
     999901    1    3    3    0    0  0.83391780144E-01  0.31544738532E-01  0.11029896154E+00  0.89135577658E+00  0.88000000000E+00 0.  1.
        -11    1    4    4    0    0 -0.51667035656E-01 -0.19266569668E-01 -0.38357055860E-01  0.67172971763E-01  0.51100000000E-03 0. -1.
         11    1    4    4    0    0 -0.34489078152E-01 -0.15540784531E-01 -0.48183655151E-01  0.61261229504E-01  0.51100000000E-03 0.  1.
</event>
<event>
 8    1  0.1120016E+005  0.1043930E+01  0.7957747E-01            NaN
         13   -1    0    0    0    0  0.00000000000E+00  0.00000000000E+00  0.74505805969E-08  0.10566000000E+00  0.10566000000E+00 0. -1.
     999900   -1    0    0    0    0 -0.00000000000E+00 -0.00000000000E+00 -0.74505805969E-08  0.93827000000E+00  0.93827000000E+00 0. -1.
     999902    2    1    2    0    0  0.11572414491E-01  0.18691356784E-02 -0.17298401263E-01  0.10230338489E+01  0.10228204177E+01 0.  0.
     999903    2    3    3    0    0  0.23019714523E-01  0.12615479011E+00  0.29217674875E-01  0.13301041665E+00  0.19828264900E-01 0.  0.
         14    1    1    2    0    0 -0.11572414491E-01 -0.18691356784E-02  0.17298401263E-01  0.20896151119E-01  0.00000000000E+00 0.  1.
     999901    1    3    3    0    0 -0.11447300032E-01 -0.12428565443E+00 -0.46516076138E-01  0.89002343223E+00  0.88000000000E+00 0. -1.
        -11    1    4    4    0    0  0.38609799010E-03  0.54009830957E-01  0.91963936595E-02  0.54790927068E-01  0.51100000000E-03 0. -1.
         11    1    4    4    0    0  0.22633616532E-01  0.72144959153E-01  0.20021281215E-01  0.78219489585E-01  0.51100000000E-03 0.  1.
</event>
<event>
 8    1  0.1120016E+005  0.1043930E+01  0.7957747E-01            NaN
         13   -1    0    0    0    0  0.00000000000E+00  0.00000000000E+00  0.74505805969E-08  0.10566000000E+00  0.10566000000E+00 0. -1.
     999900   -1    0    0    0    0 -0.00000000000E+00 -0.00000000000E+00 -0.74505805969E-08  0.93827000000E+00  0.93827000000E+00 0.  1.
     999902    2    1    2    0    0  0.95114068701E-02  0.13829022544E-01 -0.15978655326E-01  0.10207561753E+01  0.10204930883E+01 0.  0.
     999903    2    3    3    0    0  0.30841855277E-01 -0.93403304086E-01  0.80882282801E-01  0.12871592888E+00  0.18720294464E-01 0.  0.
         14    1    1    2    0    0 -0.95114068701E-02 -0.13829022544E-01  0.15978655326E-01  0.23173824699E-01  0.00000000000E+00 0.  1.
     999901    1    3    3    0    0 -0.21330448407E-01  0.10723232663E+00 -0.96860938127E-01  0.89204024642E+00  0.88000000000E+00 0. -1.
        -11    1    4    4    0    0  0.12215745840E-01 -0.54301080878E-01  0.35702412952E-01  0.66126811828E-01  0.51100000000E-03 0. -1.
         11    1    4    4    0    0  0.18626109437E-01 -0.39102223208E-01  0.45179869849E-01  0.62589117050E-01  0.51100000000E-03 0.  1.
</event>
<event>
 8    1  0.1120016E+005  0.1043930E+01  0.7957747E-01            NaN
         13   -1    0    0    0    0  0.00000000000E+00  0.00000000000E+00  0.74505805969E-08  0.10566000000E+00  0.10566000000E+00 0.  1.
     999900   -1    0    0    0    0 -0.00000000000E+00 -0.00000000000E+00 -0.74505805969E-08  0.93827000000E+00  0.93827000000E+00 0. -1.
     999902    2    1    2    0    0  0.20426184408E-01  0.91419789239E-02 -0.72074837088E-02  0.10204193086E+01  0.10201484268E+01 0.  0.
     999903    2    3    3    0    0 -0.10148661427E+00  0.71578843722E-01 -0.31189370670E-01  0.12950055616E+00  0.19353383637E-01 0.  0.
         14    1    1    2    0    0 -0.20426184408E-01 -0.91419789239E-02  0.72074837088E-02  0.23510691388E-01  0.00000000000E+00 0.  1.
     999901    1    3    3    0    0  0.12191279868E+00 -0.62436864798E-01  0.23981886962E-01  0.89091875245E+00  0.88000000000E+00 0.  1.
        -11    1    4    4    0    0 -0.24013610873E-01  0.15260437531E-01 -0.15619842515E-01  0.32461901700E-01  0.51100000000E-03 0. -1.
         11    1    4    4    0    0 -0.77473003399E-01  0.56318406191E-01 -0.15569528155E-01  0.97038654461E-01  0.51100000000E-03 0.  1.
</event>
<event>
 8    1  0.1120016E+005  0.1043930E+01  0.7957747E-01            NaN
         13   -1    0    0    0    0  0.00000000000E+00  0.00000000000E+00  0.74505805969E-08  0.10566000000E+00  0.10566000000E+00 0. -1.
     999900   -1    0    0    0    0 -0.00000000000E+00 -0.00000000000E+00 -0.74505805969E-08  0.93827000000E+00  0.93827000000E+00 0.  1.
     999902    2    1    2    0    0 -0.20933067986E-01 -0.95590848434E-02 -0.25839088120E-02  0.10207730135E+01  0.10205103131E+01 0.  0.
     999903    2    3    3    0    0 -0.50655001617E-01  0.47536573814E-01  0.10963049555E+00  0.13131509988E+00  0.19978860421E-01 0.  0.
         14    1    1    2    0    0  0.20933067986E-01  0.95590848434E-02  0.25839088120E-02  0.23156986486E-01  0.00000000000E+00 0. -1.
     999901    1    3    3    0    0  0.29721933631E-01 -0.57095658657E-01 -0.11221440436E+00  0.88945791363E+00  0.88000000000E+00 0.  1.
        -11    1    4    4    0    0 -0.25075125137E-01  0.11620728201E-01  0.50260960858E-01  0.57360513700E-01  0.51100000000E-03 0. -1.
         11    1    4    4    0    0 -0.25579876480E-01  0.35915845613E-01  0.59369534691E-01  0.73954586182E-01  0.51100000000E-03 0.  1.
</event>
<event>
 8    1  0.1120016E+005  0.1043930E+01  0.7957747E-01            NaN
         13   -1    0    0    0    0  0.00000000000E+00  0.00000000000E+00  0.74505805969E-08  0.10566000000E+00  0.10566000000E+00 0.  1.
     999900   -1    0    0    0    0 -0.00000000000E+00 -0.00000000000E+00 -0.74505805969E-08  0.93827000000E+00  0.93827000000E+00 0. -1.
     999902    2    1    2    0    0 -0.15413543632E-01  0.12342902107E-01  0.12299485481E-01  0.10206662535E+01  0.10204010971E+01 0.  0.
     999903    2    3    3    0    0 -0.89189559455E-01  0.89119752677E-01 -0.36962540169E-01  0.13288005597E+00  0.19843690827E-01 0.  0.
         14    1    1    2    0    0  0.15413543632E-01 -0.12342902107E-01 -0.12299485481E-01  0.23263746534E-01  0.00000000000E+00 0. -1.
     999901    1    3    3    0    0  0.73776015823E-01 -0.76776850570E-01  0.49262025650E-01  0.88778619750E+00  0.88000000000E+00 0.  1.
        -11    1    4    4    0    0 -0.69990432941E-01  0.63366874893E-01 -0.35000651155E-01  0.10069423141E+00  0.51100000000E-03 0.  1.
         11    1    4    4    0    0 -0.19199126514E-01  0.25752877784E-01 -0.19618890142E-02  0.32185824559E-01  0.51100000000E-03 0. -1.
</event>
<event>
 8    1  0.1120016E+005  0.1043930E+01  0.7957747E-01            NaN
         13   -1    0    0    0    0  0.00000000000E+00  0.00000000000E+00  0.74505805969E-08  0.10566000000E+00  0.10566000000E+00 0. -1.
     999900   -1    0    0    0    0 -0.00000000000E+00 -0.00000000000E+00 -0.74505805969E-08  0.93827000000E+00  0.93827000000E+00 0. -1.
     999902    2    1    2    0    0 -0.60364369702E-03 -0.21766477204E-01 -0.43787940352E-02  0.10217192424E+01  0.10214777984E+01 0.  0.
     999903    2    3    3    0    0  0.90019077482E-01 -0.50862093902E-01  0.80335657355E-01  0.13254233606E+00  0.20573431885E-01 0.  0.
         14    1    1    2    0    0  0.60364369702E-03  0.21766477204E-01  0.43787940352E-02  0.22210757591E-01  0.00000000000E+00 0.  1.
     999901    1    3    3    0    0 -0.90622721179E-01  0.29095616699E-01 -0.84714451390E-01  0.88917690635E+00  0.88000000000E+00 0. -1.
        -11    1    4    4    0    0  0.68296617448E-01 -0.40939421724E-01  0.50375780642E-01  0.94225498684E-01  0.51100000000E-03 0. -1.
         11    1    4    4    0    0  0.21722460034E-01 -0.99226721783E-02  0.29959876713E-01  0.38316837379E-01  0.51100000000E-03 0.  1.
</event>
<event>
 8    1  0.1120016E+005  0.1043930E+01  0.7957747E-01            NaN
         13   -1    0    0    0    0  0.00000000000E+00  0.00000000000E+00  0.74505805969E-08  0.10566000000E+00  0.10566000000E+00 0.  1.
     999900   -1    0    0    0    0 -0.00000000000E+00 -0.00000000000E+00 -0.74505805969E-08  0.93827000000E+00  0.93827000000E+00 0. -1.
     999902    2    1    2    0    0  0.16215522944E-01  0.11220775420E-01  0.12609392729E-01  0.10205238946E+01  0.10202554453E+01 0.  0.
     999903    2    3    3    0    0  0.10644479953E+00 -0.62439358249E-01  0.42944711943E-01  0.13233057710E+00  0.20927602519E-01 0.  0.
         14    1    1    2    0    0 -0.16215522944E-01 -0.11220775420E-01 -0.12609392729E-01  0.23406105408E-01  0.00000000000E+00 0. -1.
     999901    1    3    3    0    0 -0.90229276581E-01  0.73660133669E-01 -0.30335319213E-01  0.88819331749E+00  0.88000000000E+00 0.  1.
        -11    1    4    4    0    0  0.62408677244E-01 -0.25102180504E-01  0.26462295798E-01  0.72287458673E-01  0.51100000000E-03 0. -1.
         11    1    4    4    0    0  0.44036122282E-01 -0.37337177745E-01  0.16482416145E-01  0.60043118427E-01  0.51100000000E-03 0.  1.
</event>
<event>
 8    1  0.1120016E+005  0.1043930E+01  0.7957747E-01            NaN
         13   -1    0    0    0    0  0.00000000000E+00  0.00000000000E+00  0.74505805969E-08  0.10566000000E+00  0.10566000000E+00 0. -1.
     999900   -1    0    0    0    0 -0.00000000000E+00 -0.00000000000E+00 -0.74505805969E-08  0.93827000000E+00  0.93827000000E+00 0. -1.
     999902    2    1    2    0    0 -0.14452771231E-01 -0.18161868708E-01 -0.33259554403E-02  0.10204822272E+01  0.10202128101E+01 0.  0.
     999903    2    3    3    0    0 -0.28845635581E-01  0.23432734637E-01 -0.12453951775E+00  0.13108355769E+00  0.17077583918E-01 0.  0.
         14    1    1    2    0    0  0.14452771231E-01  0.18161868708E-01  0.33259554403E-02  0.23447772833E-01  0.00000000000E+00 0. -1.
     999901    1    3    3    0    0  0.14392864349E-01 -0.41594603345E-01  0.12121356231E+00  0.88939866947E+00  0.88000000000E+00 0.  1.
        -11    1    4    4    0    0 -0.23279531963E-01  0.25699145515E-01 -0.10118823976E+00  0.10696589959E+00  0.51100000000E-03 0. -1.
         11    1    4    4    0    0 -0.55661036181E-02 -0.22664108779E-02 -0.23351277986E-01  0.24117658102E-01  0.51100000000E-03 0.  1.
</event>
<event>
 8    1  0.1120016E+005  0.1043930E+01  0.7957747E-01            NaN
         13   -1    0    0    0    0  0.00000000000E+00  0.00000000000E+00  0.74505805969E-08  0.10566000000E+00  0.10566000000E+00 0. -1.
     999900   -1    0    0    0    0 -0.00000000000E+00 -0.00000000000E+00 -0.74505805969E-08  0.93827000000E+00  0.93827000000E+00 0. -1.
     999902    2    1    2    0    0  0.16470533500E-02 -0.10776620152E-01  0.14078128814E-01  0.10261243257E+01  0.10259698289E+01 0.  0.
     999903    2    3    3    0    0  0.94755130028E-01  0.70257905374E-01  0.64811543506E-01  0.13606276173E+00  0.19945701917E-01 0.  0.
         14    1    1    2    0    0 -0.16470533500E-02  0.10776620152E-01 -0.14078128814E-01  0.17805674307E-01  0.00000000000E+00 0.  1.
     999901    1    3    3    0    0 -0.93108076678E-01 -0.81034525526E-01 -0.50733414692E-01  0.89006156396E+00  0.88000000000E+00 0.  1.
        -11    1    4    4    0    0  0.17924067058E-01  0.19239269175E-01  0.22414732168E-01  0.34555795425E-01  0.51100000000E-03 0.  1.
         11    1    4    4    0    0  0.76831062970E-01  0.51018636200E-01  0.42396811338E-01  0.10150696631E+00  0.51100000000E-03 0. -1.
</event>
<event>
 8    1  0.1120016E+005  0.1043930E+01  0.7957747E-01            NaN
         13   -1    0    0    0    0  0.00000000000E+00  0.00000000000E+00  0.74505805969E-08  0.10566000000E+00  0.10566000000E+00 0.  1.
     999900   -1    0    0    0    0 -0.00000000000E+00 -0.00000000000E+00 -0.74505805969E-08  0.93827000000E+00  0.93827000000E+00 0.  1.
     999902    2    1    2    0    0 -0.13558609241E-02  0.23028449910E-02 -0.23408856845E-01  0.10203690995E+01  0.10200970460E+01 0.  0.
     999903    2    3    3    0    0 -0.76076837348E-02 -0.42411602259E-01  0.11891109276E+00  0.12779224838E+00  0.18286331158E-01 0.  0.
         14    1    1    2    0    0  0.13558609241E-02 -0.23028449910E-02  0.23408856845E-01  0.23560900507E-01  0.00000000000E+00 0.  1.
     999901    1    3    3    0    0  0.62518228107E-02  0.44714447250E-01 -0.14231994961E+00  0.89257685111E+00  0.88000000000E+00 0.  1.
        -11    1    4    4    0    0 -0.91067681229E-02 -0.34525405918E-01  0.73989849242E-01  0.82156532250E-01  0.51100000000E-03 0.  1.
         11    1    4    4    0    0  0.14990843881E-02 -0.78861963414E-02  0.44921243519E-01  0.45635716133E-01  0.51100000000E-03 0. -1.
</event>
<event>
 8    1  0.1120016E+005  0.1043930E+01  0.7957747E-01            NaN
         13   -1    0    0    0    0  0.00000000000E+00  0.00000000000E+00  0.74505805969E-08  0.10566000000E+00  0.10566000000E+00 0.  1.
     999900   -1    0    0    0    0 -0.00000000000E+00 -0.00000000000E+00 -0.74505805969E-08  0.93827000000E+00  0.93827000000E+00 0. -1.
     999902    2    1    2    0    0  0.20390843901E-01 -0.44589368833E-02  0.95007470612E-02  0.10209967746E+01  0.10207391836E+01 0.  0.
     999903    2    3    3    0    0 -0.26351889983E-01 -0.86669141517E-01  0.93814167986E-01  0.13192301282E+00  0.19915345828E-01 0.  0.
         14    1    1    2    0    0 -0.20390843901E-01  0.44589368833E-02 -0.95007470612E-02  0.22933225413E-01  0.00000000000E+00 0. -1.
     999901    1    3    3    0    0  0.46742733884E-01  0.82210204633E-01 -0.84313420925E-01  0.88907376177E+00  0.88000000000E+00 0. -1.
        -11    1    4    4    0    0 -0.49834670858E-02 -0.16662969860E-01  0.30633078593E-01  0.35229762046E-01  0.51100000000E-03 0. -1.
         11    1    4    4    0    0 -0.21368422897E-01 -0.70006171657E-01  0.63181089393E-01  0.96693250773E-01  0.51100000000E-03 0.  1.
</event>
<event>
 8    1  0.1120016E+005  0.1043930E+01  0.7957747E-01            NaN
         13   -1    0    0    0    0  0.00000000000E+00  0.00000000000E+00  0.74505805969E-08  0.10566000000E+00  0.10566000000E+00 0. -1.
     999900   -1    0    0    0    0 -0.00000000000E+00 -0.00000000000E+00 -0.74505805969E-08  0.93827000000E+00  0.93827000000E+00 0.  1.
     999902    2    1    2    0    0 -0.25892114806E-03 -0.17488928418E-01  0.16085814388E-01  0.10201669387E+01  0.10198901410E+01 0.  0.
     999903    2    3    3    0    0 -0.35757392489E-02  0.40389888981E-01  0.12375570974E+00  0.13171110686E+00  0.19703069147E-01 0.  0.
         14    1    1    2    0    0  0.25892114806E-03  0.17488928418E-01 -0.16085814388E-01  0.23763061290E-01  0.00000000000E+00 0.  1.
     999901    1    3    3    0    0  0.33168181008E-02 -0.57878817399E-01 -0.10766989535E+00  0.88845583185E+00  0.88000000000E+00 0.  1.
        -11    1    4    4    0    0  0.44407104562E-02  0.13517722817E-01  0.22362196158E-01  0.26509954309E-01  0.51100000000E-03 0. -1.
         11    1    4    4    0    0 -0.80164497051E-02  0.26872166165E-01  0.10139351358E+00  0.10520115255E+00  0.51100000000E-03 0.  1.
</event>
<event>
 8    1  0.1120016E+005  0.1043930E+01  0.7957747E-01            NaN
         13   -1    0    0    0    0  0.00000000000E+00  0.00000000000E+00  0.74505805969E-08  0.10566000000E+00  0.10566000000E+00 0.  1.
     999900   -1    0    0    0    0 -0.00000000000E+00 -0.00000000000E+00 -0.74505805969E-08  0.93827000000E+00  0.93827000000E+00 0. -1.
     999902    2    1    2    0    0  0.95282801567E-02 -0.16587735914E-02 -0.13076089793E-01  0.10276658131E+01  0.10275371037E+01 0.  0.
     999903    2    3    3    0    0 -0.76903928685E-02  0.71800881110E-02  0.13344379561E+00  0.13534149702E+00  0.19984454447E-01 0.  0.
         14    1    1    2    0    0 -0.95282801567E-02  0.16587735914E-02  0.13076089793E-01  0.16264186941E-01  0.00000000000E+00 0.  1.
     999901    1    3    3    0    0  0.17218673025E-01 -0.88388617024E-02 -0.14651988541E+00  0.89232431604E+00  0.88000000000E+00 0. -1.
        -11    1    4    4    0    0 -0.52481253528E-02  0.11053107402E-01  0.41171375520E-01  0.42954130025E-01  0.51100000000E-03 0.  1.
         11    1    4    4    0    0 -0.24422675157E-02 -0.38730192907E-02  0.92272420094E-01  0.92387366994E-01  0.51100000000E-03 0. -1.
</event>
<event>
 8    1  0.1282743E+005  0.1043930E+01  0.7957747E-01            NaN
         13   -1    0    0    0    0  0.00000000000E+00  0.00000000000E+00  0.74505805969E-08  0.10566000000E+00  0.10566000000E+00 0. -1.
     999900   -1    0    0    0    0 -0.00000000000E+00 -0.00000000000E+00 -0.74505805969E-08  0.93827000000E+00  0.93827000000E+00 0.  1.
     999902    2    1    2    0    0  0.12844565448E-01 -0.14051514694E-01 -0.10736888760E-01  0.10220734516E+01  0.10218397290E+01 0.  0.
     999903    2    3    3    0    0 -0.28484543113E-01  0.12130876539E+00  0.32403491272E-01  0.12972173115E+00  0.15828945961E-01 0.  0.
         14    1    1    2    0    0 -0.12844565448E-01  0.14051514694E-01  0.10736888760E-01  0.21856548377E-01  0.00000000000E+00 0. -1.
     999901    1    3    3    0    0  0.41329108561E-01 -0.13536028008E+00 -0.43140380032E-01  0.89235172047E+00  0.88000000000E+00 0.  1.
        -11    1    4    4    0    0 -0.14168987510E-01  0.30122741665E-01  0.77829414260E-02  0.34190277430E-01  0.51100000000E-03 0.  1.
         11    1    4    4    0    0 -0.14315555603E-01  0.91186023723E-01  0.24620549846E-01  0.95531453722E-01  0.51100000000E-03 0. -1.
</event>
<event>
 8    1  0.1120016E+005  0.1043930E+01  0.7957747E-01            NaN
         13   -1    0    0    0    0  0.00000000000E+00  0.00000000000E+00  0.74505805969E-08  0.10566000000E+00  0.10566000000E+00 0. -1.
     999900   -1    0    0    0    0 -0.00000000000E+00 -0.00000000000E+00 -0.74505805969E-08  0.93827000000E+00  0.93827000000E+00 0. -1.
     999902    2    1    2    0    0 -0.12956934293E-01 -0.18369178103E-01  0.62913548882E-02  0.10205871211E+01  0.10203201369E+01 0.  0.
     999903    2    3    3    0    0  0.12587409540E-01 -0.11497907210E+00 -0.61507337951E-01  0.13234016899E+00  0.18765335267E-01 0.  0.
         14    1    1    2    0    0  0.12956934293E-01  0.18369178103E-01 -0.62913548882E-02  0.23342878931E-01  0.00000000000E+00 0.  1.
     999901    1    3    3    0    0 -0.25544343832E-01  0.96609893997E-01  0.67798692839E-01  0.88824695208E+00  0.88000000000E+00 0.  1.
        -11    1    4    4    0    0 -0.14076682547E-02 -0.17379300320E-01 -0.16288650731E-01  0.23866354417E-01  0.51100000000E-03 0. -1.
         11    1    4    4    0    0  0.13995077794E-01 -0.97599771780E-01 -0.45218687220E-01  0.10847381458E+00  0.51100000000E-03 0.  1.
</event>
<event>
 8    1  0.1120016E+005  0.1043930E+01  0.7957747E-01            NaN
         13   -1    0    0    0    0  0.00000000000E+00  0.00000000000E+00  0.74505805969E-08  0.10566000000E+00  0.10566000000E+00 0.  1.
     999900   -1    0    0    0    0 -0.00000000000E+00 -0.00000000000E+00 -0.74505805969E-08  0.93827000000E+00  0.93827000000E+00 0. -1.
     999902    2    1    2    0    0  0.69069403074E-02 -0.15270545225E-01 -0.18966074793E-01  0.10186197774E+01  0.10183052801E+01 0.  0.
     999903    2    3    3    0    0 -0.17326313821E-01  0.11421436897E+00 -0.51590418130E-01  0.12821653088E+00  0.20803468894E-01 0.  0.
         14    1    1    2    0    0 -0.69069403074E-02  0.15270545225E-01  0.18966074793E-01  0.25310222617E-01  0.00000000000E+00 0.  1.
     999901    1    3    3    0    0  0.24233254129E-01 -0.12948491419E+00  0.32624343338E-01  0.89040324651E+00  0.88000000000E+00 0.  1.
        -11    1    4    4    0    0 -0.86570047832E-02  0.42681391922E-01 -0.88733376470E-02  0.44448196703E-01  0.51100000000E-03 0. -1.
         11    1    4    4    0    0 -0.86693090382E-02  0.71532977046E-01 -0.42717080483E-01  0.83768334174E-01  0.51100000000E-03 0.  1.
</event>
<event>
 8    1  0.1120016E+005  0.1043930E+01  0.7957747E-01            NaN
         13   -1    0    0    0    0  0.00000000000E+00  0.00000000000E+00  0.74505805969E-08  0.10566000000E+00  0.10566000000E+00 0.  1.
     999900   -1    0    0    0    0 -0.00000000000E+00 -0.00000000000E+00 -0.74505805969E-08  0.93827000000E+00  0.93827000000E+00 0.  1.
     999902    2    1    2    0    0 -0.24079687747E-01 -0.12196109849E-03 -0.56724626845E-02  0.10191909000E+01  0.10188906063E+01 0.  0.
     999903    2    3    3    0    0 -0.61405909097E-01 -0.11399555405E+00 -0.37092262494E-02  0.13106686796E+00  0.19977324715E-01 0.  0.
         14    1    1    2    0    0  0.24079687747E-01  0.12196109849E-03  0.56724626845E-02  0.24739100012E-01  0.00000000000E+00 0. -1.
     999901    1    3    3    0    0  0.37326221350E-01  0.11387359295E+00 -0.19632364352E-02  0.88812403203E+00  0.88000000000E+00 0.  1.
        -11    1    4    4    0    0 -0.57359553067E-01 -0.90492017060E-01 -0.21801632430E-02  0.10716313598E+00  0.51100000000E-03 0.  1.
         11    1    4    4    0    0 -0.40463560303E-02 -0.23503536986E-01 -0.15290630064E-02  0.23903731982E-01  0.51100000000E-03 0. -1.
</event>
<event>
 8    1  0.1120016E+005  0.1043930E+01  0.7957747E-01            NaN
         13   -1    0    0    0    0  0.00000000000E+00  0.00000000000E+00  0.74505805969E-08  0.10566000000E+00  0.10566000000E+00 0. -1.
     999900   -1    0    0    0    0 -0.00000000000E+00 -0.00000000000E+00 -0.74505805969E-08  0.93827000000E+00  0.93827000000E+00 0.  1.
     999902    2    1    2    0    0  0.14170567415E-01 -0.17597093973E-01 -0.67420003936E-02  0.10203521022E+01  0.10200796514E+01 0.  0.
     999903    2    3    3    0    0  0.10017272479E+00 -0.63186762947E-01 -0.58112507690E-01  0.13349601575E+00  0.20420109385E-01 0.  0.
         14    1    1    2    0    0 -0.14170567415E-01  0.17597093973E-01  0.67420003936E-02  0.23577897838E-01  0.00000000000E+00 0. -1.
     999901    1    3    3    0    0 -0.86002157374E-01  0.45589668973E-01  0.51370507296E-01  0.88685608641E+00  0.88000000000E+00 0.  1.
        -11    1    4    4    0    0  0.35559017152E-01 -0.12125388239E-01 -0.22285488994E-01  0.43684927394E-01  0.51100000000E-03 0. -1.
         11    1    4    4    0    0  0.64613707637E-01 -0.51061374708E-01 -0.35827018696E-01  0.89811088353E-01  0.51100000000E-03 0.  1.
</event>
<event>
 8    1  0.1120016E+005  0.1043930E+01  0.7957747E-01            NaN
         13   -1    0    0    0    0  0.00000000000E+00  0.00000000000E+00  0.74505805969E-08  0.10566000000E+00  0.10566000000E+00 0. -1.
     999900   -1    0    0    0    0 -0.00000000000E+00 -0.00000000000E+00 -0.74505805969E-08  0.93827000000E+00  0.93827000000E+00 0. -1.
     999902    2    1    2    0    0  0.28558142970E-02  0.60628176740E-02 -0.21879628415E-01  0.10210470025E+01  0.10207905514E+01 0.  0.
     999903    2    3    3    0    0 -0.12942161134E+00 -0.47764464806E-02 -0.29142765858E-02  0.13089280715E+00  0.18752760695E-01 0.  0.
         14    1    1    2    0    0 -0.28558142970E-02 -0.60628176740E-02  0.21879628415E-01  0.22882997466E-01  0.00000000000E+00 0. -1.
     999901    1    3    3    0    0  0.13227742564E+00  0.10839264155E-01 -0.18965351829E-01  0.89015419538E+00  0.88000000000E+00 0.  1.
        -11    1    4    4    0    0 -0.88841797857E-01  0.10770289212E-02 -0.95303791534E-02  0.89359466681E-01  0.51100000000E-03 0.  1.
         11    1    4    4    0    0 -0.40579813485E-01 -0.58534754017E-02  0.66161025676E-02  0.41533340474E-01  0.51100000000E-03 0. -1.
</event>
<event>
 8    1  0.1120016E+005  0.1043930E+01  0.7957747E-01            NaN
         13   -1    0    0    0    0  0.00000000000E+00  0.00000000000E+00  0.74505805969E-08  0.10566000000E+00  0.10566000000E+00 0. -1.
     999900   -1    0    0    0    0 -0.00000000000E+00 -0.00000000000E+00 -0.74505805969E-08  0.93827000000E+00  0.93827000000E+00 0. -1.
     999902    2    1    2    0    0  0.65302021226E-02 -0.75151518691E-02 -0.21833695006E-01  0.10199335152E+01  0.10196511874E+01 0.  0.
     999903    2    3    3    0    0 -0.24212066458E-01 -0.94887766273E-04 -0.12896866083E+00  0.13287204699E+00  0.20876595271E-01 0.  0.
         14    1    1    2    0    0 -0.65302021226E-02  0.75151518691E-02  0.21833695006E-01  0.23996484846E-01  0.00000000000E+00 0. -1.
     999901    1    3    3    0    0  0.30742268581E-01 -0.74202641028E-02  0.10713496582E+00  0.88706146816E+00  0.88000000000E+00 0.  1.
        -11    1    4    4    0    0 -0.62330209663E-02  0.46677051624E-02 -0.11247694693E-01  0.13689769127E-01  0.51100000000E-03 0. -1.
         11    1    4    4    0    0 -0.17979045492E-01 -0.47625929287E-02 -0.11772096613E+00  0.11918227786E+00  0.51100000000E-03 0.  1.
</event>
<event>
 8    1  0.1120016E+005  0.1043930E+01  0.7957747E-01            NaN
         13   -1    0    0    0    0  0.00000000000E+00  0.00000000000E+00  0.74505805969E-08  0.10566000000E+00  0.10566000000E+00 0.  1.
     999900   -1    0    0    0    0 -0.00000000000E+00 -0.00000000000E+00 -0.74505805969E-08  0.93827000000E+00  0.93827000000E+00 0.  1.
     999902    2    1    2    0    0  0.12981805213E-01  0.14554784181E-01  0.14090925689E-01  0.10198691772E+01  0.10195853154E+01 0.  0.
     999903    2    3    3    0    0 -0.50470028288E-01  0.57241888885E-01 -0.10119900053E+00  0.12906050456E+00  0.24321153998E-01 0.  0.
         14    1    1    2    0    0 -0.12981805213E-01 -0.14554784181E-01 -0.14090925689E-01  0.24060822844E-01  0.00000000000E+00 0. -1.
     999901    1    3    3    0    0  0.63451833500E-01 -0.42687104704E-01  0.11528992622E+00  0.89080867259E+00  0.88000000000E+00 0.  1.
        -11    1    4    4    0    0 -0.73646595857E-03  0.62122386298E-02 -0.20325649698E-01  0.21272692532E-01  0.51100000000E-03 0.  1.
         11    1    4    4    0    0 -0.49733562329E-01  0.51029650255E-01 -0.80873350828E-01  0.10778781203E+00  0.51100000000E-03 0. -1.
</event>
<event>
 8    1  0.1120016E+005  0.1043930E+01  0.7957747E-01            NaN
         13   -1    0    0    0    0  0.00000000000E+00  0.00000000000E+00  0.74505805969E-08  0.10566000000E+00  0.10566000000E+00 0.  1.
     999900   -1    0    0    0    0 -0.00000000000E+00 -0.00000000000E+00 -0.74505805969E-08  0.93827000000E+00  0.93827000000E+00 0.  1.
     999902    2    1    2    0    0  0.11991768881E-01  0.84499015891E-02  0.16879890768E-01  0.10215663225E+01  0.10213215053E+01 0.  0.
     999903    2    3    3    0    0 -0.23368136815E-01 -0.12592795643E+00  0.16720484770E-01  0.13066354609E+00  0.19734934452E-01 0.  0.
         14    1    1    2    0    0 -0.11991768881E-01 -0.84499015891E-02 -0.16879890768E-01  0.22363677473E-01  0.00000000000E+00 0. -1.
     999901    1    3    3    0    0  0.35359905696E-01  0.13437785801E+00  0.15940599780E-03  0.89090277644E+00  0.88000000000E+00 0. -1.
        -11    1    4    4    0    0 -0.10343319233E-01 -0.37958749626E-01 -0.33785917383E-02  0.39490846142E-01  0.51100000000E-03 0. -1.
         11    1    4    4    0    0 -0.13024817582E-01 -0.87969206800E-01  0.20099076509E-01  0.91172699947E-01  0.51100000000E-03 0.  1.
</event>
<event>
 8    1  0.1120016E+005  0.1043930E+01  0.7957747E-01            NaN
         13   -1    0    0    0    0  0.00000000000E+00  0.00000000000E+00  0.74505805969E-08  0.10566000000E+00  0.10566000000E+00 0.  1.
     999900   -1    0    0    0    0 -0.00000000000E+00 -0.00000000000E+00 -0.74505805969E-08  0.93827000000E+00  0.93827000000E+00 0. -1.
     999902    2    1    2    0    0 -0.52037124462E-02  0.17651845525E-01  0.15570793282E-01  0.10198236548E+01  0.10195387050E+01 0.  0.
     999903    2    3    3    0    0  0.14033531946E-01 -0.96940563109E-01  0.83319375236E-01  0.12960381567E+00  0.16143666000E-01 0.  0.
         14    1    1    2    0    0  0.52037124462E-02 -0.17651845525E-01 -0.15570793282E-01  0.24106345163E-01  0.00000000000E+00 0. -1.
     999901    1    3    3    0    0 -0.19237244392E-01  0.11459240863E+00 -0.67748581954E-01  0.89021983917E+00  0.88000000000E+00 0.  1.
        -11    1    4    4    0    0  0.49662834912E-02 -0.59310910904E-01  0.41145725962E-01  0.72357998936E-01  0.51100000000E-03 0. -1.
         11    1    4    4    0    0  0.90672484550E-02 -0.37629652204E-01  0.42173649274E-01  0.57245816735E-01  0.51100000000E-03 0.  1.
</event>
<event>
 8    1  0.1120016E+005  0.1043930E+01  0.7957747E-01            NaN
         13   -1    0    0    0    0  0.00000000000E+00  0.00000000000E+00  0.74505805969E-08  0.10566000000E+00  0.10566000000E+00 0.  1.
     999900   -1    0    0    0    0 -0.00000000000E+00 -0.00000000000E+00 -0.74505805969E-08  0.93827000000E+00  0.93827000000E+00 0. -1.
     999902    2    1    2    0    0  0.13016426439E-01 -0.15662752979E-01  0.10764324747E-01  0.10208948122E+01  0.10206348994E+01 0.  0.
     999903    2    3    3    0    0 -0.10605625185E+00  0.33582150776E-01  0.64054363205E-01  0.12991602940E+00  0.19988092506E-01 0.  0.
         14    1    1    2    0    0 -0.13016426439E-01  0.15662752979E-01 -0.10764324747E-01  0.23035187766E-01  0.00000000000E+00 0. -1.
     999901    1    3    3    0    0  0.11907267829E+00 -0.49244903756E-01 -0.53290038458E-01  0.89097878283E+00  0.88000000000E+00 0. -1.
        -11    1    4    4    0    0 -0.31455771648E-01  0.19834941647E-02  0.12648472909E-01  0.33965347150E-01  0.51100000000E-03 0. -1.
         11    1    4    4    0    0 -0.74600480203E-01  0.31598656611E-01  0.51405890296E-01  0.95950682250E-01  0.51100000000E-03 0.  1.
</event>
<event>
 8    1  0.1120016E+005  0.1043930E+01  0.7957747E-01            NaN
         13   -1    0    0    0    0  0.00000000000E+00  0.00000000000E+00  0.74505805969E-08  0.10566000000E+00  0.10566000000E+00 0.  1.
     999900   -1    0    0    0    0 -0.00000000000E+00 -0.00000000000E+00 -0.74505805969E-08  0.93827000000E+00  0.93827000000E+00 0.  1.
     999902    2    1    2    0    0 -0.64552037614E-02  0.25412429132E-03  0.22491728751E-01  0.10205288868E+01  0.10202605534E+01 0.  0.
     999903    2    3    3    0    0 -0.30801810810E-02 -0.12918970224E+00  0.16731008496E-02  0.13080954330E+00  0.20220550741E-01 0.  0.
         14    1    1    2    0    0  0.64552037614E-02 -0.25412429132E-03 -0.22491728751E-01  0.23401113157E-01  0.00000000000E+00 0. -1.
     999901    1    3    3    0    0 -0.33750226804E-02  0.12944382653E+00  0.20818627902E-01  0.88971934354E+00  0.88000000000E+00 0. -1.
        -11    1    4    4    0    0  0.43965582782E-02 -0.48064078332E-01 -0.74131033393E-02  0.48833396080E-01  0.51100000000E-03 0.  1.
         11    1    4    4    0    0 -0.74767393592E-02 -0.81125623906E-01  0.90862041889E-02  0.81976147221E-01  0.51100000000E-03 0. -1.
</event>
<event>
 8    1  0.1120016E+005  0.1043930E+01  0.7957747E-01            NaN
         13   -1    0    0    0    0  0.00000000000E+00  0.00000000000E+00  0.74505805969E-08  0.10566000000E+00  0.10566000000E+00 0.  1.
     999900   -1    0    0    0    0 -0.00000000000E+00 -0.00000000000E+00 -0.74505805969E-08  0.93827000000E+00  0.93827000000E+00 0.  1.
     999902    2    1    2    0    0  0.98650640472E-02  0.17919772314E-01  0.12348143870E-01  0.10200361852E+01  0.10197562967E+01 0.  0.
     999903    2    3    3    0    0 -0.23164193076E-02  0.12423901429E+00  0.43174688209E-01  0.13301733220E+00  0.19719495264E-01 0.  0.
         14    1    1    2    0    0 -0.98650640472E-02 -0.17919772314E-01 -0.12348143870E-01  0.23893814795E-01  0.00000000000E+00 0. -1.
     999901    1    3    3    0    0  0.12181483355E-01 -0.10631924198E+00 -0.30826544339E-01  0.88701885301E+00  0.88000000000E+00 0. -1.
        -11    1    4    4    0    0 -0.34864851147E-02  0.10776532640E+00  0.44043282349E-01  0.11647142566E+00  0.51100000000E-03 0.  1.
         11    1    4    4    0    0  0.11700658070E-02  0.16473687885E-01 -0.86859414002E-03  0.16545906542E-01  0.51100000000E-03 0. -1.
</event>
<event>
 8    1  0.1120016E+005  0.1043930E+01  0.7957747E-01            NaN
         13   -1    0    0    0    0  0.00000000000E+00  0.00000000000E+00  0.74505805969E-08  0.10566000000E+00  0.10566000000E+00 0. -1.
     999900   -1    0    0    0    0 -0.00000000000E+00 -0.00000000000E+00 -0.74505805969E-08  0.93827000000E+00  0.93827000000E+00 0. -1.
     999902    2    1    2    0    0 -0.43122485877E-02 -0.66510780294E-02  0.24492202100E-01  0.10181870342E+01  0.10178615506E+01 0.  0.
     999903    2    3    3    0    0 -0.77512054153E-01 -0.91374619246E-01  0.48667277772E-01  0.13076338997E+00  0.19316331167E-01 0.  0.
         14    1    1    2    0    0  0.43122485877E-02  0.66510780294E-02 -0.24492202100E-01  0.25742965846E-01  0.00000000000E+00 0.  1.
     999901    1    3    3    0    0  0.73199805566E-01  0.84723541216E-01 -0.24175075672E-01  0.88742364418E+00  0.88000000000E+00 0.  1.
        -11    1    4    4    0    0 -0.96948593503E-02 -0.21800967382E-01  0.13608944413E-01  0.27472476511E-01  0.51100000000E-03 0.  1.
         11    1    4    4    0    0 -0.67817194803E-01 -0.69573651864E-01  0.35058333359E-01  0.10329091346E+00  0.51100000000E-03 0. -1.
</event>
<event>
 8    1  0.1120016E+005  0.1043930E+01  0.7957747E-01            NaN
         13   -1    0    0    0    0  0.00000000000E+00  0.00000000000E+00  0.74505805969E-08  0.10566000000E+00  0.10566000000E+00 0.  1.
     999900   -1    0    0    0    0 -0.00000000000E+00 -0.00000000000E+00 -0.74505805969E-08  0.93827000000E+00  0.93827000000E+00 0. -1.
     999902    2    1    2    0    0 -0.74538896853E-02 -0.21928712643E-01 -0.93425955263E-02  0.10189557532E+01  0.10186496523E+01 0.  0.
     999903    2    3    3    0    0  0.77564258358E-01 -0.99141255567E-01 -0.30800420065E-01  0.13123378072E+00  0.20698709983E-01 0.  0.
         14    1    1    2    0    0  0.74538896853E-02  0.21928712643E-01  0.93425955263E-02  0.24974246751E-01  0.00000000000E+00 0.  1.
     999901    1    3    3    0    0 -0.85018148043E-01  0.77212542924E-01  0.21457824539E-01  0.88772197253E+00  0.88000000000E+00 0. -1.
        -11    1    4    4    0    0  0.61126323229E-01 -0.70479163511E-01 -0.14598607823E-01  0.94430505411E-01  0.51100000000E-03 0. -1.
         11    1    4    4    0    0  0.16437935129E-01 -0.28662092057E-01 -0.16201812242E-01  0.36803275306E-01  0.51100000000E-03 0.  1.
</event>
<event>
 8    1  0.1120016E+005  0.1043930E+01  0.7957747E-01            NaN
         13   -1    0    0    0    0  0.00000000000E+00  0.00000000000E+00  0.74505805969E-08  0.10566000000E+00  0.10566000000E+00 0.  1.
     999900   -1    0    0    0    0 -0.00000000000E+00 -0.00000000000E+00 -0.74505805969E-08  0.93827000000E+00  0.93827000000E+00 0.  1.
     999902    2    1    2    0    0 -0.20309144843E-01 -0.12199271982E-01  0.99069874959E-03  0.10202178705E+01  0.10199422720E+01 0.  0.
     999903    2    3    3    0    0  0.83748674743E-01 -0.87593685504E-01  0.42418334145E-01  0.12992095577E+00  0.19840499393E-01 0.  0.
         14    1    1    2    0    0  0.20309144843E-01  0.12199271982E-01 -0.99069874959E-03  0.23712129494E-01  0.00000000000E+00 0. -1.
     999901    1    3    3    0    0 -0.10405781959E+00  0.75394413522E-01 -0.41427635395E-01  0.89029691473E+00  0.88000000000E+00 0. -1.
        -11    1    4    4    0    0  0.22354094816E-01 -0.33921288316E-01  0.80102855371E-02  0.41409964398E-01  0.51100000000E-03 0. -1.
         11    1    4    4    0    0  0.61394579926E-01 -0.53672397188E-01  0.34408048608E-01  0.88510991375E-01  0.51100000000E-03 0.  1.
</event>
<event>
 8    1  0.1120016E+005  0.1043930E+01  0.7957747E-01            NaN
         13   -1    0    0    0    0  0.00000000000E+00  0.00000000000E+00  0.74505805969E-08  0.10566000000E+00  0.10566000000E+00 0.  1.
     999900   -1    0    0    0    0 -0.00000000000E+00 -0.00000000000E+00 -0.74505805969E-08  0.93827000000E+00  0.93827000000E+00 0.  1.
     999902    2    1    2    0    0 -0.62725043052E-02 -0.17025056920E-01  0.15516371049E-01  0.10200562771E+01  0.10197768647E+01 0.  0.
     999903    2    3    3    0    0 -0.86262418697E-01  0.91694127763E-01  0.24472355079E-01  0.12972012871E+00  0.19478133484E-01 0.  0.
         14    1    1    2    0    0  0.62725043052E-02  0.17025056920E-01 -0.15516371049E-01  0.23873722875E-01  0.00000000000E+00 0.  1.
     999901    1    3    3    0    0  0.79989914391E-01 -0.10871918468E+00 -0.89559840303E-02  0.89033614841E+00  0.88000000000E+00 0. -1.
        -11    1    4    4    0    0 -0.28845234033E-01  0.19089243361E-01  0.31988472837E-02  0.34741048969E-01  0.51100000000E-03 0. -1.
         11    1    4    4    0    0 -0.57417184664E-01  0.72604884402E-01  0.21273507796E-01  0.94979079742E-01  0.51100000000E-03 0.  1.
</event>
<event>
 8    1  0.1120016E+005  0.1043930E+01  0.7957747E-01            NaN
         13   -1    0    0    0    0  0.00000000000E+00  0.00000000000E+00  0.74505805969E-08  0.10566000000E+00  0.10566000000E+00 0.  1.
     999900   -1    0    0    0    0 -0.00000000000E+00 -0.00000000000E+00 -0.74505805969E-08  0.93827000000E+00  0.93827000000E+00 0. -1.
     999902    2    1    2    0    0  0.10971642855E-01 -0.15901087234E-01 -0.12934303696E-01  0.10206809627E+01  0.10204161455E+01 0.  0.
     999903    2    3    3    0    0 -0.95211822385E-01  0.43524999555E-01 -0.75408977339E-01  0.13011402367E+00  0.16835337399E-01 0.  0.
         14    1    1    2    0    0 -0.10971642855E-01  0.15901087234E-01  0.12934303696E-01  0.23249037276E-01  0.00000000000E+00 0. -1.
     999901    1    3    3    0    0  0.10618346524E+00 -0.59426086789E-01  0.62474673643E-01  0.89056693905E+00  0.88000000000E+00 0.  1.
        -11    1    4    4    0    0 -0.48989307573E-01  0.20028933246E-01 -0.48047725955E-01  0.71483952842E-01  0.51100000000E-03 0.  1.
         11    1    4    4    0    0 -0.46222514812E-01  0.23496066309E-01 -0.27361251383E-01  0.58630070832E-01  0.51100000000E-03 0. -1.
</event>
<event>
 8    1  0.1120016E+005  0.1043930E+01  0.7957747E-01            NaN
         13   -1    0    0    0    0  0.00000000000E+00  0.00000000000E+00  0.74505805969E-08  0.10566000000E+00  0.10566000000E+00 0.  1.
     999900   -1    0    0    0    0 -0.00000000000E+00 -0.00000000000E+00 -0.74505805969E-08  0.93827000000E+00  0.93827000000E+00 0.  1.
     999902    2    1    2    0    0  0.93802950938E-02 -0.17324618409E-01  0.13468866751E-01  0.10200649060E+01  0.10197856980E+01 0.  0.
     999903    2    3    3    0    0  0.12658729391E+00  0.17678557078E-01 -0.20327814862E-01  0.13096147078E+00  0.20020299981E-01 0.  0.
         14    1    1    2    0    0 -0.93802950938E-02  0.17324618409E-01 -0.13468866751E-01  0.23865093979E-01  0.00000000000E+00 0. -1.
     999901    1    3    3    0    0 -0.11720699882E+00 -0.35003175488E-01  0.33796681614E-01  0.88910343524E+00  0.88000000000E+00 0. -1.
        -11    1    4    4    0    0  0.11412836081E+00  0.20808263543E-01 -0.21731994255E-01  0.11802884083E+00  0.51100000000E-03 0. -1.
         11    1    4    4    0    0  0.12458933106E-01 -0.31297064645E-02  0.14041793928E-02  0.12932629952E-01  0.51100000000E-03 0.  1.
</event>
<event>
 8    1  0.1120016E+005  0.1043930E+01  0.7957747E-01            NaN
         13   -1    0    0    0    0  0.00000000000E+00  0.00000000000E+00  0.74505805969E-08  0.10566000000E+00  0.10566000000E+00 0. -1.
     999900   -1    0    0    0    0 -0.00000000000E+00 -0.00000000000E+00 -0.74505805969E-08  0.93827000000E+00  0.93827000000E+00 0. -1.
     999902    2    1    2    0    0  0.13323894270E-01  0.19371123866E-01 -0.19835762968E-03  0.10204181744E+01  0.10201472662E+01 0.  0.
     999903    2    3    3    0    0 -0.96902509713E-02 -0.11005803493E+00  0.62699161464E-01  0.12843294135E+00  0.18898771377E-01 0.  0.
         14    1    1    2    0    0 -0.13323894270E-01 -0.19371123866E-01  0.19835762968E-03  0.23511825622E-01  0.00000000000E+00 0. -1.
     999901    1    3    3    0    0  0.23014145241E-01  0.12942915880E+00 -0.62897519094E-01  0.89198523303E+00  0.88000000000E+00 0. -1.
        -11    1    4    4    0    0 -0.87430784432E-02 -0.72447912245E-01  0.31209759468E-01  0.79369084765E-01  0.51100000000E-03 0.  1.
         11    1    4    4    0    0 -0.94717252810E-03 -0.37610122685E-01  0.31489401996E-01  0.49063856588E-01  0.51100000000E-03 0. -1.
</event>
<event>
 8    1  0.1120016E+005  0.1043930E+01  0.7957747E-01            NaN
         13   -1    0    0    0    0  0.00000000000E+00  0.00000000000E+00  0.74505805969E-08  0.10566000000E+00  0.10566000000E+00 0.  1.
     999900   -1    0    0    0    0 -0.00000000000E+00 -0.00000000000E+00 -0.74505805969E-08  0.93827000000E+00  0.93827000000E+00 0. -1.
     999902    2    1    2    0    0  0.72592908026E-02  0.16181082585E-01 -0.15936626313E-01  0.10200867453E+01  0.10198080541E+01 0.  0.
     999903    2    3    3    0    0  0.75126403879E-01  0.94768756932E-01  0.47881285443E-01  0.13168667019E+00  0.20583191174E-01 0.  0.
         14    1    1    2    0    0 -0.72592908026E-02 -0.16181082585E-01  0.15936626313E-01  0.23843254702E-01  0.00000000000E+00 0.  1.
     999901    1    3    3    0    0 -0.67867113077E-01 -0.78587674347E-01 -0.63817911755E-01  0.88840007511E+00  0.88000000000E+00 0. -1.
        -11    1    4    4    0    0  0.33707444747E-01  0.32026092916E-01  0.10262740829E-01  0.47617721797E-01  0.51100000000E-03 0. -1.
         11    1    4    4    0    0  0.41418959132E-01  0.62742664016E-01  0.37618544614E-01  0.84068948389E-01  0.51100000000E-03 0.  1.
</event>
<event>
 8    1  0.1120016E+005  0.1043930E+01  0.7957747E-01            NaN
         13   -1    0    0    0    0  0.00000000000E+00  0.00000000000E+00  0.74505805969E-08  0.10566000000E+00  0.10566000000E+00 0. -1.
     999900   -1    0    0    0    0 -0.00000000000E+00 -0.00000000000E+00 -0.74505805969E-08  0.93827000000E+00  0.93827000000E+00 0.  1.
     999902    2    1    2    0    0 -0.20196055608E-02 -0.36244563361E-03  0.24237940942E-01  0.10196053632E+01  0.10193151665E+01 0.  0.
     999903    2    3    3    0    0 -0.53295502239E-01  0.68109764725E-01 -0.92421108632E-01  0.12779428736E+00  0.17617262895E-01 0.  0.
         14    1    1    2    0    0  0.20196055608E-02  0.36244563361E-03 -0.24237940942E-01  0.24324636782E-01  0.00000000000E+00 0.  1.
     999901    1    3    3    0    0  0.51275896679E-01 -0.68472210358E-01  0.11665904957E+00  0.89181107586E+00  0.88000000000E+00 0. -1.
        -11    1    4    4    0    0 -0.36767775787E-01  0.58484003823E-01 -0.73990194273E-01  0.10122775316E+00  0.51100000000E-03 0. -1.
         11    1    4    4    0    0 -0.16527726453E-01  0.96257609019E-02 -0.18430914359E-01  0.26566534206E-01  0.51100000000E-03 0.  1.
</event>
<event>
 8    1  0.1120016E+005  0.1043930E+01  0.7957747E-01            NaN
         13   -1    0    0    0    0  0.00000000000E+00  0.00000000000E+00  0.74505805969E-08  0.10566000000E+00  0.10566000000E+00 0.  1.
     999900   -1    0    0    0    0 -0.00000000000E+00 -0.00000000000E+00 -0.74505805969E-08  0.93827000000E+00  0.93827000000E+00 0. -1.
     999902    2    1    2    0    0 -0.57140034672E-03  0.23791395603E-01 -0.15400598089E-02  0.10200819647E+01  0.10198031604E+01 0.  0.
     999903    2    3    3    0    0  0.50629405023E-01  0.38811341216E-02 -0.11866682535E+00  0.13062335398E+00  0.20056054276E-01 0.  0.
         14    1    1    2    0    0  0.57140034672E-03 -0.23791395603E-01  0.15400598089E-02  0.23848035293E-01  0.00000000000E+00 0.  1.
     999901    1    3    3    0    0 -0.51200805369E-01  0.19910261482E-01  0.11712676554E+00  0.88945861072E+00  0.88000000000E+00 0.  1.
        -11    1    4    4    0    0  0.36863176852E-01 -0.46962445943E-02 -0.68994175844E-01  0.78367122840E-01  0.51100000000E-03 0.  1.
         11    1    4    4    0    0  0.13766228171E-01  0.85773787159E-02 -0.49672649504E-01  0.52256231145E-01  0.51100000000E-03 0. -1.
</event>
<event>
 8    1  0.1120016E+005  0.1043930E+01  0.7957747E-01            NaN
         13   -1    0    0    0    0  0.00000000000E+00  0.00000000000E+00  0.74505805969E-08  0.10566000000E+00  0.10566000000E+00 0.  1.
     999900   -1    0    0    0    0 -0.00000000000E+00 -0.00000000000E+00 -0.74505805969E-08  0.93827000000E+00  0.93827000000E+00 0.  1.
     999902    2    1    2    0    0  0.14733133683E-01 -0.13608855852E-01 -0.10380038433E-01  0.10213465684E+01  0.10210968619E+01 0.  0.
     999903    2    3    3    0    0 -0.97991480345E-01  0.43186129917E-01  0.68840794197E-01  0.12881732553E+00  0.19684419602E-01 0.  0.
         14    1    1    2    0    0 -0.14733133683E-01  0.13608855852E-01  0.10380038433E-01  0.22583431617E-01  0.00000000000E+00 0.  1.
     999901    1    3    3    0    0  0.11272461403E+00 -0.56794985769E-01 -0.79220832630E-01  0.89252924285E+00  0.88000000000E+00 0.  1.
        -11    1    4    4    0    0 -0.78638528404E-01  0.25566386439E-01  0.53064187590E-01  0.98253383609E-01  0.51100000000E-03 0.  1.
         11    1    4    4    0    0 -0.19352951941E-01  0.17619743477E-01  0.15776606606E-01  0.30563941926E-01  0.51100000000E-03 0. -1.
</event>
<event>
 8    1  0.1120016E+005  0.1043930E+01  0.7957747E-01            NaN
         13   -1    0    0    0    0  0.00000000000E+00  0.00000000000E+00  0.74505805969E-08  0.10566000000E+00  0.10566000000E+00 0. -1.
     999900   -1    0    0    0    0 -0.00000000000E+00 -0.00000000000E+00 -0.74505805969E-08  0.93827000000E+00  0.93827000000E+00 0. -1.
     999902    2    1    2    0    0  0.27772586649E-02 -0.18411141645E-02  0.23216890826E-01  0.10204752161E+01  0.10202056361E+01 0.  0.
     999903    2    3    3    0    0  0.36641736788E-01 -0.30667310914E-01  0.12328335884E+00  0.13368829103E+00  0.19765418214E-01 0.  0.
         14    1    1    2    0    0 -0.27772586649E-02  0.18411141645E-02 -0.23216890826E-01  0.23454783876E-01  0.00000000000E+00 0.  1.
     999901    1    3    3    0    0 -0.33864478123E-01  0.28826196749E-01 -0.10006646802E+00  0.88678692509E+00  0.88000000000E+00 0. -1.
        -11    1    4    4    0    0  0.25648636237E-01 -0.24228887323E-01  0.10886586510E+00  0.11444181590E+00  0.51100000000E-03 0. -1.
         11    1    4    4    0    0  0.10993100551E-01 -0.64384235912E-02  0.14417493746E-01  0.19246475131E-01  0.51100000000E-03 0.  1.
</event>
<event>
 8    1  0.1120016E+005  0.1043930E+01  0.7957747E-01            NaN
         13   -1    0    0    0    0  0.00000000000E+00  0.00000000000E+00  0.74505805969E-08  0.10566000000E+00  0.10566000000E+00 0. -1.
     999900   -1    0    0    0    0 -0.00000000000E+00 -0.00000000000E+00 -0.74505805969E-08  0.93827000000E+00  0.93827000000E+00 0. -1.
     999902    2    1    2    0    0 -0.49519438308E-02  0.22640002914E-01  0.49213367243E-02  0.10202379964E+01  0.10199628710E+01 0.  0.
     999903    2    3    3    0    0 -0.70510380210E-01 -0.10546162521E+00  0.32758191699E-02  0.12854822779E+00  0.20495066909E-01 0.  0.
         14    1    1    2    0    0  0.49519438308E-02 -0.22640002914E-01 -0.49213367243E-02  0.23692003604E-01  0.00000000000E+00 0. -1.
     999901    1    3    3    0    0  0.65558436379E-01  0.12810162812E+00  0.16455175544E-02  0.89168976861E+00  0.88000000000E+00 0.  1.
        -11    1    4    4    0    0 -0.54810334936E-01 -0.74690031480E-01  0.10544297155E-01  0.93242784932E-01  0.51100000000E-03 0.  1.
         11    1    4    4    0    0 -0.15700045275E-01 -0.30771593729E-01 -0.72684779848E-02  0.35305442858E-01  0.51100000000E-03 0. -1.
</event>
<event>
 8    1  0.1120016E+005  0.1043930E+01  0.7957747E-01            NaN
         13   -1    0    0    0    0  0.00000000000E+00  0.00000000000E+00  0.74505805969E-08  0.10566000000E+00  0.10566000000E+00 0.  1.
     999900   -1    0    0    0    0 -0.00000000000E+00 -0.00000000000E+00 -0.74505805969E-08  0.93827000000E+00  0.93827000000E+00 0.  1.
     999902    2    1    2    0    0 -0.19431492848E-01  0.10208195002E-01 -0.10724303056E-01  0.10195004925E+01  0.10192077577E+01 0.  0.
     999903    2    3    3    0    0  0.17336053404E-01  0.11673204998E+00 -0.53368920741E-01  0.13129007401E+00  0.21492593912E-01 0.  0.
         14    1    1    2    0    0  0.19431492848E-01 -0.10208195002E-01  0.10724303056E-01  0.24429507477E-01  0.00000000000E+00 0. -1.
     999901    1    3    3    0    0 -0.36767546252E-01 -0.10652385498E+00  0.42644617685E-01  0.88821041851E+00  0.88000000000E+00 0.  1.
        -11    1    4    4    0    0 -0.29297086658E-02  0.37007970911E-01 -0.22588254732E-01  0.43458756041E-01  0.51100000000E-03 0.  1.
         11    1    4    4    0    0  0.20265762069E-01  0.79724079067E-01 -0.30780666009E-01  0.87831317970E-01  0.51100000000E-03 0. -1.
</event>
<event>
 8    1  0.1120016E+005  0.1043930E+01  0.7957747E-01            NaN
         13   -1    0    0    0    0  0.00000000000E+00  0.00000000000E+00  0.74505805969E-08  0.10566000000E+00  0.10566000000E+00 0. -1.
     999900   -1    0    0    0    0 -0.00000000000E+00 -0.00000000000E+00 -0.74505805969E-08  0.93827000000E+00  0.93827000000E+00 0.  1.
     999902    2    1    2    0    0 -0.27862512180E-02 -0.20513287575E-01  0.12978694228E-01  0.10194963211E+01  0.10192034851E+01 0.  0.
     999903    2    3    3    0    0 -0.54889038811E-01  0.11283012649E+00  0.13450825895E-01  0.12792726066E+00  0.21000363700E-01 0.  0.
         14    1    1    2    0    0  0.27862512180E-02  0.20513287575E-01 -0.12978694228E-01  0.24433678946E-01  0.00000000000E+00 0.  1.
     999901    1    3    3    0    0  0.52102787593E-01 -0.13334341407E+00 -0.47213166675E-03  0.89156906040E+00  0.88000000000E+00 0. -1.
        -11    1    4    4    0    0 -0.45270939139E-01  0.96601383416E-01  0.38500281289E-02  0.10675377767E+00  0.51100000000E-03 0. -1.
         11    1    4    4    0    0 -0.96180996718E-02  0.16228743077E-01  0.96007977657E-02  0.21173482989E-01  0.51100000000E-03 0.  1.
</event>
<event>
 7    1  0.1120016E+005  0.1043930E+01  0.7957747E-01            NaN
         13   -1    0    0    0    0  0.00000000000E+00  0.00000000000E+00  0.74505805969E-08  0.10566000000E+00  0.10566000000E+00 0.  1.
     999900   -1    0    0    0    0 -0.00000000000E+00 -0.00000000000E+00 -0.74505805969E-08  0.93827000000E+00  0.93827000000E+00 0.  1.
     999902    2    1    2    0    0 -0.56279878607E-02  0.12192615149E-01  0.13517176516E-01  0.10248761770E+01  0.10246990436E+01 0.  0.
         14    1    1    2    0    0  0.56279878607E-02 -0.12192615149E-01 -0.13517176516E-01  0.19053823041E-01  0.00000000000E+00 0.  1.
     999901    1    3    3    0    0  0.98094251754E-01  0.83100231289E-01 -0.95584892424E-02  0.88939276778E+00  0.88000000000E+00 0. -1.
        -11    1    3    3    0    0 -0.52346111438E-01 -0.41072979491E-01  0.34548486832E-01  0.74973089108E-01  0.51100000000E-03 0.  1.
         11    1    3    3    0    0 -0.51376128176E-01 -0.29834636650E-01 -0.11472821074E-01  0.60510320069E-01  0.51100000000E-03 0. -1.
</event>
<event>
 8    1  0.1120016E+005  0.1043930E+01  0.7957747E-01            NaN
         13   -1    0    0    0    0  0.00000000000E+00  0.00000000000E+00  0.74505805969E-08  0.10566000000E+00  0.10566000000E+00 0. -1.
     999900   -1    0    0    0    0 -0.00000000000E+00 -0.00000000000E+00 -0.74505805969E-08  0.93827000000E+00  0.93827000000E+00 0. -1.
     999902    2    1    2    0    0  0.18181137510E-01 -0.15317217059E-01  0.69963917324E-02  0.10191485473E+01  0.10188472119E+01 0.  0.
     999903    2    3    3    0    0  0.90646431198E-02 -0.11497605333E+00  0.60739677108E-01  0.13184739504E+00  0.19818340207E-01 0.  0.
         14    1    1    2    0    0 -0.18181137510E-01  0.15317217059E-01 -0.69963917324E-02  0.24781452679E-01  0.00000000000E+00 0.  1.
     999901    1    3    3    0    0  0.91164943906E-02  0.99658836274E-01 -0.53743285376E-01  0.88730115228E+00  0.88000000000E+00 0. -1.
        -11    1    4    4    0    0 -0.53284647161E-02 -0.58271326444E-01  0.30695272342E-01  0.66078747619E-01  0.51100000000E-03 0. -1.
         11    1    4    4    0    0  0.14393107836E-01 -0.56704726888E-01  0.30044404766E-01  0.65768647420E-01  0.51100000000E-03 0.  1.
</event>
<event>
 8    1  0.1120016E+005  0.1043930E+01  0.7957747E-01            NaN
         13   -1    0    0    0    0  0.00000000000E+00  0.00000000000E+00  0.74505805969E-08  0.10566000000E+00  0.10566000000E+00 0.  1.
     999900   -1    0    0    0    0 -0.00000000000E+00 -0.00000000000E+00 -0.74505805969E-08  0.93827000000E+00  0.93827000000E+00 0.  1.
     999902    2    1    2    0    0 -0.36996663201E-02  0.76296733825E-02 -0.21440786930E-01  0.10208734003E+01  0.10206129984E+01 0.  0.
     999903    2    3    3    0    0  0.31065836975E-01 -0.22300472435E-01 -0.12626910575E+00  0.13346513444E+00  0.20165756716E-01 0.  0.
         14    1    1    2    0    0  0.36996663201E-02 -0.76296733825E-02  0.21440786930E-01  0.23056599728E-01  0.00000000000E+00 0.  1.
     999901    1    3    3    0    0 -0.34765503295E-01  0.29930145818E-01  0.10482831882E+00  0.88740826584E+00  0.88000000000E+00 0. -1.
        -11    1    4    4    0    0  0.85042405443E-02 -0.11939395890E-02 -0.10150721921E-01  0.13305858690E-01  0.51100000000E-03 0. -1.
         11    1    4    4    0    0  0.22561596431E-01 -0.21106532846E-01 -0.11611838383E+00  0.12015927575E+00  0.51100000000E-03 0.  1.
</event>
<event>
 8    1  0.1120016E+005  0.1043930E+01  0.7957747E-01            NaN
         13   -1    0    0    0    0  0.00000000000E+00  0.00000000000E+00  0.74505805969E-08  0.10566000000E+00  0.10566000000E+00 0. -1.
     999900   -1    0    0    0    0 -0.00000000000E+00 -0.00000000000E+00 -0.74505805969E-08  0.93827000000E+00  0.93827000000E+00 0. -1.
     999902    2    1    2    0    0  0.18550017882E-01 -0.78560061775E-02  0.12897782373E-01  0.10200098665E+01  0.10197293538E+01 0.  0.
     999903    2    3    3    0    0  0.69805941245E-01 -0.92563391479E-01 -0.58699266784E-01  0.13156816990E+00  0.20584667488E-01 0.  0.
         14    1    1    2    0    0 -0.18550017882E-01  0.78560061775E-02 -0.12897782373E-01  0.23920133499E-01  0.00000000000E+00 0.  1.
     999901    1    3    3    0    0 -0.51255923363E-01  0.84707385302E-01  0.71597049156E-01  0.88844169660E+00  0.88000000000E+00 0.  1.
        -11    1    4    4    0    0  0.66693300780E-01 -0.77751289183E-01 -0.53419816992E-01  0.11553007101E+00  0.51100000000E-03 0. -1.
         11    1    4    4    0    0  0.31126404649E-02 -0.14812102296E-01 -0.52794497914E-02  0.16038098895E-01  0.51100000000E-03 0.  1.
</event>
<event>
 8    1  0.1120016E+005  0.1043930E+01  0.7957747E-01            NaN
         13   -1    0    0    0    0  0.00000000000E+00  0.00000000000E+00  0.74505805969E-08  0.10566000000E+00  0.10566000000E+00 0.  1.
     999900   -1    0    0    0    0 -0.00000000000E+00 -0.00000000000E+00 -0.74505805969E-08  0.93827000000E+00  0.93827000000E+00 0.  1.
     999902    2    1    2    0    0  0.17858152367E-01  0.41988355392E-02 -0.14548515993E-01  0.10205162617E+01  0.10202476352E+01 0.  0.
     999903    2    3    3    0    0 -0.10897082717E+00  0.61254900811E-01  0.23710202718E-01  0.12877374602E+00  0.19841872482E-01 0.  0.
         14    1    1    2    0    0 -0.17858152367E-01 -0.41988355392E-02  0.14548515993E-01  0.23413738348E-01  0.00000000000E+00 0.  1.
     999901    1    3    3    0    0  0.12682897953E+00 -0.57056065272E-01 -0.38258718711E-01  0.89174251563E+00  0.88000000000E+00 0.  1.
        -11    1    4    4    0    0 -0.17044152231E-01  0.16657035515E-01  0.93008607182E-02  0.25587635461E-01  0.51100000000E-03 0. -1.
         11    1    4    4    0    0 -0.91926674935E-01  0.44597865297E-01  0.14409341999E-01  0.10318611056E+00  0.51100000000E-03 0.  1.
</event>
<event>
 8    1  0.1120016E+005  0.1043930E+01  0.7957747E-01            NaN
         13   -1    0    0    0    0  0.00000000000E+00  0.00000000000E+00  0.74505805969E-08  0.10566000000E+00  0.10566000000E+00 0.  1.
     999900   -1    0    0    0    0 -0.00000000000E+00 -0.00000000000E+00 -0.74505805969E-08  0.93827000000E+00  0.93827000000E+00 0.  1.
     999902    2    1    2    0    0  0.10119135702E-01 -0.16119635514E-01  0.13919194867E-01  0.10203506967E+01  0.10200782131E+01 0.  0.
     999903    2    3    3    0    0  0.11957916417E+00 -0.43461614843E-01 -0.29287044677E-01  0.13209630705E+00  0.20090168804E-01 0.  0.
         14    1    1    2    0    0 -0.10119135702E-01  0.16119635514E-01 -0.13919194867E-01  0.23579303260E-01  0.00000000000E+00 0. -1.
     999901    1    3    3    0    0 -0.10946002847E+00  0.27341979329E-01  0.43206239545E-01  0.88825438969E+00  0.88000000000E+00 0. -1.
        -11    1    4    4    0    0  0.98232472723E-01 -0.34751579201E-01 -0.31686399638E-01  0.10891088099E+00  0.51100000000E-03 0. -1.
         11    1    4    4    0    0  0.21346691446E-01 -0.87100356428E-02  0.23993549609E-02  0.23185426065E-01  0.51100000000E-03 0.  1.
</event>
<event>
 8    1  0.1120016E+005  0.1043930E+01  0.7957747E-01            NaN
         13   -1    0    0    0    0  0.00000000000E+00  0.00000000000E+00  0.74505805969E-08  0.10566000000E+00  0.10566000000E+00 0. -1.
     999900   -1    0    0    0    0 -0.00000000000E+00 -0.00000000000E+00 -0.74505805969E-08  0.93827000000E+00  0.93827000000E+00 0. -1.
     999902    2    1    2    0    0 -0.19588722540E-01  0.58865074729E-02  0.45703927660E-02  0.10229715289E+01  0.10227568095E+01 0.  0.
     999903    2    3    3    0    0  0.29463660634E-02 -0.10079304841E+00 -0.82776624667E-01  0.13195084490E+00  0.19777163513E-01 0.  0.
         14    1    1    2    0    0  0.19588722540E-01 -0.58865074729E-02 -0.45703927660E-02  0.20958471104E-01  0.00000000000E+00 0. -1.
     999901    1    3    3    0    0 -0.22535088604E-01  0.10667955588E+00  0.87347017433E-01  0.89102068400E+00  0.88000000000E+00 0. -1.
        -11    1    4    4    0    0  0.98637189264E-02 -0.43549270868E-01 -0.30125137825E-01  0.53866659394E-01  0.51100000000E-03 0. -1.
         11    1    4    4    0    0 -0.69173528630E-02 -0.57243777542E-01 -0.52651486842E-01  0.78084185502E-01  0.51100000000E-03 0.  1.
</event>
<event>
 7    1  0.1120016E+005  0.1043930E+01  0.7957747E-01            NaN
         13   -1    0    0    0    0  0.00000000000E+00  0.00000000000E+00  0.74505805969E-08  0.10566000000E+00  0.10566000000E+00 0.  1.
     999900   -1    0    0    0    0 -0.00000000000E+00 -0.00000000000E+00 -0.74505805969E-08  0.93827000000E+00  0.93827000000E+00 0. -1.
     999903    2    1    2    0    0  0.51462077183E-01  0.29122486628E-01 -0.46071362208E-01  0.77559102878E-01  0.19909279452E-01 0.  0.
         14    1    1    2    0    0  0.19230306966E-01  0.46837149797E-01 -0.54731349676E-01  0.74558996402E-01  0.00000000000E+00 0. -1.
     999901    1    1    2    0    0 -0.70692384148E-01 -0.75959636425E-01  0.10080271188E+00  0.89181190072E+00  0.88000000000E+00 0.  1.
        -11    1    3    3    0    0  0.19167415946E-02  0.40320346137E-02 -0.10978453418E-01  0.11862493916E-01  0.51100000000E-03 0. -1.
         11    1    3    3    0    0  0.49545335588E-01  0.25090452014E-01 -0.35092908790E-01  0.65696608962E-01  0.51100000000E-03 0.  1.
</event>
<event>
 8    1  0.1120016E+005  0.1043930E+01  0.7957747E-01            NaN
         13   -1    0    0    0    0  0.00000000000E+00  0.00000000000E+00  0.74505805969E-08  0.10566000000E+00  0.10566000000E+00 0. -1.
     999900   -1    0    0    0    0 -0.00000000000E+00 -0.00000000000E+00 -0.74505805969E-08  0.93827000000E+00  0.93827000000E+00 0.  1.
     999902    2    1    2    0    0  0.18764047035E-01 -0.82229503404E-02  0.13509054592E-01  0.10193902174E+01  0.10190948015E+01 0.  0.
     999903    2    3    3    0    0  0.26579070554E-02  0.10036958453E+00  0.80173267016E-01  0.13006695583E+00  0.20212428980E-01 0.  0.
         14    1    1    2    0    0 -0.18764047035E-01  0.82229503404E-02 -0.13509054592E-01  0.24539782587E-01  0.00000000000E+00 0. -1.
     999901    1    3    3    0    0  0.16106139980E-01 -0.10859253487E+00 -0.66664212424E-01  0.88932326158E+00  0.88000000000E+00 0.  1.
        -11    1    4    4    0    0  0.54846746443E-02  0.47026449674E-01  0.49356469743E-01  0.68395108388E-01  0.51100000000E-03 0. -1.
         11    1    4    4    0    0 -0.28267675889E-02  0.53343134860E-01  0.30816797273E-01  0.61671847441E-01  0.51100000000E-03 0.  1.
</event>
<event>
 8    1  0.1120016E+005  0.1043930E+01  0.7957747E-01            NaN
         13   -1    0    0    0    0  0.00000000000E+00  0.00000000000E+00  0.74505805969E-08  0.10566000000E+00  0.10566000000E+00 0. -1.
     999900   -1    0    0    0    0 -0.00000000000E+00 -0.00000000000E+00 -0.74505805969E-08  0.93827000000E+00  0.93827000000E+00 0.  1.
     999902    2    1    2    0    0  0.23047569632E-01 -0.10633338267E-01 -0.54956226368E-02  0.10179596281E+01  0.10176282937E+01 0.  0.
     999903    2    3    3    0    0  0.44340786476E-02  0.11888700616E+00 -0.41652543685E-01  0.12755000067E+00  0.19500948427E-01 0.  0.
         14    1    1    2    0    0 -0.23047569632E-01  0.10633338267E-01  0.54956226368E-02  0.25970371903E-01  0.00000000000E+00 0.  1.
     999901    1    3    3    0    0  0.18613490985E-01 -0.12952034443E+00  0.36156921048E-01  0.89040962742E+00  0.88000000000E+00 0.  1.
        -11    1    4    4    0    0 -0.52179493565E-02  0.62351158384E-01 -0.15217213521E-01  0.64395020426E-01  0.51100000000E-03 0. -1.
         11    1    4    4    0    0  0.96520280041E-02  0.56535847775E-01 -0.26435330164E-01  0.63154980248E-01  0.51100000000E-03 0.  1.
</event>
<event>
 8    1  0.1120016E+005  0.1043930E+01  0.7957747E-01            NaN
         13   -1    0    0    0    0  0.00000000000E+00  0.00000000000E+00  0.74505805969E-08  0.10566000000E+00  0.10566000000E+00 0.  1.
     999900   -1    0    0    0    0 -0.00000000000E+00 -0.00000000000E+00 -0.74505805969E-08  0.93827000000E+00  0.93827000000E+00 0.  1.
     999902    2    1    2    0    0 -0.85750870983E-02  0.24473924303E-03 -0.21497517651E-01  0.10207840440E+01  0.10205215966E+01 0.  0.
     999903    2    3    3    0    0 -0.44610970014E-01 -0.12137660493E+00  0.74925562891E-02  0.13121630589E+00  0.20956184383E-01 0.  0.
         14    1    1    2    0    0  0.85750870983E-02 -0.24473924303E-03  0.21497517651E-01  0.23145956044E-01  0.00000000000E+00 0.  1.
     999901    1    3    3    0    0  0.36035882916E-01  0.12162134417E+00 -0.28990073940E-01  0.88956773806E+00  0.88000000000E+00 0. -1.
        -11    1    4    4    0    0 -0.72341973255E-02 -0.39117210001E-01  0.92498538167E-02  0.40844958634E-01  0.51100000000E-03 0. -1.
         11    1    4    4    0    0 -0.37376772688E-01 -0.82259394924E-01 -0.17572975276E-02  0.90371347260E-01  0.51100000000E-03 0.  1.
</event>
<event>
 8    1  0.1120016E+005  0.1043930E+01  0.7957747E-01            NaN
         13   -1    0    0    0    0  0.00000000000E+00  0.00000000000E+00  0.74505805969E-08  0.10566000000E+00  0.10566000000E+00 0. -1.
     999900   -1    0    0    0    0 -0.00000000000E+00 -0.00000000000E+00 -0.74505805969E-08  0.93827000000E+00  0.93827000000E+00 0.  1.
     999902    2    1    2    0    0 -0.15248015943E-01 -0.23262274142E-02 -0.17482921973E-01  0.10206155005E+01  0.10203491726E+01 0.  0.
     999903    2    3    3    0    0 -0.54929271741E-01 -0.88205794967E-01  0.76439515752E-01  0.13057543038E+00  0.20235026349E-01 0.  0.
         14    1    1    2    0    0  0.15248015943E-01  0.23262274142E-02  0.17482921973E-01  0.23314499456E-01  0.00000000000E+00 0. -1.
     999901    1    3    3    0    0  0.39681255798E-01  0.85879567553E-01 -0.93922437725E-01  0.89004007016E+00  0.88000000000E+00 0. -1.
        -11    1    4    4    0    0 -0.30735295861E-01 -0.65589825812E-01  0.47776472212E-01  0.86772899454E-01  0.51100000000E-03 0.  1.
         11    1    4    4    0    0 -0.24193975880E-01 -0.22615969155E-01  0.28663043541E-01  0.43802530928E-01  0.51100000000E-03 0. -1.
</event>
<event>
 8    1  0.1120016E+005  0.1043930E+01  0.7957747E-01            NaN
         13   -1    0    0    0    0  0.00000000000E+00  0.00000000000E+00  0.74505805969E-08  0.10566000000E+00  0.10566000000E+00 0. -1.
     999900   -1    0    0    0    0 -0.00000000000E+00 -0.00000000000E+00 -0.74505805969E-08  0.93827000000E+00  0.93827000000E+00 0.  1.
     999902    2    1    2    0    0 -0.10121262452E-01  0.23774554785E-01 -0.16291395779E-01  0.10133836584E+01  0.10129231758E+01 0.  0.
     999903    2    3    3    0    0 -0.41700478342E-01 -0.11206742302E+00  0.12729836014E-01  0.12192837533E+00  0.20160426308E-01 0.  0.
         14    1    1    2    0    0  0.10121262452E-01 -0.23774554785E-01  0.16291395779E-01  0.30546341602E-01  0.00000000000E+00 0. -1.
     999901    1    3    3    0    0  0.31579215889E-01  0.13584197781E+00 -0.29021231792E-01  0.89145528307E+00  0.88000000000E+00 0.  1.
        -11    1    4    4    0    0 -0.42286272776E-01 -0.10944269039E+00  0.95270656983E-02  0.11771515386E+00  0.51100000000E-03 0. -1.
         11    1    4    4    0    0  0.58579443485E-03 -0.26247326324E-02  0.32027703154E-02  0.42132214758E-02  0.51100000000E-03 0.  1.
</event>
<event>
 8    1  0.1120016E+005  0.1043930E+01  0.7957747E-01            NaN
         13   -1    0    0    0    0  0.00000000000E+00  0.00000000000E+00  0.74505805969E-08  0.10566000000E+00  0.10566000000E+00 0.  1.
     999900   -1    0    0    0    0 -0.00000000000E+00 -0.00000000000E+00 -0.74505805969E-08  0.93827000000E+00  0.93827000000E+00 0.  1.
     999902    2    1    2    0    0  0.22178314632E-01  0.89374124270E-03 -0.91244510970E-02  0.10199314163E+01  0.10196490386E+01 0.  0.
     999903    2    3    3    0    0 -0.66206523908E-01  0.39415667077E-01 -0.10243495667E+00  0.12976139380E+00  0.20203968748E-01 0.  0.
         14    1    1    2    0    0 -0.22178314632E-01 -0.89374124270E-03  0.91244510970E-02  0.23998583732E-01  0.00000000000E+00 0.  1.
     999901    1    3    3    0    0  0.88384838539E-01 -0.38521925834E-01  0.93310505574E-01  0.89017002247E+00  0.88000000000E+00 0. -1.
        -11    1    4    4    0    0 -0.35349336433E-01  0.15930191875E-01 -0.36420422174E-01  0.53198260045E-01  0.51100000000E-03 0.  1.
         11    1    4    4    0    0 -0.30857187474E-01  0.23485475202E-01 -0.66014534497E-01  0.76563133753E-01  0.51100000000E-03 0. -1.
</event>
<event>
 8    1  0.1120016E+005  0.1043930E+01  0.7957747E-01            NaN
         13   -1    0    0    0    0  0.00000000000E+00  0.00000000000E+00  0.74505805969E-08  0.10566000000E+00  0.10566000000E+00 0.  1.
     999900   -1    0    0    0    0 -0.00000000000E+00 -0.00000000000E+00 -0.74505805969E-08  0.93827000000E+00  0.93827000000E+00 0.  1.
     999902    2    1    2    0    0  0.18507944461E-02  0.21997080069E-01 -0.12207762428E-01  0.10187044884E+01  0.10183921191E+01 0.  0.
     999903    2    3    3    0    0 -0.85784972102E-01  0.44163571082E-01  0.83259044153E-01  0.12893750090E+00  0.19578770521E-01 0.  0.
         14    1    1    2    0    0 -0.18507944461E-02 -0.21997080069E-01  0.12207762428E-01  0.25225511593E-01  0.00000000000E+00 0.  1.
     999901    1    3    3    0    0  0.87635766549E-01 -0.22166491013E-01 -0.95466806581E-01  0.88976698751E+00  0.88000000000E+00 0. -1.
        -11    1    4    4    0    0 -0.14720216865E-01  0.41107339749E-02  0.22568650957E-01  0.27261475481E-01  0.51100000000E-03 0. -1.
         11    1    4    4    0    0 -0.71064755238E-01  0.40052837107E-01  0.60690393196E-01  0.10167602542E+00  0.51100000000E-03 0.  1.
</event>
<event>
 8    1  0.1120016E+005  0.1043930E+01  0.7957747E-01            NaN
         13   -1    0    0    0    0  0.00000000000E+00  0.00000000000E+00  0.74505805969E-08  0.10566000000E+00  0.10566000000E+00 0.  1.
     999900   -1    0    0    0    0 -0.00000000000E+00 -0.00000000000E+00 -0.74505805969E-08  0.93827000000E+00  0.93827000000E+00 0. -1.
     999902    2    1    2    0    0  0.20036679238E-01 -0.35686647526E-02  0.14422692540E-01  0.10189857032E+01  0.10186803450E+01 0.  0.
     999903    2    3    3    0    0 -0.42258292778E-01 -0.56040884344E-01  0.10770449780E+00  0.13031507098E+00  0.21340451081E-01 0.  0.
         14    1    1    2    0    0 -0.20036679238E-01  0.35686647526E-02 -0.14422692540E-01  0.24944296805E-01  0.00000000000E+00 0. -1.
     999901    1    3    3    0    0  0.62294972016E-01  0.52472219592E-01 -0.93281805258E-01  0.88867063221E+00  0.88000000000E+00 0. -1.
        -11    1    4    4    0    0 -0.13108340760E-01 -0.30851881910E-01  0.62458993005E-01  0.70887616288E-01  0.51100000000E-03 0. -1.
         11    1    4    4    0    0 -0.29149952018E-01 -0.25189002434E-01  0.45245504793E-01  0.59427454693E-01  0.51100000000E-03 0.  1.
</event>
<event>
 8    1  0.1120016E+005  0.1043930E+01  0.7957747E-01            NaN
         13   -1    0    0    0    0  0.00000000000E+00  0.00000000000E+00  0.74505805969E-08  0.10566000000E+00  0.10566000000E+00 0. -1.
     999900   -1    0    0    0    0 -0.00000000000E+00 -0.00000000000E+00 -0.74505805969E-08  0.93827000000E+00  0.93827000000E+00 0. -1.
     999902    2    1    2    0    0  0.21978944823E-01  0.63255450812E-03 -0.89975800244E-02  0.10201722521E+01  0.10198955796E+01 0.  0.
     999903    2    3    3    0    0  0.67884229117E-01 -0.36396762593E-01  0.10396616629E+00  0.13099326365E+00  0.20427395818E-01 0.  0.
         14    1    1    2    0    0 -0.21978944823E-01 -0.63255450812E-03  0.89975800244E-02  0.23757747937E-01  0.00000000000E+00 0. -1.
     999901    1    3    3    0    0 -0.45905284295E-01  0.37029317101E-01 -0.11296374631E+00  0.88917898841E+00  0.88000000000E+00 0. -1.
        -11    1    4    4    0    0  0.61152544352E-01 -0.35773902228E-01  0.83901110891E-01  0.10981376640E+00  0.51100000000E-03 0. -1.
         11    1    4    4    0    0  0.67316847658E-02 -0.62286036433E-03  0.20065055396E-01  0.21179497252E-01  0.51100000000E-03 0.  1.
</event>
<event>
 8    1  0.1322294E+005  0.1043930E+01  0.7957747E-01            NaN
         13   -1    0    0    0    0  0.00000000000E+00  0.00000000000E+00  0.74505805969E-08  0.10566000000E+00  0.10566000000E+00 0.  1.
     999900   -1    0    0    0    0 -0.00000000000E+00 -0.00000000000E+00 -0.74505805969E-08  0.93827000000E+00  0.93827000000E+00 0. -1.
     999902    2    1    2    0    0  0.31683407959E-02  0.66154798702E-02  0.22247331760E-01  0.10205046563E+01  0.10202357604E+01 0.  0.
     999903    2    3    3    0    0 -0.43741405393E-01  0.35914206971E-01 -0.11350389735E+00  0.12837947679E+00  0.19874972684E-01 0.  0.
         14    1    1    2    0    0 -0.31683407959E-02 -0.66154798702E-02 -0.22247331760E-01  0.23425343706E-01  0.00000000000E+00 0. -1.
     999901    1    3    3    0    0  0.46909746189E-01 -0.29298727101E-01  0.13575122911E+00  0.89212517950E+00  0.88000000000E+00 0.  1.
        -11    1    4    4    0    0 -0.18312184768E-01  0.27745211630E-01 -0.64703087913E-01  0.72745333774E-01  0.51100000000E-03 0.  1.
         11    1    4    4    0    0 -0.25429220625E-01  0.81689953411E-02 -0.48800809438E-01  0.55634143017E-01  0.51100000000E-03 0. -1.
</event>
<event>
 8    1  0.1120016E+005  0.1043930E+01  0.7957747E-01            NaN
         13   -1    0    0    0    0  0.00000000000E+00  0.00000000000E+00  0.74505805969E-08  0.10566000000E+00  0.10566000000E+00 0. -1.
     999900   -1    0    0    0    0 -0.00000000000E+00 -0.00000000000E+00 -0.74505805969E-08  0.93827000000E+00  0.93827000000E+00 0.  1.
     999902    2    1    2    0    0 -0.95933838133E-02 -0.21035591689E-01 -0.52494046934E-02  0.10202216601E+01  0.10199461507E+01 0.  0.
     999903    2    3    3    0    0 -0.94298170506E-01 -0.46087316100E-01  0.77517962271E-01  0.13193514844E+00  0.19536203638E-01 0.  0.
         14    1    1    2    0    0  0.95933838133E-02  0.21035591689E-01  0.52494046934E-02  0.23708339890E-01  0.00000000000E+00 0. -1.
     999901    1    3    3    0    0  0.84704786693E-01  0.25051724411E-01 -0.82767366964E-01  0.88828651167E+00  0.88000000000E+00 0.  1.
        -11    1    4    4    0    0 -0.48864017713E-01 -0.34654010725E-01  0.43360249445E-01  0.73952451205E-01  0.51100000000E-03 0.  1.
         11    1    4    4    0    0 -0.45434152793E-01 -0.11433305375E-01  0.34157712826E-01  0.57982697233E-01  0.51100000000E-03 0. -1.
</event>
<event>
 8    1  0.1120016E+005  0.1043930E+01  0.7957747E-01            NaN
         13   -1    0    0    0    0  0.00000000000E+00  0.00000000000E+00  0.74505805969E-08  0.10566000000E+00  0.10566000000E+00 0. -1.
     999900   -1    0    0    0    0 -0.00000000000E+00 -0.00000000000E+00 -0.74505805969E-08  0.93827000000E+00  0.93827000000E+00 0. -1.
     999902    2    1    2    0    0 -0.83699867175E-02  0.37857564811E-02  0.21817419400E-01  0.10202574754E+01  0.10199828076E+01 0.  0.
     999903    2    3    3    0    0 -0.12142750616E+00 -0.37039108619E-01  0.30034475174E-01  0.13204793242E+00  0.20446318411E-01 0.  0.
         14    1    1    2    0    0  0.83699867175E-02 -0.37857564811E-02 -0.21817419400E-01  0.23672524560E-01  0.00000000000E+00 0.  1.
     999901    1    3    3    0    0  0.11305751944E+00  0.40824865101E-01 -0.82170557742E-02  0.88820954302E+00  0.88000000000E+00 0.  1.
        -11    1    4    4    0    0 -0.79270011223E-01 -0.14885307818E-01  0.23243801819E-01  0.83939516988E-01  0.51100000000E-03 0.  1.
         11    1    4    4    0    0 -0.42157494937E-01 -0.22153800802E-01  0.67906733549E-02  0.48108415428E-01  0.51100000000E-03 0. -1.
</event>
<event>
 8    1  0.1120016E+005  0.1043930E+01  0.7957747E-01            NaN
         13   -1    0    0    0    0  0.00000000000E+00  0.00000000000E+00  0.74505805969E-08  0.10566000000E+00  0.10566000000E+00 0. -1.
     999900   -1    0    0    0    0 -0.00000000000E+00 -0.00000000000E+00 -0.74505805969E-08  0.93827000000E+00  0.93827000000E+00 0. -1.
     999902    2    1    2    0    0  0.21058414525E-01 -0.14606255418E-01  0.84977917426E-02  0.10169297781E+01  0.10165712772E+01 0.  0.
     999903    2    3    3    0    0 -0.65233112814E-01 -0.81669728546E-01 -0.69270842623E-01  0.12676591810E+00  0.18596902554E-01 0.  0.
         14    1    1    2    0    0 -0.21058414525E-01  0.14606255418E-01 -0.84977917426E-02  0.27000221927E-01  0.00000000000E+00 0.  1.
     999901    1    3    3    0    0  0.86291527338E-01  0.67063473128E-01  0.77768634366E-01  0.89016385998E+00  0.88000000000E+00 0.  1.
        -11    1    4    4    0    0 -0.22288797580E-01 -0.22557085552E-01 -0.30713418532E-01  0.44149607078E-01  0.51100000000E-03 0. -1.
         11    1    4    4    0    0 -0.42944315233E-01 -0.59112642994E-01 -0.38557424091E-01  0.82616311017E-01  0.51100000000E-03 0.  1.
</event>
<event>
 8    1  0.1128786E+005  0.1043930E+01  0.7957747E-01            NaN
         13   -1    0    0    0    0  0.00000000000E+00  0.00000000000E+00  0.74505805969E-08  0.10566000000E+00  0.10566000000E+00 0.  1.
     999900   -1    0    0    0    0 -0.00000000000E+00 -0.00000000000E+00 -0.74505805969E-08  0.93827000000E+00  0.93827000000E+00 0.  1.
     999902    2    1    2    0    0 -0.18352093173E-01 -0.47110488677E-03 -0.14023108051E-01  0.10208287268E+01  0.10205673033E+01 0.  0.
     999903    2    3    3    0    0  0.10182934134E-01 -0.73853792085E-01  0.10388350926E+00  0.12948073810E+00  0.20381444763E-01 0.  0.
         14    1    1    2    0    0  0.18352093173E-01  0.47110488677E-03  0.14023108051E-01  0.23101273192E-01  0.00000000000E+00 0.  1.
     999901    1    3    3    0    0 -0.28535027308E-01  0.73382687198E-01 -0.11790661731E+00  0.89134798871E+00  0.88000000000E+00 0.  1.
        -11    1    4    4    0    0 -0.60959718949E-02 -0.26256836254E-01  0.37723366233E-01  0.46366968894E-01  0.51100000000E-03 0.  1.
         11    1    4    4    0    0  0.16278906029E-01 -0.47596955831E-01  0.66160143026E-01  0.83113769209E-01  0.51100000000E-03 0. -1.
</event>
<event>
 8    1  0.1120016E+005  0.1043930E+01  0.7957747E-01            NaN
         13   -1    0    0    0    0  0.00000000000E+00  0.00000000000E+00  0.74505805969E-08  0.10566000000E+00  0.10566000000E+00 0. -1.
     999900   -1    0    0    0    0 -0.00000000000E+00 -0.00000000000E+00 -0.74505805969E-08  0.93827000000E+00  0.93827000000E+00 0. -1.
     999902    2    1    2    0    0 -0.72194542632E-02 -0.82947614687E-02  0.22288542796E-01  0.10190763740E+01  0.10187732590E+01 0.  0.
     999903    2    3    3    0    0  0.44458520426E-01  0.11768172836E+00 -0.12140059707E-01  0.12793888864E+00  0.19885395370E-01 0.  0.
         14    1    1    2    0    0  0.72194542632E-02  0.82947614687E-02 -0.22288542796E-01  0.24853626047E-01  0.00000000000E+00 0.  1.
     999901    1    3    3    0    0 -0.51677974689E-01 -0.12597648983E+00  0.34428602504E-01  0.89113748531E+00  0.88000000000E+00 0.  1.
        -11    1    4    4    0    0  0.31343311320E-01  0.97073429776E-01 -0.36562774812E-02  0.10207489123E+00  0.51100000000E-03 0.  1.
         11    1    4    4    0    0  0.13115209106E-01  0.20608298583E-01 -0.84837822263E-02  0.25863997415E-01  0.51100000000E-03 0. -1.
</event>
<event>
 8    1  0.1120016E+005  0.1043930E+01  0.7957747E-01            NaN
         13   -1    0    0    0    0  0.00000000000E+00  0.00000000000E+00  0.74505805969E-08  0.10566000000E+00  0.10566000000E+00 0.  1.
     999900   -1    0    0    0    0 -0.00000000000E+00 -0.00000000000E+00 -0.74505805969E-08  0.93827000000E+00  0.93827000000E+00 0. -1.
     999902    2    1    2    0    0  0.25741912071E-01 -0.24822790862E-01  0.15621217063E-02  0.10081353467E+01  0.10074996873E+01 0.  0.
     999903    2    3    3    0    0  0.43829763916E-01 -0.11371361251E+00 -0.24016435014E-03  0.12347044016E+00  0.19825691432E-01 0.  0.
         14    1    1    2    0    0 -0.25741912071E-01  0.24822790862E-01 -0.15621217063E-02  0.35794653337E-01  0.00000000000E+00 0.  1.
     999901    1    3    3    0    0 -0.18087851845E-01  0.88890821646E-01  0.18022860565E-02  0.88466490650E+00  0.88000000000E+00 0.  1.
        -11    1    4    4    0    0  0.11954462972E-01 -0.31612724184E-01 -0.89545017555E-02  0.34967381057E-01  0.51100000000E-03 0.  1.
         11    1    4    4    0    0  0.31875300944E-01 -0.82100888324E-01  0.87143374054E-02  0.88503059107E-01  0.51100000000E-03 0. -1.
</event>
<event>
 8    1  0.1120016E+005  0.1043930E+01  0.7957747E-01            NaN
         13   -1    0    0    0    0  0.00000000000E+00  0.00000000000E+00  0.74505805969E-08  0.10566000000E+00  0.10566000000E+00 0.  1.
     999900   -1    0    0    0    0 -0.00000000000E+00 -0.00000000000E+00 -0.74505805969E-08  0.93827000000E+00  0.93827000000E+00 0. -1.
     999902    2    1    2    0    0 -0.11946424112E-01 -0.93359081738E-02  0.20064131081E-01  0.10187815291E+01  0.10184710887E+01 0.  0.
     999903    2    3    3    0    0  0.17151233585E-01  0.10730487994E-01  0.12832201686E+00  0.13144331641E+00  0.20037395825E-01 0.  0.
         14    1    1    2    0    0  0.11946424112E-01  0.93359081738E-02 -0.20064131081E-01  0.25148470859E-01  0.00000000000E+00 0. -1.
     999901    1    3    3    0    0 -0.29097657697E-01 -0.20066396168E-01 -0.10825788578E+00  0.88733821273E+00  0.88000000000E+00 0. -1.
        -11    1    4    4    0    0 -0.78077489124E-03 -0.24584133527E-02  0.48579027465E-01  0.48650143228E-01  0.51100000000E-03 0. -1.
         11    1    4    4    0    0  0.17932008477E-01  0.13188901347E-01  0.79742989396E-01  0.82793173183E-01  0.51100000000E-03 0.  1.
</event>
<event>
 8    1  0.1120016E+005  0.1043930E+01  0.7957747E-01            NaN
         13   -1    0    0    0    0  0.00000000000E+00  0.00000000000E+00  0.74505805969E-08  0.10566000000E+00  0.10566000000E+00 0.  1.
     999900   -1    0    0    0    0 -0.00000000000E+00 -0.00000000000E+00 -0.74505805969E-08  0.93827000000E+00  0.93827000000E+00 0.  1.
     999902    2    1    2    0    0 -0.26058350156E-01 -0.39454257353E-02 -0.41245820509E-02  0.10172538651E+01  0.10169040318E+01 0.  0.
     999903    2    3    3    0    0 -0.82558468407E-01  0.55008412185E-01  0.80793796741E-01  0.12940311781E+00  0.19383064547E-01 0.  0.
         14    1    1    2    0    0  0.26058350156E-01  0.39454257353E-02  0.41245820509E-02  0.26676134918E-01  0.00000000000E+00 0.  1.
     999901    1    3    3    0    0  0.56500118251E-01 -0.58953837920E-01 -0.84918378792E-01  0.88785074727E+00  0.88000000000E+00 0. -1.
        -11    1    4    4    0    0 -0.30570662148E-01  0.30591260633E-01  0.29111281993E-01  0.52135577791E-01  0.51100000000E-03 0.  1.
         11    1    4    4    0    0 -0.51987806258E-01  0.24417151552E-01  0.51682514748E-01  0.77267540023E-01  0.51100000000E-03 0. -1.
</event>
<event>
 8    1  0.1120016E+005  0.1043930E+01  0.7957747E-01            NaN
         13   -1    0    0    0    0  0.00000000000E+00  0.00000000000E+00  0.74505805969E-08  0.10566000000E+00  0.10566000000E+00 0. -1.
     999900   -1    0    0    0    0 -0.00000000000E+00 -0.00000000000E+00 -0.74505805969E-08  0.93827000000E+00  0.93827000000E+00 0.  1.
     999902    2    1    2    0    0 -0.20650674213E-01 -0.11478157013E-01  0.10133634427E-01  0.10182222389E+01  0.10178976564E+01 0.  0.
     999903    2    3    3    0    0 -0.83922319886E-01  0.82871875379E-01 -0.47935367872E-01  0.12902190220E+00  0.20931991108E-01 0.  0.
         14    1    1    2    0    0  0.20650674213E-01  0.11478157013E-01 -0.10133634427E-01  0.25707761096E-01  0.00000000000E+00 0. -1.
     999901    1    3    3    0    0  0.63271645673E-01 -0.94350032391E-01  0.58069002298E-01  0.88920033670E+00  0.88000000000E+00 0. -1.
        -11    1    4    4    0    0 -0.35717154812E-01  0.26921308616E-01 -0.27044044957E-01  0.52269623053E-01  0.51100000000E-03 0.  1.
         11    1    4    4    0    0 -0.48205165075E-01  0.55950566763E-01 -0.20891322914E-01  0.76752279152E-01  0.51100000000E-03 0. -1.
</event>
<event>
 8    1  0.1120016E+005  0.1043930E+01  0.7957747E-01            NaN
         13   -1    0    0    0    0  0.00000000000E+00  0.00000000000E+00  0.74505805969E-08  0.10566000000E+00  0.10566000000E+00 0.  1.
     999900   -1    0    0    0    0 -0.00000000000E+00 -0.00000000000E+00 -0.74505805969E-08  0.93827000000E+00  0.93827000000E+00 0.  1.
     999902    2    1    2    0    0  0.16911106828E-02 -0.19874299933E-01 -0.59235864808E-02  0.10231228731E+01  0.10229112752E+01 0.  0.
     999903    2    3    3    0    0  0.12097729167E+00 -0.55298054506E-01  0.80475643183E-02  0.13425886302E+00  0.16349283588E-01 0.  0.
         14    1    1    2    0    0 -0.16911106828E-02  0.19874299933E-01  0.59235864808E-02  0.20807126903E-01  0.00000000000E+00 0.  1.
     999901    1    3    3    0    0 -0.11928618099E+00  0.35423754573E-01 -0.13971150799E-01  0.88886401008E+00  0.88000000000E+00 0. -1.
        -11    1    4    4    0    0  0.65475722190E-01 -0.35027696125E-01  0.11136921218E-01  0.75088626484E-01  0.51100000000E-03 0. -1.
         11    1    4    4    0    0  0.55501569484E-01 -0.20270358381E-01 -0.30893568993E-02  0.59170236531E-01  0.51100000000E-03 0.  1.
</event>
<event>
 8    1  0.1120016E+005  0.1043930E+01  0.7957747E-01            NaN
         13   -1    0    0    0    0  0.00000000000E+00  0.00000000000E+00  0.74505805969E-08  0.10566000000E+00  0.10566000000E+00 0.  1.
     999900   -1    0    0    0    0 -0.00000000000E+00 -0.00000000000E+00 -0.74505805969E-08  0.93827000000E+00  0.93827000000E+00 0.  1.
     999902    2    1    2    0    0 -0.36912811513E-02  0.15689567449E-01  0.17485303183E-01  0.10201492534E+01  0.10198720387E+01 0.  0.
     999903    2    3    3    0    0  0.44505887396E-01 -0.67958693465E-01 -0.95540241932E-01  0.12768369523E+00  0.24000628488E-01 0.  0.
         14    1    1    2    0    0  0.36912811513E-02 -0.15689567449E-01 -0.17485303183E-01  0.23780746638E-01  0.00000000000E+00 0. -1.
     999901    1    3    3    0    0 -0.48197168547E-01  0.83648260913E-01  0.11302554512E+00  0.89246555814E+00  0.88000000000E+00 0. -1.
        -11    1    4    4    0    0  0.60936700728E-02 -0.12479999477E-01 -0.32463161009E-01  0.35312903387E-01  0.51100000000E-03 0.  1.
         11    1    4    4    0    0  0.38412217323E-01 -0.55478693987E-01 -0.63077080922E-01  0.92370791839E-01  0.51100000000E-03 0. -1.
</event>
<event>
 8    1  0.1120016E+005  0.1043930E+01  0.7957747E-01            NaN
         13   -1    0    0    0    0  0.00000000000E+00  0.00000000000E+00  0.74505805969E-08  0.10566000000E+00  0.10566000000E+00 0.  1.
     999900   -1    0    0    0    0 -0.00000000000E+00 -0.00000000000E+00 -0.74505805969E-08  0.93827000000E+00  0.93827000000E+00 0. -1.
     999902    2    1    2    0    0 -0.21588327002E-01 -0.78986413126E-03 -0.76569465200E-02  0.10210103888E+01  0.10207531070E+01 0.  0.
     999903    2    3    3    0    0  0.14870970136E-01 -0.12866829899E+00 -0.18583444955E-03  0.13098904524E+00  0.19529939129E-01 0.  0.
         14    1    1    2    0    0  0.21588327002E-01  0.78986413126E-03  0.76569465200E-02  0.22919611212E-01  0.00000000000E+00 0.  1.
     999901    1    3    3    0    0 -0.36459297138E-01  0.12787843486E+00 -0.74711120705E-02  0.89002134354E+00  0.88000000000E+00 0.  1.
        -11    1    4    4    0    0 -0.13427306373E-02 -0.55058985623E-01 -0.59239014888E-02  0.55395383862E-01  0.51100000000E-03 0. -1.
         11    1    4    4    0    0  0.16213700774E-01 -0.73609313365E-01  0.57380670392E-02  0.75593661382E-01  0.51100000000E-03 0.  1.
</event>
<event>
 8    1  0.1120016E+005  0.1043930E+01  0.7957747E-01            NaN
         13   -1    0    0    0    0  0.00000000000E+00  0.00000000000E+00  0.74505805969E-08  0.10566000000E+00  0.10566000000E+00 0.  1.
     999900   -1    0    0    0    0 -0.00000000000E+00 -0.00000000000E+00 -0.74505805969E-08  0.93827000000E+00  0.93827000000E+00 0. -1.
     999902    2    1    2    0    0  0.29869930474E-03  0.25636296851E-01 -0.81740052295E-03  0.10182789361E+01  0.10179558019E+01 0.  0.
     999903    2    3    3    0    0  0.96896088569E-01 -0.75588557023E-01  0.24375014660E-01  0.12686871375E+00  0.19976167226E-01 0.  0.
         14    1    1    2    0    0 -0.29869930474E-03 -0.25636296851E-01  0.81740052295E-03  0.25651063937E-01  0.00000000000E+00 0. -1.
     999901    1    3    3    0    0 -0.96597389264E-01  0.10122485387E+00 -0.25192415182E-01  0.89141022231E+00  0.88000000000E+00 0.  1.
        -11    1    4    4    0    0  0.51798439404E-01 -0.37108760632E-01  0.22422451706E-01  0.67551209478E-01  0.51100000000E-03 0. -1.
         11    1    4    4    0    0  0.45097649165E-01 -0.38479796391E-01  0.19525629539E-02  0.59317504276E-01  0.51100000000E-03 0.  1.
</event>
<event>
 8    1  0.1120016E+005  0.1043930E+01  0.7957747E-01            NaN
         13   -1    0    0    0    0  0.00000000000E+00  0.00000000000E+00  0.74505805969E-08  0.10566000000E+00  0.10566000000E+00 0. -1.
     999900   -1    0    0    0    0 -0.00000000000E+00 -0.00000000000E+00 -0.74505805969E-08  0.93827000000E+00  0.93827000000E+00 0. -1.
     999902    2    1    2    0    0 -0.21025906001E-01  0.39704776143E-02  0.98171110878E-02  0.10203879295E+01  0.10201163157E+01 0.  0.
     999903    2    3    3    0    0  0.36826170469E-01  0.12315591913E+00  0.10163745923E-01  0.13047099379E+00  0.19895508056E-01 0.  0.
         14    1    1    2    0    0  0.21025906001E-01 -0.39704776143E-02 -0.98171110878E-02  0.23542070549E-01  0.00000000000E+00 0. -1.
     999901    1    3    3    0    0 -0.57852076470E-01 -0.11918544152E+00 -0.34663483504E-03  0.88991693566E+00  0.88000000000E+00 0.  1.
        -11    1    4    4    0    0  0.24543667084E-02  0.40163923669E-01  0.35432546717E-02  0.40397777848E-01  0.51100000000E-03 0.  1.
         11    1    4    4    0    0  0.34371803761E-01  0.82991995462E-01  0.66204912511E-02  0.90073215941E-01  0.51100000000E-03 0. -1.
</event>
<event>
 8    1  0.1120016E+005  0.1043930E+01  0.7957747E-01            NaN
         13   -1    0    0    0    0  0.00000000000E+00  0.00000000000E+00  0.74505805969E-08  0.10566000000E+00  0.10566000000E+00 0. -1.
     999900   -1    0    0    0    0 -0.00000000000E+00 -0.00000000000E+00 -0.74505805969E-08  0.93827000000E+00  0.93827000000E+00 0. -1.
     999902    2    1    2    0    0  0.36433582040E-02 -0.13673711593E-01  0.19278927607E-01  0.10200151197E+01  0.10197347317E+01 0.  0.
     999903    2    3    3    0    0  0.95112518729E-01  0.83015457707E-01  0.23510325660E-01  0.12999640786E+00  0.20208245991E-01 0.  0.
         14    1    1    2    0    0 -0.36433582040E-02  0.13673711593E-01 -0.19278927607E-01  0.23914880251E-01  0.00000000000E+00 0.  1.
     999901    1    3    3    0    0 -0.91469160525E-01 -0.96689169300E-01 -0.42313980538E-02  0.89001871189E+00  0.88000000000E+00 0.  1.
        -11    1    4    4    0    0  0.18721070271E-01  0.67518797230E-02  0.37311971835E-02  0.20254611952E-01  0.51100000000E-03 0. -1.
         11    1    4    4    0    0  0.76391448458E-01  0.76263577984E-01  0.19779128477E-01  0.10974179591E+00  0.51100000000E-03 0.  1.
</event>
<event>
 8    1  0.1120016E+005  0.1043930E+01  0.7957747E-01            NaN
         13   -1    0    0    0    0  0.00000000000E+00  0.00000000000E+00  0.74505805969E-08  0.10566000000E+00  0.10566000000E+00 0. -1.
     999900   -1    0    0    0    0 -0.00000000000E+00 -0.00000000000E+00 -0.74505805969E-08  0.93827000000E+00  0.93827000000E+00 0.  1.
     999902    2    1    2    0    0  0.32270102870E-02  0.23593933545E-01 -0.89255818586E-03  0.10200996841E+01  0.10198212988E+01 0.  0.
     999903    2    3    3    0    0 -0.11840546462E+00  0.21329453223E-01  0.47091782692E-01  0.13043565550E+00  0.17917159428E-01 0.  0.
         14    1    1    2    0    0 -0.32270102870E-02 -0.23593933545E-01  0.89255818586E-03  0.23830315894E-01  0.00000000000E+00 0.  1.
     999901    1    3    3    0    0  0.12163247491E+00  0.22644803216E-02 -0.47984340878E-01  0.88966402860E+00  0.88000000000E+00 0. -1.
        -11    1    4    4    0    0 -0.58947516821E-01  0.15873718001E-02  0.21806212285E-01  0.62873694848E-01  0.51100000000E-03 0. -1.
         11    1    4    4    0    0 -0.59457947800E-01  0.19742081423E-01  0.25285570407E-01  0.67561960653E-01  0.51100000000E-03 0.  1.
</event>
<event>
 8    1  0.1120016E+005  0.1043930E+01  0.7957747E-01            NaN
         13   -1    0    0    0    0  0.00000000000E+00  0.00000000000E+00  0.74505805969E-08  0.10566000000E+00  0.10566000000E+00 0.  1.
     999900   -1    0    0    0    0 -0.00000000000E+00 -0.00000000000E+00 -0.74505805969E-08  0.93827000000E+00  0.93827000000E+00 0. -1.
     999902    2    1    2    0    0 -0.19869439859E-01  0.14530809119E-01  0.19988895202E-02  0.10192331457E+01  0.10189338892E+01 0.  0.
     999903    2    3    3    0    0  0.39125459261E-02  0.11619725387E+00 -0.57080952430E-01  0.13109347392E+00  0.20252257929E-01 0.  0.
         14    1    1    2    0    0  0.19869439859E-01 -0.14530809119E-01 -0.19988895202E-02  0.24696854320E-01  0.00000000000E+00 0.  1.
     999901    1    3    3    0    0 -0.23781985785E-01 -0.10166644475E+00  0.59079841951E-01  0.88813967176E+00  0.88000000000E+00 0. -1.
        -11    1    4    4    0    0  0.24849508232E-02  0.20507932697E-01 -0.19072689952E-01  0.28120791367E-01  0.51100000000E-03 0. -1.
         11    1    4    4    0    0  0.14275951030E-02  0.95689321171E-01 -0.38008262478E-01  0.10297268255E+00  0.51100000000E-03 0.  1.
</event>
<event>
 8    1  0.1120016E+005  0.1043930E+01  0.7957747E-01            NaN
         13   -1    0    0    0    0  0.00000000000E+00  0.00000000000E+00  0.74505805969E-08  0.10566000000E+00  0.10566000000E+00 0.  1.
     999900   -1    0    0    0    0 -0.00000000000E+00 -0.00000000000E+00 -0.74505805969E-08  0.93827000000E+00  0.93827000000E+00 0. -1.
     999902    2    1    2    0    0 -0.10597415029E-01  0.20899711882E-01  0.37860484130E-02  0.10201931652E+01  0.10199169854E+01 0.  0.
     999903    2    3    3    0    0  0.60212028194E-02  0.11695920129E+00 -0.58693136593E-01  0.13260809747E+00  0.20598873310E-01 0.  0.
         14    1    1    2    0    0  0.10597415029E-01 -0.20899711882E-01 -0.37860484130E-02  0.23736834764E-01  0.00000000000E+00 0.  1.
     999901    1    3    3    0    0 -0.16618617848E-01 -0.96059489407E-01  0.62479185006E-01  0.88758506777E+00  0.88000000000E+00 0.  1.
        -11    1    4    4    0    0 -0.64580142690E-02  0.55891901184E-01 -0.32665092212E-01  0.65060586659E-01  0.51100000000E-03 0.  1.
         11    1    4    4    0    0  0.12479217088E-01  0.61067300105E-01 -0.26028044381E-01  0.67547510809E-01  0.51100000000E-03 0. -1.
</event>
<event>
 8    1  0.1120016E+005  0.1043930E+01  0.7957747E-01            NaN
         13   -1    0    0    0    0  0.00000000000E+00  0.00000000000E+00  0.74505805969E-08  0.10566000000E+00  0.10566000000E+00 0.  1.
     999900   -1    0    0    0    0 -0.00000000000E+00 -0.00000000000E+00 -0.74505805969E-08  0.93827000000E+00  0.93827000000E+00 0. -1.
     999902    2    1    2    0    0 -0.16068642252E-01 -0.16986445656E-01 -0.55617662074E-02  0.10198951536E+01  0.10196119117E+01 0.  0.
     999903    2    3    3    0    0  0.51768570246E-01  0.50460878949E-01 -0.10511769645E+00  0.12913008227E+00  0.19964039410E-01 0.  0.
         14    1    1    2    0    0  0.16068642252E-01  0.16986445656E-01  0.55617662074E-02  0.24034846436E-01  0.00000000000E+00 0.  1.
     999901    1    3    3    0    0 -0.67837212497E-01 -0.67447324605E-01  0.99555930244E-01  0.89076507130E+00  0.88000000000E+00 0.  1.
        -11    1    4    4    0    0  0.17192352354E-02 -0.17658653941E-02 -0.51808595490E-02  0.57599025210E-02  0.51100000000E-03 0. -1.
         11    1    4    4    0    0  0.50049335010E-01  0.52226744343E-01 -0.99936836903E-01  0.12337017975E+00  0.51100000000E-03 0.  1.
</event>
<event>
 8    1  0.1120016E+005  0.1043930E+01  0.7957747E-01            NaN
         13   -1    0    0    0    0  0.00000000000E+00  0.00000000000E+00  0.74505805969E-08  0.10566000000E+00  0.10566000000E+00 0. -1.
     999900   -1    0    0    0    0 -0.00000000000E+00 -0.00000000000E+00 -0.74505805969E-08  0.93827000000E+00  0.93827000000E+00 0. -1.
     999902    2    1    2    0    0 -0.59273501695E-02  0.33980141965E-01 -0.72347597978E-02  0.10086862023E+01  0.10080702998E+01 0.  0.
     999903    2    3    3    0    0 -0.35055035472E-01 -0.43031285304E-02  0.11264172601E+00  0.11925694557E+00  0.16931869363E-01 0.  0.
         14    1    1    2    0    0  0.59273501695E-02 -0.33980141965E-01  0.72347597978E-02  0.35243797715E-01  0.00000000000E+00 0.  1.
     999901    1    3    3    0    0  0.29127685303E-01  0.38283270496E-01 -0.11987648581E+00  0.88942925672E+00  0.88000000000E+00 0. -1.
        -11    1    4    4    0    0 -0.19331289594E-01  0.55751523074E-02  0.49367027546E-01  0.53311777408E-01  0.51100000000E-03 0. -1.
         11    1    4    4    0    0 -0.15723745878E-01 -0.98782808378E-02  0.63274698468E-01  0.65945168162E-01  0.51100000000E-03 0.  1.
</event>
<event>
 8    1  0.1120016E+005  0.1043930E+01  0.7957747E-01            NaN
         13   -1    0    0    0    0  0.00000000000E+00  0.00000000000E+00  0.74505805969E-08  0.10566000000E+00  0.10566000000E+00 0.  1.
     999900   -1    0    0    0    0 -0.00000000000E+00 -0.00000000000E+00 -0.74505805969E-08  0.93827000000E+00  0.93827000000E+00 0.  1.
     999902    2    1    2    0    0 -0.40830403087E-03  0.23604892277E-01  0.85837003370E-03  0.10203059773E+01  0.10200324469E+01 0.  0.
     999903    2    3    3    0    0 -0.91523245834E-01  0.22046286152E-01  0.88963003113E-01  0.13122398540E+00  0.21042223260E-01 0.  0.
         14    1    1    2    0    0  0.40830403087E-03 -0.23604892277E-01 -0.85837003370E-03  0.23624022746E-01  0.00000000000E+00 0. -1.
     999901    1    3    3    0    0  0.91114941803E-01  0.15586061247E-02 -0.88104633080E-01  0.88908199186E+00  0.88000000000E+00 0.  1.
        -11    1    4    4    0    0 -0.40386142812E-01  0.16071902100E-01  0.29329699662E-01  0.52438907041E-01  0.51100000000E-03 0.  1.
         11    1    4    4    0    0 -0.51137103022E-01  0.59743840524E-02  0.59633303452E-01  0.78785078358E-01  0.51100000000E-03 0. -1.
</event>
<event>
 8    1  0.1120016E+005  0.1043930E+01  0.7957747E-01            NaN
         13   -1    0    0    0    0  0.00000000000E+00  0.00000000000E+00  0.74505805969E-08  0.10566000000E+00  0.10566000000E+00 0.  1.
     999900   -1    0    0    0    0 -0.00000000000E+00 -0.00000000000E+00 -0.74505805969E-08  0.93827000000E+00  0.93827000000E+00 0.  1.
     999902    2    1    2    0    0  0.11740139611E-01 -0.12697184300E-01 -0.16713995835E-01  0.10198799059E+01  0.10195963003E+01 0.  0.
     999903    2    3    3    0    0  0.11177820022E+00 -0.15399506784E-01 -0.67123360433E-01  0.13277448935E+00  0.19799208359E-01 0.  0.
         14    1    1    2    0    0 -0.11740139611E-01  0.12697184300E-01  0.16713995835E-01  0.24050094054E-01  0.00000000000E+00 0.  1.
     999901    1    3    3    0    0 -0.10003806061E+00  0.27023224836E-02  0.50409364598E-01  0.88710541660E+00  0.88000000000E+00 0.  1.
        -11    1    4    4    0    0  0.32874508447E-01 -0.12392732400E-01 -0.26257605589E-01  0.43863835836E-01  0.51100000000E-03 0. -1.
         11    1    4    4    0    0  0.78903691775E-01 -0.30067743838E-02 -0.40865754844E-01  0.88910653512E-01  0.51100000000E-03 0.  1.
</event>
<event>
 8    1  0.1120016E+005  0.1043930E+01  0.7957747E-01            NaN
         13   -1    0    0    0    0  0.00000000000E+00  0.00000000000E+00  0.74505805969E-08  0.10566000000E+00  0.10566000000E+00 0. -1.
     999900   -1    0    0    0    0 -0.00000000000E+00 -0.00000000000E+00 -0.74505805969E-08  0.93827000000E+00  0.93827000000E+00 0. -1.
     999902    2    1    2    0    0 -0.10828648758E-01 -0.16765046708E-01 -0.13245481114E-01  0.10199765202E+01  0.10196952155E+01 0.  0.
     999903    2    3    3    0    0 -0.10666861224E-02  0.10549014378E+00 -0.72546010620E-01  0.12949452693E+00  0.19406199922E-01 0.  0.
         14    1    1    2    0    0  0.10828648758E-01  0.16765046708E-01  0.13245481114E-01  0.23953479810E-01  0.00000000000E+00 0.  1.
     999901    1    3    3    0    0 -0.97619626353E-02 -0.12225519049E+00  0.59300529506E-01  0.89048199326E+00  0.88000000000E+00 0.  1.
        -11    1    4    4    0    0  0.51665306908E-03  0.93500320997E-01 -0.70758165995E-01  0.11725850132E+00  0.51100000000E-03 0.  1.
         11    1    4    4    0    0 -0.15833391915E-02  0.11989822780E-01 -0.17878446249E-02  0.12236025609E-01  0.51100000000E-03 0. -1.
</event>
<event>
 8    1  0.1120016E+005  0.1043930E+01  0.7957747E-01            NaN
         13   -1    0    0    0    0  0.00000000000E+00  0.00000000000E+00  0.74505805969E-08  0.10566000000E+00  0.10566000000E+00 0. -1.
     999900   -1    0    0    0    0 -0.00000000000E+00 -0.00000000000E+00 -0.74505805969E-08  0.93827000000E+00  0.93827000000E+00 0.  1.
     999902    2    1    2    0    0  0.32516015417E-01  0.81021392009E-02  0.94992157150E-02  0.10090993954E+01  0.10084981005E+01 0.  0.
     999903    2    3    3    0    0 -0.96749168624E-01 -0.59638318395E-01  0.19176695557E-01  0.11702769927E+00  0.20263417624E-01 0.  0.
         14    1    1    2    0    0 -0.32516015417E-01 -0.81021392009E-02 -0.94992157150E-02  0.34830604609E-01  0.00000000000E+00 0.  1.
     999901    1    3    3    0    0  0.12926518404E+00  0.67740457596E-01 -0.96774798423E-02  0.89207169612E+00  0.88000000000E+00 0. -1.
        -11    1    4    4    0    0 -0.66265585788E-01 -0.37446079485E-01  0.21946989979E-01  0.79216590553E-01  0.51100000000E-03 0.  1.
         11    1    4    4    0    0 -0.30483582836E-01 -0.22192238910E-01 -0.27702944219E-02  0.37811108719E-01  0.51100000000E-03 0. -1.
</event>
<event>
 8    1  0.1120016E+005  0.1043930E+01  0.7957747E-01            NaN
         13   -1    0    0    0    0  0.00000000000E+00  0.00000000000E+00  0.74505805969E-08  0.10566000000E+00  0.10566000000E+00 0. -1.
     999900   -1    0    0    0    0 -0.00000000000E+00 -0.00000000000E+00 -0.74505805969E-08  0.93827000000E+00  0.93827000000E+00 0.  1.
     999902    2    1    2    0    0  0.30922838316E-02 -0.77782770509E-02  0.22105644486E-01  0.10202926708E+01  0.10200188286E+01 0.  0.
     999903    2    3    3    0    0  0.12739428356E+00  0.23725677108E-01  0.11233378905E-02  0.13075136010E+00  0.17390947147E-01 0.  0.
         14    1    1    2    0    0 -0.30922838316E-02  0.77782770509E-02 -0.22105644486E-01  0.23637329192E-01  0.00000000000E+00 0.  1.
     999901    1    3    3    0    0 -0.12430199973E+00 -0.31503954159E-01  0.20982306595E-01  0.88954131071E+00  0.88000000000E+00 0. -1.
        -11    1    4    4    0    0  0.54196802972E-01  0.15461702590E-01  0.72825157733E-02  0.56830043607E-01  0.51100000000E-03 0. -1.
         11    1    4    4    0    0  0.73197480587E-01  0.82639745179E-02 -0.61591778828E-02  0.73921316495E-01  0.51100000000E-03 0.  1.
</event>
<event>
 8    1  0.1120016E+005  0.1043930E+01  0.7957747E-01            NaN
         13   -1    0    0    0    0  0.00000000000E+00  0.00000000000E+00  0.74505805969E-08  0.10566000000E+00  0.10566000000E+00 0.  1.
     999900   -1    0    0    0    0 -0.00000000000E+00 -0.00000000000E+00 -0.74505805969E-08  0.93827000000E+00  0.93827000000E+00 0.  1.
     999902    2    1    2    0    0  0.17871707236E-01  0.15706454749E-01 -0.82739773189E-03  0.10201229585E+01  0.10198451231E+01 0.  0.
     999903    2    3    3    0    0  0.39693794636E-01  0.26771220863E-02 -0.12357998975E+00  0.13123929573E+00  0.19208710575E-01 0.  0.
         14    1    1    2    0    0 -0.17871707236E-01 -0.15706454749E-01  0.82739773189E-03  0.23807041549E-01  0.00000000000E+00 0. -1.
     999901    1    3    3    0    0 -0.21822087400E-01  0.13029332663E-01  0.12275259202E+00  0.88888366272E+00  0.88000000000E+00 0. -1.
        -11    1    4    4    0    0  0.21272758206E-01 -0.16985830541E-02 -0.37970035889E-01  0.43559157160E-01  0.51100000000E-03 0. -1.
         11    1    4    4    0    0  0.18421036429E-01  0.43757051404E-02 -0.85609953859E-01  0.87680138569E-01  0.51100000000E-03 0.  1.
</event>
<event>
 8    1  0.1120016E+005  0.1043930E+01  0.7957747E-01            NaN
         13   -1    0    0    0    0  0.00000000000E+00  0.00000000000E+00  0.74505805969E-08  0.10566000000E+00  0.10566000000E+00 0. -1.
     999900   -1    0    0    0    0 -0.00000000000E+00 -0.00000000000E+00 -0.74505805969E-08  0.93827000000E+00  0.93827000000E+00 0. -1.
     999902    2    1    2    0    0 -0.24614311285E-02 -0.26311702886E-02 -0.22970392481E-01  0.10206787499E+01  0.10204138817E+01 0.  0.
     999903    2    3    3    0    0 -0.11913835223E+00  0.38565034276E-01  0.29688793074E-01  0.13046325857E+00  0.21401601828E-01 0.  0.
         14    1    1    2    0    0  0.24614311285E-02  0.26311702886E-02  0.22970392481E-01  0.23251250096E-01  0.00000000000E+00 0. -1.
     999901    1    3    3    0    0  0.11667692110E+00 -0.41196204565E-01 -0.52659185555E-01  0.89021549133E+00  0.88000000000E+00 0. -1.
        -11    1    4    4    0    0 -0.87779624830E-01  0.36003619630E-01  0.28118757342E-01  0.98956802683E-01  0.51100000000E-03 0. -1.
         11    1    4    4    0    0 -0.31358727403E-01  0.25614146463E-02  0.15700357322E-02  0.31506455887E-01  0.51100000000E-03 0.  1.
</event>
<event>
 8    1  0.1120016E+005  0.1043930E+01  0.7957747E-01            NaN
         13   -1    0    0    0    0  0.00000000000E+00  0.00000000000E+00  0.74505805969E-08  0.10566000000E+00  0.10566000000E+00 0.  1.
     999900   -1    0    0    0    0 -0.00000000000E+00 -0.00000000000E+00 -0.74505805969E-08  0.93827000000E+00  0.93827000000E+00 0.  1.
     999902    2    1    2    0    0 -0.31811105521E-02  0.23094440770E-01 -0.11402325795E-03  0.10206172211E+01  0.10203509329E+01 0.  0.
     999903    2    3    3    0    0  0.11877175428E+00 -0.19327791124E-01 -0.45407848087E-01  0.13004230703E+00  0.19205098959E-01 0.  0.
         14    1    1    2    0    0  0.31811105521E-02 -0.23094440770E-01  0.11402325795E-03  0.23312778902E-01  0.00000000000E+00 0.  1.
     999901    1    3    3    0    0 -0.12195286483E+00  0.42422231894E-01  0.45293824829E-01  0.89057491407E+00  0.88000000000E+00 0. -1.
        -11    1    4    4    0    0  0.32589111559E-01 -0.79912800762E-02 -0.21619317883E-01  0.39919503707E-01  0.51100000000E-03 0.  1.
         11    1    4    4    0    0  0.86182642718E-01 -0.11336511048E-01 -0.23788530204E-01  0.90122803323E-01  0.51100000000E-03 0. -1.
</event>
<event>
 8    1  0.1120016E+005  0.1043930E+01  0.7957747E-01            NaN
         13   -1    0    0    0    0  0.00000000000E+00  0.00000000000E+00  0.74505805969E-08  0.10566000000E+00  0.10566000000E+00 0. -1.
     999900   -1    0    0    0    0 -0.00000000000E+00 -0.00000000000E+00 -0.74505805969E-08  0.93827000000E+00  0.93827000000E+00 0. -1.
     999902    2    1    2    0    0  0.51637117338E-02  0.14940485856E-01 -0.17422949017E-01  0.10204046692E+01  0.10201334460E+01 0.  0.
     999903    2    3    3    0    0  0.12844343880E+00 -0.92184984688E-02  0.13643086636E-01  0.13094042248E+00  0.19405224575E-01 0.  0.
         14    1    1    2    0    0 -0.51637117338E-02 -0.14940485856E-01  0.17422949017E-01  0.23525330794E-01  0.00000000000E+00 0. -1.
     999901    1    3    3    0    0 -0.12327972707E+00  0.24158984325E-01 -0.31066035653E-01  0.88946424672E+00  0.88000000000E+00 0. -1.
        -11    1    4    4    0    0  0.73141162792E-01  0.18620059526E-02  0.11799502460E-02  0.73176158442E-01  0.51100000000E-03 0.  1.
         11    1    4    4    0    0  0.55302276012E-01 -0.11080504421E-01  0.12463136390E-01  0.57764264040E-01  0.51100000000E-03 0. -1.
</event>
<event>
 8    1  0.1120016E+005  0.1043930E+01  0.7957747E-01            NaN
         13   -1    0    0    0    0  0.00000000000E+00  0.00000000000E+00  0.74505805969E-08  0.10566000000E+00  0.10566000000E+00 0.  1.
     999900   -1    0    0    0    0 -0.00000000000E+00 -0.00000000000E+00 -0.74505805969E-08  0.93827000000E+00  0.93827000000E+00 0. -1.
     999902    2    1    2    0    0  0.22146134247E-01 -0.14929554778E-01 -0.16667654372E-01  0.10124474085E+01  0.10119578061E+01 0.  0.
     999903    2    3    3    0    0  0.31040878054E-01  0.47282042730E-02 -0.12057674436E+00  0.12607127896E+00  0.19217806163E-01 0.  0.
         14    1    1    2    0    0 -0.22146134247E-01  0.14929554778E-01  0.16667654372E-01  0.31482591542E-01  0.00000000000E+00 0.  1.
     999901    1    3    3    0    0 -0.88947438069E-02 -0.19657759051E-01  0.10390908998E+00  0.88637612950E+00  0.88000000000E+00 0.  1.
        -11    1    4    4    0    0 -0.21907343621E-02  0.24424817167E-02 -0.15003332489E-01  0.15366396480E-01  0.51100000000E-03 0. -1.
         11    1    4    4    0    0  0.33231612416E-01  0.22857225563E-02 -0.10557341187E+00  0.11070488248E+00  0.51100000000E-03 0.  1.
</event>
<event>
 8    1  0.1120016E+005  0.1043930E+01  0.7957747E-01            NaN
         13   -1    0    0    0    0  0.00000000000E+00  0.00000000000E+00  0.74505805969E-08  0.10566000000E+00  0.10566000000E+00 0.  1.
     999900   -1    0    0    0    0 -0.00000000000E+00 -0.00000000000E+00 -0.74505805969E-08  0.93827000000E+00  0.93827000000E+00 0. -1.
     999902    2    1    2    0    0 -0.98589042788E-02  0.21536964061E-01  0.52136374816E-02  0.10196767357E+01  0.10193882599E+01 0.  0.
     999903    2    3    3    0    0 -0.20135367751E-01 -0.72415189636E-01  0.10351670812E+00  0.12917344732E+00  0.17907481869E-01 0.  0.
         14    1    1    2    0    0  0.98589042788E-02 -0.21536964061E-01 -0.52136374816E-02  0.24253264323E-01  0.00000000000E+00 0. -1.
     999901    1    3    3    0    0  0.10276463472E-01  0.93952153697E-01 -0.98303070638E-01  0.89050328836E+00  0.88000000000E+00 0. -1.
        -11    1    4    4    0    0 -0.12605669971E-01 -0.18090060885E-01  0.35569999983E-01  0.41852589383E-01  0.51100000000E-03 0.  1.
         11    1    4    4    0    0 -0.75296977794E-02 -0.54325128751E-01  0.67946708136E-01  0.87320857932E-01  0.51100000000E-03 0. -1.
</event>
<event>
 8    1  0.1120016E+005  0.1043930E+01  0.7957747E-01            NaN
         13   -1    0    0    0    0  0.00000000000E+00  0.00000000000E+00  0.74505805969E-08  0.10566000000E+00  0.10566000000E+00 0. -1.
     999900   -1    0    0    0    0 -0.00000000000E+00 -0.00000000000E+00 -0.74505805969E-08  0.93827000000E+00  0.93827000000E+00 0. -1.
     999902    2    1    2    0    0 -0.22441795017E-02  0.23287858623E-01 -0.61373317376E-02  0.10197426574E+01  0.10194557665E+01 0.  0.
     999903    2    3    3    0    0  0.93324744994E-01 -0.83785241243E-01 -0.16714976378E-01  0.12805327505E+00  0.19717406949E-01 0.  0.
         14    1    1    2    0    0  0.22441795017E-02 -0.23287858623E-01  0.61373317376E-02  0.24187342594E-01  0.00000000000E+00 0. -1.
     999901    1    3    3    0    0 -0.95568924496E-01  0.10707309987E+00  0.10577644640E-01  0.89168938236E+00  0.88000000000E+00 0.  1.
        -11    1    4    4    0    0  0.46141672152E-01 -0.30502964326E-01 -0.18543959833E-02  0.55346044548E-01  0.51100000000E-03 0.  1.
         11    1    4    4    0    0  0.47183072842E-01 -0.53282276917E-01 -0.14860580395E-01  0.72707230500E-01  0.51100000000E-03 0. -1.
</event>
<event>
 8    1  0.1120016E+005  0.1043930E+01  0.7957747E-01            NaN
         13   -1    0    0    0    0  0.00000000000E+00  0.00000000000E+00  0.74505805969E-08  0.10566000000E+00  0.10566000000E+00 0.  1.
     999900   -1    0    0    0    0 -0.00000000000E+00 -0.00000000000E+00 -0.74505805969E-08  0.93827000000E+00  0.93827000000E+00 0.  1.
     999902    2    1    2    0    0 -0.22403085279E-01  0.58800154621E-02  0.25437115274E-02  0.10206288567E+01  0.10203628373E+01 0.  0.
     999903    2    3    3    0    0  0.12239637380E+00 -0.13884208671E-01 -0.29015818451E-01  0.12801835268E+00  0.19316763033E-01 0.  0.
         14    1    1    2    0    0  0.22403085279E-01 -0.58800154621E-02 -0.25437115274E-02  0.23301143323E-01  0.00000000000E+00 0. -1.
     999901    1    3    3    0    0 -0.14479945908E+00  0.19764224133E-01  0.31559529978E-01  0.89261050399E+00  0.88000000000E+00 0.  1.
        -11    1    4    4    0    0  0.60878458095E-01  0.27913651377E-02 -0.13806619273E-01  0.62488896903E-01  0.51100000000E-03 0.  1.
         11    1    4    4    0    0  0.61517915704E-01 -0.16675573808E-01 -0.15209199178E-01  0.65529455781E-01  0.51100000000E-03 0. -1.
</event>
<event>
 8    1  0.1120016E+005  0.1043930E+01  0.7957747E-01            NaN
         13   -1    0    0    0    0  0.00000000000E+00  0.00000000000E+00  0.74505805969E-08  0.10566000000E+00  0.10566000000E+00 0.  1.
     999900   -1    0    0    0    0 -0.00000000000E+00 -0.00000000000E+00 -0.74505805969E-08  0.93827000000E+00  0.93827000000E+00 0. -1.
     999902    2    1    2    0    0  0.14500384559E-01  0.85376097220E-02  0.16127835951E-01  0.10206220824E+01  0.10203559065E+01 0.  0.
     999903    2    3    3    0    0  0.11314681745E+00 -0.43802787677E-01 -0.46186850794E-01  0.13137872079E+00  0.20155807677E-01 0.  0.
         14    1    1    2    0    0 -0.14500384559E-01 -0.85376097220E-02 -0.16127835951E-01  0.23307917637E-01  0.00000000000E+00 0. -1.
     999901    1    3    3    0    0 -0.98646432888E-01  0.52340397399E-01  0.62314686745E-01  0.88924336158E+00  0.88000000000E+00 0. -1.
        -11    1    4    4    0    0  0.29600042960E-01 -0.66365820376E-02 -0.37526225798E-02  0.30570411538E-01  0.51100000000E-03 0.  1.
         11    1    4    4    0    0  0.83546774486E-01 -0.37166205640E-01 -0.42434228214E-01  0.10080830925E+00  0.51100000000E-03 0. -1.
</event>
<event>
 8    1  0.1120016E+005  0.1043930E+01  0.7957747E-01            NaN
         13   -1    0    0    0    0  0.00000000000E+00  0.00000000000E+00  0.74505805969E-08  0.10566000000E+00  0.10566000000E+00 0.  1.
     999900   -1    0    0    0    0 -0.00000000000E+00 -0.00000000000E+00 -0.74505805969E-08  0.93827000000E+00  0.93827000000E+00 0.  1.
     999902    2    1    2    0    0 -0.10606484289E-01 -0.13348910844E-01  0.16727619743E-01  0.10200447704E+01  0.10197650854E+01 0.  0.
     999903    2    3    3    0    0  0.12737329590E+00  0.14035919472E-01 -0.53848866573E-02  0.12859801845E+00  0.93535982439E-02 0.  0.
         14    1    1    2    0    0  0.10606484289E-01  0.13348910844E-01 -0.16727619743E-01  0.23885229577E-01  0.00000000000E+00 0. -1.
     999901    1    3    3    0    0 -0.13797978019E+00 -0.27384830317E-01  0.22112506400E-01  0.89144675198E+00  0.88000000000E+00 0. -1.
        -11    1    4    4    0    0  0.41405525121E-01  0.43976871013E-02 -0.61079182759E-02  0.42087111436E-01  0.51100000000E-03 0. -1.
         11    1    4    4    0    0  0.85967770778E-01  0.96382323711E-02  0.72303161864E-03  0.86510907009E-01  0.51100000000E-03 0.  1.
</event>
<event>
 8    1  0.1120016E+005  0.1043930E+01  0.7957747E-01            NaN
         13   -1    0    0    0    0  0.00000000000E+00  0.00000000000E+00  0.74505805969E-08  0.10566000000E+00  0.10566000000E+00 0. -1.
     999900   -1    0    0    0    0 -0.00000000000E+00 -0.00000000000E+00 -0.74505805969E-08  0.93827000000E+00  0.93827000000E+00 0.  1.
     999902    2    1    2    0    0 -0.12417212547E-01 -0.14670563629E-01 -0.14477410046E-01  0.10198674148E+01  0.10195835109E+01 0.  0.
     999903    2    3    3    0    0  0.11639013730E+00  0.28916411194E-01 -0.42772770770E-01  0.12897360229E+00  0.20539164323E-01 0.  0.
         14    1    1    2    0    0  0.12417212547E-01  0.14670563629E-01  0.14477410046E-01  0.24062585195E-01  0.00000000000E+00 0. -1.
     999901    1    3    3    0    0 -0.12880734984E+00 -0.43586974822E-01  0.28295360724E-01  0.89089381252E+00  0.88000000000E+00 0. -1.
        -11    1    4    4    0    0  0.80713662761E-01  0.12333490159E-01 -0.22412321842E-01  0.84672212840E-01  0.51100000000E-03 0. -1.
         11    1    4    4    0    0  0.35676474534E-01  0.16582921035E-01 -0.20360448928E-01  0.44301389446E-01  0.51100000000E-03 0.  1.
</event>
<event>
 8    1  0.1120016E+005  0.1043930E+01  0.7957747E-01            NaN
         13   -1    0    0    0    0  0.00000000000E+00  0.00000000000E+00  0.74505805969E-08  0.10566000000E+00  0.10566000000E+00 0. -1.
     999900   -1    0    0    0    0 -0.00000000000E+00 -0.00000000000E+00 -0.74505805969E-08  0.93827000000E+00  0.93827000000E+00 0. -1.
     999902    2    1    2    0    0  0.19843910445E-01  0.37902316673E-03 -0.92613117510E-02  0.10220280290E+01  0.10217933233E+01 0.  0.
     999903    2    3    3    0    0  0.65486756810E-01 -0.88657912214E-01 -0.72553780059E-01  0.13409966370E+00  0.23873166674E-01 0.  0.
         14    1    1    2    0    0 -0.19843910445E-01 -0.37902316673E-03  0.92613117510E-02  0.21901971045E-01  0.00000000000E+00 0.  1.
     999901    1    3    3    0    0 -0.45642846365E-01  0.89036935381E-01  0.63292468308E-01  0.88792836526E+00  0.88000000000E+00 0.  1.
        -11    1    4    4    0    0  0.21999157425E-01 -0.20824859516E-01 -0.93982323045E-02  0.31721059136E-01  0.51100000000E-03 0. -1.
         11    1    4    4    0    0  0.43487599386E-01 -0.67833052698E-01 -0.63155547754E-01  0.10237860456E+00  0.51100000000E-03 0.  1.
</event>
<event>
 8    1  0.1120016E+005  0.1043930E+01  0.7957747E-01            NaN
         13   -1    0    0    0    0  0.00000000000E+00  0.00000000000E+00  0.74505805969E-08  0.10566000000E+00  0.10566000000E+00 0. -1.
     999900   -1    0    0    0    0 -0.00000000000E+00 -0.00000000000E+00 -0.74505805969E-08  0.93827000000E+00  0.93827000000E+00 0.  1.
     999902    2    1    2    0    0 -0.10809963027E-01 -0.87723515174E-02  0.19063454792E-01  0.10203243913E+01  0.10200512922E+01 0.  0.
     999903    2    3    3    0    0 -0.84573554320E-01 -0.93213171960E-01 -0.33973677731E-01  0.13162632282E+00  0.18163054901E-01 0.  0.
         14    1    1    2    0    0  0.10809963027E-01  0.87723515174E-02 -0.19063454792E-01  0.23605608664E-01  0.00000000000E+00 0.  1.
     999901    1    3    3    0    0  0.73763591293E-01  0.84440820443E-01  0.53037132523E-01  0.88869806852E+00  0.88000000000E+00 0.  1.
        -11    1    4    4    0    0 -0.65213883537E-01 -0.80788118364E-01 -0.31416993660E-01  0.10847515516E+00  0.51100000000E-03 0.  1.
         11    1    4    4    0    0 -0.19359670783E-01 -0.12425053596E-01 -0.25566840708E-02  0.23151167663E-01  0.51100000000E-03 0. -1.
</event>
<event>
 8    1  0.1120016E+005  0.1043930E+01  0.7957747E-01            NaN
         13   -1    0    0    0    0  0.00000000000E+00  0.00000000000E+00  0.74505805969E-08  0.10566000000E+00  0.10566000000E+00 0.  1.
     999900   -1    0    0    0    0 -0.00000000000E+00 -0.00000000000E+00 -0.74505805969E-08  0.93827000000E+00  0.93827000000E+00 0. -1.
     999902    2    1    2    0    0 -0.25333551094E-01  0.15956407210E-02 -0.26146253562E-02  0.10184119447E+01  0.10180921952E+01 0.  0.
     999903    2    3    3    0    0 -0.96455628939E-01 -0.80785675774E-01 -0.29264049506E-01  0.13130697737E+00  0.23561068475E-01 0.  0.
         14    1    1    2    0    0  0.25333551094E-01 -0.15956407210E-02  0.26146253562E-02  0.25518055296E-01  0.00000000000E+00 0. -1.
     999901    1    3    3    0    0  0.71122077844E-01  0.82381316495E-01  0.26649424150E-01  0.88710496734E+00  0.88000000000E+00 0.  1.
        -11    1    4    4    0    0 -0.39013962887E-01 -0.29693171310E-01 -0.23048089224E-01  0.54177940718E-01  0.51100000000E-03 0. -1.
         11    1    4    4    0    0 -0.57441666052E-01 -0.51092504465E-01 -0.62159602820E-02  0.77129036650E-01  0.51100000000E-03 0.  1.
</event>
<event>
 8    1  0.1167804E+005  0.1043930E+01  0.7957747E-01            NaN
         13   -1    0    0    0    0  0.00000000000E+00  0.00000000000E+00  0.74505805969E-08  0.10566000000E+00  0.10566000000E+00 0. -1.
     999900   -1    0    0    0    0 -0.00000000000E+00 -0.00000000000E+00 -0.74505805969E-08  0.93827000000E+00  0.93827000000E+00 0. -1.
     999902    2    1    2    0    0  0.23348938254E-02 -0.20900601376E-02 -0.24140700875E-01  0.10195867562E+01  0.10192961100E+01 0.  0.
     999903    2    3    3    0    0 -0.25059751534E-02 -0.39131778550E-01 -0.12543128080E+00  0.13298915609E+00  0.20384637097E-01 0.  0.
         14    1    1    2    0    0 -0.23348938254E-02  0.20900601376E-02  0.24140700875E-01  0.24343243812E-01  0.00000000000E+00 0. -1.
     999901    1    3    3    0    0  0.48408689788E-02  0.37041718412E-01  0.10129057993E+00  0.88659760010E+00  0.88000000000E+00 0.  1.
        -11    1    4    4    0    0 -0.34537158568E-02 -0.24279366565E-01 -0.45579177943E-01  0.51760393903E-01  0.51100000000E-03 0. -1.
         11    1    4    4    0    0  0.94774070345E-03 -0.14852411985E-01 -0.79852102861E-01  0.81228762188E-01  0.51100000000E-03 0.  1.
</event>
<event>
 8    1  0.1120016E+005  0.1043930E+01  0.7957747E-01            NaN
         13   -1    0    0    0    0  0.00000000000E+00  0.00000000000E+00  0.74505805969E-08  0.10566000000E+00  0.10566000000E+00 0.  1.
     999900   -1    0    0    0    0 -0.00000000000E+00 -0.00000000000E+00 -0.74505805969E-08  0.93827000000E+00  0.93827000000E+00 0. -1.
     999902    2    1    2    0    0  0.15932316328E-01 -0.20353116544E-01 -0.30261837562E-02  0.10179060525E+01  0.10175733319E+01 0.  0.
     999903    2    3    3    0    0 -0.75703009163E-01 -0.57298760373E-01 -0.84399561362E-01  0.12864588804E+00  0.20307265052E-01 0.  0.
         14    1    1    2    0    0 -0.15932316328E-01  0.20353116544E-01  0.30261837562E-02  0.26023947524E-01  0.00000000000E+00 0.  1.
     999901    1    3    3    0    0  0.91635325491E-01  0.36945643829E-01  0.81373377606E-01  0.88926016444E+00  0.88000000000E+00 0. -1.
        -11    1    4    4    0    0 -0.65718128306E-01 -0.48743344396E-01 -0.61971778290E-01  0.10264281970E+00  0.51100000000E-03 0. -1.
         11    1    4    4    0    0 -0.99848808571E-02 -0.85554159766E-02 -0.22427783072E-01  0.26003068334E-01  0.51100000000E-03 0.  1.
</event>
<event>
 8    1  0.1120016E+005  0.1043930E+01  0.7957747E-01            NaN
         13   -1    0    0    0    0  0.00000000000E+00  0.00000000000E+00  0.74505805969E-08  0.10566000000E+00  0.10566000000E+00 0.  1.
     999900   -1    0    0    0    0 -0.00000000000E+00 -0.00000000000E+00 -0.74505805969E-08  0.93827000000E+00  0.93827000000E+00 0.  1.
     999902    2    1    2    0    0 -0.30227147292E-02  0.44167439417E-02 -0.24308289679E-01  0.10190394922E+01  0.10187354658E+01 0.  0.
     999903    2    3    3    0    0 -0.22026150349E-01  0.12553537539E+00 -0.19739589459E-01  0.13052853196E+00  0.20093891829E-01 0.  0.
         14    1    1    2    0    0  0.30227147292E-02 -0.44167439417E-02  0.24308289679E-01  0.24890507799E-01  0.00000000000E+00 0.  1.
     999901    1    3    3    0    0  0.19003435620E-01 -0.12111863145E+00 -0.45687002201E-02  0.88851096024E+00  0.88000000000E+00 0.  1.
        -11    1    4    4    0    0 -0.13274841144E-01  0.43126104735E-01 -0.14864660208E-01  0.47511067775E-01  0.51100000000E-03 0.  1.
         11    1    4    4    0    0 -0.87513092044E-02  0.82409270658E-01 -0.48749292513E-02  0.83017464183E-01  0.51100000000E-03 0. -1.
</event>
<event>
 8    1  0.1120016E+005  0.1043930E+01  0.7957747E-01            NaN
         13   -1    0    0    0    0  0.00000000000E+00  0.00000000000E+00  0.74505805969E-08  0.10566000000E+00  0.10566000000E+00 0.  1.
     999900   -1    0    0    0    0 -0.00000000000E+00 -0.00000000000E+00 -0.74505805969E-08  0.93827000000E+00  0.93827000000E+00 0.  1.
     999902    2    1    2    0    0  0.20715903406E-01 -0.20553918288E-02 -0.11457821179E-01  0.10201675305E+01  0.10198907468E+01 0.  0.
     999903    2    3    3    0    0  0.95947788309E-01  0.65665995761E-02 -0.90467934553E-01  0.13338865546E+00  0.18946976325E-01 0.  0.
         14    1    1    2    0    0 -0.20715903406E-01  0.20553918288E-02  0.11457821179E-01  0.23762469478E-01  0.00000000000E+00 0.  1.
     999901    1    3    3    0    0 -0.75231884903E-01 -0.86219914049E-02  0.79010113373E-01  0.88677887506E+00  0.88000000000E+00 0. -1.
        -11    1    4    4    0    0  0.43958103745E-01  0.92641005605E-02 -0.51603196024E-01  0.68419948881E-01  0.51100000000E-03 0.  1.
         11    1    4    4    0    0  0.51989684564E-01 -0.26975009844E-02 -0.38864738529E-01  0.64968706579E-01  0.51100000000E-03 0. -1.
</event>
<event>
 8    1  0.1120016E+005  0.1043930E+01  0.7957747E-01            NaN
         13   -1    0    0    0    0  0.00000000000E+00  0.00000000000E+00  0.74505805969E-08  0.10566000000E+00  0.10566000000E+00 0. -1.
     999900   -1    0    0    0    0 -0.00000000000E+00 -0.00000000000E+00 -0.74505805969E-08  0.93827000000E+00  0.93827000000E+00 0.  1.
     999902    2    1    2    0    0  0.20315656247E-02 -0.19710360248E-02  0.24858987970E-01  0.10189103772E+01  0.10186031490E+01 0.  0.
     999903    2    3    3    0    0 -0.62810989061E-03  0.10234131003E+00  0.79587527747E-01  0.13105715033E+00  0.19174561716E-01 0.  0.
         14    1    1    2    0    0 -0.20315656247E-02  0.19710360248E-02 -0.24858987970E-01  0.25019622795E-01  0.00000000000E+00 0.  1.
     999901    1    3    3    0    0  0.26596755153E-02 -0.10431234606E+00 -0.54728539776E-01  0.88785322688E+00  0.88000000000E+00 0.  1.
        -11    1    4    4    0    0 -0.71039166883E-02  0.61717535799E-01  0.39530839438E-01  0.73637410636E-01  0.51100000000E-03 0. -1.
         11    1    4    4    0    0  0.64758067977E-02  0.40623774235E-01  0.40056688308E-01  0.57419739690E-01  0.51100000000E-03 0.  1.
</event>
<event>
 8    1  0.1223956E+005  0.1043930E+01  0.7957747E-01            NaN
         13   -1    0    0    0    0  0.00000000000E+00  0.00000000000E+00  0.74505805969E-08  0.10566000000E+00  0.10566000000E+00 0. -1.
     999900   -1    0    0    0    0 -0.00000000000E+00 -0.00000000000E+00 -0.74505805969E-08  0.93827000000E+00  0.93827000000E+00 0.  1.
     999902    2    1    2    0    0 -0.18245447847E-01 -0.67989050417E-02  0.13343372362E-01  0.10203256135E+01  0.10200525430E+01 0.  0.
     999903    2    3    3    0    0 -0.16013967015E-01 -0.12746921560E+00 -0.19443554534E-01  0.13148294690E+00  0.20121268566E-01 0.  0.
         14    1    1    2    0    0  0.18245447847E-01  0.67989050417E-02 -0.13343372362E-01  0.23604386518E-01  0.00000000000E+00 0.  1.
     999901    1    3    3    0    0 -0.22314808319E-02  0.12067031056E+00  0.32786926896E-01  0.88884266658E+00  0.88000000000E+00 0. -1.
        -11    1    4    4    0    0 -0.39920905050E-02 -0.68786451710E-01 -0.13907588255E-02  0.68918125747E-01  0.51100000000E-03 0. -1.
         11    1    4    4    0    0 -0.12021876510E-01 -0.58682763888E-01 -0.18052795708E-01  0.62564821156E-01  0.51100000000E-03 0.  1.
</event>
<event>
 8    1  0.1120016E+005  0.1043930E+01  0.7957747E-01            NaN
         13   -1    0    0    0    0  0.00000000000E+00  0.00000000000E+00  0.74505805969E-08  0.10566000000E+00  0.10566000000E+00 0.  1.
     999900   -1    0    0    0    0 -0.00000000000E+00 -0.00000000000E+00 -0.74505805969E-08  0.93827000000E+00  0.93827000000E+00 0. -1.
     999902    2    1    2    0    0 -0.21109881989E-01  0.27148010944E-02 -0.10374987223E-01  0.10202522125E+01  0.10199774210E+01 0.  0.
     999903    2    3    3    0    0 -0.94019739005E-01  0.78067344819E-01 -0.49010106467E-01  0.13318596605E+00  0.20057152504E-01 0.  0.
         14    1    1    2    0    0  0.21109881989E-01 -0.27148010944E-02  0.10374987223E-01  0.23677787533E-01  0.00000000000E+00 0. -1.
     999901    1    3    3    0    0  0.72909857016E-01 -0.75352543725E-01  0.38635119243E-01  0.88706624642E+00  0.88000000000E+00 0.  1.
        -11    1    4    4    0    0 -0.13028671462E-01  0.18943419905E-01 -0.43103084021E-02  0.23397421168E-01  0.51100000000E-03 0.  1.
         11    1    4    4    0    0 -0.80991067543E-01  0.59123924914E-01 -0.44699798064E-01  0.10978854488E+00  0.51100000000E-03 0. -1.
</event>
<event>
 8    1  0.1344538E+005  0.1043930E+01  0.7957747E-01            NaN
         13   -1    0    0    0    0  0.00000000000E+00  0.00000000000E+00  0.74505805969E-08  0.10566000000E+00  0.10566000000E+00 0. -1.
     999900   -1    0    0    0    0 -0.00000000000E+00 -0.00000000000E+00 -0.74505805969E-08  0.93827000000E+00  0.93827000000E+00 0. -1.
     999902    2    1    2    0    0 -0.18808182634E-01  0.15496460121E-01 -0.10951106779E-02  0.10195355892E+01  0.10192437051E+01 0.  0.
     999903    2    3    3    0    0 -0.71031169169E-01  0.70532080845E-01  0.83950100697E-01  0.13218625110E+00  0.20134153842E-01 0.  0.
         14    1    1    2    0    0  0.18808182634E-01 -0.15496460121E-01  0.10951106779E-02  0.24394410788E-01  0.00000000000E+00 0. -1.
     999901    1    3    3    0    0  0.52222986535E-01 -0.55035620723E-01 -0.85045211375E-01  0.88734933811E+00  0.88000000000E+00 0. -1.
        -11    1    4    4    0    0 -0.43112648997E-01  0.54440321586E-01  0.51555187818E-01  0.86490737249E-01  0.51100000000E-03 0. -1.
         11    1    4    4    0    0 -0.27918520172E-01  0.16091759259E-01  0.32394912879E-01  0.45695513851E-01  0.51100000000E-03 0.  1.
</event>
<event>
 8    1  0.1120016E+005  0.1043930E+01  0.7957747E-01            NaN
         13   -1    0    0    0    0  0.00000000000E+00  0.00000000000E+00  0.74505805969E-08  0.10566000000E+00  0.10566000000E+00 0.  1.
     999900   -1    0    0    0    0 -0.00000000000E+00 -0.00000000000E+00 -0.74505805969E-08  0.93827000000E+00  0.93827000000E+00 0. -1.
     999902    2    1    2    0    0  0.94831099906E-03  0.21243233865E-01 -0.10220073019E-01  0.10203371161E+01  0.10200643148E+01 0.  0.
     999903    2    3    3    0    0  0.89021977918E-02 -0.12283062236E+00  0.27942300348E-01  0.12776952363E+00  0.19433684787E-01 0.  0.
         14    1    1    2    0    0 -0.94831099906E-03 -0.21243233865E-01  0.10220073019E-01  0.23592883913E-01  0.00000000000E+00 0.  1.
     999901    1    3    3    0    0 -0.79538867928E-02  0.14407385623E+00 -0.38162373367E-01  0.89256759246E+00  0.88000000000E+00 0.  1.
        -11    1    4    4    0    0  0.42300119761E-02 -0.38450145009E-01 -0.23013690660E-03  0.38686182760E-01  0.51100000000E-03 0. -1.
         11    1    4    4    0    0  0.46721858158E-02 -0.84380477354E-01  0.28172437255E-01  0.89083340870E-01  0.51100000000E-03 0.  1.
</event>
<event>
 8    1  0.1120016E+005  0.1043930E+01  0.7957747E-01            NaN
         13   -1    0    0    0    0  0.00000000000E+00  0.00000000000E+00  0.74505805969E-08  0.10566000000E+00  0.10566000000E+00 0. -1.
     999900   -1    0    0    0    0 -0.00000000000E+00 -0.00000000000E+00 -0.74505805969E-08  0.93827000000E+00  0.93827000000E+00 0. -1.
     999902    2    1    2    0    0 -0.34707588866E-01  0.70051900455E-02 -0.57077858685E-02  0.10080654181E+01  0.10074272277E+01 0.  0.
     999903    2    3    3    0    0 -0.68679212358E-02 -0.11683400827E+00  0.60174711715E-02  0.11888114265E+00  0.19979046224E-01 0.  0.
         14    1    1    2    0    0  0.34707588866E-01 -0.70051900455E-02  0.57077858685E-02  0.35864581859E-01  0.00000000000E+00 0.  1.
     999901    1    3    3    0    0 -0.27839667630E-01  0.12383919831E+00 -0.11725257040E-01  0.88918427549E+00  0.88000000000E+00 0. -1.
        -11    1    4    4    0    0 -0.53522779646E-02 -0.70707258713E-02 -0.63047744136E-03  0.89050921703E-02  0.51100000000E-03 0. -1.
         11    1    4    4    0    0 -0.15156432712E-02 -0.10976328240E+00  0.66479486129E-02  0.10997605048E+00  0.51100000000E-03 0.  1.
</event>
<event>
 8    1  0.1120016E+005  0.1043930E+01  0.7957747E-01            NaN
         13   -1    0    0    0    0  0.00000000000E+00  0.00000000000E+00  0.74505805969E-08  0.10566000000E+00  0.10566000000E+00 0. -1.
     999900   -1    0    0    0    0 -0.00000000000E+00 -0.00000000000E+00 -0.74505805969E-08  0.93827000000E+00  0.93827000000E+00 0. -1.
     999902    2    1    2    0    0  0.20739880634E-01 -0.58251023380E-02  0.68415011982E-02  0.10213273319E+01  0.10210771951E+01 0.  0.
     999903    2    3    3    0    0 -0.74988517131E-01 -0.34418626685E-01  0.99573480134E-01  0.13083267405E+00  0.19859282156E-01 0.  0.
         14    1    1    2    0    0 -0.20739880634E-01  0.58251023380E-02 -0.68415011982E-02  0.22602668086E-01  0.00000000000E+00 0.  1.
     999901    1    3    3    0    0  0.95728397765E-01  0.28593524347E-01 -0.92731978936E-01  0.89049465787E+00  0.88000000000E+00 0. -1.
        -11    1    4    4    0    0 -0.35579361979E-01 -0.11952553854E-01  0.59231100657E-01  0.70123740263E-01  0.51100000000E-03 0. -1.
         11    1    4    4    0    0 -0.39409155152E-01 -0.22466072831E-01  0.40342379477E-01  0.60708933783E-01  0.51100000000E-03 0.  1.
</event>
<event>
 8    1  0.1120016E+005  0.1043930E+01  0.7957747E-01            NaN
         13   -1    0    0    0    0  0.00000000000E+00  0.00000000000E+00  0.74505805969E-08  0.10566000000E+00  0.10566000000E+00 0.  1.
     999900   -1    0    0    0    0 -0.00000000000E+00 -0.00000000000E+00 -0.74505805969E-08  0.93827000000E+00  0.93827000000E+00 0. -1.
     999902    2    1    2    0    0  0.10378062491E-01  0.11657797978E-01 -0.17889347249E-01  0.10201889558E+01  0.10199126768E+01 0.  0.
     999903    2    3    3    0    0  0.90271647702E-01 -0.49427433071E-01 -0.80554796114E-01  0.13224675673E+00  0.20201187320E-01 0.  0.
         14    1    1    2    0    0 -0.10378062491E-01 -0.11657797978E-01  0.17889347249E-01  0.23741044201E-01  0.00000000000E+00 0.  1.
     999901    1    3    3    0    0 -0.79893585210E-01  0.61085231049E-01  0.62665448865E-01  0.88794219907E+00  0.88000000000E+00 0.  1.
        -11    1    4    4    0    0  0.28322980533E-01 -0.62375332022E-02 -0.27349703463E-01  0.39866846467E-01  0.51100000000E-03 0.  1.
         11    1    4    4    0    0  0.61948667169E-01 -0.43189899869E-01 -0.53205092652E-01  0.92379910261E-01  0.51100000000E-03 0. -1.
</event>
<event>
 8    1  0.1120016E+005  0.1043930E+01  0.7957747E-01            NaN
         13   -1    0    0    0    0  0.00000000000E+00  0.00000000000E+00  0.74505805969E-08  0.10566000000E+00  0.10566000000E+00 0. -1.
     999900   -1    0    0    0    0 -0.00000000000E+00 -0.00000000000E+00 -0.74505805969E-08  0.93827000000E+00  0.93827000000E+00 0. -1.
     999902    2    1    2    0    0  0.16542779067E-01  0.11732703269E-01 -0.11572032720E-01  0.10205798007E+01  0.10203126471E+01 0.  0.
     999903    2    3    3    0    0 -0.12513639878E+00  0.21147344549E-01 -0.13743563969E-01  0.12919529308E+00  0.19905017559E-01 0.  0.
         14    1    1    2    0    0 -0.16542779067E-01 -0.11732703269E-01  0.11572032720E-01  0.23350199282E-01  0.00000000000E+00 0.  1.
     999901    1    3    3    0    0  0.14167917784E+00 -0.94146412806E-02  0.21715312492E-02  0.89138450764E+00  0.88000000000E+00 0.  1.
        -11    1    4    4    0    0 -0.29468381108E-01  0.11451280102E-01  0.23160507921E-02  0.31703982611E-01  0.51100000000E-03 0. -1.
         11    1    4    4    0    0 -0.95668017667E-01  0.96960644477E-02 -0.16059614761E-01  0.97491310471E-01  0.51100000000E-03 0.  1.
</event>
<event>
 8    1  0.1120016E+005  0.1043930E+01  0.7957747E-01            NaN
         13   -1    0    0    0    0  0.00000000000E+00  0.00000000000E+00  0.74505805969E-08  0.10566000000E+00  0.10566000000E+00 0.  1.
     999900   -1    0    0    0    0 -0.00000000000E+00 -0.00000000000E+00 -0.74505805969E-08  0.93827000000E+00  0.93827000000E+00 0. -1.
     999902    2    1    2    0    0 -0.16676877343E-01 -0.12022436219E-01 -0.12082560748E-01  0.10200837113E+01  0.10198049483E+01 0.  0.
     999903    2    3    3    0    0  0.10022773902E+00  0.74589699717E-01 -0.19954633462E-01  0.12810258989E+00  0.20071451538E-01 0.  0.
         14    1    1    2    0    0  0.16676877343E-01  0.12022436219E-01  0.12082560748E-01  0.23846288700E-01  0.00000000000E+00 0.  1.
     999901    1    3    3    0    0 -0.11690461637E+00 -0.86612135936E-01  0.78720727143E-02  0.89198112141E+00  0.88000000000E+00 0. -1.
        -11    1    4    4    0    0  0.34923925644E-01  0.15139286044E-01 -0.30817351314E-02  0.38192103591E-01  0.51100000000E-03 0.  1.
         11    1    4    4    0    0  0.65303813379E-01  0.59450413673E-01 -0.16872898331E-01  0.89910486301E-01  0.51100000000E-03 0. -1.
</event>
<event>
 8    1  0.1120016E+005  0.1043930E+01  0.7957747E-01            NaN
         13   -1    0    0    0    0  0.00000000000E+00  0.00000000000E+00  0.74505805969E-08  0.10566000000E+00  0.10566000000E+00 0. -1.
     999900   -1    0    0    0    0 -0.00000000000E+00 -0.00000000000E+00 -0.74505805969E-08  0.93827000000E+00  0.93827000000E+00 0. -1.
     999902    2    1    2    0    0 -0.22545982501E-01 -0.56506358910E-02  0.43093915516E-02  0.10202905865E+01  0.10200166955E+01 0.  0.
     999903    2    3    3    0    0  0.95991084072E-01  0.25918191917E-01  0.78889100633E-01  0.12865738839E+00  0.21052137566E-01 0.  0.
         14    1    1    2    0    0  0.22545982501E-01  0.56506358910E-02 -0.43093915516E-02  0.23639413454E-01  0.00000000000E+00 0.  1.
     999901    1    3    3    0    0 -0.11853706657E+00 -0.31568827808E-01 -0.74579709081E-01  0.89163319815E+00  0.88000000000E+00 0. -1.
        -11    1    4    4    0    0  0.37454347164E-01  0.13636376083E-01  0.19533197842E-01  0.44391280823E-01  0.51100000000E-03 0. -1.
         11    1    4    4    0    0  0.58536736908E-01  0.12281815833E-01  0.59355902791E-01  0.84266107571E-01  0.51100000000E-03 0.  1.
</event>
<event>
 8    1  0.1120016E+005  0.1043930E+01  0.7957747E-01            NaN
         13   -1    0    0    0    0  0.00000000000E+00  0.00000000000E+00  0.74505805969E-08  0.10566000000E+00  0.10566000000E+00 0.  1.
     999900   -1    0    0    0    0 -0.00000000000E+00 -0.00000000000E+00 -0.74505805969E-08  0.93827000000E+00  0.93827000000E+00 0. -1.
     999902    2    1    2    0    0 -0.87231214050E-02 -0.21054637454E-01  0.40219312254E-02  0.10207876895E+01  0.10205253257E+01 0.  0.
     999903    2    3    3    0    0  0.33979208074E-01 -0.12054578802E-02 -0.12403185705E+00  0.13027365166E+00  0.20767355195E-01 0.  0.
         14    1    1    2    0    0  0.87231214050E-02  0.21054637454E-01 -0.40219312254E-02  0.23142310519E-01  0.00000000000E+00 0.  1.
     999901    1    3    3    0    0 -0.42702329479E-01 -0.19849179573E-01  0.12805378828E+00  0.89051403783E+00  0.88000000000E+00 0.  1.
        -11    1    4    4    0    0  0.17124685334E-01 -0.80146550222E-02 -0.86814424784E-01  0.88850970814E-01  0.51100000000E-03 0.  1.
         11    1    4    4    0    0  0.16854522740E-01  0.68091971420E-02 -0.37217432268E-01  0.41422680842E-01  0.51100000000E-03 0. -1.
</event>
<event>
 8    1  0.1120016E+005  0.1043930E+01  0.7957747E-01            NaN
         13   -1    0    0    0    0  0.00000000000E+00  0.00000000000E+00  0.74505805969E-08  0.10566000000E+00  0.10566000000E+00 0. -1.
     999900   -1    0    0    0    0 -0.00000000000E+00 -0.00000000000E+00 -0.74505805969E-08  0.93827000000E+00  0.93827000000E+00 0.  1.
     999902    2    1    2    0    0  0.64963262000E-02  0.52647165703E-02  0.22180090006E-01  0.10202260787E+01  0.10199506732E+01 0.  0.
     999903    2    3    3    0    0 -0.79457291788E-01  0.99308550627E-01 -0.18888195639E-01  0.13010312576E+00  0.19859757129E-01 0.  0.
         14    1    1    2    0    0 -0.64963262000E-02 -0.52647165703E-02 -0.22180090006E-01  0.23703921350E-01  0.00000000000E+00 0.  1.
     999901    1    3    3    0    0  0.85953617988E-01 -0.94043834056E-01  0.41068285646E-01  0.89012295289E+00  0.88000000000E+00 0. -1.
        -11    1    4    4    0    0 -0.46237508703E-01  0.55836173427E-01 -0.20583030102E-01  0.75362508737E-01  0.51100000000E-03 0.  1.
         11    1    4    4    0    0 -0.33219783085E-01  0.43472377200E-01  0.16948344624E-02  0.54740617027E-01  0.51100000000E-03 0. -1.
</event>
<event>
 8    1  0.1120016E+005  0.1043930E+01  0.7957747E-01            NaN
         13   -1    0    0    0    0  0.00000000000E+00  0.00000000000E+00  0.74505805969E-08  0.10566000000E+00  0.10566000000E+00 0. -1.
     999900   -1    0    0    0    0 -0.00000000000E+00 -0.00000000000E+00 -0.74505805969E-08  0.93827000000E+00  0.93827000000E+00 0.  1.
     999902    2    1    2    0    0  0.74541571585E-03  0.20990106816E-01 -0.12934436602E-01  0.10192634259E+01  0.10189649118E+01 0.  0.
     999903    2    3    3    0    0 -0.64362339898E-01  0.69423203748E-02 -0.11211543867E+00  0.13119066348E+00  0.21222911843E-01 0.  0.
         14    1    1    2    0    0 -0.74541571585E-03 -0.20990106816E-01  0.12934436602E-01  0.24666574123E-01  0.00000000000E+00 0. -1.
     999901    1    3    3    0    0  0.65107755614E-01  0.14047786441E-01  0.99181002065E-01  0.88807276240E+00  0.88000000000E+00 0. -1.
        -11    1    4    4    0    0 -0.57947858543E-01 -0.91388368384E-03 -0.96308188777E-01  0.11240248147E+00  0.51100000000E-03 0.  1.
         11    1    4    4    0    0 -0.64144813553E-02  0.78562040587E-02 -0.15807249889E-01  0.18788182012E-01  0.51100000000E-03 0. -1.
</event>
<event>
 8    1  0.1120016E+005  0.1043930E+01  0.7957747E-01            NaN
         13   -1    0    0    0    0  0.00000000000E+00  0.00000000000E+00  0.74505805969E-08  0.10566000000E+00  0.10566000000E+00 0. -1.
     999900   -1    0    0    0    0 -0.00000000000E+00 -0.00000000000E+00 -0.74505805969E-08  0.93827000000E+00  0.93827000000E+00 0.  1.
     999902    2    1    2    0    0 -0.15874944461E-01 -0.14952809727E-01 -0.48702603535E-02  0.10215845348E+01  0.10213401206E+01 0.  0.
     999903    2    3    3    0    0  0.80362795014E-01 -0.10112544325E+00 -0.18704997886E-01  0.13204598854E+00  0.20043254427E-01 0.  0.
         14    1    1    2    0    0  0.15874944461E-01  0.14952809727E-01  0.48702603535E-02  0.22345465228E-01  0.00000000000E+00 0. -1.
     999901    1    3    3    0    0 -0.96237739475E-01  0.86172633527E-01  0.13834737533E-01  0.88953854623E+00  0.88000000000E+00 0. -1.
        -11    1    4    4    0    0  0.78452023310E-01 -0.90044106362E-01 -0.16289625459E-01  0.12053329030E+00  0.51100000000E-03 0.  1.
         11    1    4    4    0    0  0.19107717037E-02 -0.11081336892E-01 -0.24153724274E-02  0.11512698241E-01  0.51100000000E-03 0. -1.
</event>
<event>
 8    1  0.1120016E+005  0.1043930E+01  0.7957747E-01            NaN
         13   -1    0    0    0    0  0.00000000000E+00  0.00000000000E+00  0.74505805969E-08  0.10566000000E+00  0.10566000000E+00 0.  1.
     999900   -1    0    0    0    0 -0.00000000000E+00 -0.00000000000E+00 -0.74505805969E-08  0.93827000000E+00  0.93827000000E+00 0. -1.
     999902    2    1    2    0    0 -0.14213298895E-02 -0.11700213315E-01  0.18763362872E-01  0.10217719550E+01  0.10215316682E+01 0.  0.
     999903    2    3    3    0    0 -0.42941944603E-02 -0.12197344319E+00 -0.45744973768E-01  0.13254208370E+00  0.24059101773E-01 0.  0.
         14    1    1    2    0    0  0.14213298895E-02  0.11700213315E-01 -0.18763362872E-01  0.22158044962E-01  0.00000000000E+00 0. -1.
     999901    1    3    3    0    0  0.28728645707E-02  0.11027322987E+00  0.64508336640E-01  0.88922987133E+00  0.88000000000E+00 0.  1.
        -11    1    4    4    0    0  0.98532453799E-02 -0.47456518380E-01 -0.15571943330E-01  0.50911237672E-01  0.51100000000E-03 0. -1.
         11    1    4    4    0    0 -0.14147439840E-01 -0.74516924808E-01 -0.30173030438E-01  0.81630846031E-01  0.51100000000E-03 0.  1.
</event>
<event>
 8    1  0.1120016E+005  0.1043930E+01  0.7957747E-01            NaN
         13   -1    0    0    0    0  0.00000000000E+00  0.00000000000E+00  0.74505805969E-08  0.10566000000E+00  0.10566000000E+00 0.  1.
     999900   -1    0    0    0    0 -0.00000000000E+00 -0.00000000000E+00 -0.74505805969E-08  0.93827000000E+00  0.93827000000E+00 0. -1.
     999902    2    1    2    0    0 -0.12049010792E-01  0.19639309233E-01 -0.53488297585E-02  0.10202764356E+01  0.10200022127E+01 0.  0.
     999903    2    3    3    0    0  0.44553534152E-01  0.10603969654E+00  0.61033230787E-01  0.13175212363E+00  0.20103038922E-01 0.  0.
         14    1    1    2    0    0  0.12049010792E-01 -0.19639309233E-01  0.53488297585E-02  0.23653564383E-01  0.00000000000E+00 0.  1.
     999901    1    3    3    0    0 -0.56602544944E-01 -0.86400387308E-01 -0.66382060546E-01  0.88852431198E+00  0.88000000000E+00 0. -1.
        -11    1    4    4    0    0  0.24338223637E-01  0.54182544710E-01  0.42682216799E-01  0.73144583073E-01  0.51100000000E-03 0. -1.
         11    1    4    4    0    0  0.20215310516E-01  0.51857151832E-01  0.18351013988E-01  0.58607540562E-01  0.51100000000E-03 0.  1.
</event>
<event>
 8    1  0.1120016E+005  0.1043930E+01  0.7957747E-01            NaN
         13   -1    0    0    0    0  0.00000000000E+00  0.00000000000E+00  0.74505805969E-08  0.10566000000E+00  0.10566000000E+00 0. -1.
     999900   -1    0    0    0    0 -0.00000000000E+00 -0.00000000000E+00 -0.74505805969E-08  0.93827000000E+00  0.93827000000E+00 0.  1.
     999902    2    1    2    0    0 -0.13511188337E-02 -0.29545608771E-02  0.23886590820E-01  0.10198234828E+01  0.10195385289E+01 0.  0.
     999903    2    3    3    0    0  0.64629653633E-01 -0.28770468061E-01  0.11045686565E+00  0.13274156102E+00  0.20368379745E-01 0.  0.
         14    1    1    2    0    0  0.13511188337E-02  0.29545608771E-02 -0.23886590820E-01  0.24106517233E-01  0.00000000000E+00 0.  1.
     999901    1    3    3    0    0 -0.65980772467E-01  0.25815907184E-01 -0.86570274827E-01  0.88708192174E+00  0.88000000000E+00 0. -1.
        -11    1    4    4    0    0  0.21574082175E-01 -0.14275445786E-01  0.56920915093E-01  0.62525843218E-01  0.51100000000E-03 0.  1.
         11    1    4    4    0    0  0.43055571459E-01 -0.14495022275E-01  0.53535950554E-01  0.70215717806E-01  0.51100000000E-03 0. -1.
</event>
<event>
 8    1  0.1120016E+005  0.1043930E+01  0.7957747E-01            NaN
         13   -1    0    0    0    0  0.00000000000E+00  0.00000000000E+00  0.74505805969E-08  0.10566000000E+00  0.10566000000E+00 0. -1.
     999900   -1    0    0    0    0 -0.00000000000E+00 -0.00000000000E+00 -0.74505805969E-08  0.93827000000E+00  0.93827000000E+00 0.  1.
     999902    2    1    2    0    0 -0.21082232152E-01  0.57229109972E-02 -0.68047645660E-02  0.10210495052E+01  0.10207931108E+01 0.  0.
     999903    2    3    3    0    0 -0.42466295107E-01  0.80075454996E-01 -0.95556257487E-01  0.13320807426E+00  0.19948132498E-01 0.  0.
         14    1    1    2    0    0  0.21082232152E-01 -0.57229109972E-02  0.68047645660E-02  0.22880494828E-01  0.00000000000E+00 0.  1.
     999901    1    3    3    0    0  0.21384062955E-01 -0.74352543999E-01  0.88751492921E-01  0.88784143091E+00  0.88000000000E+00 0. -1.
        -11    1    4    4    0    0 -0.30767688189E-01  0.71885560444E-01 -0.76530759973E-01  0.10941390579E+00  0.51100000000E-03 0.  1.
         11    1    4    4    0    0 -0.11698606918E-01  0.81898945525E-02 -0.19025497514E-01  0.23794168471E-01  0.51100000000E-03 0. -1.
</event>
<event>
 8    1  0.1120016E+005  0.1043930E+01  0.7957747E-01            NaN
         13   -1    0    0    0    0  0.00000000000E+00  0.00000000000E+00  0.74505805969E-08  0.10566000000E+00  0.10566000000E+00 0. -1.
     999900   -1    0    0    0    0 -0.00000000000E+00 -0.00000000000E+00 -0.74505805969E-08  0.93827000000E+00  0.93827000000E+00 0. -1.
     999902    2    1    2    0    0 -0.65853961311E-02 -0.17937894029E-01 -0.13937187402E-01  0.10202787701E+01  0.10200046019E+01 0.  0.
     999903    2    3    3    0    0 -0.86423099518E-01 -0.94219350149E-01  0.28343789308E-01  0.13237077911E+00  0.19298049024E-01 0.  0.
         14    1    1    2    0    0  0.65853961311E-02  0.17937894029E-01  0.13937187402E-01  0.23651229927E-01  0.00000000000E+00 0.  1.
     999901    1    3    3    0    0  0.79837703387E-01  0.76281456121E-01 -0.42280976710E-01  0.88790799097E+00  0.88000000000E+00 0. -1.
        -11    1    4    4    0    0 -0.36268905702E-02 -0.46730218749E-02 -0.27003746169E-02  0.65226231474E-02  0.51100000000E-03 0. -1.
         11    1    4    4    0    0 -0.82796208948E-01 -0.89546328274E-01  0.31044163925E-01  0.12584815596E+00  0.51100000000E-03 0.  1.
</event>
<event>
 8    1  0.1120016E+005  0.1043930E+01  0.7957747E-01            NaN
         13   -1    0    0    0    0  0.00000000000E+00  0.00000000000E+00  0.74505805969E-08  0.10566000000E+00  0.10566000000E+00 0. -1.
     999900   -1    0    0    0    0 -0.00000000000E+00 -0.00000000000E+00 -0.74505805969E-08  0.93827000000E+00  0.93827000000E+00 0. -1.
     999902    2    1    2    0    0 -0.13671672339E-01  0.76386694564E-02 -0.12177737741E-01  0.10240916232E+01  0.10238994539E+01 0.  0.
     999903    2    3    3    0    0 -0.10347467828E+00 -0.21136168584E-01  0.80386328751E-01  0.13422608420E+00  0.20023315491E-01 0.  0.
         14    1    1    2    0    0  0.13671672339E-01 -0.76386694564E-02  0.12177737741E-01  0.19838376750E-01  0.00000000000E+00 0.  1.
     999901    1    3    3    0    0  0.89803005938E-01  0.28774838040E-01 -0.92564066492E-01  0.88986553905E+00  0.88000000000E+00 0. -1.
        -11    1    4    4    0    0 -0.40558649138E-01 -0.97276137472E-02  0.44108407972E-01  0.60707851749E-01  0.51100000000E-03 0. -1.
         11    1    4    4    0    0 -0.62916029138E-01 -0.11408554837E-01  0.36277920780E-01  0.73518232453E-01  0.51100000000E-03 0.  1.
</event>
<event>
 8    1  0.1120016E+005  0.1043930E+01  0.7957747E-01            NaN
         13   -1    0    0    0    0  0.00000000000E+00  0.00000000000E+00  0.74505805969E-08  0.10566000000E+00  0.10566000000E+00 0.  1.
     999900   -1    0    0    0    0 -0.00000000000E+00 -0.00000000000E+00 -0.74505805969E-08  0.93827000000E+00  0.93827000000E+00 0. -1.
     999902    2    1    2    0    0 -0.41308058882E-02  0.10479712750E-01  0.19647917839E-01  0.10212820727E+01  0.10210309218E+01 0.  0.
     999903    2    3    3    0    0 -0.95281638798E-01 -0.58636079793E-02  0.91100389012E-01  0.13354278994E+00  0.20528596571E-01 0.  0.
         14    1    1    2    0    0  0.41308058882E-02 -0.10479712750E-01 -0.19647917839E-01  0.22647927323E-01  0.00000000000E+00 0. -1.
     999901    1    3    3    0    0  0.91150832910E-01  0.16343320730E-01 -0.71452471173E-01  0.88773928273E+00  0.88000000000E+00 0.  1.
        -11    1    4    4    0    0 -0.36090029194E-01  0.89553565349E-03  0.21895624647E-01  0.42225249448E-01  0.51100000000E-03 0. -1.
         11    1    4    4    0    0 -0.59191609604E-01 -0.67591436328E-02  0.69204764365E-01  0.91317540495E-01  0.51100000000E-03 0.  1.
</event>
<event>
 8    1  0.1120016E+005  0.1043930E+01  0.7957747E-01            NaN
         13   -1    0    0    0    0  0.00000000000E+00  0.00000000000E+00  0.74505805969E-08  0.10566000000E+00  0.10566000000E+00 0. -1.
     999900   -1    0    0    0    0 -0.00000000000E+00 -0.00000000000E+00 -0.74505805969E-08  0.93827000000E+00  0.93827000000E+00 0. -1.
     999902    2    1    2    0    0 -0.49830800206E-02  0.19952482372E-01 -0.20773813929E-01  0.10146984420E+01  0.10142773014E+01 0.  0.
     999903    2    3    3    0    0 -0.69995205460E-01 -0.64575649598E-01 -0.80328903072E-01  0.12626251846E+00  0.20497502071E-01 0.  0.
         14    1    1    2    0    0  0.49830800206E-02 -0.19952482372E-01  0.20773813929E-01  0.29231558023E-01  0.00000000000E+00 0. -1.
     999901    1    3    3    0    0  0.65012125440E-01  0.84528131971E-01  0.59555089144E-01  0.88843592351E+00  0.88000000000E+00 0.  1.
        -11    1    4    4    0    0 -0.25499612527E-01 -0.27972262144E-01 -0.44456731363E-01  0.58389551916E-01  0.51100000000E-03 0.  1.
         11    1    4    4    0    0 -0.44495592934E-01 -0.36603387454E-01 -0.35872171709E-01  0.67872966546E-01  0.51100000000E-03 0. -1.
</event>
<event>
 8    1  0.1120016E+005  0.1043930E+01  0.7957747E-01            NaN
         13   -1    0    0    0    0  0.00000000000E+00  0.00000000000E+00  0.74505805969E-08  0.10566000000E+00  0.10566000000E+00 0. -1.
     999900   -1    0    0    0    0 -0.00000000000E+00 -0.00000000000E+00 -0.74505805969E-08  0.93827000000E+00  0.93827000000E+00 0.  1.
     999902    2    1    2    0    0 -0.22731819715E-01 -0.96113184928E-02 -0.47169316520E-02  0.10188030719E+01  0.10184931698E+01 0.  0.
     999903    2    3    3    0    0  0.10468309282E+00  0.62787896308E-01 -0.26052467372E-01  0.12642904085E+00  0.20117193371E-01 0.  0.
         14    1    1    2    0    0  0.22731819715E-01  0.96113184928E-02  0.47169316520E-02  0.25126928084E-01  0.00000000000E+00 0.  1.
     999901    1    3    3    0    0 -0.12741491253E+00 -0.72399214801E-01  0.21335535720E-01  0.89237403107E+00  0.88000000000E+00 0. -1.
        -11    1    4    4    0    0  0.79761750460E-01  0.56380676585E-01 -0.16998093262E-01  0.99145921874E-01  0.51100000000E-03 0. -1.
         11    1    4    4    0    0  0.24921342358E-01  0.64072197226E-02 -0.90543741095E-02  0.27283118975E-01  0.51100000000E-03 0.  1.
</event>
<event>
 8    1  0.1120016E+005  0.1043930E+01  0.7957747E-01            NaN
         13   -1    0    0    0    0  0.00000000000E+00  0.00000000000E+00  0.74505805969E-08  0.10566000000E+00  0.10566000000E+00 0. -1.
     999900   -1    0    0    0    0 -0.00000000000E+00 -0.00000000000E+00 -0.74505805969E-08  0.93827000000E+00  0.93827000000E+00 0. -1.
     999902    2    1    2    0    0  0.12534637923E-01  0.47517280889E-02  0.19952511779E-01  0.10198925543E+01  0.10196092504E+01 0.  0.
     999903    2    3    3    0    0 -0.83970596914E-01  0.72796282294E-01 -0.60958699623E-01  0.12832654678E+00  0.20034462451E-01 0.  0.
         14    1    1    2    0    0 -0.12534637923E-01 -0.47517280889E-02 -0.19952511779E-01  0.24037445663E-01  0.00000000000E+00 0.  1.
     999901    1    3    3    0    0  0.96505234838E-01 -0.68044554206E-01  0.80911211402E-01  0.89156600756E+00  0.88000000000E+00 0. -1.
        -11    1    4    4    0    0 -0.66110752681E-01  0.51106834973E-01 -0.36958152600E-01  0.91371255686E-01  0.51100000000E-03 0.  1.
         11    1    4    4    0    0 -0.17859844233E-01  0.21689447321E-01 -0.24000547023E-01  0.36955291090E-01  0.51100000000E-03 0. -1.
</event>
<event>
 8    1  0.1120016E+005  0.1043930E+01  0.7957747E-01            NaN
         13   -1    0    0    0    0  0.00000000000E+00  0.00000000000E+00  0.74505805969E-08  0.10566000000E+00  0.10566000000E+00 0. -1.
     999900   -1    0    0    0    0 -0.00000000000E+00 -0.00000000000E+00 -0.74505805969E-08  0.93827000000E+00  0.93827000000E+00 0.  1.
     999902    2    1    2    0    0  0.36732203146E-02 -0.22164528766E-01  0.94269864611E-02  0.10195655391E+01  0.10192743799E+01 0.  0.
     999903    2    3    3    0    0  0.10097757191E+00  0.67110979345E-01 -0.28405031220E-01  0.12890875065E+00  0.33320663543E-01 0.  0.
         14    1    1    2    0    0 -0.36732203146E-02  0.22164528766E-01 -0.94269864611E-02  0.24364460935E-01  0.00000000000E+00 0.  1.
     999901    1    3    3    0    0 -0.97304351592E-01 -0.89275508111E-01  0.37832017681E-01  0.89065678841E+00  0.88000000000E+00 0. -1.
        -11    1    4    4    0    0  0.63373411078E-01  0.25865483761E-01 -0.58261055065E-02  0.68698013859E-01  0.51100000000E-03 0. -1.
         11    1    4    4    0    0  0.37604160829E-01  0.41245495584E-01 -0.22578925713E-01  0.60210736791E-01  0.51100000000E-03 0.  1.
</event>
<event>
 8    1  0.1120016E+005  0.1043930E+01  0.7957747E-01            NaN
         13   -1    0    0    0    0  0.00000000000E+00  0.00000000000E+00  0.74505805969E-08  0.10566000000E+00  0.10566000000E+00 0.  1.
     999900   -1    0    0    0    0 -0.00000000000E+00 -0.00000000000E+00 -0.74505805969E-08  0.93827000000E+00  0.93827000000E+00 0. -1.
     999902    2    1    2    0    0  0.14579400659E-01  0.16523630446E-01 -0.46661818416E-02  0.10214052905E+01  0.10211568953E+01 0.  0.
     999903    2    3    3    0    0 -0.35803983446E-01 -0.11166713088E+00  0.50234975386E-01  0.12900095736E+00  0.19136898821E-01 0.  0.
         14    1    1    2    0    0 -0.14579400659E-01 -0.16523630446E-01  0.46661818416E-02  0.22524709536E-01  0.00000000000E+00 0. -1.
     999901    1    3    3    0    0  0.50383384105E-01  0.12819076133E+00 -0.54901157228E-01  0.89240433311E+00  0.88000000000E+00 0.  1.
        -11    1    4    4    0    0 -0.16831701019E-01 -0.54437836300E-01  0.34776164596E-01  0.66756474781E-01  0.51100000000E-03 0.  1.
         11    1    4    4    0    0 -0.18972282427E-01 -0.57229294584E-01  0.15458810790E-01  0.62244482576E-01  0.51100000000E-03 0. -1.
</event>
<event>
 8    1  0.1120016E+005  0.1043930E+01  0.7957747E-01            NaN
         13   -1    0    0    0    0  0.00000000000E+00  0.00000000000E+00  0.74505805969E-08  0.10566000000E+00  0.10566000000E+00 0. -1.
     999900   -1    0    0    0    0 -0.00000000000E+00 -0.00000000000E+00 -0.74505805969E-08  0.93827000000E+00  0.93827000000E+00 0.  1.
     999902    2    1    2    0    0  0.41728030609E-02  0.22061429637E-01  0.66093069133E-02  0.10205248317E+01  0.10202564042E+01 0.  0.
     999903    2    3    3    0    0  0.88039520985E-01  0.14512283901E-03  0.96059930307E-01  0.13175300225E+00  0.19502950446E-01 0.  0.
         14    1    1    2    0    0 -0.41728030609E-02 -0.22061429637E-01 -0.66093069133E-02  0.23405168252E-01  0.00000000000E+00 0.  1.
     999901    1    3    3    0    0 -0.83866717924E-01  0.21916306798E-01 -0.89450623394E-01  0.88877182950E+00  0.88000000000E+00 0.  1.
        -11    1    4    4    0    0  0.58137908298E-01 -0.14099794198E-02  0.76041756380E-01  0.95731991819E-01  0.51100000000E-03 0. -1.
         11    1    4    4    0    0  0.29901612687E-01  0.15551022589E-02  0.20018173928E-01  0.36021010434E-01  0.51100000000E-03 0.  1.
</event>
<event>
 8    1  0.1120016E+005  0.1043930E+01  0.7957747E-01            NaN
         13   -1    0    0    0    0  0.00000000000E+00  0.00000000000E+00  0.74505805969E-08  0.10566000000E+00  0.10566000000E+00 0.  1.
     999900   -1    0    0    0    0 -0.00000000000E+00 -0.00000000000E+00 -0.74505805969E-08  0.93827000000E+00  0.93827000000E+00 0. -1.
     999902    2    1    2    0    0 -0.70879536844E-03 -0.42193646917E-02 -0.23134101303E-01  0.10204035878E+01  0.10201323394E+01 0.  0.
     999903    2    3    3    0    0 -0.47421831032E-01  0.24659287093E-01 -0.12078390203E+00  0.13330068066E+00  0.17983602922E-01 0.  0.
         14    1    1    2    0    0  0.70879536844E-03  0.42193646917E-02  0.23134101303E-01  0.23526412229E-01  0.00000000000E+00 0.  1.
     999901    1    3    3    0    0  0.46713035664E-01 -0.28878651785E-01  0.97649800732E-01  0.88710290712E+00  0.88000000000E+00 0.  1.
        -11    1    4    4    0    0 -0.25776926409E-01  0.13912190151E-01 -0.44490185930E-01  0.53269472824E-01  0.51100000000E-03 0.  1.
         11    1    4    4    0    0 -0.21644904624E-01  0.10747096942E-01 -0.76293716105E-01  0.80031207832E-01  0.51100000000E-03 0. -1.
</event>
<event>
 7    1  0.1120016E+005  0.1043930E+01  0.7957747E-01            NaN
         13   -1    0    0    0    0  0.00000000000E+00  0.00000000000E+00  0.74505805969E-08  0.10566000000E+00  0.10566000000E+00 0.  1.
     999900   -1    0    0    0    0 -0.00000000000E+00 -0.00000000000E+00 -0.74505805969E-08  0.93827000000E+00  0.93827000000E+00 0.  1.
     999903    2    1    2    0    0 -0.73843513327E-01 -0.61335578392E-01  0.95844293554E-02  0.97905330864E-01  0.16693558288E-01 0.  0.
         14    1    1    2    0    0 -0.27823705229E-01 -0.43094568701E-02 -0.49389264968E-01  0.56850940936E-01  0.00000000000E+00 0. -1.
     999901    1    1    2    0    0  0.10166721856E+00  0.65645035262E-01  0.39804835613E-01  0.88917372820E+00  0.88000000000E+00 0. -1.
        -11    1    3    3    0    0 -0.35630233354E-01 -0.40351483604E-01  0.49060393981E-02  0.54056323418E-01  0.51100000000E-03 0.  1.
         11    1    3    3    0    0 -0.38213279974E-01 -0.20984094788E-01  0.46783899573E-02  0.43849007446E-01  0.51100000000E-03 0. -1.
</event>
<event>
 8    1  0.1120016E+005  0.1043930E+01  0.7957747E-01            NaN
         13   -1    0    0    0    0  0.00000000000E+00  0.00000000000E+00  0.74505805969E-08  0.10566000000E+00  0.10566000000E+00 0. -1.
     999900   -1    0    0    0    0 -0.00000000000E+00 -0.00000000000E+00 -0.74505805969E-08  0.93827000000E+00  0.93827000000E+00 0.  1.
     999902    2    1    2    0    0  0.20533582284E-01  0.39667622561E-02 -0.70492734615E-02  0.10218606670E+01  0.10216223212E+01 0.  0.
     999903    2    3    3    0    0 -0.31208501998E-01 -0.11149055894E+00  0.57104049123E-01  0.13050031049E+00  0.19113955170E-01 0.  0.
         14    1    1    2    0    0 -0.20533582284E-01 -0.39667622561E-02  0.70492734615E-02  0.22069333034E-01  0.00000000000E+00 0. -1.
     999901    1    3    3    0    0  0.51742084282E-01  0.11545732119E+00 -0.64153322584E-01  0.89136035648E+00  0.88000000000E+00 0.  1.
        -11    1    4    4    0    0 -0.21959776210E-01 -0.49614217281E-01  0.20429186027E-01  0.57977712014E-01  0.51100000000E-03 0. -1.
         11    1    4    4    0    0 -0.92487257880E-02 -0.61876341655E-01  0.36674863095E-01  0.72522598474E-01  0.51100000000E-03 0.  1.
</event>
<event>
 7    1  0.1120016E+005  0.1043930E+01  0.7957747E-01            NaN
         13   -1    0    0    0    0  0.00000000000E+00  0.00000000000E+00  0.74505805969E-08  0.10566000000E+00  0.10566000000E+00 0. -1.
     999900   -1    0    0    0    0 -0.00000000000E+00 -0.00000000000E+00 -0.74505805969E-08  0.93827000000E+00  0.93827000000E+00 0.  1.
     999902    2    1    2    0    0 -0.98648950125E-02  0.12747082586E-01 -0.17522248950E-01  0.10201217351E+01  0.10198438709E+01 0.  0.
         14    1    1    2    0    0  0.98648950125E-02 -0.12747082586E-01  0.17522248950E-01  0.23808264875E-01  0.00000000000E+00 0. -1.
     999901    1    3    3    0    0  0.16802074120E-01  0.43069394054E-01 -0.12743364010E+00  0.89038003966E+00  0.88000000000E+00 0.  1.
        -11    1    3    3    0    0 -0.36202240156E-01 -0.29163648886E-01  0.47034855824E-01  0.66133647957E-01  0.51100000000E-03 0. -1.
         11    1    3    3    0    0  0.95352710229E-02 -0.11586625817E-02  0.62876535323E-01  0.63608047507E-01  0.51100000000E-03 0.  1.
</event>
<event>
 8    1  0.1120016E+005  0.1043930E+01  0.7957747E-01            NaN
         13   -1    0    0    0    0  0.00000000000E+00  0.00000000000E+00  0.74505805969E-08  0.10566000000E+00  0.10566000000E+00 0. -1.
     999900   -1    0    0    0    0 -0.00000000000E+00 -0.00000000000E+00 -0.74505805969E-08  0.93827000000E+00  0.93827000000E+00 0. -1.
     999902    2    1    2    0    0 -0.21081936757E-01 -0.51682700522E-02 -0.80154451067E-02  0.10207911488E+01  0.10205288644E+01 0.  0.
     999903    2    3    3    0    0  0.96703866563E-01 -0.73342156042E-01  0.39096856819E-01  0.12908450247E+00  0.20088178184E-01 0.  0.
         14    1    1    2    0    0  0.21081936757E-01  0.51682700522E-02  0.80154451067E-02  0.23138851160E-01  0.00000000000E+00 0. -1.
     999901    1    3    3    0    0 -0.11778580332E+00  0.68173885990E-01 -0.47112301925E-01  0.89170664637E+00  0.88000000000E+00 0. -1.
        -11    1    4    4    0    0  0.30275509325E-01 -0.20946145150E-01  0.25049126305E-02  0.36903701303E-01  0.51100000000E-03 0. -1.
         11    1    4    4    0    0  0.66428357237E-01 -0.52396010892E-01  0.36591944188E-01  0.92180801163E-01  0.51100000000E-03 0.  1.
</event>
<event>
 8    1  0.1120016E+005  0.1043930E+01  0.7957747E-01            NaN
         13   -1    0    0    0    0  0.00000000000E+00  0.00000000000E+00  0.74505805969E-08  0.10566000000E+00  0.10566000000E+00 0. -1.
     999900   -1    0    0    0    0 -0.00000000000E+00 -0.00000000000E+00 -0.74505805969E-08  0.93827000000E+00  0.93827000000E+00 0. -1.
     999902    2    1    2    0    0  0.92112417240E-02 -0.16006213679E-01 -0.13642163529E-01  0.10209701551E+01  0.10207119590E+01 0.  0.
     999903    2    3    3    0    0 -0.38542985588E-02 -0.11341877291E+00  0.64665636460E-01  0.13204269658E+00  0.19363768066E-01 0.  0.
         14    1    1    2    0    0 -0.92112417240E-02  0.16006213679E-01  0.13642163529E-01  0.22959844864E-01  0.00000000000E+00 0. -1.
     999901    1    3    3    0    0  0.13065540283E-01  0.97412559236E-01 -0.78307799989E-01  0.88892745856E+00  0.88000000000E+00 0. -1.
        -11    1    4    4    0    0 -0.54963072319E-02 -0.12870251472E-01  0.38631322244E-02  0.14527135909E-01  0.51100000000E-03 0. -1.
         11    1    4    4    0    0  0.16420086731E-02 -0.10054852144E+00  0.60802504236E-01  0.11751556067E+00  0.51100000000E-03 0.  1.
</event>
<event>
 8    1  0.1120016E+005  0.1043930E+01  0.7957747E-01            NaN
         13   -1    0    0    0    0  0.00000000000E+00  0.00000000000E+00  0.74505805969E-08  0.10566000000E+00  0.10566000000E+00 0.  1.
     999900   -1    0    0    0    0 -0.00000000000E+00 -0.00000000000E+00 -0.74505805969E-08  0.93827000000E+00  0.93827000000E+00 0. -1.
     999902    2    1    2    0    0  0.14706088236E-01 -0.11772512613E-01  0.12974989219E-01  0.10210561846E+01  0.10207999416E+01 0.  0.
     999903    2    3    3    0    0 -0.62065449991E-01 -0.90520243717E-01  0.71186803678E-01  0.13230217503E+00  0.19755249794E-01 0.  0.
         14    1    1    2    0    0 -0.14706088236E-01  0.11772512613E-01 -0.12974989219E-01  0.22873815372E-01  0.00000000000E+00 0.  1.
     999901    1    3    3    0    0  0.76771538227E-01  0.78747731104E-01 -0.58211814460E-01  0.88875400960E+00  0.88000000000E+00 0. -1.
        -11    1    4    4    0    0 -0.43855074754E-01 -0.70152221822E-01  0.43793669807E-01  0.93609553168E-01  0.51100000000E-03 0.  1.
         11    1    4    4    0    0 -0.18210375236E-01 -0.20368021895E-01  0.27393133872E-01  0.38692621861E-01  0.51100000000E-03 0. -1.
</event>
<event>
 8    1  0.1120016E+005  0.1043930E+01  0.7957747E-01            NaN
         13   -1    0    0    0    0  0.00000000000E+00  0.00000000000E+00  0.74505805969E-08  0.10566000000E+00  0.10566000000E+00 0. -1.
     999900   -1    0    0    0    0 -0.00000000000E+00 -0.00000000000E+00 -0.74505805969E-08  0.93827000000E+00  0.93827000000E+00 0. -1.
     999902    2    1    2    0    0  0.17845671229E-02  0.22766854835E-01 -0.31001541121E-02  0.10208838438E+01  0.10206236805E+01 0.  0.
     999903    2    3    3    0    0  0.21805903291E-02  0.16309642494E-02  0.12912424107E+00  0.13075454233E+00  0.20402590209E-01 0.  0.
         14    1    1    2    0    0 -0.17845671229E-02 -0.22766854835E-01  0.31001541121E-02  0.23046156175E-01  0.00000000000E+00 0. -1.
     999901    1    3    3    0    0 -0.39602320622E-03  0.21135890586E-01 -0.13222439519E+00  0.89012930150E+00  0.88000000000E+00 0. -1.
        -11    1    4    4    0    0 -0.69647340867E-03 -0.91235861160E-02  0.69029429230E-01  0.69635106948E-01  0.51100000000E-03 0. -1.
         11    1    4    4    0    0  0.28770637377E-02  0.10754550365E-01  0.60094811845E-01  0.61119435378E-01  0.51100000000E-03 0.  1.
</event>
<event>
 8    1  0.1120016E+005  0.1043930E+01  0.7957747E-01            NaN
         13   -1    0    0    0    0  0.00000000000E+00  0.00000000000E+00  0.74505805969E-08  0.10566000000E+00  0.10566000000E+00 0. -1.
     999900   -1    0    0    0    0 -0.00000000000E+00 -0.00000000000E+00 -0.74505805969E-08  0.93827000000E+00  0.93827000000E+00 0. -1.
     999902    2    1    2    0    0  0.47208635829E-02 -0.24868950091E-01  0.28933387169E-02  0.10184521147E+01  0.10181333838E+01 0.  0.
     999903    2    3    3    0    0  0.64758628036E-01 -0.11225245011E+00  0.16394902594E-01  0.13198570163E+00  0.18898151849E-01 0.  0.
         14    1    1    2    0    0 -0.47208635829E-02  0.24868950091E-01 -0.28933387169E-02  0.25477885323E-01  0.00000000000E+00 0. -1.
     999901    1    3    3    0    0 -0.60037764454E-01  0.87383500015E-01 -0.13501563877E-01  0.88646641305E+00  0.88000000000E+00 0.  1.
        -11    1    4    4    0    0  0.33015453888E-01 -0.64764698497E-01  0.17808369524E-01  0.74845744788E-01  0.51100000000E-03 0. -1.
         11    1    4    4    0    0  0.31743174149E-01 -0.47487751610E-01 -0.14134669301E-02  0.57139956841E-01  0.51100000000E-03 0.  1.
</event>
<event>
 8    1  0.1120016E+005  0.1043930E+01  0.7957747E-01            NaN
         13   -1    0    0    0    0  0.00000000000E+00  0.00000000000E+00  0.74505805969E-08  0.10566000000E+00  0.10566000000E+00 0. -1.
     999900   -1    0    0    0    0 -0.00000000000E+00 -0.00000000000E+00 -0.74505805969E-08  0.93827000000E+00  0.93827000000E+00 0.  1.
     999902    2    1    2    0    0  0.11797705111E-01  0.19866803035E-03  0.18912523551E-01  0.10216385473E+01  0.10213953263E+01 0.  0.
     999903    2    3    3    0    0  0.20205117969E-01 -0.73300299761E-01  0.10827690837E+00  0.13402445544E+00  0.21388899761E-01 0.  0.
         14    1    1    2    0    0 -0.11797705111E-01 -0.19866803035E-03 -0.18912523551E-01  0.22291452665E-01  0.00000000000E+00 0.  1.
     999901    1    3    3    0    0 -0.84074128585E-02  0.73498967791E-01 -0.89364384817E-01  0.88761409190E+00  0.88000000000E+00 0.  1.
        -11    1    4    4    0    0  0.64521572812E-02 -0.19598705104E-01  0.47340291361E-01  0.51644011100E-01  0.51100000000E-03 0. -1.
         11    1    4    4    0    0  0.13752960688E-01 -0.53701594657E-01  0.60936617006E-01  0.82380444339E-01  0.51100000000E-03 0.  1.
</event>
<event>
 8    1  0.1120016E+005  0.1043930E+01  0.7957747E-01            NaN
         13   -1    0    0    0    0  0.00000000000E+00  0.00000000000E+00  0.74505805969E-08  0.10566000000E+00  0.10566000000E+00 0. -1.
     999900   -1    0    0    0    0 -0.00000000000E+00 -0.00000000000E+00 -0.74505805969E-08  0.93827000000E+00  0.93827000000E+00 0.  1.
     999902    2    1    2    0    0 -0.21369343910E-01 -0.69646737157E-02 -0.59618990988E-02  0.10206770479E+01  0.10204121405E+01 0.  0.
     999903    2    3    3    0    0 -0.11370351970E-01  0.48059198920E-01  0.11953257609E+00  0.13001635513E+00  0.13313314714E-01 0.  0.
         14    1    1    2    0    0  0.21369343910E-01  0.69646737157E-02  0.59618990988E-02  0.23252952070E-01  0.00000000000E+00 0. -1.
     999901    1    3    3    0    0 -0.99989919401E-02 -0.55023872636E-01 -0.12549447519E+00  0.89066069280E+00  0.88000000000E+00 0. -1.
        -11    1    4    4    0    0 -0.48429843811E-02  0.41188469050E-01  0.92720397423E-01  0.10157400110E+00  0.51100000000E-03 0.  1.
         11    1    4    4    0    0 -0.65273675891E-02  0.68707298705E-02  0.26812178668E-01  0.28442354026E-01  0.51100000000E-03 0. -1.
</event>
<event>
 8    1  0.1120016E+005  0.1043930E+01  0.7957747E-01            NaN
         13   -1    0    0    0    0  0.00000000000E+00  0.00000000000E+00  0.74505805969E-08  0.10566000000E+00  0.10566000000E+00 0.  1.
     999900   -1    0    0    0    0 -0.00000000000E+00 -0.00000000000E+00 -0.74505805969E-08  0.93827000000E+00  0.93827000000E+00 0.  1.
     999902    2    1    2    0    0 -0.58988880122E-02  0.18379737118E-01 -0.13959726267E-01  0.10201080443E+01  0.10198298566E+01 0.  0.
     999903    2    3    3    0    0 -0.12481159034E+00  0.17984078193E-01  0.29375569342E-01  0.13105330179E+00  0.20265332107E-01 0.  0.
         14    1    1    2    0    0  0.58988880122E-02 -0.18379737118E-01  0.13959726267E-01  0.23821955708E-01  0.00000000000E+00 0.  1.
     999901    1    3    3    0    0  0.11891270232E+00  0.39565892479E-03 -0.43335295609E-01  0.88905474250E+00  0.88000000000E+00 0. -1.
        -11    1    4    4    0    0 -0.68676046293E-01  0.34427531252E-02  0.79110986948E-02  0.69217761356E-01  0.51100000000E-03 0. -1.
         11    1    4    4    0    0 -0.56135544043E-01  0.14541325068E-01  0.21464470647E-01  0.61835540435E-01  0.51100000000E-03 0.  1.
</event>
<event>
 8    1  0.1120016E+005  0.1043930E+01  0.7957747E-01            NaN
         13   -1    0    0    0    0  0.00000000000E+00  0.00000000000E+00  0.74505805969E-08  0.10566000000E+00  0.10566000000E+00 0. -1.
     999900   -1    0    0    0    0 -0.00000000000E+00 -0.00000000000E+00 -0.74505805969E-08  0.93827000000E+00  0.93827000000E+00 0. -1.
     999902    2    1    2    0    0 -0.13992413527E-01 -0.34541881008E-02 -0.15956718954E-01  0.10224280017E+01  0.10222018796E+01 0.  0.
     999903    2    3    3    0    0  0.98642726038E-01 -0.64045935271E-02 -0.86356283476E-01  0.13245526152E+00  0.17764638736E-01 0.  0.
         14    1    1    2    0    0  0.13992413527E-01  0.34541881008E-02  0.15956718954E-01  0.21501998315E-01  0.00000000000E+00 0. -1.
     999901    1    3    3    0    0 -0.11263513957E+00  0.29504054264E-02  0.70399564522E-01  0.88997274017E+00  0.88000000000E+00 0.  1.
        -11    1    4    4    0    0  0.51329827270E-01 -0.11424081195E-01 -0.50123434661E-01  0.72649023544E-01  0.51100000000E-03 0.  1.
         11    1    4    4    0    0  0.47312898768E-01  0.50194876674E-02 -0.36232848815E-01  0.59806237973E-01  0.51100000000E-03 0. -1.
</event>
<event>
 8    1  0.1120016E+005  0.1043930E+01  0.7957747E-01            NaN
         13   -1    0    0    0    0  0.00000000000E+00  0.00000000000E+00  0.74505805969E-08  0.10566000000E+00  0.10566000000E+00 0.  1.
     999900   -1    0    0    0    0 -0.00000000000E+00 -0.00000000000E+00 -0.74505805969E-08  0.93827000000E+00  0.93827000000E+00 0.  1.
     999902    2    1    2    0    0  0.77794874553E-02  0.21946295117E-01 -0.55258506077E-02  0.10199989465E+01  0.10197181746E+01 0.  0.
     999903    2    3    3    0    0  0.49481074341E-02  0.13090895417E+00 -0.12918501738E-01  0.13324332685E+00  0.20621794599E-01 0.  0.
         14    1    1    2    0    0 -0.77794874553E-02 -0.21946295117E-01  0.55258506077E-02  0.23931053453E-01  0.00000000000E+00 0. -1.
     999901    1    3    3    0    0  0.28313800212E-02 -0.10896265905E+00  0.73926511302E-02  0.88675561970E+00  0.88000000000E+00 0.  1.
        -11    1    4    4    0    0 -0.72036113147E-02  0.62616608197E-01 -0.99564352327E-02  0.63813191125E-01  0.51100000000E-03 0. -1.
         11    1    4    4    0    0  0.12151718749E-01  0.68292345974E-01 -0.29620665052E-02  0.69430135721E-01  0.51100000000E-03 0.  1.
</event>
<event>
 8    1  0.1120016E+005  0.1043930E+01  0.7957747E-01            NaN
         13   -1    0    0    0    0  0.00000000000E+00  0.00000000000E+00  0.74505805969E-08  0.10566000000E+00  0.10566000000E+00 0. -1.
     999900   -1    0    0    0    0 -0.00000000000E+00 -0.00000000000E+00 -0.74505805969E-08  0.93827000000E+00  0.93827000000E+00 0. -1.
     999902    2    1    2    0    0 -0.49235266080E-02 -0.56685236402E-02  0.21488435110E-01  0.10211676162E+01  0.10209138917E+01 0.  0.
     999903    2    3    3    0    0 -0.11859937273E-01  0.77664733111E-01 -0.10009902140E+00  0.12888063595E+00  0.20443467352E-01 0.  0.
         14    1    1    2    0    0  0.49235266080E-02  0.56685236402E-02 -0.21488435110E-01  0.22762383838E-01  0.00000000000E+00 0. -1.
     999901    1    3    3    0    0  0.69364106648E-02 -0.83333256751E-01  0.12158745651E+00  0.89228698021E+00  0.88000000000E+00 0.  1.
        -11    1    4    4    0    0  0.32093694708E-02  0.15370164413E-01 -0.11233254723E-01  0.19312926737E-01  0.51100000000E-03 0.  1.
         11    1    4    4    0    0 -0.15069306744E-01  0.62294568698E-01 -0.88865766673E-01  0.10956770921E+00  0.51100000000E-03 0. -1.
</event>
<event>
 8    1  0.1130849E+005  0.1043930E+01  0.7957747E-01            NaN
         13   -1    0    0    0    0  0.00000000000E+00  0.00000000000E+00  0.74505805969E-08  0.10566000000E+00  0.10566000000E+00 0. -1.
     999900   -1    0    0    0    0 -0.00000000000E+00 -0.00000000000E+00 -0.74505805969E-08  0.93827000000E+00  0.93827000000E+00 0.  1.
     999902    2    1    2    0    0 -0.20022830902E-01 -0.72178222233E-02 -0.11858479732E-01  0.10195653893E+01  0.10192742265E+01 0.  0.
     999903    2    3    3    0    0  0.58281421785E-01 -0.10751399050E-01 -0.11439401842E+00  0.13015121192E+00  0.18466992391E-01 0.  0.
         14    1    1    2    0    0  0.20022830902E-01  0.72178222233E-02  0.11858479732E-01  0.24364610741E-01  0.00000000000E+00 0.  1.
     999901    1    3    3    0    0 -0.78304252688E-01  0.35335768270E-02  0.10253553869E+00  0.88941417734E+00  0.88000000000E+00 0. -1.
        -11    1    4    4    0    0  0.22001248854E-01 -0.12080656346E-01 -0.37659600300E-01  0.45260400182E-01  0.51100000000E-03 0. -1.
         11    1    4    4    0    0  0.36280172932E-01  0.13292572954E-02 -0.76734418119E-01  0.84890811740E-01  0.51100000000E-03 0.  1.
</event>
<event>
 8    1  0.1120016E+005  0.1043930E+01  0.7957747E-01            NaN
         13   -1    0    0    0    0  0.00000000000E+00  0.00000000000E+00  0.74505805969E-08  0.10566000000E+00  0.10566000000E+00 0.  1.
     999900   -1    0    0    0    0 -0.00000000000E+00 -0.00000000000E+00 -0.74505805969E-08  0.93827000000E+00  0.93827000000E+00 0. -1.
     999902    2    1    2    0    0 -0.90699651556E-04  0.20107391696E-01 -0.12322250681E-01  0.10203470975E+01  0.10200745297E+01 0.  0.
     999903    2    3    3    0    0  0.51363138076E-01  0.39562311492E-01  0.11080399165E+00  0.13007407038E+00  0.20937783417E-01 0.  0.
         14    1    1    2    0    0  0.90699651556E-04 -0.20107391696E-01  0.12322250681E-01  0.23582902474E-01  0.00000000000E+00 0.  1.
     999901    1    3    3    0    0 -0.51453837727E-01 -0.19454919797E-01 -0.12312624233E+00  0.89027302715E+00  0.88000000000E+00 0. -1.
        -11    1    4    4    0    0  0.45987429315E-01  0.32972701407E-01  0.10633126858E+00  0.12045182643E+00  0.51100000000E-03 0.  1.
         11    1    4    4    0    0  0.53757087606E-02  0.65896100857E-02  0.44727230744E-02  0.96222439410E-02  0.51100000000E-03 0. -1.
</event>
<event>
 8    1  0.1120016E+005  0.1043930E+01  0.7957747E-01            NaN
         13   -1    0    0    0    0  0.00000000000E+00  0.00000000000E+00  0.74505805969E-08  0.10566000000E+00  0.10566000000E+00 0.  1.
     999900   -1    0    0    0    0 -0.00000000000E+00 -0.00000000000E+00 -0.74505805969E-08  0.93827000000E+00  0.93827000000E+00 0.  1.
     999902    2    1    2    0    0 -0.16607268564E-01 -0.17650307622E-01 -0.11136828411E-01  0.10172585982E+01  0.10169088906E+01 0.  0.
     999903    2    3    3    0    0  0.11923246115E+00  0.19671310981E-01  0.26575533730E-01  0.12525660398E+00  0.19483777380E-01 0.  0.
         14    1    1    2    0    0  0.16607268564E-01  0.17650307622E-01  0.11136828411E-01  0.26671401826E-01  0.00000000000E+00 0.  1.
     999901    1    3    3    0    0 -0.13583972971E+00 -0.37321618603E-01 -0.37712362141E-01  0.89200199419E+00  0.88000000000E+00 0.  1.
        -11    1    4    4    0    0  0.39457770769E-01  0.79886792913E-02 -0.31673376802E-03  0.40262837855E-01  0.51100000000E-03 0. -1.
         11    1    4    4    0    0  0.79774690379E-01  0.11682631690E-01  0.26892267498E-01  0.84993766127E-01  0.51100000000E-03 0.  1.
</event>
<event>
 8    1  0.1120016E+005  0.1043930E+01  0.7957747E-01            NaN
         13   -1    0    0    0    0  0.00000000000E+00  0.00000000000E+00  0.74505805969E-08  0.10566000000E+00  0.10566000000E+00 0. -1.
     999900   -1    0    0    0    0 -0.00000000000E+00 -0.00000000000E+00 -0.74505805969E-08  0.93827000000E+00  0.93827000000E+00 0. -1.
     999902    2    1    2    0    0 -0.17053395740E-01 -0.13601592012E-01 -0.92518732574E-02  0.10202357228E+01  0.10199605440E+01 0.  0.
     999903    2    3    3    0    0  0.17133763895E-01 -0.12936116815E+00  0.16937483751E-02  0.13192899204E+00  0.19352324580E-01 0.  0.
         14    1    1    2    0    0  0.17053395740E-01  0.13601592012E-01  0.92518732574E-02  0.23694277164E-01  0.00000000000E+00 0. -1.
     999901    1    3    3    0    0 -0.34187159635E-01  0.11575957614E+00 -0.10945621632E-01  0.88830673080E+00  0.88000000000E+00 0. -1.
        -11    1    4    4    0    0  0.47844704643E-02 -0.30416946305E-01 -0.77917837737E-02  0.31765622857E-01  0.51100000000E-03 0. -1.
         11    1    4    4    0    0  0.12349293430E-01 -0.98944221842E-01  0.94855321487E-02  0.10016336918E+00  0.51100000000E-03 0.  1.
</event>
<event>
 8    1  0.1120016E+005  0.1043930E+01  0.7957747E-01            NaN
         13   -1    0    0    0    0  0.00000000000E+00  0.00000000000E+00  0.74505805969E-08  0.10566000000E+00  0.10566000000E+00 0. -1.
     999900   -1    0    0    0    0 -0.00000000000E+00 -0.00000000000E+00 -0.74505805969E-08  0.93827000000E+00  0.93827000000E+00 0.  1.
     999902    2    1    2    0    0  0.14345513338E-02  0.57299703758E-02 -0.22222416505E-01  0.10209359509E+01  0.10206769761E+01 0.  0.
     999903    2    3    3    0    0 -0.37257122357E-01 -0.43137860314E-01  0.11335800792E+00  0.12837381752E+00  0.19514889317E-01 0.  0.
         14    1    1    2    0    0 -0.14345513338E-02 -0.57299703758E-02  0.22222416505E-01  0.22994049085E-01  0.00000000000E+00 0. -1.
     999901    1    3    3    0    0  0.38691673691E-01  0.48867830690E-01 -0.13558042443E+00  0.89256213340E+00  0.88000000000E+00 0.  1.
        -11    1    4    4    0    0 -0.81363356487E-02 -0.76604203347E-02  0.89673319239E-02  0.14337229869E-01  0.51100000000E-03 0.  1.
         11    1    4    4    0    0 -0.29120786708E-01 -0.35477439980E-01  0.10439067600E+00  0.11403658765E+00  0.51100000000E-03 0. -1.
</event>
<event>
 8    1  0.1120016E+005  0.1043930E+01  0.7957747E-01            NaN
         13   -1    0    0    0    0  0.00000000000E+00  0.00000000000E+00  0.74505805969E-08  0.10566000000E+00  0.10566000000E+00 0. -1.
     999900   -1    0    0    0    0 -0.00000000000E+00 -0.00000000000E+00 -0.74505805969E-08  0.93827000000E+00  0.93827000000E+00 0.  1.
     999902    2    1    2    0    0 -0.51618032843E-02  0.11302042450E-01 -0.17508758568E-01  0.10224605565E+01  0.10222351259E+01 0.  0.
     999903    2    3    3    0    0  0.38876873415E-01 -0.24935056368E-01  0.11982105940E+00  0.12998534046E+00  0.20147807251E-01 0.  0.
         14    1    1    2    0    0  0.51618032843E-02 -0.11302042450E-01  0.17508758568E-01  0.21469443479E-01  0.00000000000E+00 0. -1.
     999901    1    3    3    0    0 -0.44038676700E-01  0.36237098818E-01 -0.13732981797E+00  0.89247521606E+00  0.88000000000E+00 0.  1.
        -11    1    4    4    0    0  0.26604452257E-01 -0.21037181368E-01  0.10501074119E+00  0.11035341755E+00  0.51100000000E-03 0. -1.
         11    1    4    4    0    0  0.12272421158E-01 -0.38978749994E-02  0.14810318210E-01  0.19631922908E-01  0.51100000000E-03 0.  1.
</event>
<event>
 7    1  0.1120016E+005  0.1043930E+01  0.7957747E-01            NaN
         13   -1    0    0    0    0  0.00000000000E+00  0.00000000000E+00  0.74505805969E-08  0.10566000000E+00  0.10566000000E+00 0. -1.
     999900   -1    0    0    0    0 -0.00000000000E+00 -0.00000000000E+00 -0.74505805969E-08  0.93827000000E+00  0.93827000000E+00 0.  1.
     999903    2    1    2    0    0 -0.58284529697E-01 -0.44883931727E-01 -0.33181540335E-01  0.83224281342E-01  0.20337469277E-01 0.  0.
         14    1    1    2    0    0  0.62104513137E-01  0.50114365034E-01  0.94720520400E-02  0.80362552875E-01  0.00000000000E+00 0.  1.
     999901    1    1    2    0    0 -0.38199834394E-02 -0.52304333068E-02  0.23709488295E-01  0.88034316578E+00  0.88000000000E+00 0. -1.
        -11    1    3    3    0    0 -0.36065977846E-01 -0.38830322329E-01 -0.26418681897E-01  0.59217873690E-01  0.51100000000E-03 0.  1.
         11    1    3    3    0    0 -0.22218551851E-01 -0.60536093976E-02 -0.67628584384E-02  0.24006407652E-01  0.51100000000E-03 0. -1.
</event>
<event>
 8    1  0.1120016E+005  0.1043930E+01  0.7957747E-01            NaN
         13   -1    0    0    0    0  0.00000000000E+00  0.00000000000E+00  0.74505805969E-08  0.10566000000E+00  0.10566000000E+00 0.  1.
     999900   -1    0    0    0    0 -0.00000000000E+00 -0.00000000000E+00 -0.74505805969E-08  0.93827000000E+00  0.93827000000E+00 0. -1.
     999902    2    1    2    0    0 -0.83042661593E-02  0.11215334676E-01  0.17854018615E-01  0.10212692289E+01  0.10210177899E+01 0.  0.
     999903    2    3    3    0    0 -0.25236998949E-02 -0.12066757586E-01  0.13155204007E+00  0.13363038853E+00  0.19979133891E-01 0.  0.
         14    1    1    2    0    0  0.83042661593E-02 -0.11215334676E-01 -0.17854018615E-01  0.22660771149E-01  0.00000000000E+00 0. -1.
     999901    1    3    3    0    0 -0.57805662644E-02  0.23282092262E-01 -0.11369802146E+00  0.88763884032E+00  0.88000000000E+00 0. -1.
        -11    1    4    4    0    0 -0.40729754096E-02  0.45658909048E-02  0.50605155768E-01  0.50976263101E-01  0.51100000000E-03 0.  1.
         11    1    4    4    0    0  0.15492755147E-02 -0.16632648491E-01  0.80946884305E-01  0.82654125428E-01  0.51100000000E-03 0. -1.
</event>
<event>
 8    1  0.1120016E+005  0.1043930E+01  0.7957747E-01            NaN
         13   -1    0    0    0    0  0.00000000000E+00  0.00000000000E+00  0.74505805969E-08  0.10566000000E+00  0.10566000000E+00 0. -1.
     999900   -1    0    0    0    0 -0.00000000000E+00 -0.00000000000E+00 -0.74505805969E-08  0.93827000000E+00  0.93827000000E+00 0.  1.
     999902    2    1    2    0    0  0.31694122572E-01  0.35917226557E-02  0.55222312386E-02  0.10115585169E+01  0.10110404148E+01 0.  0.
     999903    2    3    3    0    0 -0.23256451928E-01  0.10554074017E+00 -0.52564052918E-01  0.12207148263E+00  0.21418609209E-01 0.  0.
         14    1    1    2    0    0 -0.31694122572E-01 -0.35917226557E-02 -0.55222312386E-02  0.32371483054E-01  0.00000000000E+00 0.  1.
     999901    1    3    3    0    0  0.54950574500E-01 -0.10194901751E+00  0.58086284157E-01  0.88948703432E+00  0.88000000000E+00 0. -1.
        -11    1    4    4    0    0 -0.16492537126E-01  0.31082021917E-01 -0.20435977476E-01  0.40693809895E-01  0.51100000000E-03 0.  1.
         11    1    4    4    0    0 -0.67639148021E-02  0.74458718252E-01 -0.32128075442E-01  0.81377672735E-01  0.51100000000E-03 0. -1.
</event>
<event>
 8    1  0.1120016E+005  0.1043930E+01  0.7957747E-01            NaN
         13   -1    0    0    0    0  0.00000000000E+00  0.00000000000E+00  0.74505805969E-08  0.10566000000E+00  0.10566000000E+00 0.  1.
     999900   -1    0    0    0    0 -0.00000000000E+00 -0.00000000000E+00 -0.74505805969E-08  0.93827000000E+00  0.93827000000E+00 0. -1.
     999902    2    1    2    0    0  0.43357942180E-02  0.38174745291E-02  0.23077794750E-01  0.10201401527E+01  0.10198627233E+01 0.  0.
     999903    2    3    3    0    0  0.11501115989E+00  0.44377437079E-01  0.42874398990E-01  0.13206017171E+00  0.20118425415E-01 0.  0.
         14    1    1    2    0    0 -0.43357942180E-02 -0.38174745291E-02 -0.23077794750E-01  0.23789847284E-01  0.00000000000E+00 0. -1.
     999901    1    3    3    0    0 -0.11067536567E+00 -0.40559962550E-01 -0.19796604240E-01  0.88807998101E+00  0.88000000000E+00 0. -1.
        -11    1    4    4    0    0  0.34481865793E-01  0.20397521456E-01  0.68936883594E-02  0.40655159702E-01  0.51100000000E-03 0.  1.
         11    1    4    4    0    0  0.80529294098E-01  0.23979915622E-01  0.35980710631E-01  0.91405012005E-01  0.51100000000E-03 0. -1.
</event>
<event>
 8    1  0.1120016E+005  0.1043930E+01  0.7957747E-01            NaN
         13   -1    0    0    0    0  0.00000000000E+00  0.00000000000E+00  0.74505805969E-08  0.10566000000E+00  0.10566000000E+00 0. -1.
     999900   -1    0    0    0    0 -0.00000000000E+00 -0.00000000000E+00 -0.74505805969E-08  0.93827000000E+00  0.93827000000E+00 0.  1.
     999902    2    1    2    0    0 -0.19712878960E-01 -0.10971683520E-01 -0.82628080032E-02  0.10199039843E+01  0.10196209529E+01 0.  0.
     999903    2    3    3    0    0 -0.11995084952E-01  0.68452919889E-01  0.10667171176E+00  0.12884967851E+00  0.19841906591E-01 0.  0.
         14    1    1    2    0    0  0.19712878960E-01  0.10971683520E-01  0.82628080032E-02  0.24026015738E-01  0.00000000000E+00 0.  1.
     999901    1    3    3    0    0 -0.77177940081E-02 -0.79424603409E-01 -0.11493451976E+00  0.89105430575E+00  0.88000000000E+00 0.  1.
        -11    1    4    4    0    0 -0.13852965990E-01  0.39068664158E-01  0.74342587430E-01  0.85119601811E-01  0.51100000000E-03 0. -1.
         11    1    4    4    0    0  0.18578810377E-02  0.29384255732E-01  0.32329124330E-01  0.43730076696E-01  0.51100000000E-03 0.  1.
</event>
<event>
 8    1  0.1120016E+005  0.1043930E+01  0.7957747E-01            NaN
         13   -1    0    0    0    0  0.00000000000E+00  0.00000000000E+00  0.74505805969E-08  0.10566000000E+00  0.10566000000E+00 0. -1.
     999900   -1    0    0    0    0 -0.00000000000E+00 -0.00000000000E+00 -0.74505805969E-08  0.93827000000E+00  0.93827000000E+00 0. -1.
     999902    2    1    2    0    0  0.13398479104E-01 -0.19112813233E-01 -0.96384797967E-02  0.10186768979E+01  0.10183638364E+01 0.  0.
     999903    2    3    3    0    0  0.79751827807E-01  0.44350384063E-01  0.86372785403E-01  0.12870582685E+00  0.27885860243E-01 0.  0.
         14    1    1    2    0    0 -0.13398479104E-01  0.19112813233E-01  0.96384797967E-02  0.25253102082E-01  0.00000000000E+00 0. -1.
     999901    1    3    3    0    0 -0.66353348702E-01 -0.63463197295E-01 -0.96011265200E-01  0.88997107107E+00  0.88000000000E+00 0. -1.
        -11    1    4    4    0    0  0.31108934124E-01  0.28802028117E-01  0.52237746925E-01  0.67278272353E-01  0.51100000000E-03 0. -1.
         11    1    4    4    0    0  0.48642893683E-01  0.15548355946E-01  0.34135038478E-01  0.61427554496E-01  0.51100000000E-03 0.  1.
</event>
<event>
 8    1  0.1120016E+005  0.1043930E+01  0.7957747E-01            NaN
         13   -1    0    0    0    0  0.00000000000E+00  0.00000000000E+00  0.74505805969E-08  0.10566000000E+00  0.10566000000E+00 0. -1.
     999900   -1    0    0    0    0 -0.00000000000E+00 -0.00000000000E+00 -0.74505805969E-08  0.93827000000E+00  0.93827000000E+00 0. -1.
     999902    2    1    2    0    0 -0.99870810148E-02 -0.20173919060E-01 -0.62784111674E-02  0.10205602066E+01  0.10202925992E+01 0.  0.
     999903    2    3    3    0    0 -0.98561684584E-01 -0.56296440483E-01 -0.66928544952E-01  0.13330109242E+00  0.20150836975E-01 0.  0.
         14    1    1    2    0    0  0.99870810148E-02  0.20173919060E-01  0.62784111674E-02  0.23369793414E-01  0.00000000000E+00 0.  1.
     999901    1    3    3    0    0  0.88574603569E-01  0.36122521423E-01  0.60650133784E-01  0.88725911417E+00  0.88000000000E+00 0.  1.
        -11    1    4    4    0    0 -0.76603592572E-01 -0.51573614310E-01 -0.58433379533E-01  0.10928251943E+00  0.51100000000E-03 0. -1.
         11    1    4    4    0    0 -0.21958092012E-01 -0.47228261728E-02 -0.84951654190E-02  0.24018572987E-01  0.51100000000E-03 0.  1.
</event>
<event>
 8    1  0.1120016E+005  0.1043930E+01  0.7957747E-01            NaN
         13   -1    0    0    0    0  0.00000000000E+00  0.00000000000E+00  0.74505805969E-08  0.10566000000E+00  0.10566000000E+00 0.  1.
     999900   -1    0    0    0    0 -0.00000000000E+00 -0.00000000000E+00 -0.74505805969E-08  0.93827000000E+00  0.93827000000E+00 0. -1.
     999902    2    1    2    0    0 -0.22406312999E-01 -0.85874783848E-02 -0.20289512663E-02  0.10198487980E+01  0.10195644494E+01 0.  0.
     999903    2    3    3    0    0 -0.35945664636E-01  0.80206820130E-01 -0.95659928313E-01  0.13033516608E+00  0.10545559706E-01 0.  0.
         14    1    1    2    0    0  0.22406312999E-01  0.85874783848E-02  0.20289512663E-02  0.24081202014E-01  0.00000000000E+00 0. -1.
     999901    1    3    3    0    0  0.13539351638E-01 -0.88794298515E-01  0.93630977047E-01  0.88951363191E+00  0.88000000000E+00 0.  1.
        -11    1    4    4    0    0 -0.11704672012E-01  0.27459856293E-01 -0.25425014618E-01  0.39213971284E-01  0.51100000000E-03 0.  1.
         11    1    4    4    0    0 -0.24240992625E-01  0.52746963837E-01 -0.70234913695E-01  0.91121194791E-01  0.51100000000E-03 0. -1.
</event>
<event>
 8    1  0.1120016E+005  0.1043930E+01  0.7957747E-01            NaN
         13   -1    0    0    0    0  0.00000000000E+00  0.00000000000E+00  0.74505805969E-08  0.10566000000E+00  0.10566000000E+00 0. -1.
     999900   -1    0    0    0    0 -0.00000000000E+00 -0.00000000000E+00 -0.74505805969E-08  0.93827000000E+00  0.93827000000E+00 0. -1.
     999902    2    1    2    0    0  0.17433775108E-01  0.15532498779E-01  0.61634085689E-03  0.10205724550E+01  0.10203051313E+01 0.  0.
     999903    2    3    3    0    0  0.11285155614E+00  0.69041197916E-01  0.25758186191E-02  0.13379651183E+00  0.19816937269E-01 0.  0.
         14    1    1    2    0    0 -0.17433775108E-01 -0.15532498779E-01 -0.61634085689E-03  0.23357545010E-01  0.00000000000E+00 0. -1.
     999901    1    3    3    0    0 -0.95417781032E-01 -0.53508699137E-01 -0.19594777622E-02  0.88677594316E+00  0.88000000000E+00 0. -1.
        -11    1    4    4    0    0  0.80626265625E-01  0.43345005485E-01 -0.58415798466E-02  0.91726601296E-01  0.51100000000E-03 0.  1.
         11    1    4    4    0    0  0.32225290514E-01  0.25696192431E-01  0.84173984657E-02  0.42069910531E-01  0.51100000000E-03 0. -1.
</event>
<event>
 8    1  0.1120016E+005  0.1043930E+01  0.7957747E-01            NaN
         13   -1    0    0    0    0  0.00000000000E+00  0.00000000000E+00  0.74505805969E-08  0.10566000000E+00  0.10566000000E+00 0. -1.
     999900   -1    0    0    0    0 -0.00000000000E+00 -0.00000000000E+00 -0.74505805969E-08  0.93827000000E+00  0.93827000000E+00 0. -1.
     999902    2    1    2    0    0  0.18218659979E-01  0.15997945783E-01 -0.12173974322E-01  0.10167995836E+01  0.10164375701E+01 0.  0.
     999903    2    3    3    0    0  0.36237861256E-01  0.80218159550E-01 -0.94227417634E-01  0.13046911761E+00  0.19880862789E-01 0.  0.
         14    1    1    2    0    0 -0.18218659979E-01 -0.15997945783E-01  0.12173974322E-01  0.27130416353E-01  0.00000000000E+00 0. -1.
     999901    1    3    3    0    0 -0.18019201278E-01 -0.64220213767E-01  0.82053443312E-01  0.88633046604E+00  0.88000000000E+00 0.  1.
        -11    1    4    4    0    0  0.15958552522E-01  0.40712025284E-01 -0.32777643371E-01  0.54651435729E-01  0.51100000000E-03 0.  1.
         11    1    4    4    0    0  0.20279308735E-01  0.39506134266E-01 -0.61449774263E-01  0.75817681878E-01  0.51100000000E-03 0. -1.
</event>
<event>
 8    1  0.1120016E+005  0.1043930E+01  0.7957747E-01            NaN
         13   -1    0    0    0    0  0.00000000000E+00  0.00000000000E+00  0.74505805969E-08  0.10566000000E+00  0.10566000000E+00 0.  1.
     999900   -1    0    0    0    0 -0.00000000000E+00 -0.00000000000E+00 -0.74505805969E-08  0.93827000000E+00  0.93827000000E+00 0.  1.
     999902    2    1    2    0    0 -0.17748711958E-01  0.12107106316E-01 -0.76647684857E-02  0.10211188739E+01  0.10208640493E+01 0.  0.
     999903    2    3    3    0    0  0.27410437759E-01  0.95841096683E-01 -0.85365629298E-01  0.13258741482E+00  0.18848978525E-01 0.  0.
         14    1    1    2    0    0  0.17748711958E-01 -0.12107106316E-01  0.76647684857E-02  0.22811126133E-01  0.00000000000E+00 0. -1.
     999901    1    3    3    0    0 -0.45159149717E-01 -0.83733990367E-01  0.77700860812E-01  0.88853145905E+00  0.88000000000E+00 0. -1.
        -11    1    4    4    0    0  0.83778401737E-02  0.49597439388E-01 -0.52705213596E-01  0.72857359690E-01  0.51100000000E-03 0.  1.
         11    1    4    4    0    0  0.19032597585E-01  0.46243657296E-01 -0.32660415701E-01  0.59730055129E-01  0.51100000000E-03 0. -1.
</event>
<event>
 8    1  0.1120016E+005  0.1043930E+01  0.7957747E-01            NaN
         13   -1    0    0    0    0  0.00000000000E+00  0.00000000000E+00  0.74505805969E-08  0.10566000000E+00  0.10566000000E+00 0. -1.
     999900   -1    0    0    0    0 -0.00000000000E+00 -0.00000000000E+00 -0.74505805969E-08  0.93827000000E+00  0.93827000000E+00 0. -1.
     999902    2    1    2    0    0 -0.10424464344E-01  0.75819401997E-02 -0.19681750396E-01  0.10204028546E+01  0.10201315891E+01 0.  0.
     999903    2    3    3    0    0  0.92485495111E-02  0.10404850691E+00 -0.79679984039E-01  0.13288236803E+00  0.19929787197E-01 0.  0.
         14    1    1    2    0    0  0.10424464344E-01 -0.75819401997E-02  0.19681750396E-01  0.23527145443E-01  0.00000000000E+00 0.  1.
     999901    1    3    3    0    0 -0.19673013856E-01 -0.96466566712E-01  0.59998233644E-01  0.88752048653E+00  0.88000000000E+00 0.  1.
        -11    1    4    4    0    0  0.63531419709E-02  0.96690053207E-01 -0.78825813822E-01  0.12491236467E+00  0.51100000000E-03 0.  1.
         11    1    4    4    0    0  0.28954075402E-02  0.73584537046E-02 -0.85417021695E-03  0.79700033567E-02  0.51100000000E-03 0. -1.
</event>
<event>
 8    1  0.1315924E+005  0.1043930E+01  0.7957747E-01            NaN
         13   -1    0    0    0    0  0.00000000000E+00  0.00000000000E+00  0.74505805969E-08  0.10566000000E+00  0.10566000000E+00 0.  1.
     999900   -1    0    0    0    0 -0.00000000000E+00 -0.00000000000E+00 -0.74505805969E-08  0.93827000000E+00  0.93827000000E+00 0.  1.
     999902    2    1    2    0    0  0.15718825742E-01 -0.15777663988E-01 -0.75191662082E-02  0.10204235323E+01  0.10201527490E+01 0.  0.
     999903    2    3    3    0    0  0.94889774431E-03 -0.13124054578E+00 -0.36080649872E-02  0.13274953551E+00  0.19607136029E-01 0.  0.
         14    1    1    2    0    0 -0.15718825742E-01  0.15777663988E-01  0.75191662082E-02  0.23506467708E-01  0.00000000000E+00 0. -1.
     999901    1    3    3    0    0  0.14769927998E-01  0.11546288179E+00 -0.39111012210E-02  0.88767399678E+00  0.88000000000E+00 0. -1.
        -11    1    4    4    0    0  0.18503603833E-02 -0.63819385504E-01  0.79353160383E-02  0.64339475917E-01  0.51100000000E-03 0.  1.
         11    1    4    4    0    0 -0.90146263901E-03 -0.67421160273E-01 -0.11543381026E-01  0.68410059596E-01  0.51100000000E-03 0. -1.
</event>
<event>
 8    1  0.1120016E+005  0.1043930E+01  0.7957747E-01            NaN
         13   -1    0    0    0    0  0.00000000000E+00  0.00000000000E+00  0.74505805969E-08  0.10566000000E+00  0.10566000000E+00 0.  1.
     999900   -1    0    0    0    0 -0.00000000000E+00 -0.00000000000E+00 -0.74505805969E-08  0.93827000000E+00  0.93827000000E+00 0.  1.
     999902    2    1    2    0    0  0.15914385742E-01 -0.52046321971E-02 -0.16452863699E-01  0.10204554906E+01  0.10201854516E+01 0.  0.
     999903    2    3    3    0    0  0.10895339024E+00  0.71005225801E-01 -0.15883809027E-01  0.13227503443E+00  0.18215543038E-01 0.  0.
         14    1    1    2    0    0 -0.15914385742E-01  0.52046321971E-02  0.16452863699E-01  0.23474509446E-01  0.00000000000E+00 0. -1.
     999901    1    3    3    0    0 -0.93039004501E-01 -0.76209857998E-01 -0.56905467214E-03  0.88818045612E+00  0.88000000000E+00 0.  1.
        -11    1    4    4    0    0  0.66517184750E-01  0.32796214107E-01 -0.10744990552E-01  0.74938931603E-01  0.51100000000E-03 0. -1.
         11    1    4    4    0    0  0.42436205493E-01  0.38209011694E-01 -0.51388184742E-02  0.57336102829E-01  0.51100000000E-03 0.  1.
</event>
<event>
 8    1  0.1120016E+005  0.1043930E+01  0.7957747E-01            NaN
         13   -1    0    0    0    0  0.00000000000E+00  0.00000000000E+00  0.74505805969E-08  0.10566000000E+00  0.10566000000E+00 0.  1.
     999900   -1    0    0    0    0 -0.00000000000E+00 -0.00000000000E+00 -0.74505805969E-08  0.93827000000E+00  0.93827000000E+00 0. -1.
     999902    2    1    2    0    0 -0.26269404272E-01 -0.14288550332E-02  0.28351567106E-02  0.10174694380E+01  0.10171253098E+01 0.  0.
     999903    2    3    3    0    0  0.19703307199E-01  0.71186111837E-01 -0.10151367191E+00  0.12714640582E+00  0.20137032891E-01 0.  0.
         14    1    1    2    0    0  0.26269404272E-01  0.14288550332E-02 -0.28351567106E-02  0.26460561994E-01  0.00000000000E+00 0. -1.
     999901    1    3    3    0    0 -0.45972711470E-01 -0.72614966870E-01  0.10434882862E+00  0.89032303219E+00  0.88000000000E+00 0.  1.
        -11    1    4    4    0    0  0.21887490076E-01  0.42792178218E-01 -0.62831637540E-01  0.79109471844E-01  0.51100000000E-03 0. -1.
         11    1    4    4    0    0 -0.21841828780E-02  0.28393933618E-01 -0.38682034373E-01  0.48036933971E-01  0.51100000000E-03 0.  1.
</event>
<event>
 8    1  0.1120016E+005  0.1043930E+01  0.7957747E-01            NaN
         13   -1    0    0    0    0  0.00000000000E+00  0.00000000000E+00  0.74505805969E-08  0.10566000000E+00  0.10566000000E+00 0.  1.
     999900   -1    0    0    0    0 -0.00000000000E+00 -0.00000000000E+00 -0.74505805969E-08  0.93827000000E+00  0.93827000000E+00 0. -1.
     999902    2    1    2    0    0 -0.73439057872E-02 -0.17785110373E-01  0.16607372940E-01  0.10185125269E+01  0.10181953248E+01 0.  0.
     999903    2    3    3    0    0  0.83170520261E-01 -0.95442821531E-01 -0.20440216299E-01  0.12969527611E+00  0.19400891214E-01 0.  0.
         14    1    1    2    0    0  0.73439057872E-02  0.17785110373E-01 -0.16607372940E-01  0.25417473108E-01  0.00000000000E+00 0. -1.
     999901    1    3    3    0    0 -0.90514426048E-01  0.77657711158E-01  0.37047589240E-01  0.88881725079E+00  0.88000000000E+00 0.  1.
        -11    1    4    4    0    0  0.48350892659E-01 -0.61879451474E-01 -0.21134714148E-01  0.81325350284E-01  0.51100000000E-03 0.  1.
         11    1    4    4    0    0  0.34819627602E-01 -0.33563370057E-01  0.69449784846E-03  0.48369925823E-01  0.51100000000E-03 0. -1.
</event>
<event>
 8    1  0.1120016E+005  0.1043930E+01  0.7957747E-01            NaN
         13   -1    0    0    0    0  0.00000000000E+00  0.00000000000E+00  0.74505805969E-08  0.10566000000E+00  0.10566000000E+00 0.  1.
     999900   -1    0    0    0    0 -0.00000000000E+00 -0.00000000000E+00 -0.74505805969E-08  0.93827000000E+00  0.93827000000E+00 0.  1.
     999902    2    1    2    0    0 -0.16232888040E-01  0.18208617023E-01 -0.13186815455E-02  0.10195005238E+01  0.10192077897E+01 0.  0.
     999903    2    3    3    0    0 -0.28892573027E-01 -0.95886275580E-01  0.78199254540E-01  0.12848929247E+00  0.19115863762E-01 0.  0.
         14    1    1    2    0    0  0.16232888040E-01 -0.18208617023E-01  0.13186815455E-02  0.24429476234E-01  0.00000000000E+00 0. -1.
     999901    1    3    3    0    0  0.12659684986E-01  0.11409489260E+00 -0.79517936085E-01  0.89101123130E+00  0.88000000000E+00 0.  1.
        -11    1    4    4    0    0 -0.54119350517E-02 -0.48342024760E-01  0.32693106582E-01  0.58611779857E-01  0.51100000000E-03 0. -1.
         11    1    4    4    0    0 -0.23480637975E-01 -0.47544250820E-01  0.45506147958E-01  0.69877512611E-01  0.51100000000E-03 0.  1.
</event>
<event>
 8    1  0.1120016E+005  0.1043930E+01  0.7957747E-01            NaN
         13   -1    0    0    0    0  0.00000000000E+00  0.00000000000E+00  0.74505805969E-08  0.10566000000E+00  0.10566000000E+00 0.  1.
     999900   -1    0    0    0    0 -0.00000000000E+00 -0.00000000000E+00 -0.74505805969E-08  0.93827000000E+00  0.93827000000E+00 0.  1.
     999902    2    1    2    0    0 -0.19286734369E-01  0.71414779807E-02 -0.15923784703E-02  0.10233019972E+01  0.10230940636E+01 0.  0.
     999903    2    3    3    0    0 -0.19231870751E-01 -0.12253470811E+00  0.42910571232E-01  0.13268623898E+00  0.19485926943E-01 0.  0.
         14    1    1    2    0    0  0.19286734369E-01 -0.71414779807E-02  0.15923784703E-02  0.20628002801E-01  0.00000000000E+00 0. -1.
     999901    1    3    3    0    0 -0.54863618248E-04  0.12967618609E+00 -0.44502949702E-01  0.89061575821E+00  0.88000000000E+00 0.  1.
        -11    1    4    4    0    0 -0.11317429238E-02 -0.20085643328E-01  0.14611735151E-01  0.24869214605E-01  0.51100000000E-03 0.  1.
         11    1    4    4    0    0 -0.18100127827E-01 -0.10244906478E+00  0.28298836081E-01  0.10781702438E+00  0.51100000000E-03 0. -1.
</event>
<event>
 8    1  0.1120016E+005  0.1043930E+01  0.7957747E-01            NaN
         13   -1    0    0    0    0  0.00000000000E+00  0.00000000000E+00  0.74505805969E-08  0.10566000000E+00  0.10566000000E+00 0. -1.
     999900   -1    0    0    0    0 -0.00000000000E+00 -0.00000000000E+00 -0.74505805969E-08  0.93827000000E+00  0.93827000000E+00 0. -1.
     999902    2    1    2    0    0 -0.17973541888E-01  0.37259708630E-02  0.17681383533E-01  0.10184434861E+01  0.10181245366E+01 0.  0.
     999903    2    3    3    0    0  0.46693161796E-01 -0.10802354888E+00  0.47534821435E-01  0.12852159881E+00  0.20221365977E-01 0.  0.
         14    1    1    2    0    0  0.17973541888E-01 -0.37259708630E-02 -0.17681383533E-01  0.25486513895E-01  0.00000000000E+00 0.  1.
     999901    1    3    3    0    0 -0.64666703684E-01  0.11174951974E+00 -0.29853437901E-01  0.88992188729E+00  0.88000000000E+00 0. -1.
        -11    1    4    4    0    0  0.31420834886E-01 -0.56566011480E-01  0.34291548208E-01  0.73233557330E-01  0.51100000000E-03 0. -1.
         11    1    4    4    0    0  0.15272326910E-01 -0.51457537397E-01  0.13243273226E-01  0.55288041483E-01  0.51100000000E-03 0.  1.
</event>
<event>
 8    1  0.1120016E+005  0.1043930E+01  0.7957747E-01            NaN
         13   -1    0    0    0    0  0.00000000000E+00  0.00000000000E+00  0.74505805969E-08  0.10566000000E+00  0.10566000000E+00 0. -1.
     999900   -1    0    0    0    0 -0.00000000000E+00 -0.00000000000E+00 -0.74505805969E-08  0.93827000000E+00  0.93827000000E+00 0.  1.
     999902    2    1    2    0    0  0.80254363654E-02 -0.15462699582E-01  0.15539441617E-01  0.10205852586E+01  0.10203182313E+01 0.  0.
     999903    2    3    3    0    0  0.10397787954E+00 -0.53988996734E-01 -0.56586779843E-01  0.13160081621E+00  0.19761072125E-01 0.  0.
         14    1    1    2    0    0 -0.80254363654E-02  0.15462699582E-01 -0.15539441617E-01  0.23344741442E-01  0.00000000000E+00 0.  1.
     999901    1    3    3    0    0 -0.95952443171E-01  0.38526297152E-01  0.72126221460E-01  0.88898444235E+00  0.88000000000E+00 0. -1.
        -11    1    4    4    0    0  0.56579684681E-01 -0.36906235043E-01 -0.24468174244E-01  0.71849033226E-01  0.51100000000E-03 0. -1.
         11    1    4    4    0    0  0.47398194856E-01 -0.17082761692E-01 -0.32118605599E-01  0.59751782980E-01  0.51100000000E-03 0.  1.
</event>
<event>
 8    1  0.1120016E+005  0.1043930E+01  0.7957747E-01            NaN
         13   -1    0    0    0    0  0.00000000000E+00  0.00000000000E+00  0.74505805969E-08  0.10566000000E+00  0.10566000000E+00 0.  1.
     999900   -1    0    0    0    0 -0.00000000000E+00 -0.00000000000E+00 -0.74505805969E-08  0.93827000000E+00  0.93827000000E+00 0. -1.
     999902    2    1    2    0    0  0.15030806991E-01  0.12799020317E-01  0.14291316882E-01  0.10195582578E+01  0.10192669225E+01 0.  0.
     999903    2    3    3    0    0  0.40295742594E-01 -0.98406680377E-01  0.72737765525E-01  0.13027708055E+00  0.19331672713E-01 0.  0.
         14    1    1    2    0    0 -0.15030806991E-01 -0.12799020317E-01 -0.14291316882E-01  0.24371742204E-01  0.00000000000E+00 0.  1.
     999901    1    3    3    0    0 -0.25264935604E-01  0.11120570069E+00 -0.58446448643E-01  0.88928117724E+00  0.88000000000E+00 0. -1.
        -11    1    4    4    0    0  0.31877596500E-01 -0.90762789926E-01  0.60904686852E-01  0.11385827680E+00  0.51100000000E-03 0. -1.
         11    1    4    4    0    0  0.84181460948E-02 -0.76438904517E-02  0.11833078673E-01  0.16418803757E-01  0.51100000000E-03 0.  1.
</event>
<event>
 8    1  0.1120016E+005  0.1043930E+01  0.7957747E-01            NaN
         13   -1    0    0    0    0  0.00000000000E+00  0.00000000000E+00  0.74505805969E-08  0.10566000000E+00  0.10566000000E+00 0. -1.
     999900   -1    0    0    0    0 -0.00000000000E+00 -0.00000000000E+00 -0.74505805969E-08  0.93827000000E+00  0.93827000000E+00 0. -1.
     999902    2    1    2    0    0 -0.18639747009E-01  0.14197384165E-01 -0.20003162660E-02  0.10204138959E+01  0.10201428880E+01 0.  0.
     999903    2    3    3    0    0  0.64714266870E-01 -0.61583394707E-01  0.90096683869E-01  0.12846520037E+00  0.20135650487E-01 0.  0.
         14    1    1    2    0    0  0.18639747009E-01 -0.14197384165E-01  0.20003162660E-02  0.23516104075E-01  0.00000000000E+00 0. -1.
     999901    1    3    3    0    0 -0.83354013880E-01  0.75780778872E-01 -0.92097000135E-01  0.89194869556E+00  0.88000000000E+00 0. -1.
        -11    1    4    4    0    0  0.80511457680E-02 -0.17053751076E-01  0.25231596665E-01  0.31504697510E-01  0.51100000000E-03 0. -1.
         11    1    4    4    0    0  0.56663121102E-01 -0.44529643631E-01  0.64865087204E-01  0.96960502855E-01  0.51100000000E-03 0.  1.
</event>
<event>
 8    1  0.1120016E+005  0.1043930E+01  0.7957747E-01            NaN
         13   -1    0    0    0    0  0.00000000000E+00  0.00000000000E+00  0.74505805969E-08  0.10566000000E+00  0.10566000000E+00 0. -1.
     999900   -1    0    0    0    0 -0.00000000000E+00 -0.00000000000E+00 -0.74505805969E-08  0.93827000000E+00  0.93827000000E+00 0. -1.
     999902    2    1    2    0    0  0.14961354559E-01  0.17911431871E-01 -0.36075416033E-02  0.10203148380E+01  0.10200415152E+01 0.  0.
     999903    2    3    3    0    0  0.10044445277E+00  0.71213240070E-01  0.46352815767E-01  0.13315956398E+00  0.20554130900E-01 0.  0.
         14    1    1    2    0    0 -0.14961354559E-01 -0.17911431871E-01  0.36075416033E-02  0.23615162043E-01  0.00000000000E+00 0.  1.
     999901    1    3    3    0    0 -0.85483098207E-01 -0.53301808200E-01 -0.49960357370E-01  0.88715527398E+00  0.88000000000E+00 0. -1.
        -11    1    4    4    0    0  0.21230235415E-01  0.19739165568E-01  0.19519516320E-01  0.34951826725E-01  0.51100000000E-03 0.  1.
         11    1    4    4    0    0  0.79214217352E-01  0.51474074503E-01  0.26833299447E-01  0.98207737255E-01  0.51100000000E-03 0. -1.
</event>
<event>
 8    1  0.1120016E+005  0.1043930E+01  0.7957747E-01            NaN
         13   -1    0    0    0    0  0.00000000000E+00  0.00000000000E+00  0.74505805969E-08  0.10566000000E+00  0.10566000000E+00 0.  1.
     999900   -1    0    0    0    0 -0.00000000000E+00 -0.00000000000E+00 -0.74505805969E-08  0.93827000000E+00  0.93827000000E+00 0.  1.
     999902    2    1    2    0    0  0.56640944011E-03  0.20227680545E-01 -0.98102132039E-02  0.10214417772E+01  0.10211941951E+01 0.  0.
     999903    2    3    3    0    0  0.41193871103E-01 -0.11974803530E+00  0.15207982393E-01  0.12910232289E+00  0.19989999364E-01 0.  0.
         14    1    1    2    0    0 -0.56640944011E-03 -0.20227680545E-01  0.98102132039E-02  0.22488222762E-01  0.00000000000E+00 0.  1.
     999901    1    3    3    0    0 -0.40627461663E-01  0.13997571584E+00 -0.25018195597E-01  0.89233945434E+00  0.88000000000E+00 0.  1.
        -11    1    4    4    0    0  0.20786015127E-01 -0.61849777372E-01 -0.22063668076E-02  0.65288456571E-01  0.51100000000E-03 0.  1.
         11    1    4    4    0    0  0.20407855975E-01 -0.57898257924E-01  0.17414349201E-01  0.63813866324E-01  0.51100000000E-03 0. -1.
</event>
<event>
 8    1  0.1120016E+005  0.1043930E+01  0.7957747E-01            NaN
         13   -1    0    0    0    0  0.00000000000E+00  0.00000000000E+00  0.74505805969E-08  0.10566000000E+00  0.10566000000E+00 0. -1.
     999900   -1    0    0    0    0 -0.00000000000E+00 -0.00000000000E+00 -0.74505805969E-08  0.93827000000E+00  0.93827000000E+00 0. -1.
     999902    2    1    2    0    0 -0.13305157483E-01 -0.10549371258E-01  0.14975614970E-01  0.10212896490E+01  0.10210386681E+01 0.  0.
     999903    2    3    3    0    0 -0.10368953742E-01 -0.71143546666E-01  0.11130624155E+00  0.13395664218E+00  0.19656630939E-01 0.  0.
         14    1    1    2    0    0  0.13305157483E-01  0.10549371258E-01 -0.14975614970E-01  0.22640350998E-01  0.00000000000E+00 0.  1.
     999901    1    3    3    0    0 -0.29362037409E-02  0.60594175408E-01 -0.96330626585E-01  0.88733300683E+00  0.88000000000E+00 0. -1.
        -11    1    4    4    0    0  0.16469936094E-03 -0.43734641203E-01  0.78981492563E-01  0.90283349824E-01  0.51100000000E-03 0.  1.
         11    1    4    4    0    0 -0.10533653103E-01 -0.27408905463E-01  0.32324748992E-01  0.43673292351E-01  0.51100000000E-03 0. -1.
</event>
<event>
 8    1  0.1120016E+005  0.1043930E+01  0.7957747E-01            NaN
         13   -1    0    0    0    0  0.00000000000E+00  0.00000000000E+00  0.74505805969E-08  0.10566000000E+00  0.10566000000E+00 0. -1.
     999900   -1    0    0    0    0 -0.00000000000E+00 -0.00000000000E+00 -0.74505805969E-08  0.93827000000E+00  0.93827000000E+00 0. -1.
     999902    2    1    2    0    0 -0.29512729944E-02  0.23107947227E-01  0.48770572278E-03  0.10206292469E+01  0.10203632366E+01 0.  0.
     999903    2    3    3    0    0  0.92825090087E-01  0.45424919198E-01 -0.78997307242E-01  0.13159098776E+00  0.19892030413E-01 0.  0.
         14    1    1    2    0    0  0.29512729944E-02 -0.23107947227E-01 -0.48770572278E-03  0.23300753082E-01  0.00000000000E+00 0.  1.
     999901    1    3    3    0    0 -0.95776363082E-01 -0.22316971972E-01  0.79485012964E-01  0.88903825916E+00  0.88000000000E+00 0. -1.
        -11    1    4    4    0    0  0.27552833420E-01  0.14082540390E-01 -0.35608480989E-01  0.47177342153E-01  0.51100000000E-03 0.  1.
         11    1    4    4    0    0  0.65272256667E-01  0.31342378808E-01 -0.43388826253E-01  0.84413645605E-01  0.51100000000E-03 0. -1.
</event>
<event>
 8    1  0.1120016E+005  0.1043930E+01  0.7957747E-01            NaN
         13   -1    0    0    0    0  0.00000000000E+00  0.00000000000E+00  0.74505805969E-08  0.10566000000E+00  0.10566000000E+00 0.  1.
     999900   -1    0    0    0    0 -0.00000000000E+00 -0.00000000000E+00 -0.74505805969E-08  0.93827000000E+00  0.93827000000E+00 0. -1.
     999902    2    1    2    0    0 -0.19342530319E-01 -0.12690406358E-01  0.58601991130E-03  0.10207886234E+01  0.10205262810E+01 0.  0.
     999903    2    3    3    0    0 -0.31302968637E-01  0.87058335835E-01 -0.89980266447E-01  0.13045435139E+00  0.19048878246E-01 0.  0.
         14    1    1    2    0    0  0.19342530319E-01  0.12690406358E-01 -0.58601991130E-03  0.23141376623E-01  0.00000000000E+00 0.  1.
     999901    1    3    3    0    0  0.11960438319E-01 -0.99748742193E-01  0.90566286358E-01  0.89033427199E+00  0.88000000000E+00 0.  1.
        -11    1    4    4    0    0 -0.10120754706E-01  0.55131911079E-01 -0.56109979172E-01  0.79312976106E-01  0.51100000000E-03 0. -1.
         11    1    4    4    0    0 -0.21182213931E-01  0.31926424755E-01 -0.33870287275E-01  0.51141375283E-01  0.51100000000E-03 0.  1.
</event>
<event>
 8    1  0.1120016E+005  0.1043930E+01  0.7957747E-01            NaN
         13   -1    0    0    0    0  0.00000000000E+00  0.00000000000E+00  0.74505805969E-08  0.10566000000E+00  0.10566000000E+00 0. -1.
     999900   -1    0    0    0    0 -0.00000000000E+00 -0.00000000000E+00 -0.74505805969E-08  0.93827000000E+00  0.93827000000E+00 0. -1.
     999902    2    1    2    0    0 -0.13944719623E-01  0.16020193251E-01 -0.77997957272E-02  0.10213039396E+01  0.10210532789E+01 0.  0.
     999903    2    3    3    0    0  0.86962296938E-01 -0.66636329176E-01 -0.66767294911E-01  0.12973706454E+00  0.19261173150E-01 0.  0.
         14    1    1    2    0    0  0.13944719623E-01 -0.16020193251E-01  0.77997957272E-02  0.22626060429E-01  0.00000000000E+00 0. -1.
     999901    1    3    3    0    0 -0.10090701656E+00  0.82656522428E-01  0.58967499184E-01  0.89156687503E+00  0.88000000000E+00 0.  1.
        -11    1    4    4    0    0  0.43909602011E-01 -0.43035306692E-01 -0.44054640261E-01  0.75638371349E-01  0.51100000000E-03 0. -1.
         11    1    4    4    0    0  0.43052694927E-01 -0.23601022485E-01 -0.22712654649E-01  0.54098693191E-01  0.51100000000E-03 0.  1.
</event>
<event>
 8    1  0.1120016E+005  0.1043930E+01  0.7957747E-01            NaN
         13   -1    0    0    0    0  0.00000000000E+00  0.00000000000E+00  0.74505805969E-08  0.10566000000E+00  0.10566000000E+00 0.  1.
     999900   -1    0    0    0    0 -0.00000000000E+00 -0.00000000000E+00 -0.74505805969E-08  0.93827000000E+00  0.93827000000E+00 0. -1.
     999902    2    1    2    0    0  0.24682358776E-01 -0.16681187181E-01  0.44129430311E-02  0.10138143080E+01  0.10133669109E+01 0.  0.
     999903    2    3    3    0    0 -0.71807463154E-01  0.80639705206E-01 -0.51838691581E-01  0.12143216548E+00  0.19986171415E-01 0.  0.
         14    1    1    2    0    0 -0.24682358776E-01  0.16681187181E-01 -0.44129430311E-02  0.30115692034E-01  0.00000000000E+00 0. -1.
     999901    1    3    3    0    0  0.96489821931E-01 -0.97320892387E-01  0.56251634613E-01  0.89238214249E+00  0.88000000000E+00 0.  1.
        -11    1    4    4    0    0 -0.19236039413E-01  0.34559003861E-01 -0.23404453322E-01  0.45960630070E-01  0.51100000000E-03 0. -1.
         11    1    4    4    0    0 -0.52571423742E-01  0.46080701345E-01 -0.28434238260E-01  0.75471535410E-01  0.51100000000E-03 0.  1.
</event>
<event>
 8    1  0.1120016E+005  0.1043930E+01  0.7957747E-01            NaN
         13   -1    0    0    0    0  0.00000000000E+00  0.00000000000E+00  0.74505805969E-08  0.10566000000E+00  0.10566000000E+00 0.  1.
     999900   -1    0    0    0    0 -0.00000000000E+00 -0.00000000000E+00 -0.74505805969E-08  0.93827000000E+00  0.93827000000E+00 0.  1.
     999902    2    1    2    0    0 -0.21872463774E-01  0.20166022609E-02  0.11440490373E-01  0.10191639713E+01  0.10188630155E+01 0.  0.
     999903    2    3    3    0    0 -0.29602580513E-01 -0.81022030506E-01 -0.93224298726E-01  0.12904606492E+00  0.22830567165E-01 0.  0.
         14    1    1    2    0    0  0.21872463774E-01 -0.20166022609E-02 -0.11440490373E-01  0.24766028672E-01  0.00000000000E+00 0. -1.
     999901    1    3    3    0    0  0.77301167392E-02  0.83038632767E-01  0.10466478910E+00  0.89011790641E+00  0.88000000000E+00 0. -1.
        -11    1    4    4    0    0 -0.42030059773E-02 -0.35335184827E-01 -0.49083718944E-01  0.60627659796E-01  0.51100000000E-03 0. -1.
         11    1    4    4    0    0 -0.25399574536E-01 -0.45686845679E-01 -0.44140579783E-01  0.68418405121E-01  0.51100000000E-03 0.  1.
</event>
<event>
 8    1  0.1120016E+005  0.1043930E+01  0.7957747E-01            NaN
         13   -1    0    0    0    0  0.00000000000E+00  0.00000000000E+00  0.74505805969E-08  0.10566000000E+00  0.10566000000E+00 0.  1.
     999900   -1    0    0    0    0 -0.00000000000E+00 -0.00000000000E+00 -0.74505805969E-08  0.93827000000E+00  0.93827000000E+00 0.  1.
     999902    2    1    2    0    0 -0.27622342927E-02  0.12489751913E-01 -0.18288801989E-01  0.10216117537E+01  0.10213679411E+01 0.  0.
     999903    2    3    3    0    0 -0.61380623267E-01 -0.11029944887E+00 -0.28451970448E-01  0.13109696247E+00  0.21055868825E-01 0.  0.
         14    1    1    2    0    0  0.27622342927E-02 -0.12489751913E-01  0.18288801989E-01  0.22318246332E-01  0.00000000000E+00 0.  1.
     999901    1    3    3    0    0  0.58618388974E-01  0.12278920078E+00  0.10163168458E-01  0.89051479120E+00  0.88000000000E+00 0. -1.
        -11    1    4    4    0    0 -0.26486142423E-01 -0.67093147116E-01 -0.11627641781E-01  0.73064829465E-01  0.51100000000E-03 0. -1.
         11    1    4    4    0    0 -0.34894480844E-01 -0.43206301754E-01 -0.16824328666E-01  0.58032133001E-01  0.51100000000E-03 0.  1.
</event>
<event>
 8    1  0.1120016E+005  0.1043930E+01  0.7957747E-01            NaN
         13   -1    0    0    0    0  0.00000000000E+00  0.00000000000E+00  0.74505805969E-08  0.10566000000E+00  0.10566000000E+00 0.  1.
     999900   -1    0    0    0    0 -0.00000000000E+00 -0.00000000000E+00 -0.74505805969E-08  0.93827000000E+00  0.93827000000E+00 0. -1.
     999902    2    1    2    0    0  0.16340789477E-01  0.10780266775E-01  0.11245754685E-01  0.10213534070E+01  0.10211038534E+01 0.  0.
     999903    2    3    3    0    0 -0.95477493065E-01 -0.83798208124E-01  0.12198094794E-01  0.12924953236E+00  0.20458659072E-01 0.  0.
         14    1    1    2    0    0 -0.16340789477E-01 -0.10780266775E-01 -0.11245754685E-01  0.22576592987E-01  0.00000000000E+00 0. -1.
     999901    1    3    3    0    0  0.11181828254E+00  0.94578474899E-01 -0.95234010874E-03  0.89210387466E+00  0.88000000000E+00 0. -1.
        -11    1    4    4    0    0 -0.80454650670E-01 -0.59369639140E-01  0.95153180662E-02  0.10044156144E+00  0.51100000000E-03 0. -1.
         11    1    4    4    0    0 -0.15022842395E-01 -0.24428568984E-01  0.26827767278E-02  0.28807970914E-01  0.51100000000E-03 0.  1.
</event>
<event>
 7    1  0.1120016E+005  0.1043930E+01  0.7957747E-01            NaN
         13   -1    0    0    0    0  0.00000000000E+00  0.00000000000E+00  0.74505805969E-08  0.10566000000E+00  0.10566000000E+00 0. -1.
     999900   -1    0    0    0    0 -0.00000000000E+00 -0.00000000000E+00 -0.74505805969E-08  0.93827000000E+00  0.93827000000E+00 0.  1.
     999903    2    1    2    0    0 -0.45723279382E-02  0.45638258199E-01 -0.10309074250E+00  0.11469137941E+00  0.20558563389E-01 0.  0.
         14    1    1    2    0    0 -0.14203218445E-01 -0.19196330028E-01 -0.30318130466E-01  0.38592998531E-01  0.00000000000E+00 0.  1.
     999901    1    1    2    0    0  0.18775546383E-01 -0.26441928171E-01  0.13340887296E+00  0.89064562206E+00  0.88000000000E+00 0. -1.
        -11    1    3    3    0    0 -0.65561244182E-02  0.43315194123E-02 -0.26533248107E-01  0.27677051937E-01  0.51100000000E-03 0.  1.
         11    1    3    3    0    0  0.19837964800E-02  0.41306738786E-01 -0.76557494388E-01  0.87014327473E-01  0.51100000000E-03 0. -1.
</event>
<event>
 8    1  0.1120016E+005  0.1043930E+01  0.7957747E-01            NaN
         13   -1    0    0    0    0  0.00000000000E+00  0.00000000000E+00  0.74505805969E-08  0.10566000000E+00  0.10566000000E+00 0. -1.
     999900   -1    0    0    0    0 -0.00000000000E+00 -0.00000000000E+00 -0.74505805969E-08  0.93827000000E+00  0.93827000000E+00 0. -1.
     999902    2    1    2    0    0  0.49864806589E-02  0.20517784224E-01 -0.59325040467E-02  0.10219973973E+01  0.10217620275E+01 0.  0.
     999903    2    3    3    0    0  0.84159499079E-01 -0.22652549369E-01 -0.98495878235E-01  0.13255935962E+00  0.16570652263E-01 0.  0.
         14    1    1    2    0    0 -0.49864806589E-02 -0.20517784224E-01  0.59325040467E-02  0.21932602743E-01  0.00000000000E+00 0.  1.
     999901    1    3    3    0    0 -0.79173018420E-01  0.43170333592E-01  0.92563374188E-01  0.88943803763E+00  0.88000000000E+00 0.  1.
        -11    1    4    4    0    0  0.33247371776E-01 -0.12194533504E-02 -0.32766653908E-01  0.46698924247E-01  0.51100000000E-03 0. -1.
         11    1    4    4    0    0  0.50912127302E-01 -0.21433096018E-01 -0.65729224328E-01  0.85860435377E-01  0.51100000000E-03 0.  1.
</event>
<event>
 8    1  0.1120016E+005  0.1043930E+01  0.7957747E-01            NaN
         13   -1    0    0    0    0  0.00000000000E+00  0.00000000000E+00  0.74505805969E-08  0.10566000000E+00  0.10566000000E+00 0.  1.
     999900   -1    0    0    0    0 -0.00000000000E+00 -0.00000000000E+00 -0.74505805969E-08  0.93827000000E+00  0.93827000000E+00 0.  1.
     999902    2    1    2    0    0 -0.57893245516E-02  0.71709485369E-02 -0.20974068604E-01  0.10210203877E+01  0.10207633329E+01 0.  0.
     999903    2    3    3    0    0 -0.94675723285E-01 -0.89031759513E-01  0.19741694373E-02  0.13103028970E+00  0.16579888202E-01 0.  0.
         14    1    1    2    0    0  0.57893245516E-02 -0.71709485369E-02  0.20974068604E-01  0.22909612295E-01  0.00000000000E+00 0.  1.
     999901    1    3    3    0    0  0.88886398733E-01  0.96202708050E-01 -0.22948238042E-01  0.88999009800E+00  0.88000000000E+00 0. -1.
        -11    1    4    4    0    0 -0.70245631024E-01 -0.69545508610E-01 -0.51165641991E-02  0.98982153927E-01  0.51100000000E-03 0. -1.
         11    1    4    4    0    0 -0.24430092261E-01 -0.19486250902E-01  0.70907336364E-02  0.32048135774E-01  0.51100000000E-03 0.  1.
</event>
<event>
 8    1  0.1120016E+005  0.1043930E+01  0.7957747E-01            NaN
         13   -1    0    0    0    0  0.00000000000E+00  0.00000000000E+00  0.74505805969E-08  0.10566000000E+00  0.10566000000E+00 0. -1.
     999900   -1    0    0    0    0 -0.00000000000E+00 -0.00000000000E+00 -0.74505805969E-08  0.93827000000E+00  0.93827000000E+00 0. -1.
     999902    2    1    2    0    0 -0.12536467540E-01 -0.15997628336E-01 -0.12272991706E-01  0.10201873494E+01  0.10199110326E+01 0.  0.
     999903    2    3    3    0    0 -0.26215648128E-01  0.46055918196E-01 -0.11869570788E+00  0.13150092715E+00  0.19885043756E-01 0.  0.
         14    1    1    2    0    0  0.12536467540E-01  0.15997628336E-01  0.12272991706E-01  0.23742650571E-01  0.00000000000E+00 0.  1.
     999901    1    3    3    0    0  0.13679180588E-01 -0.62053546531E-01  0.10642271617E+00  0.88868642228E+00  0.88000000000E+00 0.  1.
        -11    1    4    4    0    0 -0.63317135156E-03  0.10613338407E-01 -0.40925226863E-01  0.42286867618E-01  0.51100000000E-03 0. -1.
         11    1    4    4    0    0 -0.25582476776E-01  0.35442579789E-01 -0.77770481017E-01  0.89214059535E-01  0.51100000000E-03 0.  1.
</event>
<event>
 8    1  0.1120016E+005  0.1043930E+01  0.7957747E-01            NaN
         13   -1    0    0    0    0  0.00000000000E+00  0.00000000000E+00  0.74505805969E-08  0.10566000000E+00  0.10566000000E+00 0.  1.
     999900   -1    0    0    0    0 -0.00000000000E+00 -0.00000000000E+00 -0.74505805969E-08  0.93827000000E+00  0.93827000000E+00 0.  1.
     999902    2    1    2    0    0  0.19356736476E-01 -0.12745389591E-01 -0.22021206273E-02  0.10206495890E+01  0.10203840482E+01 0.  0.
     999903    2    3    3    0    0  0.78397960706E-01  0.12045911495E-01 -0.10404008972E+00  0.13246523495E+00  0.20769062920E-01 0.  0.
         14    1    1    2    0    0 -0.19356736476E-01  0.12745389591E-01  0.22021206273E-02  0.23280411037E-01  0.00000000000E+00 0.  1.
     999901    1    3    3    0    0 -0.59041224231E-01 -0.24791301085E-01  0.10183796909E+00  0.88818435401E+00  0.88000000000E+00 0. -1.
        -11    1    4    4    0    0  0.22836867956E-01  0.80334181250E-02 -0.46196764196E-01  0.52158033782E-01  0.51100000000E-03 0. -1.
         11    1    4    4    0    0  0.55561092750E-01  0.40124933696E-02 -0.57843325522E-01  0.80307201166E-01  0.51100000000E-03 0.  1.
</event>
<event>
 8    1  0.1120016E+005  0.1043930E+01  0.7957747E-01            NaN
         13   -1    0    0    0    0  0.00000000000E+00  0.00000000000E+00  0.74505805969E-08  0.10566000000E+00  0.10566000000E+00 0. -1.
     999900   -1    0    0    0    0 -0.00000000000E+00 -0.00000000000E+00 -0.74505805969E-08  0.93827000000E+00  0.93827000000E+00 0. -1.
     999902    2    1    2    0    0  0.16390351081E-01  0.13422006345E-01 -0.11043181353E-01  0.10200397150E+01  0.10197599102E+01 0.  0.
     999903    2    3    3    0    0 -0.31669027329E-01 -0.10862049894E-01 -0.12506700604E+00  0.13105104700E+00  0.20290625938E-01 0.  0.
         14    1    1    2    0    0 -0.16390351081E-01 -0.13422006345E-01  0.11043181353E-01  0.23890284998E-01  0.00000000000E+00 0. -1.
     999901    1    3    3    0    0  0.48059378410E-01  0.24284056239E-01  0.11402382468E+00  0.88898866800E+00  0.88000000000E+00 0.  1.
        -11    1    4    4    0    0 -0.80033855917E-02  0.45291711779E-02 -0.50176433639E-01  0.51014734991E-01  0.51100000000E-03 0.  1.
         11    1    4    4    0    0 -0.23665641737E-01 -0.15391221072E-01 -0.74890572398E-01  0.80036312009E-01  0.51100000000E-03 0. -1.
</event>
<event>
 8    1  0.1120016E+005  0.1043930E+01  0.7957747E-01            NaN
         13   -1    0    0    0    0  0.00000000000E+00  0.00000000000E+00  0.74505805969E-08  0.10566000000E+00  0.10566000000E+00 0.  1.
     999900   -1    0    0    0    0 -0.00000000000E+00 -0.00000000000E+00 -0.74505805969E-08  0.93827000000E+00  0.93827000000E+00 0. -1.
     999902    2    1    2    0    0 -0.22078435190E-02  0.19783882225E-01  0.12447812321E-01  0.10204518271E+01  0.10201817029E+01 0.  0.
     999903    2    3    3    0    0  0.75452195726E-01  0.36939598533E-01  0.10059528814E+00  0.13247920494E+00  0.19332872672E-01 0.  0.
         14    1    1    2    0    0  0.22078435190E-02 -0.19783882225E-01 -0.12447812321E-01  0.23478172852E-01  0.00000000000E+00 0. -1.
     999901    1    3    3    0    0 -0.77660039245E-01 -0.17155716308E-01 -0.88147475820E-01  0.88797262221E+00  0.88000000000E+00 0. -1.
        -11    1    4    4    0    0  0.11717661236E-01  0.72746892606E-04  0.20973777012E-01  0.24030591340E-01  0.51100000000E-03 0. -1.
         11    1    4    4    0    0  0.63734534490E-01  0.36866851640E-01  0.79621511128E-01  0.10844861360E+00  0.51100000000E-03 0.  1.
</event>
<event>
 7    1  0.1120016E+005  0.1043930E+01  0.7957747E-01            NaN
         13   -1    0    0    0    0  0.00000000000E+00  0.00000000000E+00  0.74505805969E-08  0.10566000000E+00  0.10566000000E+00 0. -1.
     999900   -1    0    0    0    0 -0.00000000000E+00 -0.00000000000E+00 -0.74505805969E-08  0.93827000000E+00  0.93827000000E+00 0. -1.
     999903    2    1    2    0    0  0.22975695012E-02 -0.63842384298E-01  0.92438965647E-01  0.11427583350E+00  0.20805645724E-01 0.  0.
         14    1    1    2    0    0  0.63397737607E-03 -0.38952106315E-01 -0.66688553980E-02  0.39523943959E-01  0.00000000000E+00 0. -1.
     999901    1    1    2    0    0 -0.29315468772E-02  0.10279449061E+00 -0.85770110249E-01  0.89013022254E+00  0.88000000000E+00 0. -1.
        -11    1    3    3    0    0  0.89882474803E-02 -0.15226573414E-01  0.19117463892E-01  0.26045646034E-01  0.51100000000E-03 0.  1.
         11    1    3    3    0    0 -0.66906779791E-02 -0.48615810884E-01  0.73321501755E-01  0.88230187467E-01  0.51100000000E-03 0. -1.
</event>
<event>
 8    1  0.1120016E+005  0.1043930E+01  0.7957747E-01            NaN
         13   -1    0    0    0    0  0.00000000000E+00  0.00000000000E+00  0.74505805969E-08  0.10566000000E+00  0.10566000000E+00 0.  1.
     999900   -1    0    0    0    0 -0.00000000000E+00 -0.00000000000E+00 -0.74505805969E-08  0.93827000000E+00  0.93827000000E+00 0. -1.
     999902    2    1    2    0    0 -0.11355771375E-01  0.16444414455E-01 -0.40609028912E-02  0.10235372748E+01  0.10233341046E+01 0.  0.
     999903    2    3    3    0    0  0.12166764430E+00  0.32588324556E-01 -0.36242031508E-01  0.13281201971E+00  0.21460036441E-01 0.  0.
         14    1    1    2    0    0  0.11355771375E-01 -0.16444414455E-01  0.40609028912E-02  0.20392725237E-01  0.00000000000E+00 0. -1.
     999901    1    3    3    0    0 -0.13302341568E+00 -0.16143910101E-01  0.32181128617E-01  0.89072525505E+00  0.88000000000E+00 0.  1.
        -11    1    4    4    0    0  0.57272505343E-01  0.73435297563E-02 -0.88541227741E-02  0.58418523677E-01  0.51100000000E-03 0.  1.
         11    1    4    4    0    0  0.64395138959E-01  0.25244794800E-01 -0.27387908734E-01  0.74393496032E-01  0.51100000000E-03 0. -1.
</event>
<event>
 8    1  0.1120016E+005  0.1043930E+01  0.7957747E-01            NaN
         13   -1    0    0    0    0  0.00000000000E+00  0.00000000000E+00  0.74505805969E-08  0.10566000000E+00  0.10566000000E+00 0. -1.
     999900   -1    0    0    0    0 -0.00000000000E+00 -0.00000000000E+00 -0.74505805969E-08  0.93827000000E+00  0.93827000000E+00 0. -1.
     999902    2    1    2    0    0  0.13222812723E-01 -0.14682060948E-01 -0.19782369297E-01  0.10159702463E+01  0.10155854438E+01 0.  0.
     999903    2    3    3    0    0  0.27060353513E-01 -0.87971706566E-01  0.84648157224E-01  0.12666232185E+00  0.20168028305E-01 0.  0.
         14    1    1    2    0    0 -0.13222812723E-01  0.14682060948E-01  0.19782369297E-01  0.27959753665E-01  0.00000000000E+00 0. -1.
     999901    1    3    3    0    0 -0.13837540791E-01  0.73289645618E-01 -0.10443052652E+00  0.88930792449E+00  0.88000000000E+00 0. -1.
        -11    1    4    4    0    0  0.29392655364E-01 -0.70474034297E-01  0.71892075791E-01  0.10487730632E+00  0.51100000000E-03 0. -1.
         11    1    4    4    0    0 -0.23323018503E-02 -0.17497672269E-01  0.12756081433E-01  0.21785015522E-01  0.51100000000E-03 0.  1.
</event>
<event>
 8    1  0.1120016E+005  0.1043930E+01  0.7957747E-01            NaN
         13   -1    0    0    0    0  0.00000000000E+00  0.00000000000E+00  0.74505805969E-08  0.10566000000E+00  0.10566000000E+00 0.  1.
     999900   -1    0    0    0    0 -0.00000000000E+00 -0.00000000000E+00 -0.74505805969E-08  0.93827000000E+00  0.93827000000E+00 0.  1.
     999902    2    1    2    0    0  0.49856724574E-02 -0.46255497417E-02 -0.21379154032E-01  0.10214951863E+01  0.10212487918E+01 0.  0.
     999903    2    3    3    0    0 -0.10529284301E+00 -0.66077943454E-01 -0.40579707237E-01  0.13227844727E+00  0.19949876515E-01 0.  0.
         14    1    1    2    0    0 -0.49856724574E-02  0.46255497417E-02  0.21379154032E-01  0.22434813736E-01  0.00000000000E+00 0.  1.
     999901    1    3    3    0    0  0.11027851546E+00  0.61452393712E-01  0.19200553205E-01  0.88921673900E+00  0.88000000000E+00 0. -1.
        -11    1    4    4    0    0 -0.50894243456E-01 -0.30197712950E-01 -0.89977921927E-02  0.59861066393E-01  0.51100000000E-03 0. -1.
         11    1    4    4    0    0 -0.54398599551E-01 -0.35880230504E-01 -0.31581915044E-01  0.72417380876E-01  0.51100000000E-03 0.  1.
</event>
<event>
 8    1  0.1120016E+005  0.1043930E+01  0.7957747E-01            NaN
         13   -1    0    0    0    0  0.00000000000E+00  0.00000000000E+00  0.74505805969E-08  0.10566000000E+00  0.10566000000E+00 0.  1.
     999900   -1    0    0    0    0 -0.00000000000E+00 -0.00000000000E+00 -0.74505805969E-08  0.93827000000E+00  0.93827000000E+00 0.  1.
     999902    2    1    2    0    0  0.11337272147E-01 -0.12443972221E-01  0.16687637479E-01  0.10202263414E+01  0.10199509421E+01 0.  0.
     999903    2    3    3    0    0 -0.21228647043E-01  0.82071804243E-01  0.97600468755E-01  0.13087789603E+00  0.20414104462E-01 0.  0.
         14    1    1    2    0    0 -0.11337272147E-01  0.12443972221E-01 -0.16687637479E-01  0.23703658557E-01  0.00000000000E+00 0. -1.
     999901    1    3    3    0    0  0.32565919190E-01 -0.94515776465E-01 -0.80912831276E-01  0.88934844541E+00  0.88000000000E+00 0.  1.
        -11    1    4    4    0    0 -0.17027389774E-01  0.28925260368E-01  0.43181027956E-01  0.54694286596E-01  0.51100000000E-03 0.  1.
         11    1    4    4    0    0 -0.42012572685E-02  0.53146543875E-01  0.54419440798E-01  0.76183609434E-01  0.51100000000E-03 0. -1.
</event>
<event>
 8    1  0.1120016E+005  0.1043930E+01  0.7957747E-01            NaN
         13   -1    0    0    0    0  0.00000000000E+00  0.00000000000E+00  0.74505805969E-08  0.10566000000E+00  0.10566000000E+00 0. -1.
     999900   -1    0    0    0    0 -0.00000000000E+00 -0.00000000000E+00 -0.74505805969E-08  0.93827000000E+00  0.93827000000E+00 0.  1.
     999902    2    1    2    0    0  0.12254706273E-01  0.86768860310E-02  0.17472679142E-01  0.10208917559E+01  0.10206317732E+01 0.  0.
     999903    2    3    3    0    0  0.12617398010E+00  0.59189927159E-02  0.37813548690E-01  0.13331136068E+00  0.19676043580E-01 0.  0.
         14    1    1    2    0    0 -0.12254706273E-01 -0.86768860310E-02 -0.17472679142E-01  0.23038244149E-01  0.00000000000E+00 0.  1.
     999901    1    3    3    0    0 -0.11391927383E+00  0.27578933151E-02 -0.20340869548E-01  0.88758039518E+00  0.88000000000E+00 0. -1.
        -11    1    4    4    0    0  0.45133088139E-01  0.68385275019E-02  0.51938876206E-02  0.45945605807E-01  0.51100000000E-03 0. -1.
         11    1    4    4    0    0  0.81040891964E-01 -0.91953478603E-03  0.32619661070E-01  0.87365754869E-01  0.51100000000E-03 0.  1.
</event>
<event>
 8    1  0.1120016E+005  0.1043930E+01  0.7957747E-01            NaN
         13   -1    0    0    0    0  0.00000000000E+00  0.00000000000E+00  0.74505805969E-08  0.10566000000E+00  0.10566000000E+00 0.  1.
     999900   -1    0    0    0    0 -0.00000000000E+00 -0.00000000000E+00 -0.74505805969E-08  0.93827000000E+00  0.93827000000E+00 0.  1.
     999902    2    1    2    0    0 -0.74485600985E-02  0.22018456711E-02 -0.22647511404E-01  0.10199875911E+01  0.10197065495E+01 0.  0.
     999903    2    3    3    0    0 -0.58099234556E-01  0.40848095022E-01 -0.11096914917E+00  0.13327470908E+00  0.20097464775E-01 0.  0.
         14    1    1    2    0    0  0.74485600985E-02 -0.22018456711E-02  0.22647511404E-01  0.23942408916E-01  0.00000000000E+00 0.  1.
     999901    1    3    3    0    0  0.50650674457E-01 -0.38646249351E-01  0.88321637765E-01  0.88671288200E+00  0.88000000000E+00 0. -1.
        -11    1    4    4    0    0 -0.16527685962E-01  0.22564781829E-01 -0.35563331646E-01  0.45247601715E-01  0.51100000000E-03 0. -1.
         11    1    4    4    0    0 -0.41571548594E-01  0.18283313193E-01 -0.75405817523E-01  0.88027107366E-01  0.51100000000E-03 0.  1.
</event>
<event>
 8    1  0.1120016E+005  0.1043930E+01  0.7957747E-01            NaN
         13   -1    0    0    0    0  0.00000000000E+00  0.00000000000E+00  0.74505805969E-08  0.10566000000E+00  0.10566000000E+00 0.  1.
     999900   -1    0    0    0    0 -0.00000000000E+00 -0.00000000000E+00 -0.74505805969E-08  0.93827000000E+00  0.93827000000E+00 0.  1.
     999902    2    1    2    0    0 -0.51851432534E-04 -0.21467999708E-01  0.86916492795E-02  0.10207692041E+01  0.10205064162E+01 0.  0.
     999903    2    3    3    0    0  0.31257022404E-01  0.78855365386E-01  0.96783471047E-01  0.13014852601E+00  0.19401764204E-01 0.  0.
         14    1    1    2    0    0  0.51851432534E-04  0.21467999708E-01 -0.86916492795E-02  0.23160795911E-01  0.00000000000E+00 0.  1.
     999901    1    3    3    0    0 -0.31308873836E-01 -0.10032336509E+00 -0.88091821768E-01  0.89062067808E+00  0.88000000000E+00 0.  1.
        -11    1    4    4    0    0  0.57528393414E-02  0.23330826397E-01  0.40379754897E-01  0.46991577409E-01  0.51100000000E-03 0. -1.
         11    1    4    4    0    0  0.25504183062E-01  0.55524538989E-01  0.56403716150E-01  0.83156948598E-01  0.51100000000E-03 0.  1.
</event>
<event>
 8    1  0.1120016E+005  0.1043930E+01  0.7957747E-01            NaN
         13   -1    0    0    0    0  0.00000000000E+00  0.00000000000E+00  0.74505805969E-08  0.10566000000E+00  0.10566000000E+00 0. -1.
     999900   -1    0    0    0    0 -0.00000000000E+00 -0.00000000000E+00 -0.74505805969E-08  0.93827000000E+00  0.93827000000E+00 0. -1.
     999902    2    1    2    0    0  0.38016530776E-02 -0.16551765571E-01  0.20975120811E-01  0.10169416840E+01  0.10165835034E+01 0.  0.
     999903    2    3    3    0    0 -0.94373725212E-01 -0.74463460272E-01 -0.36067450755E-01  0.12775889946E+00  0.23880294392E-01 0.  0.
         14    1    1    2    0    0 -0.38016530776E-02  0.16551765571E-01 -0.20975120811E-01  0.26988316040E-01  0.00000000000E+00 0.  1.
     999901    1    3    3    0    0  0.98175378290E-01  0.57911694701E-01  0.57042571566E-01  0.88918278450E+00  0.88000000000E+00 0.  1.
        -11    1    4    4    0    0 -0.51336400476E-01 -0.50256919126E-01 -0.30558191598E-01  0.78072070093E-01  0.51100000000E-03 0.  1.
         11    1    4    4    0    0 -0.43037324737E-01 -0.24206541146E-01 -0.55092591566E-02  0.49686829364E-01  0.51100000000E-03 0. -1.
</event>
<event>
 8    1  0.1120016E+005  0.1043930E+01  0.7957747E-01            NaN
         13   -1    0    0    0    0  0.00000000000E+00  0.00000000000E+00  0.74505805969E-08  0.10566000000E+00  0.10566000000E+00 0.  1.
     999900   -1    0    0    0    0 -0.00000000000E+00 -0.00000000000E+00 -0.74505805969E-08  0.93827000000E+00  0.93827000000E+00 0. -1.
     999902    2    1    2    0    0 -0.11302860961E-01  0.20524232815E-01  0.35529748003E-02  0.10202314256E+01  0.10199561458E+01 0.  0.
     999903    2    3    3    0    0 -0.94901814693E-01  0.90768827332E-01  0.12088745622E-01  0.13344173943E+00  0.20377085249E-01 0.  0.
         14    1    1    2    0    0  0.11302860961E-01 -0.20524232815E-01 -0.35529748003E-02  0.23698574397E-01  0.00000000000E+00 0.  1.
     999901    1    3    3    0    0  0.83598953732E-01 -0.70244594518E-01 -0.85357708213E-02  0.88678968618E+00  0.88000000000E+00 0.  1.
        -11    1    4    4    0    0 -0.55412167518E-01  0.56973123475E-01 -0.22889476700E-02  0.79510662870E-01  0.51100000000E-03 0. -1.
         11    1    4    4    0    0 -0.39489647175E-01  0.33795703857E-01  0.14377693292E-01  0.53931076557E-01  0.51100000000E-03 0.  1.
</event>
<event>
 8    1  0.1120016E+005  0.1043930E+01  0.7957747E-01            NaN
         13   -1    0    0    0    0  0.00000000000E+00  0.00000000000E+00  0.74505805969E-08  0.10566000000E+00  0.10566000000E+00 0.  1.
     999900   -1    0    0    0    0 -0.00000000000E+00 -0.00000000000E+00 -0.74505805969E-08  0.93827000000E+00  0.93827000000E+00 0. -1.
     999902    2    1    2    0    0 -0.17508156292E-01  0.13077687673E-01  0.72581254211E-02  0.10209030194E+01  0.10206432938E+01 0.  0.
     999903    2    3    3    0    0  0.10403300527E+00 -0.35815177545E-01 -0.63540441311E-01  0.12839240137E+00  0.18483179359E-01 0.  0.
         14    1    1    2    0    0  0.17508156292E-01 -0.13077687673E-01 -0.72581254211E-02  0.23026980615E-01  0.00000000000E+00 0. -1.
     999901    1    3    3    0    0 -0.12154116156E+00  0.48892865218E-01  0.70798566732E-01  0.89251061802E+00  0.88000000000E+00 0. -1.
        -11    1    4    4    0    0  0.44077964058E-01 -0.24890396281E-01 -0.28820233263E-01  0.58251744256E-01  0.51100000000E-03 0. -1.
         11    1    4    4    0    0  0.59955041209E-01 -0.10924781264E-01 -0.34720208048E-01  0.70140657111E-01  0.51100000000E-03 0.  1.
</event>
<event>
 8    1  0.1120016E+005  0.1043930E+01  0.7957747E-01            NaN
         13   -1    0    0    0    0  0.00000000000E+00  0.00000000000E+00  0.74505805969E-08  0.10566000000E+00  0.10566000000E+00 0.  1.
     999900   -1    0    0    0    0 -0.00000000000E+00 -0.00000000000E+00 -0.74505805969E-08  0.93827000000E+00  0.93827000000E+00 0.  1.
     999902    2    1    2    0    0  0.20732946098E-01 -0.89602111167E-02  0.78208883362E-02  0.10200279764E+01  0.10197478933E+01 0.  0.
     999903    2    3    3    0    0  0.82767753586E-01  0.98664643533E-01 -0.13445373482E-01  0.13104896622E+00  0.20195062798E-01 0.  0.
         14    1    1    2    0    0 -0.20732946098E-01  0.89602111167E-02 -0.78208883362E-02  0.23902023586E-01  0.00000000000E+00 0.  1.
     999901    1    3    3    0    0 -0.62034807488E-01 -0.10762485465E+00  0.21266261819E-01  0.88897901020E+00  0.88000000000E+00 0.  1.
        -11    1    4    4    0    0  0.33086129693E-01  0.38651969705E-01  0.45585538209E-02  0.51085303895E-01  0.51100000000E-03 0.  1.
         11    1    4    4    0    0  0.49681623893E-01  0.60012673828E-01 -0.18003927303E-01  0.79963662322E-01  0.51100000000E-03 0. -1.
</event>
<event>
 8    1  0.1120016E+005  0.1043930E+01  0.7957747E-01            NaN
         13   -1    0    0    0    0  0.00000000000E+00  0.00000000000E+00  0.74505805969E-08  0.10566000000E+00  0.10566000000E+00 0. -1.
     999900   -1    0    0    0    0 -0.00000000000E+00 -0.00000000000E+00 -0.74505805969E-08  0.93827000000E+00  0.93827000000E+00 0.  1.
     999902    2    1    2    0    0 -0.17512600071E-01  0.67300808024E-02 -0.73711464121E-02  0.10237726453E+01  0.10235741841E+01 0.  0.
     999903    2    3    3    0    0 -0.64931150139E-01 -0.11544927762E+00 -0.84929381510E-02  0.13406619207E+00  0.18895075973E-01 0.  0.
         14    1    1    2    0    0  0.17512600071E-01 -0.67300808024E-02  0.73711464121E-02  0.20157354695E-01  0.00000000000E+00 0. -1.
     999901    1    3    3    0    0  0.47418550068E-01  0.12217935842E+00  0.11217917390E-02  0.88970645324E+00  0.88000000000E+00 0. -1.
        -11    1    4    4    0    0 -0.22829066748E-01 -0.54389057235E-01 -0.10266923039E-01  0.59874925179E-01  0.51100000000E-03 0. -1.
         11    1    4    4    0    0 -0.42102083392E-01 -0.61060220384E-01  0.17739848876E-02  0.74191266890E-01  0.51100000000E-03 0.  1.
</event>
<event>
 8    1  0.1120016E+005  0.1043930E+01  0.7957747E-01            NaN
         13   -1    0    0    0    0  0.00000000000E+00  0.00000000000E+00  0.74505805969E-08  0.10566000000E+00  0.10566000000E+00 0.  1.
     999900   -1    0    0    0    0 -0.00000000000E+00 -0.00000000000E+00 -0.74505805969E-08  0.93827000000E+00  0.93827000000E+00 0.  1.
     999902    2    1    2    0    0  0.70965803856E-02  0.90363003776E-02 -0.19983073251E-01  0.10208791997E+01  0.10206189304E+01 0.  0.
     999903    2    3    3    0    0  0.71704973732E-01  0.95201084568E-01  0.51455979061E-01  0.13143996473E+00  0.20588753848E-01 0.  0.
         14    1    1    2    0    0 -0.70965803856E-02 -0.90363003776E-02  0.19983073251E-01  0.23050800295E-01  0.00000000000E+00 0.  1.
     999901    1    3    3    0    0 -0.64608393347E-01 -0.86164784190E-01 -0.71439052312E-01  0.88943923498E+00  0.88000000000E+00 0.  1.
        -11    1    4    4    0    0  0.46226645118E-01  0.44329011372E-01  0.27696425915E-01  0.69780492242E-01  0.51100000000E-03 0. -1.
         11    1    4    4    0    0  0.25478328615E-01  0.50872073196E-01  0.23759553146E-01  0.61659472483E-01  0.51100000000E-03 0.  1.
</event>
<event>
 8    1  0.1120016E+005  0.1043930E+01  0.7957747E-01            NaN
         13   -1    0    0    0    0  0.00000000000E+00  0.00000000000E+00  0.74505805969E-08  0.10566000000E+00  0.10566000000E+00 0. -1.
     999900   -1    0    0    0    0 -0.00000000000E+00 -0.00000000000E+00 -0.74505805969E-08  0.93827000000E+00  0.93827000000E+00 0. -1.
     999902    2    1    2    0    0  0.19904178716E-01 -0.18409725650E-02  0.10320425415E-01  0.10214338516E+01  0.10211860930E+01 0.  0.
     999903    2    3    3    0    0  0.11245723816E+00 -0.61161811292E-01  0.35168167734E-01  0.13424591156E+00  0.19944101221E-01 0.  0.
         14    1    1    2    0    0 -0.19904178716E-01  0.18409725650E-02 -0.10320425415E-01  0.22496148361E-01  0.00000000000E+00 0.  1.
     999901    1    3    3    0    0 -0.92553059447E-01  0.59320838727E-01 -0.24847742319E-01  0.88718794008E+00  0.88000000000E+00 0. -1.
        -11    1    4    4    0    0  0.87767256672E-01 -0.48679218159E-01  0.35826959698E-01  0.10656730168E+00  0.51100000000E-03 0.  1.
         11    1    4    4    0    0  0.24689981491E-01 -0.12482593133E-01 -0.65879196421E-03  0.27678609886E-01  0.51100000000E-03 0. -1.
</event>
<event>
 8    1  0.1120016E+005  0.1043930E+01  0.7957747E-01            NaN
         13   -1    0    0    0    0  0.00000000000E+00  0.00000000000E+00  0.74505805969E-08  0.10566000000E+00  0.10566000000E+00 0. -1.
     999900   -1    0    0    0    0 -0.00000000000E+00 -0.00000000000E+00 -0.74505805969E-08  0.93827000000E+00  0.93827000000E+00 0. -1.
     999902    2    1    2    0    0 -0.13680415520E-01  0.94750324569E-02  0.13347088903E-01  0.10225975179E+01  0.10223749845E+01 0.  0.
     999903    2    3    3    0    0  0.11521621232E+00  0.29241592903E-01  0.53811723736E-01  0.13206821227E+00  0.20407467806E-01 0.  0.
         14    1    1    2    0    0  0.13680415520E-01 -0.94750324569E-02 -0.13347088903E-01  0.21332482065E-01  0.00000000000E+00 0. -1.
     999901    1    3    3    0    0 -0.12889662784E+00 -0.19766560446E-01 -0.40464634833E-01  0.89052930567E+00  0.88000000000E+00 0. -1.
        -11    1    4    4    0    0  0.86246223868E-01  0.12524111061E-01  0.39389502731E-01  0.95640255833E-01  0.51100000000E-03 0.  1.
         11    1    4    4    0    0  0.28969988455E-01  0.16717481842E-01  0.14422221006E-01  0.36427956434E-01  0.51100000000E-03 0. -1.
</event>
<event>
 8    1  0.1120016E+005  0.1043930E+01  0.7957747E-01            NaN
         13   -1    0    0    0    0  0.00000000000E+00  0.00000000000E+00  0.74505805969E-08  0.10566000000E+00  0.10566000000E+00 0. -1.
     999900   -1    0    0    0    0 -0.00000000000E+00 -0.00000000000E+00 -0.74505805969E-08  0.93827000000E+00  0.93827000000E+00 0.  1.
     999902    2    1    2    0    0 -0.23829620014E-01 -0.42931563483E-02 -0.14861687647E-02  0.10196711732E+01  0.10193825635E+01 0.  0.
     999903    2    3    3    0    0 -0.11648598080E+00  0.59467746614E-01 -0.57561712076E-02  0.13250214370E+00  0.20452089563E-01 0.  0.
         14    1    1    2    0    0  0.23829620014E-01  0.42931563483E-02  0.14861687647E-02  0.24258826828E-01  0.00000000000E+00 0. -1.
     999901    1    3    3    0    0  0.92656360783E-01 -0.63760902962E-01  0.42700024429E-02  0.88716902948E+00  0.88000000000E+00 0.  1.
        -11    1    4    4    0    0 -0.78198789121E-01  0.29303178516E-01 -0.63735780749E-02  0.83753271635E-01  0.51100000000E-03 0.  1.
         11    1    4    4    0    0 -0.38287191677E-01  0.30164568097E-01  0.61740686730E-03  0.48748872061E-01  0.51100000000E-03 0. -1.
</event>
<event>
 8    1  0.1120016E+005  0.1043930E+01  0.7957747E-01            NaN
         13   -1    0    0    0    0  0.00000000000E+00  0.00000000000E+00  0.74505805969E-08  0.10566000000E+00  0.10566000000E+00 0.  1.
     999900   -1    0    0    0    0 -0.00000000000E+00 -0.00000000000E+00 -0.74505805969E-08  0.93827000000E+00  0.93827000000E+00 0. -1.
     999902    2    1    2    0    0 -0.18620157693E-01 -0.14334143030E-01  0.31891129964E-02  0.10202161144E+01  0.10199404746E+01 0.  0.
     999903    2    3    3    0    0  0.43282420476E-01  0.27317762621E-01 -0.11651416047E+00  0.12898343764E+00  0.21013079698E-01 0.  0.
         14    1    1    2    0    0  0.18620157693E-01  0.14334143030E-01 -0.31891129964E-02  0.23713885608E-01  0.00000000000E+00 0. -1.
     999901    1    3    3    0    0 -0.61902578169E-01 -0.41651905651E-01  0.11970327347E+00  0.89123267675E+00  0.88000000000E+00 0.  1.
        -11    1    4    4    0    0  0.40351797312E-01  0.16665552561E-01 -0.84508373361E-01  0.95120631188E-01  0.51100000000E-03 0.  1.
         11    1    4    4    0    0  0.29306231637E-02  0.10652210060E-01 -0.32005787111E-01  0.33862806453E-01  0.51100000000E-03 0. -1.
</event>
<event>
 8    1  0.1120016E+005  0.1043930E+01  0.7957747E-01            NaN
         13   -1    0    0    0    0  0.00000000000E+00  0.00000000000E+00  0.74505805969E-08  0.10566000000E+00  0.10566000000E+00 0.  1.
     999900   -1    0    0    0    0 -0.00000000000E+00 -0.00000000000E+00 -0.74505805969E-08  0.93827000000E+00  0.93827000000E+00 0. -1.
     999902    2    1    2    0    0  0.74642922757E-02 -0.20244565453E-01  0.38665602167E-02  0.10220094987E+01  0.10217743915E+01 0.  0.
     999903    2    3    3    0    0 -0.45267923956E-01  0.11980254392E+00 -0.69657892741E-02  0.12931065851E+00  0.16458727651E-01 0.  0.
         14    1    1    2    0    0 -0.74642922757E-02  0.20244565453E-01 -0.38665602167E-02  0.21920501305E-01  0.00000000000E+00 0.  1.
     999901    1    3    3    0    0  0.52732216231E-01 -0.14004710937E+00  0.10832349491E-01  0.89269884018E+00  0.88000000000E+00 0. -1.
        -11    1    4    4    0    0 -0.65939241685E-02  0.38777488286E-01 -0.24845164373E-02  0.39415826474E-01  0.51100000000E-03 0. -1.
         11    1    4    4    0    0 -0.38673999787E-01  0.81025055631E-01 -0.44812728368E-02  0.89894832036E-01  0.51100000000E-03 0.  1.
</event>
<event>
 8    1  0.1120016E+005  0.1043930E+01  0.7957747E-01            NaN
         13   -1    0    0    0    0  0.00000000000E+00  0.00000000000E+00  0.74505805969E-08  0.10566000000E+00  0.10566000000E+00 0. -1.
     999900   -1    0    0    0    0 -0.00000000000E+00 -0.00000000000E+00 -0.74505805969E-08  0.93827000000E+00  0.93827000000E+00 0.  1.
     999902    2    1    2    0    0  0.24332650142E-01  0.13632506935E-02 -0.13056118997E-02  0.10195242438E+01  0.10192320848E+01 0.  0.
     999903    2    3    3    0    0 -0.11106862793E+00 -0.29052198343E-01  0.50329942888E-01  0.12715389678E+00  0.21324633110E-01 0.  0.
         14    1    1    2    0    0 -0.24332650142E-01 -0.13632506935E-02  0.13056118997E-02  0.24405756243E-01  0.00000000000E+00 0.  1.
     999901    1    3    3    0    0  0.13540127807E+00  0.30415449037E-01 -0.51635554787E-01  0.89237034698E+00  0.88000000000E+00 0.  1.
        -11    1    4    4    0    0 -0.84067363785E-01 -0.30295302694E-01  0.34258166980E-01  0.95702717542E-01  0.51100000000E-03 0.  1.
         11    1    4    4    0    0 -0.27001264143E-01  0.12431043504E-02  0.16071775908E-01  0.31451179240E-01  0.51100000000E-03 0. -1.
</event>
<event>
 8    1  0.1120016E+005  0.1043930E+01  0.7957747E-01            NaN
         13   -1    0    0    0    0  0.00000000000E+00  0.00000000000E+00  0.74505805969E-08  0.10566000000E+00  0.10566000000E+00 0. -1.
     999900   -1    0    0    0    0 -0.00000000000E+00 -0.00000000000E+00 -0.74505805969E-08  0.93827000000E+00  0.93827000000E+00 0.  1.
     999902    2    1    2    0    0  0.12472636652E-01 -0.16005376709E-01  0.10367104417E-01  0.10211436970E+01  0.10208894330E+01 0.  0.
     999903    2    3    3    0    0  0.11553645561E+00  0.17481871352E-01 -0.57783907565E-01  0.13188102100E+00  0.19983376198E-01 0.  0.
         14    1    1    2    0    0 -0.12472636652E-01  0.16005376709E-01 -0.10367104417E-01  0.22786302962E-01  0.00000000000E+00 0. -1.
     999901    1    3    3    0    0 -0.10306381896E+00 -0.33487248061E-01  0.68151011982E-01  0.88926267604E+00  0.88000000000E+00 0. -1.
        -11    1    4    4    0    0  0.45347721405E-01 -0.29128692169E-02 -0.23003036664E-01  0.50934285707E-01  0.51100000000E-03 0.  1.
         11    1    4    4    0    0  0.70188734209E-01  0.20394740568E-01 -0.34780870901E-01  0.80946735292E-01  0.51100000000E-03 0. -1.
</event>
<event>
 8    1  0.1120016E+005  0.1043930E+01  0.7957747E-01            NaN
         13   -1    0    0    0    0  0.00000000000E+00  0.00000000000E+00  0.74505805969E-08  0.10566000000E+00  0.10566000000E+00 0.  1.
     999900   -1    0    0    0    0 -0.00000000000E+00 -0.00000000000E+00 -0.74505805969E-08  0.93827000000E+00  0.93827000000E+00 0.  1.
     999902    2    1    2    0    0 -0.51862487215E-02 -0.21084487258E-01 -0.13245824925E-01  0.10184956796E+01  0.10181780515E+01 0.  0.
     999903    2    3    3    0    0 -0.52186217474E-01 -0.11427205811E+00 -0.35752768542E-01  0.13204236271E+00  0.19375771841E-01 0.  0.
         14    1    1    2    0    0  0.51862487215E-02  0.21084487258E-01  0.13245824925E-01  0.25434320449E-01  0.00000000000E+00 0.  1.
     999901    1    3    3    0    0  0.46999968752E-01  0.93187570847E-01  0.22506943617E-01  0.88645331684E+00  0.88000000000E+00 0. -1.
        -11    1    4    4    0    0 -0.80328043271E-02 -0.81699051614E-02  0.66064711461E-03  0.11487857560E-01  0.51100000000E-03 0. -1.
         11    1    4    4    0    0 -0.44153413147E-01 -0.10610215294E+00 -0.36413415657E-01  0.12055450515E+00  0.51100000000E-03 0.  1.
</event>
<event>
 8    1  0.1120016E+005  0.1043930E+01  0.7957747E-01            NaN
         13   -1    0    0    0    0  0.00000000000E+00  0.00000000000E+00  0.74505805969E-08  0.10566000000E+00  0.10566000000E+00 0. -1.
     999900   -1    0    0    0    0 -0.00000000000E+00 -0.00000000000E+00 -0.74505805969E-08  0.93827000000E+00  0.93827000000E+00 0.  1.
     999902    2    1    2    0    0  0.96940818821E-03  0.64828477301E-02 -0.22529988885E-01  0.10204658259E+01  0.10201960274E+01 0.  0.
     999903    2    3    3    0    0  0.11246601292E+00  0.31908174920E-01 -0.58689736434E-01  0.13232987489E+00  0.19999373453E-01 0.  0.
         14    1    1    2    0    0 -0.96940818821E-03 -0.64828477301E-02  0.22529988885E-01  0.23464174098E-01  0.00000000000E+00 0. -1.
     999901    1    3    3    0    0 -0.11149660473E+00 -0.25425327190E-01  0.36159747549E-01  0.88813595101E+00  0.88000000000E+00 0. -1.
        -11    1    4    4    0    0  0.59190434422E-01  0.17834845729E-01 -0.42051154884E-01  0.74767305671E-01  0.51100000000E-03 0. -1.
         11    1    4    4    0    0  0.53275578496E-01  0.14073329191E-01 -0.16638581550E-01  0.57562569223E-01  0.51100000000E-03 0.  1.
</event>
<event>
 8    1  0.1120016E+005  0.1043930E+01  0.7957747E-01            NaN
         13   -1    0    0    0    0  0.00000000000E+00  0.00000000000E+00  0.74505805969E-08  0.10566000000E+00  0.10566000000E+00 0.  1.
     999900   -1    0    0    0    0 -0.00000000000E+00 -0.00000000000E+00 -0.74505805969E-08  0.93827000000E+00  0.93827000000E+00 0.  1.
     999902    2    1    2    0    0 -0.52908933092E-03  0.20198237151E-01  0.12398912372E-01  0.10202238458E+01  0.10199483878E+01 0.  0.
     999903    2    3    3    0    0 -0.65970912166E-01 -0.10538315454E+00 -0.23670907853E-01  0.12817320258E+00  0.20255554030E-01 0.  0.
         14    1    1    2    0    0  0.52908933092E-03 -0.20198237151E-01 -0.12398912372E-01  0.23706154212E-01  0.00000000000E+00 0. -1.
     999901    1    3    3    0    0  0.65441822835E-01  0.12558139169E+00  0.36069820225E-01  0.89205064321E+00  0.88000000000E+00 0.  1.
        -11    1    4    4    0    0 -0.55725468451E-01 -0.72020338809E-01 -0.16889013189E-01  0.92616180680E-01  0.51100000000E-03 0.  1.
         11    1    4    4    0    0 -0.10245443715E-01 -0.33362815728E-01 -0.67818946640E-02  0.35557021901E-01  0.51100000000E-03 0. -1.
</event>
<event>
 8    1  0.1120016E+005  0.1043930E+01  0.7957747E-01            NaN
         13   -1    0    0    0    0  0.00000000000E+00  0.00000000000E+00  0.74505805969E-08  0.10566000000E+00  0.10566000000E+00 0. -1.
     999900   -1    0    0    0    0 -0.00000000000E+00 -0.00000000000E+00 -0.74505805969E-08  0.93827000000E+00  0.93827000000E+00 0. -1.
     999902    2    1    2    0    0  0.54848357397E-02 -0.21530231179E-01  0.40157622136E-02  0.10213521209E+01  0.10211025386E+01 0.  0.
     999903    2    3    3    0    0  0.38727963514E-01  0.56391607812E-02  0.12473303471E+00  0.13207379481E+00  0.18801649837E-01 0.  0.
         14    1    1    2    0    0 -0.54848357397E-02  0.21530231179E-01 -0.40157622136E-02  0.22577879082E-01  0.00000000000E+00 0. -1.
     999901    1    3    3    0    0 -0.33243127774E-01 -0.27169391960E-01 -0.12071727249E+00  0.88927832611E+00  0.88000000000E+00 0. -1.
        -11    1    4    4    0    0  0.27262945299E-01  0.12147269086E-01  0.78100175236E-01  0.83610542550E-01  0.51100000000E-03 0.  1.
         11    1    4    4    0    0  0.11465018215E-01 -0.65081083048E-02  0.46632859471E-01  0.48463252262E-01  0.51100000000E-03 0. -1.
</event>
<event>
 8    1  0.1120016E+005  0.1043930E+01  0.7957747E-01            NaN
         13   -1    0    0    0    0  0.00000000000E+00  0.00000000000E+00  0.74505805969E-08  0.10566000000E+00  0.10566000000E+00 0. -1.
     999900   -1    0    0    0    0 -0.00000000000E+00 -0.00000000000E+00 -0.74505805969E-08  0.93827000000E+00  0.93827000000E+00 0.  1.
     999902    2    1    2    0    0  0.88165847448E-04 -0.23557412693E-01 -0.78916462792E-02  0.10190857341E+01  0.10187828502E+01 0.  0.
     999903    2    3    3    0    0 -0.49795838024E-01 -0.35410296339E-02  0.11684277347E+00  0.12866575181E+00  0.20260246827E-01 0.  0.
         14    1    1    2    0    0 -0.88165847448E-04  0.23557412693E-01  0.78916462792E-02  0.24844265878E-01  0.00000000000E+00 0. -1.
     999901    1    3    3    0    0  0.49884003872E-01 -0.20016383059E-01 -0.12473441975E+00  0.89041998231E+00  0.88000000000E+00 0.  1.
        -11    1    4    4    0    0 -0.11157903022E-01 -0.83516219165E-02  0.42692677986E-01  0.44912963197E-01  0.51100000000E-03 0.  1.
         11    1    4    4    0    0 -0.38637935003E-01  0.48105922826E-02  0.74150095482E-01  0.83752788612E-01  0.51100000000E-03 0. -1.
</event>
<event>
 8    1  0.1120016E+005  0.1043930E+01  0.7957747E-01            NaN
         13   -1    0    0    0    0  0.00000000000E+00  0.00000000000E+00  0.74505805969E-08  0.10566000000E+00  0.10566000000E+00 0.  1.
     999900   -1    0    0    0    0 -0.00000000000E+00 -0.00000000000E+00 -0.74505805969E-08  0.93827000000E+00  0.93827000000E+00 0.  1.
     999902    2    1    2    0    0  0.20956517253E-02 -0.16217575237E-01  0.17128292685E-01  0.10202492079E+01  0.10199743459E+01 0.  0.
     999903    2    3    3    0    0  0.53697781747E-01  0.10759897168E+00  0.44158728746E-01  0.12967413440E+00  0.20109632959E-01 0.  0.
         14    1    1    2    0    0 -0.20956517253E-02  0.16217575237E-01 -0.17128292685E-01  0.23680792070E-01  0.00000000000E+00 0. -1.
     999901    1    3    3    0    0 -0.51602130022E-01 -0.12381654692E+00 -0.27030436061E-01  0.89057507353E+00  0.88000000000E+00 0. -1.
        -11    1    4    4    0    0  0.52634381965E-01  0.10216124172E+00  0.37264785878E-01  0.12081482881E+00  0.51100000000E-03 0. -1.
         11    1    4    4    0    0  0.10633997823E-02  0.54377299631E-02  0.68939428689E-02  0.88593055895E-02  0.51100000000E-03 0.  1.
</event>
<event>
 8    1  0.1120016E+005  0.1043930E+01  0.7957747E-01            NaN
         13   -1    0    0    0    0  0.00000000000E+00  0.00000000000E+00  0.74505805969E-08  0.10566000000E+00  0.10566000000E+00 0.  1.
     999900   -1    0    0    0    0 -0.00000000000E+00 -0.00000000000E+00 -0.74505805969E-08  0.93827000000E+00  0.93827000000E+00 0.  1.
     999902    2    1    2    0    0  0.16089876112E-02  0.23435392967E-01  0.53817021213E-02  0.10198308464E+01  0.10195460687E+01 0.  0.
     999903    2    3    3    0    0 -0.11507302492E+00  0.59914241483E-01 -0.37877686960E-02  0.13133240658E+00  0.20058325687E-01 0.  0.
         14    1    1    2    0    0 -0.16089876112E-02 -0.23435392967E-01 -0.53817021213E-02  0.24099153562E-01  0.00000000000E+00 0.  1.
     999901    1    3    3    0    0  0.11668201253E+00 -0.36478848516E-01  0.91694708173E-02  0.88849843986E+00  0.88000000000E+00 0.  1.
        -11    1    4    4    0    0 -0.78551788214E-01  0.30943668709E-01 -0.61599925201E-02  0.84652824487E-01  0.51100000000E-03 0. -1.
         11    1    4    4    0    0 -0.36521236706E-01  0.28970572774E-01  0.23722238241E-02  0.46679582092E-01  0.51100000000E-03 0.  1.
</event>
<event>
 8    1  0.1120016E+005  0.1043930E+01  0.7957747E-01            NaN
         13   -1    0    0    0    0  0.00000000000E+00  0.00000000000E+00  0.74505805969E-08  0.10566000000E+00  0.10566000000E+00 0. -1.
     999900   -1    0    0    0    0 -0.00000000000E+00 -0.00000000000E+00 -0.74505805969E-08  0.93827000000E+00  0.93827000000E+00 0. -1.
     999902    2    1    2    0    0  0.94724867684E-02 -0.95483450742E-02 -0.17932236727E-01  0.10215142909E+01  0.10212683205E+01 0.  0.
     999903    2    3    3    0    0 -0.80817009114E-01  0.80722186444E-01  0.56963761901E-01  0.12915204804E+00  0.19695710079E-01 0.  0.
         14    1    1    2    0    0 -0.94724867684E-02  0.95483450742E-02  0.17932236727E-01  0.22415709074E-01  0.00000000000E+00 0. -1.
     999901    1    3    3    0    0  0.90289495882E-01 -0.90270531518E-01 -0.74895998628E-01  0.89236224289E+00  0.88000000000E+00 0. -1.
        -11    1    4    4    0    0 -0.10413772523E-01  0.16396368238E-01  0.32531243386E-02  0.19701052980E-01  0.51100000000E-03 0. -1.
         11    1    4    4    0    0 -0.70403236591E-01  0.64325818205E-01  0.53710637562E-01  0.10945099506E+00  0.51100000000E-03 0.  1.
</event>
<event>
 8    1  0.1120016E+005  0.1043930E+01  0.7957747E-01            NaN
         13   -1    0    0    0    0  0.00000000000E+00  0.00000000000E+00  0.74505805969E-08  0.10566000000E+00  0.10566000000E+00 0.  1.
     999900   -1    0    0    0    0 -0.00000000000E+00 -0.00000000000E+00 -0.74505805969E-08  0.93827000000E+00  0.93827000000E+00 0.  1.
     999902    2    1    2    0    0  0.20417665990E-01 -0.75646544830E-02  0.14362523333E-01  0.10178457680E+01  0.10175114841E+01 0.  0.
     999903    2    3    3    0    0  0.56387143637E-01  0.11102341231E+00 -0.23175035942E-01  0.12837064117E+00  0.20886147943E-01 0.  0.
         14    1    1    2    0    0 -0.20417665990E-01  0.75646544830E-02 -0.14362523333E-01  0.26084231988E-01  0.00000000000E+00 0. -1.
     999901    1    3    3    0    0 -0.35969477647E-01 -0.11858806679E+00  0.37537559275E-01  0.88947512684E+00  0.88000000000E+00 0. -1.
        -11    1    4    4    0    0  0.17436017084E-01  0.45995572682E-01 -0.30561577101E-03  0.49193108461E-01  0.51100000000E-03 0.  1.
         11    1    4    4    0    0  0.38951126552E-01  0.65027839628E-01 -0.22869420171E-01  0.79177532712E-01  0.51100000000E-03 0. -1.
</event>
<event>
 8    1  0.1120016E+005  0.1043930E+01  0.7957747E-01            NaN
         13   -1    0    0    0    0  0.00000000000E+00  0.00000000000E+00  0.74505805969E-08  0.10566000000E+00  0.10566000000E+00 0. -1.
     999900   -1    0    0    0    0 -0.00000000000E+00 -0.00000000000E+00 -0.74505805969E-08  0.93827000000E+00  0.93827000000E+00 0. -1.
     999902    2    1    2    0    0 -0.12378293027E-01  0.26357103025E-01  0.13674936240E-01  0.10117597824E+01  0.10112482061E+01 0.  0.
     999903    2    3    3    0    0 -0.49845954096E-02  0.82578215160E-01  0.93272515296E-01  0.12634956404E+00  0.20504692471E-01 0.  0.
         14    1    1    2    0    0  0.12378293027E-01 -0.26357103025E-01 -0.13674936240E-01  0.32170217582E-01  0.00000000000E+00 0.  1.
     999901    1    3    3    0    0 -0.73936976178E-02 -0.56221112135E-01 -0.79597579056E-01  0.88541021838E+00  0.88000000000E+00 0. -1.
        -11    1    4    4    0    0  0.15015065432E-02  0.71414456950E-01  0.71743672858E-01  0.10124077686E+00  0.51100000000E-03 0.  1.
         11    1    4    4    0    0 -0.64861019528E-02  0.11163758210E-01  0.21528842438E-01  0.25108787179E-01  0.51100000000E-03 0. -1.
</event>
<event>
 8    1  0.1120016E+005  0.1043930E+01  0.7957747E-01            NaN
         13   -1    0    0    0    0  0.00000000000E+00  0.00000000000E+00  0.74505805969E-08  0.10566000000E+00  0.10566000000E+00 0. -1.
     999900   -1    0    0    0    0 -0.00000000000E+00 -0.00000000000E+00 -0.74505805969E-08  0.93827000000E+00  0.93827000000E+00 0. -1.
     999902    2    1    2    0    0  0.15787328800E-01 -0.19231802430E-01 -0.17881070295E-02  0.10189840724E+01  0.10186786739E+01 0.  0.
     999903    2    3    3    0    0 -0.31824065539E-01  0.10574340884E+00  0.59023776290E-01  0.12680486765E+00  0.20030692203E-01 0.  0.
         14    1    1    2    0    0 -0.15787328800E-01  0.19231802430E-01  0.17881070295E-02  0.24945927565E-01  0.00000000000E+00 0.  1.
     999901    1    3    3    0    0  0.47611394338E-01 -0.12497521127E+00 -0.60811883319E-01  0.89217920479E+00  0.88000000000E+00 0. -1.
        -11    1    4    4    0    0 -0.19912270259E-01  0.43408019117E-01  0.33801955160E-01  0.58511434132E-01  0.51100000000E-03 0.  1.
         11    1    4    4    0    0 -0.11911795280E-01  0.62335389727E-01  0.25221821129E-01  0.68293433515E-01  0.51100000000E-03 0. -1.
</event>
<event>
 8    1  0.1120016E+005  0.1043930E+01  0.7957747E-01            NaN
         13   -1    0    0    0    0  0.00000000000E+00  0.00000000000E+00  0.74505805969E-08  0.10566000000E+00  0.10566000000E+00 0. -1.
     999900   -1    0    0    0    0 -0.00000000000E+00 -0.00000000000E+00 -0.74505805969E-08  0.93827000000E+00  0.93827000000E+00 0.  1.
     999902    2    1    2    0    0 -0.50621247736E-02 -0.22071307778E-01  0.73594365685E-02  0.10201197282E+01  0.10198418166E+01 0.  0.
     999903    2    3    3    0    0 -0.12368971711E+00  0.18817825365E-01 -0.30882767848E-01  0.13039679774E+00  0.19907858802E-01 0.  0.
         14    1    1    2    0    0  0.50621247736E-02  0.22071307778E-01 -0.73594365685E-02  0.23810271751E-01  0.00000000000E+00 0.  1.
     999901    1    3    3    0    0  0.11862759233E+00 -0.40889133143E-01  0.38242204417E-01  0.88972293051E+00  0.88000000000E+00 0. -1.
        -11    1    4    4    0    0 -0.53503580801E-01  0.18134486695E-01 -0.13758550630E-01  0.58146810770E-01  0.51100000000E-03 0. -1.
         11    1    4    4    0    0 -0.70186136305E-01  0.68333867023E-03 -0.17124217218E-01  0.72249986972E-01  0.51100000000E-03 0.  1.
</event>
<event>
 8    1  0.1509249E+005  0.1043930E+01  0.7957747E-01            NaN
         13   -1    0    0    0    0  0.00000000000E+00  0.00000000000E+00  0.74505805969E-08  0.10566000000E+00  0.10566000000E+00 0.  1.
     999900   -1    0    0    0    0 -0.00000000000E+00 -0.00000000000E+00 -0.74505805969E-08  0.93827000000E+00  0.93827000000E+00 0. -1.
     999902    2    1    2    0    0  0.17617321254E-01 -0.26220411145E-03 -0.15971318649E-01  0.10201492982E+01  0.10198720845E+01 0.  0.
     999903    2    3    3    0    0  0.67419782508E-01  0.75809502702E-02 -0.11333558305E+00  0.13334514834E+00  0.18250378617E-01 0.  0.
         14    1    1    2    0    0 -0.17617321254E-01  0.26220411145E-03  0.15971318649E-01  0.23780701810E-01  0.00000000000E+00 0.  1.
     999901    1    3    3    0    0 -0.49802461254E-01 -0.78431543816E-02  0.97364264398E-01  0.88680414985E+00  0.88000000000E+00 0.  1.
        -11    1    4    4    0    0  0.38173590961E-01 -0.45900763242E-02 -0.66040278095E-01  0.76419050631E-01  0.51100000000E-03 0.  1.
         11    1    4    4    0    0  0.29246191547E-01  0.12171026594E-01 -0.47295304952E-01  0.56926097705E-01  0.51100000000E-03 0. -1.
</event>
<event>
 8    1  0.1120016E+005  0.1043930E+01  0.7957747E-01            NaN
         13   -1    0    0    0    0  0.00000000000E+00  0.00000000000E+00  0.74505805969E-08  0.10566000000E+00  0.10566000000E+00 0.  1.
     999900   -1    0    0    0    0 -0.00000000000E+00 -0.00000000000E+00 -0.74505805969E-08  0.93827000000E+00  0.93827000000E+00 0.  1.
     999902    2    1    2    0    0  0.11094118572E-01 -0.13690410864E-01  0.13431524150E-01  0.10217734511E+01  0.10215331971E+01 0.  0.
     999903    2    3    3    0    0  0.23666191811E-01 -0.28888610003E-02  0.12990704251E+00  0.13394391971E+00  0.22286762422E-01 0.  0.
         14    1    1    2    0    0 -0.11094118572E-01  0.13690410864E-01 -0.13431524150E-01  0.22156548862E-01  0.00000000000E+00 0. -1.
     999901    1    3    3    0    0 -0.12572073239E-01 -0.10801549863E-01 -0.11647551836E+00  0.88782953143E+00  0.88000000000E+00 0.  1.
        -11    1    4    4    0    0 -0.33952742082E-02 -0.42990019413E-02  0.19797702606E-01  0.20547979320E-01  0.51100000000E-03 0. -1.
         11    1    4    4    0    0  0.27061466019E-01  0.14101409409E-02  0.11010933991E+00  0.11339594039E+00  0.51100000000E-03 0.  1.
</event>
<event>
 8    1  0.1120016E+005  0.1043930E+01  0.7957747E-01            NaN
         13   -1    0    0    0    0  0.00000000000E+00  0.00000000000E+00  0.74505805969E-08  0.10566000000E+00  0.10566000000E+00 0.  1.
     999900   -1    0    0    0    0 -0.00000000000E+00 -0.00000000000E+00 -0.74505805969E-08  0.93827000000E+00  0.93827000000E+00 0.  1.
     999902    2    1    2    0    0  0.16539465818E-01 -0.15860546180E-01  0.69802422600E-02  0.10199751542E+01  0.10196938171E+01 0.  0.
     999903    2    3    3    0    0 -0.10570949079E+00  0.50556842487E-01 -0.45929716967E-01  0.12747555158E+00  0.20248125496E-01 0.  0.
         14    1    1    2    0    0 -0.16539465818E-01  0.15860546180E-01 -0.69802422600E-02  0.23954845787E-01  0.00000000000E+00 0. -1.
     999901    1    3    3    0    0  0.12224895661E+00 -0.66417388667E-01  0.52909959227E-01  0.89249960263E+00  0.88000000000E+00 0. -1.
        -11    1    4    4    0    0 -0.19281277718E-01  0.77970088201E-02 -0.32605782641E-03  0.20806932779E-01  0.51100000000E-03 0. -1.
         11    1    4    4    0    0 -0.86428213069E-01  0.42759833667E-01 -0.45603659140E-01  0.10666861880E+00  0.51100000000E-03 0.  1.
</event>
<event>
 8    1  0.1120016E+005  0.1043930E+01  0.7957747E-01            NaN
         13   -1    0    0    0    0  0.00000000000E+00  0.00000000000E+00  0.74505805969E-08  0.10566000000E+00  0.10566000000E+00 0.  1.
     999900   -1    0    0    0    0 -0.00000000000E+00 -0.00000000000E+00 -0.74505805969E-08  0.93827000000E+00  0.93827000000E+00 0.  1.
     999902    2    1    2    0    0  0.75816285983E-02  0.35562875762E-02 -0.22289184357E-01  0.10201195818E+01  0.10198416668E+01 0.  0.
     999903    2    3    3    0    0  0.43646651842E-01  0.83797265357E-01 -0.91369123750E-01  0.13303934960E+00  0.20594656287E-01 0.  0.
         14    1    1    2    0    0 -0.75816285983E-02 -0.35562875762E-02  0.22289184357E-01  0.23810418157E-01  0.00000000000E+00 0.  1.
     999901    1    3    3    0    0 -0.36065023243E-01 -0.80240977781E-01  0.69079939393E-01  0.88708023225E+00  0.88000000000E+00 0. -1.
        -11    1    4    4    0    0  0.20960931294E-01  0.60448264678E-01 -0.56874468212E-01  0.85605604949E-01  0.51100000000E-03 0. -1.
         11    1    4    4    0    0  0.22685720547E-01  0.23349000679E-01 -0.34494655538E-01  0.47433744646E-01  0.51100000000E-03 0.  1.
</event>
<event>
 8    1  0.1120016E+005  0.1043930E+01  0.7957747E-01            NaN
         13   -1    0    0    0    0  0.00000000000E+00  0.00000000000E+00  0.74505805969E-08  0.10566000000E+00  0.10566000000E+00 0.  1.
     999900   -1    0    0    0    0 -0.00000000000E+00 -0.00000000000E+00 -0.74505805969E-08  0.93827000000E+00  0.93827000000E+00 0.  1.
     999902    2    1    2    0    0 -0.15103262927E-01  0.92677497701E-02  0.18310742430E-01  0.10184489673E+01  0.10181301567E+01 0.  0.
     999903    2    3    3    0    0 -0.86082136821E-01  0.47784772941E-01 -0.81650751154E-01  0.12911558677E+00  0.17620180957E-01 0.  0.
         14    1    1    2    0    0  0.15103262927E-01 -0.92677497701E-02 -0.18310742430E-01  0.25481032655E-01  0.00000000000E+00 0. -1.
     999901    1    3    3    0    0  0.70978873894E-01 -0.38517023171E-01  0.99961493584E-01  0.88933338058E+00  0.88000000000E+00 0. -1.
        -11    1    4    4    0    0 -0.25425110800E-02 -0.92779599138E-04 -0.64144008920E-02  0.69194385935E-02  0.51100000000E-03 0.  1.
         11    1    4    4    0    0 -0.83539625741E-01  0.47877552540E-01 -0.75236350262E-01  0.12219614817E+00  0.51100000000E-03 0. -1.
</event>
<event>
 8    1  0.1120016E+005  0.1043930E+01  0.7957747E-01            NaN
         13   -1    0    0    0    0  0.00000000000E+00  0.00000000000E+00  0.74505805969E-08  0.10566000000E+00  0.10566000000E+00 0. -1.
     999900   -1    0    0    0    0 -0.00000000000E+00 -0.00000000000E+00 -0.74505805969E-08  0.93827000000E+00  0.93827000000E+00 0.  1.
     999902    2    1    2    0    0  0.84843152215E-04 -0.23672004847E-02  0.23750803450E-01  0.10200613699E+01  0.10197820782E+01 0.  0.
     999903    2    3    3    0    0 -0.19281058042E-01 -0.50994452208E-01  0.11985958070E+00  0.13328262369E+00  0.20633597243E-01 0.  0.
         14    1    1    2    0    0 -0.84843152215E-04  0.23672004847E-02 -0.23750803450E-01  0.23868630062E-01  0.00000000000E+00 0.  1.
     999901    1    3    3    0    0  0.19365901194E-01  0.48627251723E-01 -0.96108777252E-01  0.88677874625E+00  0.88000000000E+00 0.  1.
        -11    1    4    4    0    0 -0.10565114984E-01 -0.45665073228E-01  0.10724964737E+00  0.11704558321E+00  0.51100000000E-03 0. -1.
         11    1    4    4    0    0 -0.87159430577E-02 -0.53293789799E-02  0.12609933336E-01  0.16237040476E-01  0.51100000000E-03 0.  1.
</event>
<event>
 8    1  0.1120016E+005  0.1043930E+01  0.7957747E-01            NaN
         13   -1    0    0    0    0  0.00000000000E+00  0.00000000000E+00  0.74505805969E-08  0.10566000000E+00  0.10566000000E+00 0.  1.
     999900   -1    0    0    0    0 -0.00000000000E+00 -0.00000000000E+00 -0.74505805969E-08  0.93827000000E+00  0.93827000000E+00 0. -1.
     999902    2    1    2    0    0  0.95479517048E-02  0.49193188776E-02  0.20163607755E-01  0.10210841216E+01  0.10208285112E+01 0.  0.
     999903    2    3    3    0    0  0.25147767125E-01 -0.11061054091E+00  0.65019626197E-01  0.13226323692E+00  0.19972733864E-01 0.  0.
         14    1    1    2    0    0 -0.95479517048E-02 -0.49193188776E-02 -0.20163607755E-01  0.22845878352E-01  0.00000000000E+00 0. -1.
     999901    1    3    3    0    0 -0.15599815420E-01  0.11552985978E+00 -0.44856018443E-01  0.88882088473E+00  0.88000000000E+00 0. -1.
        -11    1    4    4    0    0  0.20149610071E-01 -0.74782642962E-01  0.54092219783E-01  0.94470523638E-01  0.51100000000E-03 0.  1.
         11    1    4    4    0    0  0.49981570535E-02 -0.35827897945E-01  0.10927406414E-01  0.37792713280E-01  0.51100000000E-03 0. -1.
</event>
<event>
 8    1  0.1120016E+005  0.1043930E+01  0.7957747E-01            NaN
         13   -1    0    0    0    0  0.00000000000E+00  0.00000000000E+00  0.74505805969E-08  0.10566000000E+00  0.10566000000E+00 0. -1.
     999900   -1    0    0    0    0 -0.00000000000E+00 -0.00000000000E+00 -0.74505805969E-08  0.93827000000E+00  0.93827000000E+00 0. -1.
     999902    2    1    2    0    0  0.20165396897E-01  0.98897613534E-02 -0.57736929217E-02  0.10207397835E+01  0.10204763199E+01 0.  0.
     999903    2    3    3    0    0 -0.55002562592E-01  0.94640147606E-01 -0.69396513388E-01  0.13120017595E+00  0.20385550481E-01 0.  0.
         14    1    1    2    0    0 -0.20165396897E-01 -0.98897613534E-02  0.57736929217E-02  0.23190216506E-01  0.00000000000E+00 0.  1.
     999901    1    3    3    0    0  0.75167959490E-01 -0.84750386253E-01  0.63622820466E-01  0.88953960754E+00  0.88000000000E+00 0. -1.
        -11    1    4    4    0    0 -0.22000779740E-01  0.42410321542E-01 -0.18813766804E-01  0.51350643859E-01  0.51100000000E-03 0.  1.
         11    1    4    4    0    0 -0.33001782852E-01  0.52229826065E-01 -0.50582746584E-01  0.79849532091E-01  0.51100000000E-03 0. -1.
</event>
<event>
 8    1  0.1120016E+005  0.1043930E+01  0.7957747E-01            NaN
         13   -1    0    0    0    0  0.00000000000E+00  0.00000000000E+00  0.74505805969E-08  0.10566000000E+00  0.10566000000E+00 0. -1.
     999900   -1    0    0    0    0 -0.00000000000E+00 -0.00000000000E+00 -0.74505805969E-08  0.93827000000E+00  0.93827000000E+00 0. -1.
     999902    2    1    2    0    0 -0.22942000270E-01  0.41750919886E-02  0.28616705117E-02  0.10204362577E+01  0.10201657709E+01 0.  0.
     999903    2    3    3    0    0 -0.25682201489E-01 -0.24522133120E-01 -0.12437244658E+00  0.13081860950E+00  0.19598281450E-01 0.  0.
         14    1    1    2    0    0  0.22942000270E-01 -0.41750919886E-02 -0.28616705117E-02  0.23493742307E-01  0.00000000000E+00 0.  1.
     999901    1    3    3    0    0  0.27402012199E-02  0.28697225109E-01  0.12723411709E+00  0.88961764820E+00  0.88000000000E+00 0.  1.
        -11    1    4    4    0    0 -0.16929136304E-01 -0.98820136334E-02 -0.93592739386E-01  0.95624849470E-01  0.51100000000E-03 0.  1.
         11    1    4    4    0    0 -0.87530651854E-02 -0.14640119487E-01 -0.30779707195E-01  0.35193760026E-01  0.51100000000E-03 0. -1.
</event>
<event>
 8    1  0.1120016E+005  0.1043930E+01  0.7957747E-01            NaN
         13   -1    0    0    0    0  0.00000000000E+00  0.00000000000E+00  0.74505805969E-08  0.10566000000E+00  0.10566000000E+00 0.  1.
     999900   -1    0    0    0    0 -0.00000000000E+00 -0.00000000000E+00 -0.74505805969E-08  0.93827000000E+00  0.93827000000E+00 0. -1.
     999902    2    1    2    0    0  0.18095937950E-01 -0.53720010434E-02  0.11913071036E-01  0.10216086509E+01  0.10213647698E+01 0.  0.
     999903    2    3    3    0    0 -0.86591641859E-01  0.20591133480E-02  0.96797316908E-01  0.13131653812E+00  0.19286270650E-01 0.  0.
         14    1    1    2    0    0 -0.18095937950E-01  0.53720010434E-02 -0.11913071036E-01  0.22321349131E-01  0.00000000000E+00 0. -1.
     999901    1    3    3    0    0  0.10468757981E+00 -0.74311143914E-02 -0.84884245872E-01  0.89029211275E+00  0.88000000000E+00 0. -1.
        -11    1    4    4    0    0 -0.71762183615E-01  0.49189059735E-02  0.68992176044E-01  0.99670397358E-01  0.51100000000E-03 0. -1.
         11    1    4    4    0    0 -0.14829458244E-01 -0.28597926255E-02  0.27805140864E-01  0.31646140762E-01  0.51100000000E-03 0.  1.
</event>
<event>
 8    1  0.1120016E+005  0.1043930E+01  0.7957747E-01            NaN
         13   -1    0    0    0    0  0.00000000000E+00  0.00000000000E+00  0.74505805969E-08  0.10566000000E+00  0.10566000000E+00 0. -1.
     999900   -1    0    0    0    0 -0.00000000000E+00 -0.00000000000E+00 -0.74505805969E-08  0.93827000000E+00  0.93827000000E+00 0.  1.
     999902    2    1    2    0    0  0.15168948827E-01  0.13251904547E-01  0.16760257834E-01  0.10177266371E+01  0.10173892528E+01 0.  0.
     999903    2    3    3    0    0 -0.88765198039E-01 -0.85558492248E-01  0.17522360308E-01  0.12611776426E+00  0.19978522763E-01 0.  0.
         14    1    1    2    0    0 -0.15168948827E-01 -0.13251904547E-01 -0.16760257834E-01  0.26203362863E-01  0.00000000000E+00 0.  1.
     999901    1    3    3    0    0  0.10393414687E+00  0.98810396794E-01 -0.76210247346E-03  0.89160887288E+00  0.88000000000E+00 0. -1.
        -11    1    4    4    0    0 -0.44873913141E-01 -0.35304368300E-01  0.16306276233E-01  0.59382002890E-01  0.51100000000E-03 0.  1.
         11    1    4    4    0    0 -0.43891284898E-01 -0.50254123947E-01  0.12160840748E-02  0.66735761367E-01  0.51100000000E-03 0. -1.
</event>
<event>
 8    1  0.1120016E+005  0.1043930E+01  0.7957747E-01            NaN
         13   -1    0    0    0    0  0.00000000000E+00  0.00000000000E+00  0.74505805969E-08  0.10566000000E+00  0.10566000000E+00 0.  1.
     999900   -1    0    0    0    0 -0.00000000000E+00 -0.00000000000E+00 -0.74505805969E-08  0.93827000000E+00  0.93827000000E+00 0. -1.
     999902    2    1    2    0    0  0.12880428709E-01 -0.10281778288E-01 -0.17485358806E-01  0.10199017212E+01  0.10196186359E+01 0.  0.
     999903    2    3    3    0    0  0.49196195847E-01  0.11647579012E+00  0.18686472901E-01  0.12934306650E+00  0.19838578908E-01 0.  0.
         14    1    1    2    0    0 -0.12880428709E-01  0.10281778288E-01  0.17485358806E-01  0.24028278779E-01  0.00000000000E+00 0.  1.
     999901    1    3    3    0    0 -0.36315767138E-01 -0.12675756840E+00 -0.36171831707E-01  0.89055865472E+00  0.88000000000E+00 0.  1.
        -11    1    4    4    0    0  0.10062702779E-01  0.44573206446E-01  0.11760544040E-01  0.47186865092E-01  0.51100000000E-03 0. -1.
         11    1    4    4    0    0  0.39133493069E-01  0.71902583670E-01  0.69259288607E-02  0.82156201408E-01  0.51100000000E-03 0.  1.
</event>
<event>
 8    1  0.1120016E+005  0.1043930E+01  0.7957747E-01            NaN
         13   -1    0    0    0    0  0.00000000000E+00  0.00000000000E+00  0.74505805969E-08  0.10566000000E+00  0.10566000000E+00 0. -1.
     999900   -1    0    0    0    0 -0.00000000000E+00 -0.00000000000E+00 -0.74505805969E-08  0.93827000000E+00  0.93827000000E+00 0.  1.
     999902    2    1    2    0    0 -0.10305304612E-01 -0.20950776463E-01  0.45397879321E-02  0.10201446261E+01  0.10198673022E+01 0.  0.
     999903    2    3    3    0    0 -0.87789505580E-01 -0.26170857154E-02 -0.95849018619E-01  0.13086523349E+00  0.14994283566E-01 0.  0.
         14    1    1    2    0    0  0.10305304612E-01  0.20950776463E-01 -0.45397879321E-02  0.23785373909E-01  0.00000000000E+00 0.  1.
     999901    1    3    3    0    0  0.77484200968E-01 -0.18333690747E-01  0.10038880655E+00  0.88927939260E+00  0.88000000000E+00 0. -1.
        -11    1    4    4    0    0 -0.39467025390E-01 -0.79523525233E-03 -0.32298597685E-01  0.51007244834E-01  0.51100000000E-03 0. -1.
         11    1    4    4    0    0 -0.48322480191E-01 -0.18218504631E-02 -0.63550420934E-01  0.79857988660E-01  0.51100000000E-03 0.  1.
</event>
<event>
 8    1  0.1120016E+005  0.1043930E+01  0.7957747E-01            NaN
         13   -1    0    0    0    0  0.00000000000E+00  0.00000000000E+00  0.74505805969E-08  0.10566000000E+00  0.10566000000E+00 0. -1.
     999900   -1    0    0    0    0 -0.00000000000E+00 -0.00000000000E+00 -0.74505805969E-08  0.93827000000E+00  0.93827000000E+00 0.  1.
     999902    2    1    2    0    0 -0.18266460098E-01 -0.20738434673E-01  0.31703936076E-02  0.10161127817E+01  0.10157319467E+01 0.  0.
     999903    2    3    3    0    0  0.11768423021E+00  0.31963086350E-01 -0.33766754235E-02  0.12409097446E+00  0.22714556489E-01 0.  0.
         14    1    1    2    0    0  0.18266460098E-01  0.20738434673E-01 -0.31703936076E-02  0.27817218280E-01  0.00000000000E+00 0.  1.
     999901    1    3    3    0    0 -0.13595069031E+00 -0.52701521022E-01  0.65470690311E-02  0.89202180726E+00  0.88000000000E+00 0. -1.
        -11    1    4    4    0    0  0.53279310312E-01  0.14196301776E-01 -0.12828563846E-01  0.56613188064E-01  0.51100000000E-03 0. -1.
         11    1    4    4    0    0  0.64404919899E-01  0.17766784574E-01  0.94518884229E-02  0.67477786397E-01  0.51100000000E-03 0.  1.
</event>
<event>
 8    1  0.1120016E+005  0.1043930E+01  0.7957747E-01            NaN
         13   -1    0    0    0    0  0.00000000000E+00  0.00000000000E+00  0.74505805969E-08  0.10566000000E+00  0.10566000000E+00 0. -1.
     999900   -1    0    0    0    0 -0.00000000000E+00 -0.00000000000E+00 -0.74505805969E-08  0.93827000000E+00  0.93827000000E+00 0.  1.
     999902    2    1    2    0    0 -0.12839436734E-01 -0.54121493473E-02  0.19325410669E-01  0.10201053490E+01  0.10198270977E+01 0.  0.
     999903    2    3    3    0    0  0.54536617123E-01 -0.10054824060E+00 -0.56559101782E-01  0.12917950042E+00  0.20105224214E-01 0.  0.
         14    1    1    2    0    0  0.12839436734E-01  0.54121493473E-02 -0.19325410669E-01  0.23824650968E-01  0.00000000000E+00 0.  1.
     999901    1    3    3    0    0 -0.67376053857E-01  0.95136091250E-01  0.75884512451E-01  0.89092584861E+00  0.88000000000E+00 0. -1.
        -11    1    4    4    0    0  0.10605685873E-01 -0.23726408880E-01 -0.41370352663E-02  0.26321079632E-01  0.51100000000E-03 0.  1.
         11    1    4    4    0    0  0.43930931250E-01 -0.76821831717E-01 -0.52422066515E-01  0.10285842079E+00  0.51100000000E-03 0. -1.
</event>
<event>
 8    1  0.1120016E+005  0.1043930E+01  0.7957747E-01            NaN
         13   -1    0    0    0    0  0.00000000000E+00  0.00000000000E+00  0.74505805969E-08  0.10566000000E+00  0.10566000000E+00 0. -1.
     999900   -1    0    0    0    0 -0.00000000000E+00 -0.00000000000E+00 -0.74505805969E-08  0.93827000000E+00  0.93827000000E+00 0. -1.
     999902    2    1    2    0    0 -0.19372486202E-01 -0.10717561794E-01  0.56194233916E-02  0.10210884311E+01  0.10208329181E+01 0.  0.
     999903    2    3    3    0    0 -0.12692743436E-01  0.10513656497E-01  0.12968413006E+00  0.13210730919E+00  0.19045336553E-01 0.  0.
         14    1    1    2    0    0  0.19372486202E-01  0.10717561794E-01 -0.56194233916E-02  0.22841568942E-01  0.00000000000E+00 0.  1.
     999901    1    3    3    0    0 -0.66797427663E-02 -0.21231218292E-01 -0.12406470667E+00  0.88898112187E+00  0.88000000000E+00 0.  1.
        -11    1    4    4    0    0  0.86483401314E-03  0.11464646316E-01  0.54310148922E-01  0.55516118830E-01  0.51100000000E-03 0.  1.
         11    1    4    4    0    0 -0.13557577449E-01 -0.95098981882E-03  0.75373981136E-01  0.76591190363E-01  0.51100000000E-03 0. -1.
</event>
<event>
 8    1  0.1120016E+005  0.1043930E+01  0.7957747E-01            NaN
         13   -1    0    0    0    0  0.00000000000E+00  0.00000000000E+00  0.74505805969E-08  0.10566000000E+00  0.10566000000E+00 0.  1.
     999900   -1    0    0    0    0 -0.00000000000E+00 -0.00000000000E+00 -0.74505805969E-08  0.93827000000E+00  0.93827000000E+00 0.  1.
     999902    2    1    2    0    0 -0.15298971657E-02  0.23825888372E-01  0.47991221431E-02  0.10195774824E+01  0.10192866120E+01 0.  0.
     999903    2    3    3    0    0 -0.32811229754E-02  0.79642954993E-02  0.12887559058E+00  0.13073012373E+00  0.20180476508E-01 0.  0.
         14    1    1    2    0    0  0.15298971657E-02 -0.23825888372E-01 -0.47991221431E-02  0.24352517640E-01  0.00000000000E+00 0.  1.
     999901    1    3    3    0    0  0.17512258097E-02  0.15861592873E-01 -0.12407646844E+00  0.88884735863E+00  0.88000000000E+00 0.  1.
        -11    1    4    4    0    0 -0.66627863081E-02  0.11652086324E-01  0.11783228513E+00  0.11859541466E+00  0.51100000000E-03 0.  1.
         11    1    4    4    0    0  0.33816633327E-02 -0.36877908243E-02  0.11043305448E-01  0.12134709073E-01  0.51100000000E-03 0. -1.
</event>
<event>
 7    1  0.1120016E+005  0.1043930E+01  0.7957747E-01            NaN
         13   -1    0    0    0    0  0.00000000000E+00  0.00000000000E+00  0.74505805969E-08  0.10566000000E+00  0.10566000000E+00 0.  1.
     999900   -1    0    0    0    0 -0.00000000000E+00 -0.00000000000E+00 -0.74505805969E-08  0.93827000000E+00  0.93827000000E+00 0. -1.
     999903    2    1    2    0    0  0.15570166751E-01 -0.48603259663E-01  0.96856301113E-01  0.11033683708E+00  0.13724707963E-01 0.  0.
         14    1    1    2    0    0 -0.34807025037E-01 -0.21981689588E-01 -0.23772946143E-01  0.47538159803E-01  0.00000000000E+00 0. -1.
     999901    1    1    2    0    0  0.19236858286E-01  0.70584949252E-01 -0.73083354970E-01  0.88605500312E+00  0.88000000000E+00 0. -1.
        -11    1    3    3    0    0 -0.21747934153E-02 -0.11301427518E-01  0.19925541970E-01  0.23016088594E-01  0.51100000000E-03 0.  1.
         11    1    3    3    0    0  0.17744960166E-01 -0.37301832145E-01  0.76930759143E-01  0.87320748485E-01  0.51100000000E-03 0. -1.
</event>
<event>
 8    1  0.1120016E+005  0.1043930E+01  0.7957747E-01            NaN
         13   -1    0    0    0    0  0.00000000000E+00  0.00000000000E+00  0.74505805969E-08  0.10566000000E+00  0.10566000000E+00 0.  1.
     999900   -1    0    0    0    0 -0.00000000000E+00 -0.00000000000E+00 -0.74505805969E-08  0.93827000000E+00  0.93827000000E+00 0. -1.
     999902    2    1    2    0    0  0.23516563272E-01  0.61723091969E-02 -0.27809543150E-02  0.10194583867E+01  0.10191646297E+01 0.  0.
     999903    2    3    3    0    0  0.77078535601E-01 -0.60321596949E-01  0.84815425950E-01  0.13099710436E+00  0.19666956139E-01 0.  0.
         14    1    1    2    0    0 -0.23516563272E-01 -0.61723091969E-02  0.27809543150E-02  0.24471613266E-01  0.00000000000E+00 0.  1.
     999901    1    3    3    0    0 -0.53561972329E-01  0.66493906146E-01 -0.87596380265E-01  0.88846128237E+00  0.88000000000E+00 0. -1.
        -11    1    4    4    0    0  0.56659538885E-01 -0.41162885005E-01  0.71150251237E-01  0.99836395271E-01  0.51100000000E-03 0.  1.
         11    1    4    4    0    0  0.20418996717E-01 -0.19158711944E-01  0.13665174713E-01  0.31160709093E-01  0.51100000000E-03 0. -1.
</event>
<event>
 8    1  0.1120016E+005  0.1043930E+01  0.7957747E-01            NaN
         13   -1    0    0    0    0  0.00000000000E+00  0.00000000000E+00  0.74505805969E-08  0.10566000000E+00  0.10566000000E+00 0.  1.
     999900   -1    0    0    0    0 -0.00000000000E+00 -0.00000000000E+00 -0.74505805969E-08  0.93827000000E+00  0.93827000000E+00 0. -1.
     999902    2    1    2    0    0  0.33469010204E-02 -0.20334342718E-01  0.94140276077E-02  0.10212736288E+01  0.10210222886E+01 0.  0.
     999903    2    3    3    0    0 -0.11814103121E+00  0.17138657538E-02  0.54127175728E-01  0.13152944827E+00  0.20248555936E-01 0.  0.
         14    1    1    2    0    0 -0.33469010204E-02  0.20334342718E-01 -0.94140276077E-02  0.22656371202E-01  0.00000000000E+00 0. -1.
     999901    1    3    3    0    0  0.12148793223E+00 -0.22048208472E-01 -0.44713148120E-01  0.88974418053E+00  0.88000000000E+00 0. -1.
        -11    1    4    4    0    0 -0.17547516373E-01  0.12194116514E-02  0.66584010342E-03  0.17609848372E-01  0.51100000000E-03 0.  1.
         11    1    4    4    0    0 -0.10059351484E+00  0.49445410244E-03  0.53461335625E-01  0.11391959990E+00  0.51100000000E-03 0. -1.
</event>
<event>
 8    1  0.1120016E+005  0.1043930E+01  0.7957747E-01            NaN
         13   -1    0    0    0    0  0.00000000000E+00  0.00000000000E+00  0.74505805969E-08  0.10566000000E+00  0.10566000000E+00 0. -1.
     999900   -1    0    0    0    0 -0.00000000000E+00 -0.00000000000E+00 -0.74505805969E-08  0.93827000000E+00  0.93827000000E+00 0.  1.
     999902    2    1    2    0    0  0.22985044578E-01 -0.20170848460E-02  0.34018481148E-02  0.10206071898E+01  0.10203406698E+01 0.  0.
     999903    2    3    3    0    0  0.10344705104E+00 -0.13777344681E-01 -0.79858547654E-01  0.13294467977E+00  0.20144295729E-01 0.  0.
         14    1    1    2    0    0 -0.22985044578E-01  0.20170848460E-02 -0.34018481148E-02  0.23322810211E-01  0.00000000000E+00 0.  1.
     999901    1    3    3    0    0 -0.80462006458E-01  0.11760259835E-01  0.83260395769E-01  0.88766251002E+00  0.88000000000E+00 0. -1.
        -11    1    4    4    0    0  0.49956005357E-01  0.31129864694E-02 -0.34322598282E-01  0.60692627475E-01  0.51100000000E-03 0. -1.
         11    1    4    4    0    0  0.53491045679E-01 -0.16890331150E-01 -0.45535949372E-01  0.72252052292E-01  0.51100000000E-03 0.  1.
</event>
<event>
 8    1  0.1120016E+005  0.1043930E+01  0.7957747E-01            NaN
         13   -1    0    0    0    0  0.00000000000E+00  0.00000000000E+00  0.74505805969E-08  0.10566000000E+00  0.10566000000E+00 0. -1.
     999900   -1    0    0    0    0 -0.00000000000E+00 -0.00000000000E+00 -0.74505805969E-08  0.93827000000E+00  0.93827000000E+00 0. -1.
     999902    2    1    2    0    0 -0.62159505736E-03 -0.93892856293E-02 -0.21411857808E-01  0.10205416969E+01  0.10202736606E+01 0.  0.
     999903    2    3    3    0    0 -0.88171725458E-01  0.54914250195E-01 -0.79065936371E-01  0.13199008740E+00  0.19496995469E-01 0.  0.
         14    1    1    2    0    0  0.62159505736E-03  0.93892856293E-02  0.21411857808E-01  0.23388303056E-01  0.00000000000E+00 0. -1.
     999901    1    3    3    0    0  0.87550130401E-01 -0.64303535824E-01  0.57654078563E-01  0.88855160955E+00  0.88000000000E+00 0.  1.
        -11    1    4    4    0    0 -0.54575744692E-01  0.22604703305E-01 -0.44252855923E-01  0.73810980880E-01  0.51100000000E-03 0. -1.
         11    1    4    4    0    0 -0.33595980766E-01  0.32309546890E-01 -0.34813080448E-01  0.58179106517E-01  0.51100000000E-03 0.  1.
</event>
<event>
 8    1  0.1120016E+005  0.1043930E+01  0.7957747E-01            NaN
         13   -1    0    0    0    0  0.00000000000E+00  0.00000000000E+00  0.74505805969E-08  0.10566000000E+00  0.10566000000E+00 0.  1.
     999900   -1    0    0    0    0 -0.00000000000E+00 -0.00000000000E+00 -0.74505805969E-08  0.93827000000E+00  0.93827000000E+00 0. -1.
     999902    2    1    2    0    0 -0.25015159138E-01  0.68323630615E-02  0.12211124904E-02  0.10179698288E+01  0.10176387581E+01 0.  0.
     999903    2    3    3    0    0  0.10176195205E+00 -0.23478966180E-01  0.67899732950E-01  0.12587272031E+00  0.18077921450E-01 0.  0.
         14    1    1    2    0    0  0.25015159138E-01 -0.68323630615E-02 -0.12211124904E-02  0.25960171175E-01  0.00000000000E+00 0.  1.
     999901    1    3    3    0    0 -0.12677711119E+00  0.30311329241E-01 -0.66678620459E-01  0.89209710852E+00  0.88000000000E+00 0. -1.
        -11    1    4    4    0    0  0.26525508996E-01 -0.14083477494E-01  0.16500013402E-01  0.34270373927E-01  0.51100000000E-03 0.  1.
         11    1    4    4    0    0  0.75236443057E-01 -0.93954886862E-02  0.51399719547E-01  0.91602346379E-01  0.51100000000E-03 0. -1.
</event>
<event>
 8    1  0.1120016E+005  0.1043930E+01  0.7957747E-01            NaN
         13   -1    0    0    0    0  0.00000000000E+00  0.00000000000E+00  0.74505805969E-08  0.10566000000E+00  0.10566000000E+00 0.  1.
     999900   -1    0    0    0    0 -0.00000000000E+00 -0.00000000000E+00 -0.74505805969E-08  0.93827000000E+00  0.93827000000E+00 0.  1.
     999902    2    1    2    0    0 -0.15078370785E-01 -0.28708423113E-02 -0.14251669654E-01  0.10229846165E+01  0.10227701680E+01 0.  0.
     999903    2    3    3    0    0 -0.55261251503E-01  0.43121986021E-01  0.11010762435E+00  0.13214499113E+00  0.20622757923E-01 0.  0.
         14    1    1    2    0    0  0.15078370785E-01  0.28708423113E-02  0.14251669654E-01  0.20945383478E-01  0.00000000000E+00 0.  1.
     999901    1    3    3    0    0  0.40182880718E-01 -0.45992828333E-01 -0.12435929401E+00  0.89083962539E+00  0.88000000000E+00 0.  1.
        -11    1    4    4    0    0 -0.46503983180E-02  0.13466650426E-01  0.18322383014E-01  0.23215247544E-01  0.51100000000E-03 0.  1.
         11    1    4    4    0    0 -0.50610853185E-01  0.29655335596E-01  0.91785241339E-01  0.10892974359E+00  0.51100000000E-03 0. -1.
</event>
<event>
 8    1  0.1120016E+005  0.1043930E+01  0.7957747E-01            NaN
         13   -1    0    0    0    0  0.00000000000E+00  0.00000000000E+00  0.74505805969E-08  0.10566000000E+00  0.10566000000E+00 0.  1.
     999900   -1    0    0    0    0 -0.00000000000E+00 -0.00000000000E+00 -0.74505805969E-08  0.93827000000E+00  0.93827000000E+00 0. -1.
     999902    2    1    2    0    0 -0.28053134271E-01 -0.19374784113E-01 -0.45485564902E-02  0.10095345066E+01  0.10089483981E+01 0.  0.
     999903    2    3    3    0    0  0.90729347112E-01  0.11091963937E-01  0.71571495119E-01  0.11777682487E+00  0.19850830503E-01 0.  0.
         14    1    1    2    0    0  0.28053134271E-01  0.19374784113E-01  0.45485564902E-02  0.34395493426E-01  0.00000000000E+00 0.  1.
     999901    1    3    3    0    0 -0.11878248138E+00 -0.30466748050E-01 -0.76120051609E-01  0.89175768170E+00  0.88000000000E+00 0. -1.
        -11    1    4    4    0    0  0.35759846793E-01  0.13201831246E-01  0.34707903280E-01  0.51555355318E-01  0.51100000000E-03 0. -1.
         11    1    4    4    0    0  0.54969500320E-01 -0.21098673085E-02  0.36863591839E-01  0.66221469553E-01  0.51100000000E-03 0.  1.
</event>
<event>
 8    1  0.1120016E+005  0.1043930E+01  0.7957747E-01            NaN
         13   -1    0    0    0    0  0.00000000000E+00  0.00000000000E+00  0.74505805969E-08  0.10566000000E+00  0.10566000000E+00 0.  1.
     999900   -1    0    0    0    0 -0.00000000000E+00 -0.00000000000E+00 -0.74505805969E-08  0.93827000000E+00  0.93827000000E+00 0.  1.
     999902    2    1    2    0    0 -0.13137625999E-01  0.10333858052E-01 -0.17157624489E-01  0.10199765051E+01  0.10196952001E+01 0.  0.
     999903    2    3    3    0    0  0.69215720554E-01 -0.66161524011E-01  0.81244868208E-01  0.12738663976E+00  0.21411775913E-01 0.  0.
         14    1    1    2    0    0  0.13137625999E-01 -0.10333858052E-01  0.17157624489E-01  0.23953494886E-01  0.00000000000E+00 0.  1.
     999901    1    3    3    0    0 -0.82353346553E-01  0.76495382063E-01 -0.98402492697E-01  0.89258986536E+00  0.88000000000E+00 0.  1.
        -11    1    4    4    0    0  0.37209880011E-01 -0.22473546459E-01  0.42492429028E-01  0.60790649829E-01  0.51100000000E-03 0.  1.
         11    1    4    4    0    0  0.32005840542E-01 -0.43687977552E-01  0.38752439180E-01  0.66595989930E-01  0.51100000000E-03 0. -1.
</event>
<event>
 8    1  0.1120016E+005  0.1043930E+01  0.7957747E-01            NaN
         13   -1    0    0    0    0  0.00000000000E+00  0.00000000000E+00  0.74505805969E-08  0.10566000000E+00  0.10566000000E+00 0.  1.
     999900   -1    0    0    0    0 -0.00000000000E+00 -0.00000000000E+00 -0.74505805969E-08  0.93827000000E+00  0.93827000000E+00 0.  1.
     999902    2    1    2    0    0  0.13997081912E-01 -0.11400091652E-01  0.15055794435E-01  0.10204234618E+01  0.10201526768E+01 0.  0.
     999903    2    3    3    0    0  0.13069755229E+00 -0.43334135669E-02 -0.60982659358E-02  0.13243898447E+00  0.20056597731E-01 0.  0.
         14    1    1    2    0    0 -0.13997081912E-01  0.11400091652E-01 -0.15055794435E-01  0.23506538192E-01  0.00000000000E+00 0. -1.
     999901    1    3    3    0    0 -0.11670047038E+00 -0.70666780853E-02  0.21154060371E-01  0.88798447734E+00  0.88000000000E+00 0.  1.
        -11    1    4    4    0    0  0.74481983990E-01  0.34885788464E-02  0.44897188516E-02  0.74700433853E-01  0.51100000000E-03 0.  1.
         11    1    4    4    0    0  0.56215568297E-01 -0.78219924133E-02 -0.10587984787E-01  0.57738550615E-01  0.51100000000E-03 0. -1.
</event>
<event>
 8    1  0.1120016E+005  0.1043930E+01  0.7957747E-01            NaN
         13   -1    0    0    0    0  0.00000000000E+00  0.00000000000E+00  0.74505805969E-08  0.10566000000E+00  0.10566000000E+00 0.  1.
     999900   -1    0    0    0    0 -0.00000000000E+00 -0.00000000000E+00 -0.74505805969E-08  0.93827000000E+00  0.93827000000E+00 0. -1.
     999902    2    1    2    0    0  0.36447107683E-02 -0.21826538190E-01  0.85774737502E-02  0.10201970115E+01  0.10199209222E+01 0.  0.
     999903    2    3    3    0    0 -0.10850493644E+00 -0.70573309588E-01  0.17163106255E-01  0.13169968222E+00  0.17213971752E-01 0.  0.
         14    1    1    2    0    0 -0.36447107683E-02  0.21826538190E-01 -0.85774737502E-02  0.23732988473E-01  0.00000000000E+00 0. -1.
     999901    1    3    3    0    0  0.11214964721E+00  0.48746771398E-01 -0.85856325049E-02  0.88849732930E+00  0.88000000000E+00 0.  1.
        -11    1    4    4    0    0 -0.28228019578E-01 -0.21871349088E-01  0.11946898018E-01  0.37658551399E-01  0.51100000000E-03 0. -1.
         11    1    4    4    0    0 -0.80276916863E-01 -0.48701960500E-01  0.52162082373E-02  0.94041130826E-01  0.51100000000E-03 0.  1.
</event>
<event>
 7    1  0.1120016E+005  0.1043930E+01  0.7957747E-01            NaN
         13   -1    0    0    0    0  0.00000000000E+00  0.00000000000E+00  0.74505805969E-08  0.10566000000E+00  0.10566000000E+00 0.  1.
     999900   -1    0    0    0    0 -0.00000000000E+00 -0.00000000000E+00 -0.74505805969E-08  0.93827000000E+00  0.93827000000E+00 0. -1.
     999903    2    1    2    0    0 -0.10858450798E-01  0.14404775341E-01 -0.98192707457E-01  0.10180298220E+00  0.19915719417E-01 0.  0.
         14    1    1    2    0    0  0.23538078702E-03 -0.90493423121E-02 -0.48994256063E-01  0.49823519823E-01  0.00000000000E+00 0. -1.
     999901    1    1    2    0    0  0.10623070011E-01 -0.53554330285E-02  0.14718696352E+00  0.89230349798E+00  0.88000000000E+00 0.  1.
        -11    1    3    3    0    0 -0.11126469910E-01  0.73876844200E-03 -0.64170381309E-01  0.65134039256E-01  0.51100000000E-03 0. -1.
         11    1    3    3    0    0  0.26801911188E-03  0.13666006899E-01 -0.34022326148E-01  0.36668942940E-01  0.51100000000E-03 0.  1.
</event>
<event>
 8    1  0.1120016E+005  0.1043930E+01  0.7957747E-01            NaN
         13   -1    0    0    0    0  0.00000000000E+00  0.00000000000E+00  0.74505805969E-08  0.10566000000E+00  0.10566000000E+00 0.  1.
     999900   -1    0    0    0    0 -0.00000000000E+00 -0.00000000000E+00 -0.74505805969E-08  0.93827000000E+00  0.93827000000E+00 0.  1.
     999902    2    1    2    0    0 -0.21734867652E-01  0.81325957294E-02  0.34163923730E-02  0.10204733310E+01  0.10202037071E+01 0.  0.
     999903    2    3    3    0    0 -0.50165821818E-01  0.10051400332E+00  0.67865150356E-01  0.13283810971E+00  0.20508783857E-01 0.  0.
         14    1    1    2    0    0  0.21734867652E-01 -0.81325957294E-02 -0.34163923730E-02  0.23456669030E-01  0.00000000000E+00 0. -1.
     999901    1    3    3    0    0  0.28430954166E-01 -0.92381407590E-01 -0.64448757984E-01  0.88763522126E+00  0.88000000000E+00 0.  1.
        -11    1    4    4    0    0 -0.29116549499E-01  0.38313737685E-01  0.34240770468E-01  0.59062741499E-01  0.51100000000E-03 0.  1.
         11    1    4    4    0    0 -0.21049272319E-01  0.62200265635E-01  0.33624379889E-01  0.73775368207E-01  0.51100000000E-03 0. -1.
</event>
<event>
 8    1  0.1120016E+005  0.1043930E+01  0.7957747E-01            NaN
         13   -1    0    0    0    0  0.00000000000E+00  0.00000000000E+00  0.74505805969E-08  0.10566000000E+00  0.10566000000E+00 0. -1.
     999900   -1    0    0    0    0 -0.00000000000E+00 -0.00000000000E+00 -0.74505805969E-08  0.93827000000E+00  0.93827000000E+00 0.  1.
     999902    2    1    2    0    0  0.16447652955E-01  0.10856806663E-01  0.15410180189E-01  0.10189126222E+01  0.10186054499E+01 0.  0.
     999903    2    3    3    0    0 -0.10202591866E+00 -0.21237055996E-01 -0.68604254408E-01  0.12643044960E+00  0.20440504791E-01 0.  0.
         14    1    1    2    0    0 -0.16447652955E-01 -0.10856806663E-01 -0.15410180189E-01  0.25017377803E-01  0.00000000000E+00 0.  1.
     999901    1    3    3    0    0  0.11847357162E+00  0.32093862659E-01  0.84014434598E-01  0.89248217260E+00  0.88000000000E+00 0. -1.
        -11    1    4    4    0    0 -0.37831418658E-01 -0.29717826274E-02 -0.14933865506E-01  0.40783932984E-01  0.51100000000E-03 0.  1.
         11    1    4    4    0    0 -0.64194500002E-01 -0.18265273369E-01 -0.53670388903E-01  0.85646516612E-01  0.51100000000E-03 0. -1.
</event>
<event>
 8    1  0.1120016E+005  0.1043930E+01  0.7957747E-01            NaN
         13   -1    0    0    0    0  0.00000000000E+00  0.00000000000E+00  0.74505805969E-08  0.10566000000E+00  0.10566000000E+00 0.  1.
     999900   -1    0    0    0    0 -0.00000000000E+00 -0.00000000000E+00 -0.74505805969E-08  0.93827000000E+00  0.93827000000E+00 0. -1.
     999902    2    1    2    0    0  0.13109592208E-01 -0.12336403183E-02  0.20111784286E-01  0.10198911327E+01  0.10196077948E+01 0.  0.
     999903    2    3    3    0    0 -0.73341680741E-01 -0.68411108336E-01 -0.77436861232E-01  0.12775752548E+00  0.16322866205E-01 0.  0.
         14    1    1    2    0    0 -0.13109592208E-01  0.12336403183E-02 -0.20111784286E-01  0.24038867350E-01  0.00000000000E+00 0. -1.
     999901    1    3    3    0    0  0.86451272949E-01  0.67177468018E-01  0.97548645518E-01  0.89213360717E+00  0.88000000000E+00 0.  1.
        -11    1    4    4    0    0 -0.67160655843E-01 -0.56259069309E-01 -0.63124474493E-01  0.10798424410E+00  0.51100000000E-03 0. -1.
         11    1    4    4    0    0 -0.61810248980E-02 -0.12152039027E-01 -0.14312386739E-01  0.19773281378E-01  0.51100000000E-03 0.  1.
</event>
<event>
 8    1  0.1120016E+005  0.1043930E+01  0.7957747E-01            NaN
         13   -1    0    0    0    0  0.00000000000E+00  0.00000000000E+00  0.74505805969E-08  0.10566000000E+00  0.10566000000E+00 0. -1.
     999900   -1    0    0    0    0 -0.00000000000E+00 -0.00000000000E+00 -0.74505805969E-08  0.93827000000E+00  0.93827000000E+00 0. -1.
     999902    2    1    2    0    0 -0.30993089714E-02  0.23863243269E-01  0.22559300018E-02  0.10197608189E+01  0.10194743638E+01 0.  0.
     999903    2    3    3    0    0  0.65688319274E-01 -0.10608600400E+00  0.15470582082E-01  0.12746424729E+00  0.20942776634E-01 0.  0.
         14    1    1    2    0    0  0.30993089714E-02 -0.23863243269E-01 -0.22559300018E-02  0.24169181111E-01  0.00000000000E+00 0. -1.
     999901    1    3    3    0    0 -0.68787628245E-01  0.12994924727E+00 -0.13214652080E-01  0.89229657160E+00  0.88000000000E+00 0. -1.
        -11    1    4    4    0    0  0.48205023635E-01 -0.73279651763E-01  0.14386794371E-02  0.87726635554E-01  0.51100000000E-03 0.  1.
         11    1    4    4    0    0  0.17483295639E-01 -0.32806352234E-01  0.14031902645E-01  0.39737611731E-01  0.51100000000E-03 0. -1.
</event>
<event>
 8    1  0.1120016E+005  0.1043930E+01  0.7957747E-01            NaN
         13   -1    0    0    0    0  0.00000000000E+00  0.00000000000E+00  0.74505805969E-08  0.10566000000E+00  0.10566000000E+00 0. -1.
     999900   -1    0    0    0    0 -0.00000000000E+00 -0.00000000000E+00 -0.74505805969E-08  0.93827000000E+00  0.93827000000E+00 0.  1.
     999902    2    1    2    0    0 -0.46582975159E-02 -0.29564349967E-02  0.26039754129E-01  0.10173121669E+01  0.10169638813E+01 0.  0.
     999903    2    3    3    0    0  0.43782010816E-01 -0.78104054170E-01 -0.85902584829E-01  0.12572666041E+00  0.20268974039E-01 0.  0.
         14    1    1    2    0    0  0.46582975159E-02  0.29564349967E-02 -0.26039754129E-01  0.26617833097E-01  0.00000000000E+00 0.  1.
     999901    1    3    3    0    0 -0.48440308332E-01  0.75147619173E-01  0.11194233896E+00  0.89158550649E+00  0.88000000000E+00 0. -1.
        -11    1    4    4    0    0  0.35030266993E-01 -0.55921132848E-01 -0.73729968653E-01  0.98947774624E-01  0.51100000000E-03 0. -1.
         11    1    4    4    0    0  0.87517438228E-02 -0.22182921322E-01 -0.12172616176E-01  0.26778885785E-01  0.51100000000E-03 0.  1.
</event>
<event>
 8    1  0.1120016E+005  0.1043930E+01  0.7957747E-01            NaN
         13   -1    0    0    0    0  0.00000000000E+00  0.00000000000E+00  0.74505805969E-08  0.10566000000E+00  0.10566000000E+00 0. -1.
     999900   -1    0    0    0    0 -0.00000000000E+00 -0.00000000000E+00 -0.74505805969E-08  0.93827000000E+00  0.93827000000E+00 0.  1.
     999902    2    1    2    0    0 -0.91808227466E-02  0.13307985316E-01  0.17929509068E-01  0.10197875628E+01  0.10195017489E+01 0.  0.
     999903    2    3    3    0    0 -0.23990846814E-01 -0.26001731275E-01  0.12561736570E+00  0.13222840132E+00  0.21283251361E-01 0.  0.
         14    1    1    2    0    0  0.91808227466E-02 -0.13307985316E-01 -0.17929509068E-01  0.24142437220E-01  0.00000000000E+00 0.  1.
     999901    1    3    3    0    0  0.14810024067E-01  0.39309716592E-01 -0.10768785663E+00  0.88755916146E+00  0.88000000000E+00 0.  1.
        -11    1    4    4    0    0 -0.59924348225E-02 -0.18632471000E-01  0.84526860399E-01  0.86764794131E-01  0.51100000000E-03 0. -1.
         11    1    4    4    0    0 -0.17998411991E-01 -0.73692602751E-02  0.41090505303E-01  0.45463607185E-01  0.51100000000E-03 0.  1.
</event>
<event>
 8    1  0.1120016E+005  0.1043930E+01  0.7957747E-01            NaN
         13   -1    0    0    0    0  0.00000000000E+00  0.00000000000E+00  0.74505805969E-08  0.10566000000E+00  0.10566000000E+00 0. -1.
     999900   -1    0    0    0    0 -0.00000000000E+00 -0.00000000000E+00 -0.74505805969E-08  0.93827000000E+00  0.93827000000E+00 0. -1.
     999902    2    1    2    0    0 -0.15826863761E-01 -0.16365685489E-01 -0.53464969413E-02  0.10205438864E+01  0.10202759008E+01 0.  0.
     999903    2    3    3    0    0  0.77227648267E-01  0.64413964946E-01  0.76962407012E-01  0.12815425752E+00  0.19673156579E-01 0.  0.
         14    1    1    2    0    0  0.15826863761E-01  0.16365685489E-01  0.53464969413E-02  0.23386113563E-01  0.00000000000E+00 0. -1.
     999901    1    3    3    0    0 -0.93054512028E-01 -0.80779650436E-01 -0.82308903953E-01  0.89238962892E+00  0.88000000000E+00 0.  1.
        -11    1    4    4    0    0  0.53902036645E-01  0.42655494402E-01  0.63313004668E-01  0.93454365539E-01  0.51100000000E-03 0.  1.
         11    1    4    4    0    0  0.23325611622E-01  0.21758470545E-01  0.13649402344E-01  0.34699891979E-01  0.51100000000E-03 0. -1.
</event>
<event>
 8    1  0.1120016E+005  0.1043930E+01  0.7957747E-01            NaN
         13   -1    0    0    0    0  0.00000000000E+00  0.00000000000E+00  0.74505805969E-08  0.10566000000E+00  0.10566000000E+00 0. -1.
     999900   -1    0    0    0    0 -0.00000000000E+00 -0.00000000000E+00 -0.74505805969E-08  0.93827000000E+00  0.93827000000E+00 0. -1.
     999902    2    1    2    0    0  0.77254794309E-02  0.19453702942E-01 -0.86143334130E-02  0.10212951523E+01  0.10210442947E+01 0.  0.
     999903    2    3    3    0    0 -0.11250860905E+00  0.65180488359E-01 -0.77242839757E-02  0.13194259727E+00  0.21035713375E-01 0.  0.
         14    1    1    2    0    0 -0.77254794309E-02 -0.19453702942E-01  0.86143334130E-02  0.22634847707E-01  0.00000000000E+00 0.  1.
     999901    1    3    3    0    0  0.12023408849E+00 -0.45726785417E-01 -0.89004943738E-03  0.88935255502E+00  0.88000000000E+00 0.  1.
        -11    1    4    4    0    0 -0.77344714355E-01  0.35988470579E-01 -0.11506236578E-01  0.86081527951E-01  0.51100000000E-03 0.  1.
         11    1    4    4    0    0 -0.35163894700E-01  0.29192017780E-01  0.37819526025E-02  0.45861069319E-01  0.51100000000E-03 0. -1.
</event>
<event>
 8    1  0.1120016E+005  0.1043930E+01  0.7957747E-01            NaN
         13   -1    0    0    0    0  0.00000000000E+00  0.00000000000E+00  0.74505805969E-08  0.10566000000E+00  0.10566000000E+00 0.  1.
     999900   -1    0    0    0    0 -0.00000000000E+00 -0.00000000000E+00 -0.74505805969E-08  0.93827000000E+00  0.93827000000E+00 0. -1.
     999902    2    1    2    0    0 -0.68491910355E-02 -0.21178855492E-01  0.79027239856E-02  0.10203099157E+01  0.10200364776E+01 0.  0.
     999903    2    3    3    0    0 -0.61880027324E-03 -0.12670024960E+00 -0.35301470555E-01  0.13293165088E+00  0.19268985959E-01 0.  0.
         14    1    1    2    0    0  0.68491910355E-02  0.21178855492E-01 -0.79027239856E-02  0.23620084339E-01  0.00000000000E+00 0. -1.
     999901    1    3    3    0    0 -0.62303907622E-02  0.10552139411E+00  0.43204194540E-01  0.88737826478E+00  0.88000000000E+00 0.  1.
        -11    1    4    4    0    0  0.27561277997E-02 -0.57212178032E-01 -0.25395974259E-01  0.62658169342E-01  0.51100000000E-03 0. -1.
         11    1    4    4    0    0 -0.33749280729E-02 -0.69488071565E-01 -0.99054962954E-02  0.70273481536E-01  0.51100000000E-03 0.  1.
</event>
<event>
 8    1  0.1120016E+005  0.1043930E+01  0.7957747E-01            NaN
         13   -1    0    0    0    0  0.00000000000E+00  0.00000000000E+00  0.74505805969E-08  0.10566000000E+00  0.10566000000E+00 0. -1.
     999900   -1    0    0    0    0 -0.00000000000E+00 -0.00000000000E+00 -0.74505805969E-08  0.93827000000E+00  0.93827000000E+00 0. -1.
     999902    2    1    2    0    0 -0.28270723387E-01  0.24908657240E-02  0.56122282741E-02  0.10150001656E+01  0.10145877985E+01 0.  0.
     999903    2    3    3    0    0  0.80210004182E-03  0.95870025356E-01  0.79983074506E-01  0.12646433666E+00  0.20105499593E-01 0.  0.
         14    1    1    2    0    0  0.28270723387E-01 -0.24908657240E-02 -0.56122282741E-02  0.28929834412E-01  0.00000000000E+00 0.  1.
     999901    1    3    3    0    0 -0.29072823429E-01 -0.93379159632E-01 -0.74370846232E-01  0.88853582893E+00  0.88000000000E+00 0. -1.
        -11    1    4    4    0    0  0.33450066671E-02  0.82317931515E-01  0.76037307533E-01  0.11211317575E+00  0.51100000000E-03 0. -1.
         11    1    4    4    0    0 -0.25429066253E-02  0.13552093841E-01  0.39457669725E-02  0.14351160914E-01  0.51100000000E-03 0.  1.
</event>
<event>
 8    1  0.1120016E+005  0.1043930E+01  0.7957747E-01            NaN
         13   -1    0    0    0    0  0.00000000000E+00  0.00000000000E+00  0.74505805969E-08  0.10566000000E+00  0.10566000000E+00 0.  1.
     999900   -1    0    0    0    0 -0.00000000000E+00 -0.00000000000E+00 -0.74505805969E-08  0.93827000000E+00  0.93827000000E+00 0. -1.
     999902    2    1    2    0    0  0.18173562353E-01 -0.59617661917E-02  0.11143118494E-01  0.10217942797E+01  0.10215544821E+01 0.  0.
     999903    2    3    3    0    0 -0.79144530553E-01  0.89816562128E-01  0.48028244477E-01  0.13050038207E+00  0.19818322422E-01 0.  0.
         14    1    1    2    0    0 -0.18173562353E-01  0.59617661917E-02 -0.11143118494E-01  0.22135720330E-01  0.00000000000E+00 0. -1.
     999901    1    3    3    0    0  0.97318092906E-01 -0.95778328320E-01 -0.36885125983E-01  0.89129389760E+00  0.88000000000E+00 0. -1.
        -11    1    4    4    0    0 -0.32986398484E-01  0.48725686052E-01  0.30414242066E-01  0.66238827040E-01  0.51100000000E-03 0. -1.
         11    1    4    4    0    0 -0.46158132069E-01  0.41090876076E-01  0.17614002411E-01  0.64261555029E-01  0.51100000000E-03 0.  1.
</event>
<event>
 8    1  0.1120016E+005  0.1043930E+01  0.7957747E-01            NaN
         13   -1    0    0    0    0  0.00000000000E+00  0.00000000000E+00  0.74505805969E-08  0.10566000000E+00  0.10566000000E+00 0.  1.
     999900   -1    0    0    0    0 -0.00000000000E+00 -0.00000000000E+00 -0.74505805969E-08  0.93827000000E+00  0.93827000000E+00 0.  1.
     999902    2    1    2    0    0  0.10907251744E-01  0.11723042132E-01  0.13631067178E-01  0.10229013564E+01  0.10226851818E+01 0.  0.
     999903    2    3    3    0    0  0.70848918627E-01 -0.79071920632E-02 -0.10943682324E+00  0.13210168470E+00  0.19807671847E-01 0.  0.
         14    1    1    2    0    0 -0.10907251744E-01 -0.11723042132E-01 -0.13631067178E-01  0.21028643557E-01  0.00000000000E+00 0. -1.
     999901    1    3    3    0    0 -0.59941666882E-01  0.19630234195E-01  0.12306789041E+00  0.89079967174E+00  0.88000000000E+00 0. -1.
        -11    1    4    4    0    0  0.61097584315E-01 -0.44970181943E-02 -0.79105750766E-01  0.10005557909E+00  0.51100000000E-03 0. -1.
         11    1    4    4    0    0  0.97513343122E-02 -0.34101738689E-02 -0.30331072470E-01  0.32046105612E-01  0.51100000000E-03 0.  1.
</event>
<event>
 8    1  0.1120016E+005  0.1043930E+01  0.7957747E-01            NaN
         13   -1    0    0    0    0  0.00000000000E+00  0.00000000000E+00  0.74505805969E-08  0.10566000000E+00  0.10566000000E+00 0.  1.
     999900   -1    0    0    0    0 -0.00000000000E+00 -0.00000000000E+00 -0.74505805969E-08  0.93827000000E+00  0.93827000000E+00 0. -1.
     999902    2    1    2    0    0 -0.18504567968E-01 -0.90972060466E-02  0.15012244004E-01  0.10184242033E+01  0.10181047649E+01 0.  0.
     999903    2    3    3    0    0  0.50002235015E-01  0.11419091381E+00  0.12824868690E-01  0.12719026818E+00  0.21750833547E-01 0.  0.
         14    1    1    2    0    0  0.18504567968E-01  0.90972060466E-02 -0.15012244004E-01  0.25505796666E-01  0.00000000000E+00 0.  1.
     999901    1    3    3    0    0 -0.68506802982E-01 -0.12328811986E+00  0.21873753138E-02  0.89123393515E+00  0.88000000000E+00 0. -1.
        -11    1    4    4    0    0  0.20090680194E-01  0.24878000864E-01 -0.96600429336E-03  0.31996009797E-01  0.51100000000E-03 0.  1.
         11    1    4    4    0    0  0.29911554820E-01  0.89312912949E-01  0.13790872983E-01  0.95194258386E-01  0.51100000000E-03 0. -1.
</event>
<event>
 8    1  0.1120016E+005  0.1043930E+01  0.7957747E-01            NaN
         13   -1    0    0    0    0  0.00000000000E+00  0.00000000000E+00  0.74505805969E-08  0.10566000000E+00  0.10566000000E+00 0.  1.
     999900   -1    0    0    0    0 -0.00000000000E+00 -0.00000000000E+00 -0.74505805969E-08  0.93827000000E+00  0.93827000000E+00 0. -1.
     999902    2    1    2    0    0  0.16846022802E-01  0.13985189832E-01  0.80840842538E-02  0.10205906247E+01  0.10203237216E+01 0.  0.
     999903    2    3    3    0    0 -0.64083005830E-01  0.10980953272E+00 -0.25286242436E-01  0.13107087170E+00  0.19375609372E-01 0.  0.
         14    1    1    2    0    0 -0.16846022802E-01 -0.13985189832E-01 -0.80840842538E-02  0.23339375251E-01  0.00000000000E+00 0.  1.
     999901    1    3    3    0    0  0.80929028632E-01 -0.95824342889E-01  0.33370326690E-01  0.88951975305E+00  0.88000000000E+00 0.  1.
        -11    1    4    4    0    0 -0.19369974276E-01  0.26313828343E-01  0.12691994336E-02  0.32702988452E-01  0.51100000000E-03 0. -1.
         11    1    4    4    0    0 -0.44713031554E-01  0.83495704377E-01 -0.26555441870E-01  0.98367883245E-01  0.51100000000E-03 0.  1.
</event>
<event>
 8    1  0.1457339E+005  0.1043930E+01  0.7957747E-01            NaN
         13   -1    0    0    0    0  0.00000000000E+00  0.00000000000E+00  0.74505805969E-08  0.10566000000E+00  0.10566000000E+00 0.  1.
     999900   -1    0    0    0    0 -0.00000000000E+00 -0.00000000000E+00 -0.74505805969E-08  0.93827000000E+00  0.93827000000E+00 0. -1.
     999902    2    1    2    0    0 -0.74415610105E-02 -0.11282592969E-01 -0.18770178807E-01  0.10208000768E+01  0.10205379971E+01 0.  0.
     999903    2    3    3    0    0  0.65534063290E-01  0.28925354028E-02  0.10878011413E+00  0.12850222674E+00  0.19406927478E-01 0.  0.
         14    1    1    2    0    0  0.74415610105E-02  0.11282592969E-01  0.18770178807E-01  0.23129923191E-01  0.00000000000E+00 0. -1.
     999901    1    3    3    0    0 -0.72975624301E-01 -0.14175128372E-01 -0.12755029294E+00  0.89229785007E+00  0.88000000000E+00 0. -1.
        -11    1    4    4    0    0  0.19032147295E-01 -0.79840366184E-02  0.32245570725E-01  0.38288450266E-01  0.51100000000E-03 0.  1.
         11    1    4    4    0    0  0.46501915995E-01  0.10876572021E-01  0.76534543409E-01  0.90213776475E-01  0.51100000000E-03 0. -1.
</event>
<event>
 8    1  0.1120016E+005  0.1043930E+01  0.7957747E-01            NaN
         13   -1    0    0    0    0  0.00000000000E+00  0.00000000000E+00  0.74505805969E-08  0.10566000000E+00  0.10566000000E+00 0.  1.
     999900   -1    0    0    0    0 -0.00000000000E+00 -0.00000000000E+00 -0.74505805969E-08  0.93827000000E+00  0.93827000000E+00 0.  1.
     999902    2    1    2    0    0  0.76872513161E-02 -0.14687996854E-01 -0.15655240888E-01  0.10211282972E+01  0.10208736854E+01 0.  0.
     999903    2    3    3    0    0  0.30477778258E-01  0.11888356028E+00 -0.39597001850E-01  0.13043532150E+00  0.19576891150E-01 0.  0.
         14    1    1    2    0    0 -0.76872513161E-02  0.14687996854E-01  0.15655240888E-01  0.22801702823E-01  0.00000000000E+00 0.  1.
     999901    1    3    3    0    0 -0.22790526942E-01 -0.13357155714E+00  0.23941760963E-01  0.89069297567E+00  0.88000000000E+00 0.  1.
        -11    1    4    4    0    0  0.97096301535E-03  0.19190058183E-01 -0.12715699430E-01  0.23046718535E-01  0.51100000000E-03 0.  1.
         11    1    4    4    0    0  0.29506815243E-01  0.99693502100E-01 -0.26881302421E-01  0.10738860297E+00  0.51100000000E-03 0. -1.
</event>
<event>
 8    1  0.1120016E+005  0.1043930E+01  0.7957747E-01            NaN
         13   -1    0    0    0    0  0.00000000000E+00  0.00000000000E+00  0.74505805969E-08  0.10566000000E+00  0.10566000000E+00 0. -1.
     999900   -1    0    0    0    0 -0.00000000000E+00 -0.00000000000E+00 -0.74505805969E-08  0.93827000000E+00  0.93827000000E+00 0.  1.
     999902    2    1    2    0    0 -0.88327821474E-02  0.19320146098E-01  0.14624467630E-01  0.10181392819E+01  0.10178125742E+01 0.  0.
     999903    2    3    3    0    0  0.64572377159E-01  0.79133505337E-01  0.78857365334E-01  0.13073192309E+00  0.20991619480E-01 0.  0.
         14    1    1    2    0    0  0.88327821474E-02 -0.19320146098E-01 -0.14624467630E-01  0.25790718081E-01  0.00000000000E+00 0.  1.
     999901    1    3    3    0    0 -0.73405159307E-01 -0.59813359239E-01 -0.64232897704E-01  0.88740735883E+00  0.88000000000E+00 0.  1.
        -11    1    4    4    0    0  0.51592475972E-01  0.51037574511E-01  0.47908664367E-01  0.86960444061E-01  0.51100000000E-03 0.  1.
         11    1    4    4    0    0  0.12979901188E-01  0.28095930826E-01  0.30948700967E-01  0.43771479029E-01  0.51100000000E-03 0. -1.
</event>
<event>
 8    1  0.1120016E+005  0.1043930E+01  0.7957747E-01            NaN
         13   -1    0    0    0    0  0.00000000000E+00  0.00000000000E+00  0.74505805969E-08  0.10566000000E+00  0.10566000000E+00 0.  1.
     999900   -1    0    0    0    0 -0.00000000000E+00 -0.00000000000E+00 -0.74505805969E-08  0.93827000000E+00  0.93827000000E+00 0. -1.
     999902    2    1    2    0    0  0.13839192491E-02 -0.22323970289E-01  0.78041227605E-02  0.10202407785E+01  0.10199657185E+01 0.  0.
     999903    2    3    3    0    0  0.24854607224E-01 -0.79970565091E-01 -0.99472629887E-01  0.13154380838E+00  0.19897905565E-01 0.  0.
         14    1    1    2    0    0 -0.13839192491E-02  0.22323970289E-01 -0.78041227605E-02  0.23689221473E-01  0.00000000000E+00 0.  1.
     999901    1    3    3    0    0 -0.23470687975E-01  0.57646594802E-01  0.10727675265E+00  0.88869697014E+00  0.88000000000E+00 0. -1.
        -11    1    4    4    0    0  0.19311739175E-01 -0.57427096184E-01 -0.84264731611E-01  0.10378641896E+00  0.51100000000E-03 0. -1.
         11    1    4    4    0    0  0.55428680486E-02 -0.22543468907E-01 -0.15207898276E-01  0.27757389422E-01  0.51100000000E-03 0.  1.
</event>
<event>
 8    1  0.1120016E+005  0.1043930E+01  0.7957747E-01            NaN
         13   -1    0    0    0    0  0.00000000000E+00  0.00000000000E+00  0.74505805969E-08  0.10566000000E+00  0.10566000000E+00 0. -1.
     999900   -1    0    0    0    0 -0.00000000000E+00 -0.00000000000E+00 -0.74505805969E-08  0.93827000000E+00  0.93827000000E+00 0.  1.
     999902    2    1    2    0    0 -0.13035255902E-01 -0.19817105338E-01  0.26773778909E-02  0.10200594342E+01  0.10197800966E+01 0.  0.
     999903    2    3    3    0    0  0.69436819397E-01  0.94084528349E-01  0.46813952028E-01  0.12780203716E+00  0.21643572574E-01 0.  0.
         14    1    1    2    0    0  0.13035255902E-01  0.19817105338E-01 -0.26773778909E-02  0.23870565825E-01  0.00000000000E+00 0. -1.
     999901    1    3    3    0    0 -0.82472075300E-01 -0.11390163369E+00 -0.44136574137E-01  0.89225739702E+00  0.88000000000E+00 0.  1.
        -11    1    4    4    0    0  0.34512936959E-01  0.49388851677E-01  0.35581129553E-01  0.69976277328E-01  0.51100000000E-03 0. -1.
         11    1    4    4    0    0  0.34923882438E-01  0.44695676672E-01  0.11232822476E-01  0.57825759827E-01  0.51100000000E-03 0.  1.
</event>
<event>
 8    1  0.1120016E+005  0.1043930E+01  0.7957747E-01            NaN
         13   -1    0    0    0    0  0.00000000000E+00  0.00000000000E+00  0.74505805969E-08  0.10566000000E+00  0.10566000000E+00 0.  1.
     999900   -1    0    0    0    0 -0.00000000000E+00 -0.00000000000E+00 -0.74505805969E-08  0.93827000000E+00  0.93827000000E+00 0. -1.
     999902    2    1    2    0    0  0.59736597266E-02 -0.20143071902E-01  0.72913786448E-02  0.10216905720E+01  0.10214484973E+01 0.  0.
     999903    2    3    3    0    0 -0.10145398439E+00 -0.12555150884E-01  0.80933985864E-01  0.13207182843E+00  0.21026531693E-01 0.  0.
         14    1    1    2    0    0 -0.59736597266E-02  0.20143071902E-01 -0.72913786448E-02  0.22239428021E-01  0.00000000000E+00 0. -1.
     999901    1    3    3    0    0  0.10742764412E+00 -0.75879210176E-02 -0.73642607220E-01  0.88961874354E+00  0.88000000000E+00 0. -1.
        -11    1    4    4    0    0 -0.50831342226E-01  0.37101138646E-02  0.35283058349E-01  0.61989883246E-01  0.51100000000E-03 0. -1.
         11    1    4    4    0    0 -0.50622642168E-01 -0.16265264749E-01  0.45650927516E-01  0.70081945189E-01  0.51100000000E-03 0.  1.
</event>
<event>
 8    1  0.1120016E+005  0.1043930E+01  0.7957747E-01            NaN
         13   -1    0    0    0    0  0.00000000000E+00  0.00000000000E+00  0.74505805969E-08  0.10566000000E+00  0.10566000000E+00 0.  1.
     999900   -1    0    0    0    0 -0.00000000000E+00 -0.00000000000E+00 -0.74505805969E-08  0.93827000000E+00  0.93827000000E+00 0. -1.
     999902    2    1    2    0    0  0.17084235000E-01 -0.19378367549E-01 -0.36999941339E-03  0.10180934152E+01  0.10177655295E+01 0.  0.
     999903    2    3    3    0    0  0.52382437836E-01  0.73908863134E-01 -0.88195415294E-01  0.12811489063E+00  0.20701547720E-01 0.  0.
         14    1    1    2    0    0 -0.17084235000E-01  0.19378367549E-01  0.36999941339E-03  0.25836584797E-01  0.00000000000E+00 0.  1.
     999901    1    3    3    0    0 -0.35298202836E-01 -0.93287230683E-01  0.87825415881E-01  0.88997852458E+00  0.88000000000E+00 0. -1.
        -11    1    4    4    0    0  0.25349711301E-01  0.34855955966E-01 -0.27844754959E-01  0.51314101659E-01  0.51100000000E-03 0.  1.
         11    1    4    4    0    0  0.27032726535E-01  0.39052907168E-01 -0.60350660335E-01  0.76800788968E-01  0.51100000000E-03 0. -1.
</event>
<event>
 8    1  0.1120016E+005  0.1043930E+01  0.7957747E-01            NaN
         13   -1    0    0    0    0  0.00000000000E+00  0.00000000000E+00  0.74505805969E-08  0.10566000000E+00  0.10566000000E+00 0. -1.
     999900   -1    0    0    0    0 -0.00000000000E+00 -0.00000000000E+00 -0.74505805969E-08  0.93827000000E+00  0.93827000000E+00 0. -1.
     999902    2    1    2    0    0  0.14432577157E-01  0.14599714556E-01  0.11757674167E-01  0.10202721503E+01  0.10199978269E+01 0.  0.
     999903    2    3    3    0    0 -0.58603066314E-01  0.84479172983E-01 -0.77072716905E-01  0.13004286398E+00  0.19997318097E-01 0.  0.
         14    1    1    2    0    0 -0.14432577157E-01 -0.14599714556E-01 -0.11757674167E-01  0.23657849656E-01  0.00000000000E+00 0. -1.
     999901    1    3    3    0    0  0.73035643471E-01 -0.69879458427E-01  0.88830391071E-01  0.89022928637E+00  0.88000000000E+00 0.  1.
        -11    1    4    4    0    0 -0.45349376738E-01  0.55240896425E-01 -0.43904101346E-01  0.83880592775E-01  0.51100000000E-03 0.  1.
         11    1    4    4    0    0 -0.13253689576E-01  0.29238276558E-01 -0.33168615558E-01  0.46162271202E-01  0.51100000000E-03 0. -1.
</event>
<event>
 8    1  0.1120016E+005  0.1043930E+01  0.7957747E-01            NaN
         13   -1    0    0    0    0  0.00000000000E+00  0.00000000000E+00  0.74505805969E-08  0.10566000000E+00  0.10566000000E+00 0.  1.
     999900   -1    0    0    0    0 -0.00000000000E+00 -0.00000000000E+00 -0.74505805969E-08  0.93827000000E+00  0.93827000000E+00 0.  1.
     999902    2    1    2    0    0  0.50498373766E-02  0.41545604599E-03 -0.23692735357E-01  0.10197015215E+01  0.10194136421E+01 0.  0.
     999903    2    3    3    0    0 -0.48366976504E-01 -0.98250333354E-01  0.63909567560E-01  0.12826310105E+00  0.19351946771E-01 0.  0.
         14    1    1    2    0    0 -0.50498373766E-02 -0.41545604599E-03  0.23692735357E-01  0.24228478490E-01  0.00000000000E+00 0.  1.
     999901    1    3    3    0    0  0.53416813881E-01  0.98665789400E-01 -0.87602302917E-01  0.89143842046E+00  0.88000000000E+00 0.  1.
        -11    1    4    4    0    0 -0.12891136469E-01 -0.16332648373E-01  0.53193255952E-02  0.21482391583E-01  0.51100000000E-03 0.  1.
         11    1    4    4    0    0 -0.35475840035E-01 -0.81917684981E-01  0.58590241965E-01  0.10678070946E+00  0.51100000000E-03 0. -1.
</event>
<event>
 8    1  0.1120016E+005  0.1043930E+01  0.7957747E-01            NaN
         13   -1    0    0    0    0  0.00000000000E+00  0.00000000000E+00  0.74505805969E-08  0.10566000000E+00  0.10566000000E+00 0.  1.
     999900   -1    0    0    0    0 -0.00000000000E+00 -0.00000000000E+00 -0.74505805969E-08  0.93827000000E+00  0.93827000000E+00 0. -1.
     999902    2    1    2    0    0 -0.22142049803E-01  0.18565047763E-01  0.72161868227E-02  0.10141473755E+01  0.10137099657E+01 0.  0.
     999903    2    3    3    0    0 -0.12145611429E+00 -0.17692937817E-01 -0.24450500193E-01  0.12725352394E+00  0.23043538128E-01 0.  0.
         14    1    1    2    0    0  0.22142049803E-01 -0.18565047763E-01 -0.72161868227E-02  0.29782624468E-01  0.00000000000E+00 0. -1.
     999901    1    3    3    0    0  0.99314064485E-01  0.36257985580E-01  0.31666687016E-01  0.88689385159E+00  0.88000000000E+00 0.  1.
        -11    1    4    4    0    0 -0.83339023935E-01 -0.19929481330E-01 -0.93840662702E-02  0.86202662124E-01  0.51100000000E-03 0. -1.
         11    1    4    4    0    0 -0.38117090352E-01  0.22365435122E-02 -0.15066433923E-01  0.41050861818E-01  0.51100000000E-03 0.  1.
</event>
<event>
 8    1  0.1120016E+005  0.1043930E+01  0.7957747E-01            NaN
         13   -1    0    0    0    0  0.00000000000E+00  0.00000000000E+00  0.74505805969E-08  0.10566000000E+00  0.10566000000E+00 0.  1.
     999900   -1    0    0    0    0 -0.00000000000E+00 -0.00000000000E+00 -0.74505805969E-08  0.93827000000E+00  0.93827000000E+00 0. -1.
     999902    2    1    2    0    0 -0.18298395307E-01 -0.12070887081E-01  0.77360687836E-02  0.10206838316E+01  0.10204190804E+01 0.  0.
     999903    2    3    3    0    0  0.56574139010E-01 -0.65806305118E-01 -0.94891164846E-01  0.12993934486E+00  0.18676112531E-01 0.  0.
         14    1    1    2    0    0  0.18298395307E-01  0.12070887081E-01 -0.77360687836E-02  0.23246168414E-01  0.00000000000E+00 0.  1.
     999901    1    3    3    0    0 -0.74872534317E-01  0.53735418037E-01  0.10262723363E+00  0.89074448672E+00  0.88000000000E+00 0. -1.
        -11    1    4    4    0    0  0.10794075837E-01 -0.71441418826E-02 -0.68181749320E-02  0.14638970825E-01  0.51100000000E-03 0.  1.
         11    1    4    4    0    0  0.45780063172E-01 -0.58662163235E-01 -0.88072989914E-01  0.11530037404E+00  0.51100000000E-03 0. -1.
</event>
<event>
 8    1  0.1120016E+005  0.1043930E+01  0.7957747E-01            NaN
         13   -1    0    0    0    0  0.00000000000E+00  0.00000000000E+00  0.74505805969E-08  0.10566000000E+00  0.10566000000E+00 0. -1.
     999900   -1    0    0    0    0 -0.00000000000E+00 -0.00000000000E+00 -0.74505805969E-08  0.93827000000E+00  0.93827000000E+00 0. -1.
     999902    2    1    2    0    0  0.57063545782E-02 -0.18802967978E-01  0.96484132214E-02  0.10220392265E+01  0.10218047634E+01 0.  0.
     999903    2    3    3    0    0 -0.45247083505E-01 -0.49884451188E-01 -0.11251963476E+00  0.13159700860E+00  0.11015780864E-01 0.  0.
         14    1    1    2    0    0 -0.57063545782E-02  0.18802967978E-01 -0.96484132214E-02  0.21890773514E-01  0.00000000000E+00 0. -1.
     999901    1    3    3    0    0  0.50953438083E-01  0.31081483211E-01  0.12216804799E+00  0.89044221789E+00  0.88000000000E+00 0.  1.
        -11    1    4    4    0    0 -0.65704044562E-02 -0.26230573200E-02 -0.13733572090E-01  0.15457126764E-01  0.51100000000E-03 0. -1.
         11    1    4    4    0    0 -0.38676679049E-01 -0.47261393868E-01 -0.98786062674E-01  0.11613988183E+00  0.51100000000E-03 0.  1.
</event>
<event>
 8    1  0.1120016E+005  0.1043930E+01  0.7957747E-01            NaN
         13   -1    0    0    0    0  0.00000000000E+00  0.00000000000E+00  0.74505805969E-08  0.10566000000E+00  0.10566000000E+00 0.  1.
     999900   -1    0    0    0    0 -0.00000000000E+00 -0.00000000000E+00 -0.74505805969E-08  0.93827000000E+00  0.93827000000E+00 0.  1.
     999902    2    1    2    0    0  0.15808279791E-01 -0.17766061862E-01 -0.15106854778E-02  0.10201010925E+01  0.10198227405E+01 0.  0.
     999903    2    3    3    0    0 -0.29372201550E-01  0.10536525188E+00  0.63600159971E-01  0.12800131188E+00  0.19359570386E-01 0.  0.
         14    1    1    2    0    0 -0.15808279791E-01  0.17766061862E-01  0.15106854778E-02  0.23828907542E-01  0.00000000000E+00 0. -1.
     999901    1    3    3    0    0  0.45180481340E-01 -0.12313131375E+00 -0.65110845449E-01  0.89209978058E+00  0.88000000000E+00 0. -1.
        -11    1    4    4    0    0 -0.77448317250E-02  0.36208466163E-01  0.32029240045E-01  0.48960890302E-01  0.51100000000E-03 0. -1.
         11    1    4    4    0    0 -0.21627369825E-01  0.69156785721E-01  0.31570919926E-01  0.79040421575E-01  0.51100000000E-03 0.  1.
</event>
<event>
 8    1  0.1120016E+005  0.1043930E+01  0.7957747E-01            NaN
         13   -1    0    0    0    0  0.00000000000E+00  0.00000000000E+00  0.74505805969E-08  0.10566000000E+00  0.10566000000E+00 0. -1.
     999900   -1    0    0    0    0 -0.00000000000E+00 -0.00000000000E+00 -0.74505805969E-08  0.93827000000E+00  0.93827000000E+00 0. -1.
     999902    2    1    2    0    0 -0.99603417400E-02 -0.89497446133E-02  0.18282768784E-01  0.10212680060E+01  0.10210165396E+01 0.  0.
     999903    2    3    3    0    0  0.75304544859E-01  0.10284889209E+00  0.11041538679E-01  0.13007696508E+00  0.23439969862E-01 0.  0.
         14    1    1    2    0    0  0.99603417400E-02  0.89497446133E-02 -0.18282768784E-01  0.22661993969E-01  0.00000000000E+00 0.  1.
     999901    1    3    3    0    0 -0.85264886599E-01 -0.11179863671E+00  0.72412301051E-02  0.89119104095E+00  0.88000000000E+00 0.  1.
        -11    1    4    4    0    0  0.51265445708E-02  0.12355140478E-01  0.78426234579E-02  0.15514471283E-01  0.51100000000E-03 0. -1.
         11    1    4    4    0    0  0.70178000288E-01  0.90493751615E-01  0.31989152214E-02  0.11456249380E+00  0.51100000000E-03 0.  1.
</event>
<event>
 8    1  0.1120016E+005  0.1043930E+01  0.7957747E-01            NaN
         13   -1    0    0    0    0  0.00000000000E+00  0.00000000000E+00  0.74505805969E-08  0.10566000000E+00  0.10566000000E+00 0. -1.
     999900   -1    0    0    0    0 -0.00000000000E+00 -0.00000000000E+00 -0.74505805969E-08  0.93827000000E+00  0.93827000000E+00 0.  1.
     999902    2    1    2    0    0  0.20512577275E-01  0.11088779121E-01  0.10710691224E-02  0.10205874629E+01  0.10203204866E+01 0.  0.
     999903    2    3    3    0    0 -0.21461041366E-01  0.12963933265E+00 -0.43038180429E-02  0.13163026044E+00  0.64085682458E-02 0.  0.
         14    1    1    2    0    0 -0.20512577275E-01 -0.11088779121E-01 -0.10710691224E-02  0.23342537093E-01  0.00000000000E+00 0. -1.
     999901    1    3    3    0    0  0.41973618641E-01 -0.11855055353E+00  0.53748871653E-02  0.88895720247E+00  0.88000000000E+00 0.  1.
        -11    1    4    4    0    0 -0.45203282974E-02  0.40092598052E-01 -0.33508279477E-02  0.40488750973E-01  0.51100000000E-03 0.  1.
         11    1    4    4    0    0 -0.16940713068E-01  0.89546734600E-01 -0.95299009525E-03  0.91141509467E-01  0.51100000000E-03 0. -1.
</event>
<event>
 8    1  0.1120016E+005  0.1043930E+01  0.7957747E-01            NaN
         13   -1    0    0    0    0  0.00000000000E+00  0.00000000000E+00  0.74505805969E-08  0.10566000000E+00  0.10566000000E+00 0. -1.
     999900   -1    0    0    0    0 -0.00000000000E+00 -0.00000000000E+00 -0.74505805969E-08  0.93827000000E+00  0.93827000000E+00 0. -1.
     999902    2    1    2    0    0  0.91058355989E-02 -0.21706683820E-01  0.43790367303E-02  0.10199868940E+01  0.10197058358E+01 0.  0.
     999903    2    3    3    0    0 -0.54735333172E-01 -0.13908748067E-01  0.11587036454E+00  0.13062374045E+00  0.21147345501E-01 0.  0.
         14    1    1    2    0    0 -0.91058355989E-02  0.21706683820E-01 -0.43790367303E-02  0.23943106045E-01  0.00000000000E+00 0.  1.
     999901    1    3    3    0    0  0.63841168771E-01 -0.77979357527E-02 -0.11149132781E+00  0.88936315350E+00  0.88000000000E+00 0. -1.
        -11    1    4    4    0    0 -0.28044391497E-01  0.36948451841E-02  0.52155113397E-01  0.59334279720E-01  0.51100000000E-03 0. -1.
         11    1    4    4    0    0 -0.26690941675E-01 -0.17603593251E-01  0.63715251139E-01  0.71289460733E-01  0.51100000000E-03 0.  1.
</event>
<event>
 8    1  0.1120016E+005  0.1043930E+01  0.7957747E-01            NaN
         13   -1    0    0    0    0  0.00000000000E+00  0.00000000000E+00  0.74505805969E-08  0.10566000000E+00  0.10566000000E+00 0. -1.
     999900   -1    0    0    0    0 -0.00000000000E+00 -0.00000000000E+00 -0.74505805969E-08  0.93827000000E+00  0.93827000000E+00 0.  1.
     999902    2    1    2    0    0 -0.33085979289E-02 -0.22588078653E-01  0.56890550039E-02  0.10204027081E+01  0.10201314392E+01 0.  0.
     999903    2    3    3    0    0 -0.45224379536E-01 -0.11830017900E+00 -0.36307510164E-01  0.13322659797E+00  0.19771551659E-01 0.  0.
         14    1    1    2    0    0  0.33085979289E-02  0.22588078653E-01 -0.56890550039E-02  0.23527291904E-01  0.00000000000E+00 0. -1.
     999901    1    3    3    0    0  0.41915781607E-01  0.95712100348E-01  0.41996565168E-01  0.88717611013E+00  0.88000000000E+00 0. -1.
        -11    1    4    4    0    0 -0.34015868051E-01 -0.98145131980E-01 -0.36668228430E-01  0.11015609973E+00  0.51100000000E-03 0. -1.
         11    1    4    4    0    0 -0.11208511485E-01 -0.20155047021E-01  0.36071826639E-03  0.23070498235E-01  0.51100000000E-03 0.  1.
</event>
<event>
 8    1  0.1120016E+005  0.1043930E+01  0.7957747E-01            NaN
         13   -1    0    0    0    0  0.00000000000E+00  0.00000000000E+00  0.74505805969E-08  0.10566000000E+00  0.10566000000E+00 0. -1.
     999900   -1    0    0    0    0 -0.00000000000E+00 -0.00000000000E+00 -0.74505805969E-08  0.93827000000E+00  0.93827000000E+00 0. -1.
     999902    2    1    2    0    0  0.20295972722E-01  0.23308468283E-02 -0.12095196118E-01  0.10201886200E+01  0.10199123331E+01 0.  0.
     999903    2    3    3    0    0  0.92493976052E-01 -0.22387976879E-01 -0.91138016661E-01  0.13335642650E+00  0.20529035370E-01 0.  0.
         14    1    1    2    0    0 -0.20295972722E-01 -0.23308468283E-02  0.12095196118E-01  0.23741380010E-01  0.00000000000E+00 0.  1.
     999901    1    3    3    0    0 -0.72198003330E-01  0.24718823707E-01  0.79042820543E-01  0.88683219349E+00  0.88000000000E+00 0. -1.
        -11    1    4    4    0    0  0.54227256139E-01 -0.55598933617E-02 -0.61060956836E-01  0.81854806171E-01  0.51100000000E-03 0. -1.
         11    1    4    4    0    0  0.38266719913E-01 -0.16828083517E-01 -0.30077059825E-01  0.51501620329E-01  0.51100000000E-03 0.  1.
</event>
<event>
 8    1  0.1120016E+005  0.1043930E+01  0.7957747E-01            NaN
         13   -1    0    0    0    0  0.00000000000E+00  0.00000000000E+00  0.74505805969E-08  0.10566000000E+00  0.10566000000E+00 0. -1.
     999900   -1    0    0    0    0 -0.00000000000E+00 -0.00000000000E+00 -0.74505805969E-08  0.93827000000E+00  0.93827000000E+00 0.  1.
     999902    2    1    2    0    0 -0.15642622976E-01  0.59049604275E-02  0.20163742747E-01  0.10177357882E+01  0.10173986425E+01 0.  0.
     999903    2    3    3    0    0  0.44258147032E-01 -0.10721676957E+00  0.49976692162E-01  0.12797546090E+00  0.20635638553E-01 0.  0.
         14    1    1    2    0    0  0.15642622976E-01 -0.59049604275E-02 -0.20163742747E-01  0.26194211818E-01  0.00000000000E+00 0.  1.
     999901    1    3    3    0    0 -0.59900770008E-01  0.11312173000E+00 -0.29812949415E-01  0.88976032728E+00  0.88000000000E+00 0.  1.
        -11    1    4    4    0    0  0.33982572533E-01 -0.56138838325E-01  0.25442769510E-01  0.70384515667E-01  0.51100000000E-03 0. -1.
         11    1    4    4    0    0  0.10275574499E-01 -0.51077931245E-01  0.24533922652E-01  0.57590945237E-01  0.51100000000E-03 0.  1.
</event>
<event>
 8    1  0.1120016E+005  0.1043930E+01  0.7957747E-01            NaN
         13   -1    0    0    0    0  0.00000000000E+00  0.00000000000E+00  0.74505805969E-08  0.10566000000E+00  0.10566000000E+00 0. -1.
     999900   -1    0    0    0    0 -0.00000000000E+00 -0.00000000000E+00 -0.74505805969E-08  0.93827000000E+00  0.93827000000E+00 0. -1.
     999902    2    1    2    0    0  0.10639670699E-01 -0.44169027602E-02  0.20367515698E-01  0.10205302710E+01  0.10202619696E+01 0.  0.
     999903    2    3    3    0    0 -0.60064602613E-01 -0.11101453666E+00  0.30336218231E-01  0.13122631572E+00  0.19185305904E-01 0.  0.
         14    1    1    2    0    0 -0.10639670699E-01  0.44169027602E-02 -0.20367515698E-01  0.23399729021E-01  0.00000000000E+00 0.  1.
     999901    1    3    3    0    0  0.70704273312E-01  0.10659763390E+00 -0.99687025337E-02  0.88930395526E+00  0.88000000000E+00 0.  1.
        -11    1    4    4    0    0 -0.44693495343E-01 -0.67861896502E-01  0.25470694593E-01  0.85157283464E-01  0.51100000000E-03 0. -1.
         11    1    4    4    0    0 -0.15371107270E-01 -0.43152640158E-01  0.48655236383E-02  0.46069032251E-01  0.51100000000E-03 0.  1.
</event>
<event>
 8    1  0.1120016E+005  0.1043930E+01  0.7957747E-01            NaN
         13   -1    0    0    0    0  0.00000000000E+00  0.00000000000E+00  0.74505805969E-08  0.10566000000E+00  0.10566000000E+00 0. -1.
     999900   -1    0    0    0    0 -0.00000000000E+00 -0.00000000000E+00 -0.74505805969E-08  0.93827000000E+00  0.93827000000E+00 0. -1.
     999902    2    1    2    0    0  0.96831932846E-02 -0.16693450728E-01 -0.14437737072E-01  0.10198284693E+01  0.10195436347E+01 0.  0.
     999903    2    3    3    0    0  0.95367466415E-01  0.77160998818E-01  0.35648074963E-01  0.12928984527E+00  0.19907422020E-01 0.  0.
         14    1    1    2    0    0 -0.96831932846E-02  0.16693450728E-01  0.14437737072E-01  0.24101530681E-01  0.00000000000E+00 0. -1.
     999901    1    3    3    0    0 -0.85684273131E-01 -0.93854449546E-01 -0.50085812035E-01  0.89053862405E+00  0.88000000000E+00 0. -1.
        -11    1    4    4    0    0  0.57285718027E-01  0.35961085341E-01  0.13519722230E-01  0.68977511980E-01  0.51100000000E-03 0.  1.
         11    1    4    4    0    0  0.38081748388E-01  0.41199913478E-01  0.22128352732E-01  0.60312333287E-01  0.51100000000E-03 0. -1.
</event>
<event>
 8    1  0.1120016E+005  0.1043930E+01  0.7957747E-01            NaN
         13   -1    0    0    0    0  0.00000000000E+00  0.00000000000E+00  0.74505805969E-08  0.10566000000E+00  0.10566000000E+00 0. -1.
     999900   -1    0    0    0    0 -0.00000000000E+00 -0.00000000000E+00 -0.74505805969E-08  0.93827000000E+00  0.93827000000E+00 0.  1.
     999902    2    1    2    0    0 -0.80175200335E-02  0.22227028712E-01  0.76483063052E-03  0.10202887987E+01  0.10200148658E+01 0.  0.
     999903    2    3    3    0    0 -0.12993178688E-01 -0.11754425385E-01  0.12779162883E+00  0.13050494638E+00  0.19845690270E-01 0.  0.
         14    1    1    2    0    0  0.80175200335E-02 -0.22227028712E-01 -0.76483063052E-03  0.23641201297E-01  0.00000000000E+00 0. -1.
     999901    1    3    3    0    0  0.49756586548E-02  0.33981454098E-01 -0.12702679819E+00  0.88978385233E+00  0.88000000000E+00 0.  1.
        -11    1    4    4    0    0 -0.52651253484E-02  0.47938948472E-02  0.54718143862E-01  0.55181875299E-01  0.51100000000E-03 0.  1.
         11    1    4    4    0    0 -0.77280533399E-02 -0.16548320232E-01  0.73073484963E-01  0.75323071078E-01  0.51100000000E-03 0. -1.
</event>
<event>
 8    1  0.1120016E+005  0.1043930E+01  0.7957747E-01            NaN
         13   -1    0    0    0    0  0.00000000000E+00  0.00000000000E+00  0.74505805969E-08  0.10566000000E+00  0.10566000000E+00 0.  1.
     999900   -1    0    0    0    0 -0.00000000000E+00 -0.00000000000E+00 -0.74505805969E-08  0.93827000000E+00  0.93827000000E+00 0. -1.
     999902    2    1    2    0    0  0.13984047505E-01  0.24547748439E-02 -0.19664685155E-01  0.10196755294E+01  0.10193870245E+01 0.  0.
     999903    2    3    3    0    0  0.16241158910E-01 -0.79971907097E-01  0.96850807688E-01  0.12817392390E+00  0.19728016911E-01 0.  0.
         14    1    1    2    0    0 -0.13984047505E-01 -0.24547748439E-02  0.19664685155E-01  0.24254470648E-01  0.00000000000E+00 0.  1.
     999901    1    3    3    0    0 -0.22571114049E-02  0.82426681941E-01 -0.11651549284E+00  0.89150160545E+00  0.88000000000E+00 0. -1.
        -11    1    4    4    0    0  0.46120154225E-03 -0.50282419548E-01  0.60009658351E-01  0.78294026840E-01  0.51100000000E-03 0. -1.
         11    1    4    4    0    0  0.15779957368E-01 -0.29689487549E-01  0.36841149337E-01  0.49879897062E-01  0.51100000000E-03 0.  1.
</event>
<event>
 8    1  0.1120016E+005  0.1043930E+01  0.7957747E-01            NaN
         13   -1    0    0    0    0  0.00000000000E+00  0.00000000000E+00  0.74505805969E-08  0.10566000000E+00  0.10566000000E+00 0. -1.
     999900   -1    0    0    0    0 -0.00000000000E+00 -0.00000000000E+00 -0.74505805969E-08  0.93827000000E+00  0.93827000000E+00 0.  1.
     999902    2    1    2    0    0  0.57672207497E-02  0.14653857067E-01  0.17160736442E-01  0.10206386446E+01  0.10203728513E+01 0.  0.
     999903    2    3    3    0    0  0.44975438088E-01 -0.11942448849E+00  0.72775300856E-03  0.12946844198E+00  0.21830010560E-01 0.  0.
         14    1    1    2    0    0 -0.57672207497E-02 -0.14653857067E-01 -0.17160736442E-01  0.23291355421E-01  0.00000000000E+00 0.  1.
     999901    1    3    3    0    0 -0.39208217338E-01  0.13407834556E+00  0.16432983434E-01  0.89117020260E+00  0.88000000000E+00 0. -1.
        -11    1    4    4    0    0  0.24099492492E-01 -0.57759407221E-01  0.11034427722E-01  0.63552768445E-01  0.51100000000E-03 0. -1.
         11    1    4    4    0    0  0.20875945595E-01 -0.61665081273E-01 -0.10306674713E-01  0.65915673535E-01  0.51100000000E-03 0.  1.
</event>
<event>
 8    1  0.1120016E+005  0.1043930E+01  0.7957747E-01            NaN
         13   -1    0    0    0    0  0.00000000000E+00  0.00000000000E+00  0.74505805969E-08  0.10566000000E+00  0.10566000000E+00 0. -1.
     999900   -1    0    0    0    0 -0.00000000000E+00 -0.00000000000E+00 -0.74505805969E-08  0.93827000000E+00  0.93827000000E+00 0.  1.
     999902    2    1    2    0    0 -0.18271309509E-01 -0.16703337052E-01 -0.56186945114E-03  0.10191679743E+01  0.10188671169E+01 0.  0.
     999903    2    3    3    0    0  0.91898022600E-01 -0.70779407327E-01  0.52853420817E-01  0.12904736654E+00  0.20118838414E-01 0.  0.
         14    1    1    2    0    0  0.18271309509E-01  0.16703337052E-01  0.56186945114E-03  0.24762025707E-01  0.00000000000E+00 0. -1.
     999901    1    3    3    0    0 -0.11016933211E+00  0.54076070276E-01 -0.53415290268E-01  0.89012060775E+00  0.88000000000E+00 0.  1.
        -11    1    4    4    0    0  0.73992592315E-02 -0.13984513110E-01  0.54708163482E-02  0.16748331159E-01  0.51100000000E-03 0.  1.
         11    1    4    4    0    0  0.84498763369E-01 -0.56794894217E-01  0.47382604469E-01  0.11229903538E+00  0.51100000000E-03 0. -1.
</event>
<event>
 8    1  0.1120016E+005  0.1043930E+01  0.7957747E-01            NaN
         13   -1    0    0    0    0  0.00000000000E+00  0.00000000000E+00  0.74505805969E-08  0.10566000000E+00  0.10566000000E+00 0. -1.
     999900   -1    0    0    0    0 -0.00000000000E+00 -0.00000000000E+00 -0.74505805969E-08  0.93827000000E+00  0.93827000000E+00 0.  1.
     999902    2    1    2    0    0 -0.17562372934E-01 -0.80273957263E-02 -0.27870068691E-02  0.10244199146E+01  0.10242341129E+01 0.  0.
     999903    2    3    3    0    0  0.51772522234E-02 -0.62892050520E-01  0.11696665806E+00  0.13432544705E+00  0.19491348507E-01 0.  0.
         14    1    1    2    0    0  0.17562372934E-01  0.80273957263E-02  0.27870068691E-02  0.19510085405E-01  0.00000000000E+00 0.  1.
     999901    1    3    3    0    0 -0.22739625157E-01  0.54864654794E-01 -0.11975366493E+00  0.89009446755E+00  0.88000000000E+00 0.  1.
        -11    1    4    4    0    0  0.31441832186E-02 -0.24412801592E-01  0.65909667739E-01  0.70357772791E-01  0.51100000000E-03 0. -1.
         11    1    4    4    0    0  0.20330690048E-02 -0.38479248929E-01  0.51056990323E-01  0.63967674254E-01  0.51100000000E-03 0.  1.
</event>
<event>
 8    1  0.1120016E+005  0.1043930E+01  0.7957747E-01            NaN
         13   -1    0    0    0    0  0.00000000000E+00  0.00000000000E+00  0.74505805969E-08  0.10566000000E+00  0.10566000000E+00 0.  1.
     999900   -1    0    0    0    0 -0.00000000000E+00 -0.00000000000E+00 -0.74505805969E-08  0.93827000000E+00  0.93827000000E+00 0. -1.
     999902    2    1    2    0    0  0.66101192007E-02  0.78082607230E-02  0.21310623502E-01  0.10202909373E+01  0.10200170545E+01 0.  0.
     999903    2    3    3    0    0 -0.12796518730E+00  0.45447243742E-02  0.11442919355E-01  0.12999967295E+00  0.19319184349E-01 0.  0.
         14    1    1    2    0    0 -0.66101192007E-02 -0.78082607230E-02 -0.21310623502E-01  0.23639062701E-01  0.00000000000E+00 0. -1.
     999901    1    3    3    0    0  0.13457530650E+00  0.32635363487E-02  0.98677041465E-02  0.89029126435E+00  0.88000000000E+00 0.  1.
        -11    1    4    4    0    0 -0.46973835562E-01  0.94938893655E-02  0.93424813703E-02  0.48828457295E-01  0.51100000000E-03 0.  1.
         11    1    4    4    0    0 -0.80991351737E-01 -0.49491649912E-02  0.21004379848E-02  0.81171215656E-01  0.51100000000E-03 0. -1.
</event>
<event>
 8    1  0.1120016E+005  0.1043930E+01  0.7957747E-01            NaN
         13   -1    0    0    0    0  0.00000000000E+00  0.00000000000E+00  0.74505805969E-08  0.10566000000E+00  0.10566000000E+00 0. -1.
     999900   -1    0    0    0    0 -0.00000000000E+00 -0.00000000000E+00 -0.74505805969E-08  0.93827000000E+00  0.93827000000E+00 0. -1.
     999902    2    1    2    0    0 -0.93093433210E-02  0.84095056743E-03  0.21365608444E-01  0.10206091875E+01  0.10203427137E+01 0.  0.
     999903    2    3    3    0    0 -0.71760493292E-01  0.10579613429E+00  0.26103445129E-01  0.13216212447E+00  0.21048678551E-01 0.  0.
         14    1    1    2    0    0  0.93093433210E-02 -0.84095056743E-03 -0.21365608444E-01  0.23320812488E-01  0.00000000000E+00 0.  1.
     999901    1    3    3    0    0  0.62451149971E-01 -0.10495518373E+00 -0.47378366846E-02  0.88844706304E+00  0.88000000000E+00 0. -1.
        -11    1    4    4    0    0 -0.29665793680E-01  0.33942107853E-01  0.17808799828E-01  0.48472058678E-01  0.51100000000E-03 0.  1.
         11    1    4    4    0    0 -0.42094699612E-01  0.71854026441E-01  0.82946453006E-02  0.83690065796E-01  0.51100000000E-03 0. -1.
</event>
<event>
 8    1  0.1120016E+005  0.1043930E+01  0.7957747E-01            NaN
         13   -1    0    0    0    0  0.00000000000E+00  0.00000000000E+00  0.74505805969E-08  0.10566000000E+00  0.10566000000E+00 0.  1.
     999900   -1    0    0    0    0 -0.00000000000E+00 -0.00000000000E+00 -0.74505805969E-08  0.93827000000E+00  0.93827000000E+00 0. -1.
     999902    2    1    2    0    0  0.12591736224E-01 -0.20159292279E-01  0.27651375678E-02  0.10200010453E+01  0.10197203232E+01 0.  0.
     999903    2    3    3    0    0 -0.11231274031E+00 -0.60362391993E-01  0.17055452537E-01  0.13015744637E+00  0.19806624681E-01 0.  0.
         14    1    1    2    0    0 -0.12591736224E-01  0.20159292279E-01 -0.27651375678E-02  0.23928954680E-01  0.00000000000E+00 0. -1.
     999901    1    3    3    0    0  0.12490447654E+00  0.40203099714E-01 -0.14290314969E-01  0.88984359895E+00  0.88000000000E+00 0. -1.
        -11    1    4    4    0    0 -0.86485111825E-01 -0.55281117951E-01  0.11932448536E-01  0.10333596188E+00  0.51100000000E-03 0.  1.
         11    1    4    4    0    0 -0.25827628488E-01 -0.50812740413E-02  0.51230040004E-02  0.26821484489E-01  0.51100000000E-03 0. -1.
</event>
<event>
 8    1  0.1120016E+005  0.1043930E+01  0.7957747E-01            NaN
         13   -1    0    0    0    0  0.00000000000E+00  0.00000000000E+00  0.74505805969E-08  0.10566000000E+00  0.10566000000E+00 0.  1.
     999900   -1    0    0    0    0 -0.00000000000E+00 -0.00000000000E+00 -0.74505805969E-08  0.93827000000E+00  0.93827000000E+00 0. -1.
     999902    2    1    2    0    0  0.97685431128E-02 -0.66922893919E-02  0.20765626555E-01  0.10200255565E+01  0.10197454160E+01 0.  0.
     999903    2    3    3    0    0 -0.32997814045E-01  0.40549909982E-01 -0.11452640485E+00  0.12740877398E+00  0.19584364928E-01 0.  0.
         14    1    1    2    0    0 -0.97685431128E-02  0.66922893919E-02 -0.20765626555E-01  0.23904443480E-01  0.00000000000E+00 0.  1.
     999901    1    3    3    0    0  0.42766357157E-01 -0.47242199374E-01  0.13529203140E+00  0.89261678254E+00  0.88000000000E+00 0.  1.
        -11    1    4    4    0    0 -0.15258323170E-01  0.14386424900E-01 -0.67965473886E-01  0.71129124899E-01  0.51100000000E-03 0.  1.
         11    1    4    4    0    0 -0.17739490875E-01  0.26163485083E-01 -0.46560930960E-01  0.56279649084E-01  0.51100000000E-03 0. -1.
</event>
<event>
 8    1  0.1120016E+005  0.1043930E+01  0.7957747E-01            NaN
         13   -1    0    0    0    0  0.00000000000E+00  0.00000000000E+00  0.74505805969E-08  0.10566000000E+00  0.10566000000E+00 0. -1.
     999900   -1    0    0    0    0 -0.00000000000E+00 -0.00000000000E+00 -0.74505805969E-08  0.93827000000E+00  0.93827000000E+00 0.  1.
     999902    2    1    2    0    0 -0.18647081277E-01  0.56090793616E-02  0.14448141774E-01  0.10196828515E+01  0.10193945229E+01 0.  0.
     999903    2    3    3    0    0 -0.11315594843E+00  0.58834359971E-01 -0.26477484590E-01  0.13207946968E+00  0.21867293898E-01 0.  0.
         14    1    1    2    0    0  0.18647081277E-01 -0.56090793616E-02 -0.14448141774E-01  0.24247148536E-01  0.00000000000E+00 0.  1.
     999901    1    3    3    0    0  0.94508867150E-01 -0.53225280610E-01  0.40925626364E-01  0.88760338179E+00  0.88000000000E+00 0. -1.
        -11    1    4    4    0    0 -0.52327037077E-01  0.19227174609E-01 -0.19891731294E-01  0.59192441642E-01  0.51100000000E-03 0.  1.
         11    1    4    4    0    0 -0.60828911350E-01  0.39607185362E-01 -0.65857532964E-02  0.72887028035E-01  0.51100000000E-03 0. -1.
</event>
<event>
 8    1  0.1120016E+005  0.1043930E+01  0.7957747E-01            NaN
         13   -1    0    0    0    0  0.00000000000E+00  0.00000000000E+00  0.74505805969E-08  0.10566000000E+00  0.10566000000E+00 0. -1.
     999900   -1    0    0    0    0 -0.00000000000E+00 -0.00000000000E+00 -0.74505805969E-08  0.93827000000E+00  0.93827000000E+00 0.  1.
     999902    2    1    2    0    0  0.69333953445E-02  0.58317200817E-02 -0.20984747162E-01  0.10210730417E+01  0.10208171805E+01 0.  0.
     999903    2    3    3    0    0  0.33818842657E-01  0.98202994023E-01  0.76462463470E-01  0.13048265414E+00  0.19790718961E-01 0.  0.
         14    1    1    2    0    0 -0.69333953445E-02 -0.58317200817E-02  0.20984747162E-01  0.22856958318E-01  0.00000000000E+00 0. -1.
     999901    1    3    3    0    0 -0.26885447312E-01 -0.92371273941E-01 -0.97447210632E-01  0.89059038754E+00  0.88000000000E+00 0.  1.
        -11    1    4    4    0    0  0.94359377541E-02  0.51816559602E-01  0.31082825027E-01  0.61158776173E-01  0.51100000000E-03 0. -1.
         11    1    4    4    0    0  0.24382904903E-01  0.46386434421E-01  0.45379638443E-01  0.69323877964E-01  0.51100000000E-03 0.  1.
</event>
<event>
 8    1  0.1120016E+005  0.1043930E+01  0.7957747E-01            NaN
         13   -1    0    0    0    0  0.00000000000E+00  0.00000000000E+00  0.74505805969E-08  0.10566000000E+00  0.10566000000E+00 0. -1.
     999900   -1    0    0    0    0 -0.00000000000E+00 -0.00000000000E+00 -0.74505805969E-08  0.93827000000E+00  0.93827000000E+00 0.  1.
     999902    2    1    2    0    0 -0.12714280327E-01 -0.15233113117E-01 -0.12941057769E-01  0.10202409385E+01  0.10199658822E+01 0.  0.
     999903    2    3    3    0    0 -0.54355657549E-01  0.11122091575E+00  0.30620357489E-01  0.12916169250E+00  0.20506265134E-01 0.  0.
         14    1    1    2    0    0  0.12714280327E-01  0.15233113117E-01  0.12941057769E-01  0.23689061519E-01  0.00000000000E+00 0. -1.
     999901    1    3    3    0    0  0.41641377222E-01 -0.12645402887E+00 -0.43561415258E-01  0.89107924598E+00  0.88000000000E+00 0.  1.
        -11    1    4    4    0    0 -0.47617661490E-01  0.10586556852E+00  0.24641480527E-01  0.11866938935E+00  0.51100000000E-03 0.  1.
         11    1    4    4    0    0 -0.67379960585E-02  0.53553472289E-02  0.59788769622E-02  0.10492303158E-01  0.51100000000E-03 0. -1.
</event>
<event>
 8    1  0.1120016E+005  0.1043930E+01  0.7957747E-01            NaN
         13   -1    0    0    0    0  0.00000000000E+00  0.00000000000E+00  0.74505805969E-08  0.10566000000E+00  0.10566000000E+00 0.  1.
     999900   -1    0    0    0    0 -0.00000000000E+00 -0.00000000000E+00 -0.74505805969E-08  0.93827000000E+00  0.93827000000E+00 0.  1.
     999902    2    1    2    0    0  0.15307723598E-01 -0.16278466589E-01  0.10775047320E-01  0.10191224100E+01  0.10188204307E+01 0.  0.
     999903    2    3    3    0    0  0.61299352551E-01  0.11140710707E+00  0.49248379294E-02  0.12869944276E+00  0.19238981500E-01 0.  0.
         14    1    1    2    0    0 -0.15307723598E-01  0.16278466589E-01 -0.10775047320E-01  0.24807589987E-01  0.00000000000E+00 0.  1.
     999901    1    3    3    0    0 -0.45991628953E-01 -0.12768557366E+00  0.58502093902E-02  0.89042296725E+00  0.88000000000E+00 0. -1.
        -11    1    4    4    0    0  0.22989141786E-01  0.61476146472E-01  0.10682552237E-02  0.65644645748E-01  0.51100000000E-03 0. -1.
         11    1    4    4    0    0  0.38310210765E-01  0.49930960601E-01  0.38565827056E-02  0.63054797015E-01  0.51100000000E-03 0.  1.
</event>
<event>
 8    1  0.1120016E+005  0.1043930E+01  0.7957747E-01            NaN
         13   -1    0    0    0    0  0.00000000000E+00  0.00000000000E+00  0.74505805969E-08  0.10566000000E+00  0.10566000000E+00 0. -1.
     999900   -1    0    0    0    0 -0.00000000000E+00 -0.00000000000E+00 -0.74505805969E-08  0.93827000000E+00  0.93827000000E+00 0. -1.
     999902    2    1    2    0    0 -0.22019009138E-02  0.22834010742E-01 -0.55803406383E-02  0.10203210903E+01  0.10200479140E+01 0.  0.
     999903    2    3    3    0    0  0.56095373349E-01  0.78868028784E-01 -0.89005844067E-01  0.13268479207E+00  0.17786424411E-01 0.  0.
         14    1    1    2    0    0  0.22019009138E-02 -0.22834010742E-01  0.55803406383E-02  0.23608909670E-01  0.00000000000E+00 0. -1.
     999901    1    3    3    0    0 -0.58297274263E-01 -0.56034018042E-01  0.83425503428E-01  0.88763629826E+00  0.88000000000E+00 0.  1.
        -11    1    4    4    0    0  0.18684231775E-01  0.15136821575E-01 -0.16600080046E-01  0.29224093878E-01  0.51100000000E-03 0. -1.
         11    1    4    4    0    0  0.37411141573E-01  0.63731207209E-01 -0.72405764021E-01  0.10346069819E+00  0.51100000000E-03 0.  1.
</event>
<event>
 8    1  0.1120016E+005  0.1043930E+01  0.7957747E-01            NaN
         13   -1    0    0    0    0  0.00000000000E+00  0.00000000000E+00  0.74505805969E-08  0.10566000000E+00  0.10566000000E+00 0.  1.
     999900   -1    0    0    0    0 -0.00000000000E+00 -0.00000000000E+00 -0.74505805969E-08  0.93827000000E+00  0.93827000000E+00 0.  1.
     999902    2    1    2    0    0  0.12664408801E-01 -0.13872810340E-04 -0.24074101019E-01  0.10167279820E+01  0.10163640291E+01 0.  0.
     999903    2    3    3    0    0  0.49513186724E-01  0.80635971605E-01 -0.86851975603E-01  0.13004692809E+00  0.20377003323E-01 0.  0.
         14    1    1    2    0    0 -0.12664408801E-01  0.13872810340E-04  0.24074101019E-01  0.27202017988E-01  0.00000000000E+00 0.  1.
     999901    1    3    3    0    0 -0.36848777923E-01 -0.80649844416E-01  0.62777874584E-01  0.88668105392E+00  0.88000000000E+00 0. -1.
        -11    1    4    4    0    0  0.38646477873E-01  0.43998215203E-01 -0.51581561520E-01  0.78040449786E-01  0.51100000000E-03 0.  1.
         11    1    4    4    0    0  0.10866708851E-01  0.36637756402E-01 -0.35270414084E-01  0.52006478309E-01  0.51100000000E-03 0. -1.
</event>
<event>
 8    1  0.1120016E+005  0.1043930E+01  0.7957747E-01            NaN
         13   -1    0    0    0    0  0.00000000000E+00  0.00000000000E+00  0.74505805969E-08  0.10566000000E+00  0.10566000000E+00 0.  1.
     999900   -1    0    0    0    0 -0.00000000000E+00 -0.00000000000E+00 -0.74505805969E-08  0.93827000000E+00  0.93827000000E+00 0.  1.
     999902    2    1    2    0    0 -0.11510852128E-01 -0.86812325946E-02 -0.17845043718E-01  0.10209885724E+01  0.10207307950E+01 0.  0.
     999903    2    3    3    0    0 -0.11298565367E+00 -0.55885552253E-01 -0.38364457332E-01  0.13366313632E+00  0.22473307213E-01 0.  0.
         14    1    1    2    0    0  0.11510852128E-01  0.86812325946E-02  0.17845043718E-01  0.22941427622E-01  0.00000000000E+00 0.  1.
     999901    1    3    3    0    0  0.10147480155E+00  0.47204319658E-01  0.20519413614E-01  0.88732543606E+00  0.88000000000E+00 0. -1.
        -11    1    4    4    0    0 -0.28435629229E-01 -0.18551129451E-01 -0.10042864757E-02  0.33970562637E-01  0.51100000000E-03 0. -1.
         11    1    4    4    0    0 -0.84550024446E-01 -0.37334422802E-01 -0.37360170856E-01  0.99692573681E-01  0.51100000000E-03 0.  1.
</event>
<event>
 8    1  0.1120016E+005  0.1043930E+01  0.7957747E-01            NaN
         13   -1    0    0    0    0  0.00000000000E+00  0.00000000000E+00  0.74505805969E-08  0.10566000000E+00  0.10566000000E+00 0. -1.
     999900   -1    0    0    0    0 -0.00000000000E+00 -0.00000000000E+00 -0.74505805969E-08  0.93827000000E+00  0.93827000000E+00 0.  1.
     999902    2    1    2    0    0  0.80348243559E-02  0.74305805999E-02  0.21392506517E-01  0.10199006166E+01  0.10196175050E+01 0.  0.
     999903    2    3    3    0    0 -0.75256987835E-01  0.67810029065E-01 -0.76460748908E-01  0.12852052745E+00  0.20235256170E-01 0.  0.
         14    1    1    2    0    0 -0.80348243559E-02 -0.74305805999E-02 -0.21392506517E-01  0.24029383379E-01  0.00000000000E+00 0.  1.
     999901    1    3    3    0    0  0.83291812191E-01 -0.60379448465E-01  0.97853255426E-01  0.89138008917E+00  0.88000000000E+00 0. -1.
        -11    1    4    4    0    0 -0.34680767147E-01  0.26059261018E-01 -0.21350843111E-01  0.48352459268E-01  0.51100000000E-03 0. -1.
         11    1    4    4    0    0 -0.40576220688E-01  0.41750768047E-01 -0.55109905797E-01  0.80168068181E-01  0.51100000000E-03 0.  1.
</event>
<event>
 8    1  0.1120016E+005  0.1043930E+01  0.7957747E-01            NaN
         13   -1    0    0    0    0  0.00000000000E+00  0.00000000000E+00  0.74505805969E-08  0.10566000000E+00  0.10566000000E+00 0. -1.
     999900   -1    0    0    0    0 -0.00000000000E+00 -0.00000000000E+00 -0.74505805969E-08  0.93827000000E+00  0.93827000000E+00 0. -1.
     999902    2    1    2    0    0  0.12883499207E-01 -0.17355585954E-01  0.89379799056E-02  0.10205400791E+01  0.10202720052E+01 0.  0.
     999903    2    3    3    0    0  0.96926858539E-01  0.16159436814E-01  0.86698895159E-01  0.13248979732E+00  0.19516779148E-01 0.  0.
         14    1    1    2    0    0 -0.12883499207E-01  0.17355585954E-01 -0.89379799056E-02  0.23389920915E-01  0.00000000000E+00 0. -1.
     999901    1    3    3    0    0 -0.84043359332E-01 -0.33515022768E-01 -0.77760915253E-01  0.88805028176E+00  0.88000000000E+00 0. -1.
        -11    1    4    4    0    0  0.56343543726E-01  0.10884997100E-01  0.62900567095E-01  0.85145878017E-01  0.51100000000E-03 0. -1.
         11    1    4    4    0    0  0.40583314813E-01  0.52744397142E-02  0.23798328064E-01  0.47343919305E-01  0.51100000000E-03 0.  1.
</event>
<event>
 8    1  0.1120016E+005  0.1043930E+01  0.7957747E-01            NaN
         13   -1    0    0    0    0  0.00000000000E+00  0.00000000000E+00  0.74505805969E-08  0.10566000000E+00  0.10566000000E+00 0. -1.
     999900   -1    0    0    0    0 -0.00000000000E+00 -0.00000000000E+00 -0.74505805969E-08  0.93827000000E+00  0.93827000000E+00 0. -1.
     999902    2    1    2    0    0 -0.17363349637E-01  0.26144825325E-02  0.16518765961E-01  0.10198220955E+01  0.10195371084E+01 0.  0.
     999903    2    3    3    0    0 -0.25670892112E-01 -0.10755381764E+00  0.67299510442E-01  0.13146138408E+00  0.22935845487E-01 0.  0.
         14    1    1    2    0    0  0.17363349637E-01 -0.26144825325E-02 -0.16518765961E-01  0.24107904480E-01  0.00000000000E+00 0.  1.
     999901    1    3    3    0    0  0.83075424750E-02  0.11016830017E+00 -0.50780744481E-01  0.88836071144E+00  0.88000000000E+00 0. -1.
        -11    1    4    4    0    0  0.69113744802E-03 -0.83260369648E-02  0.12603749190E-01  0.15129976112E-01  0.51100000000E-03 0.  1.
         11    1    4    4    0    0 -0.26362029560E-01 -0.99227780670E-01  0.54695761252E-01  0.11633140797E+00  0.51100000000E-03 0. -1.
</event>
<event>
 8    1  0.1120016E+005  0.1043930E+01  0.7957747E-01            NaN
         13   -1    0    0    0    0  0.00000000000E+00  0.00000000000E+00  0.74505805969E-08  0.10566000000E+00  0.10566000000E+00 0.  1.
     999900   -1    0    0    0    0 -0.00000000000E+00 -0.00000000000E+00 -0.74505805969E-08  0.93827000000E+00  0.93827000000E+00 0.  1.
     999902    2    1    2    0    0  0.56420455007E-02  0.67089824349E-02  0.22361693639E-01  0.10199114974E+01  0.10196286452E+01 0.  0.
     999903    2    3    3    0    0  0.17044880547E-01 -0.12252022166E+00  0.36000558668E-01  0.13029572056E+00  0.19473107147E-01 0.  0.
         14    1    1    2    0    0 -0.56420455007E-02 -0.67089824349E-02 -0.22361693639E-01  0.24018502558E-01  0.00000000000E+00 0. -1.
     999901    1    3    3    0    0 -0.11402835047E-01  0.12922920410E+00 -0.13638865029E-01  0.88961577688E+00  0.88000000000E+00 0. -1.
        -11    1    4    4    0    0  0.12679416963E-01 -0.35761321223E-01  0.61573323119E-02  0.38442340880E-01  0.51100000000E-03 0. -1.
         11    1    4    4    0    0  0.43654635850E-02 -0.86758900441E-01  0.29843226356E-01  0.91853379679E-01  0.51100000000E-03 0.  1.
</event>
<event>
 8    1  0.1120016E+005  0.1043930E+01  0.7957747E-01            NaN
         13   -1    0    0    0    0  0.00000000000E+00  0.00000000000E+00  0.74505805969E-08  0.10566000000E+00  0.10566000000E+00 0. -1.
     999900   -1    0    0    0    0 -0.00000000000E+00 -0.00000000000E+00 -0.74505805969E-08  0.93827000000E+00  0.93827000000E+00 0. -1.
     999902    2    1    2    0    0 -0.18819721753E-01  0.12227157910E-01  0.68394937175E-02  0.10204680309E+01  0.10201982838E+01 0.  0.
     999903    2    3    3    0    0  0.15940037002E-01  0.87977901344E-01 -0.93491115171E-01  0.13085426811E+00  0.19699110677E-01 0.  0.
         14    1    1    2    0    0  0.18819721753E-01 -0.12227157910E-01 -0.68394937175E-02  0.23461969050E-01  0.00000000000E+00 0. -1.
     999901    1    3    3    0    0 -0.34759758755E-01 -0.75750743434E-01  0.10033060889E+00  0.88961376284E+00  0.88000000000E+00 0.  1.
        -11    1    4    4    0    0  0.74889507679E-02  0.33934990559E-01 -0.23205142910E-01  0.41790043627E-01  0.51100000000E-03 0. -1.
         11    1    4    4    0    0  0.84510862336E-02  0.54042910784E-01 -0.70285972261E-01  0.89064224480E-01  0.51100000000E-03 0.  1.
</event>
<event>
 8    1  0.1120016E+005  0.1043930E+01  0.7957747E-01            NaN
         13   -1    0    0    0    0  0.00000000000E+00  0.00000000000E+00  0.74505805969E-08  0.10566000000E+00  0.10566000000E+00 0.  1.
     999900   -1    0    0    0    0 -0.00000000000E+00 -0.00000000000E+00 -0.74505805969E-08  0.93827000000E+00  0.93827000000E+00 0. -1.
     999902    2    1    2    0    0 -0.11707578256E-01  0.20919287367E-01 -0.31808602345E-02  0.10197473235E+01  0.10194605445E+01 0.  0.
     999903    2    3    3    0    0 -0.43876827049E-01  0.62266385354E-01 -0.10623080526E+00  0.13218677102E+00  0.19648912220E-01 0.  0.
         14    1    1    2    0    0  0.11707578256E-01 -0.20919287367E-01  0.31808602345E-02  0.24182676535E-01  0.00000000000E+00 0. -1.
     999901    1    3    3    0    0  0.32169248793E-01 -0.41347097987E-01  0.10304994502E+00  0.88756055244E+00  0.88000000000E+00 0.  1.
        -11    1    4    4    0    0 -0.22160661531E-01  0.39799854301E-01 -0.76592460093E-01  0.89116717770E-01  0.51100000000E-03 0.  1.
         11    1    4    4    0    0 -0.21716165518E-01  0.22466531053E-01 -0.29638345164E-01  0.43070053255E-01  0.51100000000E-03 0. -1.
</event>
<event>
 8    1  0.1120016E+005  0.1043930E+01  0.7957747E-01            NaN
         13   -1    0    0    0    0  0.00000000000E+00  0.00000000000E+00  0.74505805969E-08  0.10566000000E+00  0.10566000000E+00 0. -1.
     999900   -1    0    0    0    0 -0.00000000000E+00 -0.00000000000E+00 -0.74505805969E-08  0.93827000000E+00  0.93827000000E+00 0.  1.
     999902    2    1    2    0    0 -0.23275505650E-01 -0.14115114961E-03  0.28605406731E-02  0.10204789493E+01  0.10202094560E+01 0.  0.
     999903    2    3    3    0    0 -0.63078978612E-01  0.36928118924E-01 -0.10795998264E+00  0.13186225147E+00  0.19739604904E-01 0.  0.
         14    1    1    2    0    0  0.23275505650E-01  0.14115114961E-03 -0.28605406731E-02  0.23451050719E-01  0.00000000000E+00 0. -1.
     999901    1    3    3    0    0  0.39803472963E-01 -0.37069270074E-01  0.11082052331E+00  0.88861669781E+00  0.88000000000E+00 0. -1.
        -11    1    4    4    0    0 -0.79776895984E-02  0.24982023630E-02 -0.40339850442E-02  0.92961660222E-02  0.51100000000E-03 0.  1.
         11    1    4    4    0    0 -0.55101289014E-01  0.34429916561E-01 -0.10392599759E+00  0.12256608545E+00  0.51100000000E-03 0. -1.
</event>
<event>
 8    1  0.1120016E+005  0.1043930E+01  0.7957747E-01            NaN
         13   -1    0    0    0    0  0.00000000000E+00  0.00000000000E+00  0.74505805969E-08  0.10566000000E+00  0.10566000000E+00 0.  1.
     999900   -1    0    0    0    0 -0.00000000000E+00 -0.00000000000E+00 -0.74505805969E-08  0.93827000000E+00  0.93827000000E+00 0.  1.
     999902    2    1    2    0    0  0.14567966893E-02  0.64703686601E-03  0.23815425507E-01  0.10200612881E+01  0.10197819944E+01 0.  0.
     999903    2    3    3    0    0  0.83238382215E-01  0.22434955521E-02 -0.95539979588E-01  0.12824488937E+00  0.19626573907E-01 0.  0.
         14    1    1    2    0    0 -0.14567966893E-02 -0.64703686601E-03 -0.23815425507E-01  0.23868711850E-01  0.00000000000E+00 0. -1.
     999901    1    3    3    0    0 -0.81781585525E-01 -0.15964586861E-02  0.11935540509E+00  0.89181639878E+00  0.88000000000E+00 0. -1.
        -11    1    4    4    0    0  0.21687398827E-01 -0.33382901776E-02 -0.37546363603E-01  0.43491125417E-01  0.51100000000E-03 0. -1.
         11    1    4    4    0    0  0.61550983387E-01  0.55817857297E-02 -0.57993615984E-01  0.84753763951E-01  0.51100000000E-03 0.  1.
</event>
<event>
 8    1  0.1120016E+005  0.1043930E+01  0.7957747E-01            NaN
         13   -1    0    0    0    0  0.00000000000E+00  0.00000000000E+00  0.74505805969E-08  0.10566000000E+00  0.10566000000E+00 0.  1.
     999900   -1    0    0    0    0 -0.00000000000E+00 -0.00000000000E+00 -0.74505805969E-08  0.93827000000E+00  0.93827000000E+00 0.  1.
     999902    2    1    2    0    0 -0.37521041553E-02 -0.96430379304E-02  0.20964418859E-01  0.10205510923E+01  0.10202832738E+01 0.  0.
     999903    2    3    3    0    0 -0.89313904210E-01 -0.40658012261E-01  0.87930145189E-01  0.13332667947E+00  0.20353023820E-01 0.  0.
         14    1    1    2    0    0  0.37521041553E-02  0.96430379304E-02 -0.20964418859E-01  0.23378907678E-01  0.00000000000E+00 0. -1.
     999901    1    3    3    0    0  0.85561800055E-01  0.31014974331E-01 -0.66965726330E-01  0.88722441285E+00  0.88000000000E+00 0.  1.
        -11    1    4    4    0    0 -0.61396093506E-01 -0.37687826719E-01  0.60572620792E-01  0.94123090106E-01  0.51100000000E-03 0. -1.
         11    1    4    4    0    0 -0.27917810704E-01 -0.29701855426E-02  0.27357524398E-01  0.39203589362E-01  0.51100000000E-03 0.  1.
</event>
<event>
 8    1  0.1120016E+005  0.1043930E+01  0.7957747E-01            NaN
         13   -1    0    0    0    0  0.00000000000E+00  0.00000000000E+00  0.74505805969E-08  0.10566000000E+00  0.10566000000E+00 0.  1.
     999900   -1    0    0    0    0 -0.00000000000E+00 -0.00000000000E+00 -0.74505805969E-08  0.93827000000E+00  0.93827000000E+00 0.  1.
     999902    2    1    2    0    0 -0.17204387012E-01 -0.16337506372E-01 -0.19363943355E-02  0.10201254906E+01  0.10198477150E+01 0.  0.
     999903    2    3    3    0    0  0.32057252653E-01  0.40244325746E-01  0.11689904887E+00  0.12897450703E+00  0.17937743312E-01 0.  0.
         14    1    1    2    0    0  0.17204387012E-01  0.16337506372E-01  0.19363943355E-02  0.23804509445E-01  0.00000000000E+00 0.  1.
     999901    1    3    3    0    0 -0.49261639665E-01 -0.56581832118E-01 -0.11883544321E+00  0.89115098352E+00  0.88000000000E+00 0.  1.
        -11    1    4    4    0    0  0.10499331818E-01  0.27132127702E-01  0.67411614025E-01  0.73423260270E-01  0.51100000000E-03 0. -1.
         11    1    4    4    0    0  0.21557920835E-01  0.13112198044E-01  0.49487434847E-01  0.55551246764E-01  0.51100000000E-03 0.  1.
</event>
<event>
 8    1  0.1120016E+005  0.1043930E+01  0.7957747E-01            NaN
         13   -1    0    0    0    0  0.00000000000E+00  0.00000000000E+00  0.74505805969E-08  0.10566000000E+00  0.10566000000E+00 0.  1.
     999900   -1    0    0    0    0 -0.00000000000E+00 -0.00000000000E+00 -0.74505805969E-08  0.93827000000E+00  0.93827000000E+00 0. -1.
     999902    2    1    2    0    0 -0.14002882530E-01  0.55598224713E-02 -0.17482113187E-01  0.10208515116E+01  0.10205906095E+01 0.  0.
     999903    2    3    3    0    0  0.65931065477E-01 -0.79223200129E-02  0.10752441510E+00  0.12832821425E+00  0.22292648575E-01 0.  0.
         14    1    1    2    0    0  0.14002882530E-01 -0.55598224713E-02  0.17482113187E-01  0.23078488394E-01  0.00000000000E+00 0.  1.
     999901    1    3    3    0    0 -0.79933948008E-01  0.13482142484E-01 -0.12500652829E+00  0.89252329736E+00  0.88000000000E+00 0. -1.
        -11    1    4    4    0    0  0.16808999445E-01 -0.57784060573E-02  0.13874765616E-01  0.22554438163E-01  0.51100000000E-03 0. -1.
         11    1    4    4    0    0  0.49122066032E-01 -0.21439139556E-02  0.93649649483E-01  0.10577377609E+00  0.51100000000E-03 0.  1.
</event>
<event>
 8    1  0.1120016E+005  0.1043930E+01  0.7957747E-01            NaN
         13   -1    0    0    0    0  0.00000000000E+00  0.00000000000E+00  0.74505805969E-08  0.10566000000E+00  0.10566000000E+00 0.  1.
     999900   -1    0    0    0    0 -0.00000000000E+00 -0.00000000000E+00 -0.74505805969E-08  0.93827000000E+00  0.93827000000E+00 0. -1.
     999902    2    1    2    0    0  0.35795510575E-02 -0.14857360992E-01  0.18306932589E-01  0.10200826072E+01  0.10198038181E+01 0.  0.
     999903    2    3    3    0    0 -0.96002365462E-01 -0.29820921614E-01 -0.78405020095E-01  0.12907549836E+00  0.20184042255E-01 0.  0.
         14    1    1    2    0    0 -0.35795510575E-02  0.14857360992E-01 -0.18306932589E-01  0.23847392777E-01  0.00000000000E+00 0. -1.
     999901    1    3    3    0    0  0.99581916519E-01  0.14963560622E-01  0.96711952684E-01  0.89100710886E+00  0.88000000000E+00 0.  1.
        -11    1    4    4    0    0 -0.18466970635E-01 -0.12047754261E-01 -0.10238404218E-01  0.24315908971E-01  0.51100000000E-03 0. -1.
         11    1    4    4    0    0 -0.77535394827E-01 -0.17773167353E-01 -0.68166615878E-01  0.10475958939E+00  0.51100000000E-03 0.  1.
</event>
<event>
 8    1  0.1120016E+005  0.1043930E+01  0.7957747E-01            NaN
         13   -1    0    0    0    0  0.00000000000E+00  0.00000000000E+00  0.74505805969E-08  0.10566000000E+00  0.10566000000E+00 0.  1.
     999900   -1    0    0    0    0 -0.00000000000E+00 -0.00000000000E+00 -0.74505805969E-08  0.93827000000E+00  0.93827000000E+00 0. -1.
     999902    2    1    2    0    0  0.20616321076E-01 -0.11514821714E-01  0.66658164266E-02  0.10193931517E+01  0.10190978073E+01 0.  0.
     999903    2    3    3    0    0 -0.11033786876E+00 -0.26968815637E-03  0.61553818588E-01  0.12794032313E+00  0.20132950232E-01 0.  0.
         14    1    1    2    0    0 -0.20616321076E-01  0.11514821714E-01 -0.66658164266E-02  0.24536848258E-01  0.00000000000E+00 0.  1.
     999901    1    3    3    0    0  0.13095418983E+00 -0.11245133558E-01 -0.54888002162E-01  0.89145282861E+00  0.88000000000E+00 0.  1.
        -11    1    4    4    0    0 -0.38162383895E-01  0.94763238561E-02  0.22026338420E-01  0.45073151249E-01  0.51100000000E-03 0.  1.
         11    1    4    4    0    0 -0.72175484864E-01 -0.97460120124E-02  0.39527480168E-01  0.82867171878E-01  0.51100000000E-03 0. -1.
</event>
<event>
 8    1  0.1120016E+005  0.1043930E+01  0.7957747E-01            NaN
         13   -1    0    0    0    0  0.00000000000E+00  0.00000000000E+00  0.74505805969E-08  0.10566000000E+00  0.10566000000E+00 0.  1.
     999900   -1    0    0    0    0 -0.00000000000E+00 -0.00000000000E+00 -0.74505805969E-08  0.93827000000E+00  0.93827000000E+00 0.  1.
     999902    2    1    2    0    0 -0.14516128443E-01  0.13145591718E-01  0.12874948982E-01  0.10204930873E+01  0.10202239226E+01 0.  0.
     999903    2    3    3    0    0  0.77725310358E-01 -0.25375276205E-01 -0.96269985033E-01  0.12813387882E+00  0.21569709569E-01 0.  0.
         14    1    1    2    0    0  0.14516128443E-01 -0.13145591718E-01 -0.12874948982E-01  0.23436912721E-01  0.00000000000E+00 0. -1.
     999901    1    3    3    0    0 -0.92241438801E-01  0.38520867923E-01  0.10914493402E+00  0.89235920846E+00  0.88000000000E+00 0. -1.
        -11    1    4    4    0    0  0.14815389422E-01  0.33540472545E-02 -0.20877562835E-01  0.25824003323E-01  0.51100000000E-03 0.  1.
         11    1    4    4    0    0  0.62909920936E-01 -0.28729323459E-01 -0.75392422198E-01  0.10230987550E+00  0.51100000000E-03 0. -1.
</event>
<event>
 8    1  0.1120016E+005  0.1043930E+01  0.7957747E-01            NaN
         13   -1    0    0    0    0  0.00000000000E+00  0.00000000000E+00  0.74505805969E-08  0.10566000000E+00  0.10566000000E+00 0. -1.
     999900   -1    0    0    0    0 -0.00000000000E+00 -0.00000000000E+00 -0.74505805969E-08  0.93827000000E+00  0.93827000000E+00 0.  1.
     999902    2    1    2    0    0  0.13516045828E-01  0.74576886394E-02  0.17941929862E-01  0.10202611711E+01  0.10199865900E+01 0.  0.
     999903    2    3    3    0    0  0.32280853662E-01  0.11592552683E+00  0.52383023020E-01  0.13273450736E+00  0.19841548809E-01 0.  0.
         14    1    1    2    0    0 -0.13516045828E-01 -0.74576886394E-02 -0.17941929862E-01  0.23668828907E-01  0.00000000000E+00 0.  1.
     999901    1    3    3    0    0 -0.18764807835E-01 -0.10846783819E+00 -0.34441093158E-01  0.88752666373E+00  0.88000000000E+00 0. -1.
        -11    1    4    4    0    0  0.33059767847E-01  0.87868365070E-01  0.39813631759E-01  0.10197639053E+00  0.51100000000E-03 0.  1.
         11    1    4    4    0    0 -0.77891418487E-03  0.28057161764E-01  0.12569391261E-01  0.30758116835E-01  0.51100000000E-03 0. -1.
</event>
<event>
 8    1  0.1120016E+005  0.1043930E+01  0.7957747E-01            NaN
         13   -1    0    0    0    0  0.00000000000E+00  0.00000000000E+00  0.74505805969E-08  0.10566000000E+00  0.10566000000E+00 0.  1.
     999900   -1    0    0    0    0 -0.00000000000E+00 -0.00000000000E+00 -0.74505805969E-08  0.93827000000E+00  0.93827000000E+00 0. -1.
     999902    2    1    2    0    0 -0.84924263638E-02 -0.16739063756E-01  0.14983734554E-01  0.10199127174E+01  0.10196298943E+01 0.  0.
     999903    2    3    3    0    0  0.94796522864E-01  0.82871296734E-01 -0.11117430383E-01  0.12790817609E+00  0.19567107193E-01 0.  0.
         14    1    1    2    0    0  0.84924263638E-02  0.16739063756E-01 -0.14983734554E-01  0.24017282572E-01  0.00000000000E+00 0. -1.
     999901    1    3    3    0    0 -0.10328894923E+00 -0.99610360490E-01  0.26101164936E-01  0.89200454133E+00  0.88000000000E+00 0. -1.
        -11    1    4    4    0    0  0.79282422260E-01  0.60693062841E-01 -0.40496017137E-02  0.99930029278E-01  0.51100000000E-03 0. -1.
         11    1    4    4    0    0  0.15514100604E-01  0.22178233894E-01 -0.70678286689E-02  0.27978146816E-01  0.51100000000E-03 0.  1.
</event>
<event>
 8    1  0.1120016E+005  0.1043930E+01  0.7957747E-01            NaN
         13   -1    0    0    0    0  0.00000000000E+00  0.00000000000E+00  0.74505805969E-08  0.10566000000E+00  0.10566000000E+00 0.  1.
     999900   -1    0    0    0    0 -0.00000000000E+00 -0.00000000000E+00 -0.74505805969E-08  0.93827000000E+00  0.93827000000E+00 0. -1.
     999902    2    1    2    0    0 -0.10973645755E-01  0.12214133281E-01 -0.16147584125E-01  0.10209006616E+01  0.10206408822E+01 0.  0.
     999903    2    3    3    0    0 -0.93640470042E-01 -0.49353385739E-01  0.73289924616E-01  0.13038203116E+00  0.20585594117E-01 0.  0.
         14    1    1    2    0    0  0.10973645755E-01 -0.12214133281E-01  0.16147584125E-01  0.23029338376E-01  0.00000000000E+00 0.  1.
     999901    1    3    3    0    0  0.82666824287E-01  0.61567519020E-01 -0.89437508741E-01  0.89051863047E+00  0.88000000000E+00 0. -1.
        -11    1    4    4    0    0 -0.20468126956E-01 -0.18886411350E-01  0.12702252957E-01  0.30614524428E-01  0.51100000000E-03 0.  1.
         11    1    4    4    0    0 -0.73172343087E-01 -0.30466974389E-01  0.60587671659E-01  0.99767506731E-01  0.51100000000E-03 0. -1.
</event>
<event>
 8    1  0.1120016E+005  0.1043930E+01  0.7957747E-01            NaN
         13   -1    0    0    0    0  0.00000000000E+00  0.00000000000E+00  0.74505805969E-08  0.10566000000E+00  0.10566000000E+00 0.  1.
     999900   -1    0    0    0    0 -0.00000000000E+00 -0.00000000000E+00 -0.74505805969E-08  0.93827000000E+00  0.93827000000E+00 0. -1.
     999902    2    1    2    0    0  0.21222215866E-01 -0.63491801048E-02  0.97400389472E-02  0.10197315932E+01  0.10194444366E+01 0.  0.
     999903    2    3    3    0    0 -0.63290617523E-01 -0.11041335758E+00  0.11309935269E-01  0.12957754099E+00  0.21578060502E-01 0.  0.
         14    1    1    2    0    0 -0.21222215866E-01  0.63491801048E-02 -0.97400389472E-02  0.24198406827E-01  0.00000000000E+00 0. -1.
     999901    1    3    3    0    0  0.84512833390E-01  0.10406417747E+00 -0.15698963214E-02  0.89015405218E+00  0.88000000000E+00 0.  1.
        -11    1    4    4    0    0 -0.25578076738E-01 -0.38058855157E-01  0.13972337848E-01  0.47939564156E-01  0.51100000000E-03 0. -1.
         11    1    4    4    0    0 -0.37712540785E-01 -0.72354502422E-01 -0.26624025795E-02  0.81637976835E-01  0.51100000000E-03 0.  1.
</event>
<event>
 8    1  0.1120016E+005  0.1043930E+01  0.7957747E-01            NaN
         13   -1    0    0    0    0  0.00000000000E+00  0.00000000000E+00  0.74505805969E-08  0.10566000000E+00  0.10566000000E+00 0.  1.
     999900   -1    0    0    0    0 -0.00000000000E+00 -0.00000000000E+00 -0.74505805969E-08  0.93827000000E+00  0.93827000000E+00 0. -1.
     999902    2    1    2    0    0 -0.19012324765E-01  0.70478647338E-02  0.12384203417E-01  0.10201705938E+01  0.10198938822E+01 0.  0.
     999903    2    3    3    0    0 -0.80166739898E-01  0.89555892677E-01  0.53845506995E-01  0.13322838772E+00  0.20087323687E-01 0.  0.
         14    1    1    2    0    0  0.19012324765E-01 -0.70478647338E-02 -0.12384203417E-01  0.23759406233E-01  0.00000000000E+00 0.  1.
     999901    1    3    3    0    0  0.61154415133E-01 -0.82508027944E-01 -0.41461303577E-01  0.88694220604E+00  0.88000000000E+00 0. -1.
        -11    1    4    4    0    0 -0.62428649963E-01  0.70547904421E-01  0.50848818332E-01  0.10705235449E+00  0.51100000000E-03 0. -1.
         11    1    4    4    0    0 -0.17738089935E-01  0.19007988256E-01  0.29966886629E-02  0.26176033237E-01  0.51100000000E-03 0.  1.
</event>
<event>
 8    1  0.1120016E+005  0.1043930E+01  0.7957747E-01            NaN
         13   -1    0    0    0    0  0.00000000000E+00  0.00000000000E+00  0.74505805969E-08  0.10566000000E+00  0.10566000000E+00 0. -1.
     999900   -1    0    0    0    0 -0.00000000000E+00 -0.00000000000E+00 -0.74505805969E-08  0.93827000000E+00  0.93827000000E+00 0.  1.
     999902    2    1    2    0    0  0.16036939998E-01 -0.17146203476E-01  0.42410689841E-02  0.10200728752E+01  0.10197938558E+01 0.  0.
     999903    2    3    3    0    0 -0.44422445394E-01 -0.44522902911E-01 -0.11201501881E+00  0.12994912036E+00  0.19589969505E-01 0.  0.
         14    1    1    2    0    0 -0.16036939998E-01  0.17146203476E-01 -0.42410689841E-02  0.23857124811E-01  0.00000000000E+00 0.  1.
     999901    1    3    3    0    0  0.60459385391E-01  0.27376699435E-01  0.11625608780E+00  0.89012375483E+00  0.88000000000E+00 0. -1.
        -11    1    4    4    0    0 -0.14143920350E-01 -0.25175604193E-01 -0.61634293950E-01  0.68065474663E-01  0.51100000000E-03 0. -1.
         11    1    4    4    0    0 -0.30278525043E-01 -0.19347298717E-01 -0.50380724864E-01  0.61883645701E-01  0.51100000000E-03 0.  1.
</event>
<event>
 8    1  0.1120016E+005  0.1043930E+01  0.7957747E-01            NaN
         13   -1    0    0    0    0  0.00000000000E+00  0.00000000000E+00  0.74505805969E-08  0.10566000000E+00  0.10566000000E+00 0.  1.
     999900   -1    0    0    0    0 -0.00000000000E+00 -0.00000000000E+00 -0.74505805969E-08  0.93827000000E+00  0.93827000000E+00 0. -1.
     999902    2    1    2    0    0  0.17726625916E-01  0.14267423152E-01 -0.61793053691E-02  0.10203508472E+01  0.10200783671E+01 0.  0.
     999903    2    3    3    0    0  0.46520114226E-01  0.12017952360E+00 -0.27172952012E-01  0.13328423690E+00  0.20471432880E-01 0.  0.
         14    1    1    2    0    0 -0.17726625916E-01 -0.14267423152E-01  0.61793053691E-02  0.23579152754E-01  0.00000000000E+00 0.  1.
     999901    1    3    3    0    0 -0.28793488310E-01 -0.10591210045E+00  0.20993646642E-01  0.88706661035E+00  0.88000000000E+00 0.  1.
        -11    1    4    4    0    0  0.42590202608E-01  0.89476894000E-01 -0.25269086238E-01  0.10226841036E+00  0.51100000000E-03 0.  1.
         11    1    4    4    0    0  0.39299116172E-02  0.30702629603E-01 -0.19038657733E-02  0.31015826536E-01  0.51100000000E-03 0. -1.
</event>
<event>
 8    1  0.1120016E+005  0.1043930E+01  0.7957747E-01            NaN
         13   -1    0    0    0    0  0.00000000000E+00  0.00000000000E+00  0.74505805969E-08  0.10566000000E+00  0.10566000000E+00 0. -1.
     999900   -1    0    0    0    0 -0.00000000000E+00 -0.00000000000E+00 -0.74505805969E-08  0.93827000000E+00  0.93827000000E+00 0.  1.
     999902    2    1    2    0    0  0.29139853379E-02  0.22068978712E-02  0.23130934405E-01  0.10205120190E+01  0.10202432940E+01 0.  0.
     999903    2    3    3    0    0  0.63250684224E-01  0.44010383841E-01 -0.10096168960E+00  0.12877942004E+00  0.21291155858E-01 0.  0.
         14    1    1    2    0    0 -0.29139853379E-02 -0.22068978712E-02 -0.23130934405E-01  0.23417981024E-01  0.00000000000E+00 0.  1.
     999901    1    3    3    0    0 -0.60336698886E-01 -0.41803485970E-01  0.12409262401E+00  0.89173259894E+00  0.88000000000E+00 0.  1.
        -11    1    4    4    0    0  0.46437430386E-01  0.25892547688E-01 -0.81523271942E-01  0.97330180087E-01  0.51100000000E-03 0.  1.
         11    1    4    4    0    0  0.16813253837E-01  0.18117836153E-01 -0.19438417662E-01  0.31449239953E-01  0.51100000000E-03 0. -1.
</event>
<event>
 8    1  0.1120016E+005  0.1043930E+01  0.7957747E-01            NaN
         13   -1    0    0    0    0  0.00000000000E+00  0.00000000000E+00  0.74505805969E-08  0.10566000000E+00  0.10566000000E+00 0. -1.
     999900   -1    0    0    0    0 -0.00000000000E+00 -0.00000000000E+00 -0.74505805969E-08  0.93827000000E+00  0.93827000000E+00 0. -1.
     999902    2    1    2    0    0  0.17586295866E-01 -0.87970713896E-02 -0.14212668986E-01  0.10196675552E+01  0.10193788584E+01 0.  0.
     999903    2    3    3    0    0 -0.50748310708E-01 -0.10595062995E+00 -0.53915213363E-01  0.13080045355E+00  0.20024519723E-01 0.  0.
         14    1    1    2    0    0 -0.17586295866E-01  0.87970713896E-02  0.14212668986E-01  0.24262444787E-01  0.00000000000E+00 0. -1.
     999901    1    3    3    0    0  0.68334606574E-01  0.97153558557E-01  0.39702544376E-01  0.88886710167E+00  0.88000000000E+00 0. -1.
        -11    1    4    4    0    0 -0.48583864770E-02 -0.30060868422E-01 -0.15056399602E-01  0.33973754862E-01  0.51100000000E-03 0. -1.
         11    1    4    4    0    0 -0.45889924231E-01 -0.75889761524E-01 -0.38858813761E-01  0.96826698684E-01  0.51100000000E-03 0.  1.
</event>
<event>
 8    1  0.1120016E+005  0.1043930E+01  0.7957747E-01            NaN
         13   -1    0    0    0    0  0.00000000000E+00  0.00000000000E+00  0.74505805969E-08  0.10566000000E+00  0.10566000000E+00 0. -1.
     999900   -1    0    0    0    0 -0.00000000000E+00 -0.00000000000E+00 -0.74505805969E-08  0.93827000000E+00  0.93827000000E+00 0. -1.
     999902    2    1    2    0    0 -0.19715976154E-01  0.13795183863E-01  0.75457630565E-02  0.10187116465E+01  0.10183994567E+01 0.  0.
     999903    2    3    3    0    0 -0.19354268262E-01  0.12367125734E+00 -0.32349722760E-01  0.13098165818E+00  0.20988630860E-01 0.  0.
         14    1    1    2    0    0  0.19715976154E-01 -0.13795183863E-01 -0.75457630565E-02  0.25218353507E-01  0.00000000000E+00 0. -1.
     999901    1    3    3    0    0 -0.36170789169E-03 -0.10987607348E+00  0.39895485817E-01  0.88772998831E+00  0.88000000000E+00 0.  1.
        -11    1    4    4    0    0  0.41937654741E-02  0.30891897179E-01 -0.90031371249E-02  0.32453267620E-01  0.51100000000E-03 0. -1.
         11    1    4    4    0    0 -0.23548033737E-01  0.92779360162E-01 -0.23346585636E-01  0.98528390563E-01  0.51100000000E-03 0.  1.
</event>
<event>
 8    1  0.1120016E+005  0.1043930E+01  0.7957747E-01            NaN
         13   -1    0    0    0    0  0.00000000000E+00  0.00000000000E+00  0.74505805969E-08  0.10566000000E+00  0.10566000000E+00 0.  1.
     999900   -1    0    0    0    0 -0.00000000000E+00 -0.00000000000E+00 -0.74505805969E-08  0.93827000000E+00  0.93827000000E+00 0.  1.
     999902    2    1    2    0    0 -0.19931722369E-01  0.43586376807E-02 -0.91248203475E-02  0.10215797511E+01  0.10213352311E+01 0.  0.
     999903    2    3    3    0    0 -0.12662729328E+00 -0.10594324883E-01 -0.39749434439E-01  0.13448031873E+00  0.18926897896E-01 0.  0.
         14    1    1    2    0    0  0.19931722369E-01 -0.43586376807E-02  0.91248203475E-02  0.22350248889E-01  0.00000000000E+00 0. -1.
     999901    1    3    3    0    0  0.10669557091E+00  0.14952962564E-01  0.30624614092E-01  0.88709943238E+00  0.88000000000E+00 0.  1.
        -11    1    4    4    0    0 -0.10442362062E+00 -0.26383943547E-02 -0.28113407017E-01  0.10817522102E+00  0.51100000000E-03 0.  1.
         11    1    4    4    0    0 -0.22203672661E-01 -0.79559305281E-02 -0.11636027422E-01  0.26305097707E-01  0.51100000000E-03 0. -1.
</event>
<event>
 8    1  0.1120016E+005  0.1043930E+01  0.7957747E-01            NaN
         13   -1    0    0    0    0  0.00000000000E+00  0.00000000000E+00  0.74505805969E-08  0.10566000000E+00  0.10566000000E+00 0. -1.
     999900   -1    0    0    0    0 -0.00000000000E+00 -0.00000000000E+00 -0.74505805969E-08  0.93827000000E+00  0.93827000000E+00 0. -1.
     999902    2    1    2    0    0 -0.11544897132E-02 -0.19657331378E-01 -0.13211567395E-01  0.10202173655E+01  0.10199417551E+01 0.  0.
     999903    2    3    3    0    0  0.89584568086E-01 -0.20590446586E-01  0.88865851357E-01  0.12968143316E+00  0.21697309487E-01 0.  0.
         14    1    1    2    0    0  0.11544897132E-02  0.19657331378E-01  0.13211567395E-01  0.23712634532E-01  0.00000000000E+00 0. -1.
     999901    1    3    3    0    0 -0.90739057800E-01  0.93311520811E-03 -0.10207741875E+00  0.89053593231E+00  0.88000000000E+00 0. -1.
        -11    1    4    4    0    0  0.58372011353E-01 -0.15906022426E-01  0.43941095472E-01  0.74775492316E-01  0.51100000000E-03 0.  1.
         11    1    4    4    0    0  0.31212556733E-01 -0.46844241602E-02  0.44924755886E-01  0.54905940844E-01  0.51100000000E-03 0. -1.
</event>
<event>
 8    1  0.1120016E+005  0.1043930E+01  0.7957747E-01            NaN
         13   -1    0    0    0    0  0.00000000000E+00  0.00000000000E+00  0.74505805969E-08  0.10566000000E+00  0.10566000000E+00 0. -1.
     999900   -1    0    0    0    0 -0.00000000000E+00 -0.00000000000E+00 -0.74505805969E-08  0.93827000000E+00  0.93827000000E+00 0.  1.
     999902    2    1    2    0    0 -0.14971361416E-01  0.17372263566E-01 -0.71253918849E-02  0.10199152459E+01  0.10196324830E+01 0.  0.
     999903    2    3    3    0    0 -0.40384529448E-02 -0.26244376947E-02 -0.12939843734E+00  0.13116888492E+00  0.20931411998E-01 0.  0.
         14    1    1    2    0    0  0.14971361416E-01 -0.17372263566E-01  0.71253918849E-02  0.24014754081E-01  0.00000000000E+00 0.  1.
     999901    1    3    3    0    0 -0.10932908471E-01  0.19996701261E-01  0.12227304546E+00  0.88874636100E+00  0.88000000000E+00 0. -1.
        -11    1    4    4    0    0  0.14991639754E-02 -0.10432944811E-01 -0.44652439597E-01  0.45882407446E-01  0.51100000000E-03 0.  1.
         11    1    4    4    0    0 -0.55376169202E-02  0.78085071162E-02 -0.84745997746E-01  0.85286477471E-01  0.51100000000E-03 0. -1.
</event>
<event>
 8    1  0.1120016E+005  0.1043930E+01  0.7957747E-01            NaN
         13   -1    0    0    0    0  0.00000000000E+00  0.00000000000E+00  0.74505805969E-08  0.10566000000E+00  0.10566000000E+00 0.  1.
     999900   -1    0    0    0    0 -0.00000000000E+00 -0.00000000000E+00 -0.74505805969E-08  0.93827000000E+00  0.93827000000E+00 0.  1.
     999902    2    1    2    0    0 -0.62782971650E-02 -0.20057320764E-01 -0.10788691048E-01  0.10203056696E+01  0.10200321321E+01 0.  0.
     999903    2    3    3    0    0  0.74530488795E-02 -0.27976909874E-01  0.12494571044E+00  0.12975803052E+00  0.19684016466E-01 0.  0.
         14    1    1    2    0    0  0.62782971650E-02  0.20057320764E-01  0.10788691048E-01  0.23624330383E-01  0.00000000000E+00 0.  1.
     999901    1    3    3    0    0 -0.13731346044E-01  0.79195891107E-02 -0.13573440148E+00  0.89054763910E+00  0.88000000000E+00 0.  1.
        -11    1    4    4    0    0 -0.79242623788E-03  0.28940442985E-02  0.10053238558E-01  0.10503911569E-01  0.51100000000E-03 0.  1.
         11    1    4    4    0    0  0.82454751174E-02 -0.30870954173E-01  0.11489247188E+00  0.11925411895E+00  0.51100000000E-03 0. -1.
</event>
<event>
 8    1  0.1120016E+005  0.1043930E+01  0.7957747E-01            NaN
         13   -1    0    0    0    0  0.00000000000E+00  0.00000000000E+00  0.74505805969E-08  0.10566000000E+00  0.10566000000E+00 0.  1.
     999900   -1    0    0    0    0 -0.00000000000E+00 -0.00000000000E+00 -0.74505805969E-08  0.93827000000E+00  0.93827000000E+00 0. -1.
     999902    2    1    2    0    0 -0.11454075242E-01  0.20053909001E-01  0.17200307918E-02  0.10207715542E+01  0.10205088203E+01 0.  0.
     999903    2    3    3    0    0  0.79835159144E-01 -0.76396989355E-01 -0.62451484158E-01  0.12849666190E+00  0.20026273415E-01 0.  0.
         14    1    1    2    0    0  0.11454075242E-01 -0.20053909001E-01 -0.17200307918E-02  0.23158445799E-01  0.00000000000E+00 0.  1.
     999901    1    3    3    0    0 -0.91289234386E-01  0.96450898356E-01  0.64171514949E-01  0.89227489231E+00  0.88000000000E+00 0.  1.
        -11    1    4    4    0    0  0.33372402696E-01 -0.32910940902E-01 -0.37922701559E-01  0.60292949068E-01  0.51100000000E-03 0.  1.
         11    1    4    4    0    0  0.46462756448E-01 -0.43486048453E-01 -0.24528782599E-01  0.68203712828E-01  0.51100000000E-03 0. -1.
</event>
<event>
 8    1  0.1120016E+005  0.1043930E+01  0.7957747E-01            NaN
         13   -1    0    0    0    0  0.00000000000E+00  0.00000000000E+00  0.74505805969E-08  0.10566000000E+00  0.10566000000E+00 0. -1.
     999900   -1    0    0    0    0 -0.00000000000E+00 -0.00000000000E+00 -0.74505805969E-08  0.93827000000E+00  0.93827000000E+00 0. -1.
     999902    2    1    2    0    0  0.20997864840E-01 -0.84998209566E-02 -0.79936521417E-02  0.10199080151E+01  0.10196250799E+01 0.  0.
     999903    2    3    3    0    0  0.44527236154E-01 -0.57534496853E-02  0.12056046893E+00  0.13025227498E+00  0.20372813406E-01 0.  0.
         14    1    1    2    0    0 -0.20997864840E-01  0.84998209566E-02  0.79936521417E-02  0.24021984904E-01  0.00000000000E+00 0. -1.
     999901    1    3    3    0    0 -0.23529371314E-01 -0.27463712712E-02 -0.12855412108E+00  0.88965574011E+00  0.88000000000E+00 0. -1.
        -11    1    4    4    0    0  0.32952604760E-01 -0.95501577238E-02  0.66458449149E-01  0.74793490741E-01  0.51100000000E-03 0.  1.
         11    1    4    4    0    0  0.11574631395E-01  0.37967080385E-02  0.54102019785E-01  0.55458784243E-01  0.51100000000E-03 0. -1.
</event>
<event>
 8    1  0.1120016E+005  0.1043930E+01  0.7957747E-01            NaN
         13   -1    0    0    0    0  0.00000000000E+00  0.00000000000E+00  0.74505805969E-08  0.10566000000E+00  0.10566000000E+00 0. -1.
     999900   -1    0    0    0    0 -0.00000000000E+00 -0.00000000000E+00 -0.74505805969E-08  0.93827000000E+00  0.93827000000E+00 0.  1.
     999902    2    1    2    0    0  0.16662044531E-01 -0.88220026199E-02  0.14453309586E-01  0.10201739562E+01  0.10198973239E+01 0.  0.
     999903    2    3    3    0    0 -0.25458774786E-01 -0.12600742928E+00 -0.12285285575E-01  0.13100493960E+00  0.22030535889E-01 0.  0.
         14    1    1    2    0    0 -0.16662044531E-01  0.88220026199E-02 -0.14453309586E-01  0.23756043782E-01  0.00000000000E+00 0. -1.
     999901    1    3    3    0    0  0.42120819316E-01  0.11718542666E+00  0.26738595161E-01  0.88916901662E+00  0.88000000000E+00 0.  1.
        -11    1    4    4    0    0 -0.79289392336E-02 -0.80401419179E-01 -0.73390364092E-03  0.80796386175E-01  0.51100000000E-03 0.  1.
         11    1    4    4    0    0 -0.17529835552E-01 -0.45606010098E-01 -0.11551381934E-01  0.50208553426E-01  0.51100000000E-03 0. -1.
</event>
<event>
 8    1  0.1120016E+005  0.1043930E+01  0.7957747E-01            NaN
         13   -1    0    0    0    0  0.00000000000E+00  0.00000000000E+00  0.74505805969E-08  0.10566000000E+00  0.10566000000E+00 0.  1.
     999900   -1    0    0    0    0 -0.00000000000E+00 -0.00000000000E+00 -0.74505805969E-08  0.93827000000E+00  0.93827000000E+00 0.  1.
     999902    2    1    2    0    0  0.22174882274E-01  0.36122536164E-02 -0.78889683430E-02  0.10201180366E+01  0.10198400850E+01 0.  0.
     999903    2    3    3    0    0  0.10959660641E+00 -0.16509447946E-01 -0.71163216610E-01  0.13329727047E+00  0.20493435722E-01 0.  0.
         14    1    1    2    0    0 -0.22174882274E-01 -0.36122536164E-02  0.78889683430E-02  0.23811963413E-01  0.00000000000E+00 0.  1.
     999901    1    3    3    0    0 -0.87421724137E-01  0.20121701563E-01  0.63274248267E-01  0.88682076612E+00  0.88000000000E+00 0. -1.
        -11    1    4    4    0    0  0.77714876726E-01 -0.11772494642E-01 -0.38947602805E-01  0.87723261339E-01  0.51100000000E-03 0.  1.
         11    1    4    4    0    0  0.31881729685E-01 -0.47369533041E-02 -0.32215613805E-01  0.45574009129E-01  0.51100000000E-03 0. -1.
</event>
<event>
 8    1  0.1120016E+005  0.1043930E+01  0.7957747E-01            NaN
         13   -1    0    0    0    0  0.00000000000E+00  0.00000000000E+00  0.74505805969E-08  0.10566000000E+00  0.10566000000E+00 0. -1.
     999900   -1    0    0    0    0 -0.00000000000E+00 -0.00000000000E+00 -0.74505805969E-08  0.93827000000E+00  0.93827000000E+00 0. -1.
     999902    2    1    2    0    0 -0.20595703093E-01  0.16662126460E-02 -0.12448052277E-01  0.10198071217E+01  0.10195217763E+01 0.  0.
     999903    2    3    3    0    0  0.27797666515E-01  0.11891551446E+00  0.37952768595E-01  0.12928505028E+00  0.18989516562E-01 0.  0.
         14    1    1    2    0    0  0.20595703093E-01 -0.16662126460E-02  0.12448052277E-01  0.24122878268E-01  0.00000000000E+00 0.  1.
     999901    1    3    3    0    0 -0.48393369608E-01 -0.11724930181E+00 -0.50400820872E-01  0.89052207145E+00  0.88000000000E+00 0. -1.
        -11    1    4    4    0    0  0.24786818400E-01  0.94047502905E-01  0.22436393473E-01  0.99814688509E-01  0.51100000000E-03 0. -1.
         11    1    4    4    0    0  0.30108481149E-02  0.24868011554E-01  0.15516375122E-01  0.29470361771E-01  0.51100000000E-03 0.  1.
</event>
<event>
 8    1  0.1120016E+005  0.1043930E+01  0.7957747E-01            NaN
         13   -1    0    0    0    0  0.00000000000E+00  0.00000000000E+00  0.74505805969E-08  0.10566000000E+00  0.10566000000E+00 0.  1.
     999900   -1    0    0    0    0 -0.00000000000E+00 -0.00000000000E+00 -0.74505805969E-08  0.93827000000E+00  0.93827000000E+00 0. -1.
     999902    2    1    2    0    0 -0.10177591722E-01 -0.14723713420E-01  0.15502847687E-01  0.10202506969E+01  0.10199758698E+01 0.  0.
     999903    2    3    3    0    0  0.61906817609E-01  0.75016605925E-01  0.84081711036E-01  0.13010882757E+00  0.19965661790E-01 0.  0.
         14    1    1    2    0    0  0.10177591722E-01  0.14723713420E-01 -0.15502847687E-01  0.23679303126E-01  0.00000000000E+00 0. -1.
     999901    1    3    3    0    0 -0.72084409331E-01 -0.89740319345E-01 -0.68578863349E-01  0.89014186930E+00  0.88000000000E+00 0. -1.
        -11    1    4    4    0    0  0.27595898856E-01  0.32791281722E-01  0.24286149670E-01  0.49263373590E-01  0.51100000000E-03 0.  1.
         11    1    4    4    0    0  0.34310918753E-01  0.42225324203E-01  0.59795561365E-01  0.80845453983E-01  0.51100000000E-03 0. -1.
</event>
<event>
 8    1  0.1120016E+005  0.1043930E+01  0.7957747E-01            NaN
         13   -1    0    0    0    0  0.00000000000E+00  0.00000000000E+00  0.74505805969E-08  0.10566000000E+00  0.10566000000E+00 0.  1.
     999900   -1    0    0    0    0 -0.00000000000E+00 -0.00000000000E+00 -0.74505805969E-08  0.93827000000E+00  0.93827000000E+00 0.  1.
     999902    2    1    2    0    0  0.10163099207E-01 -0.18207611720E-01  0.10268129856E-01  0.10206869322E+01  0.10204222525E+01 0.  0.
     999903    2    3    3    0    0  0.10467379300E+00  0.73531434905E-01  0.18654070750E-01  0.13084500920E+00  0.20222937923E-01 0.  0.
         14    1    1    2    0    0 -0.10163099207E-01  0.18207611720E-01 -0.10268129856E-01  0.23243067800E-01  0.00000000000E+00 0. -1.
     999901    1    3    3    0    0 -0.94510693792E-01 -0.91739046624E-01 -0.83859408944E-02  0.88984192300E+00  0.88000000000E+00 0. -1.
        -11    1    4    4    0    0  0.58956325990E-01  0.32067863702E-01  0.30659438554E-02  0.67185246814E-01  0.51100000000E-03 0.  1.
         11    1    4    4    0    0  0.45717467008E-01  0.41463571202E-01  0.15588126895E-01  0.63659762390E-01  0.51100000000E-03 0. -1.
</event>
<event>
 8    1  0.1182510E+005  0.1043930E+01  0.7957747E-01            NaN
         13   -1    0    0    0    0  0.00000000000E+00  0.00000000000E+00  0.74505805969E-08  0.10566000000E+00  0.10566000000E+00 0. -1.
     999900   -1    0    0    0    0 -0.00000000000E+00 -0.00000000000E+00 -0.74505805969E-08  0.93827000000E+00  0.93827000000E+00 0. -1.
     999902    2    1    2    0    0  0.67553735793E-02  0.11451784480E-01  0.20075788133E-01  0.10198506373E+01  0.10195663326E+01 0.  0.
     999903    2    3    3    0    0  0.53149059668E-01  0.29423541304E-02  0.12130269220E+00  0.13279276396E+00  0.92787409304E-02 0.  0.
         14    1    1    2    0    0 -0.67553735793E-02 -0.11451784480E-01 -0.20075788133E-01  0.24079362723E-01  0.00000000000E+00 0.  1.
     999901    1    3    3    0    0 -0.46393686089E-01  0.85094303498E-02 -0.10122690406E+00  0.88705787332E+00  0.88000000000E+00 0. -1.
        -11    1    4    4    0    0  0.26315671481E-01  0.23774338639E-02  0.71295163528E-01  0.76035703592E-01  0.51100000000E-03 0. -1.
         11    1    4    4    0    0  0.26833388187E-01  0.56492026643E-03  0.50007528670E-01  0.56757060364E-01  0.51100000000E-03 0.  1.
</event>
<event>
 8    1  0.1120016E+005  0.1043930E+01  0.7957747E-01            NaN
         13   -1    0    0    0    0  0.00000000000E+00  0.00000000000E+00  0.74505805969E-08  0.10566000000E+00  0.10566000000E+00 0.  1.
     999900   -1    0    0    0    0 -0.00000000000E+00 -0.00000000000E+00 -0.74505805969E-08  0.93827000000E+00  0.93827000000E+00 0.  1.
     999902    2    1    2    0    0  0.15565923134E-01  0.15886656167E-02  0.15803593583E-01  0.10216909490E+01  0.10214488826E+01 0.  0.
     999903    2    3    3    0    0 -0.19370780685E-01  0.86164842086E-01 -0.93465093180E-01  0.13022398444E+00  0.20565877691E-01 0.  0.
         14    1    1    2    0    0 -0.15565923134E-01 -0.15886656167E-02 -0.15803593583E-01  0.22239051049E-01  0.00000000000E+00 0. -1.
     999901    1    3    3    0    0  0.34936703819E-01 -0.84576176469E-01  0.10926868676E+00  0.89146696451E+00  0.88000000000E+00 0. -1.
        -11    1    4    4    0    0 -0.85100072029E-02  0.35835814865E-01 -0.24835335323E-01  0.44426128025E-01  0.51100000000E-03 0. -1.
         11    1    4    4    0    0 -0.10860773483E-01  0.50329027220E-01 -0.68629757857E-01  0.85797856419E-01  0.51100000000E-03 0.  1.
</event>
<event>
 8    1  0.1120016E+005  0.1043930E+01  0.7957747E-01            NaN
         13   -1    0    0    0    0  0.00000000000E+00  0.00000000000E+00  0.74505805969E-08  0.10566000000E+00  0.10566000000E+00 0.  1.
     999900   -1    0    0    0    0 -0.00000000000E+00 -0.00000000000E+00 -0.74505805969E-08  0.93827000000E+00  0.93827000000E+00 0. -1.
     999902    2    1    2    0    0 -0.94663620820E-02  0.22739984513E-01 -0.75866907196E-03  0.10192866543E+01  0.10189887091E+01 0.  0.
     999903    2    3    3    0    0 -0.28351400476E-01  0.35978466595E-02 -0.12543688737E+00  0.13009166771E+00  0.19304996374E-01 0.  0.
         14    1    1    2    0    0  0.94663620820E-02 -0.22739984513E-01  0.75866907196E-03  0.24643345663E-01  0.00000000000E+00 0. -1.
     999901    1    3    3    0    0  0.18885038394E-01  0.19142137853E-01  0.12467821830E+00  0.88919498662E+00  0.88000000000E+00 0.  1.
        -11    1    4    4    0    0 -0.14451607883E-01 -0.76498473783E-02 -0.67624140685E-01  0.69574813400E-01  0.51100000000E-03 0.  1.
         11    1    4    4    0    0 -0.13899792593E-01  0.11247694038E-01 -0.57812746689E-01  0.60516854314E-01  0.51100000000E-03 0. -1.
</event>
<event>
 8    1  0.1120016E+005  0.1043930E+01  0.7957747E-01            NaN
         13   -1    0    0    0    0  0.00000000000E+00  0.00000000000E+00  0.74505805969E-08  0.10566000000E+00  0.10566000000E+00 0.  1.
     999900   -1    0    0    0    0 -0.00000000000E+00 -0.00000000000E+00 -0.74505805969E-08  0.93827000000E+00  0.93827000000E+00 0.  1.
     999902    2    1    2    0    0 -0.72920568804E-02 -0.11503476723E-01 -0.22558813025E-01  0.10175784514E+01  0.10172371899E+01 0.  0.
     999903    2    3    3    0    0  0.30579442934E-01 -0.85143679884E-01 -0.92539059851E-01  0.13092498751E+00  0.19832453270E-01 0.  0.
         14    1    1    2    0    0  0.72920568804E-02  0.11503476723E-01  0.22558813025E-01  0.26351548632E-01  0.00000000000E+00 0.  1.
     999901    1    3    3    0    0 -0.37871499814E-01  0.73640203161E-01  0.69980246827E-01  0.88665346385E+00  0.88000000000E+00 0. -1.
        -11    1    4    4    0    0  0.15341447113E-01 -0.17549145083E-01 -0.22509227696E-01  0.32407698856E-01  0.51100000000E-03 0.  1.
         11    1    4    4    0    0  0.15237995821E-01 -0.67594534801E-01 -0.70029832156E-01  0.98517288657E-01  0.51100000000E-03 0. -1.
</event>
<event>
 8    1  0.1120016E+005  0.1043930E+01  0.7957747E-01            NaN
         13   -1    0    0    0    0  0.00000000000E+00  0.00000000000E+00  0.74505805969E-08  0.10566000000E+00  0.10566000000E+00 0.  1.
     999900   -1    0    0    0    0 -0.00000000000E+00 -0.00000000000E+00 -0.74505805969E-08  0.93827000000E+00  0.93827000000E+00 0.  1.
     999902    2    1    2    0    0 -0.58480159574E-02  0.21327709345E-01  0.11225348897E-01  0.10191292150E+01  0.10188274035E+01 0.  0.
     999903    2    3    3    0    0  0.16647384086E-01  0.12295237736E+00  0.41839769416E-01  0.13246645000E+00  0.20059201742E-01 0.  0.
         14    1    1    2    0    0  0.58480159574E-02 -0.21327709345E-01 -0.11225348897E-01  0.24800784956E-01  0.00000000000E+00 0.  1.
     999901    1    3    3    0    0 -0.22495400044E-01 -0.10162466802E+00 -0.30614420519E-01  0.88666276504E+00  0.88000000000E+00 0.  1.
        -11    1    4    4    0    0  0.14023431339E-01  0.35687350902E-01  0.11392754579E-01  0.40003745060E-01  0.51100000000E-03 0. -1.
         11    1    4    4    0    0  0.26239527474E-02  0.87265026461E-01  0.30447014837E-01  0.92462704940E-01  0.51100000000E-03 0.  1.
</event>
<event>
 8    1  0.1120016E+005  0.1043930E+01  0.7957747E-01            NaN
         13   -1    0    0    0    0  0.00000000000E+00  0.00000000000E+00  0.74505805969E-08  0.10566000000E+00  0.10566000000E+00 0. -1.
     999900   -1    0    0    0    0 -0.00000000000E+00 -0.00000000000E+00 -0.74505805969E-08  0.93827000000E+00  0.93827000000E+00 0. -1.
     999902    2    1    2    0    0 -0.14956763758E-01  0.51225032835E-02 -0.17906207807E-01  0.10200432443E+01  0.10197635231E+01 0.  0.
     999903    2    3    3    0    0  0.52485187962E-01 -0.58619019422E-01 -0.10289324479E+00  0.13109206729E+00  0.20179838688E-01 0.  0.
         14    1    1    2    0    0  0.14956763758E-01 -0.51225032835E-02  0.17906207807E-01  0.23886755745E-01  0.00000000000E+00 0. -1.
     999901    1    3    3    0    0 -0.67441951721E-01  0.63741522706E-01  0.84987036985E-01  0.88895117696E+00  0.88000000000E+00 0.  1.
        -11    1    4    4    0    0  0.43913303719E-01 -0.38907090798E-01 -0.84048432006E-01  0.10250141463E+00  0.51100000000E-03 0. -1.
         11    1    4    4    0    0  0.85718842436E-02 -0.19711928624E-01 -0.18844812786E-01  0.28590652660E-01  0.51100000000E-03 0.  1.
</event>
<event>
 8    1  0.1120016E+005  0.1043930E+01  0.7957747E-01            NaN
         13   -1    0    0    0    0  0.00000000000E+00  0.00000000000E+00  0.74505805969E-08  0.10566000000E+00  0.10566000000E+00 0. -1.
     999900   -1    0    0    0    0 -0.00000000000E+00 -0.00000000000E+00 -0.74505805969E-08  0.93827000000E+00  0.93827000000E+00 0.  1.
     999902    2    1    2    0    0  0.21723774610E-01 -0.36698253117E-02  0.90059922193E-02  0.10201287837E+01  0.10198510859E+01 0.  0.
     999903    2    3    3    0    0  0.77692843058E-01 -0.15004779431E-01  0.10531814487E+00  0.13303406015E+00  0.18569551832E-01 0.  0.
         14    1    1    2    0    0 -0.21723774610E-01  0.36698253117E-02 -0.90059922193E-02  0.23801216292E-01  0.00000000000E+00 0.  1.
     999901    1    3    3    0    0 -0.55969068447E-01  0.11334954119E-01 -0.96312152646E-01  0.88709472355E+00  0.88000000000E+00 0.  1.
        -11    1    4    4    0    0  0.42195070393E-01 -0.11542295891E-01  0.43694194834E-01  0.61831159969E-01  0.51100000000E-03 0. -1.
         11    1    4    4    0    0  0.35497772665E-01 -0.34624835395E-02  0.61623950032E-01  0.71202900186E-01  0.51100000000E-03 0.  1.
</event>
<event>
 8    1  0.1120016E+005  0.1043930E+01  0.7957747E-01            NaN
         13   -1    0    0    0    0  0.00000000000E+00  0.00000000000E+00  0.74505805969E-08  0.10566000000E+00  0.10566000000E+00 0. -1.
     999900   -1    0    0    0    0 -0.00000000000E+00 -0.00000000000E+00 -0.74505805969E-08  0.93827000000E+00  0.93827000000E+00 0. -1.
     999902    2    1    2    0    0 -0.17436400352E-01  0.14904188873E-01 -0.68813545095E-02  0.10199818071E+01  0.10197006281E+01 0.  0.
     999903    2    3    3    0    0  0.11093440767E+00  0.32893920728E-01  0.52136207458E-01  0.12853031239E+00  0.20332344864E-01 0.  0.
         14    1    1    2    0    0  0.17436400352E-01 -0.14904188873E-01  0.68813545095E-02  0.23948192899E-01  0.00000000000E+00 0. -1.
     999901    1    3    3    0    0 -0.12837080803E+00 -0.17989731855E-01 -0.59017561967E-01  0.89145149471E+00  0.88000000000E+00 0. -1.
        -11    1    4    4    0    0  0.81608460456E-01  0.33313461236E-01  0.38979392374E-01  0.96381438402E-01  0.51100000000E-03 0. -1.
         11    1    4    4    0    0  0.29325947218E-01 -0.41954050708E-03  0.13156815083E-01  0.32148873987E-01  0.51100000000E-03 0.  1.
</event>
<event>
 8    1  0.1120016E+005  0.1043930E+01  0.7957747E-01            NaN
         13   -1    0    0    0    0  0.00000000000E+00  0.00000000000E+00  0.74505805969E-08  0.10566000000E+00  0.10566000000E+00 0.  1.
     999900   -1    0    0    0    0 -0.00000000000E+00 -0.00000000000E+00 -0.74505805969E-08  0.93827000000E+00  0.93827000000E+00 0.  1.
     999902    2    1    2    0    0 -0.20458672550E-01 -0.97361256649E-02 -0.84536163203E-02  0.10197470917E+01  0.10194603072E+01 0.  0.
     999903    2    3    3    0    0 -0.25957538481E-01 -0.12637329800E+00  0.18136117263E-01  0.13163590415E+00  0.18843785708E-01 0.  0.
         14    1    1    2    0    0  0.20458672550E-01  0.97361256649E-02  0.84536163203E-02  0.24182908310E-01  0.00000000000E+00 0.  1.
     999901    1    3    3    0    0  0.54988659311E-02  0.11663717234E+00 -0.26589733583E-01  0.88811118754E+00  0.88000000000E+00 0.  1.
        -11    1    4    4    0    0 -0.72839341483E-02 -0.60594702813E-01  0.56915379181E-03  0.61035717106E-01  0.51100000000E-03 0.  1.
         11    1    4    4    0    0 -0.18673604333E-01 -0.65778595192E-01  0.17566963471E-01  0.70600187045E-01  0.51100000000E-03 0. -1.
</event>
<event>
 8    1  0.1120016E+005  0.1043930E+01  0.7957747E-01            NaN
         13   -1    0    0    0    0  0.00000000000E+00  0.00000000000E+00  0.74505805969E-08  0.10566000000E+00  0.10566000000E+00 0. -1.
     999900   -1    0    0    0    0 -0.00000000000E+00 -0.00000000000E+00 -0.74505805969E-08  0.93827000000E+00  0.93827000000E+00 0.  1.
     999902    2    1    2    0    0 -0.11437353024E-01  0.11616352817E-01  0.17310665854E-01  0.10201516096E+01  0.10198744505E+01 0.  0.
     999903    2    3    3    0    0  0.60996834071E-01  0.21260053050E-01 -0.10887869085E+00  0.12815190885E+00  0.19893184739E-01 0.  0.
         14    1    1    2    0    0  0.11437353024E-01 -0.11616352817E-01 -0.17310665854E-01  0.23778390384E-01  0.00000000000E+00 0.  1.
     999901    1    3    3    0    0 -0.72434187095E-01 -0.96437002339E-02  0.12618935670E+00  0.89199970076E+00  0.88000000000E+00 0. -1.
        -11    1    4    4    0    0  0.21149728351E-01  0.11890238793E-01 -0.25139920667E-01  0.34942317038E-01  0.51100000000E-03 0.  1.
         11    1    4    4    0    0  0.39847105721E-01  0.93698142576E-02 -0.83738770184E-01  0.93209591816E-01  0.51100000000E-03 0. -1.
</event>
<event>
 8    1  0.1120016E+005  0.1043930E+01  0.7957747E-01            NaN
         13   -1    0    0    0    0  0.00000000000E+00  0.00000000000E+00  0.74505805969E-08  0.10566000000E+00  0.10566000000E+00 0. -1.
     999900   -1    0    0    0    0 -0.00000000000E+00 -0.00000000000E+00 -0.74505805969E-08  0.93827000000E+00  0.93827000000E+00 0.  1.
     999902    2    1    2    0    0  0.33692979907E-02  0.22009514265E-01 -0.74998090703E-02  0.10204349362E+01  0.10201644186E+01 0.  0.
     999903    2    3    3    0    0 -0.46178184933E-01  0.12212286253E+00 -0.17711830783E-01  0.13331492123E+00  0.20316027074E-01 0.  0.
         14    1    1    2    0    0 -0.33692979907E-02 -0.22009514265E-01  0.74998090703E-02  0.23495063805E-01  0.00000000000E+00 0. -1.
     999901    1    3    3    0    0  0.49547482923E-01 -0.10011334827E+00  0.10212021713E-01  0.88712001497E+00  0.88000000000E+00 0. -1.
        -11    1    4    4    0    0 -0.23994502696E-01  0.85764619893E-01 -0.66493626447E-02  0.89307229996E-01  0.51100000000E-03 0. -1.
         11    1    4    4    0    0 -0.22183682237E-01  0.36358242638E-01 -0.11062468138E-01  0.44007691233E-01  0.51100000000E-03 0.  1.
</event>
<event>
 8    1  0.1120016E+005  0.1043930E+01  0.7957747E-01            NaN
         13   -1    0    0    0    0  0.00000000000E+00  0.00000000000E+00  0.74505805969E-08  0.10566000000E+00  0.10566000000E+00 0.  1.
     999900   -1    0    0    0    0 -0.00000000000E+00 -0.00000000000E+00 -0.74505805969E-08  0.93827000000E+00  0.93827000000E+00 0.  1.
     999902    2    1    2    0    0  0.33221804552E-02 -0.24195087558E-01 -0.32972539101E-02  0.10192863187E+01  0.10189883652E+01 0.  0.
     999903    2    3    3    0    0  0.11661835053E+00 -0.60923413368E-02  0.53170262201E-01  0.13004376913E+00  0.21150621858E-01 0.  0.
         14    1    1    2    0    0 -0.33221804552E-02  0.24195087558E-01  0.32972539101E-02  0.24643681305E-01  0.00000000000E+00 0. -1.
     999901    1    3    3    0    0 -0.11329617007E+00 -0.18102746221E-01 -0.56467516111E-01  0.88924254956E+00  0.88000000000E+00 0.  1.
        -11    1    4    4    0    0  0.49260292953E-01  0.78553143914E-02  0.21882242084E-01  0.54473627249E-01  0.51100000000E-03 0. -1.
         11    1    4    4    0    0  0.67358057576E-01 -0.13947655728E-01  0.31288020117E-01  0.75570141885E-01  0.51100000000E-03 0.  1.
</event>
<event>
 8    1  0.1120016E+005  0.1043930E+01  0.7957747E-01            NaN
         13   -1    0    0    0    0  0.00000000000E+00  0.00000000000E+00  0.74505805969E-08  0.10566000000E+00  0.10566000000E+00 0. -1.
     999900   -1    0    0    0    0 -0.00000000000E+00 -0.00000000000E+00 -0.74505805969E-08  0.93827000000E+00  0.93827000000E+00 0. -1.
     999902    2    1    2    0    0 -0.11716631601E-01  0.21335833009E-01  0.31185682847E-02  0.10193897740E+01  0.10190943472E+01 0.  0.
     999903    2    3    3    0    0 -0.41397087868E-01 -0.11741635845E+00 -0.12545036366E-01  0.12788629744E+00  0.26404678004E-01 0.  0.
         14    1    1    2    0    0  0.11716631601E-01 -0.21335833009E-01 -0.31185682847E-02  0.24540226046E-01  0.00000000000E+00 0.  1.
     999901    1    3    3    0    0  0.29680456267E-01  0.13875219146E+00  0.15663604650E-01  0.89150347651E+00  0.88000000000E+00 0. -1.
        -11    1    4    4    0    0 -0.37061575097E-01 -0.83959837255E-01 -0.18503674685E-01  0.93624044552E-01  0.51100000000E-03 0. -1.
         11    1    4    4    0    0 -0.43355127707E-02 -0.33456521196E-01  0.59586383188E-02  0.34262252891E-01  0.51100000000E-03 0.  1.
</event>
<event>
 8    1  0.1120016E+005  0.1043930E+01  0.7957747E-01            NaN
         13   -1    0    0    0    0  0.00000000000E+00  0.00000000000E+00  0.74505805969E-08  0.10566000000E+00  0.10566000000E+00 0.  1.
     999900   -1    0    0    0    0 -0.00000000000E+00 -0.00000000000E+00 -0.74505805969E-08  0.93827000000E+00  0.93827000000E+00 0. -1.
     999902    2    1    2    0    0  0.15381727312E-01  0.17283492765E-01  0.53782917759E-03  0.10207868386E+01  0.10205244554E+01 0.  0.
     999903    2    3    3    0    0 -0.11764012605E+00 -0.12882590304E-01 -0.47635497242E-01  0.12897661476E+00  0.18991212917E-01 0.  0.
         14    1    1    2    0    0 -0.15381727312E-01 -0.17283492765E-01 -0.53782917759E-03  0.23143161354E-01  0.00000000000E+00 0.  1.
     999901    1    3    3    0    0  0.13302185336E+00  0.30166083068E-01  0.48173326420E-01  0.89181022388E+00  0.88000000000E+00 0.  1.
        -11    1    4    4    0    0 -0.78369167710E-01 -0.13933927291E-01 -0.24055537351E-01  0.83155341233E-01  0.51100000000E-03 0. -1.
         11    1    4    4    0    0 -0.39270958342E-01  0.10513369869E-02 -0.23579959891E-01  0.45821273531E-01  0.51100000000E-03 0.  1.
</event>
<event>
 8    1  0.1120016E+005  0.1043930E+01  0.7957747E-01            NaN
         13   -1    0    0    0    0  0.00000000000E+00  0.00000000000E+00  0.74505805969E-08  0.10566000000E+00  0.10566000000E+00 0.  1.
     999900   -1    0    0    0    0 -0.00000000000E+00 -0.00000000000E+00 -0.74505805969E-08  0.93827000000E+00  0.93827000000E+00 0.  1.
     999902    2    1    2    0    0 -0.22383345210E-01 -0.73900657861E-02 -0.68592127229E-03  0.10203482761E+01  0.10200757358E+01 0.  0.
     999903    2    3    3    0    0 -0.86305889453E-01  0.52636928195E-01  0.83281727936E-01  0.13201281141E+00  0.16497981856E-01 0.  0.
         14    1    1    2    0    0  0.22383345210E-01  0.73900657861E-02  0.68592127229E-03  0.23581723921E-01  0.00000000000E+00 0. -1.
     999901    1    3    3    0    0  0.63922544243E-01 -0.60026993982E-01 -0.83967649208E-01  0.88833546467E+00  0.88000000000E+00 0. -1.
        -11    1    4    4    0    0 -0.22135340096E-01  0.21915136751E-01  0.28437182639E-01  0.42180338754E-01  0.51100000000E-03 0. -1.
         11    1    4    4    0    0 -0.64170549357E-01  0.30721791445E-01  0.54844545296E-01  0.89832472659E-01  0.51100000000E-03 0.  1.
</event>
<event>
 8    1  0.1120016E+005  0.1043930E+01  0.7957747E-01            NaN
         13   -1    0    0    0    0  0.00000000000E+00  0.00000000000E+00  0.74505805969E-08  0.10566000000E+00  0.10566000000E+00 0.  1.
     999900   -1    0    0    0    0 -0.00000000000E+00 -0.00000000000E+00 -0.74505805969E-08  0.93827000000E+00  0.93827000000E+00 0. -1.
     999902    2    1    2    0    0 -0.19219305754E-01 -0.12938062630E-01 -0.35020429143E-02  0.10204984084E+01  0.10202293674E+01 0.  0.
     999903    2    3    3    0    0 -0.11659302215E+00  0.57116283790E-01  0.14993446483E-01  0.13216776323E+00  0.19680231482E-01 0.  0.
         14    1    1    2    0    0  0.19219305754E-01  0.12938062630E-01  0.35020429143E-02  0.23431591556E-01  0.00000000000E+00 0.  1.
     999901    1    3    3    0    0  0.97373716399E-01 -0.70054346420E-01 -0.18495489397E-01  0.88833064521E+00  0.88000000000E+00 0.  1.
        -11    1    4    4    0    0 -0.25418102342E-01  0.73002494413E-02 -0.33537907504E-02  0.26662381776E-01  0.51100000000E-03 0. -1.
         11    1    4    4    0    0 -0.91174919811E-01  0.49816034349E-01  0.18347237234E-01  0.10550538145E+00  0.51100000000E-03 0.  1.
</event>
<event>
 8    1  0.1120016E+005  0.1043930E+01  0.7957747E-01            NaN
         13   -1    0    0    0    0  0.00000000000E+00  0.00000000000E+00  0.74505805969E-08  0.10566000000E+00  0.10566000000E+00 0. -1.
     999900   -1    0    0    0    0 -0.00000000000E+00 -0.00000000000E+00 -0.74505805969E-08  0.93827000000E+00  0.93827000000E+00 0. -1.
     999902    2    1    2    0    0 -0.99371803773E-02  0.21433930933E-01 -0.21657459505E-02  0.10202055104E+01  0.10199296212E+01 0.  0.
     999903    2    3    3    0    0  0.82835387255E-01  0.53104562982E-01 -0.84301922947E-01  0.13096081419E+00  0.19029573053E-01 0.  0.
         14    1    1    2    0    0  0.99371803773E-02 -0.21433930933E-01  0.21657459505E-02  0.23724489554E-01  0.00000000000E+00 0. -1.
     999901    1    3    3    0    0 -0.92772567632E-01 -0.31670632049E-01  0.82136176997E-01  0.88924469625E+00  0.88000000000E+00 0.  1.
        -11    1    4    4    0    0  0.59765777122E-01  0.28418742764E-01 -0.60093346673E-01  0.89392642262E-01  0.51100000000E-03 0.  1.
         11    1    4    4    0    0  0.23069610133E-01  0.24685820218E-01 -0.24208576275E-01  0.41568171932E-01  0.51100000000E-03 0. -1.
</event>
<event>
 8    1  0.1120016E+005  0.1043930E+01  0.7957747E-01            NaN
         13   -1    0    0    0    0  0.00000000000E+00  0.00000000000E+00  0.74505805969E-08  0.10566000000E+00  0.10566000000E+00 0.  1.
     999900   -1    0    0    0    0 -0.00000000000E+00 -0.00000000000E+00 -0.74505805969E-08  0.93827000000E+00  0.93827000000E+00 0.  1.
     999902    2    1    2    0    0 -0.74077857641E-02  0.21936147006E-01  0.26443070436E-02  0.10206263051E+01  0.10203602268E+01 0.  0.
     999903    2    3    3    0    0  0.78148817052E-01  0.90172576672E-01  0.54002329772E-01  0.13236182361E+00  0.19106792957E-01 0.  0.
         14    1    1    2    0    0  0.74077857641E-02 -0.21936147006E-01 -0.26443070436E-02  0.23303694882E-01  0.00000000000E+00 0. -1.
     999901    1    3    3    0    0 -0.85556602816E-01 -0.68236429666E-01 -0.51358022728E-01  0.88826448151E+00  0.88000000000E+00 0.  1.
        -11    1    4    4    0    0  0.17462790279E-01  0.31103694843E-01  0.10698173742E-01  0.37243803775E-01  0.51100000000E-03 0.  1.
         11    1    4    4    0    0  0.60686026773E-01  0.59068881829E-01  0.43304156030E-01  0.95118019830E-01  0.51100000000E-03 0. -1.
</event>
<event>
 8    1  0.1120016E+005  0.1043930E+01  0.7957747E-01            NaN
         13   -1    0    0    0    0  0.00000000000E+00  0.00000000000E+00  0.74505805969E-08  0.10566000000E+00  0.10566000000E+00 0. -1.
     999900   -1    0    0    0    0 -0.00000000000E+00 -0.00000000000E+00 -0.74505805969E-08  0.93827000000E+00  0.93827000000E+00 0. -1.
     999902    2    1    2    0    0 -0.13036030651E-01  0.19307386235E-01 -0.61394818100E-02  0.10198383729E+01  0.10195537751E+01 0.  0.
     999903    2    3    3    0    0 -0.59542588684E-01  0.11145881597E+00  0.36434545806E-01  0.13278296667E+00  0.18315364672E-01 0.  0.
         14    1    1    2    0    0  0.13036030651E-01 -0.19307386235E-01  0.61394818100E-02  0.24091627077E-01  0.00000000000E+00 0. -1.
     999901    1    3    3    0    0  0.46506558033E-01 -0.92151429738E-01 -0.42574027616E-01  0.88705540626E+00  0.88000000000E+00 0.  1.
        -11    1    4    4    0    0 -0.31022187636E-01  0.50607022596E-01  0.25865093613E-01  0.64751147097E-01  0.51100000000E-03 0. -1.
         11    1    4    4    0    0 -0.28520401049E-01  0.60851793376E-01  0.10569452193E-01  0.68031819568E-01  0.51100000000E-03 0.  1.
</event>
<event>
 8    1  0.1120016E+005  0.1043930E+01  0.7957747E-01            NaN
         13   -1    0    0    0    0  0.00000000000E+00  0.00000000000E+00  0.74505805969E-08  0.10566000000E+00  0.10566000000E+00 0.  1.
     999900   -1    0    0    0    0 -0.00000000000E+00 -0.00000000000E+00 -0.74505805969E-08  0.93827000000E+00  0.93827000000E+00 0. -1.
     999902    2    1    2    0    0 -0.20014535809E-01  0.70739869916E-02  0.85392375772E-02  0.10210489704E+01  0.10207925639E+01 0.  0.
     999903    2    3    3    0    0 -0.12555881956E+00 -0.24390121691E-02 -0.40564453970E-01  0.13333208679E+00  0.19000118219E-01 0.  0.
         14    1    1    2    0    0  0.20014535809E-01 -0.70739869916E-02 -0.85392375772E-02  0.22881029566E-01  0.00000000000E+00 0. -1.
     999901    1    3    3    0    0  0.10554428375E+00  0.95129991606E-02  0.49103691547E-01  0.88771688365E+00  0.88000000000E+00 0.  1.
        -11    1    4    4    0    0 -0.13792743263E-01 -0.51745605088E-03 -0.11129286247E-01  0.17737803157E-01  0.51100000000E-03 0. -1.
         11    1    4    4    0    0 -0.11176607630E+00 -0.19215561182E-02 -0.29435167723E-01  0.11559428363E+00  0.51100000000E-03 0.  1.
</event>
<event>
 8    1  0.1120016E+005  0.1043930E+01  0.7957747E-01            NaN
         13   -1    0    0    0    0  0.00000000000E+00  0.00000000000E+00  0.74505805969E-08  0.10566000000E+00  0.10566000000E+00 0. -1.
     999900   -1    0    0    0    0 -0.00000000000E+00 -0.00000000000E+00 -0.74505805969E-08  0.93827000000E+00  0.93827000000E+00 0. -1.
     999902    2    1    2    0    0 -0.10026841866E-01  0.99745221538E-02  0.18904816305E-01  0.10203202408E+01  0.10200470445E+01 0.  0.
     999903    2    3    3    0    0 -0.58964604405E-01 -0.11178053263E+00  0.25898440631E-01  0.13056290942E+00  0.20105522623E-01 0.  0.
         14    1    1    2    0    0  0.10026841866E-01 -0.99745221538E-02 -0.18904816305E-01  0.23609759201E-01  0.00000000000E+00 0.  1.
     999901    1    3    3    0    0  0.48937762539E-01  0.12175505479E+00 -0.69936243259E-02  0.88975733138E+00  0.88000000000E+00 0. -1.
        -11    1    4    4    0    0 -0.24246361851E-01 -0.59511425267E-01  0.51434783167E-02  0.64468692328E-01  0.51100000000E-03 0.  1.
         11    1    4    4    0    0 -0.34718242554E-01 -0.52269107365E-01  0.20754962314E-01  0.66094217088E-01  0.51100000000E-03 0. -1.
</event>
<event>
 8    1  0.1120016E+005  0.1043930E+01  0.7957747E-01            NaN
         13   -1    0    0    0    0  0.00000000000E+00  0.00000000000E+00  0.74505805969E-08  0.10566000000E+00  0.10566000000E+00 0.  1.
     999900   -1    0    0    0    0 -0.00000000000E+00 -0.00000000000E+00 -0.74505805969E-08  0.93827000000E+00  0.93827000000E+00 0. -1.
     999902    2    1    2    0    0  0.43331164415E-02  0.10316542626E-01  0.20431462312E-01  0.10206351164E+01  0.10203692416E+01 0.  0.
     999903    2    3    3    0    0  0.27274496893E-01  0.66380133702E-01  0.11155812698E+00  0.13385808569E+00  0.17959707084E-01 0.  0.
         14    1    1    2    0    0 -0.43331164415E-02 -0.10316542626E-01 -0.20431462312E-01  0.23294883602E-01  0.00000000000E+00 0. -1.
     999901    1    3    3    0    0 -0.22941380451E-01 -0.56063591076E-01 -0.91126664665E-01  0.88677703071E+00  0.88000000000E+00 0. -1.
        -11    1    4    4    0    0  0.24407493828E-02  0.10366170722E-01  0.30060783719E-01  0.31895557555E-01  0.51100000000E-03 0.  1.
         11    1    4    4    0    0  0.24833747510E-01  0.56013962981E-01  0.81497343257E-01  0.10196252813E+00  0.51100000000E-03 0. -1.
</event>
<event>
 8    1  0.1120016E+005  0.1043930E+01  0.7957747E-01            NaN
         13   -1    0    0    0    0  0.00000000000E+00  0.00000000000E+00  0.74505805969E-08  0.10566000000E+00  0.10566000000E+00 0.  1.
     999900   -1    0    0    0    0 -0.00000000000E+00 -0.00000000000E+00 -0.74505805969E-08  0.93827000000E+00  0.93827000000E+00 0. -1.
     999902    2    1    2    0    0 -0.25499454776E-02  0.23675397411E-01  0.11101819370E-02  0.10200918128E+01  0.10198132414E+01 0.  0.
     999903    2    3    3    0    0  0.11107995283E+00 -0.48658346415E-01 -0.38334937353E-01  0.12896901447E+00  0.21378696743E-01 0.  0.
         14    1    1    2    0    0  0.25499454776E-02 -0.23675397411E-01 -0.11101819370E-02  0.23838187189E-01  0.00000000000E+00 0.  1.
     999901    1    3    3    0    0 -0.11362989831E+00  0.72333743826E-01  0.39445119290E-01  0.89112279834E+00  0.88000000000E+00 0. -1.
        -11    1    4    4    0    0  0.21171703885E-01 -0.19023437602E-01 -0.93416063443E-02  0.29960957156E-01  0.51100000000E-03 0.  1.
         11    1    4    4    0    0  0.89908248949E-01 -0.29634908812E-01 -0.28993331008E-01  0.99008057315E-01  0.51100000000E-03 0. -1.
</event>
<event>
 8    1  0.1120016E+005  0.1043930E+01  0.7957747E-01            NaN
         13   -1    0    0    0    0  0.00000000000E+00  0.00000000000E+00  0.74505805969E-08  0.10566000000E+00  0.10566000000E+00 0.  1.
     999900   -1    0    0    0    0 -0.00000000000E+00 -0.00000000000E+00 -0.74505805969E-08  0.93827000000E+00  0.93827000000E+00 0.  1.
     999902    2    1    2    0    0 -0.17124527188E-01 -0.15921687056E-01  0.26101288455E-02  0.10204020948E+01  0.10201308116E+01 0.  0.
     999903    2    3    3    0    0 -0.12564291317E+00  0.26910383660E-01 -0.28287254604E-01  0.13216480969E+00  0.12532269009E-01 0.  0.
         14    1    1    2    0    0  0.17124527188E-01  0.15921687056E-01 -0.26101288455E-02  0.23527905192E-01  0.00000000000E+00 0.  1.
     999901    1    3    3    0    0  0.10851838599E+00 -0.42832070716E-01  0.30897383449E-01  0.88823728512E+00  0.88000000000E+00 0.  1.
        -11    1    4    4    0    0 -0.78742220626E-01  0.17146751731E-01 -0.11529789853E-01  0.81409738847E-01  0.51100000000E-03 0. -1.
         11    1    4    4    0    0 -0.46900692547E-01  0.97636319297E-02 -0.16757464751E-01  0.50755070838E-01  0.51100000000E-03 0.  1.
</event>
<event>
 8    1  0.1120016E+005  0.1043930E+01  0.7957747E-01            NaN
         13   -1    0    0    0    0  0.00000000000E+00  0.00000000000E+00  0.74505805969E-08  0.10566000000E+00  0.10566000000E+00 0. -1.
     999900   -1    0    0    0    0 -0.00000000000E+00 -0.00000000000E+00 -0.74505805969E-08  0.93827000000E+00  0.93827000000E+00 0.  1.
     999902    2    1    2    0    0 -0.80530454315E-02  0.10483810812E-01  0.20429401228E-01  0.10195964375E+01  0.10193060252E+01 0.  0.
     999903    2    3    3    0    0 -0.10161565497E+00 -0.78211220828E-01 -0.37805856847E-02  0.12987350646E+00  0.20250887692E-01 0.  0.
         14    1    1    2    0    0  0.80530454315E-02 -0.10483810812E-01 -0.20429401228E-01  0.24333562510E-01  0.00000000000E+00 0.  1.
     999901    1    3    3    0    0  0.93562609540E-01  0.88695031640E-01  0.24209986913E-01  0.88972293103E+00  0.88000000000E+00 0. -1.
        -11    1    4    4    0    0 -0.54030461386E-01 -0.37499294911E-01 -0.11516436035E-01  0.66771081288E-01  0.51100000000E-03 0.  1.
         11    1    4    4    0    0 -0.47585193586E-01 -0.40711925917E-01  0.77358503500E-02  0.63102425168E-01  0.51100000000E-03 0. -1.
</event>
<event>
 8    1  0.1120016E+005  0.1043930E+01  0.7957747E-01            NaN
         13   -1    0    0    0    0  0.00000000000E+00  0.00000000000E+00  0.74505805969E-08  0.10566000000E+00  0.10566000000E+00 0.  1.
     999900   -1    0    0    0    0 -0.00000000000E+00 -0.00000000000E+00 -0.74505805969E-08  0.93827000000E+00  0.93827000000E+00 0. -1.
     999902    2    1    2    0    0  0.79453371215E-02  0.17856472948E-01  0.13729207815E-01  0.10200454201E+01  0.10197657505E+01 0.  0.
     999903    2    3    3    0    0 -0.31683511353E-01 -0.11050380766E+00  0.54629760987E-01  0.12891150062E+00  0.20465282974E-01 0.  0.
         14    1    1    2    0    0 -0.79453371215E-02 -0.17856472948E-01 -0.13729207815E-01  0.23884579865E-01  0.00000000000E+00 0. -1.
     999901    1    3    3    0    0  0.39628848474E-01  0.12836028060E+00 -0.40900553172E-01  0.89113391952E+00  0.88000000000E+00 0. -1.
        -11    1    4    4    0    0 -0.17041818803E-01 -0.63115434115E-01  0.19825873938E-01  0.68317699098E-01  0.51100000000E-03 0.  1.
         11    1    4    4    0    0 -0.14641692550E-01 -0.47388373542E-01  0.34803887049E-01  0.60593801518E-01  0.51100000000E-03 0. -1.
</event>
<event>
 8    1  0.1120016E+005  0.1043930E+01  0.7957747E-01            NaN
         13   -1    0    0    0    0  0.00000000000E+00  0.00000000000E+00  0.74505805969E-08  0.10566000000E+00  0.10566000000E+00 0.  1.
     999900   -1    0    0    0    0 -0.00000000000E+00 -0.00000000000E+00 -0.74505805969E-08  0.93827000000E+00  0.93827000000E+00 0. -1.
     999902    2    1    2    0    0  0.11020078380E-02  0.20732376058E-02  0.22611648250E-01  0.10211967782E+01  0.10209437107E+01 0.  0.
     999903    2    3    3    0    0  0.32163498056E-01 -0.11377944418E+00 -0.50413639779E-01  0.13006303252E+00  0.19864662765E-01 0.  0.
         14    1    1    2    0    0 -0.11020078380E-02 -0.20732376058E-02 -0.22611648250E-01  0.22733221769E-01  0.00000000000E+00 0. -1.
     999901    1    3    3    0    0 -0.31061490218E-01  0.11585268179E+00  0.73025288028E-01  0.89113374571E+00  0.88000000000E+00 0.  1.
        -11    1    4    4    0    0  0.20365166940E-01 -0.68516582738E-01 -0.19852209804E-01  0.74186477809E-01  0.51100000000E-03 0.  1.
         11    1    4    4    0    0  0.11798331117E-01 -0.45262861445E-01 -0.30561429974E-01  0.55876554711E-01  0.51100000000E-03 0. -1.
</event>
<event>
 8    1  0.1120016E+005  0.1043930E+01  0.7957747E-01            NaN
         13   -1    0    0    0    0  0.00000000000E+00  0.00000000000E+00  0.74505805969E-08  0.10566000000E+00  0.10566000000E+00 0. -1.
     999900   -1    0    0    0    0 -0.00000000000E+00 -0.00000000000E+00 -0.74505805969E-08  0.93827000000E+00  0.93827000000E+00 0. -1.
     999902    2    1    2    0    0  0.19085332873E-01  0.14508097688E-01  0.31051716838E-02  0.10197561108E+01  0.10194695427E+01 0.  0.
     999903    2    3    3    0    0  0.79958325957E-01 -0.46898996464E-01  0.90708796823E-01  0.13118942918E+00  0.19741599410E-01 0.  0.
         14    1    1    2    0    0 -0.19085332873E-01 -0.14508097688E-01 -0.31051716838E-02  0.24173889231E-01  0.00000000000E+00 0.  1.
     999901    1    3    3    0    0 -0.60872993085E-01  0.61407094152E-01 -0.87603625139E-01  0.88856668159E+00  0.88000000000E+00 0. -1.
        -11    1    4    4    0    0  0.70969235224E-02 -0.14787537275E-02  0.15206272722E-01  0.16853631275E-01  0.51100000000E-03 0. -1.
         11    1    4    4    0    0  0.72861402435E-01 -0.45420242736E-01  0.75502524101E-01  0.11433579790E+00  0.51100000000E-03 0.  1.
</event>
<event>
 8    1  0.1120016E+005  0.1043930E+01  0.7957747E-01            NaN
         13   -1    0    0    0    0  0.00000000000E+00  0.00000000000E+00  0.74505805969E-08  0.10566000000E+00  0.10566000000E+00 0.  1.
     999900   -1    0    0    0    0 -0.00000000000E+00 -0.00000000000E+00 -0.74505805969E-08  0.93827000000E+00  0.93827000000E+00 0.  1.
     999902    2    1    2    0    0 -0.93751297433E-02  0.24321929545E-02  0.21707308733E-01  0.10201599375E+01  0.10198829747E+01 0.  0.
     999903    2    3    3    0    0  0.96182688956E-01  0.59108350395E-01 -0.57918723628E-01  0.12847897157E+00  0.20183182326E-01 0.  0.
         14    1    1    2    0    0  0.93751297433E-02 -0.24321929545E-02 -0.21707308733E-01  0.23770062530E-01  0.00000000000E+00 0.  1.
     999901    1    3    3    0    0 -0.10555781870E+00 -0.56676157440E-01  0.79626032361E-01  0.89168096590E+00  0.88000000000E+00 0. -1.
        -11    1    4    4    0    0  0.16573917535E-01  0.19402646910E-01 -0.98261394348E-02  0.27349069212E-01  0.51100000000E-03 0. -1.
         11    1    4    4    0    0  0.79608771421E-01  0.39705703485E-01 -0.48092584193E-01  0.10112990236E+00  0.51100000000E-03 0.  1.
</event>
<event>
 8    1  0.1120016E+005  0.1043930E+01  0.7957747E-01            NaN
         13   -1    0    0    0    0  0.00000000000E+00  0.00000000000E+00  0.74505805969E-08  0.10566000000E+00  0.10566000000E+00 0.  1.
     999900   -1    0    0    0    0 -0.00000000000E+00 -0.00000000000E+00 -0.74505805969E-08  0.93827000000E+00  0.93827000000E+00 0. -1.
     999902    2    1    2    0    0 -0.16527107813E-01  0.17667373986E-01 -0.14314395740E-03  0.10197369868E+01  0.10194499597E+01 0.  0.
     999903    2    3    3    0    0 -0.13127663338E-01 -0.11130146412E+00 -0.59412214161E-01  0.12835752773E+00  0.19633957148E-01 0.  0.
         14    1    1    2    0    0  0.16527107813E-01 -0.17667373986E-01  0.14314395740E-03  0.24193013173E-01  0.00000000000E+00 0.  1.
     999901    1    3    3    0    0 -0.33994444754E-02  0.12896883810E+00  0.59269070204E-01  0.89137945910E+00  0.88000000000E+00 0.  1.
        -11    1    4    4    0    0 -0.43695108966E-02 -0.62828647507E-01 -0.22803810487E-01  0.66983628349E-01  0.51100000000E-03 0.  1.
         11    1    4    4    0    0 -0.87581524412E-02 -0.48472816609E-01 -0.36608403674E-01  0.61373899377E-01  0.51100000000E-03 0. -1.
</event>
<event>
 8    1  0.1120016E+005  0.1043930E+01  0.7957747E-01            NaN
         13   -1    0    0    0    0  0.00000000000E+00  0.00000000000E+00  0.74505805969E-08  0.10566000000E+00  0.10566000000E+00 0.  1.
     999900   -1    0    0    0    0 -0.00000000000E+00 -0.00000000000E+00 -0.74505805969E-08  0.93827000000E+00  0.93827000000E+00 0. -1.
     999902    2    1    2    0    0  0.17392536670E-02  0.17869487175E-01 -0.15389595498E-01  0.10202829447E+01  0.10200088745E+01 0.  0.
     999903    2    3    3    0    0 -0.13716678956E-01 -0.92456335458E-01 -0.88560935078E-01  0.13024658705E+00  0.19616650258E-01 0.  0.
         14    1    1    2    0    0 -0.17392536670E-02 -0.17869487175E-01  0.15389595498E-01  0.23647055309E-01  0.00000000000E+00 0.  1.
     999901    1    3    3    0    0  0.15455932623E-01  0.11032582263E+00  0.73171339580E-01  0.89003635764E+00  0.88000000000E+00 0.  1.
        -11    1    4    4    0    0 -0.52612765797E-03 -0.43990977737E-02 -0.12049713439E-01  0.12848563597E-01  0.51100000000E-03 0. -1.
         11    1    4    4    0    0 -0.13190551298E-01 -0.88057237684E-01 -0.76511221639E-01  0.11739802345E+00  0.51100000000E-03 0.  1.
</event>
<event>
 8    1  0.1120016E+005  0.1043930E+01  0.7957747E-01            NaN
         13   -1    0    0    0    0  0.00000000000E+00  0.00000000000E+00  0.74505805969E-08  0.10566000000E+00  0.10566000000E+00 0. -1.
     999900   -1    0    0    0    0 -0.00000000000E+00 -0.00000000000E+00 -0.74505805969E-08  0.93827000000E+00  0.93827000000E+00 0. -1.
     999902    2    1    2    0    0 -0.67051427053E-02 -0.24834209565E-01 -0.27696239646E-02  0.10180578582E+01  0.10177290577E+01 0.  0.
     999903    2    3    3    0    0  0.88114969434E-01 -0.25100968026E-01  0.87787445482E-01  0.12834357394E+00  0.19264759355E-01 0.  0.
         14    1    1    2    0    0  0.67051427053E-02  0.24834209565E-01  0.27696239646E-02  0.25872141781E-01  0.00000000000E+00 0.  1.
     999901    1    3    3    0    0 -0.94820112139E-01  0.26675846114E-03 -0.90557069446E-01  0.88971428428E+00  0.88000000000E+00 0. -1.
        -11    1    4    4    0    0  0.48544071721E-01 -0.50401954016E-02  0.39702906917E-01  0.62916710083E-01  0.51100000000E-03 0. -1.
         11    1    4    4    0    0  0.39570897713E-01 -0.20060772625E-01  0.48084538564E-01  0.65426863856E-01  0.51100000000E-03 0.  1.
</event>
<event>
 8    1  0.1120016E+005  0.1043930E+01  0.7957747E-01            NaN
         13   -1    0    0    0    0  0.00000000000E+00  0.00000000000E+00  0.74505805969E-08  0.10566000000E+00  0.10566000000E+00 0. -1.
     999900   -1    0    0    0    0 -0.00000000000E+00 -0.00000000000E+00 -0.74505805969E-08  0.93827000000E+00  0.93827000000E+00 0. -1.
     999902    2    1    2    0    0  0.17613600379E-01  0.10753260769E-01  0.12693076905E-01  0.10197022115E+01  0.10194143487E+01 0.  0.
     999903    2    3    3    0    0  0.49749811003E-01  0.31653746947E-02  0.12098487091E+00  0.13244947144E+00  0.20505126269E-01 0.  0.
         14    1    1    2    0    0 -0.17613600379E-01 -0.10753260769E-01 -0.12693076905E-01  0.24227788524E-01  0.00000000000E+00 0. -1.
     999901    1    3    3    0    0 -0.32136210625E-01  0.75878860742E-02 -0.10829179401E+00  0.88725274003E+00  0.88000000000E+00 0. -1.
        -11    1    4    4    0    0  0.29684903104E-01  0.11639272215E-01  0.77742250116E-01  0.84028475555E-01  0.51100000000E-03 0.  1.
         11    1    4    4    0    0  0.20064907899E-01 -0.84738975203E-02  0.43242620798E-01  0.48420995887E-01  0.51100000000E-03 0. -1.
</event>
<event>
 8    1  0.1120016E+005  0.1043930E+01  0.7957747E-01            NaN
         13   -1    0    0    0    0  0.00000000000E+00  0.00000000000E+00  0.74505805969E-08  0.10566000000E+00  0.10566000000E+00 0. -1.
     999900   -1    0    0    0    0 -0.00000000000E+00 -0.00000000000E+00 -0.74505805969E-08  0.93827000000E+00  0.93827000000E+00 0.  1.
     999902    2    1    2    0    0 -0.14746922572E-01  0.18657706134E-01 -0.38389816013E-03  0.10201449395E+01  0.10198676231E+01 0.  0.
     999903    2    3    3    0    0  0.69081287428E-01 -0.55722607316E-01  0.90067765585E-01  0.12843809124E+00  0.22514609594E-01 0.  0.
         14    1    1    2    0    0  0.14746922572E-01 -0.18657706134E-01  0.38389816013E-03  0.23785060465E-01  0.00000000000E+00 0.  1.
     999901    1    3    3    0    0 -0.83828210000E-01  0.74380313450E-01 -0.90451663746E-01  0.89170684829E+00  0.88000000000E+00 0.  1.
        -11    1    4    4    0    0  0.27702310453E-01 -0.16962507581E-01  0.19410456211E-01  0.37844043114E-01  0.51100000000E-03 0.  1.
         11    1    4    4    0    0  0.41378976974E-01 -0.38760099735E-01  0.70657309374E-01  0.90594048126E-01  0.51100000000E-03 0. -1.
</event>
<event>
 8    1  0.1120016E+005  0.1043930E+01  0.7957747E-01            NaN
         13   -1    0    0    0    0  0.00000000000E+00  0.00000000000E+00  0.74505805969E-08  0.10566000000E+00  0.10566000000E+00 0. -1.
     999900   -1    0    0    0    0 -0.00000000000E+00 -0.00000000000E+00 -0.74505805969E-08  0.93827000000E+00  0.93827000000E+00 0.  1.
     999902    2    1    2    0    0  0.15557350562E-01 -0.18605198931E-01 -0.17808824199E-02  0.10196121850E+01  0.10193221530E+01 0.  0.
     999903    2    3    3    0    0 -0.44475748338E-01  0.10348738163E+00 -0.56352752501E-01  0.12748626329E+00  0.19732822076E-01 0.  0.
         14    1    1    2    0    0 -0.15557350562E-01  0.18605198931E-01  0.17808824199E-02  0.24317814991E-01  0.00000000000E+00 0. -1.
     999901    1    3    3    0    0  0.60033098900E-01 -0.12209258056E+00  0.54571870081E-01  0.89212592172E+00  0.88000000000E+00 0. -1.
        -11    1    4    4    0    0 -0.41901157251E-01  0.90917330450E-01 -0.55850862093E-01  0.11463528197E+00  0.51100000000E-03 0. -1.
         11    1    4    4    0    0 -0.25745910871E-02  0.12570051181E-01 -0.50189040748E-03  0.12850981322E-01  0.51100000000E-03 0.  1.
</event>
<event>
 8    1  0.1120016E+005  0.1043930E+01  0.7957747E-01            NaN
         13   -1    0    0    0    0  0.00000000000E+00  0.00000000000E+00  0.74505805969E-08  0.10566000000E+00  0.10566000000E+00 0. -1.
     999900   -1    0    0    0    0 -0.00000000000E+00 -0.00000000000E+00 -0.74505805969E-08  0.93827000000E+00  0.93827000000E+00 0.  1.
     999902    2    1    2    0    0  0.21962215986E-01 -0.52913345708E-02 -0.14954534207E-02  0.10212899131E+01  0.10210389381E+01 0.  0.
     999903    2    3    3    0    0  0.13215577741E+00 -0.22701149108E-05  0.13462016588E-01  0.13427563980E+00  0.19584995406E-01 0.  0.
         14    1    1    2    0    0 -0.21962215986E-01  0.52913345708E-02  0.14954534207E-02  0.22640086870E-01  0.00000000000E+00 0.  1.
     999901    1    3    3    0    0 -0.11019356142E+00 -0.52890644558E-02 -0.14957470008E-01  0.88701427333E+00  0.88000000000E+00 0. -1.
        -11    1    4    4    0    0  0.82718233968E-01  0.90865545399E-02  0.11065829368E-01  0.83949898183E-01  0.51100000000E-03 0. -1.
         11    1    4    4    0    0  0.49437543442E-01 -0.90888246548E-02  0.23961872200E-02  0.50325741617E-01  0.51100000000E-03 0.  1.
</event>
<event>
 8    1  0.1120016E+005  0.1043930E+01  0.7957747E-01            NaN
         13   -1    0    0    0    0  0.00000000000E+00  0.00000000000E+00  0.74505805969E-08  0.10566000000E+00  0.10566000000E+00 0.  1.
     999900   -1    0    0    0    0 -0.00000000000E+00 -0.00000000000E+00 -0.74505805969E-08  0.93827000000E+00  0.93827000000E+00 0. -1.
     999902    2    1    2    0    0 -0.87805826330E-02 -0.18076626205E-01  0.12013270884E-01  0.10205167191E+01  0.10202481033E+01 0.  0.
     999903    2    3    3    0    0 -0.10733653777E-01  0.56810753241E-02  0.13044308139E+00  0.13226345402E+00  0.18186199343E-01 0.  0.
         14    1    1    2    0    0  0.87805826330E-02  0.18076626205E-01 -0.12013270884E-01  0.23413280925E-01  0.00000000000E+00 0. -1.
     999901    1    3    3    0    0  0.19530711438E-02 -0.23757701529E-01 -0.11842981050E+00  0.88825326506E+00  0.88000000000E+00 0. -1.
        -11    1    4    4    0    0 -0.86744337030E-02 -0.26211017043E-02  0.27387817596E-01  0.28852550110E-01  0.51100000000E-03 0. -1.
         11    1    4    4    0    0 -0.20592200739E-02  0.83021770284E-02  0.10305526379E+00  0.10341090391E+00  0.51100000000E-03 0.  1.
</event>
<event>
 8    1  0.1120016E+005  0.1043930E+01  0.7957747E-01            NaN
         13   -1    0    0    0    0  0.00000000000E+00  0.00000000000E+00  0.74505805969E-08  0.10566000000E+00  0.10566000000E+00 0.  1.
     999900   -1    0    0    0    0 -0.00000000000E+00 -0.00000000000E+00 -0.74505805969E-08  0.93827000000E+00  0.93827000000E+00 0. -1.
     999902    2    1    2    0    0  0.14249110818E-01 -0.54087780067E-02 -0.17404494993E-01  0.10207954266E+01  0.10205332403E+01 0.  0.
     999903    2    3    3    0    0 -0.79700138441E-01 -0.10063692157E+00  0.69625441606E-02  0.13035249564E+00  0.21526589364E-01 0.  0.
         14    1    1    2    0    0 -0.14249110818E-01  0.54087780067E-02  0.17404494993E-01  0.23134573361E-01  0.00000000000E+00 0.  1.
     999901    1    3    3    0    0  0.93949249259E-01  0.95228143560E-01 -0.24367039153E-01  0.89044293100E+00  0.88000000000E+00 0.  1.
        -11    1    4    4    0    0 -0.30454584627E-01 -0.47238602635E-01  0.12223792897E-01  0.57520861759E-01  0.51100000000E-03 0. -1.
         11    1    4    4    0    0 -0.49245553813E-01 -0.53398318931E-01 -0.52612487362E-02  0.72831633885E-01  0.51100000000E-03 0.  1.
</event>
<event>
 8    1  0.1120016E+005  0.1043930E+01  0.7957747E-01            NaN
         13   -1    0    0    0    0  0.00000000000E+00  0.00000000000E+00  0.74505805969E-08  0.10566000000E+00  0.10566000000E+00 0. -1.
     999900   -1    0    0    0    0 -0.00000000000E+00 -0.00000000000E+00 -0.74505805969E-08  0.93827000000E+00  0.93827000000E+00 0.  1.
     999902    2    1    2    0    0  0.15261148795E-01 -0.54640447365E-03 -0.17186765592E-01  0.10209389989E+01  0.10206800935E+01 0.  0.
     999903    2    3    3    0    0  0.38946492116E-01  0.11301432219E+00 -0.54016738578E-01  0.13256211883E+00  0.19126971332E-01 0.  0.
         14    1    1    2    0    0 -0.15261148795E-01  0.54640447365E-03  0.17186765592E-01  0.22991001107E-01  0.00000000000E+00 0. -1.
     999901    1    3    3    0    0 -0.23685343322E-01 -0.11356072666E+00  0.36829972986E-01  0.88837688007E+00  0.88000000000E+00 0.  1.
        -11    1    4    4    0    0  0.31621489202E-01  0.63281601488E-01 -0.29865973189E-01  0.76790084918E-01  0.51100000000E-03 0.  1.
         11    1    4    4    0    0  0.73250029141E-02  0.49732720703E-01 -0.24150765389E-01  0.55772033907E-01  0.51100000000E-03 0. -1.
</event>
<event>
 8    1  0.1537377E+005  0.1043930E+01  0.7957747E-01            NaN
         13   -1    0    0    0    0  0.00000000000E+00  0.00000000000E+00  0.74505805969E-08  0.10566000000E+00  0.10566000000E+00 0.  1.
     999900   -1    0    0    0    0 -0.00000000000E+00 -0.00000000000E+00 -0.74505805969E-08  0.93827000000E+00  0.93827000000E+00 0.  1.
     999902    2    1    2    0    0 -0.75764514002E-02  0.21487758866E-01 -0.61911603026E-02  0.10203194756E+01  0.10200462614E+01 0.  0.
     999903    2    3    3    0    0 -0.85059025984E-01 -0.31996376330E-01 -0.92335100400E-01  0.13111484195E+00  0.20162465450E-01 0.  0.
         14    1    1    2    0    0  0.75764514002E-02 -0.21487758866E-01  0.61911603026E-02  0.23610524408E-01  0.00000000000E+00 0.  1.
     999901    1    3    3    0    0  0.77482574584E-01  0.53484135197E-01  0.86143940098E-01  0.88920463365E+00  0.88000000000E+00 0. -1.
        -11    1    4    4    0    0 -0.26303053568E-01 -0.19868791098E-01 -0.36006476860E-01  0.48819534856E-01  0.51100000000E-03 0. -1.
         11    1    4    4    0    0 -0.58755972417E-01 -0.12127585233E-01 -0.56328623541E-01  0.82295307091E-01  0.51100000000E-03 0.  1.
</event>
<event>
 8    1  0.1120016E+005  0.1043930E+01  0.7957747E-01            NaN
         13   -1    0    0    0    0  0.00000000000E+00  0.00000000000E+00  0.74505805969E-08  0.10566000000E+00  0.10566000000E+00 0. -1.
     999900   -1    0    0    0    0 -0.00000000000E+00 -0.00000000000E+00 -0.74505805969E-08  0.93827000000E+00  0.93827000000E+00 0. -1.
     999902    2    1    2    0    0  0.20980485544E-02  0.43806389029E-02 -0.23755060566E-01  0.10196834599E+01  0.10193951460E+01 0.  0.
     999903    2    3    3    0    0 -0.58426596416E-01  0.87284238528E-01  0.71216466492E-01  0.12864146849E+00  0.21086413913E-01 0.  0.
         14    1    1    2    0    0 -0.20980485544E-02 -0.43806389029E-02  0.23755060566E-01  0.24246540113E-01  0.00000000000E+00 0. -1.
     999901    1    3    3    0    0  0.60524644971E-01 -0.82903599625E-01 -0.94971527058E-01  0.89104199140E+00  0.88000000000E+00 0. -1.
        -11    1    4    4    0    0 -0.38585318662E-01  0.39134496115E-01  0.39199461934E-01  0.67506996225E-01  0.51100000000E-03 0. -1.
         11    1    4    4    0    0 -0.19841277754E-01  0.48149742413E-01  0.32017004558E-01  0.61134472266E-01  0.51100000000E-03 0.  1.
</event>
<event>
 8    1  0.1120016E+005  0.1043930E+01  0.7957747E-01            NaN
         13   -1    0    0    0    0  0.00000000000E+00  0.00000000000E+00  0.74505805969E-08  0.10566000000E+00  0.10566000000E+00 0.  1.
     999900   -1    0    0    0    0 -0.00000000000E+00 -0.00000000000E+00 -0.74505805969E-08  0.93827000000E+00  0.93827000000E+00 0.  1.
     999902    2    1    2    0    0  0.72514842990E-02 -0.23183859953E-01  0.29451331036E-02  0.10194606478E+01  0.10191669457E+01 0.  0.
     999903    2    3    3    0    0  0.10845618958E+00  0.61442701724E-01  0.20787714586E-01  0.12944806082E+00  0.28048542206E-01 0.  0.
         14    1    1    2    0    0 -0.72514842990E-02  0.23183859953E-01 -0.29451331036E-02  0.24469352175E-01  0.00000000000E+00 0. -1.
     999901    1    3    3    0    0 -0.10120470528E+00 -0.84626561677E-01 -0.17842581483E-01  0.89001258700E+00  0.88000000000E+00 0.  1.
        -11    1    4    4    0    0  0.78133593843E-01  0.55471491038E-01  0.85502430603E-02  0.96204535144E-01  0.51100000000E-03 0. -1.
         11    1    4    4    0    0  0.30322595734E-01  0.59712106855E-02  0.12237471526E-01  0.33243525677E-01  0.51100000000E-03 0.  1.
</event>
<event>
 8    1  0.1120016E+005  0.1043930E+01  0.7957747E-01            NaN
         13   -1    0    0    0    0  0.00000000000E+00  0.00000000000E+00  0.74505805969E-08  0.10566000000E+00  0.10566000000E+00 0.  1.
     999900   -1    0    0    0    0 -0.00000000000E+00 -0.00000000000E+00 -0.74505805969E-08  0.93827000000E+00  0.93827000000E+00 0. -1.
     999902    2    1    2    0    0  0.10129484644E-01 -0.18548020928E-01 -0.20255683377E-01  0.10146566632E+01  0.10142343003E+01 0.  0.
     999903    2    3    3    0    0 -0.82518665021E-01 -0.44827837279E-01  0.78511552959E-01  0.12391019232E+00  0.19256342849E-01 0.  0.
         14    1    1    2    0    0 -0.10129484644E-01  0.18548020928E-01  0.20255683377E-01  0.29273336820E-01  0.00000000000E+00 0.  1.
     999901    1    3    3    0    0  0.92648149665E-01  0.26279816350E-01 -0.98767236335E-01  0.89074647086E+00  0.88000000000E+00 0. -1.
        -11    1    4    4    0    0 -0.15084486847E-01 -0.59342351521E-02  0.53465668933E-02  0.17076410303E-01  0.51100000000E-03 0.  1.
         11    1    4    4    0    0 -0.67434178173E-01 -0.38893602127E-01  0.73164986065E-01  0.10683378201E+00  0.51100000000E-03 0. -1.
</event>
<event>
 8    1  0.1120016E+005  0.1043930E+01  0.7957747E-01            NaN
         13   -1    0    0    0    0  0.00000000000E+00  0.00000000000E+00  0.74505805969E-08  0.10566000000E+00  0.10566000000E+00 0. -1.
     999900   -1    0    0    0    0 -0.00000000000E+00 -0.00000000000E+00 -0.74505805969E-08  0.93827000000E+00  0.93827000000E+00 0.  1.
     999902    2    1    2    0    0 -0.11941571226E-01 -0.22174420017E-01 -0.12585925885E-02  0.10187131389E+01  0.10184009865E+01 0.  0.
     999903    2    3    3    0    0 -0.36574121993E-01  0.41304980299E-01 -0.11532939194E+00  0.12874204722E+00  0.15161737371E-01 0.  0.
         14    1    1    2    0    0  0.11941571226E-01  0.22174420017E-01  0.12585925885E-02  0.25216861061E-01  0.00000000000E+00 0.  1.
     999901    1    3    3    0    0  0.24632550766E-01 -0.63479400316E-01  0.11407079936E+00  0.88997109171E+00  0.88000000000E+00 0. -1.
        -11    1    4    4    0    0 -0.30118515594E-01  0.27788172435E-01 -0.71394369747E-01  0.82320864071E-01  0.51100000000E-03 0. -1.
         11    1    4    4    0    0 -0.64556063986E-02  0.13516807864E-01 -0.43935022198E-01  0.46421183153E-01  0.51100000000E-03 0.  1.
</event>
<event>
 8    1  0.1120016E+005  0.1043930E+01  0.7957747E-01            NaN
         13   -1    0    0    0    0  0.00000000000E+00  0.00000000000E+00  0.74505805969E-08  0.10566000000E+00  0.10566000000E+00 0. -1.
     999900   -1    0    0    0    0 -0.00000000000E+00 -0.00000000000E+00 -0.74505805969E-08  0.93827000000E+00  0.93827000000E+00 0.  1.
     999902    2    1    2    0    0  0.47994927549E-02  0.13680986358E-01 -0.18885466612E-01  0.10201210654E+01  0.10198431853E+01 0.  0.
     999903    2    3    3    0    0  0.49945499133E-01  0.86611100352E-01  0.81057898961E-01  0.13032016645E+00  0.20418795554E-01 0.  0.
         14    1    1    2    0    0 -0.47994927549E-02 -0.13680986358E-01  0.18885466612E-01  0.23808934617E-01  0.00000000000E+00 0. -1.
     999901    1    3    3    0    0 -0.45146006378E-01 -0.72930113994E-01 -0.99943365573E-01  0.88980089893E+00  0.88000000000E+00 0. -1.
        -11    1    4    4    0    0  0.22562579650E-01  0.20692039682E-01  0.26085952994E-01  0.40223980053E-01  0.51100000000E-03 0.  1.
         11    1    4    4    0    0  0.27382919483E-01  0.65919060670E-01  0.54971945967E-01  0.90096186398E-01  0.51100000000E-03 0. -1.
</event>
<event>
 8    1  0.1125075E+005  0.1043930E+01  0.7957747E-01            NaN
         13   -1    0    0    0    0  0.00000000000E+00  0.00000000000E+00  0.74505805969E-08  0.10566000000E+00  0.10566000000E+00 0. -1.
     999900   -1    0    0    0    0 -0.00000000000E+00 -0.00000000000E+00 -0.74505805969E-08  0.93827000000E+00  0.93827000000E+00 0. -1.
     999902    2    1    2    0    0 -0.28115867896E-01  0.32566914338E-03  0.12942132182E-01  0.10129766985E+01  0.10125036715E+01 0.  0.
     999903    2    3    3    0    0 -0.10241248238E+00  0.72317928493E-01  0.26353852779E-02  0.12685644630E+00  0.19168030294E-01 0.  0.
         14    1    1    2    0    0  0.28115867896E-01 -0.32566914338E-03 -0.12942132182E-01  0.30953301494E-01  0.00000000000E+00 0.  1.
     999901    1    3    3    0    0  0.74296614481E-01 -0.71992259350E-01  0.10306746904E-01  0.88612025220E+00  0.88000000000E+00 0.  1.
        -11    1    4    4    0    0 -0.25153767029E-01  0.83408882918E-02  0.12853487604E-02  0.26536685092E-01  0.51100000000E-03 0. -1.
         11    1    4    4    0    0 -0.77258715348E-01  0.63977040201E-01  0.13500365175E-02  0.10031976121E+00  0.51100000000E-03 0.  1.
</event>
<event>
 8    1  0.1120016E+005  0.1043930E+01  0.7957747E-01            NaN
         13   -1    0    0    0    0  0.00000000000E+00  0.00000000000E+00  0.74505805969E-08  0.10566000000E+00  0.10566000000E+00 0.  1.
     999900   -1    0    0    0    0 -0.00000000000E+00 -0.00000000000E+00 -0.74505805969E-08  0.93827000000E+00  0.93827000000E+00 0.  1.
     999902    2    1    2    0    0 -0.16101585684E-01 -0.18714934636E-01 -0.63280239298E-03  0.10192336383E+01  0.10189343940E+01 0.  0.
     999903    2    3    3    0    0 -0.76040110691E-01 -0.64893481014E-01  0.83931776327E-01  0.13194774705E+00  0.19297734621E-01 0.  0.
         14    1    1    2    0    0  0.16101585684E-01  0.18714934636E-01  0.63280239298E-03  0.24696361652E-01  0.00000000000E+00 0.  1.
     999901    1    3    3    0    0  0.59938525007E-01  0.46178546378E-01 -0.84564578720E-01  0.88728589130E+00  0.88000000000E+00 0.  1.
        -11    1    4    4    0    0 -0.19521081852E-01 -0.20226985815E-01  0.13461714983E-01  0.31171821941E-01  0.51100000000E-03 0.  1.
         11    1    4    4    0    0 -0.56519028839E-01 -0.44666495199E-01  0.70470061344E-01  0.10077592511E+00  0.51100000000E-03 0. -1.
</event>
<event>
 7    1  0.1120016E+005  0.1043930E+01  0.7957747E-01            NaN
         13   -1    0    0    0    0  0.00000000000E+00  0.00000000000E+00  0.74505805969E-08  0.10566000000E+00  0.10566000000E+00 0.  1.
     999900   -1    0    0    0    0 -0.00000000000E+00 -0.00000000000E+00 -0.74505805969E-08  0.93827000000E+00  0.93827000000E+00 0.  1.
     999902    2    1    2    0    0 -0.17251685174E-01 -0.16517450971E-01 -0.20249795980E-02  0.10199602822E+01  0.10196785915E+01 0.  0.
         14    1    1    2    0    0  0.17251685174E-01  0.16517450971E-01  0.20249795980E-02  0.23969717777E-01  0.00000000000E+00 0.  1.
     999901    1    3    3    0    0 -0.73605864406E-01  0.88166066967E-01 -0.35325480466E-01  0.88816607017E+00  0.88000000000E+00 0.  1.
        -11    1    3    3    0    0  0.46373621563E-01 -0.58392688134E-01  0.38903089880E-01  0.84106660423E-01  0.51100000000E-03 0.  1.
         11    1    3    3    0    0  0.99805576692E-02 -0.46290829805E-01 -0.56025890120E-02  0.47687551626E-01  0.51100000000E-03 0. -1.
</event>
<event>
 8    1  0.1120016E+005  0.1043930E+01  0.7957747E-01            NaN
         13   -1    0    0    0    0  0.00000000000E+00  0.00000000000E+00  0.74505805969E-08  0.10566000000E+00  0.10566000000E+00 0.  1.
     999900   -1    0    0    0    0 -0.00000000000E+00 -0.00000000000E+00 -0.74505805969E-08  0.93827000000E+00  0.93827000000E+00 0. -1.
     999902    2    1    2    0    0 -0.77067388308E-02  0.14332774022E-01 -0.18772599212E-01  0.10190858314E+01  0.10187829499E+01 0.  0.
     999903    2    3    3    0    0  0.91738817979E-01 -0.85195221624E-01 -0.10293303880E-01  0.12786916907E+00  0.23881703905E-01 0.  0.
         14    1    1    2    0    0  0.77067388308E-02 -0.14332774022E-01  0.18772599212E-01  0.24844168647E-01  0.00000000000E+00 0.  1.
     999901    1    3    3    0    0 -0.99445556810E-01  0.99527995646E-01 -0.84792953327E-02  0.89121666229E+00  0.88000000000E+00 0.  1.
        -11    1    4    4    0    0  0.53646529520E-01 -0.40982440367E-01 -0.15526240110E-01  0.69273629910E-01  0.51100000000E-03 0.  1.
         11    1    4    4    0    0  0.38092288459E-01 -0.44212781257E-01  0.52329362302E-02  0.58595539157E-01  0.51100000000E-03 0. -1.
</event>
<event>
 8    1  0.1120016E+005  0.1043930E+01  0.7957747E-01            NaN
         13   -1    0    0    0    0  0.00000000000E+00  0.00000000000E+00  0.74505805969E-08  0.10566000000E+00  0.10566000000E+00 0. -1.
     999900   -1    0    0    0    0 -0.00000000000E+00 -0.00000000000E+00 -0.74505805969E-08  0.93827000000E+00  0.93827000000E+00 0. -1.
     999902    2    1    2    0    0 -0.72871805212E-02  0.31816947076E-02 -0.21933994338E-01  0.10205991987E+01  0.10203324939E+01 0.  0.
     999903    2    3    3    0    0  0.26881483812E-01  0.22865353461E-01 -0.12716541181E+00  0.13345287748E+00  0.19829018846E-01 0.  0.
         14    1    1    2    0    0  0.72871805212E-02 -0.31816947076E-02  0.21933994338E-01  0.23330801288E-01  0.00000000000E+00 0. -1.
     999901    1    3    3    0    0 -0.34168664333E-01 -0.19683658753E-01  0.10523141747E+00  0.88714632123E+00  0.88000000000E+00 0.  1.
        -11    1    4    4    0    0  0.11160452397E-01  0.12292413685E-01 -0.92170706373E-01  0.93655535694E-01  0.51100000000E-03 0.  1.
         11    1    4    4    0    0  0.15721031415E-01  0.10572939775E-01 -0.34994705433E-01  0.39797341790E-01  0.51100000000E-03 0. -1.
</event>
<event>
 8    1  0.1120016E+005  0.1043930E+01  0.7957747E-01            NaN
         13   -1    0    0    0    0  0.00000000000E+00  0.00000000000E+00  0.74505805969E-08  0.10566000000E+00  0.10566000000E+00 0.  1.
     999900   -1    0    0    0    0 -0.00000000000E+00 -0.00000000000E+00 -0.74505805969E-08  0.93827000000E+00  0.93827000000E+00 0. -1.
     999902    2    1    2    0    0 -0.37655717569E-02 -0.22306208627E-01  0.63054660964E-04  0.10213080980E+01  0.10210575305E+01 0.  0.
     999903    2    3    3    0    0  0.33968200004E-01  0.41867009606E-01  0.11711883689E+00  0.13044105090E+00  0.19782838495E-01 0.  0.
         14    1    1    2    0    0  0.37655717569E-02  0.22306208627E-01 -0.63054660964E-04  0.22621901995E-01  0.00000000000E+00 0. -1.
     999901    1    3    3    0    0 -0.37733771761E-01 -0.64173218233E-01 -0.11705578223E+00  0.89086704711E+00  0.88000000000E+00 0. -1.
        -11    1    4    4    0    0  0.21560947198E-01  0.32127474054E-01  0.99650030617E-01  0.10689919904E+00  0.51100000000E-03 0. -1.
         11    1    4    4    0    0  0.12407252806E-01  0.97395355520E-02  0.17468806277E-01  0.23541851854E-01  0.51100000000E-03 0.  1.
</event>
<event>
 8    1  0.1120016E+005  0.1043930E+01  0.7957747E-01            NaN
         13   -1    0    0    0    0  0.00000000000E+00  0.00000000000E+00  0.74505805969E-08  0.10566000000E+00  0.10566000000E+00 0.  1.
     999900   -1    0    0    0    0 -0.00000000000E+00 -0.00000000000E+00 -0.74505805969E-08  0.93827000000E+00  0.93827000000E+00 0. -1.
     999902    2    1    2    0    0  0.21538968075E-01  0.95909918463E-03 -0.93896682530E-02  0.10204137740E+01  0.10201427632E+01 0.  0.
     999903    2    3    3    0    0  0.10795665380E+00  0.63007256423E-01  0.39680319858E-01  0.13264924778E+00  0.19918375729E-01 0.  0.
         14    1    1    2    0    0 -0.21538968075E-01 -0.95909918463E-03  0.93896682530E-02  0.23516226034E-01  0.00000000000E+00 0.  1.
     999901    1    3    3    0    0 -0.86417685721E-01 -0.62048157238E-01 -0.49069988111E-01  0.88776452619E+00  0.88000000000E+00 0.  1.
        -11    1    4    4    0    0  0.77927913821E-01  0.55294757990E-01  0.29111555256E-01  0.99890008429E-01  0.51100000000E-03 0. -1.
         11    1    4    4    0    0  0.30028739975E-01  0.77124984327E-02  0.10568764602E-01  0.32759239350E-01  0.51100000000E-03 0.  1.
</event>
<event>
 8    1  0.1120016E+005  0.1043930E+01  0.7957747E-01            NaN
         13   -1    0    0    0    0  0.00000000000E+00  0.00000000000E+00  0.74505805969E-08  0.10566000000E+00  0.10566000000E+00 0. -1.
     999900   -1    0    0    0    0 -0.00000000000E+00 -0.00000000000E+00 -0.74505805969E-08  0.93827000000E+00  0.93827000000E+00 0. -1.
     999902    2    1    2    0    0  0.99700897917E-02  0.10577451886E-01  0.18303535608E-01  0.10205568403E+01  0.10202891549E+01 0.  0.
     999903    2    3    3    0    0 -0.10674305503E+00  0.72683759789E-01  0.28779931426E-02  0.13054723416E+00  0.18902083669E-01 0.  0.
         14    1    1    2    0    0 -0.99700897917E-02 -0.10577451886E-01 -0.18303535608E-01  0.23373159705E-01  0.00000000000E+00 0. -1.
     999901    1    3    3    0    0  0.11671314482E+00 -0.62106307903E-01  0.15425542466E-01  0.89000960614E+00  0.88000000000E+00 0. -1.
        -11    1    4    4    0    0 -0.76132493395E-01  0.53776347260E-01  0.10391004340E-01  0.93788518313E-01  0.51100000000E-03 0.  1.
         11    1    4    4    0    0 -0.30610561637E-01  0.18907412529E-01 -0.75130111978E-02  0.36758715845E-01  0.51100000000E-03 0. -1.
</event>
<event>
 8    1  0.1120016E+005  0.1043930E+01  0.7957747E-01            NaN
         13   -1    0    0    0    0  0.00000000000E+00  0.00000000000E+00  0.74505805969E-08  0.10566000000E+00  0.10566000000E+00 0.  1.
     999900   -1    0    0    0    0 -0.00000000000E+00 -0.00000000000E+00 -0.74505805969E-08  0.93827000000E+00  0.93827000000E+00 0.  1.
     999902    2    1    2    0    0  0.22902682281E-01  0.36843415315E-02  0.53549191610E-02  0.10201228081E+01  0.10198449692E+01 0.  0.
     999903    2    3    3    0    0 -0.10867701239E+00  0.63486512799E-01  0.14459443385E-01  0.12828627143E+00  0.20175767765E-01 0.  0.
         14    1    1    2    0    0 -0.22902682281E-01 -0.36843415315E-02 -0.53549191610E-02  0.23807191926E-01  0.00000000000E+00 0.  1.
     999901    1    3    3    0    0  0.13157969467E+00 -0.59802171268E-01 -0.91045242242E-02  0.89183653665E+00  0.88000000000E+00 0.  1.
        -11    1    4    4    0    0 -0.46428133631E-01  0.21058948454E-01 -0.25804680510E-02  0.51048710452E-01  0.51100000000E-03 0. -1.
         11    1    4    4    0    0 -0.62248878755E-01  0.42427564345E-01  0.17039911436E-01  0.77237560974E-01  0.51100000000E-03 0.  1.
</event>
<event>
 8    1  0.1120016E+005  0.1043930E+01  0.7957747E-01            NaN
         13   -1    0    0    0    0  0.00000000000E+00  0.00000000000E+00  0.74505805969E-08  0.10566000000E+00  0.10566000000E+00 0.  1.
     999900   -1    0    0    0    0 -0.00000000000E+00 -0.00000000000E+00 -0.74505805969E-08  0.93827000000E+00  0.93827000000E+00 0. -1.
     999902    2    1    2    0    0  0.17231499000E-01  0.13393392920E-01  0.88709935134E-02  0.10203715184E+01  0.10200995213E+01 0.  0.
     999903    2    3    3    0    0 -0.12074824987E+00  0.28316128631E-01 -0.28207174568E-01  0.12872366763E+00  0.19803911860E-01 0.  0.
         14    1    1    2    0    0 -0.17231499000E-01 -0.13393392920E-01 -0.88709935134E-02  0.23558481649E-01  0.00000000000E+00 0. -1.
     999901    1    3    3    0    0  0.13797974887E+00 -0.14922735711E-01  0.37078168082E-01  0.89164785072E+00  0.88000000000E+00 0. -1.
        -11    1    4    4    0    0 -0.65611007267E-01  0.25466148333E-01 -0.15913602088E-01  0.72158387163E-01  0.51100000000E-03 0. -1.
         11    1    4    4    0    0 -0.55137242603E-01  0.28499802971E-02 -0.12293572480E-01  0.56565280472E-01  0.51100000000E-03 0.  1.
</event>
<event>
 8    1  0.1120016E+005  0.1043930E+01  0.7957747E-01            NaN
         13   -1    0    0    0    0  0.00000000000E+00  0.00000000000E+00  0.74505805969E-08  0.10566000000E+00  0.10566000000E+00 0.  1.
     999900   -1    0    0    0    0 -0.00000000000E+00 -0.00000000000E+00 -0.74505805969E-08  0.93827000000E+00  0.93827000000E+00 0.  1.
     999902    2    1    2    0    0  0.14060218027E-01  0.16082773049E-01  0.10403531049E-01  0.10201691335E+01  0.10198923875E+01 0.  0.
     999903    2    3    3    0    0 -0.84709642377E-02  0.63223001922E-01  0.11430807716E+00  0.13251716899E+00  0.20629066007E-01 0.  0.
         14    1    1    2    0    0 -0.14060218027E-01 -0.16082773049E-01 -0.10403531049E-01  0.23760866529E-01  0.00000000000E+00 0. -1.
     999901    1    3    3    0    0  0.22531182265E-01 -0.47140228873E-01 -0.10390454611E+00  0.88765196449E+00  0.88000000000E+00 0.  1.
        -11    1    4    4    0    0  0.26627921229E-02  0.29064439162E-01  0.67233115643E-01  0.73296555484E-01  0.51100000000E-03 0.  1.
         11    1    4    4    0    0 -0.11133756361E-01  0.34158562760E-01  0.47074961518E-01  0.59220613501E-01  0.51100000000E-03 0. -1.
</event>
<event>
 8    1  0.1120016E+005  0.1043930E+01  0.7957747E-01            NaN
         13   -1    0    0    0    0  0.00000000000E+00  0.00000000000E+00  0.74505805969E-08  0.10566000000E+00  0.10566000000E+00 0.  1.
     999900   -1    0    0    0    0 -0.00000000000E+00 -0.00000000000E+00 -0.74505805969E-08  0.93827000000E+00  0.93827000000E+00 0. -1.
     999902    2    1    2    0    0  0.32576221653E-02  0.57917213542E-02  0.23263005723E-01  0.10197365386E+01  0.10194495008E+01 0.  0.
     999903    2    3    3    0    0  0.76898983390E-01  0.80127549121E-01 -0.64081151898E-01  0.12924349134E+00  0.16236017104E-01 0.  0.
         14    1    1    2    0    0 -0.32576221653E-02 -0.57917213542E-02 -0.23263005723E-01  0.24193461383E-01  0.00000000000E+00 0. -1.
     999901    1    3    3    0    0 -0.73641361224E-01 -0.74335827767E-01  0.87344157621E-01  0.89049304727E+00  0.88000000000E+00 0. -1.
        -11    1    4    4    0    0  0.37998005292E-01  0.50757467630E-01 -0.33716496780E-01  0.71813871936E-01  0.51100000000E-03 0.  1.
         11    1    4    4    0    0  0.38900978097E-01  0.29370081491E-01 -0.30364655118E-01  0.57429619406E-01  0.51100000000E-03 0. -1.
</event>
<event>
 8    1  0.1120016E+005  0.1043930E+01  0.7957747E-01            NaN
         13   -1    0    0    0    0  0.00000000000E+00  0.00000000000E+00  0.74505805969E-08  0.10566000000E+00  0.10566000000E+00 0.  1.
     999900   -1    0    0    0    0 -0.00000000000E+00 -0.00000000000E+00 -0.74505805969E-08  0.93827000000E+00  0.93827000000E+00 0. -1.
     999902    2    1    2    0    0  0.67800007423E-02  0.76135228195E-02  0.20254629389E-01  0.10212543710E+01  0.10210025985E+01 0.  0.
     999903    2    3    3    0    0 -0.86332987496E-01 -0.26732821644E-01 -0.89655311766E-01  0.12888118945E+00  0.20106157811E-01 0.  0.
         14    1    1    2    0    0 -0.67800007423E-02 -0.76135228195E-02 -0.20254629389E-01  0.22675629020E-01  0.00000000000E+00 0. -1.
     999901    1    3    3    0    0  0.93112988238E-01  0.34346344464E-01  0.10990994116E+00  0.89237318153E+00  0.88000000000E+00 0.  1.
        -11    1    4    4    0    0 -0.18481748343E-02  0.11098414687E-02  0.45261173908E-03  0.22612997790E-02  0.51100000000E-03 0.  1.
         11    1    4    4    0    0 -0.84484812661E-01 -0.27842663113E-01 -0.90107923506E-01  0.12661988967E+00  0.51100000000E-03 0. -1.
</event>
<event>
 8    1  0.1120016E+005  0.1043930E+01  0.7957747E-01            NaN
         13   -1    0    0    0    0  0.00000000000E+00  0.00000000000E+00  0.74505805969E-08  0.10566000000E+00  0.10566000000E+00 0.  1.
     999900   -1    0    0    0    0 -0.00000000000E+00 -0.00000000000E+00 -0.74505805969E-08  0.93827000000E+00  0.93827000000E+00 0. -1.
     999902    2    1    2    0    0  0.22632544389E-01 -0.41968841272E-02  0.69241109641E-02  0.10198927536E+01  0.10196094545E+01 0.  0.
     999903    2    3    3    0    0 -0.55392051462E-01 -0.11073576050E+00  0.32535096478E-01  0.12967126862E+00  0.20625648671E-01 0.  0.
         14    1    1    2    0    0 -0.22632544389E-01  0.41968841272E-02 -0.69241109641E-02  0.24037246401E-01  0.00000000000E+00 0. -1.
     999901    1    3    3    0    0  0.78024595851E-01  0.10653887638E+00 -0.25610985514E-01  0.89022148498E+00  0.88000000000E+00 0. -1.
        -11    1    4    4    0    0 -0.32411959756E-01 -0.85064196173E-01  0.24936992972E-01  0.94385207237E-01  0.51100000000E-03 0.  1.
         11    1    4    4    0    0 -0.22980091705E-01 -0.25671564332E-01  0.75981035059E-02  0.35286061383E-01  0.51100000000E-03 0. -1.
</event>
<event>
 8    1  0.1120016E+005  0.1043930E+01  0.7957747E-01            NaN
         13   -1    0    0    0    0  0.00000000000E+00  0.00000000000E+00  0.74505805969E-08  0.10566000000E+00  0.10566000000E+00 0. -1.
     999900   -1    0    0    0    0 -0.00000000000E+00 -0.00000000000E+00 -0.74505805969E-08  0.93827000000E+00  0.93827000000E+00 0.  1.
     999902    2    1    2    0    0 -0.18746274093E-01 -0.19893848147E-02  0.14111319610E-01  0.10203819685E+01  0.10201102156E+01 0.  0.
     999903    2    3    3    0    0 -0.82228158503E-01  0.22835218869E-02  0.10334953829E+00  0.13358341924E+00  0.19917788734E-01 0.  0.
         14    1    1    2    0    0  0.18746274093E-01  0.19893848147E-02 -0.14111319610E-01  0.23548031456E-01  0.00000000000E+00 0.  1.
     999901    1    3    3    0    0  0.63481884410E-01 -0.42729067016E-02 -0.89238218676E-01  0.88679854931E+00  0.88000000000E+00 0.  1.
        -11    1    4    4    0    0 -0.21879174787E-01 -0.70781044905E-02  0.21717620536E-01  0.31634064160E-01  0.51100000000E-03 0. -1.
         11    1    4    4    0    0 -0.60348983716E-01  0.93616263774E-02  0.81631917750E-01  0.10194935508E+00  0.51100000000E-03 0.  1.
</event>
<event>
 8    1  0.1120016E+005  0.1043930E+01  0.7957747E-01            NaN
         13   -1    0    0    0    0  0.00000000000E+00  0.00000000000E+00  0.74505805969E-08  0.10566000000E+00  0.10566000000E+00 0. -1.
     999900   -1    0    0    0    0 -0.00000000000E+00 -0.00000000000E+00 -0.74505805969E-08  0.93827000000E+00  0.93827000000E+00 0.  1.
     999902    2    1    2    0    0  0.78504144563E-02 -0.18659308001E-01  0.12301107088E-01  0.10202421124E+01  0.10199670838E+01 0.  0.
     999903    2    3    3    0    0 -0.29613147156E-03  0.11205263874E+00 -0.58251909530E-01  0.12775698236E+00  0.19304922573E-01 0.  0.
         14    1    1    2    0    0 -0.78504144563E-02  0.18659308001E-01 -0.12301107088E-01  0.23687887575E-01  0.00000000000E+00 0.  1.
     999901    1    3    3    0    0  0.81465459278E-02 -0.13071194674E+00  0.70553016618E-01  0.89248513006E+00  0.88000000000E+00 0. -1.
        -11    1    4    4    0    0 -0.13811798507E-02  0.48583532620E-01 -0.36014120882E-01  0.60494175947E-01  0.51100000000E-03 0. -1.
         11    1    4    4    0    0  0.10850483792E-02  0.63469106120E-01 -0.22237788648E-01  0.67262806414E-01  0.51100000000E-03 0.  1.
</event>
<event>
 8    1  0.1120016E+005  0.1043930E+01  0.7957747E-01            NaN
         13   -1    0    0    0    0  0.00000000000E+00  0.00000000000E+00  0.74505805969E-08  0.10566000000E+00  0.10566000000E+00 0.  1.
     999900   -1    0    0    0    0 -0.00000000000E+00 -0.00000000000E+00 -0.74505805969E-08  0.93827000000E+00  0.93827000000E+00 0. -1.
     999902    2    1    2    0    0  0.46802726460E-02 -0.65522213410E-02  0.90741828229E-02  0.10317983327E+01  0.10317270095E+01 0.  0.
     999903    2    3    3    0    0 -0.11301870250E+00  0.45661378420E-01  0.67253376721E-01  0.14052725874E+00  0.19149547656E-01 0.  0.
         14    1    1    2    0    0 -0.46802726460E-02  0.65522213410E-02 -0.90741828229E-02  0.12131667257E-01  0.00000000000E+00 0. -1.
     999901    1    3    3    0    0  0.11769897514E+00 -0.52213599761E-01 -0.58179193898E-01  0.89127107400E+00  0.88000000000E+00 0. -1.
        -11    1    4    4    0    0 -0.68149467879E-01  0.34136030608E-01  0.49649657725E-01  0.90966852155E-01  0.51100000000E-03 0. -1.
         11    1    4    4    0    0 -0.44869234618E-01  0.11525347812E-01  0.17603718996E-01  0.49560406585E-01  0.51100000000E-03 0.  1.
</event>
<event>
 8    1  0.1120016E+005  0.1043930E+01  0.7957747E-01            NaN
         13   -1    0    0    0    0  0.00000000000E+00  0.00000000000E+00  0.74505805969E-08  0.10566000000E+00  0.10566000000E+00 0. -1.
     999900   -1    0    0    0    0 -0.00000000000E+00 -0.00000000000E+00 -0.74505805969E-08  0.93827000000E+00  0.93827000000E+00 0.  1.
     999902    2    1    2    0    0  0.66724483747E-02 -0.22494840440E-01 -0.26080179473E-02  0.10203219257E+01  0.10200487689E+01 0.  0.
     999903    2    3    3    0    0  0.78539231483E-02 -0.35672485461E-01  0.12479190560E+00  0.13104930906E+00  0.16330688153E-01 0.  0.
         14    1    1    2    0    0 -0.66724483747E-02  0.22494840440E-01  0.26080179473E-02  0.23608074283E-01  0.00000000000E+00 0. -1.
     999901    1    3    3    0    0 -0.11814747736E-02  0.13177645021E-01 -0.12739992354E+00  0.88927261665E+00  0.88000000000E+00 0.  1.
        -11    1    4    4    0    0  0.77539117536E-02 -0.23912759165E-01  0.57814676652E-01  0.63045548263E-01  0.51100000000E-03 0. -1.
         11    1    4    4    0    0  0.10001139464E-03 -0.11759726296E-01  0.66977228945E-01  0.68003760800E-01  0.51100000000E-03 0.  1.
</event>
<event>
 8    1  0.1120016E+005  0.1043930E+01  0.7957747E-01            NaN
         13   -1    0    0    0    0  0.00000000000E+00  0.00000000000E+00  0.74505805969E-08  0.10566000000E+00  0.10566000000E+00 0. -1.
     999900   -1    0    0    0    0 -0.00000000000E+00 -0.00000000000E+00 -0.74505805969E-08  0.93827000000E+00  0.93827000000E+00 0.  1.
     999902    2    1    2    0    0  0.14994054840E-01 -0.37769043424E-02 -0.91360022786E-02  0.10259702332E+01  0.10258130269E+01 0.  0.
     999903    2    3    3    0    0  0.10083499452E+00 -0.82430768514E-01  0.37251806455E-01  0.13709064286E+00  0.21062278097E-01 0.  0.
         14    1    1    2    0    0 -0.14994054840E-01  0.37769043424E-02  0.91360022786E-02  0.17959766830E-01  0.00000000000E+00 0. -1.
     999901    1    3    3    0    0 -0.85840939675E-01  0.78653864171E-01 -0.46387808733E-01  0.88887959031E+00  0.88000000000E+00 0. -1.
        -11    1    4    4    0    0  0.40968121886E-01 -0.35011448660E-01  0.26192237063E-01  0.59920638777E-01  0.51100000000E-03 0.  1.
         11    1    4    4    0    0  0.59866872629E-01 -0.47419319853E-01  0.11059569392E-01  0.77170004081E-01  0.51100000000E-03 0. -1.
</event>
<event>
 8    1  0.1120016E+005  0.1043930E+01  0.7957747E-01            NaN
         13   -1    0    0    0    0  0.00000000000E+00  0.00000000000E+00  0.74505805969E-08  0.10566000000E+00  0.10566000000E+00 0. -1.
     999900   -1    0    0    0    0 -0.00000000000E+00 -0.00000000000E+00 -0.74505805969E-08  0.93827000000E+00  0.93827000000E+00 0. -1.
     999902    2    1    2    0    0  0.13938150652E-01 -0.14518467520E-01 -0.16542563151E-01  0.10178778535E+01  0.10175444021E+01 0.  0.
     999903    2    3    3    0    0 -0.14885106292E-01  0.12101658063E+00  0.25044340766E-01  0.12606509286E+00  0.19965206198E-01 0.  0.
         14    1    1    2    0    0 -0.13938150652E-01  0.14518467520E-01  0.16542563151E-01  0.26052146521E-01  0.00000000000E+00 0. -1.
     999901    1    3    3    0    0  0.28823256943E-01 -0.13553504815E+00 -0.41586903918E-01  0.89181276061E+00  0.88000000000E+00 0.  1.
        -11    1    4    4    0    0 -0.13484949391E-01  0.41669293245E-01  0.13728950753E-01  0.45901188105E-01  0.51100000000E-03 0. -1.
         11    1    4    4    0    0 -0.14001569010E-02  0.79347287382E-01  0.11315390013E-01  0.80163904760E-01  0.51100000000E-03 0.  1.
</event>
<event>
 8    1  0.1120016E+005  0.1043930E+01  0.7957747E-01            NaN
         13   -1    0    0    0    0  0.00000000000E+00  0.00000000000E+00  0.74505805969E-08  0.10566000000E+00  0.10566000000E+00 0.  1.
     999900   -1    0    0    0    0 -0.00000000000E+00 -0.00000000000E+00 -0.74505805969E-08  0.93827000000E+00  0.93827000000E+00 0. -1.
     999902    2    1    2    0    0  0.12791161715E-01  0.11238077573E-01 -0.14671988368E-01  0.10214538916E+01  0.10212065791E+01 0.  0.
     999903    2    3    3    0    0 -0.62768538655E-01  0.11406850720E+00  0.80917978317E-02  0.13195877890E+00  0.19902973566E-01 0.  0.
         14    1    1    2    0    0 -0.12791161715E-01 -0.11238077573E-01  0.14671988368E-01  0.22476108387E-01  0.00000000000E+00 0.  1.
     999901    1    3    3    0    0  0.75559700370E-01 -0.10283042963E+00 -0.22763786199E-01  0.88949511271E+00  0.88000000000E+00 0. -1.
        -11    1    4    4    0    0 -0.38077514939E-01  0.64616041958E-01  0.14237646381E-01  0.76342004937E-01  0.51100000000E-03 0. -1.
         11    1    4    4    0    0 -0.24691023716E-01  0.49452465243E-01 -0.61458485494E-02  0.55616773964E-01  0.51100000000E-03 0.  1.
</event>
<event>
 8    1  0.1120016E+005  0.1043930E+01  0.7957747E-01            NaN
         13   -1    0    0    0    0  0.00000000000E+00  0.00000000000E+00  0.74505805969E-08  0.10566000000E+00  0.10566000000E+00 0.  1.
     999900   -1    0    0    0    0 -0.00000000000E+00 -0.00000000000E+00 -0.74505805969E-08  0.93827000000E+00  0.93827000000E+00 0.  1.
     999902    2    1    2    0    0  0.18433685907E-01 -0.14668444206E-01  0.25501692810E-02  0.10202346968E+01  0.10199594939E+01 0.  0.
     999903    2    3    3    0    0 -0.35925743401E-01  0.11733696591E+00  0.31545032114E-01  0.12825875656E+00  0.19914742645E-01 0.  0.
         14    1    1    2    0    0 -0.18433685907E-01  0.14668444206E-01 -0.25501692810E-02  0.23695303224E-01  0.00000000000E+00 0. -1.
     999901    1    3    3    0    0  0.54359429308E-01 -0.13200541012E+00 -0.28994862833E-01  0.89197594022E+00  0.88000000000E+00 0.  1.
        -11    1    4    4    0    0 -0.20943614127E-01  0.36524246378E-01  0.11820277746E-01  0.43733689910E-01  0.51100000000E-03 0. -1.
         11    1    4    4    0    0 -0.14982129274E-01  0.80812719534E-01  0.19724754367E-01  0.84525066649E-01  0.51100000000E-03 0.  1.
</event>
<event>
 8    1  0.1120016E+005  0.1043930E+01  0.7957747E-01            NaN
         13   -1    0    0    0    0  0.00000000000E+00  0.00000000000E+00  0.74505805969E-08  0.10566000000E+00  0.10566000000E+00 0. -1.
     999900   -1    0    0    0    0 -0.00000000000E+00 -0.00000000000E+00 -0.74505805969E-08  0.93827000000E+00  0.93827000000E+00 0. -1.
     999902    2    1    2    0    0 -0.16469605460E-01 -0.49056176020E-02  0.15897428197E-01  0.10205197200E+01  0.10202511738E+01 0.  0.
     999903    2    3    3    0    0 -0.35852070818E-02 -0.12253660780E+00  0.41666869032E-01  0.13222521832E+00  0.26819888552E-01 0.  0.
         14    1    1    2    0    0  0.16469605460E-01  0.49056176020E-02 -0.15897428197E-01  0.23410280035E-01  0.00000000000E+00 0.  1.
     999901    1    3    3    0    0 -0.12884398378E-01  0.11763099020E+00 -0.25769440836E-01  0.88829450165E+00  0.88000000000E+00 0. -1.
        -11    1    4    4    0    0 -0.31555025534E-02 -0.38744194831E-01  0.26551581283E-01  0.47077780525E-01  0.51100000000E-03 0. -1.
         11    1    4    4    0    0 -0.42970452837E-03 -0.83792412973E-01  0.15115287749E-01  0.85147437792E-01  0.51100000000E-03 0.  1.
</event>
<event>
 8    1  0.1120016E+005  0.1043930E+01  0.7957747E-01            NaN
         13   -1    0    0    0    0  0.00000000000E+00  0.00000000000E+00  0.74505805969E-08  0.10566000000E+00  0.10566000000E+00 0. -1.
     999900   -1    0    0    0    0 -0.00000000000E+00 -0.00000000000E+00 -0.74505805969E-08  0.93827000000E+00  0.93827000000E+00 0. -1.
     999902    2    1    2    0    0  0.23240930636E-01 -0.19517217463E-02  0.14670241533E-02  0.10205611696E+01  0.10202935845E+01 0.  0.
     999903    2    3    3    0    0 -0.77363044321E-01 -0.69740857623E-01  0.73998590792E-01  0.12928267503E+00  0.19732986964E-01 0.  0.
         14    1    1    2    0    0 -0.23240930636E-01  0.19517217463E-02 -0.14670241533E-02  0.23368830404E-01  0.00000000000E+00 0.  1.
     999901    1    3    3    0    0  0.10060397496E+00  0.67789135877E-01 -0.72531566639E-01  0.89127849457E+00  0.88000000000E+00 0. -1.
        -11    1    4    4    0    0 -0.51331004381E-01 -0.37230862844E-01  0.52958496410E-01  0.82618839388E-01  0.51100000000E-03 0.  1.
         11    1    4    4    0    0 -0.26032039940E-01 -0.32509994780E-01  0.21040094382E-01  0.46663835640E-01  0.51100000000E-03 0. -1.
</event>
<event>
 8    1  0.1120016E+005  0.1043930E+01  0.7957747E-01            NaN
         13   -1    0    0    0    0  0.00000000000E+00  0.00000000000E+00  0.74505805969E-08  0.10566000000E+00  0.10566000000E+00 0.  1.
     999900   -1    0    0    0    0 -0.00000000000E+00 -0.00000000000E+00 -0.74505805969E-08  0.93827000000E+00  0.93827000000E+00 0. -1.
     999902    2    1    2    0    0  0.53430043523E-02  0.21380359657E-01 -0.55955517225E-02  0.10211928570E+01  0.10209397012E+01 0.  0.
     999903    2    3    3    0    0  0.40651063559E-01  0.49222297668E-01  0.11393900747E+00  0.13197390563E+00  0.18964988488E-01 0.  0.
         14    1    1    2    0    0 -0.53430043523E-02 -0.21380359657E-01  0.55955517225E-02  0.22737143041E-01  0.00000000000E+00 0. -1.
     999901    1    3    3    0    0 -0.35308059207E-01 -0.27841938010E-01 -0.11953455919E+00  0.88921895133E+00  0.88000000000E+00 0.  1.
        -11    1    4    4    0    0  0.38288785339E-01  0.35534896064E-01  0.95851295651E-01  0.10916268557E+00  0.51100000000E-03 0.  1.
         11    1    4    4    0    0  0.23622782201E-02  0.13687401604E-01  0.18087711820E-01  0.22811220067E-01  0.51100000000E-03 0. -1.
</event>
<event>
 8    1  0.1120016E+005  0.1043930E+01  0.7957747E-01            NaN
         13   -1    0    0    0    0  0.00000000000E+00  0.00000000000E+00  0.74505805969E-08  0.10566000000E+00  0.10566000000E+00 0. -1.
     999900   -1    0    0    0    0 -0.00000000000E+00 -0.00000000000E+00 -0.74505805969E-08  0.93827000000E+00  0.93827000000E+00 0. -1.
     999902    2    1    2    0    0  0.23948791170E-02 -0.23107710898E-01 -0.57214632743E-04  0.10206984477E+01  0.10204340332E+01 0.  0.
     999903    2    3    3    0    0  0.25319760134E-01  0.66638155053E-01  0.10602168918E+00  0.12950116064E+00  0.21171161220E-01 0.  0.
         14    1    1    2    0    0 -0.23948791170E-02  0.23107710898E-01  0.57214632743E-04  0.23231552303E-01  0.00000000000E+00 0.  1.
     999901    1    3    3    0    0 -0.22924881017E-01 -0.89745865950E-01 -0.10607890382E+00  0.89119728706E+00  0.88000000000E+00 0.  1.
        -11    1    4    4    0    0  0.75538106644E-02  0.47644133887E-01  0.65490178651E-01  0.81340323150E-01  0.51100000000E-03 0.  1.
         11    1    4    4    0    0  0.17765949469E-01  0.18994021166E-01  0.40531510532E-01  0.48160837488E-01  0.51100000000E-03 0. -1.
</event>
<event>
 8    1  0.1120016E+005  0.1043930E+01  0.7957747E-01            NaN
         13   -1    0    0    0    0  0.00000000000E+00  0.00000000000E+00  0.74505805969E-08  0.10566000000E+00  0.10566000000E+00 0.  1.
     999900   -1    0    0    0    0 -0.00000000000E+00 -0.00000000000E+00 -0.74505805969E-08  0.93827000000E+00  0.93827000000E+00 0.  1.
     999902    2    1    2    0    0 -0.23626707638E-01  0.61870489410E-02  0.17267021636E-02  0.10194456705E+01  0.10191516044E+01 0.  0.
     999903    2    3    3    0    0  0.88775316296E-01 -0.88621075566E-01 -0.28484967948E-02  0.12723284397E+00  0.21102863165E-01 0.  0.
         14    1    1    2    0    0  0.23626707638E-01 -0.61870489410E-02 -0.17267021636E-02  0.24484329453E-01  0.00000000000E+00 0. -1.
     999901    1    3    3    0    0 -0.11240202393E+00  0.94808124507E-01  0.45751989584E-02  0.89221282657E+00  0.88000000000E+00 0. -1.
        -11    1    4    4    0    0  0.69159412821E-01 -0.56129181632E-01  0.10307571056E-02  0.89077679548E-01  0.51100000000E-03 0. -1.
         11    1    4    4    0    0  0.19615903475E-01 -0.32491893933E-01 -0.38792539004E-02  0.38155164425E-01  0.51100000000E-03 0.  1.
</event>
<event>
 8    1  0.1120016E+005  0.1043930E+01  0.7957747E-01            NaN
         13   -1    0    0    0    0  0.00000000000E+00  0.00000000000E+00  0.74505805969E-08  0.10566000000E+00  0.10566000000E+00 0.  1.
     999900   -1    0    0    0    0 -0.00000000000E+00 -0.00000000000E+00 -0.74505805969E-08  0.93827000000E+00  0.93827000000E+00 0.  1.
     999902    2    1    2    0    0 -0.10192236773E-01 -0.48369579530E-02 -0.21333580195E-01  0.10197970454E+01  0.10195114587E+01 0.  0.
     999903    2    3    3    0    0 -0.31508751644E-01  0.12016408034E+00 -0.35024513881E-01  0.13060241260E+00  0.19951590631E-01 0.  0.
         14    1    1    2    0    0  0.10192236773E-01  0.48369579530E-02  0.21333580195E-01  0.24132954577E-01  0.00000000000E+00 0.  1.
     999901    1    3    3    0    0  0.21316514871E-01 -0.12500103830E+00  0.13690933687E-01  0.88919463283E+00  0.88000000000E+00 0. -1.
        -11    1    4    4    0    0 -0.47059345783E-02  0.52195460941E-02 -0.54940477849E-02  0.89350525319E-02  0.51100000000E-03 0.  1.
         11    1    4    4    0    0 -0.26802817066E-01  0.11494453425E+00 -0.29530466097E-01  0.12166736007E+00  0.51100000000E-03 0. -1.
</event>
<event>
 8    1  0.1120016E+005  0.1043930E+01  0.7957747E-01            NaN
         13   -1    0    0    0    0  0.00000000000E+00  0.00000000000E+00  0.74505805969E-08  0.10566000000E+00  0.10566000000E+00 0. -1.
     999900   -1    0    0    0    0 -0.00000000000E+00 -0.00000000000E+00 -0.74505805969E-08  0.93827000000E+00  0.93827000000E+00 0. -1.
     999902    2    1    2    0    0 -0.31545992280E-02  0.14890648114E-01 -0.15462941021E-01  0.10222324093E+01  0.10220021102E+01 0.  0.
     999903    2    3    3    0    0  0.36139308200E-01  0.62405955475E-01  0.10626670198E+00  0.13171580553E+00  0.29255573843E-01 0.  0.
         14    1    1    2    0    0  0.31545992280E-02 -0.14890648114E-01  0.15462941021E-01  0.21697590709E-01  0.00000000000E+00 0. -1.
     999901    1    3    3    0    0 -0.39293907428E-01 -0.47515307361E-01 -0.12172964300E+00  0.89051660376E+00  0.88000000000E+00 0. -1.
        -11    1    4    4    0    0  0.12609381012E-01  0.16436001449E-01  0.11269919343E-01  0.23588362303E-01  0.51100000000E-03 0.  1.
         11    1    4    4    0    0  0.23529927188E-01  0.45969954026E-01  0.94996782634E-01  0.10812744323E+00  0.51100000000E-03 0. -1.
</event>
<event>
 8    1  0.1120016E+005  0.1043930E+01  0.7957747E-01            NaN
         13   -1    0    0    0    0  0.00000000000E+00  0.00000000000E+00  0.74505805969E-08  0.10566000000E+00  0.10566000000E+00 0. -1.
     999900   -1    0    0    0    0 -0.00000000000E+00 -0.00000000000E+00 -0.74505805969E-08  0.93827000000E+00  0.93827000000E+00 0.  1.
     999902    2    1    2    0    0  0.10937155317E-01  0.82626997435E-02  0.19296111188E-01  0.10202607482E+01  0.10199861572E+01 0.  0.
     999903    2    3    3    0    0 -0.52005285536E-01 -0.11387284606E+00 -0.23413193920E-01  0.12857530639E+00  0.17659472502E-01 0.  0.
         14    1    1    2    0    0 -0.10937155317E-01 -0.82626997435E-02 -0.19296111188E-01  0.23669251793E-01  0.00000000000E+00 0.  1.
     999901    1    3    3    0    0  0.62942440853E-01  0.12213554581E+00  0.42709305108E-01  0.89168544182E+00  0.88000000000E+00 0.  1.
        -11    1    4    4    0    0 -0.40191751775E-01 -0.68207866454E-01 -0.16936116829E-01  0.80961615171E-01  0.51100000000E-03 0.  1.
         11    1    4    4    0    0 -0.11813533761E-01 -0.45664979608E-01 -0.64770770908E-02  0.47613691216E-01  0.51100000000E-03 0. -1.
</event>
<event>
 8    1  0.1120016E+005  0.1043930E+01  0.7957747E-01            NaN
         13   -1    0    0    0    0  0.00000000000E+00  0.00000000000E+00  0.74505805969E-08  0.10566000000E+00  0.10566000000E+00 0. -1.
     999900   -1    0    0    0    0 -0.00000000000E+00 -0.00000000000E+00 -0.74505805969E-08  0.93827000000E+00  0.93827000000E+00 0. -1.
     999902    2    1    2    0    0 -0.25217560500E-01  0.61397882414E-03 -0.49535383668E-02  0.10182231941E+01  0.10178986360E+01 0.  0.
     999903    2    3    3    0    0 -0.11778831698E+00  0.45874211768E-01 -0.31387599474E-01  0.13181663205E+00  0.20295619274E-01 0.  0.
         14    1    1    2    0    0  0.25217560500E-01 -0.61397882414E-03  0.49535383668E-02  0.25706805907E-01  0.00000000000E+00 0. -1.
     999901    1    3    3    0    0  0.92570756484E-01 -0.45260232944E-01  0.26434061107E-01  0.88640656204E+00  0.88000000000E+00 0.  1.
        -11    1    4    4    0    0 -0.56181660546E-01  0.31793235216E-01 -0.11566627762E-01  0.65583814969E-01  0.51100000000E-03 0. -1.
         11    1    4    4    0    0 -0.61606656438E-01  0.14080976552E-01 -0.19820971712E-01  0.66232817083E-01  0.51100000000E-03 0.  1.
</event>
<event>
 8    1  0.1120016E+005  0.1043930E+01  0.7957747E-01            NaN
         13   -1    0    0    0    0  0.00000000000E+00  0.00000000000E+00  0.74505805969E-08  0.10566000000E+00  0.10566000000E+00 0. -1.
     999900   -1    0    0    0    0 -0.00000000000E+00 -0.00000000000E+00 -0.74505805969E-08  0.93827000000E+00  0.93827000000E+00 0.  1.
     999902    2    1    2    0    0  0.17171460045E-01  0.16323630423E-01  0.15273964711E-02  0.10201886249E+01  0.10199123382E+01 0.  0.
     999903    2    3    3    0    0  0.37045558742E-01  0.53601379346E-02  0.12432565888E+00  0.13137222588E+00  0.20017186995E-01 0.  0.
         14    1    1    2    0    0 -0.17171460045E-01 -0.16323630423E-01 -0.15273964711E-02  0.23741375071E-01  0.00000000000E+00 0. -1.
     999901    1    3    3    0    0 -0.19874098697E-01  0.10963492489E-01 -0.12279826241E+00  0.88881639905E+00  0.88000000000E+00 0.  1.
        -11    1    4    4    0    0  0.20109843827E-01  0.12344389479E-01  0.79956301825E-01  0.83367026413E-01  0.51100000000E-03 0.  1.
         11    1    4    4    0    0  0.16935714915E-01 -0.69842515441E-02  0.44369357057E-01  0.48005199468E-01  0.51100000000E-03 0. -1.
</event>
<event>
 8    1  0.1120016E+005  0.1043930E+01  0.7957747E-01            NaN
         13   -1    0    0    0    0  0.00000000000E+00  0.00000000000E+00  0.74505805969E-08  0.10566000000E+00  0.10566000000E+00 0.  1.
     999900   -1    0    0    0    0 -0.00000000000E+00 -0.00000000000E+00 -0.74505805969E-08  0.93827000000E+00  0.93827000000E+00 0. -1.
     999902    2    1    2    0    0 -0.10148094479E-01 -0.16595705317E-01  0.13739592967E-01  0.10201145077E+01  0.10198364728E+01 0.  0.
     999903    2    3    3    0    0 -0.88915149047E-02  0.27040374279E-01 -0.12355707961E+00  0.12839927139E+00  0.20243025814E-01 0.  0.
         14    1    1    2    0    0  0.10148094479E-01  0.16595705317E-01 -0.13739592967E-01  0.23815492257E-01  0.00000000000E+00 0. -1.
     999901    1    3    3    0    0 -0.12565795747E-02 -0.43636079596E-01  0.13729667258E+00  0.89171523635E+00  0.88000000000E+00 0.  1.
        -11    1    4    4    0    0 -0.10410781120E-01  0.26531288523E-01 -0.82094529669E-01  0.86902626870E-01  0.51100000000E-03 0.  1.
         11    1    4    4    0    0  0.15192662153E-02  0.50908575636E-03 -0.41462549942E-01  0.41496644525E-01  0.51100000000E-03 0. -1.
</event>
<event>
 8    1  0.1120016E+005  0.1043930E+01  0.7957747E-01            NaN
         13   -1    0    0    0    0  0.00000000000E+00  0.00000000000E+00  0.74505805969E-08  0.10566000000E+00  0.10566000000E+00 0. -1.
     999900   -1    0    0    0    0 -0.00000000000E+00 -0.00000000000E+00 -0.74505805969E-08  0.93827000000E+00  0.93827000000E+00 0. -1.
     999902    2    1    2    0    0 -0.18765797684E-01  0.74741202030E-02  0.99580656668E-02  0.10214093271E+01  0.10211610220E+01 0.  0.
     999903    2    3    3    0    0 -0.93888174458E-01 -0.68649682109E-01  0.62169361313E-01  0.13339793971E+00  0.20055240583E-01 0.  0.
         14    1    1    2    0    0  0.18765797684E-01 -0.74741202030E-02 -0.99580656668E-02  0.22520672888E-01  0.00000000000E+00 0. -1.
     999901    1    3    3    0    0  0.75122376774E-01  0.76123802312E-01 -0.52211295646E-01  0.88801138741E+00  0.88000000000E+00 0. -1.
        -11    1    4    4    0    0 -0.24541246994E-01 -0.26944125871E-01  0.12946119818E-01  0.38679734517E-01  0.51100000000E-03 0. -1.
         11    1    4    4    0    0 -0.69346927464E-01 -0.41705556238E-01  0.49223241495E-01  0.94718205188E-01  0.51100000000E-03 0.  1.
</event>
<event>
 8    1  0.1120016E+005  0.1043930E+01  0.7957747E-01            NaN
         13   -1    0    0    0    0  0.00000000000E+00  0.00000000000E+00  0.74505805969E-08  0.10566000000E+00  0.10566000000E+00 0. -1.
     999900   -1    0    0    0    0 -0.00000000000E+00 -0.00000000000E+00 -0.74505805969E-08  0.93827000000E+00  0.93827000000E+00 0. -1.
     999902    2    1    2    0    0  0.41103351033E-02  0.16657700397E-01 -0.15418832482E-01  0.10208623986E+01  0.10206017454E+01 0.  0.
     999903    2    3    3    0    0  0.12107851833E+00  0.17840278405E-01  0.42505477402E-01  0.13123428530E+00  0.20915039878E-01 0.  0.
         14    1    1    2    0    0 -0.41103351033E-02 -0.16657700397E-01  0.15418832482E-01  0.23067601356E-01  0.00000000000E+00 0. -1.
     999901    1    3    3    0    0 -0.11696818323E+00 -0.11825780079E-02 -0.57924309885E-01  0.88962811335E+00  0.88000000000E+00 0. -1.
        -11    1    4    4    0    0  0.92256759482E-01  0.98351071091E-02  0.40544417041E-01  0.10125290058E+00  0.51100000000E-03 0.  1.
         11    1    4    4    0    0  0.28821758853E-01  0.80051712962E-02  0.19610603606E-02  0.29981384717E-01  0.51100000000E-03 0. -1.
</event>
<event>
 8    1  0.1120016E+005  0.1043930E+01  0.7957747E-01            NaN
         13   -1    0    0    0    0  0.00000000000E+00  0.00000000000E+00  0.74505805969E-08  0.10566000000E+00  0.10566000000E+00 0.  1.
     999900   -1    0    0    0    0 -0.00000000000E+00 -0.00000000000E+00 -0.74505805969E-08  0.93827000000E+00  0.93827000000E+00 0.  1.
     999902    2    1    2    0    0  0.96552505512E-02  0.12821888432E-01 -0.16869773084E-01  0.10206445125E+01  0.10203788546E+01 0.  0.
     999903    2    3    3    0    0  0.12583079889E+00  0.15951602106E-01  0.30516894570E-01  0.13173954037E+00  0.18335268825E-01 0.  0.
         14    1    1    2    0    0 -0.96552505512E-02 -0.12821888432E-01  0.16869773084E-01  0.23285487542E-01  0.00000000000E+00 0.  1.
     999901    1    3    3    0    0 -0.11617554834E+00 -0.31297136738E-02 -0.47386667654E-01  0.88890497209E+00  0.88000000000E+00 0.  1.
        -11    1    4    4    0    0  0.41947491804E-01  0.39149484922E-03  0.28470778666E-02  0.42048927576E-01  0.51100000000E-03 0.  1.
         11    1    4    4    0    0  0.83883307084E-01  0.15560107257E-01  0.27669816703E-01  0.89690612790E-01  0.51100000000E-03 0. -1.
</event>
<event>
 8    1  0.1120016E+005  0.1043930E+01  0.7957747E-01            NaN
         13   -1    0    0    0    0  0.00000000000E+00  0.00000000000E+00  0.74505805969E-08  0.10566000000E+00  0.10566000000E+00 0. -1.
     999900   -1    0    0    0    0 -0.00000000000E+00 -0.00000000000E+00 -0.74505805969E-08  0.93827000000E+00  0.93827000000E+00 0. -1.
     999902    2    1    2    0    0  0.22453011790E-01  0.20154820715E-02  0.71111692140E-02  0.10202917125E+01  0.10200178479E+01 0.  0.
     999903    2    3    3    0    0 -0.10115765131E+00  0.32934574884E-01 -0.67457899247E-01  0.12799348196E+00  0.22676124238E-01 0.  0.
         14    1    1    2    0    0 -0.22453011790E-01 -0.20154820715E-02 -0.71111692140E-02  0.23638287460E-01  0.00000000000E+00 0.  1.
     999901    1    3    3    0    0  0.12361066310E+00 -0.30919092812E-01  0.74569068461E-01  0.89229823058E+00  0.88000000000E+00 0.  1.
        -11    1    4    4    0    0 -0.20363947177E-01  0.16312191320E-01 -0.13043131110E-01  0.29174686296E-01  0.51100000000E-03 0.  1.
         11    1    4    4    0    0 -0.80793704136E-01  0.16622383564E-01 -0.54414768137E-01  0.98818795660E-01  0.51100000000E-03 0. -1.
</event>
<event>
 8    1  0.1120016E+005  0.1043930E+01  0.7957747E-01            NaN
         13   -1    0    0    0    0  0.00000000000E+00  0.00000000000E+00  0.74505805969E-08  0.10566000000E+00  0.10566000000E+00 0. -1.
     999900   -1    0    0    0    0 -0.00000000000E+00 -0.00000000000E+00 -0.74505805969E-08  0.93827000000E+00  0.93827000000E+00 0.  1.
     999902    2    1    2    0    0 -0.71302359070E-02 -0.22162562867E-01  0.42022045831E-02  0.10202724858E+01  0.10199981702E+01 0.  0.
     999903    2    3    3    0    0  0.45526149145E-01 -0.10011373696E+00  0.71495112063E-01  0.13270422594E+00  0.20086561419E-01 0.  0.
         14    1    1    2    0    0  0.71302359070E-02  0.22162562867E-01 -0.42022045831E-02  0.23657514245E-01  0.00000000000E+00 0.  1.
     999901    1    3    3    0    0 -0.52656385052E-01  0.77951174095E-01 -0.67292907480E-01  0.88756825981E+00  0.88000000000E+00 0.  1.
        -11    1    4    4    0    0  0.42248726786E-01 -0.99838111962E-01  0.68592654864E-01  0.12828802336E+00  0.51100000000E-03 0.  1.
         11    1    4    4    0    0  0.32774223593E-02 -0.27562499949E-03  0.29024571984E-02  0.44162025826E-02  0.51100000000E-03 0. -1.
</event>
<event>
 8    1  0.1120016E+005  0.1043930E+01  0.7957747E-01            NaN
         13   -1    0    0    0    0  0.00000000000E+00  0.00000000000E+00  0.74505805969E-08  0.10566000000E+00  0.10566000000E+00 0.  1.
     999900   -1    0    0    0    0 -0.00000000000E+00 -0.00000000000E+00 -0.74505805969E-08  0.93827000000E+00  0.93827000000E+00 0.  1.
     999902    2    1    2    0    0  0.13397051094E-01 -0.19384195008E-01 -0.41911328268E-03  0.10203629966E+01  0.10200908004E+01 0.  0.
     999903    2    3    3    0    0  0.10053078040E+00 -0.83661428057E-01 -0.13739675367E-01  0.13362668468E+00  0.23698941484E-01 0.  0.
         14    1    1    2    0    0 -0.13397051094E-01  0.19384195008E-01  0.41911328268E-03  0.23567003418E-01  0.00000000000E+00 0.  1.
     999901    1    3    3    0    0 -0.87133729305E-01  0.64277233049E-01  0.13320562085E-01  0.88673631190E+00  0.88000000000E+00 0. -1.
        -11    1    4    4    0    0  0.59264492391E-01 -0.63643017803E-01 -0.11261055520E-01  0.87691426410E-01  0.51100000000E-03 0. -1.
         11    1    4    4    0    0  0.41266288008E-01 -0.20018410254E-01 -0.24786198473E-02  0.45935258271E-01  0.51100000000E-03 0.  1.
</event>
<event>
 8    1  0.1120016E+005  0.1043930E+01  0.7957747E-01            NaN
         13   -1    0    0    0    0  0.00000000000E+00  0.00000000000E+00  0.74505805969E-08  0.10566000000E+00  0.10566000000E+00 0.  1.
     999900   -1    0    0    0    0 -0.00000000000E+00 -0.00000000000E+00 -0.74505805969E-08  0.93827000000E+00  0.93827000000E+00 0.  1.
     999902    2    1    2    0    0 -0.13628258480E-01 -0.17520977391E-01  0.72460722624E-02  0.10205800612E+01  0.10203129136E+01 0.  0.
     999903    2    3    3    0    0  0.88348204137E-01 -0.78771487570E-01 -0.51566002764E-01  0.13063080194E+00  0.19874640758E-01 0.  0.
         14    1    1    2    0    0  0.13628258480E-01  0.17520977391E-01 -0.72460722624E-02  0.23349938783E-01  0.00000000000E+00 0. -1.
     999901    1    3    3    0    0 -0.10197646262E+00  0.61250510179E-01  0.58812075027E-01  0.88994925928E+00  0.88000000000E+00 0.  1.
        -11    1    4    4    0    0  0.57845141902E-01 -0.42149723260E-01 -0.38188759017E-01  0.81125224491E-01  0.51100000000E-03 0. -1.
         11    1    4    4    0    0  0.30503062236E-01 -0.36621764310E-01 -0.13377243747E-01  0.49505577445E-01  0.51100000000E-03 0.  1.
</event>
<event>
 8    1  0.1120016E+005  0.1043930E+01  0.7957747E-01            NaN
         13   -1    0    0    0    0  0.00000000000E+00  0.00000000000E+00  0.74505805969E-08  0.10566000000E+00  0.10566000000E+00 0.  1.
     999900   -1    0    0    0    0 -0.00000000000E+00 -0.00000000000E+00 -0.74505805969E-08  0.93827000000E+00  0.93827000000E+00 0.  1.
     999902    2    1    2    0    0  0.18737956867E-01  0.10719366133E-01 -0.10084602852E-01  0.10201032282E+01  0.10198249267E+01 0.  0.
     999903    2    3    3    0    0 -0.87120380064E-01  0.93958889627E-01  0.15304476949E-02  0.12978322107E+00  0.20569604723E-01 0.  0.
         14    1    1    2    0    0 -0.18737956867E-01 -0.10719366133E-01  0.10084602852E-01  0.23826771760E-01  0.00000000000E+00 0. -1.
     999901    1    3    3    0    0  0.10585833693E+00 -0.83239523494E-01 -0.11615050547E-01  0.89032000717E+00  0.88000000000E+00 0.  1.
        -11    1    4    4    0    0 -0.20768215990E-01  0.14753685882E-01 -0.60182569595E-02  0.26181493088E-01  0.51100000000E-03 0.  1.
         11    1    4    4    0    0 -0.66352164074E-01  0.79205203746E-01  0.75487046544E-02  0.10360172798E+00  0.51100000000E-03 0. -1.
</event>
<event>
 8    1  0.1120016E+005  0.1043930E+01  0.7957747E-01            NaN
         13   -1    0    0    0    0  0.00000000000E+00  0.00000000000E+00  0.74505805969E-08  0.10566000000E+00  0.10566000000E+00 0. -1.
     999900   -1    0    0    0    0 -0.00000000000E+00 -0.00000000000E+00 -0.74505805969E-08  0.93827000000E+00  0.93827000000E+00 0. -1.
     999902    2    1    2    0    0  0.15376927174E-01 -0.11121742139E-01  0.13375595135E-01  0.10207125587E+01  0.10204484690E+01 0.  0.
     999903    2    3    3    0    0  0.74793555784E-01 -0.10800383536E+00  0.12298808980E-01  0.13340334805E+00  0.19654214060E-01 0.  0.
         14    1    1    2    0    0 -0.15376927174E-01  0.11121742139E-01 -0.13375595135E-01  0.23217441348E-01  0.00000000000E+00 0.  1.
     999901    1    3    3    0    0 -0.59416628610E-01  0.96882093222E-01  0.10767861554E-02  0.88730921060E+00  0.88000000000E+00 0.  1.
        -11    1    4    4    0    0  0.51551454750E-01 -0.70233662512E-01  0.17122195432E-01  0.88790486732E-01  0.51100000000E-03 0. -1.
         11    1    4    4    0    0  0.23242101034E-01 -0.37770172849E-01 -0.48233864522E-02  0.44612861323E-01  0.51100000000E-03 0.  1.
</event>
<event>
 8    1  0.1120016E+005  0.1043930E+01  0.7957747E-01            NaN
         13   -1    0    0    0    0  0.00000000000E+00  0.00000000000E+00  0.74505805969E-08  0.10566000000E+00  0.10566000000E+00 0.  1.
     999900   -1    0    0    0    0 -0.00000000000E+00 -0.00000000000E+00 -0.74505805969E-08  0.93827000000E+00  0.93827000000E+00 0. -1.
     999902    2    1    2    0    0  0.89274272890E-02 -0.15609918353E-01  0.86398005954E-02  0.10239796952E+01  0.10237853298E+01 0.  0.
     999903    2    3    3    0    0  0.52039507145E-01 -0.42609642386E-01 -0.11409984298E+00  0.13400629295E+00  0.20376958889E-01 0.  0.
         14    1    1    2    0    0 -0.89274272890E-02  0.15609918353E-01 -0.86398005954E-02  0.19950304842E-01  0.00000000000E+00 0. -1.
     999901    1    3    3    0    0 -0.43112079856E-01  0.26999724033E-01  0.12273964358E+00  0.88997340221E+00  0.88000000000E+00 0.  1.
        -11    1    4    4    0    0  0.40360742059E-01 -0.42237811819E-01 -0.91540517658E-01  0.10859534862E+00  0.51100000000E-03 0.  1.
         11    1    4    4    0    0  0.11678765086E-01 -0.37183056695E-03 -0.22559325326E-01  0.25410944336E-01  0.51100000000E-03 0. -1.
</event>
<event>
 8    1  0.1120016E+005  0.1043930E+01  0.7957747E-01            NaN
         13   -1    0    0    0    0  0.00000000000E+00  0.00000000000E+00  0.74505805969E-08  0.10566000000E+00  0.10566000000E+00 0. -1.
     999900   -1    0    0    0    0 -0.00000000000E+00 -0.00000000000E+00 -0.74505805969E-08  0.93827000000E+00  0.93827000000E+00 0.  1.
     999902    2    1    2    0    0 -0.20288557798E-01  0.38233077525E-02 -0.11604060264E-01  0.10202467259E+01  0.10199718056E+01 0.  0.
     999903    2    3    3    0    0 -0.26029604086E-01  0.12646903643E+00  0.12649795939E-01  0.13139174110E+00  0.20780154670E-01 0.  0.
         14    1    1    2    0    0  0.20288557798E-01 -0.38233077525E-02  0.11604060264E-01  0.23683274146E-01  0.00000000000E+00 0. -1.
     999901    1    3    3    0    0  0.57410462881E-02 -0.12264572868E+00 -0.24253856203E-01  0.88885498475E+00  0.88000000000E+00 0.  1.
        -11    1    4    4    0    0 -0.10556621636E-01  0.16712747627E-01  0.42897505475E-02  0.20234161074E-01  0.51100000000E-03 0.  1.
         11    1    4    4    0    0 -0.15472982450E-01  0.10975628880E+00  0.83600453914E-02  0.11115758003E+00  0.51100000000E-03 0. -1.
</event>
<event>
 8    1  0.1120016E+005  0.1043930E+01  0.7957747E-01            NaN
         13   -1    0    0    0    0  0.00000000000E+00  0.00000000000E+00  0.74505805969E-08  0.10566000000E+00  0.10566000000E+00 0. -1.
     999900   -1    0    0    0    0 -0.00000000000E+00 -0.00000000000E+00 -0.74505805969E-08  0.93827000000E+00  0.93827000000E+00 0. -1.
     999902    2    1    2    0    0 -0.32091969084E-02  0.23295906356E-01 -0.29582799781E-02  0.10202287423E+01  0.10199533994E+01 0.  0.
     999903    2    3    3    0    0  0.42740378371E-01  0.11941699665E+00  0.34804410811E-01  0.13299898156E+00  0.19754064167E-01 0.  0.
         14    1    1    2    0    0  0.32091969084E-02 -0.23295906356E-01  0.29582799781E-02  0.23701257734E-01  0.00000000000E+00 0. -1.
     999901    1    3    3    0    0 -0.45949575280E-01 -0.96121090296E-01 -0.37762690789E-01  0.88722976071E+00  0.88000000000E+00 0. -1.
        -11    1    4    4    0    0  0.37827257895E-01  0.93945753997E-01  0.20358256383E-01  0.10330259366E+00  0.51100000000E-03 0. -1.
         11    1    4    4    0    0  0.49131204761E-02  0.25471242655E-01  0.14446154428E-01  0.29696387894E-01  0.51100000000E-03 0.  1.
</event>
<event>
 8    1  0.1120016E+005  0.1043930E+01  0.7957747E-01            NaN
         13   -1    0    0    0    0  0.00000000000E+00  0.00000000000E+00  0.74505805969E-08  0.10566000000E+00  0.10566000000E+00 0. -1.
     999900   -1    0    0    0    0 -0.00000000000E+00 -0.00000000000E+00 -0.74505805969E-08  0.93827000000E+00  0.93827000000E+00 0.  1.
     999902    2    1    2    0    0 -0.88849482175E-02 -0.53278533447E-03  0.20675504490E-01  0.10214199433E+01  0.10211718749E+01 0.  0.
     999903    2    3    3    0    0 -0.12356987239E+00 -0.17574115075E-01  0.43305532644E-01  0.13352628026E+00  0.19378737830E-01 0.  0.
         14    1    1    2    0    0  0.88849482175E-02  0.53278533447E-03 -0.20675504490E-01  0.22510056662E-01  0.00000000000E+00 0.  1.
     999901    1    3    3    0    0  0.11468492417E+00  0.17041329740E-01 -0.22630028154E-01  0.88789366307E+00  0.88000000000E+00 0. -1.
        -11    1    4    4    0    0 -0.28973201344E-01 -0.10213285521E-01  0.46695627120E-02  0.31077701559E-01  0.51100000000E-03 0. -1.
         11    1    4    4    0    0 -0.94596671048E-01 -0.73608295532E-02  0.38635969932E-01  0.10244857870E+00  0.51100000000E-03 0.  1.
</event>
<event>
 8    1  0.1120016E+005  0.1043930E+01  0.7957747E-01            NaN
         13   -1    0    0    0    0  0.00000000000E+00  0.00000000000E+00  0.74505805969E-08  0.10566000000E+00  0.10566000000E+00 0.  1.
     999900   -1    0    0    0    0 -0.00000000000E+00 -0.00000000000E+00 -0.74505805969E-08  0.93827000000E+00  0.93827000000E+00 0.  1.
     999902    2    1    2    0    0  0.56707635311E-02 -0.12705071496E-01 -0.18885996568E-01  0.10204724369E+01  0.10202027922E+01 0.  0.
     999903    2    3    3    0    0  0.92432603777E-02  0.66540713997E-01  0.10708046519E+00  0.12797022023E+00  0.19926032177E-01 0.  0.
         14    1    1    2    0    0 -0.56707635311E-02  0.12705071496E-01  0.18885996568E-01  0.23457563111E-01  0.00000000000E+00 0. -1.
     999901    1    3    3    0    0 -0.35724968466E-02 -0.79245785493E-01 -0.12596646176E+00  0.89250221666E+00  0.88000000000E+00 0.  1.
        -11    1    4    4    0    0 -0.16288162397E-04  0.49981369981E-01  0.66685635638E-01  0.83338902872E-01  0.51100000000E-03 0.  1.
         11    1    4    4    0    0  0.92595485401E-02  0.16559344016E-01  0.40394829554E-01  0.44631317358E-01  0.51100000000E-03 0. -1.
</event>
<event>
 8    1  0.1120016E+005  0.1043930E+01  0.7957747E-01            NaN
         13   -1    0    0    0    0  0.00000000000E+00  0.00000000000E+00  0.74505805969E-08  0.10566000000E+00  0.10566000000E+00 0. -1.
     999900   -1    0    0    0    0 -0.00000000000E+00 -0.00000000000E+00 -0.74505805969E-08  0.93827000000E+00  0.93827000000E+00 0.  1.
     999902    2    1    2    0    0  0.57121331106E-02 -0.98024789541E-02 -0.21430856373E-01  0.10196813163E+01  0.10193929508E+01 0.  0.
     999903    2    3    3    0    0  0.11980303968E+00  0.79849014045E-03 -0.50783217050E-01  0.13176765121E+00  0.20745430052E-01 0.  0.
         14    1    1    2    0    0 -0.57121331106E-02  0.98024789541E-02  0.21430856373E-01  0.24248683742E-01  0.00000000000E+00 0. -1.
     999901    1    3    3    0    0 -0.11409090657E+00 -0.10600969095E-01  0.29352360677E-01  0.88791366505E+00  0.88000000000E+00 0. -1.
        -11    1    4    4    0    0  0.61774423148E-01 -0.54809172359E-02 -0.35374554393E-01  0.71398459567E-01  0.51100000000E-03 0.  1.
         11    1    4    4    0    0  0.58028616531E-01  0.62794073764E-02 -0.15408662657E-01  0.60369191640E-01  0.51100000000E-03 0. -1.
</event>
<event>
 8    1  0.1120016E+005  0.1043930E+01  0.7957747E-01            NaN
         13   -1    0    0    0    0  0.00000000000E+00  0.00000000000E+00  0.74505805969E-08  0.10566000000E+00  0.10566000000E+00 0. -1.
     999900   -1    0    0    0    0 -0.00000000000E+00 -0.00000000000E+00 -0.74505805969E-08  0.93827000000E+00  0.93827000000E+00 0. -1.
     999902    2    1    2    0    0  0.21252889890E-02 -0.22504355793E-02 -0.23667249271E-01  0.10200611919E+01  0.10197818959E+01 0.  0.
     999903    2    3    3    0    0 -0.71919224997E-01 -0.48034906787E-01 -0.97397223299E-01  0.13269716458E+00  0.25349382378E-01 0.  0.
         14    1    1    2    0    0 -0.21252889890E-02  0.22504355793E-02  0.23667249271E-01  0.23868808131E-01  0.00000000000E+00 0. -1.
     999901    1    3    3    0    0  0.74044513986E-01  0.45784471208E-01  0.73729974029E-01  0.88736402729E+00  0.88000000000E+00 0.  1.
        -11    1    4    4    0    0 -0.37220210089E-01 -0.31291669303E-01 -0.37205551239E-01  0.61229296671E-01  0.51100000000E-03 0.  1.
         11    1    4    4    0    0 -0.34699014909E-01 -0.16743237484E-01 -0.60191672060E-01  0.71467867909E-01  0.51100000000E-03 0. -1.
</event>
<event>
 8    1  0.1120016E+005  0.1043930E+01  0.7957747E-01            NaN
         13   -1    0    0    0    0  0.00000000000E+00  0.00000000000E+00  0.74505805969E-08  0.10566000000E+00  0.10566000000E+00 0. -1.
     999900   -1    0    0    0    0 -0.00000000000E+00 -0.00000000000E+00 -0.74505805969E-08  0.93827000000E+00  0.93827000000E+00 0. -1.
     999902    2    1    2    0    0 -0.13928988036E-01 -0.10981244510E-01 -0.15675952218E-01  0.10202584999E+01  0.10199838561E+01 0.  0.
     999903    2    3    3    0    0  0.19880158050E-01 -0.12369313927E+00 -0.37198142533E-01  0.13216490447E+00  0.19714126420E-01 0.  0.
         14    1    1    2    0    0  0.13928988036E-01  0.10981244510E-01  0.15675952218E-01  0.23671500092E-01  0.00000000000E+00 0. -1.
     999901    1    3    3    0    0 -0.33809146086E-01  0.11271189476E+00  0.21522190315E-01  0.88809359544E+00  0.88000000000E+00 0. -1.
        -11    1    4    4    0    0  0.21430796776E-01 -0.10445950335E+00 -0.25673453012E-01  0.10968342719E+00  0.51100000000E-03 0. -1.
         11    1    4    4    0    0 -0.15506387264E-02 -0.19233635917E-01 -0.11524689521E-01  0.22481477278E-01  0.51100000000E-03 0.  1.
</event>
<event>
 8    1  0.1120016E+005  0.1043930E+01  0.7957747E-01            NaN
         13   -1    0    0    0    0  0.00000000000E+00  0.00000000000E+00  0.74505805969E-08  0.10566000000E+00  0.10566000000E+00 0.  1.
     999900   -1    0    0    0    0 -0.00000000000E+00 -0.00000000000E+00 -0.74505805969E-08  0.93827000000E+00  0.93827000000E+00 0.  1.
     999902    2    1    2    0    0 -0.23331936284E-01 -0.48984352521E-02 -0.78478325096E-02  0.10188309483E+01  0.10185217420E+01 0.  0.
     999903    2    3    3    0    0 -0.61791776006E-01 -0.44284560266E-01 -0.10564745955E+00  0.13170345291E+00  0.20126299676E-01 0.  0.
         14    1    1    2    0    0  0.23331936284E-01  0.48984352521E-02  0.78478325096E-02  0.25099051651E-01  0.00000000000E+00 0.  1.
     999901    1    3    3    0    0  0.38459839722E-01  0.39386125014E-01  0.97799627042E-01  0.88712749544E+00  0.88000000000E+00 0.  1.
        -11    1    4    4    0    0 -0.34279129139E-01 -0.31435973250E-01 -0.49875015658E-01  0.68198661399E-01  0.51100000000E-03 0.  1.
         11    1    4    4    0    0 -0.27512646867E-01 -0.12848587016E-01 -0.55772443894E-01  0.63504791511E-01  0.51100000000E-03 0. -1.
</event>
<event>
 8    1  0.1120016E+005  0.1043930E+01  0.7957747E-01            NaN
         13   -1    0    0    0    0  0.00000000000E+00  0.00000000000E+00  0.74505805969E-08  0.10566000000E+00  0.10566000000E+00 0. -1.
     999900   -1    0    0    0    0 -0.00000000000E+00 -0.00000000000E+00 -0.74505805969E-08  0.93827000000E+00  0.93827000000E+00 0. -1.
     999902    2    1    2    0    0 -0.10904984884E-01  0.60047147766E-02  0.21527802737E-01  0.10190619163E+01  0.10187584442E+01 0.  0.
     999903    2    3    3    0    0 -0.85161835568E-01 -0.70378319575E-01 -0.62712132099E-01  0.12864357957E+00  0.20266054106E-01 0.  0.
         14    1    1    2    0    0  0.10904984884E-01 -0.60047147766E-02 -0.21527802737E-01  0.24868083672E-01  0.00000000000E+00 0.  1.
     999901    1    3    3    0    0  0.74256850684E-01  0.76383034352E-01  0.84239934836E-01  0.89041833676E+00  0.88000000000E+00 0.  1.
        -11    1    4    4    0    0 -0.58925606944E-01 -0.38933334036E-01 -0.46688408532E-01  0.84664634087E-01  0.51100000000E-03 0. -1.
         11    1    4    4    0    0 -0.26236228624E-01 -0.31444985539E-01 -0.16023723568E-01  0.43978945484E-01  0.51100000000E-03 0.  1.
</event>
<event>
 8    1  0.1120016E+005  0.1043930E+01  0.7957747E-01            NaN
         13   -1    0    0    0    0  0.00000000000E+00  0.00000000000E+00  0.74505805969E-08  0.10566000000E+00  0.10566000000E+00 0.  1.
     999900   -1    0    0    0    0 -0.00000000000E+00 -0.00000000000E+00 -0.74505805969E-08  0.93827000000E+00  0.93827000000E+00 0.  1.
     999902    2    1    2    0    0 -0.18352831836E-01  0.69435314945E-02  0.12012097826E-01  0.10209228368E+01  0.10206635631E+01 0.  0.
     999903    2    3    3    0    0 -0.89218431120E-01 -0.31652353702E-01  0.92154683079E-01  0.13360417389E+00  0.19894464572E-01 0.  0.
         14    1    1    2    0    0  0.18352831836E-01 -0.69435314945E-02 -0.12012097826E-01  0.23007163236E-01  0.00000000000E+00 0. -1.
     999901    1    3    3    0    0  0.70865599284E-01  0.38595885197E-01 -0.80142585253E-01  0.88731866288E+00  0.88000000000E+00 0.  1.
        -11    1    4    4    0    0 -0.46024466926E-01 -0.24845091982E-01  0.42143127192E-01  0.67170190129E-01  0.51100000000E-03 0.  1.
         11    1    4    4    0    0 -0.43193964193E-01 -0.68072617201E-02  0.50011555887E-01  0.66433983759E-01  0.51100000000E-03 0. -1.
</event>
<event>
 8    1  0.1120016E+005  0.1043930E+01  0.7957747E-01            NaN
         13   -1    0    0    0    0  0.00000000000E+00  0.00000000000E+00  0.74505805969E-08  0.10566000000E+00  0.10566000000E+00 0.  1.
     999900   -1    0    0    0    0 -0.00000000000E+00 -0.00000000000E+00 -0.74505805969E-08  0.93827000000E+00  0.93827000000E+00 0.  1.
     999902    2    1    2    0    0  0.56640928509E-03 -0.23989660755E-01  0.50905844898E-02  0.10193996373E+01  0.10191044509E+01 0.  0.
     999903    2    3    3    0    0 -0.79774697461E-01  0.92471701758E-01 -0.30454381662E-01  0.12738989129E+00  0.19639171581E-01 0.  0.
         14    1    1    2    0    0 -0.56640928509E-03  0.23989660755E-01 -0.50905844898E-02  0.24530362677E-01  0.00000000000E+00 0.  1.
     999901    1    3    3    0    0  0.80341106746E-01 -0.11646136251E+00  0.35544966152E-01  0.89200974603E+00  0.88000000000E+00 0.  1.
        -11    1    4    4    0    0 -0.42553796131E-01  0.39643337595E-01 -0.67381318833E-02  0.58549836234E-01  0.51100000000E-03 0. -1.
         11    1    4    4    0    0 -0.37220901330E-01  0.52828364164E-01 -0.23716249779E-01  0.68840055060E-01  0.51100000000E-03 0.  1.
</event>
<event>
 7    1  0.1120016E+005  0.1043930E+01  0.7957747E-01            NaN
         13   -1    0    0    0    0  0.00000000000E+00  0.00000000000E+00  0.74505805969E-08  0.10566000000E+00  0.10566000000E+00 0. -1.
     999900   -1    0    0    0    0 -0.00000000000E+00 -0.00000000000E+00 -0.74505805969E-08  0.93827000000E+00  0.93827000000E+00 0. -1.
     999903    2    1    2    0    0 -0.50292074439E-01 -0.38602456771E-01  0.65366051704E-01  0.93354345505E-01  0.20563819906E-01 0.  0.
         14    1    1    2    0    0  0.66956586806E-01 -0.13697386514E-03 -0.11345320314E-01  0.67911115229E-01  0.00000000000E+00 0. -1.
     999901    1    1    2    0    0 -0.16664512367E-01  0.38739430636E-01 -0.54020731390E-01  0.88266453927E+00  0.88000000000E+00 0. -1.
        -11    1    3    3    0    0 -0.32272517947E-01 -0.29906197951E-01  0.31858313252E-01  0.54324113750E-01  0.51100000000E-03 0.  1.
         11    1    3    3    0    0 -0.18019556492E-01 -0.86962588203E-02  0.33507738452E-01  0.39030231754E-01  0.51100000000E-03 0. -1.
</event>
<event>
 8    1  0.1120016E+005  0.1043930E+01  0.7957747E-01            NaN
         13   -1    0    0    0    0  0.00000000000E+00  0.00000000000E+00  0.74505805969E-08  0.10566000000E+00  0.10566000000E+00 0.  1.
     999900   -1    0    0    0    0 -0.00000000000E+00 -0.00000000000E+00 -0.74505805969E-08  0.93827000000E+00  0.93827000000E+00 0.  1.
     999902    2    1    2    0    0 -0.29747132783E-02  0.15547823861E-02 -0.22227758156E-01  0.10214502424E+01  0.10212028487E+01 0.  0.
     999903    2    3    3    0    0 -0.11873705214E+00 -0.41648623255E-01 -0.36798461584E-01  0.13269844427E+00  0.20534238871E-01 0.  0.
         14    1    1    2    0    0  0.29747132783E-02 -0.15547823861E-02  0.22227758156E-01  0.22479757561E-01  0.00000000000E+00 0.  1.
     999901    1    3    3    0    0  0.11576233886E+00  0.43203405641E-01  0.14570703428E-01  0.88875179817E+00  0.88000000000E+00 0. -1.
        -11    1    4    4    0    0 -0.31875897379E-01 -0.20057585090E-01 -0.15251823635E-01  0.40635683808E-01  0.51100000000E-03 0.  1.
         11    1    4    4    0    0 -0.86861154759E-01 -0.21591038165E-01 -0.21546637949E-01  0.92062760458E-01  0.51100000000E-03 0. -1.
</event>
<event>
 7    1  0.1120016E+005  0.1043930E+01  0.7957747E-01            NaN
         13   -1    0    0    0    0  0.00000000000E+00  0.00000000000E+00  0.74505805969E-08  0.10566000000E+00  0.10566000000E+00 0. -1.
     999900   -1    0    0    0    0 -0.00000000000E+00 -0.00000000000E+00 -0.74505805969E-08  0.93827000000E+00  0.93827000000E+00 0. -1.
     999902    2    1    2    0    0  0.20382002425E-01 -0.33490148967E-02 -0.10556075793E-01  0.10207336068E+01  0.10204700012E+01 0.  0.
         14    1    1    2    0    0 -0.20382002425E-01  0.33490148967E-02  0.10556075793E-01  0.23196393250E-01  0.00000000000E+00 0.  1.
     999901    1    3    3    0    0  0.69704925371E-01 -0.71007920612E-02 -0.12442969729E+00  0.89151104729E+00  0.88000000000E+00 0. -1.
        -11    1    3    3    0    0 -0.50062112955E-01  0.12778396046E-01  0.10132134357E+00  0.11373556322E+00  0.51100000000E-03 0.  1.
         11    1    3    3    0    0  0.73919000913E-03 -0.90266188815E-02  0.12552277929E-01  0.15486996239E-01  0.51100000000E-03 0. -1.
</event>
<event>
 8    1  0.1120016E+005  0.1043930E+01  0.7957747E-01            NaN
         13   -1    0    0    0    0  0.00000000000E+00  0.00000000000E+00  0.74505805969E-08  0.10566000000E+00  0.10566000000E+00 0.  1.
     999900   -1    0    0    0    0 -0.00000000000E+00 -0.00000000000E+00 -0.74505805969E-08  0.93827000000E+00  0.93827000000E+00 0. -1.
     999902    2    1    2    0    0  0.16747776856E-01 -0.13279193154E-01 -0.96725802444E-02  0.10204697398E+01  0.10202000324E+01 0.  0.
     999903    2    3    3    0    0 -0.86336196016E-01 -0.86274662673E-01  0.40250685597E-01  0.13005018896E+00  0.19891651402E-01 0.  0.
         14    1    1    2    0    0 -0.16747776856E-01  0.13279193154E-01  0.96725802444E-02  0.23460260208E-01  0.00000000000E+00 0.  1.
     999901    1    3    3    0    0  0.10308397287E+00  0.72995469519E-01 -0.49923265841E-01  0.89041955083E+00  0.88000000000E+00 0.  1.
        -11    1    4    4    0    0 -0.49283793649E-01 -0.47698604005E-01  0.32853667793E-01  0.76050468433E-01  0.51100000000E-03 0.  1.
         11    1    4    4    0    0 -0.37052402367E-01 -0.38576058668E-01  0.73970178042E-02  0.53999720527E-01  0.51100000000E-03 0. -1.
</event>
<event>
 8    1  0.1120016E+005  0.1043930E+01  0.7957747E-01            NaN
         13   -1    0    0    0    0  0.00000000000E+00  0.00000000000E+00  0.74505805969E-08  0.10566000000E+00  0.10566000000E+00 0. -1.
     999900   -1    0    0    0    0 -0.00000000000E+00 -0.00000000000E+00 -0.74505805969E-08  0.93827000000E+00  0.93827000000E+00 0.  1.
     999902    2    1    2    0    0  0.24636556371E-02 -0.94550357684E-02 -0.21518258917E-01  0.10202973369E+01  0.10200236041E+01 0.  0.
     999903    2    3    3    0    0  0.29941594285E-01  0.21487903992E-01 -0.12641343073E+00  0.13310203722E+00  0.19431102823E-01 0.  0.
         14    1    1    2    0    0 -0.24636556371E-02  0.94550357684E-02  0.21518258917E-01  0.23632663144E-01  0.00000000000E+00 0. -1.
     999901    1    3    3    0    0 -0.27477938648E-01 -0.30942939760E-01  0.10489517181E+00  0.88719529964E+00  0.88000000000E+00 0. -1.
        -11    1    4    4    0    0  0.21606482247E-02  0.11858183800E-01 -0.31220175734E-01  0.33470067488E-01  0.51100000000E-03 0. -1.
         11    1    4    4    0    0  0.27780946061E-01  0.96297201922E-02 -0.95193254992E-01  0.99631969729E-01  0.51100000000E-03 0.  1.
</event>
<event>
 8    1  0.1120016E+005  0.1043930E+01  0.7957747E-01            NaN
         13   -1    0    0    0    0  0.00000000000E+00  0.00000000000E+00  0.74505805969E-08  0.10566000000E+00  0.10566000000E+00 0.  1.
     999900   -1    0    0    0    0 -0.00000000000E+00 -0.00000000000E+00 -0.74505805969E-08  0.93827000000E+00  0.93827000000E+00 0. -1.
     999902    2    1    2    0    0  0.14753599607E-01  0.32720437355E-02 -0.17841919994E-01  0.10205481891E+01  0.10202803033E+01 0.  0.
     999903    2    3    3    0    0 -0.13164604369E-01 -0.93537030270E-01  0.85344568569E-01  0.12880894788E+00  0.19635855717E-01 0.  0.
         14    1    1    2    0    0 -0.14753599607E-01 -0.32720437355E-02  0.17841919994E-01  0.23381810893E-01  0.00000000000E+00 0.  1.
     999901    1    3    3    0    0  0.27918203976E-01  0.96809074005E-01 -0.10318648856E+00  0.89173924123E+00  0.88000000000E+00 0. -1.
        -11    1    4    4    0    0 -0.14220446585E-02 -0.70051411086E-01  0.58840901719E-01  0.91497187073E-01  0.51100000000E-03 0. -1.
         11    1    4    4    0    0 -0.11742559710E-01 -0.23485619184E-01  0.26503666850E-01  0.37311760806E-01  0.51100000000E-03 0.  1.
</event>
<event>
 8    1  0.1120016E+005  0.1043930E+01  0.7957747E-01            NaN
         13   -1    0    0    0    0  0.00000000000E+00  0.00000000000E+00  0.74505805969E-08  0.10566000000E+00  0.10566000000E+00 0. -1.
     999900   -1    0    0    0    0 -0.00000000000E+00 -0.00000000000E+00 -0.74505805969E-08  0.93827000000E+00  0.93827000000E+00 0.  1.
     999902    2    1    2    0    0  0.42080345243E-02  0.19767264147E-01 -0.11007294087E-01  0.10209166819E+01  0.10206572679E+01 0.  0.
     999903    2    3    3    0    0  0.86162359059E-02 -0.83806882355E-02  0.12745959609E+00  0.12963399996E+00  0.20360497385E-01 0.  0.
         14    1    1    2    0    0 -0.42080345243E-02 -0.19767264147E-01  0.11007294087E-01  0.23013318090E-01  0.00000000000E+00 0. -1.
     999901    1    3    3    0    0 -0.44082013817E-02  0.28147952382E-01 -0.13846689018E+00  0.89128268195E+00  0.88000000000E+00 0.  1.
        -11    1    4    4    0    0  0.93279901302E-02 -0.88966215979E-02  0.37285333513E-01  0.39454004764E-01  0.51100000000E-03 0. -1.
         11    1    4    4    0    0 -0.71175422427E-03  0.51593336244E-03  0.90174262579E-01  0.90179995198E-01  0.51100000000E-03 0.  1.
</event>
<event>
 8    1  0.1120016E+005  0.1043930E+01  0.7957747E-01            NaN
         13   -1    0    0    0    0  0.00000000000E+00  0.00000000000E+00  0.74505805969E-08  0.10566000000E+00  0.10566000000E+00 0. -1.
     999900   -1    0    0    0    0 -0.00000000000E+00 -0.00000000000E+00 -0.74505805969E-08  0.93827000000E+00  0.93827000000E+00 0. -1.
     999902    2    1    2    0    0 -0.13473321503E-01 -0.18653158207E-01 -0.54403318613E-02  0.10202853830E+01  0.10200113699E+01 0.  0.
     999903    2    3    3    0    0 -0.41136509915E-01  0.11453112746E+00  0.37276302974E-01  0.12881019160E+00  0.19822994060E-01 0.  0.
         14    1    1    2    0    0  0.13473321503E-01  0.18653158207E-01  0.54403318613E-02  0.23644617023E-01  0.00000000000E+00 0. -1.
     999901    1    3    3    0    0  0.27663188412E-01 -0.13318428566E+00 -0.42716634835E-01  0.89147519137E+00  0.88000000000E+00 0. -1.
        -11    1    4    4    0    0 -0.71161639284E-02  0.30706511626E-01  0.18039247433E-01  0.36320864724E-01  0.51100000000E-03 0.  1.
         11    1    4    4    0    0 -0.34020345987E-01  0.83824615829E-01  0.19237055540E-01  0.92489326881E-01  0.51100000000E-03 0. -1.
</event>
<event>
 8    1  0.1120016E+005  0.1043930E+01  0.7957747E-01            NaN
         13   -1    0    0    0    0  0.00000000000E+00  0.00000000000E+00  0.74505805969E-08  0.10566000000E+00  0.10566000000E+00 0.  1.
     999900   -1    0    0    0    0 -0.00000000000E+00 -0.00000000000E+00 -0.74505805969E-08  0.93827000000E+00  0.93827000000E+00 0.  1.
     999902    2    1    2    0    0  0.14718295198E-01  0.16051519122E-01 -0.95935301940E-02  0.10201326199E+01  0.10198550126E+01 0.  0.
     999903    2    3    3    0    0 -0.79478980334E-01  0.42056310789E-01  0.90223168300E-01  0.12911480343E+00  0.21089589248E-01 0.  0.
         14    1    1    2    0    0 -0.14718295198E-01 -0.16051519122E-01  0.95935301940E-02  0.23797380134E-01  0.00000000000E+00 0.  1.
     999901    1    3    3    0    0  0.94197275532E-01 -0.26004791667E-01 -0.99816698494E-01  0.89101781644E+00  0.88000000000E+00 0. -1.
        -11    1    4    4    0    0 -0.21893798258E-01  0.93308498517E-02  0.37675817481E-01  0.44566035329E-01  0.51100000000E-03 0. -1.
         11    1    4    4    0    0 -0.57585182076E-01  0.32725460937E-01  0.52547350819E-01  0.84548768101E-01  0.51100000000E-03 0.  1.
</event>
<event>
 8    1  0.1120016E+005  0.1043930E+01  0.7957747E-01            NaN
         13   -1    0    0    0    0  0.00000000000E+00  0.00000000000E+00  0.74505805969E-08  0.10566000000E+00  0.10566000000E+00 0. -1.
     999900   -1    0    0    0    0 -0.00000000000E+00 -0.00000000000E+00 -0.74505805969E-08  0.93827000000E+00  0.93827000000E+00 0.  1.
     999902    2    1    2    0    0 -0.73372426153E-02 -0.13114561324E-02 -0.22091516292E-01  0.10206149804E+01  0.10203486405E+01 0.  0.
     999903    2    3    3    0    0 -0.12876903424E-01 -0.11552849399E+00  0.54451122700E-01  0.12992143313E+00  0.20050098710E-01 0.  0.
         14    1    1    2    0    0  0.73372426153E-02  0.13114561324E-02  0.22091516292E-01  0.23315019590E-01  0.00000000000E+00 0. -1.
     999901    1    3    3    0    0  0.55396608083E-02  0.11421703786E+00 -0.76542638992E-01  0.89069354728E+00  0.88000000000E+00 0.  1.
        -11    1    4    4    0    0  0.25814145375E-02 -0.32463002840E-01  0.81501392075E-02  0.33573741890E-01  0.51100000000E-03 0. -1.
         11    1    4    4    0    0 -0.15458317961E-01 -0.83065491151E-01  0.46300983492E-01  0.96347691242E-01  0.51100000000E-03 0.  1.
</event>
<event>
 8    1  0.1120016E+005  0.1043930E+01  0.7957747E-01            NaN
         13   -1    0    0    0    0  0.00000000000E+00  0.00000000000E+00  0.74505805969E-08  0.10566000000E+00  0.10566000000E+00 0. -1.
     999900   -1    0    0    0    0 -0.00000000000E+00 -0.00000000000E+00 -0.74505805969E-08  0.93827000000E+00  0.93827000000E+00 0.  1.
     999902    2    1    2    0    0  0.87933376229E-02 -0.61902520243E-02  0.20813179023E-01  0.10205028698E+01  0.10202339324E+01 0.  0.
     999903    2    3    3    0    0  0.64026150350E-01 -0.11273410398E+00 -0.12347895054E-01  0.13173860816E+00  0.19856088239E-01 0.  0.
         14    1    1    2    0    0 -0.87933376229E-02  0.61902520243E-02 -0.20813179023E-01  0.23427130164E-01  0.00000000000E+00 0.  1.
     999901    1    3    3    0    0 -0.55232812727E-01  0.10654385195E+00  0.33161074077E-01  0.88876426167E+00  0.88000000000E+00 0. -1.
        -11    1    4    4    0    0  0.31217784004E-01 -0.50378738852E-01 -0.15310561854E-01  0.61214718751E-01  0.51100000000E-03 0. -1.
         11    1    4    4    0    0  0.32808366346E-01 -0.62355365127E-01  0.29626668003E-02  0.70523889413E-01  0.51100000000E-03 0.  1.
</event>
<event>
 8    1  0.1120016E+005  0.1043930E+01  0.7957747E-01            NaN
         13   -1    0    0    0    0  0.00000000000E+00  0.00000000000E+00  0.74505805969E-08  0.10566000000E+00  0.10566000000E+00 0.  1.
     999900   -1    0    0    0    0 -0.00000000000E+00 -0.00000000000E+00 -0.74505805969E-08  0.93827000000E+00  0.93827000000E+00 0. -1.
     999902    2    1    2    0    0 -0.17802989695E-01 -0.78135507218E-02 -0.14069807107E-01  0.10199308857E+01  0.10196484953E+01 0.  0.
     999903    2    3    3    0    0 -0.17959068656E-01 -0.11178782755E+00 -0.65442541040E-01  0.13232183186E+00  0.20181537960E-01 0.  0.
         14    1    1    2    0    0  0.17802989695E-01  0.78135507218E-02  0.14069807107E-01  0.23999114337E-01  0.00000000000E+00 0.  1.
     999901    1    3    3    0    0  0.15607896055E-03  0.10397427682E+00  0.51372733933E-01  0.88760905380E+00  0.88000000000E+00 0.  1.
        -11    1    4    4    0    0 -0.81707594391E-03 -0.50895423665E-01 -0.21295755410E-01  0.55179544059E-01  0.51100000000E-03 0. -1.
         11    1    4    4    0    0 -0.17141992712E-01 -0.60892403881E-01 -0.44146785630E-01  0.77142287800E-01  0.51100000000E-03 0.  1.
</event>
<event>
 8    1  0.1120016E+005  0.1043930E+01  0.7957747E-01            NaN
         13   -1    0    0    0    0  0.00000000000E+00  0.00000000000E+00  0.74505805969E-08  0.10566000000E+00  0.10566000000E+00 0.  1.
     999900   -1    0    0    0    0 -0.00000000000E+00 -0.00000000000E+00 -0.74505805969E-08  0.93827000000E+00  0.93827000000E+00 0. -1.
     999902    2    1    2    0    0  0.52037494832E-02 -0.19816813497E-01 -0.82708826781E-02  0.10218349190E+01  0.10215960107E+01 0.  0.
     999903    2    3    3    0    0 -0.10944317063E+00 -0.70719952036E-01 -0.16754951810E-01  0.13289902406E+00  0.20057491701E-01 0.  0.
         14    1    1    2    0    0 -0.52037494832E-02  0.19816813497E-01  0.82708826781E-02  0.22095081040E-01  0.00000000000E+00 0.  1.
     999901    1    3    3    0    0  0.11464692011E+00  0.50903138539E-01  0.84840691315E-02  0.88893589490E+00  0.88000000000E+00 0. -1.
        -11    1    4    4    0    0 -0.82343815362E-01 -0.43636479371E-01 -0.16123627548E-01  0.94577369104E-01  0.51100000000E-03 0. -1.
         11    1    4    4    0    0 -0.27099355269E-01 -0.27083472665E-01 -0.63132426179E-03  0.38321654961E-01  0.51100000000E-03 0.  1.
</event>
<event>
 8    1  0.1120016E+005  0.1043930E+01  0.7957747E-01            NaN
         13   -1    0    0    0    0  0.00000000000E+00  0.00000000000E+00  0.74505805969E-08  0.10566000000E+00  0.10566000000E+00 0. -1.
     999900   -1    0    0    0    0 -0.00000000000E+00 -0.00000000000E+00 -0.74505805969E-08  0.93827000000E+00  0.93827000000E+00 0.  1.
     999902    2    1    2    0    0  0.11461245904E-01  0.12939410094E-01 -0.15052860476E-01  0.10210088940E+01  0.10207515783E+01 0.  0.
     999903    2    3    3    0    0 -0.10765571505E+00 -0.48585447062E-01  0.47350648826E-01  0.12867019351E+00  0.19069245022E-01 0.  0.
         14    1    1    2    0    0 -0.11461245904E-01 -0.12939410094E-01  0.15052860476E-01  0.22921105989E-01  0.00000000000E+00 0. -1.
     999901    1    3    3    0    0  0.11911696095E+00  0.61524857156E-01 -0.62403509302E-01  0.89233870050E+00  0.88000000000E+00 0.  1.
        -11    1    4    4    0    0 -0.16426018467E-01 -0.11448767816E-02  0.99820332726E-02  0.19262059464E-01  0.51100000000E-03 0.  1.
         11    1    4    4    0    0 -0.91229696580E-01 -0.47440570281E-01  0.37368615553E-01  0.10940813405E+00  0.51100000000E-03 0. -1.
</event>
<event>
 8    1  0.1120016E+005  0.1043930E+01  0.7957747E-01            NaN
         13   -1    0    0    0    0  0.00000000000E+00  0.00000000000E+00  0.74505805969E-08  0.10566000000E+00  0.10566000000E+00 0.  1.
     999900   -1    0    0    0    0 -0.00000000000E+00 -0.00000000000E+00 -0.74505805969E-08  0.93827000000E+00  0.93827000000E+00 0.  1.
     999902    2    1    2    0    0 -0.19111082930E-01  0.13377444300E-01 -0.46526943791E-02  0.10201426699E+01  0.10198652999E+01 0.  0.
     999903    2    3    3    0    0 -0.22548050478E-01 -0.10534704160E+00  0.68521193270E-01  0.12915348137E+00  0.19469310959E-01 0.  0.
         14    1    1    2    0    0  0.19111082930E-01 -0.13377444300E-01  0.46526943791E-02  0.23787330067E-01  0.00000000000E+00 0. -1.
     999901    1    3    3    0    0  0.34369675487E-02  0.11872448590E+00 -0.73173887649E-01  0.89098918856E+00  0.88000000000E+00 0.  1.
        -11    1    4    4    0    0 -0.19011317524E-01 -0.96403921628E-01  0.55167333989E-01  0.11268913949E+00  0.51100000000E-03 0.  1.
         11    1    4    4    0    0 -0.35367329549E-02 -0.89431199718E-02  0.13353859280E-01  0.16464341879E-01  0.51100000000E-03 0. -1.
</event>
<event>
 8    1  0.1120016E+005  0.1043930E+01  0.7957747E-01            NaN
         13   -1    0    0    0    0  0.00000000000E+00  0.00000000000E+00  0.74505805969E-08  0.10566000000E+00  0.10566000000E+00 0. -1.
     999900   -1    0    0    0    0 -0.00000000000E+00 -0.00000000000E+00 -0.74505805969E-08  0.93827000000E+00  0.93827000000E+00 0. -1.
     999902    2    1    2    0    0  0.13253395258E-01  0.14066604594E-01  0.11726497247E-01  0.10213239701E+01  0.10210737580E+01 0.  0.
     999903    2    3    3    0    0 -0.59516424187E-01  0.71611806349E-01  0.92518638930E-01  0.13276656225E+00  0.19919988595E-01 0.  0.
         14    1    1    2    0    0 -0.13253395258E-01 -0.14066604594E-01 -0.11726497247E-01  0.22606029911E-01  0.00000000000E+00 0.  1.
     999901    1    3    3    0    0  0.72769819445E-01 -0.57545201755E-01 -0.80792141683E-01  0.88855740784E+00  0.88000000000E+00 0. -1.
        -11    1    4    4    0    0 -0.36667773066E-01  0.53100668295E-01  0.73171205087E-01  0.97562764054E-01  0.51100000000E-03 0.  1.
         11    1    4    4    0    0 -0.22848651121E-01  0.18511138054E-01  0.19347433843E-01  0.35203798196E-01  0.51100000000E-03 0. -1.
</event>
<event>
 8    1  0.1486351E+005  0.1043930E+01  0.7957747E-01            NaN
         13   -1    0    0    0    0  0.00000000000E+00  0.00000000000E+00  0.74505805969E-08  0.10566000000E+00  0.10566000000E+00 0. -1.
     999900   -1    0    0    0    0 -0.00000000000E+00 -0.00000000000E+00 -0.74505805969E-08  0.93827000000E+00  0.93827000000E+00 0. -1.
     999902    2    1    2    0    0  0.13133253184E-01  0.14970083371E-01 -0.12102853985E-01  0.10206262490E+01  0.10203601694E+01 0.  0.
     999903    2    3    3    0    0  0.12036941915E-01 -0.11073953332E+00  0.61157893687E-01  0.12867824225E+00  0.20240302795E-01 0.  0.
         14    1    1    2    0    0 -0.13133253184E-01 -0.14970083371E-01  0.12102853985E-01  0.23303750984E-01  0.00000000000E+00 0. -1.
     999901    1    3    3    0    0  0.10963112683E-02  0.12570961669E+00 -0.73260747673E-01  0.89194800677E+00  0.88000000000E+00 0. -1.
        -11    1    4    4    0    0 -0.29912327682E-03 -0.75664090803E-01  0.36088942455E-01  0.83832076202E-01  0.51100000000E-03 0. -1.
         11    1    4    4    0    0  0.12336065192E-01 -0.35075442517E-01  0.25068951232E-01  0.44846166047E-01  0.51100000000E-03 0.  1.
</event>
<event>
 8    1  0.1120016E+005  0.1043930E+01  0.7957747E-01            NaN
         13   -1    0    0    0    0  0.00000000000E+00  0.00000000000E+00  0.74505805969E-08  0.10566000000E+00  0.10566000000E+00 0.  1.
     999900   -1    0    0    0    0 -0.00000000000E+00 -0.00000000000E+00 -0.74505805969E-08  0.93827000000E+00  0.93827000000E+00 0. -1.
     999902    2    1    2    0    0 -0.11839191637E-01 -0.18485211938E-01  0.10145874195E-01  0.10197471904E+01  0.10194604082E+01 0.  0.
     999903    2    3    3    0    0  0.99435563873E-01 -0.73479408046E-01 -0.37295613381E-01  0.12977127632E+00  0.12765837671E-01 0.  0.
         14    1    1    2    0    0  0.11839191637E-01  0.18485211938E-01 -0.10145874195E-01  0.24182809642E-01  0.00000000000E+00 0.  1.
     999901    1    3    3    0    0 -0.11127475551E+00  0.54994196108E-01  0.47441487576E-01  0.88997591404E+00  0.88000000000E+00 0.  1.
        -11    1    4    4    0    0  0.74266706295E-01 -0.49614614854E-01 -0.30817484370E-01  0.94483501919E-01  0.51100000000E-03 0.  1.
         11    1    4    4    0    0  0.25168857578E-01 -0.23864793192E-01 -0.64781290111E-02  0.35287774403E-01  0.51100000000E-03 0. -1.
</event>
<event>
 8    1  0.1120016E+005  0.1043930E+01  0.7957747E-01            NaN
         13   -1    0    0    0    0  0.00000000000E+00  0.00000000000E+00  0.74505805969E-08  0.10566000000E+00  0.10566000000E+00 0. -1.
     999900   -1    0    0    0    0 -0.00000000000E+00 -0.00000000000E+00 -0.74505805969E-08  0.93827000000E+00  0.93827000000E+00 0. -1.
     999902    2    1    2    0    0 -0.11204106343E-01 -0.20200523697E-01 -0.42535472392E-02  0.10204420069E+01  0.10201716540E+01 0.  0.
     999903    2    3    3    0    0 -0.70577998010E-01  0.36601466869E-01 -0.10237290199E+00  0.13118437665E+00  0.20204168801E-01 0.  0.
         14    1    1    2    0    0  0.11204106343E-01  0.20200523697E-01  0.42535472392E-02  0.23487993118E-01  0.00000000000E+00 0. -1.
     999901    1    3    3    0    0  0.59373891667E-01 -0.56801990566E-01  0.98119354747E-01  0.88925763023E+00  0.88000000000E+00 0.  1.
        -11    1    4    4    0    0 -0.43511403990E-01  0.16698027980E-01 -0.72697481762E-01  0.86355378473E-01  0.51100000000E-03 0.  1.
         11    1    4    4    0    0 -0.27066594020E-01  0.19903438889E-01 -0.29675420224E-01  0.44828998181E-01  0.51100000000E-03 0. -1.
</event>
<event>
 8    1  0.1120016E+005  0.1043930E+01  0.7957747E-01            NaN
         13   -1    0    0    0    0  0.00000000000E+00  0.00000000000E+00  0.74505805969E-08  0.10566000000E+00  0.10566000000E+00 0. -1.
     999900   -1    0    0    0    0 -0.00000000000E+00 -0.00000000000E+00 -0.74505805969E-08  0.93827000000E+00  0.93827000000E+00 0.  1.
     999902    2    1    2    0    0  0.97007354719E-02 -0.20732148353E-01  0.32545266107E-02  0.10208103506E+01  0.10205485063E+01 0.  0.
     999903    2    3    3    0    0  0.98384794842E-01  0.82670725723E-01 -0.76606650537E-02  0.13026211601E+00  0.19887592392E-01 0.  0.
         14    1    1    2    0    0 -0.97007354719E-02  0.20732148353E-01 -0.32545266107E-02  0.23119649380E-01  0.00000000000E+00 0. -1.
     999901    1    3    3    0    0 -0.88684059370E-01 -0.10340287408E+00  0.10915191664E-01  0.89054823461E+00  0.88000000000E+00 0. -1.
        -11    1    4    4    0    0  0.52009620426E-01  0.34636749469E-01 -0.10812004599E-01  0.63418180320E-01  0.51100000000E-03 0. -1.
         11    1    4    4    0    0  0.46375174416E-01  0.48033976254E-01  0.31513395450E-02  0.66843935692E-01  0.51100000000E-03 0.  1.
</event>
<event>
 8    1  0.1120016E+005  0.1043930E+01  0.7957747E-01            NaN
         13   -1    0    0    0    0  0.00000000000E+00  0.00000000000E+00  0.74505805969E-08  0.10566000000E+00  0.10566000000E+00 0.  1.
     999900   -1    0    0    0    0 -0.00000000000E+00 -0.00000000000E+00 -0.74505805969E-08  0.93827000000E+00  0.93827000000E+00 0.  1.
     999902    2    1    2    0    0 -0.10774058170E-01 -0.24064846022E-02  0.21055373490E-01  0.10201560594E+01  0.10198790052E+01 0.  0.
     999903    2    3    3    0    0  0.90967686316E-01 -0.87475960952E-01  0.25442647138E-01  0.13020805727E+00  0.19484511433E-01 0.  0.
         14    1    1    2    0    0  0.10774058170E-01  0.24064846022E-02 -0.21055373490E-01  0.23773940574E-01  0.00000000000E+00 0.  1.
     999901    1    3    3    0    0 -0.10174174449E+00  0.85069476349E-01 -0.43872736479E-02  0.88994800216E+00  0.88000000000E+00 0.  1.
        -11    1    4    4    0    0  0.57204644841E-01 -0.65496986479E-01  0.12296467453E-01  0.87827620155E-01  0.51100000000E-03 0. -1.
         11    1    4    4    0    0  0.33763041474E-01 -0.21978974472E-01  0.13146179686E-01  0.42380437112E-01  0.51100000000E-03 0.  1.
</event>
<event>
 8    1  0.1120016E+005  0.1043930E+01  0.7957747E-01            NaN
         13   -1    0    0    0    0  0.00000000000E+00  0.00000000000E+00  0.74505805969E-08  0.10566000000E+00  0.10566000000E+00 0. -1.
     999900   -1    0    0    0    0 -0.00000000000E+00 -0.00000000000E+00 -0.74505805969E-08  0.93827000000E+00  0.93827000000E+00 0. -1.
     999902    2    1    2    0    0  0.20197795635E-01 -0.14293131718E-01 -0.10710968761E-02  0.10191632519E+01  0.10188622783E+01 0.  0.
     999903    2    3    3    0    0  0.47787528932E-01  0.12714152186E-01 -0.11762334503E+00  0.13063918733E+00  0.28036554405E-01 0.  0.
         14    1    1    2    0    0 -0.20197795635E-01  0.14293131718E-01  0.10710968761E-02  0.24766748098E-01  0.00000000000E+00 0. -1.
     999901    1    3    3    0    0 -0.27589733298E-01 -0.27007283904E-01  0.11655224816E+00  0.88852406457E+00  0.88000000000E+00 0.  1.
        -11    1    4    4    0    0  0.15257009888E-01  0.20440445790E-02 -0.71818935258E-01  0.73451855331E-01  0.51100000000E-03 0.  1.
         11    1    4    4    0    0  0.32530519045E-01  0.10670107607E-01 -0.45804409776E-01  0.57187332003E-01  0.51100000000E-03 0. -1.
</event>
<event>
 8    1  0.1120016E+005  0.1043930E+01  0.7957747E-01            NaN
         13   -1    0    0    0    0  0.00000000000E+00  0.00000000000E+00  0.74505805969E-08  0.10566000000E+00  0.10566000000E+00 0. -1.
     999900   -1    0    0    0    0 -0.00000000000E+00 -0.00000000000E+00 -0.74505805969E-08  0.93827000000E+00  0.93827000000E+00 0.  1.
     999902    2    1    2    0    0  0.22025457750E-01  0.84304072824E-02 -0.17473559175E-02  0.10202816214E+01  0.10200075202E+01 0.  0.
     999903    2    3    3    0    0  0.10945939462E+00 -0.38464915774E-01  0.60931787767E-01  0.13249080165E+00  0.19499255026E-01 0.  0.
         14    1    1    2    0    0 -0.22025457750E-01 -0.84304072824E-02  0.17473559175E-02  0.23648378564E-01  0.00000000000E+00 0. -1.
     999901    1    3    3    0    0 -0.87433936866E-01  0.46895323057E-01 -0.62679143684E-01  0.88779081978E+00  0.88000000000E+00 0.  1.
        -11    1    4    4    0    0  0.65586155352E-01 -0.19348510148E-01  0.45771418360E-01  0.82287255869E-01  0.51100000000E-03 0. -1.
         11    1    4    4    0    0  0.43873239264E-01 -0.19116405626E-01  0.15160369407E-01  0.50203545782E-01  0.51100000000E-03 0.  1.
</event>
<event>
 8    1  0.1120016E+005  0.1043930E+01  0.7957747E-01            NaN
         13   -1    0    0    0    0  0.00000000000E+00  0.00000000000E+00  0.74505805969E-08  0.10566000000E+00  0.10566000000E+00 0. -1.
     999900   -1    0    0    0    0 -0.00000000000E+00 -0.00000000000E+00 -0.74505805969E-08  0.93827000000E+00  0.93827000000E+00 0.  1.
     999902    2    1    2    0    0  0.20539828134E-01 -0.10220786222E-01 -0.45827645705E-02  0.10205344718E+01  0.10202662678E+01 0.  0.
     999903    2    3    3    0    0 -0.10655883845E+00  0.46112126954E-01 -0.51096628197E-01  0.12840723438E+00  0.19910754006E-01 0.  0.
         14    1    1    2    0    0 -0.20539828134E-01  0.10220786222E-01  0.45827645705E-02  0.23395528245E-01  0.00000000000E+00 0. -1.
     999901    1    3    3    0    0  0.12709866658E+00 -0.56332913176E-01  0.46513863627E-01  0.89212723737E+00  0.88000000000E+00 0. -1.
        -11    1    4    4    0    0 -0.57448995211E-01  0.24528548387E-01 -0.16632630013E-01  0.64644738679E-01  0.51100000000E-03 0. -1.
         11    1    4    4    0    0 -0.49109843236E-01  0.21583578567E-01 -0.34463998184E-01  0.63762495703E-01  0.51100000000E-03 0.  1.
</event>
<event>
 8    1  0.1120016E+005  0.1043930E+01  0.7957747E-01            NaN
         13   -1    0    0    0    0  0.00000000000E+00  0.00000000000E+00  0.74505805969E-08  0.10566000000E+00  0.10566000000E+00 0.  1.
     999900   -1    0    0    0    0 -0.00000000000E+00 -0.00000000000E+00 -0.74505805969E-08  0.93827000000E+00  0.93827000000E+00 0.  1.
     999902    2    1    2    0    0 -0.11120450356E-02  0.12980703497E-01 -0.22682800491E-01  0.10177719277E+01  0.10174357238E+01 0.  0.
     999903    2    3    3    0    0 -0.28667584297E-02  0.11470756152E+00 -0.59812605750E-01  0.13113217274E+00  0.21261607370E-01 0.  0.
         14    1    1    2    0    0  0.11120450356E-02 -0.12980703497E-01  0.22682800491E-01  0.26158072283E-01  0.00000000000E+00 0.  1.
     999901    1    3    3    0    0  0.17547133942E-02 -0.10172685802E+00  0.37129805259E-01  0.88663975497E+00  0.88000000000E+00 0. -1.
        -11    1    4    4    0    0 -0.11852305388E-01  0.76934207519E-01 -0.41111847404E-01  0.88032917409E-01  0.51100000000E-03 0.  1.
         11    1    4    4    0    0  0.89855469585E-02  0.37773354001E-01 -0.18700758346E-01  0.43099255334E-01  0.51100000000E-03 0. -1.
</event>
<event>
 8    1  0.1120016E+005  0.1043930E+01  0.7957747E-01            NaN
         13   -1    0    0    0    0  0.00000000000E+00  0.00000000000E+00  0.74505805969E-08  0.10566000000E+00  0.10566000000E+00 0. -1.
     999900   -1    0    0    0    0 -0.00000000000E+00 -0.00000000000E+00 -0.74505805969E-08  0.93827000000E+00  0.93827000000E+00 0. -1.
     999902    2    1    2    0    0  0.64733725504E-04  0.22588774777E-01 -0.58601091170E-02  0.10205933804E+01  0.10203265410E+01 0.  0.
     999903    2    3    3    0    0 -0.91668499896E-01 -0.38251282425E-01 -0.82267534054E-01  0.13045036193E+00  0.19572309218E-01 0.  0.
         14    1    1    2    0    0 -0.64733725504E-04 -0.22588774777E-01  0.58601091170E-02  0.23336619619E-01  0.00000000000E+00 0.  1.
     999901    1    3    3    0    0  0.91733233621E-01  0.60840057201E-01  0.76407424937E-01  0.89014301845E+00  0.88000000000E+00 0.  1.
        -11    1    4    4    0    0 -0.30066278018E-01 -0.29130360178E-02 -0.23834439387E-01  0.38481274337E-01  0.51100000000E-03 0. -1.
         11    1    4    4    0    0 -0.61602221877E-01 -0.35338246407E-01 -0.58433094668E-01  0.91969087594E-01  0.51100000000E-03 0.  1.
</event>
<event>
 8    1  0.1120016E+005  0.1043930E+01  0.7957747E-01            NaN
         13   -1    0    0    0    0  0.00000000000E+00  0.00000000000E+00  0.74505805969E-08  0.10566000000E+00  0.10566000000E+00 0.  1.
     999900   -1    0    0    0    0 -0.00000000000E+00 -0.00000000000E+00 -0.74505805969E-08  0.93827000000E+00  0.93827000000E+00 0. -1.
     999902    2    1    2    0    0  0.13675066363E-01  0.46570812134E-02 -0.75496694271E-02  0.10276298971E+01  0.10275006142E+01 0.  0.
     999903    2    3    3    0    0 -0.12463902479E+00  0.12025126062E-01 -0.48688608116E-01  0.13584657805E+00  0.20105274160E-01 0.  0.
         14    1    1    2    0    0 -0.13675066363E-01 -0.46570812134E-02  0.75496694271E-02  0.16300102880E-01  0.00000000000E+00 0.  1.
     999901    1    3    3    0    0  0.13831409116E+00 -0.73680448486E-02  0.41138938689E-01  0.89178331907E+00  0.88000000000E+00 0. -1.
        -11    1    4    4    0    0 -0.68455330978E-01  0.11284223447E-01 -0.17391181805E-01  0.71527479780E-01  0.51100000000E-03 0.  1.
         11    1    4    4    0    0 -0.56183693815E-01  0.74090261461E-03 -0.31297426310E-01  0.64319098268E-01  0.51100000000E-03 0. -1.
</event>
<event>
 8    1  0.1120016E+005  0.1043930E+01  0.7957747E-01            NaN
         13   -1    0    0    0    0  0.00000000000E+00  0.00000000000E+00  0.74505805969E-08  0.10566000000E+00  0.10566000000E+00 0. -1.
     999900   -1    0    0    0    0 -0.00000000000E+00 -0.00000000000E+00 -0.74505805969E-08  0.93827000000E+00  0.93827000000E+00 0.  1.
     999902    2    1    2    0    0  0.84083141359E-02  0.16265234818E-01  0.13664406732E-01  0.10210832580E+01  0.10208276280E+01 0.  0.
     999903    2    3    3    0    0 -0.94194057497E-01 -0.76984434986E-01  0.40979560193E-01  0.12980952606E+00  0.19288986573E-01 0.  0.
         14    1    1    2    0    0 -0.84083141359E-02 -0.16265234818E-01 -0.13664406732E-01  0.22846742035E-01  0.00000000000E+00 0.  1.
     999901    1    3    3    0    0  0.10260237163E+00  0.93249669804E-01 -0.27315153461E-01  0.89127373191E+00  0.88000000000E+00 0.  1.
        -11    1    4    4    0    0 -0.77005045453E-01 -0.52614970371E-01  0.29028203131E-01  0.97678092888E-01  0.51100000000E-03 0. -1.
         11    1    4    4    0    0 -0.17189012045E-01 -0.24369464615E-01  0.11951357062E-01  0.32131433167E-01  0.51100000000E-03 0.  1.
</event>
<event>
 8    1  0.1120016E+005  0.1043930E+01  0.7957747E-01            NaN
         13   -1    0    0    0    0  0.00000000000E+00  0.00000000000E+00  0.74505805969E-08  0.10566000000E+00  0.10566000000E+00 0. -1.
     999900   -1    0    0    0    0 -0.00000000000E+00 -0.00000000000E+00 -0.74505805969E-08  0.93827000000E+00  0.93827000000E+00 0. -1.
     999902    2    1    2    0    0  0.21724657712E-01  0.13513023303E-01 -0.25956089079E-02  0.10182142512E+01  0.10178894643E+01 0.  0.
     999903    2    3    3    0    0  0.12274984931E+00 -0.33975893103E-01 -0.23551760306E-01  0.13091472634E+00  0.19028750383E-01 0.  0.
         14    1    1    2    0    0 -0.21724657712E-01 -0.13513023303E-01  0.25956089079E-02  0.25715748815E-01  0.00000000000E+00 0. -1.
     999901    1    3    3    0    0 -0.10102519159E+00  0.47488916406E-01  0.20956151398E-01  0.88729952485E+00  0.88000000000E+00 0. -1.
        -11    1    4    4    0    0  0.10323350640E+00 -0.21497529063E-01 -0.21793980742E-01  0.10767794258E+00  0.51100000000E-03 0.  1.
         11    1    4    4    0    0  0.19516342901E-01 -0.12478364040E-01 -0.17577795646E-02  0.23236783757E-01  0.51100000000E-03 0. -1.
</event>
<event>
 8    1  0.1120016E+005  0.1043930E+01  0.7957747E-01            NaN
         13   -1    0    0    0    0  0.00000000000E+00  0.00000000000E+00  0.74505805969E-08  0.10566000000E+00  0.10566000000E+00 0. -1.
     999900   -1    0    0    0    0 -0.00000000000E+00 -0.00000000000E+00 -0.74505805969E-08  0.93827000000E+00  0.93827000000E+00 0. -1.
     999902    2    1    2    0    0  0.10327191084E-01 -0.17511416598E-01  0.11982106390E-01  0.10203318759E+01  0.10200589520E+01 0.  0.
     999903    2    3    3    0    0 -0.12365924507E+00  0.29128084598E-01  0.10103325925E-01  0.12896711446E+00  0.19758168232E-01 0.  0.
         14    1    1    2    0    0 -0.10327191084E-01  0.17511416598E-01 -0.11982106390E-01  0.23598124089E-01  0.00000000000E+00 0.  1.
     999901    1    3    3    0    0  0.13398643616E+00 -0.46639501196E-01  0.18787804649E-02  0.89136476145E+00  0.88000000000E+00 0.  1.
        -11    1    4    4    0    0 -0.85922283907E-01  0.28496826100E-01  0.31129567239E-02  0.90579576010E-01  0.51100000000E-03 0.  1.
         11    1    4    4    0    0 -0.37736961168E-01  0.63125849754E-03  0.69903692010E-02  0.38387538447E-01  0.51100000000E-03 0. -1.
</event>
<event>
 8    1  0.1120016E+005  0.1043930E+01  0.7957747E-01            NaN
         13   -1    0    0    0    0  0.00000000000E+00  0.00000000000E+00  0.74505805969E-08  0.10566000000E+00  0.10566000000E+00 0.  1.
     999900   -1    0    0    0    0 -0.00000000000E+00 -0.00000000000E+00 -0.74505805969E-08  0.93827000000E+00  0.93827000000E+00 0. -1.
     999902    2    1    2    0    0 -0.15839511472E-02 -0.21468904345E-01  0.93663054559E-02  0.10204534067E+01  0.10201833192E+01 0.  0.
     999903    2    3    3    0    0 -0.88532552850E-01  0.43050670533E-01  0.81214887654E-01  0.13091135955E+00  0.29164240708E-01 0.  0.
         14    1    1    2    0    0  0.15839511472E-02  0.21468904345E-01 -0.93663054559E-02  0.23476593298E-01  0.00000000000E+00 0.  1.
     999901    1    3    3    0    0  0.86948601702E-01 -0.64519574877E-01 -0.71848582199E-01  0.88954204715E+00  0.88000000000E+00 0. -1.
        -11    1    4    4    0    0 -0.30355570196E-01  0.17532697985E-01  0.47359524980E-01  0.58924034722E-01  0.51100000000E-03 0. -1.
         11    1    4    4    0    0 -0.58176982654E-01  0.25517972548E-01  0.33855362674E-01  0.71987324832E-01  0.51100000000E-03 0.  1.
</event>
<event>
 8    1  0.1120016E+005  0.1043930E+01  0.7957747E-01            NaN
         13   -1    0    0    0    0  0.00000000000E+00  0.00000000000E+00  0.74505805969E-08  0.10566000000E+00  0.10566000000E+00 0.  1.
     999900   -1    0    0    0    0 -0.00000000000E+00 -0.00000000000E+00 -0.74505805969E-08  0.93827000000E+00  0.93827000000E+00 0.  1.
     999902    2    1    2    0    0  0.15324221620E-01 -0.17101708889E-01  0.36151831865E-02  0.10206841452E+01  0.10204194013E+01 0.  0.
     999903    2    3    3    0    0  0.60504665243E-01  0.10086827250E+00 -0.51284393490E-01  0.12996973952E+00  0.20659652997E-01 0.  0.
         14    1    1    2    0    0 -0.15324221620E-01  0.17101708889E-01 -0.36151831865E-02  0.23245854784E-01  0.00000000000E+00 0.  1.
     999901    1    3    3    0    0 -0.45180443624E-01 -0.11796998139E+00  0.54899576677E-01  0.89071440570E+00  0.88000000000E+00 0. -1.
        -11    1    4    4    0    0  0.24099598076E-01  0.46206375649E-01 -0.33402412301E-01  0.61901551245E-01  0.51100000000E-03 0. -1.
         11    1    4    4    0    0  0.36405067167E-01  0.54661896851E-01 -0.17881981189E-01  0.68068188275E-01  0.51100000000E-03 0.  1.
</event>
<event>
 8    1  0.1120016E+005  0.1043930E+01  0.7957747E-01            NaN
         13   -1    0    0    0    0  0.00000000000E+00  0.00000000000E+00  0.74505805969E-08  0.10566000000E+00  0.10566000000E+00 0.  1.
     999900   -1    0    0    0    0 -0.00000000000E+00 -0.00000000000E+00 -0.74505805969E-08  0.93827000000E+00  0.93827000000E+00 0.  1.
     999902    2    1    2    0    0  0.62548212218E-02 -0.23260626916E-01  0.23518120057E-02  0.10197285419E+01  0.10194413120E+01 0.  0.
     999903    2    3    3    0    0 -0.93981458081E-01  0.82529835764E-01 -0.15971554112E-01  0.12755441126E+00  0.19270418729E-01 0.  0.
         14    1    1    2    0    0 -0.62548212218E-02  0.23260626916E-01 -0.23518120057E-02  0.24201458071E-01  0.00000000000E+00 0. -1.
     999901    1    3    3    0    0  0.10023627930E+00 -0.10579046268E+00  0.18323366117E-01  0.89217413067E+00  0.88000000000E+00 0. -1.
        -11    1    4    4    0    0 -0.46464989673E-01  0.50643614983E-01 -0.14849820012E-01  0.70317489142E-01  0.51100000000E-03 0.  1.
         11    1    4    4    0    0 -0.47516468407E-01  0.31886220781E-01 -0.11217341001E-02  0.57236922122E-01  0.51100000000E-03 0. -1.
</event>
<event>
 7    1  0.1120016E+005  0.1043930E+01  0.7957747E-01            NaN
         13   -1    0    0    0    0  0.00000000000E+00  0.00000000000E+00  0.74505805969E-08  0.10566000000E+00  0.10566000000E+00 0. -1.
     999900   -1    0    0    0    0 -0.00000000000E+00 -0.00000000000E+00 -0.74505805969E-08  0.93827000000E+00  0.93827000000E+00 0.  1.
     999902    2    1    2    0    0 -0.22158362340E-02  0.22401414829E-01 -0.16199875851E-02  0.10213610462E+01  0.10211116633E+01 0.  0.
         14    1    1    2    0    0  0.22158362340E-02 -0.22401414829E-01  0.16199875851E-02  0.22568953815E-01  0.00000000000E+00 0.  1.
     999901    1    3    3    0    0 -0.75916312262E-02 -0.36140340511E-01  0.11086077863E+00  0.88772398262E+00  0.88000000000E+00 0. -1.
        -11    1    3    3    0    0  0.16279372276E-01  0.29871181389E-01 -0.88129869339E-01  0.94469256534E-01  0.51100000000E-03 0.  1.
         11    1    3    3    0    0 -0.10903577284E-01  0.28670573951E-01 -0.24350896872E-01  0.39167807033E-01  0.51100000000E-03 0. -1.
</event>
<event>
 8    1  0.1120016E+005  0.1043930E+01  0.7957747E-01            NaN
         13   -1    0    0    0    0  0.00000000000E+00  0.00000000000E+00  0.74505805969E-08  0.10566000000E+00  0.10566000000E+00 0.  1.
     999900   -1    0    0    0    0 -0.00000000000E+00 -0.00000000000E+00 -0.74505805969E-08  0.93827000000E+00  0.93827000000E+00 0.  1.
     999902    2    1    2    0    0 -0.52490693040E-02 -0.15868819119E-01  0.18697527645E-01  0.10188507319E+01  0.10185420189E+01 0.  0.
     999903    2    3    3    0    0 -0.72154548707E-02 -0.11674093960E+00 -0.53589984714E-01  0.13014125416E+00  0.19604841361E-01 0.  0.
         14    1    1    2    0    0  0.52490693040E-02  0.15868819119E-01 -0.18697527645E-01  0.25079268108E-01  0.00000000000E+00 0.  1.
     999901    1    3    3    0    0  0.19663855667E-02  0.10087212048E+00  0.72287512359E-01  0.88870947773E+00  0.88000000000E+00 0. -1.
        -11    1    4    4    0    0 -0.90082698191E-02 -0.61933487598E-01 -0.19434207473E-01  0.65535145932E-01  0.51100000000E-03 0.  1.
         11    1    4    4    0    0  0.17928149484E-02 -0.54807452006E-01 -0.34155777241E-01  0.64606108230E-01  0.51100000000E-03 0. -1.
</event>
<event>
 8    1  0.1120016E+005  0.1043930E+01  0.7957747E-01            NaN
         13   -1    0    0    0    0  0.00000000000E+00  0.00000000000E+00  0.74505805969E-08  0.10566000000E+00  0.10566000000E+00 0. -1.
     999900   -1    0    0    0    0 -0.00000000000E+00 -0.00000000000E+00 -0.74505805969E-08  0.93827000000E+00  0.93827000000E+00 0.  1.
     999902    2    1    2    0    0  0.16084765659E-01 -0.11356234973E-01  0.13304116496E-01  0.10201669347E+01  0.10198901369E+01 0.  0.
     999903    2    3    3    0    0  0.11861398030E+00  0.44159255517E-01  0.32452266410E-01  0.13227005934E+00  0.20564601461E-01 0.  0.
         14    1    1    2    0    0 -0.16084765659E-01  0.11356234973E-01 -0.13304116496E-01  0.23763065349E-01  0.00000000000E+00 0.  1.
     999901    1    3    3    0    0 -0.10252921464E+00 -0.55515490490E-01 -0.19148149914E-01  0.88789687531E+00  0.88000000000E+00 0.  1.
        -11    1    4    4    0    0  0.68773436868E-01  0.30162159345E-01  0.97095306577E-02  0.75723692340E-01  0.51100000000E-03 0.  1.
         11    1    4    4    0    0  0.49840543429E-01  0.13997096173E-01  0.22742735752E-01  0.56546367002E-01  0.51100000000E-03 0. -1.
</event>
<event>
 8    1  0.1120016E+005  0.1043930E+01  0.7957747E-01            NaN
         13   -1    0    0    0    0  0.00000000000E+00  0.00000000000E+00  0.74505805969E-08  0.10566000000E+00  0.10566000000E+00 0. -1.
     999900   -1    0    0    0    0 -0.00000000000E+00 -0.00000000000E+00 -0.74505805969E-08  0.93827000000E+00  0.93827000000E+00 0.  1.
     999902    2    1    2    0    0  0.16956247119E-01 -0.76636507811E-02  0.11460007437E-01  0.10220764504E+01  0.10218427926E+01 0.  0.
     999903    2    3    3    0    0 -0.93505737389E-01  0.21392024088E-01 -0.84972404775E-01  0.12947055058E+00  0.18476262490E-01 0.  0.
         14    1    1    2    0    0 -0.16956247119E-01  0.76636507811E-02 -0.11460007437E-01  0.21853549600E-01  0.00000000000E+00 0. -1.
     999901    1    3    3    0    0  0.11046198451E+00 -0.29055674869E-01  0.96432412213E-01  0.89260589982E+00  0.88000000000E+00 0. -1.
        -11    1    4    4    0    0 -0.47355671206E-01  0.63943388296E-02 -0.52964525761E-01  0.71336871774E-01  0.51100000000E-03 0. -1.
         11    1    4    4    0    0 -0.46150066183E-01  0.14997685258E-01 -0.32007879015E-01  0.58133678809E-01  0.51100000000E-03 0.  1.
</event>
<event>
 8    1  0.1120016E+005  0.1043930E+01  0.7957747E-01            NaN
         13   -1    0    0    0    0  0.00000000000E+00  0.00000000000E+00  0.74505805969E-08  0.10566000000E+00  0.10566000000E+00 0. -1.
     999900   -1    0    0    0    0 -0.00000000000E+00 -0.00000000000E+00 -0.74505805969E-08  0.93827000000E+00  0.93827000000E+00 0. -1.
     999902    2    1    2    0    0  0.16928729545E-01 -0.11128032890E-01  0.12340489870E-01  0.10202086448E+01  0.10199328293E+01 0.  0.
     999903    2    3    3    0    0  0.10471783807E+00  0.54462472515E-01 -0.53210889451E-01  0.13099212155E+00  0.19888454669E-01 0.  0.
         14    1    1    2    0    0 -0.16928729545E-01  0.11128032890E-01 -0.12340489870E-01  0.23721355152E-01  0.00000000000E+00 0.  1.
     999901    1    3    3    0    0 -0.87789108527E-01 -0.65590505405E-01  0.65551379322E-01  0.88921652330E+00  0.88000000000E+00 0. -1.
        -11    1    4    4    0    0  0.52826689679E-01  0.24218484638E-01 -0.36574711178E-01  0.68667057308E-01  0.51100000000E-03 0.  1.
         11    1    4    4    0    0  0.51891148393E-01  0.30243987876E-01 -0.16636178273E-01  0.62325064242E-01  0.51100000000E-03 0. -1.
</event>
<event>
 8    1  0.1120016E+005  0.1043930E+01  0.7957747E-01            NaN
         13   -1    0    0    0    0  0.00000000000E+00  0.00000000000E+00  0.74505805969E-08  0.10566000000E+00  0.10566000000E+00 0.  1.
     999900   -1    0    0    0    0 -0.00000000000E+00 -0.00000000000E+00 -0.74505805969E-08  0.93827000000E+00  0.93827000000E+00 0.  1.
     999902    2    1    2    0    0  0.17821720875E-01 -0.15487633237E-01  0.37264144351E-02  0.10200267223E+01  0.10197466095E+01 0.  0.
     999903    2    3    3    0    0  0.86839782331E-01  0.73395510472E-01  0.61861027488E-01  0.13095791776E+00  0.19878147549E-01 0.  0.
         14    1    1    2    0    0 -0.17821720875E-01  0.15487633237E-01 -0.37264144351E-02  0.23903277657E-01  0.00000000000E+00 0.  1.
     999901    1    3    3    0    0 -0.69018061456E-01 -0.88883143709E-01 -0.58134613053E-01  0.88906880458E+00  0.88000000000E+00 0. -1.
        -11    1    4    4    0    0  0.56141422717E-01  0.34831437690E-01  0.33301834767E-01  0.73988929686E-01  0.51100000000E-03 0.  1.
         11    1    4    4    0    0  0.30698359614E-01  0.38564072782E-01  0.28559192721E-01  0.56968988076E-01  0.51100000000E-03 0. -1.
</event>
<event>
 8    1  0.1120016E+005  0.1043930E+01  0.7957747E-01            NaN
         13   -1    0    0    0    0  0.00000000000E+00  0.00000000000E+00  0.74505805969E-08  0.10566000000E+00  0.10566000000E+00 0.  1.
     999900   -1    0    0    0    0 -0.00000000000E+00 -0.00000000000E+00 -0.74505805969E-08  0.93827000000E+00  0.93827000000E+00 0. -1.
     999902    2    1    2    0    0  0.13804517663E-02 -0.11261572263E-01 -0.20809575975E-01  0.10202283733E+01  0.10199530217E+01 0.  0.
     999903    2    3    3    0    0 -0.74669119097E-01 -0.51834337803E-01 -0.94888957392E-01  0.13291927196E+00  0.20033539415E-01 0.  0.
         14    1    1    2    0    0 -0.13804517663E-02  0.11261572263E-01  0.20809575975E-01  0.23701626720E-01  0.00000000000E+00 0.  1.
     999901    1    3    3    0    0  0.76049570864E-01  0.40572765540E-01  0.74079381417E-01  0.88730910132E+00  0.88000000000E+00 0.  1.
        -11    1    4    4    0    0 -0.25968207010E-01 -0.18716826831E-01 -0.47712172909E-01  0.57457636104E-01  0.51100000000E-03 0.  1.
         11    1    4    4    0    0 -0.48700912087E-01 -0.33117510972E-01 -0.47176784484E-01  0.75461635858E-01  0.51100000000E-03 0. -1.
</event>
<event>
 8    1  0.1120016E+005  0.1043930E+01  0.7957747E-01            NaN
         13   -1    0    0    0    0  0.00000000000E+00  0.00000000000E+00  0.74505805969E-08  0.10566000000E+00  0.10566000000E+00 0.  1.
     999900   -1    0    0    0    0 -0.00000000000E+00 -0.00000000000E+00 -0.74505805969E-08  0.93827000000E+00  0.93827000000E+00 0.  1.
     999902    2    1    2    0    0  0.10446624880E-01 -0.15864848752E-01 -0.12233861274E-01  0.10213359132E+01  0.10210859684E+01 0.  0.
     999903    2    3    3    0    0  0.29869797609E-01 -0.12079915271E+00 -0.46088867350E-01  0.13424255326E+00  0.20303677167E-01 0.  0.
         14    1    1    2    0    0 -0.10446624880E-01  0.15864848752E-01  0.12233861274E-01  0.22594086814E-01  0.00000000000E+00 0.  1.
     999901    1    3    3    0    0 -0.19423172729E-01  0.10493430396E+00  0.33855006077E-01  0.88709335993E+00  0.88000000000E+00 0.  1.
        -11    1    4    4    0    0  0.14927468671E-01 -0.81438669453E-01 -0.21735863332E-01  0.85602541312E-01  0.51100000000E-03 0. -1.
         11    1    4    4    0    0  0.14942328938E-01 -0.39360483261E-01 -0.24353004018E-01  0.48640011949E-01  0.51100000000E-03 0.  1.
</event>
<event>
 8    1  0.1120016E+005  0.1043930E+01  0.7957747E-01            NaN
         13   -1    0    0    0    0  0.00000000000E+00  0.00000000000E+00  0.74505805969E-08  0.10566000000E+00  0.10566000000E+00 0. -1.
     999900   -1    0    0    0    0 -0.00000000000E+00 -0.00000000000E+00 -0.74505805969E-08  0.93827000000E+00  0.93827000000E+00 0.  1.
     999902    2    1    2    0    0  0.22256135865E-02 -0.17389294243E-01  0.79038489484E-02  0.10246995102E+01  0.10245190454E+01 0.  0.
     999903    2    3    3    0    0 -0.10455521219E+00  0.57233350500E-01  0.57447488070E-01  0.13373079242E+00  0.19397477949E-01 0.  0.
         14    1    1    2    0    0 -0.22256135865E-02  0.17389294243E-01 -0.79038489484E-02  0.19230489809E-01  0.00000000000E+00 0.  1.
     999901    1    3    3    0    0  0.10678082578E+00 -0.74622644743E-01 -0.49543639122E-01  0.89096871777E+00  0.88000000000E+00 0.  1.
        -11    1    4    4    0    0 -0.57356685668E-01  0.37721548215E-01  0.24218240626E-01  0.72797588494E-01  0.51100000000E-03 0. -1.
         11    1    4    4    0    0 -0.47198526524E-01  0.19511802286E-01  0.33229247444E-01  0.60933203930E-01  0.51100000000E-03 0.  1.
</event>
<event>
 8    1  0.1120016E+005  0.1043930E+01  0.7957747E-01            NaN
         13   -1    0    0    0    0  0.00000000000E+00  0.00000000000E+00  0.74505805969E-08  0.10566000000E+00  0.10566000000E+00 0.  1.
     999900   -1    0    0    0    0 -0.00000000000E+00 -0.00000000000E+00 -0.74505805969E-08  0.93827000000E+00  0.93827000000E+00 0.  1.
     999902    2    1    2    0    0  0.87710696256E-02 -0.21203562251E-01  0.60907775778E-02  0.10201893116E+01  0.10199130410E+01 0.  0.
     999903    2    3    3    0    0 -0.71941719132E-01  0.92679097223E-01  0.47717520855E-01  0.12821588141E+00  0.19932998659E-01 0.  0.
         14    1    1    2    0    0 -0.87710696256E-02  0.21203562251E-01 -0.60907775778E-02  0.23740688406E-01  0.00000000000E+00 0. -1.
     999901    1    3    3    0    0  0.80712788758E-01 -0.11388265947E+00 -0.41626743277E-01  0.89197343018E+00  0.88000000000E+00 0.  1.
        -11    1    4    4    0    0 -0.50644566416E-01  0.64540040127E-01  0.23250686952E-01  0.85271005927E-01  0.51100000000E-03 0. -1.
         11    1    4    4    0    0 -0.21297152716E-01  0.28139057096E-01  0.24466833902E-01  0.42944875483E-01  0.51100000000E-03 0.  1.
</event>
<event>
 8    1  0.1120016E+005  0.1043930E+01  0.7957747E-01            NaN
         13   -1    0    0    0    0  0.00000000000E+00  0.00000000000E+00  0.74505805969E-08  0.10566000000E+00  0.10566000000E+00 0. -1.
     999900   -1    0    0    0    0 -0.00000000000E+00 -0.00000000000E+00 -0.74505805969E-08  0.93827000000E+00  0.93827000000E+00 0.  1.
     999902    2    1    2    0    0  0.15237435155E-01  0.57070062960E-02  0.15191327024E-01  0.10216695919E+01  0.10214270553E+01 0.  0.
     999903    2    3    3    0    0  0.48767597081E-01  0.11156012124E+00  0.53021918198E-01  0.13388566138E+00  0.17032537643E-01 0.  0.
         14    1    1    2    0    0 -0.15237435155E-01 -0.57070062960E-02 -0.15191327024E-01  0.22260408077E-01  0.00000000000E+00 0.  1.
     999901    1    3    3    0    0 -0.33530161925E-01 -0.10585311494E+00 -0.37830591173E-01  0.88778393054E+00  0.88000000000E+00 0.  1.
        -11    1    4    4    0    0  0.91080113017E-02  0.33376277665E-01  0.88351771629E-02  0.35710688276E-01  0.51100000000E-03 0.  1.
         11    1    4    4    0    0  0.39659585779E-01  0.78183843571E-01  0.44186741035E-01  0.98174973104E-01  0.51100000000E-03 0. -1.
</event>
<event>
 8    1  0.1120016E+005  0.1043930E+01  0.7957747E-01            NaN
         13   -1    0    0    0    0  0.00000000000E+00  0.00000000000E+00  0.74505805969E-08  0.10566000000E+00  0.10566000000E+00 0. -1.
     999900   -1    0    0    0    0 -0.00000000000E+00 -0.00000000000E+00 -0.74505805969E-08  0.93827000000E+00  0.93827000000E+00 0.  1.
     999902    2    1    2    0    0 -0.11748308381E-01  0.14955004911E-01  0.21866933168E-01  0.10149500468E+01  0.10145362289E+01 0.  0.
     999903    2    3    3    0    0  0.20139700508E-01 -0.96458070402E-01  0.75429106999E-01  0.12573768468E+00  0.20264458664E-01 0.  0.
         14    1    1    2    0    0  0.11748308381E-01 -0.14955004911E-01 -0.21866933168E-01  0.28979953207E-01  0.00000000000E+00 0.  1.
     999901    1    3    3    0    0 -0.31888008889E-01  0.11141307531E+00 -0.53562173831E-01  0.88921236211E+00  0.88000000000E+00 0.  1.
        -11    1    4    4    0    0 -0.18547984212E-02 -0.32992268764E-01  0.30113501953E-01  0.44710336571E-01  0.51100000000E-03 0.  1.
         11    1    4    4    0    0  0.21994498929E-01 -0.63465801638E-01  0.45315605046E-01  0.81027348114E-01  0.51100000000E-03 0. -1.
</event>
<event>
 8    1  0.1120016E+005  0.1043930E+01  0.7957747E-01            NaN
         13   -1    0    0    0    0  0.00000000000E+00  0.00000000000E+00  0.74505805969E-08  0.10566000000E+00  0.10566000000E+00 0.  1.
     999900   -1    0    0    0    0 -0.00000000000E+00 -0.00000000000E+00 -0.74505805969E-08  0.93827000000E+00  0.93827000000E+00 0. -1.
     999902    2    1    2    0    0  0.22615313819E-01  0.56928381293E-02 -0.67876772272E-02  0.10196414556E+01  0.10193521299E+01 0.  0.
     999903    2    3    3    0    0  0.59068260395E-01 -0.11259602784E+00 -0.23434055874E-01  0.13082304052E+00  0.19964670916E-01 0.  0.
         14    1    1    2    0    0 -0.22615313819E-01 -0.56928381293E-02  0.67876772272E-02  0.24288544363E-01  0.00000000000E+00 0.  1.
     999901    1    3    3    0    0 -0.36452946575E-01  0.11828886597E+00  0.16646378647E-01  0.88881841512E+00  0.88000000000E+00 0.  1.
        -11    1    4    4    0    0  0.49197581644E-01 -0.85031701065E-01 -0.10460963526E-01  0.98795167415E-01  0.51100000000E-03 0. -1.
         11    1    4    4    0    0  0.98706787507E-02 -0.27564326777E-01 -0.12973092349E-01  0.32027873107E-01  0.51100000000E-03 0.  1.
</event>
<event>
 8    1  0.1120016E+005  0.1043930E+01  0.7957747E-01            NaN
         13   -1    0    0    0    0  0.00000000000E+00  0.00000000000E+00  0.74505805969E-08  0.10566000000E+00  0.10566000000E+00 0.  1.
     999900   -1    0    0    0    0 -0.00000000000E+00 -0.00000000000E+00 -0.74505805969E-08  0.93827000000E+00  0.93827000000E+00 0. -1.
     999902    2    1    2    0    0 -0.14034688020E-01  0.23387939417E-01 -0.79577018925E-02  0.10155170945E+01  0.10151195378E+01 0.  0.
     999903    2    3    3    0    0 -0.27311095099E-01 -0.42382144848E-02  0.12124973239E+00  0.12555415797E+00  0.17276880583E-01 0.  0.
         14    1    1    2    0    0  0.14034688020E-01 -0.23387939417E-01  0.79577018925E-02  0.28412905473E-01  0.00000000000E+00 0. -1.
     999901    1    3    3    0    0  0.13276407078E-01  0.27626153901E-01 -0.12920743428E+00  0.88996293655E+00  0.88000000000E+00 0. -1.
        -11    1    4    4    0    0 -0.18068677683E-01  0.47573445463E-02  0.55908131782E-01  0.58949891948E-01  0.51100000000E-03 0. -1.
         11    1    4    4    0    0 -0.92424174154E-02 -0.89955590311E-02  0.65341600607E-01  0.66604266026E-01  0.51100000000E-03 0.  1.
</event>
<event>
 8    1  0.1120016E+005  0.1043930E+01  0.7957747E-01            NaN
         13   -1    0    0    0    0  0.00000000000E+00  0.00000000000E+00  0.74505805969E-08  0.10566000000E+00  0.10566000000E+00 0.  1.
     999900   -1    0    0    0    0 -0.00000000000E+00 -0.00000000000E+00 -0.74505805969E-08  0.93827000000E+00  0.93827000000E+00 0. -1.
     999902    2    1    2    0    0  0.18039119506E-02 -0.15565363343E-01  0.17847668057E-01  0.10201797602E+01  0.10199032647E+01 0.  0.
     999903    2    3    3    0    0 -0.15393810633E-01  0.12375013390E+00 -0.21855293395E-01  0.12817029022E+00  0.19972591218E-01 0.  0.
         14    1    1    2    0    0 -0.18039119506E-02  0.15565363343E-01 -0.17847668057E-01  0.23750239776E-01  0.00000000000E+00 0. -1.
     999901    1    3    3    0    0  0.17197722584E-01 -0.13931549724E+00  0.39702961452E-01  0.89200947001E+00  0.88000000000E+00 0.  1.
        -11    1    4    4    0    0 -0.70726166615E-02  0.48726932249E-01 -0.18532283747E-01  0.52612189602E-01  0.51100000000E-03 0.  1.
         11    1    4    4    0    0 -0.83211939719E-02  0.75023201648E-01 -0.33230096476E-02  0.75558100616E-01  0.51100000000E-03 0. -1.
</event>
<event>
 8    1  0.1120016E+005  0.1043930E+01  0.7957747E-01            NaN
         13   -1    0    0    0    0  0.00000000000E+00  0.00000000000E+00  0.74505805969E-08  0.10566000000E+00  0.10566000000E+00 0. -1.
     999900   -1    0    0    0    0 -0.00000000000E+00 -0.00000000000E+00 -0.74505805969E-08  0.93827000000E+00  0.93827000000E+00 0.  1.
     999902    2    1    2    0    0  0.21741752780E-01  0.26361619000E-02  0.67785637349E-02  0.10210039866E+01  0.10207465594E+01 0.  0.
     999903    2    3    3    0    0  0.66660731098E-01 -0.69727821867E-01  0.89157413169E-01  0.13306224551E+00  0.21234279936E-01 0.  0.
         14    1    1    2    0    0 -0.21741752780E-01 -0.26361619000E-02 -0.67785637349E-02  0.22926013386E-01  0.00000000000E+00 0.  1.
     999901    1    3    3    0    0 -0.44918978319E-01  0.72363983767E-01 -0.82378849434E-01  0.88794174110E+00  0.88000000000E+00 0.  1.
        -11    1    4    4    0    0  0.36642090503E-01 -0.45028531649E-01  0.40527092977E-01  0.70801962156E-01  0.51100000000E-03 0.  1.
         11    1    4    4    0    0  0.30018640595E-01 -0.24699290217E-01  0.48630320191E-01  0.62260283354E-01  0.51100000000E-03 0. -1.
</event>
<event>
 8    1  0.1120016E+005  0.1043930E+01  0.7957747E-01            NaN
         13   -1    0    0    0    0  0.00000000000E+00  0.00000000000E+00  0.74505805969E-08  0.10566000000E+00  0.10566000000E+00 0. -1.
     999900   -1    0    0    0    0 -0.00000000000E+00 -0.00000000000E+00 -0.74505805969E-08  0.93827000000E+00  0.93827000000E+00 0. -1.
     999902    2    1    2    0    0 -0.13124305389E-01 -0.17570693297E-01  0.10964252375E-01  0.10194107935E+01  0.10191158788E+01 0.  0.
     999903    2    3    3    0    0  0.89759530701E-01 -0.75849377230E-01 -0.50366202627E-01  0.12938668520E+00  0.19855945264E-01 0.  0.
         14    1    1    2    0    0  0.13124305389E-01  0.17570693297E-01 -0.10964252375E-01  0.24519206452E-01  0.00000000000E+00 0. -1.
     999901    1    3    3    0    0 -0.10288383609E+00  0.58278683934E-01  0.61330455002E-01  0.89002410835E+00  0.88000000000E+00 0. -1.
        -11    1    4    4    0    0  0.18098412904E-01 -0.65117449829E-02 -0.11136051664E-01  0.22231242431E-01  0.51100000000E-03 0. -1.
         11    1    4    4    0    0  0.71661117796E-01 -0.69337632248E-01 -0.39230150963E-01  0.10715544277E+00  0.51100000000E-03 0.  1.
</event>
<event>
 8    1  0.1120016E+005  0.1043930E+01  0.7957747E-01            NaN
         13   -1    0    0    0    0  0.00000000000E+00  0.00000000000E+00  0.74505805969E-08  0.10566000000E+00  0.10566000000E+00 0. -1.
     999900   -1    0    0    0    0 -0.00000000000E+00 -0.00000000000E+00 -0.74505805969E-08  0.93827000000E+00  0.93827000000E+00 0.  1.
     999902    2    1    2    0    0 -0.20680343867E-01 -0.64066994160E-02 -0.51001359487E-02  0.10216873876E+01  0.10214452429E+01 0.  0.
     999903    2    3    3    0    0  0.22845375235E-02  0.21124091538E-01  0.12774066429E+00  0.13099551695E+00  0.19766177972E-01 0.  0.
         14    1    1    2    0    0  0.20680343867E-01  0.64066994160E-02  0.51001359487E-02  0.22242612405E-01  0.00000000000E+00 0.  1.
     999901    1    3    3    0    0 -0.22964881391E-01 -0.27530790954E-01 -0.13284080024E+00  0.89069187065E+00  0.88000000000E+00 0.  1.
        -11    1    4    4    0    0 -0.61641027736E-02  0.92140024171E-02  0.87177428934E-01  0.87880937866E-01  0.51100000000E-03 0. -1.
         11    1    4    4    0    0  0.84486402972E-02  0.11910089121E-01  0.40563235358E-01  0.43114579083E-01  0.51100000000E-03 0.  1.
</event>
<event>
 8    1  0.1120016E+005  0.1043930E+01  0.7957747E-01            NaN
         13   -1    0    0    0    0  0.00000000000E+00  0.00000000000E+00  0.74505805969E-08  0.10566000000E+00  0.10566000000E+00 0.  1.
     999900   -1    0    0    0    0 -0.00000000000E+00 -0.00000000000E+00 -0.74505805969E-08  0.93827000000E+00  0.93827000000E+00 0. -1.
     999902    2    1    2    0    0 -0.55164328067E-02 -0.11346498559E-01 -0.19905906399E-01  0.10203626673E+01  0.10200904635E+01 0.  0.
     999903    2    3    3    0    0  0.56181342270E-01 -0.11692248481E+00 -0.13176581733E-01  0.13188183570E+00  0.19798626431E-01 0.  0.
         14    1    1    2    0    0  0.55164328067E-02  0.11346498559E-01  0.19905906399E-01  0.23567332688E-01  0.00000000000E+00 0.  1.
     999901    1    3    3    0    0 -0.61697775077E-01  0.10557598625E+00 -0.67293246660E-02  0.88848083161E+00  0.88000000000E+00 0.  1.
        -11    1    4    4    0    0  0.55582557285E-02 -0.13472804350E-01 -0.79059166743E-02  0.16588408701E-01  0.51100000000E-03 0. -1.
         11    1    4    4    0    0  0.50623086541E-01 -0.10344968046E+00 -0.52706650589E-02  0.11529342700E+00  0.51100000000E-03 0.  1.
</event>
<event>
 8    1  0.1120016E+005  0.1043930E+01  0.7957747E-01            NaN
         13   -1    0    0    0    0  0.00000000000E+00  0.00000000000E+00  0.74505805969E-08  0.10566000000E+00  0.10566000000E+00 0.  1.
     999900   -1    0    0    0    0 -0.00000000000E+00 -0.00000000000E+00 -0.74505805969E-08  0.93827000000E+00  0.93827000000E+00 0. -1.
     999902    2    1    2    0    0 -0.69270453356E-02 -0.75250348773E-02 -0.22686413910E-01  0.10190445930E+01  0.10187406927E+01 0.  0.
     999903    2    3    3    0    0  0.26274761858E-01  0.10852782629E+00 -0.62462756804E-01  0.12991424030E+00  0.22526909575E-01 0.  0.
         14    1    1    2    0    0  0.69270453356E-02  0.75250348773E-02  0.22686413910E-01  0.24885407031E-01  0.00000000000E+00 0.  1.
     999901    1    3    3    0    0 -0.33201807194E-01 -0.11605286117E+00  0.39776342894E-01  0.88913035267E+00  0.88000000000E+00 0.  1.
        -11    1    4    4    0    0  0.28564445173E-03  0.41252138526E-01 -0.16763645108E-01  0.44532027172E-01  0.51100000000E-03 0.  1.
         11    1    4    4    0    0  0.25989117407E-01  0.67275687763E-01 -0.45699111696E-01  0.85382213127E-01  0.51100000000E-03 0. -1.
</event>
<event>
 8    1  0.1120016E+005  0.1043930E+01  0.7957747E-01            NaN
         13   -1    0    0    0    0  0.00000000000E+00  0.00000000000E+00  0.74505805969E-08  0.10566000000E+00  0.10566000000E+00 0. -1.
     999900   -1    0    0    0    0 -0.00000000000E+00 -0.00000000000E+00 -0.74505805969E-08  0.93827000000E+00  0.93827000000E+00 0. -1.
     999902    2    1    2    0    0 -0.10994496787E-01  0.13803582381E-01  0.16133084602E-01  0.10200198711E+01  0.10197395957E+01 0.  0.
     999903    2    3    3    0    0  0.49278333165E-01 -0.11669709707E+00 -0.21450116288E-02  0.12816936221E+00  0.19396333463E-01 0.  0.
         14    1    1    2    0    0  0.10994496787E-01 -0.13803582381E-01 -0.16133084602E-01  0.23910128919E-01  0.00000000000E+00 0.  1.
     999901    1    3    3    0    0 -0.60272829952E-01  0.13050067945E+00  0.18278096231E-01  0.89185050887E+00  0.88000000000E+00 0.  1.
        -11    1    4    4    0    0  0.15683821275E-02 -0.65924829693E-03 -0.20400337511E-02  0.27050488943E-02  0.51100000000E-03 0.  1.
         11    1    4    4    0    0  0.47709951037E-01 -0.11603784877E+00 -0.10497787768E-03  0.12546431332E+00  0.51100000000E-03 0. -1.
</event>
<event>
 8    1  0.1120016E+005  0.1043930E+01  0.7957747E-01            NaN
         13   -1    0    0    0    0  0.00000000000E+00  0.00000000000E+00  0.74505805969E-08  0.10566000000E+00  0.10566000000E+00 0.  1.
     999900   -1    0    0    0    0 -0.00000000000E+00 -0.00000000000E+00 -0.74505805969E-08  0.93827000000E+00  0.93827000000E+00 0.  1.
     999902    2    1    2    0    0 -0.67313532281E-02  0.21463705516E-01 -0.96415805233E-02  0.10194563030E+01  0.10191624953E+01 0.  0.
     999903    2    3    3    0    0  0.11963384294E+00  0.38868300236E-01  0.21492262871E-01  0.12971454330E+00  0.23258207996E-01 0.  0.
         14    1    1    2    0    0  0.67313532281E-02 -0.21463705516E-01  0.96415805233E-02  0.24473697019E-01  0.00000000000E+00 0.  1.
     999901    1    3    3    0    0 -0.12636519617E+00 -0.17404594720E-01 -0.31133843395E-01  0.88974175968E+00  0.88000000000E+00 0. -1.
        -11    1    4    4    0    0  0.10195477455E+00  0.24496143072E-01  0.20882651230E-01  0.10691671208E+00  0.51100000000E-03 0.  1.
         11    1    4    4    0    0  0.17679068390E-01  0.14372157165E-01  0.60961164154E-03  0.22797831214E-01  0.51100000000E-03 0. -1.
</event>
<event>
 8    1  0.1120016E+005  0.1043930E+01  0.7957747E-01            NaN
         13   -1    0    0    0    0  0.00000000000E+00  0.00000000000E+00  0.74505805969E-08  0.10566000000E+00  0.10566000000E+00 0.  1.
     999900   -1    0    0    0    0 -0.00000000000E+00 -0.00000000000E+00 -0.74505805969E-08  0.93827000000E+00  0.93827000000E+00 0.  1.
     999902    2    1    2    0    0  0.20368132783E-01  0.46160058928E-02  0.10561723499E-01  0.10205266168E+01  0.10202582306E+01 0.  0.
     999903    2    3    3    0    0 -0.71464326578E-01  0.10646693079E+00  0.42435302365E-02  0.12988261883E+00  0.20226957250E-01 0.  0.
         14    1    1    2    0    0 -0.20368132783E-01 -0.46160058928E-02 -0.10561723499E-01  0.23403383233E-01  0.00000000000E+00 0. -1.
     999901    1    3    3    0    0  0.91832459362E-01 -0.10185092490E+00  0.63181932625E-02  0.89064399794E+00  0.88000000000E+00 0.  1.
        -11    1    4    4    0    0 -0.17553492058E-01  0.31724896895E-01  0.97870453243E-02  0.37558508271E-01  0.51100000000E-03 0.  1.
         11    1    4    4    0    0 -0.53910834521E-01  0.74742033898E-01 -0.55435150878E-02  0.92324110559E-01  0.51100000000E-03 0. -1.
</event>
<event>
 8    1  0.1120016E+005  0.1043930E+01  0.7957747E-01            NaN
         13   -1    0    0    0    0  0.00000000000E+00  0.00000000000E+00  0.74505805969E-08  0.10566000000E+00  0.10566000000E+00 0.  1.
     999900   -1    0    0    0    0 -0.00000000000E+00 -0.00000000000E+00 -0.74505805969E-08  0.93827000000E+00  0.93827000000E+00 0.  1.
     999902    2    1    2    0    0  0.13873127080E-01 -0.84753719212E-02 -0.16909511917E-01  0.10204730783E+01  0.10202034485E+01 0.  0.
     999903    2    3    3    0    0  0.75068060871E-01 -0.84813828102E-01 -0.67774402370E-01  0.13359111492E+00  0.20606241034E-01 0.  0.
         14    1    1    2    0    0 -0.13873127080E-01  0.84753719212E-02  0.16909511917E-01  0.23456921739E-01  0.00000000000E+00 0.  1.
     999901    1    3    3    0    0 -0.61194933791E-01  0.76338456181E-01  0.50864890453E-01  0.88688196334E+00  0.88000000000E+00 0. -1.
        -11    1    4    4    0    0  0.69997208176E-01 -0.80665752891E-01 -0.68647899384E-01  0.12696207329E+00  0.51100000000E-03 0. -1.
         11    1    4    4    0    0  0.50708526943E-02 -0.41480752108E-02  0.87349701420E-03  0.66290416378E-02  0.51100000000E-03 0.  1.
</event>
<event>
 8    1  0.1120016E+005  0.1043930E+01  0.7957747E-01            NaN
         13   -1    0    0    0    0  0.00000000000E+00  0.00000000000E+00  0.74505805969E-08  0.10566000000E+00  0.10566000000E+00 0. -1.
     999900   -1    0    0    0    0 -0.00000000000E+00 -0.00000000000E+00 -0.74505805969E-08  0.93827000000E+00  0.93827000000E+00 0.  1.
     999902    2    1    2    0    0 -0.68958382790E-02 -0.38373601291E-03 -0.22334018593E-01  0.10205524846E+01  0.10202846983E+01 0.  0.
     999903    2    3    3    0    0  0.21230916770E-01 -0.30910028259E-01  0.12088452433E+00  0.12800863701E+00  0.19156232748E-01 0.  0.
         14    1    1    2    0    0  0.68958382790E-02  0.38373601291E-03  0.22334018593E-01  0.23377515382E-01  0.00000000000E+00 0. -1.
     999901    1    3    3    0    0 -0.28126755049E-01  0.30526292246E-01 -0.14321854292E+00  0.89254384761E+00  0.88000000000E+00 0.  1.
        -11    1    4    4    0    0  0.21565056978E-01 -0.28745605261E-01  0.88119603476E-01  0.95166628301E-01  0.51100000000E-03 0. -1.
         11    1    4    4    0    0 -0.33414020847E-03 -0.21644229976E-02  0.32764920852E-01  0.32842008709E-01  0.51100000000E-03 0.  1.
</event>
<event>
 8    1  0.1120016E+005  0.1043930E+01  0.7957747E-01            NaN
         13   -1    0    0    0    0  0.00000000000E+00  0.00000000000E+00  0.74505805969E-08  0.10566000000E+00  0.10566000000E+00 0. -1.
     999900   -1    0    0    0    0 -0.00000000000E+00 -0.00000000000E+00 -0.74505805969E-08  0.93827000000E+00  0.93827000000E+00 0. -1.
     999902    2    1    2    0    0 -0.18199716395E-01  0.10563391795E-01  0.97107212628E-02  0.10207543009E+01  0.10204911708E+01 0.  0.
     999903    2    3    3    0    0 -0.23778711217E-01 -0.78454316872E-01  0.10092168529E+00  0.13155538184E+00  0.20028104907E-01 0.  0.
         14    1    1    2    0    0  0.18199716395E-01 -0.10563391795E-01 -0.97107212628E-02  0.23175699137E-01  0.00000000000E+00 0.  1.
     999901    1    3    3    0    0  0.55789948221E-02  0.89017708667E-01 -0.91210964023E-01  0.88919891903E+00  0.88000000000E+00 0.  1.
        -11    1    4    4    0    0 -0.15683120935E-01 -0.57468210405E-01  0.85775493333E-01  0.10443300181E+00  0.51100000000E-03 0. -1.
         11    1    4    4    0    0 -0.80955902817E-02 -0.20986106467E-01  0.15146191954E-01  0.27122380027E-01  0.51100000000E-03 0.  1.
</event>
<event>
 8    1  0.1120016E+005  0.1043930E+01  0.7957747E-01            NaN
         13   -1    0    0    0    0  0.00000000000E+00  0.00000000000E+00  0.74505805969E-08  0.10566000000E+00  0.10566000000E+00 0. -1.
     999900   -1    0    0    0    0 -0.00000000000E+00 -0.00000000000E+00 -0.74505805969E-08  0.93827000000E+00  0.93827000000E+00 0.  1.
     999902    2    1    2    0    0 -0.12445768772E-01 -0.19748528757E-01  0.63809589037E-04  0.10205867864E+01  0.10203197945E+01 0.  0.
     999903    2    3    3    0    0  0.65576696497E-01 -0.93986722816E-01 -0.62179335512E-01  0.13183877734E+00  0.19529113030E-01 0.  0.
         14    1    1    2    0    0  0.12445768772E-01  0.19748528757E-01 -0.63809589037E-04  0.23343213577E-01  0.00000000000E+00 0. -1.
     999901    1    3    3    0    0 -0.78022465269E-01  0.74238194059E-01  0.62243145101E-01  0.88874800909E+00  0.88000000000E+00 0.  1.
        -11    1    4    4    0    0  0.10237297518E-01 -0.29655659598E-01 -0.17816710209E-01  0.36082636965E-01  0.51100000000E-03 0. -1.
         11    1    4    4    0    0  0.55339398979E-01 -0.64331063218E-01 -0.44362625303E-01  0.95756140372E-01  0.51100000000E-03 0.  1.
</event>
<event>
 8    1  0.1120016E+005  0.1043930E+01  0.7957747E-01            NaN
         13   -1    0    0    0    0  0.00000000000E+00  0.00000000000E+00  0.74505805969E-08  0.10566000000E+00  0.10566000000E+00 0.  1.
     999900   -1    0    0    0    0 -0.00000000000E+00 -0.00000000000E+00 -0.74505805969E-08  0.93827000000E+00  0.93827000000E+00 0. -1.
     999902    2    1    2    0    0 -0.60745559406E-02  0.16750259115E-01  0.15708451264E-01  0.10201765402E+01  0.10198999688E+01 0.  0.
     999903    2    3    3    0    0  0.19032370884E-01 -0.78615662746E-01 -0.96781522414E-01  0.12755175287E+00  0.18977170703E-01 0.  0.
         14    1    1    2    0    0  0.60745559406E-02 -0.16750259115E-01 -0.15708451264E-01  0.23753459778E-01  0.00000000000E+00 0.  1.
     999901    1    3    3    0    0 -0.25106926824E-01  0.95365921860E-01  0.11248997368E+00  0.89262478736E+00  0.88000000000E+00 0.  1.
        -11    1    4    4    0    0  0.62125053836E-02 -0.38912045582E-01 -0.33343025316E-01  0.51621322849E-01  0.51100000000E-03 0. -1.
         11    1    4    4    0    0  0.12819865500E-01 -0.39703617163E-01 -0.63438497098E-01  0.75930430016E-01  0.51100000000E-03 0.  1.
</event>
<event>
 8    1  0.1120016E+005  0.1043930E+01  0.7957747E-01            NaN
         13   -1    0    0    0    0  0.00000000000E+00  0.00000000000E+00  0.74505805969E-08  0.10566000000E+00  0.10566000000E+00 0. -1.
     999900   -1    0    0    0    0 -0.00000000000E+00 -0.00000000000E+00 -0.74505805969E-08  0.93827000000E+00  0.93827000000E+00 0. -1.
     999902    2    1    2    0    0 -0.23744076270E-01  0.42052060502E-02 -0.48539007310E-02  0.10193327386E+01  0.10190359202E+01 0.  0.
     999903    2    3    3    0    0 -0.91899261558E-01 -0.83567593169E-01 -0.37732967126E-01  0.13173472905E+00  0.22388504327E-01 0.  0.
         14    1    1    2    0    0  0.23744076270E-01 -0.42052060502E-02  0.48539007310E-02  0.24597261395E-01  0.00000000000E+00 0. -1.
     999901    1    3    3    0    0  0.68155185288E-01  0.87772799219E-01  0.32879066395E-01  0.88759800956E+00  0.88000000000E+00 0.  1.
        -11    1    4    4    0    0 -0.61212742647E-01 -0.40905519000E-01 -0.20454638899E-01  0.76412791603E-01  0.51100000000E-03 0.  1.
         11    1    4    4    0    0 -0.30686518911E-01 -0.42662074169E-01 -0.17278328227E-01  0.55321937444E-01  0.51100000000E-03 0. -1.
</event>
<event>
 8    1  0.1120016E+005  0.1043930E+01  0.7957747E-01            NaN
         13   -1    0    0    0    0  0.00000000000E+00  0.00000000000E+00  0.74505805969E-08  0.10566000000E+00  0.10566000000E+00 0. -1.
     999900   -1    0    0    0    0 -0.00000000000E+00 -0.00000000000E+00 -0.74505805969E-08  0.93827000000E+00  0.93827000000E+00 0.  1.
     999902    2    1    2    0    0 -0.23691257459E-01 -0.26536867334E-02 -0.34856303731E-02  0.10198371099E+01  0.10195524819E+01 0.  0.
     999903    2    3    3    0    0  0.63940641282E-01  0.95218582270E-01 -0.54680728796E-01  0.12861364253E+00  0.19912381256E-01 0.  0.
         14    1    1    2    0    0  0.23691257459E-01  0.26536867334E-02  0.34856303731E-02  0.24092890079E-01  0.00000000000E+00 0. -1.
     999901    1    3    3    0    0 -0.87631898741E-01 -0.97872269004E-01  0.51195098423E-01  0.89122346739E+00  0.88000000000E+00 0. -1.
        -11    1    4    4    0    0  0.20276740960E-01  0.17403768916E-01 -0.79273865187E-02  0.27877266266E-01  0.51100000000E-03 0. -1.
         11    1    4    4    0    0  0.43663900322E-01  0.77814813355E-01 -0.46753342277E-01  0.10073637627E+00  0.51100000000E-03 0.  1.
</event>
<event>
 8    1  0.1120016E+005  0.1043930E+01  0.7957747E-01            NaN
         13   -1    0    0    0    0  0.00000000000E+00  0.00000000000E+00  0.74505805969E-08  0.10566000000E+00  0.10566000000E+00 0. -1.
     999900   -1    0    0    0    0 -0.00000000000E+00 -0.00000000000E+00 -0.74505805969E-08  0.93827000000E+00  0.93827000000E+00 0. -1.
     999902    2    1    2    0    0 -0.26691157465E-02 -0.18340307146E-01  0.13224885123E-01  0.10211618505E+01  0.10209079960E+01 0.  0.
     999903    2    3    3    0    0  0.12450358521E+00 -0.35830432644E-01 -0.11075939003E-01  0.13151622981E+00  0.19720031609E-01 0.  0.
         14    1    1    2    0    0  0.26691157465E-02  0.18340307146E-01 -0.13224885123E-01  0.22768149499E-01  0.00000000000E+00 0.  1.
     999901    1    3    3    0    0 -0.12717270095E+00  0.17490125497E-01  0.24300824126E-01  0.88964562069E+00  0.88000000000E+00 0.  1.
        -11    1    4    4    0    0  0.38990636161E-01 -0.15512380907E-01 -0.11887441923E-01  0.43617382614E-01  0.51100000000E-03 0. -1.
         11    1    4    4    0    0  0.85512949046E-01 -0.20318051736E-01  0.81150291990E-03  0.87898847198E-01  0.51100000000E-03 0.  1.
</event>
<event>
 8    1  0.1120016E+005  0.1043930E+01  0.7957747E-01            NaN
         13   -1    0    0    0    0  0.00000000000E+00  0.00000000000E+00  0.74505805969E-08  0.10566000000E+00  0.10566000000E+00 0.  1.
     999900   -1    0    0    0    0 -0.00000000000E+00 -0.00000000000E+00 -0.74505805969E-08  0.93827000000E+00  0.93827000000E+00 0.  1.
     999902    2    1    2    0    0  0.52158318585E-02 -0.61206432045E-02  0.21615129168E-01  0.10208674550E+01  0.10206069173E+01 0.  0.
     999903    2    3    3    0    0 -0.82232398987E-01 -0.91884914116E-01  0.43212685606E-01  0.13212162082E+00  0.19590344689E-01 0.  0.
         14    1    1    2    0    0 -0.52158318585E-02  0.61206432045E-02 -0.21615129168E-01  0.23062545050E-01  0.00000000000E+00 0. -1.
     999901    1    3    3    0    0  0.87448230845E-01  0.85764270912E-01 -0.21597556438E-01  0.88874583413E+00  0.88000000000E+00 0. -1.
        -11    1    4    4    0    0 -0.29305042107E-01 -0.20740566342E-01  0.85208264518E-02  0.36902875084E-01  0.51100000000E-03 0.  1.
         11    1    4    4    0    0 -0.52927356880E-01 -0.71144347774E-01  0.34691859155E-01  0.95218745734E-01  0.51100000000E-03 0. -1.
</event>
<event>
 8    1  0.1120016E+005  0.1043930E+01  0.7957747E-01            NaN
         13   -1    0    0    0    0  0.00000000000E+00  0.00000000000E+00  0.74505805969E-08  0.10566000000E+00  0.10566000000E+00 0.  1.
     999900   -1    0    0    0    0 -0.00000000000E+00 -0.00000000000E+00 -0.74505805969E-08  0.93827000000E+00  0.93827000000E+00 0.  1.
     999902    2    1    2    0    0 -0.69608442979E-02 -0.12475173310E-01 -0.18920249105E-01  0.10202222138E+01  0.10199467174E+01 0.  0.
     999903    2    3    3    0    0 -0.91151882394E-01  0.86725412416E-01  0.22725461697E-01  0.12968122518E+00  0.21698173472E-01 0.  0.
         14    1    1    2    0    0  0.69608442979E-02  0.12475173310E-01  0.18920249105E-01  0.23707786245E-01  0.00000000000E+00 0. -1.
     999901    1    3    3    0    0  0.84191038096E-01 -0.99200585726E-01 -0.41645710802E-01  0.89054098858E+00  0.88000000000E+00 0.  1.
        -11    1    4    4    0    0 -0.47671296791E-01  0.58910480522E-01  0.17658535238E-01  0.77814408954E-01  0.51100000000E-03 0. -1.
         11    1    4    4    0    0 -0.43480585603E-01  0.27814931894E-01  0.50669264588E-02  0.51866816226E-01  0.51100000000E-03 0.  1.
</event>
<event>
 8    1  0.1120016E+005  0.1043930E+01  0.7957747E-01            NaN
         13   -1    0    0    0    0  0.00000000000E+00  0.00000000000E+00  0.74505805969E-08  0.10566000000E+00  0.10566000000E+00 0. -1.
     999900   -1    0    0    0    0 -0.00000000000E+00 -0.00000000000E+00 -0.74505805969E-08  0.93827000000E+00  0.93827000000E+00 0. -1.
     999902    2    1    2    0    0 -0.16932846840E-01  0.12220915894E-01 -0.11556035909E-01  0.10200634114E+01  0.10197841679E+01 0.  0.
     999903    2    3    3    0    0 -0.11242975844E-01  0.87483091008E-01 -0.97076471136E-01  0.13270186471E+00  0.20155593042E-01 0.  0.
         14    1    1    2    0    0  0.16932846840E-01 -0.12220915894E-01  0.11556035909E-01  0.23866588640E-01  0.00000000000E+00 0. -1.
     999901    1    3    3    0    0 -0.56898709955E-02 -0.75262175114E-01  0.85520435227E-01  0.88736154665E+00  0.88000000000E+00 0.  1.
        -11    1    4    4    0    0 -0.68704315738E-02  0.13398863218E-01 -0.25358929631E-01  0.29496928630E-01  0.51100000000E-03 0.  1.
         11    1    4    4    0    0 -0.43725442702E-02  0.74084227790E-01 -0.71717541505E-01  0.10320493608E+00  0.51100000000E-03 0. -1.
</event>
<event>
 8    1  0.1120016E+005  0.1043930E+01  0.7957747E-01            NaN
         13   -1    0    0    0    0  0.00000000000E+00  0.00000000000E+00  0.74505805969E-08  0.10566000000E+00  0.10566000000E+00 0.  1.
     999900   -1    0    0    0    0 -0.00000000000E+00 -0.00000000000E+00 -0.74505805969E-08  0.93827000000E+00  0.93827000000E+00 0. -1.
     999902    2    1    2    0    0  0.17125874226E-01 -0.37159807102E-02  0.15334138659E-01  0.10206439551E+01  0.10203782843E+01 0.  0.
     999903    2    3    3    0    0 -0.20010018524E-01  0.36585531695E-01  0.12398917054E+00  0.13226948312E+00  0.19570380230E-01 0.  0.
         14    1    1    2    0    0 -0.17125874226E-01  0.37159807102E-02 -0.15334138659E-01  0.23286044942E-01  0.00000000000E+00 0. -1.
     999901    1    3    3    0    0  0.37135892750E-01 -0.40301512405E-01 -0.10865503189E+00  0.88837447194E+00  0.88000000000E+00 0. -1.
        -11    1    4    4    0    0 -0.20429363494E-02  0.39005099556E-02  0.41529847878E-01  0.41765738980E-01  0.51100000000E-03 0.  1.
         11    1    4    4    0    0 -0.17967082175E-01  0.32685021740E-01  0.82459322667E-01  0.90503744142E-01  0.51100000000E-03 0. -1.
</event>
<event>
 8    1  0.1120016E+005  0.1043930E+01  0.7957747E-01            NaN
         13   -1    0    0    0    0  0.00000000000E+00  0.00000000000E+00  0.74505805969E-08  0.10566000000E+00  0.10566000000E+00 0.  1.
     999900   -1    0    0    0    0 -0.00000000000E+00 -0.00000000000E+00 -0.74505805969E-08  0.93827000000E+00  0.93827000000E+00 0.  1.
     999902    2    1    2    0    0 -0.55096690582E-02  0.17799474215E-01  0.81555871987E-02  0.10235905964E+01  0.10233884980E+01 0.  0.
     999903    2    3    3    0    0  0.74118835641E-01  0.39498343665E-01  0.10359564998E+00  0.13459096465E+00  0.18136927055E-01 0.  0.
         14    1    1    2    0    0  0.55096690582E-02 -0.17799474215E-01 -0.81555871987E-02  0.20339403580E-01  0.00000000000E+00 0.  1.
     999901    1    3    3    0    0 -0.79628504700E-01 -0.21698869451E-01 -0.95440062779E-01  0.88899963177E+00  0.88000000000E+00 0.  1.
        -11    1    4    4    0    0  0.45037231291E-01  0.33689620560E-01  0.66583339088E-01  0.87160454914E-01  0.51100000000E-03 0.  1.
         11    1    4    4    0    0  0.29081604351E-01  0.58087231053E-02  0.37012310890E-01  0.47430509740E-01  0.51100000000E-03 0. -1.
</event>
<event>
 8    1  0.1120016E+005  0.1043930E+01  0.7957747E-01            NaN
         13   -1    0    0    0    0  0.00000000000E+00  0.00000000000E+00  0.74505805969E-08  0.10566000000E+00  0.10566000000E+00 0.  1.
     999900   -1    0    0    0    0 -0.00000000000E+00 -0.00000000000E+00 -0.74505805969E-08  0.93827000000E+00  0.93827000000E+00 0.  1.
     999902    2    1    2    0    0  0.15807920896E-01 -0.11178084816E-01 -0.13497735606E-01  0.10203285422E+01  0.10200555403E+01 0.  0.
     999903    2    3    3    0    0  0.86114234696E-01 -0.78546953480E-01  0.58582481876E-01  0.13202842402E+00  0.20354661591E-01 0.  0.
         14    1    1    2    0    0 -0.15807920896E-01  0.11178084816E-01  0.13497735606E-01  0.23601457788E-01  0.00000000000E+00 0.  1.
     999901    1    3    3    0    0 -0.70306313800E-01  0.67368868664E-01 -0.72080217482E-01  0.88830011819E+00  0.88000000000E+00 0.  1.
        -11    1    4    4    0    0  0.48134852601E-01 -0.56776510760E-01  0.39544669621E-01  0.84288660123E-01  0.51100000000E-03 0.  1.
         11    1    4    4    0    0  0.37979382095E-01 -0.21770442721E-01  0.19037812255E-01  0.47739763898E-01  0.51100000000E-03 0. -1.
</event>
<event>
 8    1  0.1120016E+005  0.1043930E+01  0.7957747E-01            NaN
         13   -1    0    0    0    0  0.00000000000E+00  0.00000000000E+00  0.74505805969E-08  0.10566000000E+00  0.10566000000E+00 0.  1.
     999900   -1    0    0    0    0 -0.00000000000E+00 -0.00000000000E+00 -0.74505805969E-08  0.93827000000E+00  0.93827000000E+00 0.  1.
     999902    2    1    2    0    0 -0.44621575885E-04  0.18107561076E-01  0.35613169630E-02  0.10254754955E+01  0.10253094280E+01 0.  0.
     999903    2    3    3    0    0 -0.18693066547E-01 -0.12464708324E+00 -0.38213427016E-01  0.13279874422E+00  0.16997481178E-01 0.  0.
         14    1    1    2    0    0  0.44621575885E-04 -0.18107561076E-01 -0.35613169630E-02  0.18454504538E-01  0.00000000000E+00 0.  1.
     999901    1    3    3    0    0  0.18648444971E-01  0.14275464431E+00  0.41774743979E-01  0.89267675124E+00  0.88000000000E+00 0. -1.
        -11    1    4    4    0    0 -0.30532169327E-02 -0.74996442070E-01 -0.20498059838E-01  0.77808868614E-01  0.51100000000E-03 0. -1.
         11    1    4    4    0    0 -0.15639849614E-01 -0.49650641165E-01 -0.17715367179E-01  0.54989875607E-01  0.51100000000E-03 0.  1.
</event>
<event>
 8    1  0.1120016E+005  0.1043930E+01  0.7957747E-01            NaN
         13   -1    0    0    0    0  0.00000000000E+00  0.00000000000E+00  0.74505805969E-08  0.10566000000E+00  0.10566000000E+00 0.  1.
     999900   -1    0    0    0    0 -0.00000000000E+00 -0.00000000000E+00 -0.74505805969E-08  0.93827000000E+00  0.93827000000E+00 0. -1.
     999902    2    1    2    0    0 -0.54017238178E-03  0.10148041104E-02 -0.24283516340E-01  0.10196192867E+01  0.10193294262E+01 0.  0.
     999903    2    3    3    0    0 -0.42841237073E-01  0.10158804465E+00 -0.69139567278E-01  0.13174743670E+00  0.20533019823E-01 0.  0.
         14    1    1    2    0    0  0.54017238178E-03 -0.10148041104E-02  0.24283516340E-01  0.24310713265E-01  0.00000000000E+00 0.  1.
     999901    1    3    3    0    0  0.42301064691E-01 -0.10057324054E+00  0.44856050937E-01  0.88787185004E+00  0.88000000000E+00 0.  1.
        -11    1    4    4    0    0 -0.20299961125E-01  0.53008290754E-01 -0.23708708675E-01  0.61516918798E-01  0.51100000000E-03 0.  1.
         11    1    4    4    0    0 -0.22541275948E-01  0.48579753895E-01 -0.45430858603E-01  0.70230517898E-01  0.51100000000E-03 0. -1.
</event>
<event>
 8    1  0.1120016E+005  0.1043930E+01  0.7957747E-01            NaN
         13   -1    0    0    0    0  0.00000000000E+00  0.00000000000E+00  0.74505805969E-08  0.10566000000E+00  0.10566000000E+00 0. -1.
     999900   -1    0    0    0    0 -0.00000000000E+00 -0.00000000000E+00 -0.74505805969E-08  0.93827000000E+00  0.93827000000E+00 0.  1.
     999902    2    1    2    0    0  0.24370425407E-01  0.20557606503E-01 -0.10377502174E-01  0.10104005298E+01  0.10098440500E+01 0.  0.
     999903    2    3    3    0    0  0.10998565911E+00 -0.59500240624E-02 -0.55569300415E-01  0.12469464107E+00  0.18126179059E-01 0.  0.
         14    1    1    2    0    0 -0.24370425407E-01 -0.20557606503E-01  0.10377502174E-01  0.33529470187E-01  0.00000000000E+00 0. -1.
     999901    1    3    3    0    0 -0.85615233704E-01  0.26507630565E-01  0.45191798241E-01  0.88570588874E+00  0.88000000000E+00 0.  1.
        -11    1    4    4    0    0  0.81978524613E-01 -0.12317105739E-01 -0.41544932704E-01  0.92727731267E-01  0.51100000000E-03 0. -1.
         11    1    4    4    0    0  0.28007134498E-01  0.63670816762E-02 -0.14024367711E-01  0.31966909806E-01  0.51100000000E-03 0.  1.
</event>
<event>
 8    1  0.1120016E+005  0.1043930E+01  0.7957747E-01            NaN
         13   -1    0    0    0    0  0.00000000000E+00  0.00000000000E+00  0.74505805969E-08  0.10566000000E+00  0.10566000000E+00 0.  1.
     999900   -1    0    0    0    0 -0.00000000000E+00 -0.00000000000E+00 -0.74505805969E-08  0.93827000000E+00  0.93827000000E+00 0.  1.
     999902    2    1    2    0    0  0.97102993871E-02 -0.72071211933E-02 -0.19547513594E-01  0.10209444002E+01  0.10206856179E+01 0.  0.
     999903    2    3    3    0    0  0.41302257153E-01 -0.53578612967E-04 -0.12587984614E+00  0.13395184674E+00  0.19785910715E-01 0.  0.
         14    1    1    2    0    0 -0.97102993871E-02  0.72071211933E-02  0.19547513594E-01  0.22985599792E-01  0.00000000000E+00 0. -1.
     999901    1    3    3    0    0 -0.31591957766E-01 -0.71535425803E-02  0.10633233255E+00  0.88699255347E+00  0.88000000000E+00 0. -1.
        -11    1    4    4    0    0  0.32474287360E-01 -0.64042342508E-02 -0.10855513185E+00  0.11349040192E+00  0.51100000000E-03 0.  1.
         11    1    4    4    0    0  0.88279697934E-02  0.63506556379E-02 -0.17324714290E-01  0.20461444816E-01  0.51100000000E-03 0. -1.
</event>
<event>
 8    1  0.1120016E+005  0.1043930E+01  0.7957747E-01            NaN
         13   -1    0    0    0    0  0.00000000000E+00  0.00000000000E+00  0.74505805969E-08  0.10566000000E+00  0.10566000000E+00 0. -1.
     999900   -1    0    0    0    0 -0.00000000000E+00 -0.00000000000E+00 -0.74505805969E-08  0.93827000000E+00  0.93827000000E+00 0.  1.
     999902    2    1    2    0    0  0.57889851051E-02 -0.15190399385E-01  0.19093328367E-01  0.10188538007E+01  0.10185451642E+01 0.  0.
     999903    2    3    3    0    0 -0.69409672357E-01 -0.27937608580E-01 -0.10113862763E+00  0.12740943753E+00  0.20147709136E-01 0.  0.
         14    1    1    2    0    0 -0.57889851051E-02  0.15190399385E-01 -0.19093328367E-01  0.25076199277E-01  0.00000000000E+00 0.  1.
     999901    1    3    3    0    0  0.75198657462E-01  0.12747209196E-01  0.12023195600E+00  0.89144436319E+00  0.88000000000E+00 0. -1.
        -11    1    4    4    0    0 -0.51762457959E-01 -0.24631106292E-01 -0.62552485748E-01  0.84847616615E-01  0.51100000000E-03 0.  1.
         11    1    4    4    0    0 -0.17647214398E-01 -0.33065022889E-02 -0.38586141880E-01  0.42561820915E-01  0.51100000000E-03 0. -1.
</event>
<event>
 8    1  0.1120016E+005  0.1043930E+01  0.7957747E-01            NaN
         13   -1    0    0    0    0  0.00000000000E+00  0.00000000000E+00  0.74505805969E-08  0.10566000000E+00  0.10566000000E+00 0. -1.
     999900   -1    0    0    0    0 -0.00000000000E+00 -0.00000000000E+00 -0.74505805969E-08  0.93827000000E+00  0.93827000000E+00 0.  1.
     999902    2    1    2    0    0 -0.93762317209E-02 -0.20189894672E-01 -0.61674134469E-02  0.10208305940E+01  0.10205692133E+01 0.  0.
     999903    2    3    3    0    0  0.12138080477E-01  0.12483671271E+00 -0.20382528800E-01  0.12858754866E+00  0.19691936216E-01 0.  0.
         14    1    1    2    0    0  0.93762317209E-02  0.20189894672E-01  0.61674134469E-02  0.23099405983E-01  0.00000000000E+00 0. -1.
     999901    1    3    3    0    0 -0.21514312197E-01 -0.14502660739E+00  0.14215115353E-01  0.89224304535E+00  0.88000000000E+00 0. -1.
        -11    1    4    4    0    0  0.14293986536E-01  0.90879145612E-01 -0.21736658571E-01  0.94530844729E-01  0.51100000000E-03 0.  1.
         11    1    4    4    0    0 -0.21559060598E-02  0.33957567101E-01  0.13541297714E-02  0.34056703933E-01  0.51100000000E-03 0. -1.
</event>
<event>
 8    1  0.1120016E+005  0.1043930E+01  0.7957747E-01            NaN
         13   -1    0    0    0    0  0.00000000000E+00  0.00000000000E+00  0.74505805969E-08  0.10566000000E+00  0.10566000000E+00 0. -1.
     999900   -1    0    0    0    0 -0.00000000000E+00 -0.00000000000E+00 -0.74505805969E-08  0.93827000000E+00  0.93827000000E+00 0. -1.
     999902    2    1    2    0    0 -0.36859659995E-02 -0.13104529139E-01 -0.20725857174E-01  0.10191333029E+01  0.10188315921E+01 0.  0.
     999903    2    3    3    0    0 -0.35018645026E-01 -0.12403881480E+00  0.12722979208E-01  0.13098524256E+00  0.19578725498E-01 0.  0.
         14    1    1    2    0    0  0.36859659995E-02  0.13104529139E-01  0.20725857174E-01  0.24796697057E-01  0.00000000000E+00 0. -1.
     999901    1    3    3    0    0  0.31332679026E-01  0.11093428566E+00 -0.33448836382E-01  0.88814806038E+00  0.88000000000E+00 0. -1.
        -11    1    4    4    0    0 -0.13313793678E-01 -0.42748166354E-01 -0.48227495373E-02  0.45035351257E-01  0.51100000000E-03 0.  1.
         11    1    4    4    0    0 -0.21704851348E-01 -0.81290648445E-01  0.17545728745E-01  0.85949891302E-01  0.51100000000E-03 0. -1.
</event>
<event>
 8    1  0.1120016E+005  0.1043930E+01  0.7957747E-01            NaN
         13   -1    0    0    0    0  0.00000000000E+00  0.00000000000E+00  0.74505805969E-08  0.10566000000E+00  0.10566000000E+00 0. -1.
     999900   -1    0    0    0    0 -0.00000000000E+00 -0.00000000000E+00 -0.74505805969E-08  0.93827000000E+00  0.93827000000E+00 0. -1.
     999902    2    1    2    0    0  0.11085462647E-01 -0.26343577030E-01  0.51495864358E-02  0.10148888262E+01  0.10144732327E+01 0.  0.
     999903    2    3    3    0    0  0.11468658856E+00 -0.62608431828E-02  0.51446677558E-01  0.12737548542E+00  0.19635220914E-01 0.  0.
         14    1    1    2    0    0 -0.11085462647E-01  0.26343577030E-01 -0.51495864358E-02  0.29041173759E-01  0.00000000000E+00 0.  1.
     999901    1    3    3    0    0 -0.10360112592E+00 -0.20082733847E-01 -0.46297091122E-01  0.88751334082E+00  0.88000000000E+00 0.  1.
        -11    1    4    4    0    0  0.17580871834E-01  0.22604885425E-02  0.13720439158E-02  0.17785963241E-01  0.51100000000E-03 0.  1.
         11    1    4    4    0    0  0.97105716730E-01 -0.85213317253E-02  0.50074633642E-01  0.10958952218E+00  0.51100000000E-03 0. -1.
</event>
<event>
 8    1  0.1120016E+005  0.1043930E+01  0.7957747E-01            NaN
         13   -1    0    0    0    0  0.00000000000E+00  0.00000000000E+00  0.74505805969E-08  0.10566000000E+00  0.10566000000E+00 0. -1.
     999900   -1    0    0    0    0 -0.00000000000E+00 -0.00000000000E+00 -0.74505805969E-08  0.93827000000E+00  0.93827000000E+00 0.  1.
     999902    2    1    2    0    0 -0.39316662857E-03 -0.19397042119E-01 -0.16333228052E-01  0.10185691214E+01  0.10182533481E+01 0.  0.
     999903    2    3    3    0    0  0.10442472534E+00  0.68208432519E-01  0.16855075242E-01  0.12741090140E+00  0.19812387680E-01 0.  0.
         14    1    1    2    0    0  0.39316662857E-03  0.19397042119E-01  0.16333228052E-01  0.25360878564E-01  0.00000000000E+00 0. -1.
     999901    1    3    3    0    0 -0.10481789197E+00 -0.87605474638E-01 -0.33188303293E-01  0.89115822004E+00  0.88000000000E+00 0.  1.
        -11    1    4    4    0    0  0.43939699054E-01  0.36139269092E-01  0.15361447487E-01  0.58931987183E-01  0.51100000000E-03 0.  1.
         11    1    4    4    0    0  0.60485026283E-01  0.32069163427E-01  0.14936277549E-02  0.68478914216E-01  0.51100000000E-03 0. -1.
</event>
<event>
 8    1  0.1120016E+005  0.1043930E+01  0.7957747E-01            NaN
         13   -1    0    0    0    0  0.00000000000E+00  0.00000000000E+00  0.74505805969E-08  0.10566000000E+00  0.10566000000E+00 0.  1.
     999900   -1    0    0    0    0 -0.00000000000E+00 -0.00000000000E+00 -0.74505805969E-08  0.93827000000E+00  0.93827000000E+00 0.  1.
     999902    2    1    2    0    0  0.16311908732E-01  0.16088549709E-01  0.59206414453E-02  0.10202662346E+01  0.10199917723E+01 0.  0.
     999903    2    3    3    0    0 -0.22083599171E-01 -0.44841423149E-02 -0.12605701405E+00  0.12935908329E+00  0.18319627613E-01 0.  0.
         14    1    1    2    0    0 -0.16311908732E-01 -0.16088549709E-01 -0.59206414453E-02  0.23663765409E-01  0.00000000000E+00 0. -1.
     999901    1    3    3    0    0  0.38395507903E-01  0.20572692024E-01  0.13197765549E+00  0.89090715130E+00  0.88000000000E+00 0. -1.
        -11    1    4    4    0    0 -0.41231856351E-02 -0.92539232015E-02 -0.53874309325E-01  0.54820963880E-01  0.51100000000E-03 0. -1.
         11    1    4    4    0    0 -0.17960413535E-01  0.47697808865E-02 -0.72182704720E-01  0.74538119414E-01  0.51100000000E-03 0.  1.
</event>
<event>
 8    1  0.1120016E+005  0.1043930E+01  0.7957747E-01            NaN
         13   -1    0    0    0    0  0.00000000000E+00  0.00000000000E+00  0.74505805969E-08  0.10566000000E+00  0.10566000000E+00 0.  1.
     999900   -1    0    0    0    0 -0.00000000000E+00 -0.00000000000E+00 -0.74505805969E-08  0.93827000000E+00  0.93827000000E+00 0. -1.
     999902    2    1    2    0    0  0.11052043007E-01 -0.21420513162E-01 -0.47231299174E-02  0.10193679562E+01  0.10190719975E+01 0.  0.
     999903    2    3    3    0    0 -0.94475005947E-02 -0.10387646579E+00  0.77767405026E-01  0.13143558054E+00  0.18653877214E-01 0.  0.
         14    1    1    2    0    0 -0.11052043007E-01  0.21420513162E-01  0.47231299174E-02  0.24562043786E-01  0.00000000000E+00 0.  1.
     999901    1    3    3    0    0  0.20499543601E-01  0.82455952629E-01 -0.82490534943E-01  0.88793237567E+00  0.88000000000E+00 0. -1.
        -11    1    4    4    0    0 -0.26115010533E-02 -0.86137343959E-01  0.69445041958E-01  0.11067672265E+00  0.51100000000E-03 0. -1.
         11    1    4    4    0    0 -0.68359995414E-02 -0.17739121833E-01  0.83223630680E-02  0.20758857896E-01  0.51100000000E-03 0.  1.
</event>
<event>
 8    1  0.1120016E+005  0.1043930E+01  0.7957747E-01            NaN
         13   -1    0    0    0    0  0.00000000000E+00  0.00000000000E+00  0.74505805969E-08  0.10566000000E+00  0.10566000000E+00 0. -1.
     999900   -1    0    0    0    0 -0.00000000000E+00 -0.00000000000E+00 -0.74505805969E-08  0.93827000000E+00  0.93827000000E+00 0. -1.
     999902    2    1    2    0    0 -0.24540855099E-02 -0.19935728400E-01  0.11714706880E-01  0.10206772548E+01  0.10204123521E+01 0.  0.
     999903    2    3    3    0    0 -0.72948695785E-01 -0.10893225480E+00 -0.10955888134E-01  0.13309411634E+00  0.20155990840E-01 0.  0.
         14    1    1    2    0    0  0.24540855099E-02  0.19935728400E-01 -0.11714706880E-01  0.23252745210E-01  0.00000000000E+00 0.  1.
     999901    1    3    3    0    0  0.70494610275E-01  0.88996526397E-01  0.22670595014E-01  0.88758313845E+00  0.88000000000E+00 0.  1.
        -11    1    4    4    0    0 -0.73748861111E-02 -0.45594504345E-02 -0.41946848789E-02  0.96454152657E-02  0.51100000000E-03 0.  1.
         11    1    4    4    0    0 -0.65573809674E-01 -0.10437280436E+00 -0.67612032551E-02  0.12344870107E+00  0.51100000000E-03 0. -1.
</event>
<event>
 8    1  0.1120016E+005  0.1043930E+01  0.7957747E-01            NaN
         13   -1    0    0    0    0  0.00000000000E+00  0.00000000000E+00  0.74505805969E-08  0.10566000000E+00  0.10566000000E+00 0.  1.
     999900   -1    0    0    0    0 -0.00000000000E+00 -0.00000000000E+00 -0.74505805969E-08  0.93827000000E+00  0.93827000000E+00 0.  1.
     999902    2    1    2    0    0  0.16885713151E-01  0.29970424550E-02  0.19456820307E-01  0.10179939743E+01  0.10176635271E+01 0.  0.
     999903    2    3    3    0    0  0.11599043754E+00  0.12024969027E-01  0.57281398359E-01  0.13157762261E+00  0.20811792171E-01 0.  0.
         14    1    1    2    0    0 -0.16885713151E-01 -0.29970424550E-02 -0.19456820307E-01  0.25936025690E-01  0.00000000000E+00 0. -1.
     999901    1    3    3    0    0 -0.99104724389E-01 -0.90279265715E-02 -0.37824578052E-01  0.88641635170E+00  0.88000000000E+00 0.  1.
        -11    1    4    4    0    0  0.39278056989E-01  0.14036067046E-01  0.20350998407E-01  0.46413373031E-01  0.51100000000E-03 0. -1.
         11    1    4    4    0    0  0.76712380551E-01 -0.20110980194E-02  0.36930399951E-01  0.85164249581E-01  0.51100000000E-03 0.  1.
</event>
<event>
 8    1  0.1120016E+005  0.1043930E+01  0.7957747E-01            NaN
         13   -1    0    0    0    0  0.00000000000E+00  0.00000000000E+00  0.74505805969E-08  0.10566000000E+00  0.10566000000E+00 0. -1.
     999900   -1    0    0    0    0 -0.00000000000E+00 -0.00000000000E+00 -0.74505805969E-08  0.93827000000E+00  0.93827000000E+00 0.  1.
     999902    2    1    2    0    0  0.60260289981E-02  0.22519747563E-01 -0.38673631344E-02  0.10202993302E+01  0.10200256442E+01 0.  0.
     999903    2    3    3    0    0  0.61405507569E-01  0.59631219172E-01  0.98053901928E-01  0.13191197540E+00  0.21440217108E-01 0.  0.
         14    1    1    2    0    0 -0.60260289981E-02 -0.22519747563E-01  0.38673631344E-02  0.23630669762E-01  0.00000000000E+00 0.  1.
     999901    1    3    3    0    0 -0.55379478571E-01 -0.37111471609E-01 -0.10192126506E+00  0.88838735484E+00  0.88000000000E+00 0.  1.
        -11    1    4    4    0    0  0.34561364303E-01  0.47360517133E-01  0.62424792148E-01  0.85642409362E-01  0.51100000000E-03 0.  1.
         11    1    4    4    0    0  0.26844143266E-01  0.12270702039E-01  0.35629109781E-01  0.46269566034E-01  0.51100000000E-03 0. -1.
</event>
<event>
 8    1  0.1120016E+005  0.1043930E+01  0.7957747E-01            NaN
         13   -1    0    0    0    0  0.00000000000E+00  0.00000000000E+00  0.74505805969E-08  0.10566000000E+00  0.10566000000E+00 0. -1.
     999900   -1    0    0    0    0 -0.00000000000E+00 -0.00000000000E+00 -0.74505805969E-08  0.93827000000E+00  0.93827000000E+00 0. -1.
     999902    2    1    2    0    0 -0.13939680221E-01 -0.67293222842E-02  0.16731839860E-01  0.10211362963E+01  0.10208818652E+01 0.  0.
     999903    2    3    3    0    0 -0.82326332429E-01 -0.60445740213E-01 -0.80535906039E-01  0.13151660107E+00  0.19474898574E-01 0.  0.
         14    1    1    2    0    0  0.13939680221E-01  0.67293222842E-02 -0.16731839860E-01  0.22793703696E-01  0.00000000000E+00 0. -1.
     999901    1    3    3    0    0  0.68386652208E-01  0.53716417929E-01  0.97267745899E-01  0.88961969523E+00  0.88000000000E+00 0.  1.
        -11    1    4    4    0    0 -0.10589678874E-01 -0.13639735074E-01 -0.70578602428E-02  0.18661676874E-01  0.51100000000E-03 0.  1.
         11    1    4    4    0    0 -0.71736653556E-01 -0.46806005139E-01 -0.73478045796E-01  0.11285492420E+00  0.51100000000E-03 0. -1.
</event>
<event>
 8    1  0.1120016E+005  0.1043930E+01  0.7957747E-01            NaN
         13   -1    0    0    0    0  0.00000000000E+00  0.00000000000E+00  0.74505805969E-08  0.10566000000E+00  0.10566000000E+00 0. -1.
     999900   -1    0    0    0    0 -0.00000000000E+00 -0.00000000000E+00 -0.74505805969E-08  0.93827000000E+00  0.93827000000E+00 0. -1.
     999902    2    1    2    0    0 -0.78242612954E-02 -0.20878781557E-01  0.92712354278E-02  0.10197825697E+01  0.10194966361E+01 0.  0.
     999903    2    3    3    0    0  0.96865071156E-02 -0.10077176693E+00  0.83594720675E-01  0.13287023097E+00  0.20436328518E-01 0.  0.
         14    1    1    2    0    0  0.78242612954E-02  0.20878781557E-01 -0.92712354278E-02  0.24147430308E-01  0.00000000000E+00 0.  1.
     999901    1    3    3    0    0 -0.17510768411E-01  0.79892985369E-01 -0.74323485247E-01  0.88691233872E+00  0.88000000000E+00 0.  1.
        -11    1    4    4    0    0  0.12831274061E-01 -0.32972098592E-01  0.29872972863E-01  0.46308276888E-01  0.51100000000E-03 0.  1.
         11    1    4    4    0    0 -0.31447669450E-02 -0.67799668334E-01  0.53721747811E-01  0.86561954080E-01  0.51100000000E-03 0. -1.
</event>
<event>
 8    1  0.1120016E+005  0.1043930E+01  0.7957747E-01            NaN
         13   -1    0    0    0    0  0.00000000000E+00  0.00000000000E+00  0.74505805969E-08  0.10566000000E+00  0.10566000000E+00 0. -1.
     999900   -1    0    0    0    0 -0.00000000000E+00 -0.00000000000E+00 -0.74505805969E-08  0.93827000000E+00  0.93827000000E+00 0.  1.
     999902    2    1    2    0    0  0.24411045433E-02  0.35876259450E-02 -0.24423119259E-01  0.10191243796E+01  0.10188224488E+01 0.  0.
     999903    2    3    3    0    0 -0.83236275674E-01 -0.88008886929E-01 -0.42671439247E-01  0.13004421678E+00  0.20415798410E-01 0.  0.
         14    1    1    2    0    0 -0.24411045433E-02 -0.35876259450E-02  0.24423119259E-01  0.24805620445E-01  0.00000000000E+00 0. -1.
     999901    1    3    3    0    0  0.85677380217E-01  0.91596512874E-01  0.18248319988E-01  0.88908016277E+00  0.88000000000E+00 0.  1.
        -11    1    4    4    0    0 -0.21655428054E-01 -0.16875380345E-01 -0.19669299597E-02  0.27529365420E-01  0.51100000000E-03 0. -1.
         11    1    4    4    0    0 -0.61580847620E-01 -0.71133506584E-01 -0.40704509288E-01  0.10251485136E+00  0.51100000000E-03 0.  1.
</event>
<event>
 8    1  0.1120016E+005  0.1043930E+01  0.7957747E-01            NaN
         13   -1    0    0    0    0  0.00000000000E+00  0.00000000000E+00  0.74505805969E-08  0.10566000000E+00  0.10566000000E+00 0.  1.
     999900   -1    0    0    0    0 -0.00000000000E+00 -0.00000000000E+00 -0.74505805969E-08  0.93827000000E+00  0.93827000000E+00 0. -1.
     999902    2    1    2    0    0  0.16507078463E-01 -0.13876240077E-01 -0.71635034795E-02  0.10212066759E+01  0.10209538312E+01 0.  0.
     999903    2    3    3    0    0  0.12820988834E+00  0.17055294101E-01  0.23835103074E-01  0.13306525066E+00  0.20238336603E-01 0.  0.
         14    1    1    2    0    0 -0.16507078463E-01  0.13876240077E-01  0.71635034795E-02  0.22723324144E-01  0.00000000000E+00 0.  1.
     999901    1    3    3    0    0 -0.11170280988E+00 -0.30931534178E-01 -0.30998606554E-01  0.88814142520E+00  0.88000000000E+00 0. -1.
        -11    1    4    4    0    0  0.72728086124E-01  0.27675391631E-02  0.20774400696E-01  0.75689303271E-01  0.51100000000E-03 0.  1.
         11    1    4    4    0    0  0.55481802220E-01  0.14287754938E-01  0.30607023778E-02  0.57375947389E-01  0.51100000000E-03 0. -1.
</event>
<event>
 8    1  0.1120016E+005  0.1043930E+01  0.7957747E-01            NaN
         13   -1    0    0    0    0  0.00000000000E+00  0.00000000000E+00  0.74505805969E-08  0.10566000000E+00  0.10566000000E+00 0. -1.
     999900   -1    0    0    0    0 -0.00000000000E+00 -0.00000000000E+00 -0.74505805969E-08  0.93827000000E+00  0.93827000000E+00 0. -1.
     999902    2    1    2    0    0  0.19313322830E-01 -0.84247104224E-02 -0.53941347421E-02  0.10221796696E+01  0.10219482374E+01 0.  0.
     999903    2    3    3    0    0 -0.97933659776E-01 -0.81072966125E-01 -0.25407376693E-01  0.13121100915E+00  0.20173412664E-01 0.  0.
         14    1    1    2    0    0 -0.19313322830E-01  0.84247104224E-02  0.53941347421E-02  0.21750330435E-01  0.00000000000E+00 0.  1.
     999901    1    3    3    0    0  0.11724698261E+00  0.72648255703E-01  0.20013241951E-01  0.89096866041E+00  0.88000000000E+00 0. -1.
        -11    1    4    4    0    0 -0.91451696483E-01 -0.77070001867E-01 -0.18704614996E-01  0.12105090549E+00  0.51100000000E-03 0. -1.
         11    1    4    4    0    0 -0.64819632922E-02 -0.40029642583E-02 -0.67027616967E-02  0.10160103658E-01  0.51100000000E-03 0.  1.
</event>
<event>
 8    1  0.1120016E+005  0.1043930E+01  0.7957747E-01            NaN
         13   -1    0    0    0    0  0.00000000000E+00  0.00000000000E+00  0.74505805969E-08  0.10566000000E+00  0.10566000000E+00 0.  1.
     999900   -1    0    0    0    0 -0.00000000000E+00 -0.00000000000E+00 -0.74505805969E-08  0.93827000000E+00  0.93827000000E+00 0.  1.
     999902    2    1    2    0    0 -0.29212573040E-02 -0.22941919184E-02  0.22948213724E-01  0.10206831169E+01  0.10204183493E+01 0.  0.
     999903    2    3    3    0    0 -0.11116379825E+00 -0.14079668488E-01  0.68139621366E-01  0.13282186172E+00  0.21047846556E-01 0.  0.
         14    1    1    2    0    0  0.29212573040E-02  0.22941919184E-02 -0.22948213724E-01  0.23246883101E-01  0.00000000000E+00 0. -1.
     999901    1    3    3    0    0  0.10824254094E+00  0.11785476570E-01 -0.45191407642E-01  0.88786125518E+00  0.88000000000E+00 0.  1.
        -11    1    4    4    0    0 -0.83723714595E-01 -0.98953448790E-02  0.61276779581E-01  0.10422419620E+00  0.51100000000E-03 0. -1.
         11    1    4    4    0    0 -0.27440083653E-01 -0.41843236091E-02  0.68628417853E-02  0.28597665522E-01  0.51100000000E-03 0.  1.
</event>
<event>
 8    1  0.1120016E+005  0.1043930E+01  0.7957747E-01            NaN
         13   -1    0    0    0    0  0.00000000000E+00  0.00000000000E+00  0.74505805969E-08  0.10566000000E+00  0.10566000000E+00 0.  1.
     999900   -1    0    0    0    0 -0.00000000000E+00 -0.00000000000E+00 -0.74505805969E-08  0.93827000000E+00  0.93827000000E+00 0.  1.
     999902    2    1    2    0    0 -0.55245252921E-02  0.19779156160E-01  0.10628039551E-01  0.10208066217E+01  0.10205446920E+01 0.  0.
     999903    2    3    3    0    0  0.66326927020E-01 -0.20929499987E-01 -0.10700947365E+00  0.12914614240E+00  0.19758376113E-01 0.  0.
         14    1    1    2    0    0  0.55245252921E-02 -0.19779156160E-01 -0.10628039551E-01  0.23123378274E-01  0.00000000000E+00 0. -1.
     999901    1    3    3    0    0 -0.71851452312E-01  0.40708656147E-01  0.11763751321E+00  0.89166047933E+00  0.88000000000E+00 0. -1.
        -11    1    4    4    0    0  0.76198477281E-02  0.17895599825E-02 -0.22064870394E-01  0.23417605147E-01  0.51100000000E-03 0. -1.
         11    1    4    4    0    0  0.58707079292E-01 -0.22719059970E-01 -0.84944603260E-01  0.10572853725E+00  0.51100000000E-03 0.  1.
</event>
<event>
 8    1  0.1120016E+005  0.1043930E+01  0.7957747E-01            NaN
         13   -1    0    0    0    0  0.00000000000E+00  0.00000000000E+00  0.74505805969E-08  0.10566000000E+00  0.10566000000E+00 0. -1.
     999900   -1    0    0    0    0 -0.00000000000E+00 -0.00000000000E+00 -0.74505805969E-08  0.93827000000E+00  0.93827000000E+00 0.  1.
     999902    2    1    2    0    0  0.16949315125E-01 -0.13883508252E-01 -0.70097710876E-02  0.10209263487E+01  0.10206671551E+01 0.  0.
     999903    2    3    3    0    0  0.88291678625E-01  0.56735809874E-01  0.76396731189E-01  0.13130088502E+00  0.19725344968E-01 0.  0.
         14    1    1    2    0    0 -0.16949315125E-01  0.13883508252E-01  0.70097710876E-02  0.23003651347E-01  0.00000000000E+00 0. -1.
     999901    1    3    3    0    0 -0.71342363500E-01 -0.70619318126E-01 -0.83406502277E-01  0.88962546363E+00  0.88000000000E+00 0. -1.
        -11    1    4    4    0    0  0.10620006239E-01  0.52983636537E-02  0.19293051751E-02  0.12034971100E-01  0.51100000000E-03 0. -1.
         11    1    4    4    0    0  0.77671672386E-01  0.51437446220E-01  0.74467426014E-01  0.11926591392E+00  0.51100000000E-03 0.  1.
</event>
<event>
 7    1  0.1120016E+005  0.1043930E+01  0.7957747E-01            NaN
         13   -1    0    0    0    0  0.00000000000E+00  0.00000000000E+00  0.74505805969E-08  0.10566000000E+00  0.10566000000E+00 0.  1.
     999900   -1    0    0    0    0 -0.00000000000E+00 -0.00000000000E+00 -0.74505805969E-08  0.93827000000E+00  0.93827000000E+00 0. -1.
     999903    2    1    2    0    0  0.10189749600E+00 -0.12751883493E-01 -0.57165290545E-01  0.11935338287E+00  0.20776172327E-01 0.  0.
         14    1    1    2    0    0 -0.11826932589E-01  0.10796995025E-01  0.36362231427E-01  0.39732396232E-01  0.00000000000E+00 0.  1.
     999901    1    1    2    0    0 -0.90070563411E-01  0.19548884673E-02  0.20803059119E-01  0.88484422089E+00  0.88000000000E+00 0.  1.
        -11    1    3    3    0    0  0.50645592057E-01 -0.11204100642E-01 -0.39203730020E-01  0.65020776945E-01  0.51100000000E-03 0.  1.
         11    1    3    3    0    0  0.51251903942E-01 -0.15477828503E-02 -0.17961560525E-01  0.54332605928E-01  0.51100000000E-03 0. -1.
</event>
