<event>
 8    1  0.1090774E+005  0.1043930E+01  0.7957747E-01            NaN
         13   -1    0    0    0    0  0.00000000000E+00  0.00000000000E+00  0.74505805969E-08  0.10566000000E+00  0.10566000000E+00 0.  1.
     999900   -1    0    0    0    0 -0.00000000000E+00 -0.00000000000E+00 -0.74505805969E-08  0.93827000000E+00  0.93827000000E+00 0.  1.
     999902    2    1    2    0    0 -0.17722185298E-01 -0.58863474835E-02 -0.15370004796E-01  0.10197440126E+01  0.10194571542E+01 0.  0.
     999903    2    3    3    0    0  0.64060965234E-01  0.43641166549E-01 -0.10249274570E+00  0.13028809446E+00  0.21491066803E-01 0.  0.
         14    1    1    2    0    0  0.17722185298E-01  0.58863474835E-02  0.15370004796E-01  0.24185987387E-01  0.00000000000E+00 0.  1.
     999901    1    3    3    0    0 -0.81783150532E-01 -0.49527514033E-01  0.87122740903E-01  0.88945591815E+00  0.88000000000E+00 0. -1.
        -11    1    4    4    0    0  0.20103088749E-01  0.37027141243E-02 -0.33544646655E-01  0.39285477079E-01  0.51100000000E-03 0. -1.
         11    1    4    4    0    0  0.43957876485E-01  0.39938452425E-01 -0.68948099044E-01  0.91002617380E-01  0.51100000000E-03 0.  1.
</event>
<event>
 8    1  0.1090774E+005  0.1043930E+01  0.7957747E-01            NaN
         13   -1    0    0    0    0  0.00000000000E+00  0.00000000000E+00  0.74505805969E-08  0.10566000000E+00  0.10566000000E+00 0. -1.
     999900   -1    0    0    0    0 -0.00000000000E+00 -0.00000000000E+00 -0.74505805969E-08  0.93827000000E+00  0.93827000000E+00 0.  1.
     999902    2    1    2    0    0 -0.19081218917E-01  0.53666536934E-02 -0.12935804676E-01  0.10202608443E+01  0.10199862556E+01 0.  0.
     999903    2    3    3    0    0 -0.77848222042E-02  0.30782916444E-01  0.12345712192E+00  0.12931941786E+00  0.21763719349E-01 0.  0.
         14    1    1    2    0    0  0.19081218917E-01 -0.53666536934E-02  0.12935804676E-01  0.23669155664E-01  0.00000000000E+00 0.  1.
     999901    1    3    3    0    0 -0.11296396713E-01 -0.25416262750E-01 -0.13639292660E+00  0.89094142648E+00  0.88000000000E+00 0.  1.
        -11    1    4    4    0    0  0.33053657628E-02  0.25687098922E-01  0.91882712543E-01  0.95464372826E-01  0.51100000000E-03 0. -1.
         11    1    4    4    0    0 -0.11090187967E-01  0.50958175218E-02  0.31574409380E-01  0.33855045031E-01  0.51100000000E-03 0.  1.
</event>
<event>
 8    1  0.1090774E+005  0.1043930E+01  0.7957747E-01            NaN
         13   -1    0    0    0    0  0.00000000000E+00  0.00000000000E+00  0.74505805969E-08  0.10566000000E+00  0.10566000000E+00 0.  1.
     999900   -1    0    0    0    0 -0.00000000000E+00 -0.00000000000E+00 -0.74505805969E-08  0.93827000000E+00  0.93827000000E+00 0.  1.
     999902    2    1    2    0    0  0.16133125498E-01 -0.59536577112E-02 -0.16443626038E-01  0.10201367948E+01  0.10198592861E+01 0.  0.
     999903    2    3    3    0    0 -0.98978052907E-01 -0.62255376064E-01  0.49190490272E-01  0.12843712328E+00  0.20099838256E-01 0.  0.
         14    1    1    2    0    0 -0.16133125498E-01  0.59536577112E-02  0.16443626038E-01  0.23793205243E-01  0.00000000000E+00 0.  1.
     999901    1    3    3    0    0  0.11511117840E+00  0.56301718352E-01 -0.65634116310E-01  0.89169967147E+00  0.88000000000E+00 0.  1.
        -11    1    4    4    0    0 -0.33553020487E-01 -0.11710969972E-01  0.19846217165E-01  0.40707314554E-01  0.51100000000E-03 0.  1.
         11    1    4    4    0    0 -0.65425032420E-01 -0.50544406092E-01  0.29344273107E-01  0.87729808729E-01  0.51100000000E-03 0. -1.
</event>
<event>
 8    1  0.1090774E+005  0.1043930E+01  0.7957747E-01            NaN
         13   -1    0    0    0    0  0.00000000000E+00  0.00000000000E+00  0.74505805969E-08  0.10566000000E+00  0.10566000000E+00 0.  1.
     999900   -1    0    0    0    0 -0.00000000000E+00 -0.00000000000E+00 -0.74505805969E-08  0.93827000000E+00  0.93827000000E+00 0.  1.
     999902    2    1    2    0    0 -0.82793085661E-02 -0.12549437893E-01 -0.18022518626E-01  0.10204598803E+01  0.10201899435E+01 0.  0.
     999903    2    3    3    0    0  0.38789578494E-01  0.24574746919E-01 -0.12237202512E+00  0.13226930123E+00  0.20290537905E-01 0.  0.
         14    1    1    2    0    0  0.82793085661E-02  0.12549437893E-01  0.18022518626E-01  0.23470119714E-01  0.00000000000E+00 0. -1.
     999901    1    3    3    0    0 -0.47068887061E-01 -0.37124184812E-01  0.10434950649E+00  0.88819057906E+00  0.88000000000E+00 0. -1.
        -11    1    4    4    0    0  0.80631578157E-02  0.54778334432E-02 -0.54387975401E-01  0.55256982928E-01  0.51100000000E-03 0. -1.
         11    1    4    4    0    0  0.30726420679E-01  0.19096913476E-01 -0.67984049720E-01  0.77012318297E-01  0.51100000000E-03 0.  1.
</event>
<event>
 8    1  0.1090774E+005  0.1043930E+01  0.7957747E-01            NaN
         13   -1    0    0    0    0  0.00000000000E+00  0.00000000000E+00  0.74505805969E-08  0.10566000000E+00  0.10566000000E+00 0. -1.
     999900   -1    0    0    0    0 -0.00000000000E+00 -0.00000000000E+00 -0.74505805969E-08  0.93827000000E+00  0.93827000000E+00 0.  1.
     999902    2    1    2    0    0  0.34391218640E-02  0.19262717013E-01 -0.12653453733E-01  0.10206278602E+01  0.10203618179E+01 0.  0.
     999903    2    3    3    0    0 -0.11589547991E+00 -0.58037424293E-02  0.54324888421E-01  0.12969847309E+00  0.20125971559E-01 0.  0.
         14    1    1    2    0    0 -0.34391218640E-02 -0.19262717013E-01  0.12653453733E-01  0.23302139758E-01  0.00000000000E+00 0.  1.
     999901    1    3    3    0    0  0.11933460177E+00  0.25066459442E-01 -0.66978342154E-01  0.89092938715E+00  0.88000000000E+00 0.  1.
        -11    1    4    4    0    0 -0.56848629651E-01 -0.39373054761E-02  0.37687777257E-01  0.68322022388E-01  0.51100000000E-03 0. -1.
         11    1    4    4    0    0 -0.59046850257E-01 -0.18664369532E-02  0.16637111164E-01  0.61376450704E-01  0.51100000000E-03 0.  1.
</event>
<event>
 8    1  0.1090774E+005  0.1043930E+01  0.7957747E-01            NaN
         13   -1    0    0    0    0  0.00000000000E+00  0.00000000000E+00  0.74505805969E-08  0.10566000000E+00  0.10566000000E+00 0.  1.
     999900   -1    0    0    0    0 -0.00000000000E+00 -0.00000000000E+00 -0.74505805969E-08  0.93827000000E+00  0.93827000000E+00 0.  1.
     999902    2    1    2    0    0 -0.67868263079E-02 -0.20259621749E-01  0.10026148182E-01  0.10203283701E+01  0.10200553642E+01 0.  0.
     999903    2    3    3    0    0  0.63259587625E-01  0.10838550220E+00  0.16460401522E-01  0.12819751223E+00  0.20358408789E-01 0.  0.
         14    1    1    2    0    0  0.67868263079E-02  0.20259621749E-01 -0.10026148182E-01  0.23601629861E-01  0.00000000000E+00 0.  1.
     999901    1    3    3    0    0 -0.70046413933E-01 -0.12864512395E+00 -0.64342533399E-02  0.89213085791E+00  0.88000000000E+00 0. -1.
        -11    1    4    4    0    0  0.38118354901E-01  0.83263255091E-01  0.12761858518E-01  0.92460287597E-01  0.51100000000E-03 0. -1.
         11    1    4    4    0    0  0.25141232725E-01  0.25122247114E-01  0.36985430039E-02  0.35737224631E-01  0.51100000000E-03 0.  1.
</event>
<event>
 8    1  0.1090774E+005  0.1043930E+01  0.7957747E-01            NaN
         13   -1    0    0    0    0  0.00000000000E+00  0.00000000000E+00  0.74505805969E-08  0.10566000000E+00  0.10566000000E+00 0. -1.
     999900   -1    0    0    0    0 -0.00000000000E+00 -0.00000000000E+00 -0.74505805969E-08  0.93827000000E+00  0.93827000000E+00 0. -1.
     999902    2    1    2    0    0  0.10961885468E-02 -0.22506022228E-01 -0.60372902045E-02  0.10206025154E+01  0.10203358873E+01 0.  0.
     999903    2    3    3    0    0  0.98602455211E-01 -0.71950886428E-01 -0.48426129205E-01  0.13282490792E+00  0.19949735389E-01 0.  0.
         14    1    1    2    0    0 -0.10961885468E-02  0.22506022228E-01  0.60372902045E-02  0.23327484623E-01  0.00000000000E+00 0. -1.
     999901    1    3    3    0    0 -0.97506266664E-01  0.49444864201E-01  0.42388839000E-01  0.88777760746E+00  0.88000000000E+00 0.  1.
        -11    1    4    4    0    0  0.91075204025E-02 -0.96607461106E-02  0.53440459631E-03  0.13297505502E-01  0.51100000000E-03 0.  1.
         11    1    4    4    0    0  0.89494934808E-01 -0.62290140318E-01 -0.48960533801E-01  0.11952740242E+00  0.51100000000E-03 0. -1.
</event>
<event>
 8    1  0.1090774E+005  0.1043930E+01  0.7957747E-01            NaN
         13   -1    0    0    0    0  0.00000000000E+00  0.00000000000E+00  0.74505805969E-08  0.10566000000E+00  0.10566000000E+00 0.  1.
     999900   -1    0    0    0    0 -0.00000000000E+00 -0.00000000000E+00 -0.74505805969E-08  0.93827000000E+00  0.93827000000E+00 0.  1.
     999902    2    1    2    0    0 -0.14299326336E-01 -0.32296214731E-02  0.18492242563E-01  0.10203320292E+01  0.10200591089E+01 0.  0.
     999903    2    3    3    0    0 -0.17761183025E-01 -0.12657070458E+00 -0.19979127831E-01  0.13089116355E+00  0.19943125768E-01 0.  0.
         14    1    1    2    0    0  0.14299326336E-01  0.32296214731E-02 -0.18492242563E-01  0.23597970750E-01  0.00000000000E+00 0. -1.
     999901    1    3    3    0    0  0.34618566899E-02  0.12334108311E+00  0.38471370394E-01  0.88944086570E+00  0.88000000000E+00 0. -1.
        -11    1    4    4    0    0  0.21009393280E-02 -0.52018514988E-01 -0.11035885897E-01  0.53220219336E-01  0.51100000000E-03 0.  1.
         11    1    4    4    0    0 -0.19862122353E-01 -0.74552189597E-01 -0.89432419334E-02  0.77670944215E-01  0.51100000000E-03 0. -1.
</event>
<event>
 8    1  0.1090774E+005  0.1043930E+01  0.7957747E-01            NaN
         13   -1    0    0    0    0  0.00000000000E+00  0.00000000000E+00  0.74505805969E-08  0.10566000000E+00  0.10566000000E+00 0.  1.
     999900   -1    0    0    0    0 -0.00000000000E+00 -0.00000000000E+00 -0.74505805969E-08  0.93827000000E+00  0.93827000000E+00 0.  1.
     999902    2    1    2    0    0  0.15662055313E-01  0.17582014888E-01 -0.38851197268E-02  0.10200653529E+01  0.10197861555E+01 0.  0.
     999903    2    3    3    0    0 -0.52736795151E-02 -0.72015092951E-01  0.10478136643E+00  0.12862026100E+00  0.18709662743E-01 0.  0.
         14    1    1    2    0    0 -0.15662055313E-01 -0.17582014888E-01  0.38851197268E-02  0.23864647063E-01  0.00000000000E+00 0.  1.
     999901    1    3    3    0    0  0.20935734828E-01  0.89597107839E-01 -0.10866648616E+00  0.89144509194E+00  0.88000000000E+00 0.  1.
        -11    1    4    4    0    0  0.23368136003E-02 -0.26136908400E-01  0.52166549013E-01  0.58396991664E-01  0.51100000000E-03 0.  1.
         11    1    4    4    0    0 -0.76104931154E-02 -0.45878184551E-01  0.52614817418E-01  0.70223269335E-01  0.51100000000E-03 0. -1.
</event>
<event>
 8    1  0.1090774E+005  0.1043930E+01  0.7957747E-01            NaN
         13   -1    0    0    0    0  0.00000000000E+00  0.00000000000E+00  0.74505805969E-08  0.10566000000E+00  0.10566000000E+00 0. -1.
     999900   -1    0    0    0    0 -0.00000000000E+00 -0.00000000000E+00 -0.74505805969E-08  0.93827000000E+00  0.93827000000E+00 0. -1.
     999902    2    1    2    0    0 -0.69570622324E-02 -0.14172392080E-01  0.17806849474E-01  0.10201320736E+01  0.10198544535E+01 0.  0.
     999903    2    3    3    0    0 -0.12146650338E+00  0.22879384633E-01 -0.36883447149E-01  0.13025777080E+00  0.18141678385E-01 0.  0.
         14    1    1    2    0    0  0.69570622324E-02  0.14172392080E-01 -0.17806849474E-01  0.23797926388E-01  0.00000000000E+00 0.  1.
     999901    1    3    3    0    0  0.11450944115E+00 -0.37051776713E-01  0.54690296623E-01  0.88987430282E+00  0.88000000000E+00 0.  1.
        -11    1    4    4    0    0 -0.10307076755E+00  0.12745313678E-01 -0.32189794316E-01  0.10873118284E+00  0.51100000000E-03 0. -1.
         11    1    4    4    0    0 -0.18395735834E-01  0.10134070955E-01 -0.46936528325E-02  0.21526587953E-01  0.51100000000E-03 0.  1.
</event>
<event>
 8    1  0.1090774E+005  0.1043930E+01  0.7957747E-01            NaN
         13   -1    0    0    0    0  0.00000000000E+00  0.00000000000E+00  0.74505805969E-08  0.10566000000E+00  0.10566000000E+00 0. -1.
     999900   -1    0    0    0    0 -0.00000000000E+00 -0.00000000000E+00 -0.74505805969E-08  0.93827000000E+00  0.93827000000E+00 0.  1.
     999902    2    1    2    0    0  0.20512101429E-02  0.18971712677E-01  0.78731269140E-02  0.10232873385E+01  0.10230791063E+01 0.  0.
     999903    2    3    3    0    0  0.75522461412E-01  0.57170105736E-01  0.94412216955E-01  0.13517351920E+00  0.19650710262E-01 0.  0.
         14    1    1    2    0    0 -0.20512101429E-02 -0.18971712677E-01 -0.78731269140E-02  0.20642661465E-01  0.00000000000E+00 0.  1.
     999901    1    3    3    0    0 -0.73471251269E-01 -0.38198393059E-01 -0.86539090041E-01  0.88811381934E+00  0.88000000000E+00 0.  1.
        -11    1    4    4    0    0  0.26596867944E-01  0.21092115293E-01  0.21250890339E-01  0.40051618858E-01  0.51100000000E-03 0.  1.
         11    1    4    4    0    0  0.48925593468E-01  0.36077990444E-01  0.73161326616E-01  0.95121900338E-01  0.51100000000E-03 0. -1.
</event>
<event>
 8    1  0.1090774E+005  0.1043930E+01  0.7957747E-01            NaN
         13   -1    0    0    0    0  0.00000000000E+00  0.00000000000E+00  0.74505805969E-08  0.10566000000E+00  0.10566000000E+00 0. -1.
     999900   -1    0    0    0    0 -0.00000000000E+00 -0.00000000000E+00 -0.74505805969E-08  0.93827000000E+00  0.93827000000E+00 0. -1.
     999902    2    1    2    0    0 -0.86559439642E-02 -0.17236285217E-01  0.10980327992E-01  0.10217358004E+01  0.10214947201E+01 0.  0.
     999903    2    3    3    0    0  0.12329804565E+00  0.14194836508E-02  0.40382722830E-01  0.13121662939E+00  0.19560586136E-01 0.  0.
         14    1    1    2    0    0  0.86559439642E-02  0.17236285217E-01 -0.10980327992E-01  0.22194199621E-01  0.00000000000E+00 0.  1.
     999901    1    3    3    0    0 -0.13195398961E+00 -0.18655768868E-01 -0.29402394838E-01  0.89051917099E+00  0.88000000000E+00 0. -1.
        -11    1    4    4    0    0  0.42719596880E-02  0.31336257609E-02 -0.51508703245E-03  0.53474933975E-02  0.51100000000E-03 0.  1.
         11    1    4    4    0    0  0.11902608596E+00 -0.17141421101E-02  0.40897809862E-01  0.12586913599E+00  0.51100000000E-03 0. -1.
</event>
<event>
 8    1  0.1090774E+005  0.1043930E+01  0.7957747E-01            NaN
         13   -1    0    0    0    0  0.00000000000E+00  0.00000000000E+00  0.74505805969E-08  0.10566000000E+00  0.10566000000E+00 0. -1.
     999900   -1    0    0    0    0 -0.00000000000E+00 -0.00000000000E+00 -0.74505805969E-08  0.93827000000E+00  0.93827000000E+00 0.  1.
     999902    2    1    2    0    0 -0.18413612809E-01  0.14095614065E-01 -0.95862508921E-02  0.10188372983E+01  0.10185282503E+01 0.  0.
     999903    2    3    3    0    0  0.50699605752E-01  0.10664534139E+00  0.49034862109E-01  0.12935513215E+00  0.19612589001E-01 0.  0.
         14    1    1    2    0    0  0.18413612809E-01 -0.14095614065E-01  0.95862508921E-02  0.25092701703E-01  0.00000000000E+00 0.  1.
     999901    1    3    3    0    0 -0.69113218562E-01 -0.92549727325E-01 -0.58621113001E-01  0.88948216615E+00  0.88000000000E+00 0.  1.
        -11    1    4    4    0    0  0.40448674028E-01  0.63667684152E-01  0.33239770098E-01  0.82430653722E-01  0.51100000000E-03 0. -1.
         11    1    4    4    0    0  0.10250931725E-01  0.42977657239E-01  0.15795092011E-01  0.46924478427E-01  0.51100000000E-03 0.  1.
</event>
<event>
 8    1  0.1090774E+005  0.1043930E+01  0.7957747E-01            NaN
         13   -1    0    0    0    0  0.00000000000E+00  0.00000000000E+00  0.74505805969E-08  0.10566000000E+00  0.10566000000E+00 0.  1.
     999900   -1    0    0    0    0 -0.00000000000E+00 -0.00000000000E+00 -0.74505805969E-08  0.93827000000E+00  0.93827000000E+00 0.  1.
     999902    2    1    2    0    0 -0.23671750110E-01  0.80649156369E-02  0.24348607203E-02  0.10188038550E+01  0.10184939724E+01 0.  0.
     999903    2    3    3    0    0  0.56309622651E-01 -0.11079311768E+00  0.17385520587E-01  0.12709326610E+00  0.20113513666E-01 0.  0.
         14    1    1    2    0    0  0.23671750110E-01 -0.80649156369E-02 -0.24348607203E-02  0.25126145033E-01  0.00000000000E+00 0. -1.
     999901    1    3    3    0    0 -0.79981372761E-01  0.11885803332E+00 -0.14950659866E-01  0.89171058887E+00  0.88000000000E+00 0.  1.
        -11    1    4    4    0    0  0.38712350817E-01 -0.74083924287E-01  0.21325162582E-02  0.83617478377E-01  0.51100000000E-03 0. -1.
         11    1    4    4    0    0  0.17597271834E-01 -0.36709193396E-01  0.15253004329E-01  0.43475787719E-01  0.51100000000E-03 0.  1.
</event>
<event>
 8    1  0.1090774E+005  0.1043930E+01  0.7957747E-01            NaN
         13   -1    0    0    0    0  0.00000000000E+00  0.00000000000E+00  0.74505805969E-08  0.10566000000E+00  0.10566000000E+00 0. -1.
     999900   -1    0    0    0    0 -0.00000000000E+00 -0.00000000000E+00 -0.74505805969E-08  0.93827000000E+00  0.93827000000E+00 0. -1.
     999902    2    1    2    0    0  0.19034282534E-01  0.88417226557E-02  0.95474271061E-02  0.10208728246E+01  0.10206124097E+01 0.  0.
     999903    2    3    3    0    0 -0.77826387366E-02  0.31635685651E-01  0.12676178508E+00  0.13240340045E+00  0.20018097368E-01 0.  0.
         14    1    1    2    0    0 -0.19034282534E-01 -0.88417226557E-02 -0.95474271061E-02  0.23057175357E-01  0.00000000000E+00 0. -1.
     999901    1    3    3    0    0  0.26816921271E-01 -0.22793962995E-01 -0.11721435797E+00  0.88846942420E+00  0.88000000000E+00 0. -1.
        -11    1    4    4    0    0 -0.13384953474E-01  0.28043061492E-01  0.11140785558E+00  0.11566132320E+00  0.51100000000E-03 0. -1.
         11    1    4    4    0    0  0.56023147371E-02  0.35926241587E-02  0.15353929492E-01  0.16742077249E-01  0.51100000000E-03 0.  1.
</event>
<event>
 8    1  0.1090774E+005  0.1043930E+01  0.7957747E-01            NaN
         13   -1    0    0    0    0  0.00000000000E+00  0.00000000000E+00  0.74505805969E-08  0.10566000000E+00  0.10566000000E+00 0.  1.
     999900   -1    0    0    0    0 -0.00000000000E+00 -0.00000000000E+00 -0.74505805969E-08  0.93827000000E+00  0.93827000000E+00 0. -1.
     999902    2    1    2    0    0  0.38062740079E-02  0.23449591276E-01  0.47581088638E-03  0.10201687406E+01  0.10198919854E+01 0.  0.
     999903    2    3    3    0    0  0.97883650938E-01  0.85168086370E-01 -0.19751291992E-01  0.13277431804E+00  0.20102087890E-01 0.  0.
         14    1    1    2    0    0 -0.38062740079E-02 -0.23449591276E-01 -0.47581088638E-03  0.23761259412E-01  0.00000000000E+00 0. -1.
     999901    1    3    3    0    0 -0.94077376930E-01 -0.61718495093E-01  0.20227102878E-01  0.88739442255E+00  0.88000000000E+00 0.  1.
        -11    1    4    4    0    0  0.61766683166E-01  0.56234295545E-01 -0.22190855516E-01  0.86429823177E-01  0.51100000000E-03 0.  1.
         11    1    4    4    0    0  0.36116967772E-01  0.28933790824E-01  0.24395635241E-02  0.46344494858E-01  0.51100000000E-03 0. -1.
</event>
<event>
 8    1  0.1090774E+005  0.1043930E+01  0.7957747E-01            NaN
         13   -1    0    0    0    0  0.00000000000E+00  0.00000000000E+00  0.74505805969E-08  0.10566000000E+00  0.10566000000E+00 0.  1.
     999900   -1    0    0    0    0 -0.00000000000E+00 -0.00000000000E+00 -0.74505805969E-08  0.93827000000E+00  0.93827000000E+00 0.  1.
     999902    2    1    2    0    0 -0.11388880955E-01 -0.75633899433E-02 -0.21346566653E-01  0.10185806926E+01  0.10182652110E+01 0.  0.
     999903    2    3    3    0    0 -0.43223721345E-01 -0.40452371695E-01 -0.11642379962E+00  0.13227666893E+00  0.20926814440E-01 0.  0.
         14    1    1    2    0    0  0.11388880955E-01  0.75633899433E-02  0.21346566653E-01  0.25349307381E-01  0.00000000000E+00 0.  1.
     999901    1    3    3    0    0  0.31834840390E-01  0.32888981752E-01  0.95077232964E-01  0.88630402369E+00  0.88000000000E+00 0. -1.
        -11    1    4    4    0    0 -0.25160202147E-01 -0.10913153583E-01 -0.41611756498E-01  0.49839061920E-01  0.51100000000E-03 0. -1.
         11    1    4    4    0    0 -0.18063519198E-01 -0.29539218112E-01 -0.74812043119E-01  0.82437607007E-01  0.51100000000E-03 0.  1.
</event>
<event>
 8    1  0.1090774E+005  0.1043930E+01  0.7957747E-01            NaN
         13   -1    0    0    0    0  0.00000000000E+00  0.00000000000E+00  0.74505805969E-08  0.10566000000E+00  0.10566000000E+00 0. -1.
     999900   -1    0    0    0    0 -0.00000000000E+00 -0.00000000000E+00 -0.74505805969E-08  0.93827000000E+00  0.93827000000E+00 0. -1.
     999902    2    1    2    0    0 -0.60951142511E-03 -0.14688115033E-01 -0.18850281945E-01  0.10200250767E+01  0.10197449249E+01 0.  0.
     999903    2    3    3    0    0  0.77396205464E-01  0.15832699824E-01 -0.10368480165E+00  0.13198605295E+00  0.20710699586E-01 0.  0.
         14    1    1    2    0    0  0.60951142511E-03  0.14688115033E-01  0.18850281945E-01  0.23904923276E-01  0.00000000000E+00 0. -1.
     999901    1    3    3    0    0 -0.78005716890E-01 -0.30520814858E-01  0.84834519703E-01  0.88803902377E+00  0.88000000000E+00 0.  1.
        -11    1    4    4    0    0  0.21021431737E-01  0.54568799544E-02 -0.44894194432E-01  0.49874121003E-01  0.51100000000E-03 0.  1.
         11    1    4    4    0    0  0.56374773727E-01  0.10375819870E-01 -0.58790607216E-01  0.82111931950E-01  0.51100000000E-03 0. -1.
</event>
<event>
 8    1  0.1090774E+005  0.1043930E+01  0.7957747E-01            NaN
         13   -1    0    0    0    0  0.00000000000E+00  0.00000000000E+00  0.74505805969E-08  0.10566000000E+00  0.10566000000E+00 0.  1.
     999900   -1    0    0    0    0 -0.00000000000E+00 -0.00000000000E+00 -0.74505805969E-08  0.93827000000E+00  0.93827000000E+00 0.  1.
     999902    2    1    2    0    0  0.78722387637E-02 -0.11948103270E-01  0.19236506277E-01  0.10199555868E+01  0.10196737844E+01 0.  0.
     999903    2    3    3    0    0  0.12447992867E+00 -0.17382002528E-01  0.35118915479E-01  0.13210473697E+00  0.20516740756E-01 0.  0.
         14    1    1    2    0    0 -0.78722387637E-02  0.11948103270E-01 -0.19236506277E-01  0.23974413208E-01  0.00000000000E+00 0. -1.
     999901    1    3    3    0    0 -0.11660768991E+00  0.54338992575E-02 -0.15882409202E-01  0.88785084982E+00  0.88000000000E+00 0.  1.
        -11    1    4    4    0    0  0.18141247097E-01  0.29448065967E-02  0.33461803924E-03  0.18388850491E-01  0.51100000000E-03 0. -1.
         11    1    4    4    0    0  0.10633868158E+00 -0.20326809124E-01  0.34784297440E-01  0.11371588648E+00  0.51100000000E-03 0.  1.
</event>
<event>
 8    1  0.1090774E+005  0.1043930E+01  0.7957747E-01            NaN
         13   -1    0    0    0    0  0.00000000000E+00  0.00000000000E+00  0.74505805969E-08  0.10566000000E+00  0.10566000000E+00 0. -1.
     999900   -1    0    0    0    0 -0.00000000000E+00 -0.00000000000E+00 -0.74505805969E-08  0.93827000000E+00  0.93827000000E+00 0.  1.
     999902    2    1    2    0    0 -0.15545106661E-01  0.16106156048E-01 -0.80541693902E-02  0.10201407535E+01  0.10198633383E+01 0.  0.
     999903    2    3    3    0    0  0.98708819147E-01 -0.61265232702E-02 -0.81475801981E-01  0.12944496497E+00  0.18350133081E-01 0.  0.
         14    1    1    2    0    0  0.15545106661E-01 -0.16106156048E-01  0.80541693902E-02  0.23789246484E-01  0.00000000000E+00 0. -1.
     999901    1    3    3    0    0 -0.11425392581E+00  0.22232679318E-01  0.73421632591E-01  0.89069578854E+00  0.88000000000E+00 0. -1.
        -11    1    4    4    0    0  0.21372936024E-01 -0.85437947991E-02 -0.22097694006E-01  0.31911879062E-01  0.51100000000E-03 0. -1.
         11    1    4    4    0    0  0.77335883123E-01  0.24172715290E-02 -0.59378107975E-01  0.97533085913E-01  0.51100000000E-03 0.  1.
</event>
<event>
 8    1  0.1090774E+005  0.1043930E+01  0.7957747E-01            NaN
         13   -1    0    0    0    0  0.00000000000E+00  0.00000000000E+00  0.74505805969E-08  0.10566000000E+00  0.10566000000E+00 0.  1.
     999900   -1    0    0    0    0 -0.00000000000E+00 -0.00000000000E+00 -0.74505805969E-08  0.93827000000E+00  0.93827000000E+00 0.  1.
     999902    2    1    2    0    0  0.36044699021E-02  0.42144263111E-02  0.22443435421E-01  0.10208115791E+01  0.10205497629E+01 0.  0.
     999903    2    3    3    0    0  0.66694847676E-01  0.27420277192E-02 -0.10847889937E+00  0.12889049430E+00  0.19732371656E-01 0.  0.
         14    1    1    2    0    0 -0.36044699021E-02 -0.42144263111E-02 -0.22443435421E-01  0.23118420921E-01  0.00000000000E+00 0. -1.
     999901    1    3    3    0    0 -0.63090377774E-01  0.14723985919E-02  0.13092233479E+00  0.89192108478E+00  0.88000000000E+00 0.  1.
        -11    1    4    4    0    0  0.52926347648E-01 -0.16426249378E-02 -0.69917897441E-01  0.87707867353E-01  0.51100000000E-03 0. -1.
         11    1    4    4    0    0  0.13768500028E-01  0.43846526570E-02 -0.38561001924E-01  0.41182626948E-01  0.51100000000E-03 0.  1.
</event>
<event>
 8    1  0.1090774E+005  0.1043930E+01  0.7957747E-01            NaN
         13   -1    0    0    0    0  0.00000000000E+00  0.00000000000E+00  0.74505805969E-08  0.10566000000E+00  0.10566000000E+00 0.  1.
     999900   -1    0    0    0    0 -0.00000000000E+00 -0.00000000000E+00 -0.74505805969E-08  0.93827000000E+00  0.93827000000E+00 0.  1.
     999902    2    1    2    0    0 -0.16139342300E-01 -0.86617162777E-02 -0.15292654403E-01  0.10200685462E+01  0.10197894243E+01 0.  0.
     999903    2    3    3    0    0 -0.55024223316E-03  0.10584198138E+00 -0.74025932872E-01  0.13057221972E+00  0.19142571325E-01 0.  0.
         14    1    1    2    0    0  0.16139342300E-01  0.86617162777E-02  0.15292654403E-01  0.23861453800E-01  0.00000000000E+00 0.  1.
     999901    1    3    3    0    0 -0.15589100067E-01 -0.11450369766E+00  0.58733278468E-01  0.88949632648E+00  0.88000000000E+00 0.  1.
        -11    1    4    4    0    0  0.44164791619E-02  0.32741938379E-01 -0.32526402232E-01  0.46365588319E-01  0.51100000000E-03 0.  1.
         11    1    4    4    0    0 -0.49667213951E-02  0.73100042999E-01 -0.41499530640E-01  0.84206631403E-01  0.51100000000E-03 0. -1.
</event>
<event>
 8    1  0.1090774E+005  0.1043930E+01  0.7957747E-01            NaN
         13   -1    0    0    0    0  0.00000000000E+00  0.00000000000E+00  0.74505805969E-08  0.10566000000E+00  0.10566000000E+00 0. -1.
     999900   -1    0    0    0    0 -0.00000000000E+00 -0.00000000000E+00 -0.74505805969E-08  0.93827000000E+00  0.93827000000E+00 0. -1.
     999902    2    1    2    0    0 -0.17342389054E-01 -0.93751575682E-02  0.13532116043E-01  0.10200182832E+01  0.10197379702E+01 0.  0.
     999903    2    3    3    0    0 -0.20197699917E-02  0.12007700358E+00 -0.41655286246E-01  0.12870560287E+00  0.20184228444E-01 0.  0.
         14    1    1    2    0    0  0.17342389054E-01  0.93751575682E-02 -0.13532116043E-01  0.23911716838E-01  0.00000000000E+00 0.  1.
     999901    1    3    3    0    0 -0.15322619062E-01 -0.12945216115E+00  0.55187402290E-01  0.89131268029E+00  0.88000000000E+00 0. -1.
        -11    1    4    4    0    0 -0.55059604228E-02  0.42187523913E-01 -0.59953100406E-02  0.42968682055E-01  0.51100000000E-03 0. -1.
         11    1    4    4    0    0  0.34861904311E-02  0.77889479667E-01 -0.35659976206E-01  0.85736920813E-01  0.51100000000E-03 0.  1.
</event>
<event>
 8    1  0.1090774E+005  0.1043930E+01  0.7957747E-01            NaN
         13   -1    0    0    0    0  0.00000000000E+00  0.00000000000E+00  0.74505805969E-08  0.10566000000E+00  0.10566000000E+00 0.  1.
     999900   -1    0    0    0    0 -0.00000000000E+00 -0.00000000000E+00 -0.74505805969E-08  0.93827000000E+00  0.93827000000E+00 0. -1.
     999902    2    1    2    0    0  0.22665888014E-01  0.22920355758E-02  0.34804242095E-02  0.10208841922E+01  0.10206240368E+01 0.  0.
     999903    2    3    3    0    0 -0.39079609517E-01  0.12215247960E+00 -0.13185751466E-01  0.13045912854E+00  0.19931784272E-01 0.  0.
         14    1    1    2    0    0 -0.22665888014E-01 -0.22920355758E-02 -0.34804242095E-02  0.23045807845E-01  0.00000000000E+00 0. -1.
     999901    1    3    3    0    0  0.61745497531E-01 -0.11986044403E+00  0.16666175676E-01  0.89042506362E+00  0.88000000000E+00 0. -1.
        -11    1    4    4    0    0 -0.21981941890E-01  0.40338102632E-01 -0.68948360161E-03  0.45946760515E-01  0.51100000000E-03 0. -1.
         11    1    4    4    0    0 -0.17097667627E-01  0.81814376969E-01 -0.12496267865E-01  0.84512368022E-01  0.51100000000E-03 0.  1.
</event>
<event>
 8    1  0.1090774E+005  0.1043930E+01  0.7957747E-01            NaN
         13   -1    0    0    0    0  0.00000000000E+00  0.00000000000E+00  0.74505805969E-08  0.10566000000E+00  0.10566000000E+00 0.  1.
     999900   -1    0    0    0    0 -0.00000000000E+00 -0.00000000000E+00 -0.74505805969E-08  0.93827000000E+00  0.93827000000E+00 0.  1.
     999902    2    1    2    0    0  0.19044591365E-01  0.71742458061E-02 -0.11913797926E-01  0.10203481247E+01  0.10200755809E+01 0.  0.
     999903    2    3    3    0    0  0.11070095132E+00  0.61053430282E-01  0.35107540747E-01  0.13270244021E+00  0.19879040421E-01 0.  0.
         14    1    1    2    0    0 -0.19044591365E-01 -0.71742458061E-02  0.11913797926E-01  0.23581875332E-01  0.00000000000E+00 0. -1.
     999901    1    3    3    0    0 -0.91656359958E-01 -0.53879184476E-01 -0.47021338673E-01  0.88764568445E+00  0.88000000000E+00 0.  1.
        -11    1    4    4    0    0  0.97358186544E-01  0.49545294401E-01  0.23934781960E-01  0.11183240851E+00  0.51100000000E-03 0. -1.
         11    1    4    4    0    0  0.13342764779E-01  0.11508135881E-01  0.11172758787E-01  0.20870031704E-01  0.51100000000E-03 0.  1.
</event>
<event>
 8    1  0.1090774E+005  0.1043930E+01  0.7957747E-01            NaN
         13   -1    0    0    0    0  0.00000000000E+00  0.00000000000E+00  0.74505805969E-08  0.10566000000E+00  0.10566000000E+00 0. -1.
     999900   -1    0    0    0    0 -0.00000000000E+00 -0.00000000000E+00 -0.74505805969E-08  0.93827000000E+00  0.93827000000E+00 0.  1.
     999902    2    1    2    0    0  0.40212160621E-02 -0.18820946130E-01 -0.16189028671E-01  0.10187807885E+01  0.10184703295E+01 0.  0.
     999903    2    3    3    0    0 -0.19016543484E-01  0.11937526376E+00  0.31504391864E-01  0.12642234413E+00  0.19442218621E-01 0.  0.
         14    1    1    2    0    0 -0.40212160621E-02  0.18820946130E-01  0.16189028671E-01  0.25149211541E-01  0.00000000000E+00 0. -1.
     999901    1    3    3    0    0  0.23037759546E-01 -0.13819620989E+00 -0.47693420535E-01  0.89235844432E+00  0.88000000000E+00 0.  1.
        -11    1    4    4    0    0 -0.14544602314E-01  0.50716284609E-01  0.62688485501E-02  0.53134231566E-01  0.51100000000E-03 0. -1.
         11    1    4    4    0    0 -0.44719411703E-02  0.68658979156E-01  0.25235543314E-01  0.73288112569E-01  0.51100000000E-03 0.  1.
</event>
<event>
 8    1  0.1090774E+005  0.1043930E+01  0.7957747E-01            NaN
         13   -1    0    0    0    0  0.00000000000E+00  0.00000000000E+00  0.74505805969E-08  0.10566000000E+00  0.10566000000E+00 0.  1.
     999900   -1    0    0    0    0 -0.00000000000E+00 -0.00000000000E+00 -0.74505805969E-08  0.93827000000E+00  0.93827000000E+00 0.  1.
     999902    2    1    2    0    0 -0.17856780820E-01  0.10194097624E-01  0.12893801048E-01  0.10196599701E+01  0.10193710905E+01 0.  0.
     999903    2    3    3    0    0 -0.72951943680E-01  0.99248613462E-01  0.45172525697E-01  0.13286343205E+00  0.20972866716E-01 0.  0.
         14    1    1    2    0    0  0.17856780820E-01 -0.10194097624E-01 -0.12893801048E-01  0.24270029936E-01  0.00000000000E+00 0. -1.
     999901    1    3    3    0    0  0.55095162859E-01 -0.89054515839E-01 -0.32278724649E-01  0.88679653801E+00  0.88000000000E+00 0. -1.
        -11    1    4    4    0    0 -0.30136596673E-01  0.57435683996E-01  0.27577389017E-01  0.70482946598E-01  0.51100000000E-03 0. -1.
         11    1    4    4    0    0 -0.42815347007E-01  0.41812929466E-01  0.17595136680E-01  0.62380485456E-01  0.51100000000E-03 0.  1.
</event>
<event>
 8    1  0.1090774E+005  0.1043930E+01  0.7957747E-01            NaN
         13   -1    0    0    0    0  0.00000000000E+00  0.00000000000E+00  0.74505805969E-08  0.10566000000E+00  0.10566000000E+00 0.  1.
     999900   -1    0    0    0    0 -0.00000000000E+00 -0.00000000000E+00 -0.74505805969E-08  0.93827000000E+00  0.93827000000E+00 0. -1.
     999902    2    1    2    0    0 -0.16682245338E-02  0.13161032014E-01  0.18719338615E-01  0.10209863871E+01  0.10207285600E+01 0.  0.
     999903    2    3    3    0    0 -0.11348330238E+00 -0.54584676171E-01  0.30187046851E-01  0.13125406723E+00  0.21410875176E-01 0.  0.
         14    1    1    2    0    0  0.16682245338E-02 -0.13161032014E-01 -0.18719338615E-01  0.22943612945E-01  0.00000000000E+00 0. -1.
     999901    1    3    3    0    0  0.11181507784E+00  0.67745708185E-01 -0.11467708236E-01  0.88973231983E+00  0.88000000000E+00 0.  1.
        -11    1    4    4    0    0 -0.10489443009E+00 -0.49554238960E-01  0.21404263105E-01  0.11796977436E+00  0.51100000000E-03 0. -1.
         11    1    4    4    0    0 -0.85888722874E-02 -0.50304372109E-02  0.87827837460E-02  0.13284292869E-01  0.51100000000E-03 0.  1.
</event>
<event>
 8    1  0.1090774E+005  0.1043930E+01  0.7957747E-01            NaN
         13   -1    0    0    0    0  0.00000000000E+00  0.00000000000E+00  0.74505805969E-08  0.10566000000E+00  0.10566000000E+00 0.  1.
     999900   -1    0    0    0    0 -0.00000000000E+00 -0.00000000000E+00 -0.74505805969E-08  0.93827000000E+00  0.93827000000E+00 0. -1.
     999902    2    1    2    0    0 -0.92959487102E-02 -0.15238083422E-01  0.15996303822E-01  0.10199613625E+01  0.10196796974E+01 0.  0.
     999903    2    3    3    0    0 -0.62950175405E-01 -0.58849867920E-01  0.99718882946E-01  0.13328767163E+00  0.19892618073E-01 0.  0.
         14    1    1    2    0    0  0.92959487102E-02  0.15238083422E-01 -0.15996303822E-01  0.23968637524E-01  0.00000000000E+00 0. -1.
     999901    1    3    3    0    0  0.53654226695E-01  0.43611784498E-01 -0.83722579124E-01  0.88667369085E+00  0.88000000000E+00 0. -1.
        -11    1    4    4    0    0 -0.37773943298E-01 -0.37645586402E-01  0.46746243669E-01  0.70919203225E-01  0.51100000000E-03 0.  1.
         11    1    4    4    0    0 -0.25176232107E-01 -0.21204281518E-01  0.52972639277E-01  0.62368468402E-01  0.51100000000E-03 0. -1.
</event>
<event>
 8    1  0.1090774E+005  0.1043930E+01  0.7957747E-01            NaN
         13   -1    0    0    0    0  0.00000000000E+00  0.00000000000E+00  0.74505805969E-08  0.10566000000E+00  0.10566000000E+00 0.  1.
     999900   -1    0    0    0    0 -0.00000000000E+00 -0.00000000000E+00 -0.74505805969E-08  0.93827000000E+00  0.93827000000E+00 0.  1.
     999902    2    1    2    0    0 -0.75742187785E-03 -0.13832840575E-01  0.20149919736E-01  0.10194771795E+01  0.10191838789E+01 0.  0.
     999903    2    3    3    0    0 -0.10798479209E+00 -0.44247792995E-01 -0.52363369145E-01  0.12948787880E+00  0.20164469248E-01 0.  0.
         14    1    1    2    0    0  0.75742187785E-03  0.13832840575E-01 -0.20149919736E-01  0.24452820525E-01  0.00000000000E+00 0. -1.
     999901    1    3    3    0    0  0.10722737021E+00  0.30414952420E-01  0.72513288881E-01  0.88998930068E+00  0.88000000000E+00 0. -1.
        -11    1    4    4    0    0 -0.51833591686E-01 -0.24515752325E-01 -0.15209700183E-01  0.59324020765E-01  0.51100000000E-03 0. -1.
         11    1    4    4    0    0 -0.56151200404E-01 -0.19732040670E-01 -0.37153668963E-01  0.70163858034E-01  0.51100000000E-03 0.  1.
</event>
<event>
 8    1  0.1090774E+005  0.1043930E+01  0.7957747E-01            NaN
         13   -1    0    0    0    0  0.00000000000E+00  0.00000000000E+00  0.74505805969E-08  0.10566000000E+00  0.10566000000E+00 0.  1.
     999900   -1    0    0    0    0 -0.00000000000E+00 -0.00000000000E+00 -0.74505805969E-08  0.93827000000E+00  0.93827000000E+00 0. -1.
     999902    2    1    2    0    0  0.41124039137E-02 -0.32094784006E-02  0.21885624762E-01  0.10214312625E+01  0.10211834462E+01 0.  0.
     999903    2    3    3    0    0 -0.65904369823E-01  0.10385792885E+00  0.43287654930E-01  0.13192363174E+00  0.20004204440E-01 0.  0.
         14    1    1    2    0    0 -0.41124039137E-02  0.32094784006E-02 -0.21885624762E-01  0.22498737493E-01  0.00000000000E+00 0. -1.
     999901    1    3    3    0    0  0.70016773737E-01 -0.10706740725E+00 -0.21402030168E-01  0.88950763077E+00  0.88000000000E+00 0.  1.
        -11    1    4    4    0    0 -0.13670755258E-01  0.26721518010E-01  0.19426248029E-01  0.35757087515E-01  0.51100000000E-03 0. -1.
         11    1    4    4    0    0 -0.52233614565E-01  0.77136410839E-01  0.23861406901E-01  0.96166544224E-01  0.51100000000E-03 0.  1.
</event>
<event>
 8    1  0.1090774E+005  0.1043930E+01  0.7957747E-01            NaN
         13   -1    0    0    0    0  0.00000000000E+00  0.00000000000E+00  0.74505805969E-08  0.10566000000E+00  0.10566000000E+00 0. -1.
     999900   -1    0    0    0    0 -0.00000000000E+00 -0.00000000000E+00 -0.74505805969E-08  0.93827000000E+00  0.93827000000E+00 0. -1.
     999902    2    1    2    0    0  0.67245541179E-02 -0.68318447716E-02 -0.21381436485E-01  0.10204979801E+01  0.10202289291E+01 0.  0.
     999903    2    3    3    0    0  0.10720762059E+00  0.54082416543E-01  0.46185808654E-01  0.13012012406E+00  0.19486817915E-01 0.  0.
         14    1    1    2    0    0 -0.67245541179E-02  0.68318447716E-02  0.21381436485E-01  0.23432019914E-01  0.00000000000E+00 0. -1.
     999901    1    3    3    0    0 -0.10048306648E+00 -0.60914261315E-01 -0.67567245139E-01  0.89037785602E+00  0.88000000000E+00 0.  1.
        -11    1    4    4    0    0  0.63604609661E-01  0.30752382460E-01  0.37234088464E-01  0.79861717123E-01  0.51100000000E-03 0. -1.
         11    1    4    4    0    0  0.43603010934E-01  0.23330034083E-01  0.89517201902E-02  0.50258406941E-01  0.51100000000E-03 0.  1.
</event>
<event>
 8    1  0.1090774E+005  0.1043930E+01  0.7957747E-01            NaN
         13   -1    0    0    0    0  0.00000000000E+00  0.00000000000E+00  0.74505805969E-08  0.10566000000E+00  0.10566000000E+00 0. -1.
     999900   -1    0    0    0    0 -0.00000000000E+00 -0.00000000000E+00 -0.74505805969E-08  0.93827000000E+00  0.93827000000E+00 0. -1.
     999902    2    1    2    0    0  0.10737157575E-01  0.26108614539E-01 -0.11969730473E-01  0.10132669807E+01  0.10128029193E+01 0.  0.
     999903    2    3    3    0    0 -0.11778222820E+00 -0.19175695146E-01 -0.20344342303E-01  0.12274015046E+00  0.20270463956E-01 0.  0.
         14    1    1    2    0    0 -0.10737157575E-01 -0.26108614539E-01  0.11969730473E-01  0.30663019315E-01  0.00000000000E+00 0. -1.
     999901    1    3    3    0    0  0.12851938577E+00  0.45284309685E-01  0.83746118301E-02  0.89052683022E+00  0.88000000000E+00 0.  1.
        -11    1    4    4    0    0 -0.59857352691E-01 -0.12102475489E-01 -0.20383984940E-01  0.64382765918E-01  0.51100000000E-03 0. -1.
         11    1    4    4    0    0 -0.57924875504E-01 -0.70732196575E-02  0.39642636511E-04  0.58357384545E-01  0.51100000000E-03 0.  1.
</event>
<event>
 8    1  0.1090774E+005  0.1043930E+01  0.7957747E-01            NaN
         13   -1    0    0    0    0  0.00000000000E+00  0.00000000000E+00  0.74505805969E-08  0.10566000000E+00  0.10566000000E+00 0. -1.
     999900   -1    0    0    0    0 -0.00000000000E+00 -0.00000000000E+00 -0.74505805969E-08  0.93827000000E+00  0.93827000000E+00 0. -1.
     999902    2    1    2    0    0 -0.86882278768E-02  0.19415627630E-01  0.91944052141E-02  0.10207569772E+01  0.10204939086E+01 0.  0.
     999903    2    3    3    0    0 -0.31784675473E-01 -0.11952035300E+00 -0.29449887994E-01  0.12871996336E+00  0.20153230259E-01 0.  0.
         14    1    1    2    0    0  0.86882278768E-02 -0.19415627630E-01 -0.91944052141E-02  0.23173022832E-01  0.00000000000E+00 0. -1.
     999901    1    3    3    0    0  0.23096447596E-01  0.13893598063E+00  0.38644293208E-01  0.89203701381E+00  0.88000000000E+00 0.  1.
        -11    1    4    4    0    0 -0.20038627680E-01 -0.82511272683E-01 -0.29495304184E-01  0.89888212848E-01  0.51100000000E-03 0. -1.
         11    1    4    4    0    0 -0.11746047793E-01 -0.37009080312E-01  0.45416190012E-04  0.38831750513E-01  0.51100000000E-03 0.  1.
</event>
<event>
 8    1  0.1090774E+005  0.1043930E+01  0.7957747E-01            NaN
         13   -1    0    0    0    0  0.00000000000E+00  0.00000000000E+00  0.74505805969E-08  0.10566000000E+00  0.10566000000E+00 0.  1.
     999900   -1    0    0    0    0 -0.00000000000E+00 -0.00000000000E+00 -0.74505805969E-08  0.93827000000E+00  0.93827000000E+00 0.  1.
     999902    2    1    2    0    0  0.39868257003E-02  0.83636875576E-02  0.20336631893E-01  0.10215821892E+01  0.10213377232E+01 0.  0.
     999903    2    3    3    0    0  0.83756847117E-01 -0.94976520546E-01  0.31063388210E-01  0.13188700648E+00  0.19836821782E-01 0.  0.
         14    1    1    2    0    0 -0.39868257003E-02 -0.83636875576E-02 -0.20336631893E-01  0.22347810754E-01  0.00000000000E+00 0. -1.
     999901    1    3    3    0    0 -0.79770021417E-01  0.10334020810E+00 -0.10726756317E-01  0.88969518276E+00  0.88000000000E+00 0.  1.
        -11    1    4    4    0    0  0.14233649623E-01 -0.11741138593E-01  0.11318132873E-01  0.21652075415E-01  0.51100000000E-03 0. -1.
         11    1    4    4    0    0  0.69523197494E-01 -0.83235381953E-01  0.19745255338E-01  0.11023493107E+00  0.51100000000E-03 0.  1.
</event>
<event>
 8    1  0.1090774E+005  0.1043930E+01  0.7957747E-01            NaN
         13   -1    0    0    0    0  0.00000000000E+00  0.00000000000E+00  0.74505805969E-08  0.10566000000E+00  0.10566000000E+00 0. -1.
     999900   -1    0    0    0    0 -0.00000000000E+00 -0.00000000000E+00 -0.74505805969E-08  0.93827000000E+00  0.93827000000E+00 0. -1.
     999902    2    1    2    0    0  0.19362595214E-02 -0.41775089363E-02  0.23213535202E-01  0.10202642252E+01  0.10199897158E+01 0.  0.
     999903    2    3    3    0    0  0.16554396977E-01  0.95234699585E-01 -0.82014515312E-01  0.12831724257E+00  0.19880592424E-01 0.  0.
         14    1    1    2    0    0 -0.19362595214E-02  0.41775089363E-02 -0.23213535202E-01  0.23665774832E-01  0.00000000000E+00 0.  1.
     999901    1    3    3    0    0 -0.14618137455E-01 -0.99412208522E-01  0.10522805051E+00  0.89194698260E+00  0.88000000000E+00 0.  1.
        -11    1    4    4    0    0 -0.38654446336E-02  0.28476267565E-01 -0.26963753703E-01  0.39409955740E-01  0.51100000000E-03 0. -1.
         11    1    4    4    0    0  0.20419841610E-01  0.66758432020E-01 -0.55050761610E-01  0.88907286833E-01  0.51100000000E-03 0.  1.
</event>
<event>
 8    1  0.1090774E+005  0.1043930E+01  0.7957747E-01            NaN
         13   -1    0    0    0    0  0.00000000000E+00  0.00000000000E+00  0.74505805969E-08  0.10566000000E+00  0.10566000000E+00 0. -1.
     999900   -1    0    0    0    0 -0.00000000000E+00 -0.00000000000E+00 -0.74505805969E-08  0.93827000000E+00  0.93827000000E+00 0. -1.
     999902    2    1    2    0    0 -0.19911708607E-01 -0.44183881395E-02  0.12635579841E-01  0.10199371642E+01  0.10196549233E+01 0.  0.
     999903    2    3    3    0    0 -0.17239948093E-01 -0.11168078752E+00 -0.61706544909E-01  0.13030852696E+00  0.20069887954E-01 0.  0.
         14    1    1    2    0    0  0.19911708607E-01  0.44183881395E-02 -0.12635579841E-01  0.23992835833E-01  0.00000000000E+00 0.  1.
     999901    1    3    3    0    0 -0.26717605143E-02  0.10726239938E+00  0.74342124750E-01  0.88962863721E+00  0.88000000000E+00 0.  1.
        -11    1    4    4    0    0 -0.33520112719E-02 -0.78478394515E-01 -0.38468564862E-01  0.87465341644E-01  0.51100000000E-03 0. -1.
         11    1    4    4    0    0 -0.13887936821E-01 -0.33202393005E-01 -0.23237980047E-01  0.42843185317E-01  0.51100000000E-03 0.  1.
</event>
<event>
 8    1  0.1090774E+005  0.1043930E+01  0.7957747E-01            NaN
         13   -1    0    0    0    0  0.00000000000E+00  0.00000000000E+00  0.74505805969E-08  0.10566000000E+00  0.10566000000E+00 0.  1.
     999900   -1    0    0    0    0 -0.00000000000E+00 -0.00000000000E+00 -0.74505805969E-08  0.93827000000E+00  0.93827000000E+00 0.  1.
     999902    2    1    2    0    0 -0.99660585651E-02 -0.22654786839E-01 -0.13968386066E-02  0.10191406303E+01  0.10188390999E+01 0.  0.
     999903    2    3    3    0    0  0.63477522311E-01  0.50123424657E-01  0.96723038361E-01  0.12767097977E+00  0.20069364374E-01 0.  0.
         14    1    1    2    0    0  0.99660585651E-02  0.22654786839E-01  0.13968386066E-02  0.24789369660E-01  0.00000000000E+00 0. -1.
     999901    1    3    3    0    0 -0.73443580876E-01 -0.72778211496E-01 -0.98119876968E-01  0.89146965058E+00  0.88000000000E+00 0. -1.
        -11    1    4    4    0    0  0.56931462670E-01  0.43051948040E-01  0.93211124701E-01  0.11740202963E+00  0.51100000000E-03 0.  1.
         11    1    4    4    0    0  0.65460596407E-02  0.70714766164E-02  0.35119136597E-02  0.10268950137E-01  0.51100000000E-03 0. -1.
</event>
<event>
 8    1  0.1090774E+005  0.1043930E+01  0.7957747E-01            NaN
         13   -1    0    0    0    0  0.00000000000E+00  0.00000000000E+00  0.74505805969E-08  0.10566000000E+00  0.10566000000E+00 0. -1.
     999900   -1    0    0    0    0 -0.00000000000E+00 -0.00000000000E+00 -0.74505805969E-08  0.93827000000E+00  0.93827000000E+00 0. -1.
     999902    2    1    2    0    0 -0.61600766956E-02 -0.50563665996E-02 -0.20979856240E-01  0.10214874566E+01  0.10212408904E+01 0.  0.
     999903    2    3    3    0    0 -0.32228873134E-01  0.34854768940E-01  0.11831901677E+00  0.12925617662E+00  0.21312303583E-01 0.  0.
         14    1    1    2    0    0  0.61600766956E-02  0.50563665996E-02  0.20979856240E-01  0.22442543437E-01  0.00000000000E+00 0. -1.
     999901    1    3    3    0    0  0.26068796438E-01 -0.39911135540E-01 -0.13929887301E+00  0.89223127994E+00  0.88000000000E+00 0. -1.
        -11    1    4    4    0    0 -0.20633252645E-01  0.73202355805E-02  0.43802506254E-01  0.48971804529E-01  0.51100000000E-03 0.  1.
         11    1    4    4    0    0 -0.11595620489E-01  0.27534533359E-01  0.74516510514E-01  0.80284372091E-01  0.51100000000E-03 0. -1.
</event>
<event>
 8    1  0.1090774E+005  0.1043930E+01  0.7957747E-01            NaN
         13   -1    0    0    0    0  0.00000000000E+00  0.00000000000E+00  0.74505805969E-08  0.10566000000E+00  0.10566000000E+00 0.  1.
     999900   -1    0    0    0    0 -0.00000000000E+00 -0.00000000000E+00 -0.74505805969E-08  0.93827000000E+00  0.93827000000E+00 0. -1.
     999902    2    1    2    0    0 -0.40982595736E-02  0.10282643977E-01 -0.20548373185E-01  0.10205898171E+01  0.10203228952E+01 0.  0.
     999903    2    3    3    0    0 -0.19013915157E-01  0.12538236139E+00  0.29290719752E-01  0.13157105635E+00  0.19254378417E-01 0.  0.
         14    1    1    2    0    0  0.40982595736E-02 -0.10282643977E-01  0.20548373185E-01  0.23340182930E-01  0.00000000000E+00 0.  1.
     999901    1    3    3    0    0  0.14915655583E-01 -0.11509971741E+00 -0.49839092936E-01  0.88901876072E+00  0.88000000000E+00 0. -1.
        -11    1    4    4    0    0 -0.53037909882E-02  0.91171407033E-01  0.23000247107E-01  0.94178703257E-01  0.51100000000E-03 0.  1.
         11    1    4    4    0    0 -0.13710124169E-01  0.34210954355E-01  0.62904726445E-02  0.37392353091E-01  0.51100000000E-03 0. -1.
</event>
<event>
 8    1  0.1090774E+005  0.1043930E+01  0.7957747E-01            NaN
         13   -1    0    0    0    0  0.00000000000E+00  0.00000000000E+00  0.74505805969E-08  0.10566000000E+00  0.10566000000E+00 0. -1.
     999900   -1    0    0    0    0 -0.00000000000E+00 -0.00000000000E+00 -0.74505805969E-08  0.93827000000E+00  0.93827000000E+00 0.  1.
     999902    2    1    2    0    0 -0.21886049619E-01  0.32477365806E-02 -0.18251525684E-01  0.10152478601E+01  0.10148426244E+01 0.  0.
     999903    2    3    3    0    0 -0.12205926169E+00  0.16382366821E-01  0.28979689350E-01  0.12820897784E+00  0.20757511797E-01 0.  0.
         14    1    1    2    0    0  0.21886049619E-01 -0.32477365806E-02  0.18251525684E-01  0.28682139924E-01  0.00000000000E+00 0. -1.
     999901    1    3    3    0    0  0.10017321207E+00 -0.13134630240E-01 -0.47231215033E-01  0.88703888224E+00  0.88000000000E+00 0. -1.
        -11    1    4    4    0    0 -0.65908529401E-01 -0.14857591170E-02  0.13760838058E-01  0.67348077278E-01  0.51100000000E-03 0. -1.
         11    1    4    4    0    0 -0.56150732291E-01  0.17868125938E-01  0.15218851291E-01  0.60860900560E-01  0.51100000000E-03 0.  1.
</event>
<event>
 8    1  0.1090774E+005  0.1043930E+01  0.7957747E-01            NaN
         13   -1    0    0    0    0  0.00000000000E+00  0.00000000000E+00  0.74505805969E-08  0.10566000000E+00  0.10566000000E+00 0. -1.
     999900   -1    0    0    0    0 -0.00000000000E+00 -0.00000000000E+00 -0.74505805969E-08  0.93827000000E+00  0.93827000000E+00 0. -1.
     999902    2    1    2    0    0  0.51338246491E-02  0.12727688830E-01 -0.16210261991E-01  0.10226903481E+01  0.10224697674E+01 0.  0.
     999903    2    3    3    0    0  0.71567312876E-01  0.13945507553E-01  0.10788577812E+00  0.13150309584E+00  0.18367515924E-01 0.  0.
         14    1    1    2    0    0 -0.51338246491E-02 -0.12727688830E-01  0.16210261991E-01  0.21239651888E-01  0.00000000000E+00 0. -1.
     999901    1    3    3    0    0 -0.66433488227E-01 -0.12178187225E-02 -0.12409604011E+00  0.89118725227E+00  0.88000000000E+00 0. -1.
        -11    1    4    4    0    0  0.26785808572E-01  0.65622152550E-02  0.56952501457E-01  0.63280255634E-01  0.51100000000E-03 0.  1.
         11    1    4    4    0    0  0.44781504304E-01  0.73832922979E-02  0.50933276666E-01  0.68222840206E-01  0.51100000000E-03 0. -1.
</event>
<event>
 8    1  0.1090774E+005  0.1043930E+01  0.7957747E-01            NaN
         13   -1    0    0    0    0  0.00000000000E+00  0.00000000000E+00  0.74505805969E-08  0.10566000000E+00  0.10566000000E+00 0. -1.
     999900   -1    0    0    0    0 -0.00000000000E+00 -0.00000000000E+00 -0.74505805969E-08  0.93827000000E+00  0.93827000000E+00 0.  1.
     999902    2    1    2    0    0 -0.16876958482E-01 -0.22869955931E-01 -0.47218838504E-02  0.10151174541E+01  0.10147084719E+01 0.  0.
     999903    2    3    3    0    0  0.75626987752E-01 -0.96508473769E-01 -0.23448563271E-01  0.12701256174E+00  0.23431366480E-01 0.  0.
         14    1    1    2    0    0  0.16876958482E-01  0.22869955931E-01  0.47218838504E-02  0.28812545861E-01  0.00000000000E+00 0. -1.
     999901    1    3    3    0    0 -0.92503946234E-01  0.73638517838E-01  0.18726679421E-01  0.88810489240E+00  0.88000000000E+00 0. -1.
        -11    1    4    4    0    0  0.33693899123E-01 -0.46446572000E-01  0.69340923474E-03  0.57387322869E-01  0.51100000000E-03 0.  1.
         11    1    4    4    0    0  0.41933088628E-01 -0.50061901768E-01 -0.24141972506E-01  0.69625238873E-01  0.51100000000E-03 0. -1.
</event>
<event>
 8    1  0.1090774E+005  0.1043930E+01  0.7957747E-01            NaN
         13   -1    0    0    0    0  0.00000000000E+00  0.00000000000E+00  0.74505805969E-08  0.10566000000E+00  0.10566000000E+00 0.  1.
     999900   -1    0    0    0    0 -0.00000000000E+00 -0.00000000000E+00 -0.74505805969E-08  0.93827000000E+00  0.93827000000E+00 0. -1.
     999902    2    1    2    0    0  0.13679081392E-01  0.15967537101E-01  0.10037056795E-01  0.10206314589E+01  0.10203654996E+01 0.  0.
     999903    2    3    3    0    0  0.20746625784E-01  0.61711187799E-01  0.11443743860E+00  0.13325224374E+00  0.20531437549E-01 0.  0.
         14    1    1    2    0    0 -0.13679081392E-01 -0.15967537101E-01 -0.10037056795E-01  0.23298541111E-01  0.00000000000E+00 0. -1.
     999901    1    3    3    0    0 -0.70675443925E-02 -0.45743650699E-01 -0.10440038180E+00  0.88737921515E+00  0.88000000000E+00 0.  1.
        -11    1    4    4    0    0  0.23996034693E-01  0.43081979200E-01  0.80862719173E-01  0.94714872569E-01  0.51100000000E-03 0. -1.
         11    1    4    4    0    0 -0.32494089083E-02  0.18629208599E-01  0.33574719422E-01  0.38537371168E-01  0.51100000000E-03 0.  1.
</event>
<event>
 8    1  0.1090774E+005  0.1043930E+01  0.7957747E-01            NaN
         13   -1    0    0    0    0  0.00000000000E+00  0.00000000000E+00  0.74505805969E-08  0.10566000000E+00  0.10566000000E+00 0. -1.
     999900   -1    0    0    0    0 -0.00000000000E+00 -0.00000000000E+00 -0.74505805969E-08  0.93827000000E+00  0.93827000000E+00 0.  1.
     999902    2    1    2    0    0 -0.12322818214E-01  0.12087835157E-01  0.15564113447E-01  0.10206875983E+01  0.10204229340E+01 0.  0.
     999903    2    3    3    0    0 -0.39000287989E-01  0.12025061863E+00  0.37827328619E-01  0.13338464789E+00  0.19476235736E-01 0.  0.
         14    1    1    2    0    0  0.12322818214E-01 -0.12087835157E-01 -0.15564113447E-01  0.23242401660E-01  0.00000000000E+00 0.  1.
     999901    1    3    3    0    0  0.26677469775E-01 -0.10816278347E+00 -0.22263215172E-01  0.88730295045E+00  0.88000000000E+00 0. -1.
        -11    1    4    4    0    0 -0.50879084077E-03  0.27138511215E-01  0.84901154271E-02  0.28444697925E-01  0.51100000000E-03 0.  1.
         11    1    4    4    0    0 -0.38491497148E-01  0.93112107417E-01  0.29337213192E-01  0.10493994997E+00  0.51100000000E-03 0. -1.
</event>
<event>
 8    1  0.1090774E+005  0.1043930E+01  0.7957747E-01            NaN
         13   -1    0    0    0    0  0.00000000000E+00  0.00000000000E+00  0.74505805969E-08  0.10566000000E+00  0.10566000000E+00 0.  1.
     999900   -1    0    0    0    0 -0.00000000000E+00 -0.00000000000E+00 -0.74505805969E-08  0.93827000000E+00  0.93827000000E+00 0. -1.
     999902    2    1    2    0    0  0.12092955040E-01 -0.99162992223E-02 -0.24394586772E-01  0.10149529674E+01  0.10145392342E+01 0.  0.
     999903    2    3    3    0    0  0.33484816347E-01 -0.19921931918E-02 -0.12296542730E+00  0.12915580455E+00  0.20869206461E-01 0.  0.
         14    1    1    2    0    0 -0.12092955040E-01  0.99162992223E-02  0.24394586772E-01  0.28977032554E-01  0.00000000000E+00 0.  1.
     999901    1    3    3    0    0 -0.21391861306E-01 -0.79241060306E-02  0.98570840532E-01  0.88579716289E+00  0.88000000000E+00 0.  1.
        -11    1    4    4    0    0  0.28585760288E-01 -0.98227562744E-02 -0.96036950238E-01  0.10068261600E+00  0.51100000000E-03 0. -1.
         11    1    4    4    0    0  0.48990560589E-02  0.78305630827E-02 -0.26928477065E-01  0.28473188555E-01  0.51100000000E-03 0.  1.
</event>
<event>
 8    1  0.1348455E+005  0.1043930E+01  0.7957747E-01            NaN
         13   -1    0    0    0    0  0.00000000000E+00  0.00000000000E+00  0.74505805969E-08  0.10566000000E+00  0.10566000000E+00 0.  1.
     999900   -1    0    0    0    0 -0.00000000000E+00 -0.00000000000E+00 -0.74505805969E-08  0.93827000000E+00  0.93827000000E+00 0. -1.
     999902    2    1    2    0    0  0.89728479742E-02  0.16594168639E-01 -0.16291846027E-01  0.10190040561E+01  0.10186991527E+01 0.  0.
     999903    2    3    3    0    0 -0.40282257334E-01 -0.41397299259E-01  0.11093607373E+00  0.12660503136E+00  0.19637333567E-01 0.  0.
         14    1    1    2    0    0 -0.89728479742E-02 -0.16594168639E-01  0.16291846027E-01  0.24925943925E-01  0.00000000000E+00 0.  1.
     999901    1    3    3    0    0  0.49255105309E-01  0.57991467898E-01 -0.12722791975E+00  0.89239902472E+00  0.88000000000E+00 0. -1.
        -11    1    4    4    0    0 -0.28871920564E-01 -0.33927922262E-01  0.65904989318E-01  0.79551369844E-01  0.51100000000E-03 0. -1.
         11    1    4    4    0    0 -0.11410336771E-01 -0.74693769970E-02  0.45031084409E-01  0.47053661515E-01  0.51100000000E-03 0.  1.
</event>
<event>
 8    1  0.1090774E+005  0.1043930E+01  0.7957747E-01            NaN
         13   -1    0    0    0    0  0.00000000000E+00  0.00000000000E+00  0.74505805969E-08  0.10566000000E+00  0.10566000000E+00 0.  1.
     999900   -1    0    0    0    0 -0.00000000000E+00 -0.00000000000E+00 -0.74505805969E-08  0.93827000000E+00  0.93827000000E+00 0.  1.
     999902    2    1    2    0    0 -0.11076985097E-01 -0.18036373891E-01 -0.10720878303E-01  0.10202034829E+01  0.10199275459E+01 0.  0.
     999903    2    3    3    0    0  0.57758981601E-01 -0.46162008348E-01  0.10537450512E+00  0.12946919049E+00  0.13836689895E-01 0.  0.
         14    1    1    2    0    0  0.11076985097E-01  0.18036373891E-01  0.10720878303E-01  0.23726517097E-01  0.00000000000E+00 0. -1.
     999901    1    3    3    0    0 -0.68835966699E-01  0.28125634458E-01 -0.11609538342E+00  0.89073429241E+00  0.88000000000E+00 0. -1.
        -11    1    4    4    0    0  0.28112912761E-01 -0.30671418597E-01  0.62589752924E-01  0.75158566211E-01  0.51100000000E-03 0. -1.
         11    1    4    4    0    0  0.29646068840E-01 -0.15490589751E-01  0.42784752195E-01  0.54310624282E-01  0.51100000000E-03 0.  1.
</event>
<event>
 8    1  0.1090774E+005  0.1043930E+01  0.7957747E-01            NaN
         13   -1    0    0    0    0  0.00000000000E+00  0.00000000000E+00  0.74505805969E-08  0.10566000000E+00  0.10566000000E+00 0. -1.
     999900   -1    0    0    0    0 -0.00000000000E+00 -0.00000000000E+00 -0.74505805969E-08  0.93827000000E+00  0.93827000000E+00 0.  1.
     999902    2    1    2    0    0  0.22688527656E-01 -0.36960420573E-02  0.57142989005E-03  0.10209352931E+01  0.10206763033E+01 0.  0.
     999903    2    3    3    0    0  0.33148097925E-01 -0.11635533550E+00  0.49790279414E-01  0.13232738508E+00  0.19852063474E-01 0.  0.
         14    1    1    2    0    0 -0.22688527656E-01  0.36960420573E-02 -0.57142989005E-03  0.22994706918E-01  0.00000000000E+00 0. -1.
     999901    1    3    3    0    0 -0.10459570268E-01  0.11265929344E+00 -0.49218849524E-01  0.88860790800E+00  0.88000000000E+00 0. -1.
        -11    1    4    4    0    0  0.26319502330E-01 -0.94599890072E-01  0.31598377951E-01  0.10315315804E+00  0.51100000000E-03 0. -1.
         11    1    4    4    0    0  0.68285955948E-02 -0.21755445426E-01  0.18191901463E-01  0.29174227039E-01  0.51100000000E-03 0.  1.
</event>
<event>
 8    1  0.1090774E+005  0.1043930E+01  0.7957747E-01            NaN
         13   -1    0    0    0    0  0.00000000000E+00  0.00000000000E+00  0.74505805969E-08  0.10566000000E+00  0.10566000000E+00 0.  1.
     999900   -1    0    0    0    0 -0.00000000000E+00 -0.00000000000E+00 -0.74505805969E-08  0.93827000000E+00  0.93827000000E+00 0.  1.
     999902    2    1    2    0    0  0.12674813613E-01  0.10473774473E-02 -0.19881337990E-01  0.10203288242E+01  0.10200558288E+01 0.  0.
     999903    2    3    3    0    0  0.49959431234E-01 -0.35980070866E-01  0.11161865874E+00  0.12900765660E+00  0.19842888258E-01 0.  0.
         14    1    1    2    0    0 -0.12674813613E-01 -0.10473774473E-02  0.19881337990E-01  0.23601175817E-01  0.00000000000E+00 0.  1.
     999901    1    3    3    0    0 -0.37284617621E-01  0.37027448313E-01 -0.13149999673E+00  0.89132116758E+00  0.88000000000E+00 0.  1.
        -11    1    4    4    0    0  0.46214535267E-01 -0.35272452586E-01  0.90670281665E-01  0.10770928595E+00  0.51100000000E-03 0.  1.
         11    1    4    4    0    0  0.37448959671E-02 -0.70761827978E-03  0.20948377074E-01  0.21298370653E-01  0.51100000000E-03 0. -1.
</event>
<event>
 8    1  0.1090774E+005  0.1043930E+01  0.7957747E-01            NaN
         13   -1    0    0    0    0  0.00000000000E+00  0.00000000000E+00  0.74505805969E-08  0.10566000000E+00  0.10566000000E+00 0.  1.
     999900   -1    0    0    0    0 -0.00000000000E+00 -0.00000000000E+00 -0.74505805969E-08  0.93827000000E+00  0.93827000000E+00 0. -1.
     999902    2    1    2    0    0 -0.15481744939E-01  0.16179643789E-01 -0.24215382831E-02  0.10214060317E+01  0.10211576531E+01 0.  0.
     999903    2    3    3    0    0 -0.78864889286E-01  0.96498536875E-01 -0.47115669620E-01  0.13435129105E+00  0.17284232720E-01 0.  0.
         14    1    1    2    0    0  0.15481744939E-01 -0.16179643789E-01  0.24215382831E-02  0.22523968282E-01  0.00000000000E+00 0. -1.
     999901    1    3    3    0    0  0.63383144348E-01 -0.80318893086E-01  0.44694131336E-01  0.88705474067E+00  0.88000000000E+00 0.  1.
        -11    1    4    4    0    0 -0.44845006022E-01  0.44141958020E-01 -0.17966298945E-01  0.65441852371E-01  0.51100000000E-03 0. -1.
         11    1    4    4    0    0 -0.34019883264E-01  0.52356578855E-01 -0.29149370675E-01  0.68909438675E-01  0.51100000000E-03 0.  1.
</event>
<event>
 8    1  0.1090774E+005  0.1043930E+01  0.7957747E-01            NaN
         13   -1    0    0    0    0  0.00000000000E+00  0.00000000000E+00  0.74505805969E-08  0.10566000000E+00  0.10566000000E+00 0. -1.
     999900   -1    0    0    0    0 -0.00000000000E+00 -0.00000000000E+00 -0.74505805969E-08  0.93827000000E+00  0.93827000000E+00 0. -1.
     999902    2    1    2    0    0 -0.83572209916E-02 -0.13881724110E-01 -0.19479503248E-01  0.10185923511E+01  0.10182771632E+01 0.  0.
     999903    2    3    3    0    0  0.67074393347E-01 -0.94752868571E-01  0.51903267511E-01  0.12880272963E+00  0.20472265045E-01 0.  0.
         14    1    1    2    0    0  0.83572209916E-02  0.13881724110E-01  0.19479503248E-01  0.25337648939E-01  0.00000000000E+00 0. -1.
     999901    1    3    3    0    0 -0.75431614339E-01  0.80871144460E-01 -0.71382770759E-01  0.88978962143E+00  0.88000000000E+00 0.  1.
        -11    1    4    4    0    0  0.52355155553E-01 -0.68766079166E-01  0.47462557755E-01  0.98604216271E-01  0.51100000000E-03 0.  1.
         11    1    4    4    0    0  0.14719237794E-01 -0.25986789405E-01  0.44407097556E-02  0.30198513357E-01  0.51100000000E-03 0. -1.
</event>
<event>
 8    1  0.1090774E+005  0.1043930E+01  0.7957747E-01            NaN
         13   -1    0    0    0    0  0.00000000000E+00  0.00000000000E+00  0.74505805969E-08  0.10566000000E+00  0.10566000000E+00 0. -1.
     999900   -1    0    0    0    0 -0.00000000000E+00 -0.00000000000E+00 -0.74505805969E-08  0.93827000000E+00  0.93827000000E+00 0. -1.
     999902    2    1    2    0    0 -0.28017775759E-02 -0.61258707294E-03  0.21648299128E-01  0.10220925534E+01  0.10218592435E+01 0.  0.
     999903    2    3    3    0    0  0.66345867970E-01 -0.11225470634E+00  0.97875293739E-02  0.13226895425E+00  0.19909476034E-01 0.  0.
         14    1    1    2    0    0  0.28017775759E-02  0.61258707294E-03 -0.21648299128E-01  0.21837446637E-01  0.00000000000E+00 0.  1.
     999901    1    3    3    0    0 -0.69147645546E-01  0.11164211926E+00  0.11860769754E-01  0.88982359911E+00  0.88000000000E+00 0. -1.
        -11    1    4    4    0    0  0.32080296989E-01 -0.73316503636E-01  0.53161978614E-02  0.80205849170E-01  0.51100000000E-03 0. -1.
         11    1    4    4    0    0  0.34265570981E-01 -0.38938202700E-01  0.44713315125E-02  0.52063105081E-01  0.51100000000E-03 0.  1.
</event>
<event>
 8    1  0.1090774E+005  0.1043930E+01  0.7957747E-01            NaN
         13   -1    0    0    0    0  0.00000000000E+00  0.00000000000E+00  0.74505805969E-08  0.10566000000E+00  0.10566000000E+00 0.  1.
     999900   -1    0    0    0    0 -0.00000000000E+00 -0.00000000000E+00 -0.74505805969E-08  0.93827000000E+00  0.93827000000E+00 0. -1.
     999902    2    1    2    0    0 -0.98448257047E-02 -0.14775604018E-01 -0.15369374783E-01  0.10204468838E+01  0.10201766444E+01 0.  0.
     999903    2    3    3    0    0  0.59083435909E-01 -0.10740649212E+00  0.42902793624E-01  0.13099355036E+00  0.17077868363E-01 0.  0.
         14    1    1    2    0    0  0.98448257047E-02  0.14775604018E-01  0.15369374783E-01  0.23483116243E-01  0.00000000000E+00 0.  1.
     999901    1    3    3    0    0 -0.68928261614E-01  0.92630888098E-01 -0.58272168407E-01  0.88945333340E+00  0.88000000000E+00 0.  1.
        -11    1    4    4    0    0  0.21831573193E-01 -0.39646204143E-01  0.24659073618E-01  0.51543866015E-01  0.51100000000E-03 0.  1.
         11    1    4    4    0    0  0.37251862716E-01 -0.67760287973E-01  0.18243720006E-01  0.79449684346E-01  0.51100000000E-03 0. -1.
</event>
<event>
 8    1  0.1090774E+005  0.1043930E+01  0.7957747E-01            NaN
         13   -1    0    0    0    0  0.00000000000E+00  0.00000000000E+00  0.74505805969E-08  0.10566000000E+00  0.10566000000E+00 0.  1.
     999900   -1    0    0    0    0 -0.00000000000E+00 -0.00000000000E+00 -0.74505805969E-08  0.93827000000E+00  0.93827000000E+00 0.  1.
     999902    2    1    2    0    0  0.46834807525E-03 -0.13058063950E-01  0.19430519667E-01  0.10205146743E+01  0.10202460110E+01 0.  0.
     999903    2    3    3    0    0  0.38736263837E-01  0.23310335981E-01  0.12257262641E+00  0.13291939034E+00  0.24487663896E-01 0.  0.
         14    1    1    2    0    0 -0.46834807525E-03  0.13058063950E-01 -0.19430519667E-01  0.23415325719E-01  0.00000000000E+00 0. -1.
     999901    1    3    3    0    0 -0.38267915762E-01 -0.36368399930E-01 -0.10314210675E+00  0.88759528394E+00  0.88000000000E+00 0.  1.
        -11    1    4    4    0    0  0.26187009020E-01  0.12084749402E-01  0.44363627760E-01  0.52916851744E-01  0.51100000000E-03 0. -1.
         11    1    4    4    0    0  0.12549254818E-01  0.11225586579E-01  0.78208998653E-01  0.80002538596E-01  0.51100000000E-03 0.  1.
</event>
<event>
 8    1  0.1090774E+005  0.1043930E+01  0.7957747E-01            NaN
         13   -1    0    0    0    0  0.00000000000E+00  0.00000000000E+00  0.74505805969E-08  0.10566000000E+00  0.10566000000E+00 0. -1.
     999900   -1    0    0    0    0 -0.00000000000E+00 -0.00000000000E+00 -0.74505805969E-08  0.93827000000E+00  0.93827000000E+00 0.  1.
     999902    2    1    2    0    0  0.66854345045E-02 -0.19231923454E-01 -0.69972293347E-02  0.10224004126E+01  0.10221737037E+01 0.  0.
     999903    2    3    3    0    0  0.24775126908E-01  0.50202548852E-01 -0.11822331622E+00  0.13250175248E+00  0.21115375668E-01 0.  0.
         14    1    1    2    0    0 -0.66854345045E-02  0.19231923454E-01  0.69972293347E-02  0.21529587377E-01  0.00000000000E+00 0. -1.
     999901    1    3    3    0    0 -0.18089692403E-01 -0.69434472306E-01  0.11122608688E+00  0.88989866014E+00  0.88000000000E+00 0. -1.
        -11    1    4    4    0    0  0.14420944474E-01  0.27835559363E-01 -0.42142599426E-01  0.52526581956E-01  0.51100000000E-03 0. -1.
         11    1    4    4    0    0  0.10354182433E-01  0.22366989489E-01 -0.76080716790E-01  0.79975170528E-01  0.51100000000E-03 0.  1.
</event>
<event>
 8    1  0.1090774E+005  0.1043930E+01  0.7957747E-01            NaN
         13   -1    0    0    0    0  0.00000000000E+00  0.00000000000E+00  0.74505805969E-08  0.10566000000E+00  0.10566000000E+00 0.  1.
     999900   -1    0    0    0    0 -0.00000000000E+00 -0.00000000000E+00 -0.74505805969E-08  0.93827000000E+00  0.93827000000E+00 0.  1.
     999902    2    1    2    0    0  0.65605764692E-02  0.88029923571E-02  0.20399198222E-01  0.10207640524E+01  0.10205011463E+01 0.  0.
     999903    2    3    3    0    0  0.22476435019E-01 -0.50834890055E-01  0.11941413021E+00  0.13306255513E+00  0.18882079009E-01 0.  0.
         14    1    1    2    0    0 -0.65605764692E-02 -0.88029923571E-02 -0.20399198222E-01  0.23165947556E-01  0.00000000000E+00 0. -1.
     999901    1    3    3    0    0 -0.15915858550E-01  0.59637882412E-01 -0.99014931984E-01  0.88770149731E+00  0.88000000000E+00 0.  1.
        -11    1    4    4    0    0  0.14961181424E-01 -0.17541906080E-01  0.63438941274E-01  0.67500487475E-01  0.51100000000E-03 0.  1.
         11    1    4    4    0    0  0.75152535956E-02 -0.33292983975E-01  0.55975188933E-01  0.65562067658E-01  0.51100000000E-03 0. -1.
</event>
<event>
 8    1  0.1090774E+005  0.1043930E+01  0.7957747E-01            NaN
         13   -1    0    0    0    0  0.00000000000E+00  0.00000000000E+00  0.74505805969E-08  0.10566000000E+00  0.10566000000E+00 0.  1.
     999900   -1    0    0    0    0 -0.00000000000E+00 -0.00000000000E+00 -0.74505805969E-08  0.93827000000E+00  0.93827000000E+00 0.  1.
     999902    2    1    2    0    0  0.20007601227E-01  0.13112858488E-01  0.23382680479E-02  0.10198942212E+01  0.10196109571E+01 0.  0.
     999903    2    3    3    0    0 -0.48143658940E-01 -0.84657896744E-01 -0.80825014379E-01  0.12797502847E+00  0.18977712828E-01 0.  0.
         14    1    1    2    0    0 -0.20007601227E-01 -0.13112858488E-01 -0.23382680479E-02  0.24035778791E-01  0.00000000000E+00 0. -1.
     999901    1    3    3    0    0  0.68151260167E-01  0.97770755232E-01  0.83163282427E-01  0.89191919274E+00  0.88000000000E+00 0.  1.
        -11    1    4    4    0    0 -0.41472561440E-01 -0.55426846969E-01 -0.57124339415E-01  0.89752771499E-01  0.51100000000E-03 0. -1.
         11    1    4    4    0    0 -0.66710975001E-02 -0.29231049775E-01 -0.23700674964E-01  0.38222256966E-01  0.51100000000E-03 0.  1.
</event>
<event>
 8    1  0.1090774E+005  0.1043930E+01  0.7957747E-01            NaN
         13   -1    0    0    0    0  0.00000000000E+00  0.00000000000E+00  0.74505805969E-08  0.10566000000E+00  0.10566000000E+00 0.  1.
     999900   -1    0    0    0    0 -0.00000000000E+00 -0.00000000000E+00 -0.74505805969E-08  0.93827000000E+00  0.93827000000E+00 0. -1.
     999902    2    1    2    0    0 -0.12857738604E-01 -0.17145509239E-01  0.86865616835E-02  0.10208054182E+01  0.10205434609E+01 0.  0.
     999903    2    3    3    0    0  0.11207303421E+00  0.49198742907E-01 -0.32772053731E-01  0.12854532464E+00  0.21656677480E-01 0.  0.
         14    1    1    2    0    0  0.12857738604E-01  0.17145509239E-01 -0.86865616835E-02  0.23124581790E-01  0.00000000000E+00 0.  1.
     999901    1    3    3    0    0 -0.12493077282E+00 -0.66344252146E-01  0.41458615414E-01  0.89226009357E+00  0.88000000000E+00 0. -1.
        -11    1    4    4    0    0  0.10445378103E+00  0.50958957458E-01 -0.28698900960E-01  0.11971339004E+00  0.51100000000E-03 0. -1.
         11    1    4    4    0    0  0.76192531807E-02 -0.17602145510E-02 -0.40731527708E-02  0.88319346007E-02  0.51100000000E-03 0.  1.
</event>
<event>
 8    1  0.1090774E+005  0.1043930E+01  0.7957747E-01            NaN
         13   -1    0    0    0    0  0.00000000000E+00  0.00000000000E+00  0.74505805969E-08  0.10566000000E+00  0.10566000000E+00 0. -1.
     999900   -1    0    0    0    0 -0.00000000000E+00 -0.00000000000E+00 -0.74505805969E-08  0.93827000000E+00  0.93827000000E+00 0. -1.
     999902    2    1    2    0    0  0.77687367520E-02  0.21560502328E-01  0.11887409224E-01  0.10181129702E+01  0.10177855869E+01 0.  0.
     999903    2    3    3    0    0 -0.71268685049E-01  0.72082584021E-01 -0.76883380380E-01  0.12868638642E+00  0.19339273100E-01 0.  0.
         14    1    1    2    0    0 -0.77687367520E-02 -0.21560502328E-01 -0.11887409224E-01  0.25817029834E-01  0.00000000000E+00 0.  1.
     999901    1    3    3    0    0  0.79037421801E-01 -0.50522081693E-01  0.88770789605E-01  0.88942658374E+00  0.88000000000E+00 0.  1.
        -11    1    4    4    0    0 -0.44188395544E-01  0.32780896581E-01 -0.47076864686E-01  0.72413353679E-01  0.51100000000E-03 0. -1.
         11    1    4    4    0    0 -0.27080289505E-01  0.39301687440E-01 -0.29806515694E-01  0.56273032743E-01  0.51100000000E-03 0.  1.
</event>
<event>
 8    1  0.1090774E+005  0.1043930E+01  0.7957747E-01            NaN
         13   -1    0    0    0    0  0.00000000000E+00  0.00000000000E+00  0.74505805969E-08  0.10566000000E+00  0.10566000000E+00 0. -1.
     999900   -1    0    0    0    0 -0.00000000000E+00 -0.00000000000E+00 -0.74505805969E-08  0.93827000000E+00  0.93827000000E+00 0. -1.
     999902    2    1    2    0    0 -0.14416730820E-01  0.66382164455E-02 -0.18356313775E-01  0.10196635149E+01  0.10193747207E+01 0.  0.
     999903    2    3    3    0    0 -0.98757094580E-02 -0.66399562916E-01 -0.11157061579E+00  0.13171979808E+00  0.19891488252E-01 0.  0.
         14    1    1    2    0    0  0.14416730820E-01 -0.66382164455E-02  0.18356313775E-01  0.24266485130E-01  0.00000000000E+00 0. -1.
     999901    1    3    3    0    0 -0.45410213622E-02  0.73037779361E-01  0.93214302017E-01  0.88794371679E+00  0.88000000000E+00 0.  1.
        -11    1    4    4    0    0  0.33100728180E-02 -0.43079524162E-01 -0.67732319860E-01  0.80341335928E-01  0.51100000000E-03 0. -1.
         11    1    4    4    0    0 -0.13185782276E-01 -0.23320038754E-01 -0.43838295932E-01  0.51378462150E-01  0.51100000000E-03 0.  1.
</event>
<event>
 8    1  0.1090774E+005  0.1043930E+01  0.7957747E-01            NaN
         13   -1    0    0    0    0  0.00000000000E+00  0.00000000000E+00  0.74505805969E-08  0.10566000000E+00  0.10566000000E+00 0.  1.
     999900   -1    0    0    0    0 -0.00000000000E+00 -0.00000000000E+00 -0.74505805969E-08  0.93827000000E+00  0.93827000000E+00 0. -1.
     999902    2    1    2    0    0  0.42159113319E-04 -0.98446098429E-02 -0.21183975183E-01  0.10205702285E+01  0.10203028533E+01 0.  0.
     999903    2    3    3    0    0 -0.14867197546E-01 -0.39685228644E-01  0.11994219316E+00  0.12870177023E+00  0.19546483740E-01 0.  0.
         14    1    1    2    0    0 -0.42159113319E-04  0.98446098429E-02  0.21183975183E-01  0.23359771508E-01  0.00000000000E+00 0.  1.
     999901    1    3    3    0    0  0.14909356660E-01  0.29840618801E-01 -0.14112616834E+00  0.89186845826E+00  0.88000000000E+00 0. -1.
        -11    1    4    4    0    0 -0.12444962244E-01 -0.33101916833E-01  0.71688682878E-01  0.79938365989E-01  0.51100000000E-03 0.  1.
         11    1    4    4    0    0 -0.24222353027E-02 -0.65833118109E-02  0.48253510279E-01  0.48763404244E-01  0.51100000000E-03 0. -1.
</event>
<event>
 8    1  0.1090774E+005  0.1043930E+01  0.7957747E-01            NaN
         13   -1    0    0    0    0  0.00000000000E+00  0.00000000000E+00  0.74505805969E-08  0.10566000000E+00  0.10566000000E+00 0.  1.
     999900   -1    0    0    0    0 -0.00000000000E+00 -0.00000000000E+00 -0.74505805969E-08  0.93827000000E+00  0.93827000000E+00 0. -1.
     999902    2    1    2    0    0  0.21217707780E-01 -0.94989269730E-02 -0.43105921817E-02  0.10202867781E+01  0.10200127978E+01 0.  0.
     999903    2    3    3    0    0  0.42506063132E-01  0.35924449421E-01  0.11622375596E+00  0.13065482820E+00  0.21572927746E-01 0.  0.
         14    1    1    2    0    0 -0.21217707780E-01  0.94989269730E-02  0.43105921817E-02  0.23643221905E-01  0.00000000000E+00 0. -1.
     999901    1    3    3    0    0 -0.21288355352E-01 -0.45423376394E-01 -0.12053434815E+00  0.88963194990E+00  0.88000000000E+00 0. -1.
        -11    1    4    4    0    0  0.17979704199E-01  0.34821520784E-02  0.27390040523E-01  0.32952550539E-01  0.51100000000E-03 0. -1.
         11    1    4    4    0    0  0.24526358932E-01  0.32442297343E-01  0.88833715441E-01  0.97702277658E-01  0.51100000000E-03 0.  1.
</event>
<event>
 8    1  0.1090774E+005  0.1043930E+01  0.7957747E-01            NaN
         13   -1    0    0    0    0  0.00000000000E+00  0.00000000000E+00  0.74505805969E-08  0.10566000000E+00  0.10566000000E+00 0. -1.
     999900   -1    0    0    0    0 -0.00000000000E+00 -0.00000000000E+00 -0.74505805969E-08  0.93827000000E+00  0.93827000000E+00 0. -1.
     999902    2    1    2    0    0  0.10192255111E-01 -0.95031837520E-03 -0.21343364691E-01  0.10202588280E+01  0.10199841919E+01 0.  0.
     999903    2    3    3    0    0  0.87586887980E-01  0.41513944442E-02  0.93132878092E-01  0.12946100195E+00  0.19942944167E-01 0.  0.
         14    1    1    2    0    0 -0.10192255111E-01  0.95031837520E-03  0.21343364691E-01  0.23671172037E-01  0.00000000000E+00 0.  1.
     999901    1    3    3    0    0 -0.77394632869E-01 -0.51017128194E-02 -0.11447624278E+00  0.89079782601E+00  0.88000000000E+00 0. -1.
        -11    1    4    4    0    0  0.23670188080E-02 -0.27385973149E-02  0.80477391664E-02  0.88391130766E-02  0.51100000000E-03 0. -1.
         11    1    4    4    0    0  0.85219869172E-01  0.68899917591E-02  0.85085138926E-01  0.12062188887E+00  0.51100000000E-03 0.  1.
</event>
<event>
 8    1  0.1108784E+005  0.1043930E+01  0.7957747E-01            NaN
         13   -1    0    0    0    0  0.00000000000E+00  0.00000000000E+00  0.74505805969E-08  0.10566000000E+00  0.10566000000E+00 0.  1.
     999900   -1    0    0    0    0 -0.00000000000E+00 -0.00000000000E+00 -0.74505805969E-08  0.93827000000E+00  0.93827000000E+00 0.  1.
     999902    2    1    2    0    0  0.15013973053E-01 -0.83667231815E-02 -0.16865616569E-01  0.10198495003E+01  0.10195651685E+01 0.  0.
     999903    2    3    3    0    0 -0.75366827903E-01  0.23622976469E-01  0.97719907888E-01  0.12725671942E+00  0.20171476735E-01 0.  0.
         14    1    1    2    0    0 -0.15013973053E-01  0.83667231815E-02  0.16865616569E-01  0.24080499702E-01  0.00000000000E+00 0.  1.
     999901    1    3    3    0    0  0.90380800956E-01 -0.31989699650E-01 -0.11458552446E+00  0.89259278088E+00  0.88000000000E+00 0.  1.
        -11    1    4    4    0    0 -0.28594700003E-01 -0.98183389567E-03  0.32220647517E-01  0.43093527512E-01  0.51100000000E-03 0. -1.
         11    1    4    4    0    0 -0.46772127900E-01  0.24604810365E-01  0.65499260371E-01  0.84163191905E-01  0.51100000000E-03 0.  1.
</event>
<event>
 8    1  0.1090774E+005  0.1043930E+01  0.7957747E-01            NaN
         13   -1    0    0    0    0  0.00000000000E+00  0.00000000000E+00  0.74505805969E-08  0.10566000000E+00  0.10566000000E+00 0. -1.
     999900   -1    0    0    0    0 -0.00000000000E+00 -0.00000000000E+00 -0.74505805969E-08  0.93827000000E+00  0.93827000000E+00 0. -1.
     999902    2    1    2    0    0 -0.71417240340E-02  0.18201022492E-01  0.13011385882E-01  0.10204443106E+01  0.10201740114E+01 0.  0.
     999903    2    3    3    0    0  0.30435446611E-01  0.70491694408E-02  0.12709294662E+00  0.13221516787E+00  0.18767693867E-01 0.  0.
         14    1    1    2    0    0  0.71417240340E-02 -0.18201022492E-01 -0.13011385882E-01  0.23485689355E-01  0.00000000000E+00 0.  1.
     999901    1    3    3    0    0 -0.37577170645E-01  0.11151853051E-01 -0.11408156074E+00  0.88822914278E+00  0.88000000000E+00 0. -1.
        -11    1    4    4    0    0  0.11863333433E-01  0.73642972084E-02  0.26886686267E-01  0.30300603508E-01  0.51100000000E-03 0. -1.
         11    1    4    4    0    0  0.18572113178E-01 -0.31512776762E-03  0.10020626035E+00  0.10191456436E+00  0.51100000000E-03 0.  1.
</event>
<event>
 8    1  0.1090774E+005  0.1043930E+01  0.7957747E-01            NaN
         13   -1    0    0    0    0  0.00000000000E+00  0.00000000000E+00  0.74505805969E-08  0.10566000000E+00  0.10566000000E+00 0.  1.
     999900   -1    0    0    0    0 -0.00000000000E+00 -0.00000000000E+00 -0.74505805969E-08  0.93827000000E+00  0.93827000000E+00 0. -1.
     999902    2    1    2    0    0 -0.23909592692E-01  0.53318162021E-02  0.42391247325E-02  0.10190690454E+01  0.10187657494E+01 0.  0.
     999903    2    3    3    0    0 -0.21958851121E-01 -0.98690860546E-01 -0.79829439457E-01  0.12896116081E+00  0.60136923192E-02 0.  0.
         14    1    1    2    0    0  0.23909592692E-01 -0.53318162021E-02 -0.42391247325E-02  0.24860954632E-01  0.00000000000E+00 0.  1.
     999901    1    3    3    0    0 -0.19507415707E-02  0.10402267675E+00  0.84068564189E-01  0.89010788456E+00  0.88000000000E+00 0.  1.
        -11    1    4    4    0    0 -0.17529444446E-01 -0.73576321834E-01 -0.56716627311E-01  0.94539904229E-01  0.51100000000E-03 0. -1.
         11    1    4    4    0    0 -0.44294066751E-02 -0.25114538712E-01 -0.23112812146E-01  0.34421256579E-01  0.51100000000E-03 0.  1.
</event>
<event>
 8    1  0.1090774E+005  0.1043930E+01  0.7957747E-01            NaN
         13   -1    0    0    0    0  0.00000000000E+00  0.00000000000E+00  0.74505805969E-08  0.10566000000E+00  0.10566000000E+00 0.  1.
     999900   -1    0    0    0    0 -0.00000000000E+00 -0.00000000000E+00 -0.74505805969E-08  0.93827000000E+00  0.93827000000E+00 0. -1.
     999902    2    1    2    0    0 -0.19551747005E-01 -0.13942815223E-01  0.21652003184E-02  0.10198185712E+01  0.10195334998E+01 0.  0.
     999903    2    3    3    0    0  0.43422966690E-01  0.40937611043E-01 -0.11207503459E+00  0.12851138114E+00  0.19822201418E-01 0.  0.
         14    1    1    2    0    0  0.19551747005E-01  0.13942815223E-01 -0.21652003184E-02  0.24111428819E-01  0.00000000000E+00 0.  1.
     999901    1    3    3    0    0 -0.62974713695E-01 -0.54880426266E-01  0.11424023491E+00  0.89130719004E+00  0.88000000000E+00 0. -1.
        -11    1    4    4    0    0  0.95835899485E-02  0.20118988643E-01 -0.30536506304E-01  0.37806854386E-01  0.51100000000E-03 0.  1.
         11    1    4    4    0    0  0.33839376741E-01  0.20818622401E-01 -0.81538528287E-01  0.90704526751E-01  0.51100000000E-03 0. -1.
</event>
<event>
 8    1  0.1090774E+005  0.1043930E+01  0.7957747E-01            NaN
         13   -1    0    0    0    0  0.00000000000E+00  0.00000000000E+00  0.74505805969E-08  0.10566000000E+00  0.10566000000E+00 0.  1.
     999900   -1    0    0    0    0 -0.00000000000E+00 -0.00000000000E+00 -0.74505805969E-08  0.93827000000E+00  0.93827000000E+00 0.  1.
     999902    2    1    2    0    0  0.11957628191E-01 -0.13366624090E-01 -0.15295545450E-01  0.10203587204E+01  0.10200864243E+01 0.  0.
     999903    2    3    3    0    0 -0.68894408209E-02  0.12061510937E+00  0.38557745517E-01  0.12839095536E+00  0.20051650226E-01 0.  0.
         14    1    1    2    0    0 -0.11957628191E-01  0.13366624090E-01  0.15295545450E-01  0.23571279603E-01  0.00000000000E+00 0.  1.
     999901    1    3    3    0    0  0.18847069012E-01 -0.13398173346E+00 -0.53853290967E-01  0.89196776503E+00  0.88000000000E+00 0. -1.
        -11    1    4    4    0    0 -0.52254270750E-02  0.49064748318E-01  0.25829957117E-01  0.55696520729E-01  0.51100000000E-03 0. -1.
         11    1    4    4    0    0 -0.16640137459E-02  0.71550361051E-01  0.12727788400E-01  0.72694434635E-01  0.51100000000E-03 0.  1.
</event>
<event>
 8    1  0.1090774E+005  0.1043930E+01  0.7957747E-01            NaN
         13   -1    0    0    0    0  0.00000000000E+00  0.00000000000E+00  0.74505805969E-08  0.10566000000E+00  0.10566000000E+00 0. -1.
     999900   -1    0    0    0    0 -0.00000000000E+00 -0.00000000000E+00 -0.74505805969E-08  0.93827000000E+00  0.93827000000E+00 0. -1.
     999902    2    1    2    0    0 -0.91384408616E-02  0.12734781745E-01 -0.17621755836E-01  0.10203458518E+01  0.10200732548E+01 0.  0.
     999903    2    3    3    0    0  0.15671827188E-01  0.17876944763E-02  0.12572221933E+00  0.12833526703E+00  0.20373078130E-01 0.  0.
         14    1    1    2    0    0  0.91384408616E-02 -0.12734781745E-01  0.17621755836E-01  0.23584148198E-01  0.00000000000E+00 0.  1.
     999901    1    3    3    0    0 -0.24810268050E-01  0.10947087269E-01 -0.14334397517E+00  0.89201058477E+00  0.88000000000E+00 0. -1.
        -11    1    4    4    0    0  0.12154976522E-01 -0.14626049772E-02  0.28861620898E-01  0.31355014741E-01  0.51100000000E-03 0. -1.
         11    1    4    4    0    0  0.35168506660E-02  0.32502994535E-02  0.96860598432E-01  0.96980252293E-01  0.51100000000E-03 0.  1.
</event>
<event>
 8    1  0.1090774E+005  0.1043930E+01  0.7957747E-01            NaN
         13   -1    0    0    0    0  0.00000000000E+00  0.00000000000E+00  0.74505805969E-08  0.10566000000E+00  0.10566000000E+00 0.  1.
     999900   -1    0    0    0    0 -0.00000000000E+00 -0.00000000000E+00 -0.74505805969E-08  0.93827000000E+00  0.93827000000E+00 0. -1.
     999902    2    1    2    0    0 -0.81937109271E-02  0.69877374160E-02 -0.21295896536E-01  0.10200662077E+01  0.10197870305E+01 0.  0.
     999903    2    3    3    0    0 -0.11901321076E+00 -0.46000578715E-01  0.19638548194E-01  0.13059200800E+00  0.19707927346E-01 0.  0.
         14    1    1    2    0    0  0.81937109271E-02 -0.69877374160E-02  0.21295896536E-01  0.23863792285E-01  0.00000000000E+00 0.  1.
     999901    1    3    3    0    0  0.11081949984E+00  0.52988316131E-01 -0.40934444731E-01  0.88947419971E+00  0.88000000000E+00 0. -1.
        -11    1    4    4    0    0 -0.70252892456E-01 -0.29854198651E-01  0.22705995789E-02  0.76368572194E-01  0.51100000000E-03 0. -1.
         11    1    4    4    0    0 -0.48760318307E-01 -0.16146380064E-01  0.17367948616E-01  0.54223435807E-01  0.51100000000E-03 0.  1.
</event>
<event>
 7    1  0.1090774E+005  0.1043930E+01  0.7957747E-01            NaN
         13   -1    0    0    0    0  0.00000000000E+00  0.00000000000E+00  0.74505805969E-08  0.10566000000E+00  0.10566000000E+00 0. -1.
     999900   -1    0    0    0    0 -0.00000000000E+00 -0.00000000000E+00 -0.74505805969E-08  0.93827000000E+00  0.93827000000E+00 0.  1.
     999902    2    1    2    0    0  0.11188752277E-01  0.19623950905E-01 -0.50206691498E-02  0.10207892406E+01  0.10205269124E+01 0.  0.
         14    1    1    2    0    0 -0.11188752277E-01 -0.19623950905E-01  0.50206691498E-02  0.23140759395E-01  0.00000000000E+00 0.  1.
     999901    1    3    3    0    0  0.20027056718E-02  0.76612767119E-01  0.10516388445E+00  0.88956897962E+00  0.88000000000E+00 0. -1.
        -11    1    3    3    0    0  0.18108958786E-01 -0.58071910222E-02 -0.34891411911E-01  0.39740780088E-01  0.51100000000E-03 0. -1.
         11    1    3    3    0    0 -0.89229121802E-02 -0.51181625192E-01 -0.75293141684E-01  0.91479480894E-01  0.51100000000E-03 0.  1.
</event>
<event>
 8    1  0.1090774E+005  0.1043930E+01  0.7957747E-01            NaN
         13   -1    0    0    0    0  0.00000000000E+00  0.00000000000E+00  0.74505805969E-08  0.10566000000E+00  0.10566000000E+00 0.  1.
     999900   -1    0    0    0    0 -0.00000000000E+00 -0.00000000000E+00 -0.74505805969E-08  0.93827000000E+00  0.93827000000E+00 0. -1.
     999902    2    1    2    0    0  0.47144779774E-02 -0.11121448060E-01 -0.22415039526E-01  0.10184673429E+01  0.10181489978E+01 0.  0.
     999903    2    3    3    0    0 -0.10937697597E+00 -0.13933178154E-01  0.60226016950E-01  0.12725787824E+00  0.20246928912E-01 0.  0.
         14    1    1    2    0    0 -0.47144779774E-02  0.11121448060E-01  0.22415039526E-01  0.25462657098E-01  0.00000000000E+00 0.  1.
     999901    1    3    3    0    0  0.11409145395E+00  0.28117300937E-02 -0.82641056477E-01  0.89120946466E+00  0.88000000000E+00 0.  1.
        -11    1    4    4    0    0 -0.10152514935E+00 -0.83669744760E-02  0.51033257139E-01  0.11393865309E+00  0.51100000000E-03 0. -1.
         11    1    4    4    0    0 -0.78518266192E-02 -0.55662036776E-02  0.91927598112E-02  0.13319225150E-01  0.51100000000E-03 0.  1.
</event>
<event>
 8    1  0.1090774E+005  0.1043930E+01  0.7957747E-01            NaN
         13   -1    0    0    0    0  0.00000000000E+00  0.00000000000E+00  0.74505805969E-08  0.10566000000E+00  0.10566000000E+00 0.  1.
     999900   -1    0    0    0    0 -0.00000000000E+00 -0.00000000000E+00 -0.74505805969E-08  0.93827000000E+00  0.93827000000E+00 0.  1.
     999902    2    1    2    0    0 -0.15779141021E-01 -0.11034655133E-01 -0.13779169874E-01  0.10202527867E+01  0.10199780088E+01 0.  0.
     999903    2    3    3    0    0 -0.23409125911E-01 -0.12707181437E+00 -0.21964289049E-01  0.13256487133E+00  0.19894268836E-01 0.  0.
         14    1    1    2    0    0  0.15779141021E-01  0.11034655133E-01  0.13779169874E-01  0.23677213258E-01  0.00000000000E+00 0.  1.
     999901    1    3    3    0    0  0.76299848898E-02  0.11603715924E+00  0.81851191749E-02  0.88768791541E+00  0.88000000000E+00 0.  1.
        -11    1    4    4    0    0 -0.18654892680E-01 -0.65761799313E-01 -0.38965501209E-02  0.68469434740E-01  0.51100000000E-03 0.  1.
         11    1    4    4    0    0 -0.47542332313E-02 -0.61310015061E-01 -0.18067738928E-01  0.64095436588E-01  0.51100000000E-03 0. -1.
</event>
<event>
 8    1  0.1090774E+005  0.1043930E+01  0.7957747E-01            NaN
         13   -1    0    0    0    0  0.00000000000E+00  0.00000000000E+00  0.74505805969E-08  0.10566000000E+00  0.10566000000E+00 0. -1.
     999900   -1    0    0    0    0 -0.00000000000E+00 -0.00000000000E+00 -0.74505805969E-08  0.93827000000E+00  0.93827000000E+00 0. -1.
     999902    2    1    2    0    0 -0.24356166904E-01  0.13294644162E-02 -0.20682017202E-02  0.10194500531E+01  0.10191560935E+01 0.  0.
     999903    2    3    3    0    0 -0.12438262663E+00 -0.60285797729E-02  0.40369174533E-01  0.13273681627E+00  0.21954738909E-01 0.  0.
         14    1    1    2    0    0  0.24356166904E-01 -0.13294644162E-02  0.20682017202E-02  0.24479946900E-01  0.00000000000E+00 0.  1.
     999901    1    3    3    0    0  0.10002645973E+00  0.73580441891E-02 -0.42437376253E-01  0.88671323683E+00  0.88000000000E+00 0. -1.
        -11    1    4    4    0    0 -0.70653556092E-01 -0.43841961663E-02  0.11501820517E-01  0.71719587008E-01  0.51100000000E-03 0. -1.
         11    1    4    4    0    0 -0.53729070538E-01 -0.16443836066E-02  0.28867354016E-01  0.61017229265E-01  0.51100000000E-03 0.  1.
</event>
<event>
 8    1  0.1090774E+005  0.1043930E+01  0.7957747E-01            NaN
         13   -1    0    0    0    0  0.00000000000E+00  0.00000000000E+00  0.74505805969E-08  0.10566000000E+00  0.10566000000E+00 0.  1.
     999900   -1    0    0    0    0 -0.00000000000E+00 -0.00000000000E+00 -0.74505805969E-08  0.93827000000E+00  0.93827000000E+00 0.  1.
     999902    2    1    2    0    0 -0.13008643985E-01  0.10174788823E-01 -0.17272242806E-01  0.10200326881E+01  0.10197527167E+01 0.  0.
     999903    2    3    3    0    0  0.29876192406E-01  0.88281078503E-01 -0.91933992837E-01  0.13238744441E+00  0.19708899094E-01 0.  0.
         14    1    1    2    0    0  0.13008643985E-01 -0.10174788823E-01  0.17272242806E-01  0.23897311930E-01  0.00000000000E+00 0.  1.
     999901    1    3    3    0    0 -0.42884836391E-01 -0.78106289679E-01  0.74661750031E-01  0.88764524366E+00  0.88000000000E+00 0. -1.
        -11    1    4    4    0    0  0.29968553008E-01  0.61771562442E-01 -0.63753484426E-01  0.93694226041E-01  0.51100000000E-03 0. -1.
         11    1    4    4    0    0 -0.92360602828E-04  0.26509516060E-01 -0.28180508411E-01  0.38693218366E-01  0.51100000000E-03 0.  1.
</event>
<event>
 8    1  0.1090774E+005  0.1043930E+01  0.7957747E-01            NaN
         13   -1    0    0    0    0  0.00000000000E+00  0.00000000000E+00  0.74505805969E-08  0.10566000000E+00  0.10566000000E+00 0. -1.
     999900   -1    0    0    0    0 -0.00000000000E+00 -0.00000000000E+00 -0.74505805969E-08  0.93827000000E+00  0.93827000000E+00 0.  1.
     999902    2    1    2    0    0  0.34936012118E-05  0.21411092680E-01  0.42173269209E-02  0.10221075174E+01  0.10218745306E+01 0.  0.
     999903    2    3    3    0    0 -0.10524796848E+00 -0.74524453940E-01  0.65537654333E-02  0.13065535470E+00  0.19920862580E-01 0.  0.
         14    1    1    2    0    0 -0.34936012118E-05 -0.21411092680E-01 -0.42173269209E-02  0.21822482634E-01  0.00000000000E+00 0.  1.
     999901    1    3    3    0    0  0.10525146208E+00  0.95935546619E-01 -0.23364385125E-02  0.89145216267E+00  0.88000000000E+00 0. -1.
        -11    1    4    4    0    0 -0.56199311356E-01 -0.40258374310E-01  0.13434864891E-01  0.70426245211E-01  0.51100000000E-03 0. -1.
         11    1    4    4    0    0 -0.49048657127E-01 -0.34266079630E-01 -0.68810994580E-02  0.60229109489E-01  0.51100000000E-03 0.  1.
</event>
<event>
 8    1  0.1090774E+005  0.1043930E+01  0.7957747E-01            NaN
         13   -1    0    0    0    0  0.00000000000E+00  0.00000000000E+00  0.74505805969E-08  0.10566000000E+00  0.10566000000E+00 0.  1.
     999900   -1    0    0    0    0 -0.00000000000E+00 -0.00000000000E+00 -0.74505805969E-08  0.93827000000E+00  0.93827000000E+00 0. -1.
     999902    2    1    2    0    0  0.27368695079E-02 -0.10198414556E-01 -0.67014309697E-02  0.10314237099E+01  0.10313478861E+01 0.  0.
     999903    2    3    3    0    0 -0.11950219644E+00 -0.65657696301E-01 -0.29988793936E-01  0.14094045773E+00  0.19317785229E-01 0.  0.
         14    1    1    2    0    0 -0.27368695079E-02  0.10198414556E-01  0.67014309697E-02  0.12506290065E-01  0.00000000000E+00 0.  1.
     999901    1    3    3    0    0  0.12223906595E+00  0.55459281746E-01  0.23287362966E-01  0.89048325220E+00  0.88000000000E+00 0. -1.
        -11    1    4    4    0    0 -0.98155283632E-01 -0.60774059010E-01 -0.21411511669E-01  0.11741660831E+00  0.51100000000E-03 0. -1.
         11    1    4    4    0    0 -0.21346912811E-01 -0.48836372915E-02 -0.85772822667E-02  0.23523849426E-01  0.51100000000E-03 0.  1.
</event>
<event>
 8    1  0.1090774E+005  0.1043930E+01  0.7957747E-01            NaN
         13   -1    0    0    0    0  0.00000000000E+00  0.00000000000E+00  0.74505805969E-08  0.10566000000E+00  0.10566000000E+00 0.  1.
     999900   -1    0    0    0    0 -0.00000000000E+00 -0.00000000000E+00 -0.74505805969E-08  0.93827000000E+00  0.93827000000E+00 0.  1.
     999902    2    1    2    0    0 -0.89167822853E-02  0.43582482317E-02 -0.23181260516E-02  0.10337379912E+01  0.10336877466E+01 0.  0.
     999903    2    3    3    0    0  0.64911825924E-01  0.11828533107E+00  0.40375915635E-01  0.14230497369E+00  0.20384461778E-01 0.  0.
         14    1    1    2    0    0  0.89167822853E-02 -0.43582482317E-02  0.23181260516E-02  0.10192008750E-01  0.00000000000E+00 0. -1.
     999901    1    3    3    0    0 -0.73828608209E-01 -0.11392708284E+00 -0.42694041687E-01  0.89143301756E+00  0.88000000000E+00 0.  1.
        -11    1    4    4    0    0  0.33494441755E-01  0.76070778684E-01  0.31752400776E-01  0.88978183135E-01  0.51100000000E-03 0.  1.
         11    1    4    4    0    0  0.31417384169E-01  0.42214552391E-01  0.86235148596E-02  0.53326790558E-01  0.51100000000E-03 0. -1.
</event>
<event>
 8    1  0.1090774E+005  0.1043930E+01  0.7957747E-01            NaN
         13   -1    0    0    0    0  0.00000000000E+00  0.00000000000E+00  0.74505805969E-08  0.10566000000E+00  0.10566000000E+00 0. -1.
     999900   -1    0    0    0    0 -0.00000000000E+00 -0.00000000000E+00 -0.74505805969E-08  0.93827000000E+00  0.93827000000E+00 0. -1.
     999902    2    1    2    0    0  0.96265163407E-02  0.12611323152E-01 -0.17181952888E-01  0.10205433629E+01  0.10202753652E+01 0.  0.
     999903    2    3    3    0    0  0.59350981086E-01  0.69751853737E-01  0.90915353948E-01  0.13069922468E+00  0.20708106931E-01 0.  0.
         14    1    1    2    0    0 -0.96265163407E-02 -0.12611323152E-01  0.17181952888E-01  0.23386637072E-01  0.00000000000E+00 0. -1.
     999901    1    3    3    0    0 -0.49724464746E-01 -0.57140530585E-01 -0.10809730684E+00  0.88984413825E+00  0.88000000000E+00 0. -1.
        -11    1    4    4    0    0  0.13423454110E-01  0.24946750217E-01  0.38757988745E-01  0.48010126840E-01  0.51100000000E-03 0.  1.
         11    1    4    4    0    0  0.45927526976E-01  0.44805103521E-01  0.52157365203E-01  0.82689097840E-01  0.51100000000E-03 0. -1.
</event>
<event>
 8    1  0.1090774E+005  0.1043930E+01  0.7957747E-01            NaN
         13   -1    0    0    0    0  0.00000000000E+00  0.00000000000E+00  0.74505805969E-08  0.10566000000E+00  0.10566000000E+00 0.  1.
     999900   -1    0    0    0    0 -0.00000000000E+00 -0.00000000000E+00 -0.74505805969E-08  0.93827000000E+00  0.93827000000E+00 0.  1.
     999902    2    1    2    0    0  0.21854077067E-01  0.12270676958E-02 -0.95348650276E-02  0.10200549077E+01  0.10197754629E+01 0.  0.
     999903    2    3    3    0    0  0.11211746756E+00 -0.21313273727E-01 -0.66075658218E-01  0.13334615738E+00  0.19764182562E-01 0.  0.
         14    1    1    2    0    0 -0.21854077067E-01 -0.12270676958E-02  0.95348650276E-02  0.23875092265E-01  0.00000000000E+00 0.  1.
     999901    1    3    3    0    0 -0.90263390489E-01  0.22540341423E-01  0.56540793190E-01  0.88670875035E+00  0.88000000000E+00 0.  1.
        -11    1    4    4    0    0  0.55685381993E-01 -0.60353178734E-03 -0.30579737032E-01  0.63534301415E-01  0.51100000000E-03 0. -1.
         11    1    4    4    0    0  0.56432085562E-01 -0.20709741940E-01 -0.35495921185E-01  0.69811855969E-01  0.51100000000E-03 0.  1.
</event>
<event>
 8    1  0.1090774E+005  0.1043930E+01  0.7957747E-01            NaN
         13   -1    0    0    0    0  0.00000000000E+00  0.00000000000E+00  0.74505805969E-08  0.10566000000E+00  0.10566000000E+00 0.  1.
     999900   -1    0    0    0    0 -0.00000000000E+00 -0.00000000000E+00 -0.74505805969E-08  0.93827000000E+00  0.93827000000E+00 0. -1.
     999902    2    1    2    0    0  0.95313661098E-02  0.20293992950E-02  0.21920021421E-01  0.10199414039E+01  0.10196592640E+01 0.  0.
     999903    2    3    3    0    0 -0.29053698296E-01  0.14308272445E-01  0.12716135283E+00  0.13274620798E+00  0.20067437174E-01 0.  0.
         14    1    1    2    0    0 -0.95313661098E-02 -0.20293992950E-02 -0.21920021421E-01  0.23988596051E-01  0.00000000000E+00 0. -1.
     999901    1    3    3    0    0  0.38585064406E-01 -0.12278873150E-01 -0.10524133140E+00  0.88719519597E+00  0.88000000000E+00 0. -1.
        -11    1    4    4    0    0 -0.23630528843E-01  0.11848413674E-01  0.12205264806E+00  0.12488353302E+00  0.51100000000E-03 0.  1.
         11    1    4    4    0    0 -0.54231694534E-02  0.24598587713E-02  0.51087047644E-02  0.78626749561E-02  0.51100000000E-03 0. -1.
</event>
<event>
 8    1  0.1090774E+005  0.1043930E+01  0.7957747E-01            NaN
         13   -1    0    0    0    0  0.00000000000E+00  0.00000000000E+00  0.74505805969E-08  0.10566000000E+00  0.10566000000E+00 0. -1.
     999900   -1    0    0    0    0 -0.00000000000E+00 -0.00000000000E+00 -0.74505805969E-08  0.93827000000E+00  0.93827000000E+00 0. -1.
     999902    2    1    2    0    0  0.55299542217E-02 -0.55373068671E-02  0.24398323969E-01  0.10183073465E+01  0.10179849368E+01 0.  0.
     999903    2    3    3    0    0  0.13160426846E-01 -0.70047197935E-01  0.10979358311E+00  0.13179051052E+00  0.15306893800E-01 0.  0.
         14    1    1    2    0    0 -0.55299542217E-02  0.55373068671E-02 -0.24398323969E-01  0.25622653522E-01  0.00000000000E+00 0.  1.
     999901    1    3    3    0    0 -0.76304726238E-02  0.64509891068E-01 -0.85395259137E-01  0.88651683596E+00  0.88000000000E+00 0. -1.
        -11    1    4    4    0    0 -0.25935830653E-02 -0.77639233693E-02  0.82792343458E-02  0.11653841493E-01  0.51100000000E-03 0.  1.
         11    1    4    4    0    0  0.15754009911E-01 -0.62283274566E-01  0.10151434876E+00  0.12013666902E+00  0.51100000000E-03 0. -1.
</event>
<event>
 8    1  0.1090774E+005  0.1043930E+01  0.7957747E-01            NaN
         13   -1    0    0    0    0  0.00000000000E+00  0.00000000000E+00  0.74505805969E-08  0.10566000000E+00  0.10566000000E+00 0.  1.
     999900   -1    0    0    0    0 -0.00000000000E+00 -0.00000000000E+00 -0.74505805969E-08  0.93827000000E+00  0.93827000000E+00 0.  1.
     999902    2    1    2    0    0 -0.23110967224E-01  0.26504745691E-02 -0.42086154864E-02  0.10202899013E+01  0.10200159942E+01 0.  0.
     999903    2    3    3    0    0  0.48975516538E-01  0.37274899766E-01  0.11197293356E+00  0.12905846993E+00  0.18169519464E-01 0.  0.
         14    1    1    2    0    0  0.23110967224E-01 -0.26504745691E-02  0.42086154864E-02  0.23640098684E-01  0.00000000000E+00 0. -1.
     999901    1    3    3    0    0 -0.72086483762E-01 -0.34624425197E-01 -0.11618154904E+00  0.89123143139E+00  0.88000000000E+00 0.  1.
        -11    1    4    4    0    0  0.31505249603E-01  0.26412153736E-01  0.90040586187E-01  0.98983589041E-01  0.51100000000E-03 0. -1.
         11    1    4    4    0    0  0.17470266935E-01  0.10862746030E-01  0.21932347370E-01  0.30074880885E-01  0.51100000000E-03 0.  1.
</event>
<event>
 8    1  0.1090774E+005  0.1043930E+01  0.7957747E-01            NaN
         13   -1    0    0    0    0  0.00000000000E+00  0.00000000000E+00  0.74505805969E-08  0.10566000000E+00  0.10566000000E+00 0. -1.
     999900   -1    0    0    0    0 -0.00000000000E+00 -0.00000000000E+00 -0.74505805969E-08  0.93827000000E+00  0.93827000000E+00 0.  1.
     999902    2    1    2    0    0  0.12862885224E-01  0.31635310592E-02 -0.24599094461E-01  0.10159911884E+01  0.10156069701E+01 0.  0.
     999903    2    3    3    0    0 -0.10352040007E+00 -0.66120670581E-01 -0.16922017929E-01  0.12559559812E+00  0.19987077537E-01 0.  0.
         14    1    1    2    0    0 -0.12862885224E-01 -0.31635310592E-02  0.24599094461E-01  0.27938811595E-01  0.00000000000E+00 0. -1.
     999901    1    3    3    0    0  0.11638328529E+00  0.69284201640E-01 -0.76770765314E-02  0.89039559028E+00  0.88000000000E+00 0.  1.
        -11    1    4    4    0    0 -0.20005293822E-01 -0.22691356575E-01 -0.24237530230E-02  0.30352020424E-01  0.51100000000E-03 0.  1.
         11    1    4    4    0    0 -0.83515106247E-01 -0.43429314006E-01 -0.14498264906E-01  0.95243577698E-01  0.51100000000E-03 0. -1.
</event>
<event>
 8    1  0.1090774E+005  0.1043930E+01  0.7957747E-01            NaN
         13   -1    0    0    0    0  0.00000000000E+00  0.00000000000E+00  0.74505805969E-08  0.10566000000E+00  0.10566000000E+00 0.  1.
     999900   -1    0    0    0    0 -0.00000000000E+00 -0.00000000000E+00 -0.74505805969E-08  0.93827000000E+00  0.93827000000E+00 0.  1.
     999902    2    1    2    0    0 -0.96032320805E-02 -0.16178825737E-01  0.14482382827E-01  0.10201872984E+01  0.10199109804E+01 0.  0.
     999903    2    3    3    0    0  0.77446778407E-01  0.92823826925E-01  0.40440557951E-01  0.12882143102E+00  0.18581066480E-01 0.  0.
         14    1    1    2    0    0  0.96032320805E-02  0.16178825737E-01 -0.14482382827E-01  0.23742701636E-01  0.00000000000E+00 0.  1.
     999901    1    3    3    0    0 -0.87050010488E-01 -0.10900265266E+00 -0.25958175124E-01  0.89136586735E+00  0.88000000000E+00 0. -1.
        -11    1    4    4    0    0  0.75026219604E-01  0.82216933516E-01  0.35228660139E-01  0.11674706592E+00  0.51100000000E-03 0. -1.
         11    1    4    4    0    0  0.24205588029E-02  0.10606893409E-01  0.52118978112E-02  0.12074365098E-01  0.51100000000E-03 0.  1.
</event>
<event>
 8    1  0.1090774E+005  0.1043930E+01  0.7957747E-01            NaN
         13   -1    0    0    0    0  0.00000000000E+00  0.00000000000E+00  0.74505805969E-08  0.10566000000E+00  0.10566000000E+00 0.  1.
     999900   -1    0    0    0    0 -0.00000000000E+00 -0.00000000000E+00 -0.74505805969E-08  0.93827000000E+00  0.93827000000E+00 0.  1.
     999902    2    1    2    0    0  0.20034730716E-01  0.39383870256E-02  0.15522375371E-02  0.10234529209E+01  0.10232480494E+01 0.  0.
     999903    2    3    3    0    0  0.55403137619E-01 -0.11978093712E+00  0.14990406387E-01  0.13399354591E+00  0.17679861579E-01 0.  0.
         14    1    1    2    0    0 -0.20034730716E-01 -0.39383870256E-02 -0.15522375371E-02  0.20477079103E-01  0.00000000000E+00 0.  1.
     999901    1    3    3    0    0 -0.35368406903E-01  0.12371932415E+00 -0.13438168850E-01  0.88945937499E+00  0.88000000000E+00 0.  1.
        -11    1    4    4    0    0  0.33709380622E-01 -0.75488081058E-01  0.83048640928E-03  0.82678434628E-01  0.51100000000E-03 0. -1.
         11    1    4    4    0    0  0.21693756997E-01 -0.44292856063E-01  0.14159919978E-01  0.51315111280E-01  0.51100000000E-03 0.  1.
</event>
<event>
 8    1  0.1090774E+005  0.1043930E+01  0.7957747E-01            NaN
         13   -1    0    0    0    0  0.00000000000E+00  0.00000000000E+00  0.74505805969E-08  0.10566000000E+00  0.10566000000E+00 0.  1.
     999900   -1    0    0    0    0 -0.00000000000E+00 -0.00000000000E+00 -0.74505805969E-08  0.93827000000E+00  0.93827000000E+00 0. -1.
     999902    2    1    2    0    0  0.13300220991E-02  0.14019719059E-01 -0.18573984690E-01  0.10206208947E+01  0.10203546915E+01 0.  0.
     999903    2    3    3    0    0 -0.92439966823E-01  0.29629941189E-01  0.83574988400E-01  0.12962656110E+00  0.19879280046E-01 0.  0.
         14    1    1    2    0    0 -0.13300220991E-02 -0.14019719059E-01  0.18573984690E-01  0.23309105271E-01  0.00000000000E+00 0.  1.
     999901    1    3    3    0    0  0.93769988922E-01 -0.15610222130E-01 -0.10214897309E+00  0.89099433363E+00  0.88000000000E+00 0. -1.
        -11    1    4    4    0    0 -0.78377056828E-01  0.17806150207E-01  0.63715024664E-01  0.10256650287E+00  0.51100000000E-03 0. -1.
         11    1    4    4    0    0 -0.14062909996E-01  0.11823790982E-01  0.19859963736E-01  0.27060058228E-01  0.51100000000E-03 0.  1.
</event>
<event>
 7    1  0.1090774E+005  0.1043930E+01  0.7957747E-01            NaN
         13   -1    0    0    0    0  0.00000000000E+00  0.00000000000E+00  0.74505805969E-08  0.10566000000E+00  0.10566000000E+00 0. -1.
     999900   -1    0    0    0    0 -0.00000000000E+00 -0.00000000000E+00 -0.74505805969E-08  0.93827000000E+00  0.93827000000E+00 0.  1.
     999903    2    1    2    0    0 -0.88065646040E-01 -0.45710468940E-01  0.16199016734E-01  0.10242337067E+00  0.19573802228E-01 0.  0.
         14    1    1    2    0    0 -0.38721599347E-01 -0.18921740272E-01 -0.25401676930E-01  0.50026390053E-01  0.00000000000E+00 0.  1.
     999901    1    1    2    0    0  0.12678724539E+00  0.64632209213E-01  0.92026601955E-02  0.89148023927E+00  0.88000000000E+00 0. -1.
        -11    1    3    3    0    0 -0.11233517601E-01 -0.13674486037E-01  0.52170618267E-02  0.18457040423E-01  0.51100000000E-03 0.  1.
         11    1    3    3    0    0 -0.76832128439E-01 -0.32035982903E-01  0.10981954908E-01  0.83966330250E-01  0.51100000000E-03 0. -1.
</event>
<event>
 8    1  0.1090774E+005  0.1043930E+01  0.7957747E-01            NaN
         13   -1    0    0    0    0  0.00000000000E+00  0.00000000000E+00  0.74505805969E-08  0.10566000000E+00  0.10566000000E+00 0. -1.
     999900   -1    0    0    0    0 -0.00000000000E+00 -0.00000000000E+00 -0.74505805969E-08  0.93827000000E+00  0.93827000000E+00 0.  1.
     999902    2    1    2    0    0  0.53744648634E-02 -0.18142726581E-01  0.14946118082E-01  0.10198171436E+01  0.10195320380E+01 0.  0.
     999903    2    3    3    0    0  0.48196734288E-02  0.13679587938E-01 -0.12571800300E+00  0.12807762864E+00  0.19710461743E-01 0.  0.
         14    1    1    2    0    0 -0.53744648634E-02  0.18142726581E-01 -0.14946118082E-01  0.24112856448E-01  0.00000000000E+00 0.  1.
     999901    1    3    3    0    0  0.55479143463E-03 -0.31822314519E-01  0.14066412108E+00  0.89173951491E+00  0.88000000000E+00 0. -1.
        -11    1    4    4    0    0 -0.54924526115E-03  0.10435136068E-01 -0.24199271698E-01  0.26363983137E-01  0.51100000000E-03 0. -1.
         11    1    4    4    0    0  0.53689186899E-02  0.32444518697E-02 -0.10151873130E+00  0.10171364550E+00  0.51100000000E-03 0.  1.
</event>
<event>
 8    1  0.1090774E+005  0.1043930E+01  0.7957747E-01            NaN
         13   -1    0    0    0    0  0.00000000000E+00  0.00000000000E+00  0.74505805969E-08  0.10566000000E+00  0.10566000000E+00 0. -1.
     999900   -1    0    0    0    0 -0.00000000000E+00 -0.00000000000E+00 -0.74505805969E-08  0.93827000000E+00  0.93827000000E+00 0. -1.
     999902    2    1    2    0    0  0.43445607501E-02 -0.22816271668E-01 -0.14339343048E-02  0.10206595546E+01  0.10203942438E+01 0.  0.
     999903    2    3    3    0    0  0.37643637091E-02 -0.71305134753E-01  0.10963099358E+00  0.13235390638E+00  0.20000227621E-01 0.  0.
         14    1    1    2    0    0 -0.43445607501E-02  0.22816271668E-01  0.14339343048E-02  0.23270445387E-01  0.00000000000E+00 0. -1.
     999901    1    3    3    0    0  0.58019704103E-03  0.48488863085E-01 -0.11106492789E+00  0.88830564823E+00  0.88000000000E+00 0. -1.
        -11    1    4    4    0    0  0.98616511006E-02 -0.60750549569E-01  0.96249738531E-01  0.11424602717E+00  0.51100000000E-03 0. -1.
         11    1    4    4    0    0 -0.60972873915E-02 -0.10554585184E-01  0.13381255049E-01  0.18107879214E-01  0.51100000000E-03 0.  1.
</event>
<event>
 8    1  0.1090774E+005  0.1043930E+01  0.7957747E-01            NaN
         13   -1    0    0    0    0  0.00000000000E+00  0.00000000000E+00  0.74505805969E-08  0.10566000000E+00  0.10566000000E+00 0.  1.
     999900   -1    0    0    0    0 -0.00000000000E+00 -0.00000000000E+00 -0.74505805969E-08  0.93827000000E+00  0.93827000000E+00 0. -1.
     999902    2    1    2    0    0  0.21531804775E-01  0.40334771422E-02  0.97410636301E-02  0.10199555162E+01  0.10196737121E+01 0.  0.
     999903    2    3    3    0    0  0.11352326851E+00  0.62535086223E-01 -0.20718493748E-01  0.13270546555E+00  0.19578434634E-01 0.  0.
         14    1    1    2    0    0 -0.21531804775E-01 -0.40334771422E-02 -0.97410636301E-02  0.23974483839E-01  0.00000000000E+00 0.  1.
     999901    1    3    3    0    0 -0.91991463736E-01 -0.58501609081E-01  0.30459557378E-01  0.88725005061E+00  0.88000000000E+00 0.  1.
        -11    1    4    4    0    0  0.39712045009E-01  0.31786394903E-01 -0.40912263777E-02  0.51033525001E-01  0.51100000000E-03 0. -1.
         11    1    4    4    0    0  0.73811223501E-01  0.30748691320E-01 -0.16627267370E-01  0.81671940554E-01  0.51100000000E-03 0.  1.
</event>
<event>
 8    1  0.1090774E+005  0.1043930E+01  0.7957747E-01            NaN
         13   -1    0    0    0    0  0.00000000000E+00  0.00000000000E+00  0.74505805969E-08  0.10566000000E+00  0.10566000000E+00 0.  1.
     999900   -1    0    0    0    0 -0.00000000000E+00 -0.00000000000E+00 -0.74505805969E-08  0.93827000000E+00  0.93827000000E+00 0.  1.
     999902    2    1    2    0    0  0.20538359625E-01  0.83958941910E-02  0.84588396820E-02  0.10201841114E+01  0.10199077184E+01 0.  0.
     999903    2    3    3    0    0 -0.70344595989E-01 -0.10349325315E+00  0.42214126333E-02  0.12844600598E+00  0.28659038622E-01 0.  0.
         14    1    1    2    0    0 -0.20538359625E-01 -0.83958941910E-02 -0.84588396820E-02  0.23745888573E-01  0.00000000000E+00 0. -1.
     999901    1    3    3    0    0  0.90882955614E-01  0.11188914735E+00  0.42374270487E-02  0.89173810545E+00  0.88000000000E+00 0.  1.
        -11    1    4    4    0    0 -0.55775361878E-01 -0.64384623061E-01 -0.62526717337E-02  0.85414446695E-01  0.51100000000E-03 0.  1.
         11    1    4    4    0    0 -0.14569234110E-01 -0.39108630093E-01  0.10474084367E-01  0.43031559287E-01  0.51100000000E-03 0. -1.
</event>
<event>
 8    1  0.1090774E+005  0.1043930E+01  0.7957747E-01            NaN
         13   -1    0    0    0    0  0.00000000000E+00  0.00000000000E+00  0.74505805969E-08  0.10566000000E+00  0.10566000000E+00 0. -1.
     999900   -1    0    0    0    0 -0.00000000000E+00 -0.00000000000E+00 -0.74505805969E-08  0.93827000000E+00  0.93827000000E+00 0. -1.
     999902    2    1    2    0    0  0.10600399102E-02  0.20483620644E-01 -0.11670471536E-01  0.10203312224E+01  0.10200582832E+01 0.  0.
     999903    2    3    3    0    0  0.95028443813E-01  0.24701628197E-01  0.83013618042E-01  0.13026778119E+00  0.20925067914E-01 0.  0.
         14    1    1    2    0    0 -0.10600399102E-02 -0.20483620644E-01  0.11670471536E-01  0.23598777620E-01  0.00000000000E+00 0. -1.
     999901    1    3    3    0    0 -0.93968403903E-01 -0.42180075526E-02 -0.94684089578E-01  0.89006344119E+00  0.88000000000E+00 0. -1.
        -11    1    4    4    0    0  0.13011828973E-01  0.10635362659E-01  0.18300376455E-01  0.24851227968E-01  0.51100000000E-03 0. -1.
         11    1    4    4    0    0  0.82016614840E-01  0.14066265537E-01  0.64713241587E-01  0.10541655322E+00  0.51100000000E-03 0.  1.
</event>
<event>
 8    1  0.1090774E+005  0.1043930E+01  0.7957747E-01            NaN
         13   -1    0    0    0    0  0.00000000000E+00  0.00000000000E+00  0.74505805969E-08  0.10566000000E+00  0.10566000000E+00 0. -1.
     999900   -1    0    0    0    0 -0.00000000000E+00 -0.00000000000E+00 -0.74505805969E-08  0.93827000000E+00  0.93827000000E+00 0.  1.
     999902    2    1    2    0    0 -0.16573172299E-01 -0.16151138448E-01 -0.13523796223E-02  0.10207490112E+01  0.10204857596E+01 0.  0.
     999903    2    3    3    0    0 -0.77822722415E-02 -0.12871940286E+00  0.24623611658E-01  0.13315470845E+00  0.22239732388E-01 0.  0.
         14    1    1    2    0    0  0.16573172299E-01  0.16151138448E-01  0.13523796223E-02  0.23180988846E-01  0.00000000000E+00 0.  1.
     999901    1    3    3    0    0 -0.87909000579E-02  0.11256826441E+00 -0.25975991281E-01  0.88759430271E+00  0.88000000000E+00 0. -1.
        -11    1    4    4    0    0  0.43250853747E-02 -0.89351110941E-01  0.20348418120E-01  0.91742283767E-01  0.51100000000E-03 0.  1.
         11    1    4    4    0    0 -0.12107357616E-01 -0.39368291918E-01  0.42751935384E-02  0.41412424679E-01  0.51100000000E-03 0. -1.
</event>
<event>
 8    1  0.1090774E+005  0.1043930E+01  0.7957747E-01            NaN
         13   -1    0    0    0    0  0.00000000000E+00  0.00000000000E+00  0.74505805969E-08  0.10566000000E+00  0.10566000000E+00 0. -1.
     999900   -1    0    0    0    0 -0.00000000000E+00 -0.00000000000E+00 -0.74505805969E-08  0.93827000000E+00  0.93827000000E+00 0.  1.
     999902    2    1    2    0    0 -0.12230343724E-01  0.20376448553E-01  0.75860083193E-02  0.10189834875E+01  0.10186780744E+01 0.  0.
     999903    2    3    3    0    0 -0.39375984098E-01 -0.70489438518E-01 -0.97976144727E-01  0.12761551446E+00  0.12929250901E-01 0.  0.
         14    1    1    2    0    0  0.12230343724E-01 -0.20376448553E-01 -0.75860083193E-02  0.24946512490E-01  0.00000000000E+00 0.  1.
     999901    1    3    3    0    0  0.27145640374E-01  0.90865887070E-01  0.10556215305E+00  0.89136797305E+00  0.88000000000E+00 0.  1.
        -11    1    4    4    0    0 -0.13198121254E-01 -0.17897519708E-01 -0.35182413939E-01  0.41624211559E-01  0.51100000000E-03 0.  1.
         11    1    4    4    0    0 -0.26177862843E-01 -0.52591918810E-01 -0.62793730788E-01  0.85991302900E-01  0.51100000000E-03 0. -1.
</event>
<event>
 8    1  0.1090774E+005  0.1043930E+01  0.7957747E-01            NaN
         13   -1    0    0    0    0  0.00000000000E+00  0.00000000000E+00  0.74505805969E-08  0.10566000000E+00  0.10566000000E+00 0. -1.
     999900   -1    0    0    0    0 -0.00000000000E+00 -0.00000000000E+00 -0.74505805969E-08  0.93827000000E+00  0.93827000000E+00 0.  1.
     999902    2    1    2    0    0 -0.77566801672E-03 -0.20239268012E-01 -0.64264058221E-02  0.10226808042E+01  0.10224600232E+01 0.  0.
     999903    2    3    3    0    0  0.15263715605E-01  0.11064004259E+00  0.62915374948E-01  0.13015913032E+00  0.22557809357E-01 0.  0.
         14    1    1    2    0    0  0.77566801672E-03  0.20239268012E-01  0.64264058221E-02  0.21249195804E-01  0.00000000000E+00 0. -1.
     999901    1    3    3    0    0 -0.16039383621E-01 -0.13087931060E+00 -0.69341780770E-01  0.89252167387E+00  0.88000000000E+00 0.  1.
        -11    1    4    4    0    0 -0.22571009162E-02  0.42487839663E-01  0.15411600506E-01  0.45255823658E-01  0.51100000000E-03 0.  1.
         11    1    4    4    0    0  0.17520816521E-01  0.68152202929E-01  0.47503774441E-01  0.84903306666E-01  0.51100000000E-03 0. -1.
</event>
<event>
 8    1  0.1090774E+005  0.1043930E+01  0.7957747E-01            NaN
         13   -1    0    0    0    0  0.00000000000E+00  0.00000000000E+00  0.74505805969E-08  0.10566000000E+00  0.10566000000E+00 0. -1.
     999900   -1    0    0    0    0 -0.00000000000E+00 -0.00000000000E+00 -0.74505805969E-08  0.93827000000E+00  0.93827000000E+00 0. -1.
     999902    2    1    2    0    0  0.14717738091E-01  0.14156214871E-01 -0.10432998528E-01  0.10209984128E+01  0.10207408590E+01 0.  0.
     999903    2    3    3    0    0 -0.76844946607E-01 -0.24064775633E-01 -0.10108950157E+00  0.13079440757E+00  0.20095533811E-01 0.  0.
         14    1    1    2    0    0 -0.14717738091E-01 -0.14156214871E-01  0.10432998528E-01  0.22931587217E-01  0.00000000000E+00 0.  1.
     999901    1    3    3    0    0  0.91562684698E-01  0.38220990504E-01  0.90656503046E-01  0.89020400521E+00  0.88000000000E+00 0.  1.
        -11    1    4    4    0    0 -0.33619285979E-01 -0.17501489452E-01 -0.35276347481E-01  0.51780694620E-01  0.51100000000E-03 0. -1.
         11    1    4    4    0    0 -0.43225660628E-01 -0.65632861807E-02 -0.65813154093E-01  0.79013712954E-01  0.51100000000E-03 0.  1.
</event>
<event>
 8    1  0.1090774E+005  0.1043930E+01  0.7957747E-01            NaN
         13   -1    0    0    0    0  0.00000000000E+00  0.00000000000E+00  0.74505805969E-08  0.10566000000E+00  0.10566000000E+00 0. -1.
     999900   -1    0    0    0    0 -0.00000000000E+00 -0.00000000000E+00 -0.74505805969E-08  0.93827000000E+00  0.93827000000E+00 0.  1.
     999902    2    1    2    0    0 -0.79211689838E-02 -0.35103129077E-02  0.15123828743E-01  0.10265002148E+01  0.10263522269E+01 0.  0.
     999903    2    3    3    0    0  0.36917638419E-01  0.15241697458E-01 -0.12622703300E+00  0.13389603456E+00  0.19991569281E-01 0.  0.
         14    1    1    2    0    0  0.79211689838E-02  0.35103129077E-02 -0.15123828743E-01  0.17429785157E-01  0.00000000000E+00 0. -1.
     999901    1    3    3    0    0 -0.44838807403E-01 -0.18752010366E-01  0.14135086175E+00  0.89260418028E+00  0.88000000000E+00 0. -1.
        -11    1    4    4    0    0  0.26829500123E-01  0.74428894674E-02 -0.56259965545E-01  0.62774704497E-01  0.51100000000E-03 0. -1.
         11    1    4    4    0    0  0.10088138296E-01  0.77988079909E-02 -0.69967067458E-01  0.71121330064E-01  0.51100000000E-03 0.  1.
</event>
<event>
 8    1  0.1090774E+005  0.1043930E+01  0.7957747E-01            NaN
         13   -1    0    0    0    0  0.00000000000E+00  0.00000000000E+00  0.74505805969E-08  0.10566000000E+00  0.10566000000E+00 0. -1.
     999900   -1    0    0    0    0 -0.00000000000E+00 -0.00000000000E+00 -0.74505805969E-08  0.93827000000E+00  0.93827000000E+00 0. -1.
     999902    2    1    2    0    0 -0.23030102709E-01 -0.39652195920E-02 -0.54644015012E-02  0.10199306608E+01  0.10196482651E+01 0.  0.
     999903    2    3    3    0    0 -0.13404282663E-01  0.12685091166E+00  0.14714864649E-01  0.12997969622E+00  0.20183300201E-01 0.  0.
         14    1    1    2    0    0  0.23030102709E-01  0.39652195920E-02  0.54644015012E-02  0.23999339178E-01  0.00000000000E+00 0.  1.
     999901    1    3    3    0    0 -0.96258200466E-02 -0.13081613125E+00 -0.20179266150E-01  0.88995096460E+00  0.88000000000E+00 0.  1.
        -11    1    4    4    0    0  0.49065004500E-02  0.43513561359E-01  0.62026014515E-02  0.44229369819E-01  0.51100000000E-03 0.  1.
         11    1    4    4    0    0 -0.18310783113E-01  0.83337350298E-01  0.85122631975E-02  0.85750326405E-01  0.51100000000E-03 0. -1.
</event>
<event>
 8    1  0.1090774E+005  0.1043930E+01  0.7957747E-01            NaN
         13   -1    0    0    0    0  0.00000000000E+00  0.00000000000E+00  0.74505805969E-08  0.10566000000E+00  0.10566000000E+00 0. -1.
     999900   -1    0    0    0    0 -0.00000000000E+00 -0.00000000000E+00 -0.74505805969E-08  0.93827000000E+00  0.93827000000E+00 0.  1.
     999902    2    1    2    0    0  0.36514339714E-02 -0.19790972545E-01  0.13159623517E-01  0.10198843922E+01  0.10196008936E+01 0.  0.
     999903    2    3    3    0    0 -0.53314905619E-01  0.57311820255E-01 -0.98861611446E-01  0.12761830990E+00  0.19639014793E-01 0.  0.
         14    1    1    2    0    0 -0.36514339714E-02  0.19790972545E-01 -0.13159623517E-01  0.24045607820E-01  0.00000000000E+00 0.  1.
     999901    1    3    3    0    0  0.56966339591E-01 -0.77102792800E-01  0.11202123496E+00  0.89226608228E+00  0.88000000000E+00 0. -1.
        -11    1    4    4    0    0 -0.20699725292E-01  0.35362300964E-01 -0.44044493665E-01  0.60159367515E-01  0.51100000000E-03 0. -1.
         11    1    4    4    0    0 -0.32615180328E-01  0.21949519290E-01 -0.54817117782E-01  0.67458942386E-01  0.51100000000E-03 0.  1.
</event>
<event>
 8    1  0.1090774E+005  0.1043930E+01  0.7957747E-01            NaN
         13   -1    0    0    0    0  0.00000000000E+00  0.00000000000E+00  0.74505805969E-08  0.10566000000E+00  0.10566000000E+00 0. -1.
     999900   -1    0    0    0    0 -0.00000000000E+00 -0.00000000000E+00 -0.74505805969E-08  0.93827000000E+00  0.93827000000E+00 0. -1.
     999902    2    1    2    0    0  0.34598921151E-03  0.10934161995E-01 -0.18464636012E-01  0.10224679780E+01  0.10222427048E+01 0.  0.
     999903    2    3    3    0    0 -0.43665844796E-01 -0.57609673341E-01 -0.11093978407E+00  0.13388092431E+00  0.19770830543E-01 0.  0.
         14    1    1    2    0    0 -0.34598921151E-03 -0.10934161995E-01  0.18464636012E-01  0.21462022042E-01  0.00000000000E+00 0. -1.
     999901    1    3    3    0    0  0.44011834007E-01  0.68543835336E-01  0.92475148063E-01  0.88858705364E+00  0.88000000000E+00 0. -1.
        -11    1    4    4    0    0 -0.32868185633E-01 -0.28536791730E-01 -0.57916695156E-01  0.72451851652E-01  0.51100000000E-03 0. -1.
         11    1    4    4    0    0 -0.10797659163E-01 -0.29072881611E-01 -0.53023088919E-01  0.61429072662E-01  0.51100000000E-03 0.  1.
</event>
<event>
 8    1  0.1090774E+005  0.1043930E+01  0.7957747E-01            NaN
         13   -1    0    0    0    0  0.00000000000E+00  0.00000000000E+00  0.74505805969E-08  0.10566000000E+00  0.10566000000E+00 0. -1.
     999900   -1    0    0    0    0 -0.00000000000E+00 -0.00000000000E+00 -0.74505805969E-08  0.93827000000E+00  0.93827000000E+00 0. -1.
     999902    2    1    2    0    0  0.15499914411E-01  0.64677988498E-02  0.20796119029E-01  0.10171987760E+01  0.10168474771E+01 0.  0.
     999903    2    3    3    0    0 -0.25524792011E-02  0.88995852204E-01  0.92825179198E-01  0.13022360500E+00  0.20369009444E-01 0.  0.
         14    1    1    2    0    0 -0.15499914411E-01 -0.64677988498E-02 -0.20796119029E-01  0.26731223978E-01  0.00000000000E+00 0.  1.
     999901    1    3    3    0    0  0.18052393612E-01 -0.82528053354E-01 -0.72029060170E-01  0.88697517102E+00  0.88000000000E+00 0.  1.
        -11    1    4    4    0    0  0.51388094588E-02  0.47429259297E-01  0.38008002561E-01  0.60998453913E-01  0.51100000000E-03 0.  1.
         11    1    4    4    0    0 -0.76912886599E-02  0.41566592907E-01  0.54817176637E-01  0.69225151084E-01  0.51100000000E-03 0. -1.
</event>
<event>
 8    1  0.1090774E+005  0.1043930E+01  0.7957747E-01            NaN
         13   -1    0    0    0    0  0.00000000000E+00  0.00000000000E+00  0.74505805969E-08  0.10566000000E+00  0.10566000000E+00 0.  1.
     999900   -1    0    0    0    0 -0.00000000000E+00 -0.00000000000E+00 -0.74505805969E-08  0.93827000000E+00  0.93827000000E+00 0. -1.
     999902    2    1    2    0    0 -0.82429973119E-02  0.21520563682E-01 -0.38004274428E-02  0.10205735252E+01  0.10203062263E+01 0.  0.
     999903    2    3    3    0    0  0.85691599568E-01 -0.55655737593E-01  0.75519163158E-01  0.12868144237E+00  0.20375432363E-01 0.  0.
         14    1    1    2    0    0  0.82429973119E-02 -0.21520563682E-01  0.38004274428E-02  0.23356474791E-01  0.00000000000E+00 0. -1.
     999901    1    3    3    0    0 -0.93934596880E-01  0.77176301275E-01 -0.79319590601E-01  0.89189208283E+00  0.88000000000E+00 0. -1.
        -11    1    4    4    0    0  0.25615252472E-01 -0.25567381342E-01  0.34229383551E-01  0.49817105167E-01  0.51100000000E-03 0. -1.
         11    1    4    4    0    0  0.60076347096E-01 -0.30088356251E-01  0.41289779608E-01  0.78864337208E-01  0.51100000000E-03 0.  1.
</event>
<event>
 8    1  0.1090774E+005  0.1043930E+01  0.7957747E-01            NaN
         13   -1    0    0    0    0  0.00000000000E+00  0.00000000000E+00  0.74505805969E-08  0.10566000000E+00  0.10566000000E+00 0. -1.
     999900   -1    0    0    0    0 -0.00000000000E+00 -0.00000000000E+00 -0.74505805969E-08  0.93827000000E+00  0.93827000000E+00 0. -1.
     999902    2    1    2    0    0  0.15080661106E-01  0.17693662250E-01  0.80390319164E-02  0.10193308525E+01  0.10190339881E+01 0.  0.
     999903    2    3    3    0    0 -0.98994528698E-01  0.28215328476E-01  0.75802642929E-01  0.12932199785E+00  0.19547812666E-01 0.  0.
         14    1    1    2    0    0 -0.15080661106E-01 -0.17693662250E-01 -0.80390319164E-02  0.24599147493E-01  0.00000000000E+00 0. -1.
     999901    1    3    3    0    0  0.11407518980E+00 -0.10521666226E-01 -0.67763611012E-01  0.89000885466E+00  0.88000000000E+00 0. -1.
        -11    1    4    4    0    0 -0.64654514877E-01  0.25059104843E-01  0.42223118501E-01  0.81186315882E-01  0.51100000000E-03 0.  1.
         11    1    4    4    0    0 -0.34340013820E-01  0.31562236333E-02  0.33579524428E-01  0.48135681969E-01  0.51100000000E-03 0. -1.
</event>
<event>
 8    1  0.1090774E+005  0.1043930E+01  0.7957747E-01            NaN
         13   -1    0    0    0    0  0.00000000000E+00  0.00000000000E+00  0.74505805969E-08  0.10566000000E+00  0.10566000000E+00 0. -1.
     999900   -1    0    0    0    0 -0.00000000000E+00 -0.00000000000E+00 -0.74505805969E-08  0.93827000000E+00  0.93827000000E+00 0. -1.
     999902    2    1    2    0    0 -0.43871608474E-02 -0.41648886924E-02 -0.21855352389E-01  0.10212529211E+01  0.10210011161E+01 0.  0.
     999903    2    3    3    0    0 -0.86275154633E-01  0.93827861663E-01 -0.27788394243E-01  0.13201536927E+00  0.20218628485E-01 0.  0.
         14    1    1    2    0    0  0.43871608474E-02  0.41648886924E-02  0.21855352389E-01  0.22677078872E-01  0.00000000000E+00 0. -1.
     999901    1    3    3    0    0  0.81887993786E-01 -0.97992750355E-01  0.59330418546E-02  0.88923755186E+00  0.88000000000E+00 0. -1.
        -11    1    4    4    0    0 -0.24364775235E-01  0.40491220785E-01 -0.12419580230E-01  0.48863977806E-01  0.51100000000E-03 0.  1.
         11    1    4    4    0    0 -0.61910379398E-01  0.53336640878E-01 -0.15368814013E-01  0.83151391465E-01  0.51100000000E-03 0. -1.
</event>
<event>
 8    1  0.1090774E+005  0.1043930E+01  0.7957747E-01            NaN
         13   -1    0    0    0    0  0.00000000000E+00  0.00000000000E+00  0.74505805969E-08  0.10566000000E+00  0.10566000000E+00 0.  1.
     999900   -1    0    0    0    0 -0.00000000000E+00 -0.00000000000E+00 -0.74505805969E-08  0.93827000000E+00  0.93827000000E+00 0. -1.
     999902    2    1    2    0    0 -0.22741849509E-02 -0.99451630266E-03  0.30570985926E-01  0.10132584144E+01  0.10127940898E+01 0.  0.
     999903    2    3    3    0    0 -0.98050195002E-01  0.73098762252E-01 -0.70596086013E-02  0.12416960017E+00  0.20272684825E-01 0.  0.
         14    1    1    2    0    0  0.22741849509E-02  0.99451630266E-03 -0.30570985926E-01  0.30671585553E-01  0.00000000000E+00 0. -1.
     999901    1    3    3    0    0  0.95776010051E-01 -0.74093278554E-01  0.37630594527E-01  0.88908881428E+00  0.88000000000E+00 0. -1.
        -11    1    4    4    0    0 -0.50884264907E-01  0.25374118508E-01 -0.26488523216E-02  0.56923912768E-01  0.51100000000E-03 0.  1.
         11    1    4    4    0    0 -0.47165930095E-01  0.47724643743E-01 -0.44107562797E-02  0.67245687402E-01  0.51100000000E-03 0. -1.
</event>
<event>
 8    1  0.1090774E+005  0.1043930E+01  0.7957747E-01            NaN
         13   -1    0    0    0    0  0.00000000000E+00  0.00000000000E+00  0.74505805969E-08  0.10566000000E+00  0.10566000000E+00 0.  1.
     999900   -1    0    0    0    0 -0.00000000000E+00 -0.00000000000E+00 -0.74505805969E-08  0.93827000000E+00  0.93827000000E+00 0.  1.
     999902    2    1    2    0    0  0.15747575405E-01  0.57142949320E-02  0.16172678831E-01  0.10206449224E+01  0.10203792740E+01 0.  0.
     999903    2    3    3    0    0  0.10247691170E+00  0.31815567962E-02 -0.79411388769E-01  0.13122673814E+00  0.20066100779E-01 0.  0.
         14    1    1    2    0    0 -0.15747575405E-01 -0.57142949320E-02 -0.16172678831E-01  0.23285077588E-01  0.00000000000E+00 0. -1.
     999901    1    3    3    0    0 -0.86729336299E-01  0.25327381358E-02  0.95584067600E-01  0.88941818427E+00  0.88000000000E+00 0. -1.
        -11    1    4    4    0    0  0.14310759553E-01 -0.59813959659E-02 -0.15604494367E-01  0.22007641903E-01  0.51100000000E-03 0. -1.
         11    1    4    4    0    0  0.88166152151E-01  0.91629527621E-02 -0.63806894402E-01  0.10921909624E+00  0.51100000000E-03 0.  1.
</event>
<event>
 8    1  0.1090774E+005  0.1043930E+01  0.7957747E-01            NaN
         13   -1    0    0    0    0  0.00000000000E+00  0.00000000000E+00  0.74505805969E-08  0.10566000000E+00  0.10566000000E+00 0.  1.
     999900   -1    0    0    0    0 -0.00000000000E+00 -0.00000000000E+00 -0.74505805969E-08  0.93827000000E+00  0.93827000000E+00 0. -1.
     999902    2    1    2    0    0 -0.21982843739E-01 -0.33601945575E-02  0.92454314279E-02  0.10198465134E+01  0.10195621102E+01 0.  0.
     999903    2    3    3    0    0 -0.18788193417E-01  0.12632674568E+00 -0.14884880785E-01  0.13000878646E+00  0.19216711288E-01 0.  0.
         14    1    1    2    0    0  0.21982843739E-01  0.33601945575E-02 -0.92454314279E-02  0.24083486637E-01  0.00000000000E+00 0.  1.
     999901    1    3    3    0    0 -0.31946503222E-02 -0.12968694024E+00  0.24130312213E-01  0.88983772691E+00  0.88000000000E+00 0.  1.
        -11    1    4    4    0    0 -0.10200373169E-01  0.63459557943E-01 -0.17117553387E-01  0.66516425506E-01  0.51100000000E-03 0.  1.
         11    1    4    4    0    0 -0.85878202480E-02  0.62867187740E-01  0.22326726016E-02  0.63492360949E-01  0.51100000000E-03 0. -1.
</event>
<event>
 8    1  0.1090774E+005  0.1043930E+01  0.7957747E-01            NaN
         13   -1    0    0    0    0  0.00000000000E+00  0.00000000000E+00  0.74505805969E-08  0.10566000000E+00  0.10566000000E+00 0.  1.
     999900   -1    0    0    0    0 -0.00000000000E+00 -0.00000000000E+00 -0.74505805969E-08  0.93827000000E+00  0.93827000000E+00 0. -1.
     999902    2    1    2    0    0 -0.10499561172E-01 -0.28756394320E-02  0.21932762906E-01  0.10194441638E+01  0.10191500610E+01 0.  0.
     999903    2    3    3    0    0 -0.56095396998E-01  0.51966482086E-01 -0.10074702220E+00  0.12807613192E+00  0.20157486447E-01 0.  0.
         14    1    1    2    0    0  0.10499561172E-01  0.28756394320E-02 -0.21932762906E-01  0.24485836225E-01  0.00000000000E+00 0. -1.
     999901    1    3    3    0    0  0.45595835826E-01 -0.54842121518E-01  0.12267978511E+00  0.89136803185E+00  0.88000000000E+00 0.  1.
        -11    1    4    4    0    0 -0.12539957797E-01  0.88703317088E-02 -0.34873733693E-01  0.38109995393E-01  0.51100000000E-03 0. -1.
         11    1    4    4    0    0 -0.43555439201E-01  0.43096150378E-01 -0.65873288512E-01  0.89966136527E-01  0.51100000000E-03 0.  1.
</event>
<event>
 8    1  0.1090774E+005  0.1043930E+01  0.7957747E-01            NaN
         13   -1    0    0    0    0  0.00000000000E+00  0.00000000000E+00  0.74505805969E-08  0.10566000000E+00  0.10566000000E+00 0.  1.
     999900   -1    0    0    0    0 -0.00000000000E+00 -0.00000000000E+00 -0.74505805969E-08  0.93827000000E+00  0.93827000000E+00 0.  1.
     999902    2    1    2    0    0  0.55965597488E-02  0.22503000087E-01  0.94071105117E-03  0.10207224273E+01  0.10204585646E+01 0.  0.
     999903    2    3    3    0    0  0.12616673157E+00  0.33355656652E-01  0.86389147445E-02  0.13240142178E+00  0.20612172533E-01 0.  0.
         14    1    1    2    0    0 -0.55965597488E-02 -0.22503000087E-01 -0.94071105117E-03  0.23207572713E-01  0.00000000000E+00 0.  1.
     999901    1    3    3    0    0 -0.12057017182E+00 -0.10852656565E-01 -0.76982036934E-02  0.88832100551E+00  0.88000000000E+00 0.  1.
        -11    1    4    4    0    0  0.54404536415E-01  0.22066541744E-01 -0.31899911954E-02  0.58798154834E-01  0.51100000000E-03 0. -1.
         11    1    4    4    0    0  0.71762195151E-01  0.11289114908E-01  0.11828905940E-01  0.73603266945E-01  0.51100000000E-03 0.  1.
</event>
<event>
 8    1  0.1090774E+005  0.1043930E+01  0.7957747E-01            NaN
         13   -1    0    0    0    0  0.00000000000E+00  0.00000000000E+00  0.74505805969E-08  0.10566000000E+00  0.10566000000E+00 0. -1.
     999900   -1    0    0    0    0 -0.00000000000E+00 -0.00000000000E+00 -0.74505805969E-08  0.93827000000E+00  0.93827000000E+00 0.  1.
     999902    2    1    2    0    0 -0.18304981581E-01  0.11726021506E-01  0.67040868337E-02  0.10211810064E+01  0.10209275836E+01 0.  0.
     999903    2    3    3    0    0  0.45793146177E-01 -0.73256584079E-01  0.95322424107E-01  0.13034778801E+00  0.20991473329E-01 0.  0.
         14    1    1    2    0    0  0.18304981581E-01 -0.11726021506E-01 -0.67040868337E-02  0.22748993634E-01  0.00000000000E+00 0.  1.
     999901    1    3    3    0    0 -0.64098127759E-01  0.84982605585E-01 -0.88618337274E-01  0.89083321836E+00  0.88000000000E+00 0.  1.
        -11    1    4    4    0    0  0.25203745349E-01 -0.46780666580E-01  0.72026720324E-01  0.89508486229E-01  0.51100000000E-03 0. -1.
         11    1    4    4    0    0  0.20589400828E-01 -0.26475917498E-01  0.23295703783E-01  0.40839301776E-01  0.51100000000E-03 0.  1.
</event>
<event>
 8    1  0.1250864E+005  0.1043930E+01  0.7957747E-01            NaN
         13   -1    0    0    0    0  0.00000000000E+00  0.00000000000E+00  0.74505805969E-08  0.10566000000E+00  0.10566000000E+00 0.  1.
     999900   -1    0    0    0    0 -0.00000000000E+00 -0.00000000000E+00 -0.74505805969E-08  0.93827000000E+00  0.93827000000E+00 0.  1.
     999902    2    1    2    0    0 -0.18328886816E-01  0.15770731280E-01  0.79774290734E-03  0.10197370165E+01  0.10194499901E+01 0.  0.
     999903    2    3    3    0    0  0.12029072787E+00 -0.23095510837E-01  0.31042353965E-01  0.12752587621E+00  0.17203474419E-01 0.  0.
         14    1    1    2    0    0  0.18328886816E-01 -0.15770731280E-01 -0.79774290734E-03  0.24192983502E-01  0.00000000000E+00 0.  1.
     999901    1    3    3    0    0 -0.13861961468E+00  0.38866242117E-01 -0.30244611058E-01  0.89221114029E+00  0.88000000000E+00 0. -1.
        -11    1    4    4    0    0  0.61758318560E-01 -0.12700891177E-01  0.24776644879E-01  0.67746186612E-01  0.51100000000E-03 0.  1.
         11    1    4    4    0    0  0.58532409308E-01 -0.10394619660E-01  0.62657090864E-02  0.59779689600E-01  0.51100000000E-03 0. -1.
</event>
<event>
 8    1  0.1090774E+005  0.1043930E+01  0.7957747E-01            NaN
         13   -1    0    0    0    0  0.00000000000E+00  0.00000000000E+00  0.74505805969E-08  0.10566000000E+00  0.10566000000E+00 0.  1.
     999900   -1    0    0    0    0 -0.00000000000E+00 -0.00000000000E+00 -0.74505805969E-08  0.93827000000E+00  0.93827000000E+00 0. -1.
     999902    2    1    2    0    0 -0.78827604344E-02  0.14893402805E-01 -0.16411559285E-01  0.10204078692E+01  0.10201367207E+01 0.  0.
     999903    2    3    3    0    0  0.51160282108E-01 -0.46650070642E-01  0.10564307100E+00  0.12789959878E+00  0.20105853902E-01 0.  0.
         14    1    1    2    0    0  0.78827604344E-02 -0.14893402805E-01  0.16411559285E-01  0.23522130799E-01  0.00000000000E+00 0.  1.
     999901    1    3    3    0    0 -0.59043042543E-01  0.61543473446E-01 -0.12205463029E+00  0.89250827042E+00  0.88000000000E+00 0. -1.
        -11    1    4    4    0    0  0.24974168799E-01 -0.34009922429E-01  0.71760256127E-01  0.83247699135E-01  0.51100000000E-03 0.  1.
         11    1    4    4    0    0  0.26186113309E-01 -0.12640148213E-01  0.33882814874E-01  0.44651899644E-01  0.51100000000E-03 0. -1.
</event>
<event>
 8    1  0.1090774E+005  0.1043930E+01  0.7957747E-01            NaN
         13   -1    0    0    0    0  0.00000000000E+00  0.00000000000E+00  0.74505805969E-08  0.10566000000E+00  0.10566000000E+00 0.  1.
     999900   -1    0    0    0    0 -0.00000000000E+00 -0.00000000000E+00 -0.74505805969E-08  0.93827000000E+00  0.93827000000E+00 0.  1.
     999902    2    1    2    0    0 -0.18893837012E-01 -0.76843370431E-02 -0.12493208056E-01  0.10200112550E+01  0.10197307753E+01 0.  0.
     999903    2    3    3    0    0 -0.11561910441E-01 -0.11108003780E+00  0.64216974566E-01  0.13061321131E+00  0.21529945999E-01 0.  0.
         14    1    1    2    0    0  0.18893837012E-01  0.76843370431E-02  0.12493208056E-01  0.23918744958E-01  0.00000000000E+00 0.  1.
     999901    1    3    3    0    0 -0.73319265713E-02  0.10339570076E+00 -0.76710182622E-01  0.88939804374E+00  0.88000000000E+00 0. -1.
        -11    1    4    4    0    0 -0.17381848737E-01 -0.90148171703E-01  0.54865451026E-01  0.10695466499E+00  0.51100000000E-03 0.  1.
         11    1    4    4    0    0  0.58199382954E-02 -0.20931866097E-01  0.93515235401E-02  0.23658546312E-01  0.51100000000E-03 0. -1.
</event>
<event>
 8    1  0.1090774E+005  0.1043930E+01  0.7957747E-01            NaN
         13   -1    0    0    0    0  0.00000000000E+00  0.00000000000E+00  0.74505805969E-08  0.10566000000E+00  0.10566000000E+00 0.  1.
     999900   -1    0    0    0    0 -0.00000000000E+00 -0.00000000000E+00 -0.74505805969E-08  0.93827000000E+00  0.93827000000E+00 0.  1.
     999902    2    1    2    0    0  0.48337226903E-02 -0.20319683460E-02 -0.22598385508E-01  0.10207312759E+01  0.10204676168E+01 0.  0.
     999903    2    3    3    0    0 -0.74605456159E-01 -0.10042998571E+00  0.29537140647E-01  0.13016355474E+00  0.20443878923E-01 0.  0.
         14    1    1    2    0    0 -0.48337226903E-02  0.20319683460E-02  0.22598385508E-01  0.23198724059E-01  0.00000000000E+00 0.  1.
     999901    1    3    3    0    0  0.79439178850E-01  0.98398017369E-01 -0.52135526155E-01  0.89056772120E+00  0.88000000000E+00 0.  1.
        -11    1    4    4    0    0 -0.23871876986E-01 -0.31413009459E-01 -0.29348235242E-03  0.39458724346E-01  0.51100000000E-03 0. -1.
         11    1    4    4    0    0 -0.50733579174E-01 -0.69016976255E-01  0.29830622999E-01  0.90704830393E-01  0.51100000000E-03 0.  1.
</event>
<event>
 8    1  0.1090774E+005  0.1043930E+01  0.7957747E-01            NaN
         13   -1    0    0    0    0  0.00000000000E+00  0.00000000000E+00  0.74505805969E-08  0.10566000000E+00  0.10566000000E+00 0.  1.
     999900   -1    0    0    0    0 -0.00000000000E+00 -0.00000000000E+00 -0.74505805969E-08  0.93827000000E+00  0.93827000000E+00 0. -1.
     999902    2    1    2    0    0  0.47242059869E-02  0.15942211957E-01 -0.14394233622E-01  0.10219375875E+01  0.10217009184E+01 0.  0.
     999903    2    3    3    0    0  0.85961902494E-03  0.42682876483E-01  0.12227331499E+00  0.13097854414E+00  0.19546062960E-01 0.  0.
         14    1    1    2    0    0 -0.47242059869E-02 -0.15942211957E-01  0.14394233622E-01  0.21992412461E-01  0.00000000000E+00 0.  1.
     999901    1    3    3    0    0  0.38645869620E-02 -0.26740664525E-01 -0.13666754861E+00  0.89095904340E+00  0.88000000000E+00 0. -1.
        -11    1    4    4    0    0 -0.28292314469E-02  0.26199210981E-02  0.30833147239E-01  0.31077526072E-01  0.51100000000E-03 0.  1.
         11    1    4    4    0    0  0.36888504718E-02  0.40062955384E-01  0.91440167749E-01  0.99901018068E-01  0.51100000000E-03 0. -1.
</event>
<event>
 8    1  0.1090774E+005  0.1043930E+01  0.7957747E-01            NaN
         13   -1    0    0    0    0  0.00000000000E+00  0.00000000000E+00  0.74505805969E-08  0.10566000000E+00  0.10566000000E+00 0.  1.
     999900   -1    0    0    0    0 -0.00000000000E+00 -0.00000000000E+00 -0.74505805969E-08  0.93827000000E+00  0.93827000000E+00 0.  1.
     999902    2    1    2    0    0 -0.17695324571E-01 -0.12680541879E-02 -0.15380917059E-01  0.10204501132E+01  0.10201799491E+01 0.  0.
     999903    2    3    3    0    0  0.23091759463E-02 -0.12146109888E+00 -0.46104162107E-01  0.13152353256E+00  0.20364552997E-01 0.  0.
         14    1    1    2    0    0  0.17695324571E-01  0.12680541879E-02  0.15380917059E-01  0.23479886769E-01  0.00000000000E+00 0.  1.
     999901    1    3    3    0    0 -0.20004500518E-01  0.12019304469E+00  0.30723245048E-01  0.88892658067E+00  0.88000000000E+00 0. -1.
        -11    1    4    4    0    0  0.11096696526E-01 -0.66682885001E-01 -0.27893235122E-01  0.73130277672E-01  0.51100000000E-03 0. -1.
         11    1    4    4    0    0 -0.87875205800E-02 -0.54778213882E-01 -0.18210926985E-01  0.58393254890E-01  0.51100000000E-03 0.  1.
</event>
<event>
 8    1  0.1090774E+005  0.1043930E+01  0.7957747E-01            NaN
         13   -1    0    0    0    0  0.00000000000E+00  0.00000000000E+00  0.74505805969E-08  0.10566000000E+00  0.10566000000E+00 0.  1.
     999900   -1    0    0    0    0 -0.00000000000E+00 -0.00000000000E+00 -0.74505805969E-08  0.93827000000E+00  0.93827000000E+00 0.  1.
     999902    2    1    2    0    0 -0.12276272038E-01  0.69823896218E-02 -0.14009925517E-01  0.10240368194E+01  0.10238435764E+01 0.  0.
     999903    2    3    3    0    0  0.21704271024E-01  0.13016006535E+00 -0.17531865854E-01  0.13480129317E+00  0.21243924469E-01 0.  0.
         14    1    1    2    0    0  0.12276272038E-01 -0.69823896218E-02  0.14009925517E-01  0.19893180565E-01  0.00000000000E+00 0.  1.
     999901    1    3    3    0    0 -0.33980543062E-01 -0.12317767573E+00  0.35219403364E-02  0.88923552626E+00  0.88000000000E+00 0. -1.
        -11    1    4    4    0    0 -0.27857591409E-02  0.18911733978E-01 -0.71514139560E-02  0.20416120558E-01  0.51100000000E-03 0. -1.
         11    1    4    4    0    0  0.24490030165E-01  0.11124833138E+00 -0.10380451898E-01  0.11438517261E+00  0.51100000000E-03 0.  1.
</event>
<event>
 8    1  0.1090774E+005  0.1043930E+01  0.7957747E-01            NaN
         13   -1    0    0    0    0  0.00000000000E+00  0.00000000000E+00  0.74505805969E-08  0.10566000000E+00  0.10566000000E+00 0. -1.
     999900   -1    0    0    0    0 -0.00000000000E+00 -0.00000000000E+00 -0.74505805969E-08  0.93827000000E+00  0.93827000000E+00 0.  1.
     999902    2    1    2    0    0  0.51856291047E-02  0.24693690426E-01 -0.45690938049E-02  0.10182873458E+01  0.10179644262E+01 0.  0.
     999903    2    3    3    0    0 -0.10070424494E+00 -0.60474299877E-01 -0.43538096179E-01  0.12700465488E+00  0.20883741234E-01 0.  0.
         14    1    1    2    0    0 -0.51856291047E-02 -0.24693690426E-01  0.45690938049E-02  0.25642654197E-01  0.00000000000E+00 0.  1.
     999901    1    3    3    0    0  0.10588987404E+00  0.85167990303E-01  0.38969002374E-01  0.89128269093E+00  0.88000000000E+00 0. -1.
        -11    1    4    4    0    0 -0.34580573185E-01 -0.31938071123E-01 -0.20934783224E-01  0.51520701649E-01  0.51100000000E-03 0. -1.
         11    1    4    4    0    0 -0.66123671752E-01 -0.28536228754E-01 -0.22603312955E-01  0.75483953228E-01  0.51100000000E-03 0.  1.
</event>
<event>
 8    1  0.1090774E+005  0.1043930E+01  0.7957747E-01            NaN
         13   -1    0    0    0    0  0.00000000000E+00  0.00000000000E+00  0.74505805969E-08  0.10566000000E+00  0.10566000000E+00 0.  1.
     999900   -1    0    0    0    0 -0.00000000000E+00 -0.00000000000E+00 -0.74505805969E-08  0.93827000000E+00  0.93827000000E+00 0.  1.
     999902    2    1    2    0    0 -0.20736402411E-01 -0.84309066152E-02 -0.77087793334E-02  0.10202550375E+01  0.10199803124E+01 0.  0.
     999903    2    3    3    0    0  0.69269934400E-01 -0.10814403712E+00 -0.50038099583E-02  0.13005777512E+00  0.19913065559E-01 0.  0.
         14    1    1    2    0    0  0.20736402411E-01  0.84309066152E-02  0.77087793334E-02  0.23674962515E-01  0.00000000000E+00 0. -1.
     999901    1    3    3    0    0 -0.90006336810E-01  0.99713130500E-01 -0.27049693751E-02  0.89019726236E+00  0.88000000000E+00 0. -1.
        -11    1    4    4    0    0  0.44311559284E-01 -0.56887711939E-01 -0.10115055606E-01  0.72816904128E-01  0.51100000000E-03 0.  1.
         11    1    4    4    0    0  0.24958375116E-01 -0.51256325177E-01  0.51112456472E-02  0.57240870994E-01  0.51100000000E-03 0. -1.
</event>
<event>
 7    1  0.1090774E+005  0.1043930E+01  0.7957747E-01            NaN
         13   -1    0    0    0    0  0.00000000000E+00  0.00000000000E+00  0.74505805969E-08  0.10566000000E+00  0.10566000000E+00 0. -1.
     999900   -1    0    0    0    0 -0.00000000000E+00 -0.00000000000E+00 -0.74505805969E-08  0.93827000000E+00  0.93827000000E+00 0.  1.
     999903    2    1    2    0    0  0.49071646085E-01  0.29727929535E-01  0.58648950939E-01  0.84440260956E-01  0.19967022315E-01 0.  0.
         14    1    1    2    0    0 -0.52957007313E-01  0.17634145946E-01 -0.54769339849E-01  0.78199030136E-01  0.00000000000E+00 0.  1.
     999901    1    1    2    0    0  0.38853612279E-02 -0.47362075481E-01 -0.38796110907E-02  0.88129070891E+00  0.88000000000E+00 0. -1.
        -11    1    3    3    0    0  0.30171110853E-01  0.88957080007E-02  0.22712245970E-01  0.38801247260E-01  0.51100000000E-03 0. -1.
         11    1    3    3    0    0  0.18900535232E-01  0.20832221534E-01  0.35936704969E-01  0.45639013696E-01  0.51100000000E-03 0.  1.
</event>
<event>
 8    1  0.1090774E+005  0.1043930E+01  0.7957747E-01            NaN
         13   -1    0    0    0    0  0.00000000000E+00  0.00000000000E+00  0.74505805969E-08  0.10566000000E+00  0.10566000000E+00 0. -1.
     999900   -1    0    0    0    0 -0.00000000000E+00 -0.00000000000E+00 -0.74505805969E-08  0.93827000000E+00  0.93827000000E+00 0. -1.
     999902    2    1    2    0    0 -0.16804304695E-01  0.42542876122E-02 -0.15995281552E-01  0.10203432950E+01  0.10200706383E+01 0.  0.
     999903    2    3    3    0    0 -0.10146709102E+00  0.58486862041E-01  0.53911123820E-01  0.13186377077E+00  0.27665161809E-01 0.  0.
         14    1    1    2    0    0  0.16804304695E-01 -0.42542876122E-02  0.15995281552E-01  0.23586704969E-01  0.00000000000E+00 0. -1.
     999901    1    3    3    0    0  0.84662786330E-01 -0.54232574428E-01 -0.69906405372E-01  0.88847952426E+00  0.88000000000E+00 0. -1.
        -11    1    4    4    0    0 -0.42377470132E-01  0.14412332710E-01  0.93705415929E-02  0.45734379625E-01  0.51100000000E-03 0.  1.
         11    1    4    4    0    0 -0.59089620893E-01  0.44074529331E-01  0.44540582227E-01  0.86129391146E-01  0.51100000000E-03 0. -1.
</event>
<event>
 8    1  0.1090774E+005  0.1043930E+01  0.7957747E-01            NaN
         13   -1    0    0    0    0  0.00000000000E+00  0.00000000000E+00  0.74505805969E-08  0.10566000000E+00  0.10566000000E+00 0. -1.
     999900   -1    0    0    0    0 -0.00000000000E+00 -0.00000000000E+00 -0.74505805969E-08  0.93827000000E+00  0.93827000000E+00 0. -1.
     999902    2    1    2    0    0  0.23117192204E-01 -0.11460274895E-02  0.85936337746E-02  0.10192405590E+01  0.10189414844E+01 0.  0.
     999903    2    3    3    0    0  0.22609126750E-01  0.71099869128E-01 -0.10360424886E+00  0.12917983493E+00  0.19678042801E-01 0.  0.
         14    1    1    2    0    0 -0.23117192204E-01  0.11460274895E-02 -0.85936337746E-02  0.24689440979E-01  0.00000000000E+00 0. -1.
     999901    1    3    3    0    0  0.50806545439E-03 -0.72245896617E-01  0.11219788263E+00  0.89006072409E+00  0.88000000000E+00 0.  1.
        -11    1    4    4    0    0  0.89433916319E-02  0.21919531456E-01 -0.18960073019E-01  0.30334726025E-01  0.51100000000E-03 0. -1.
         11    1    4    4    0    0  0.13665735118E-01  0.49180337672E-01 -0.84644175836E-01  0.98845108902E-01  0.51100000000E-03 0.  1.
</event>
<event>
 8    1  0.1090774E+005  0.1043930E+01  0.7957747E-01            NaN
         13   -1    0    0    0    0  0.00000000000E+00  0.00000000000E+00  0.74505805969E-08  0.10566000000E+00  0.10566000000E+00 0.  1.
     999900   -1    0    0    0    0 -0.00000000000E+00 -0.00000000000E+00 -0.74505805969E-08  0.93827000000E+00  0.93827000000E+00 0. -1.
     999902    2    1    2    0    0  0.22831082086E-01  0.63355286450E-02 -0.32577080775E-02  0.10200132717E+01  0.10197328398E+01 0.  0.
     999903    2    3    3    0    0 -0.78242132509E-01  0.98290508248E-01 -0.22290013732E-01  0.12926429376E+00  0.20725771807E-01 0.  0.
         14    1    1    2    0    0 -0.22831082086E-01 -0.63355286450E-02  0.32577080775E-02  0.23916728337E-01  0.00000000000E+00 0.  1.
     999901    1    3    3    0    0  0.10107321460E+00 -0.91954979603E-01  0.19032305654E-01  0.89074897791E+00  0.88000000000E+00 0.  1.
        -11    1    4    4    0    0 -0.68640200741E-02  0.12030819809E-01 -0.89730908524E-02  0.16511598266E-01  0.51100000000E-03 0. -1.
         11    1    4    4    0    0 -0.71378112435E-01  0.86259688439E-01 -0.13316922879E-01  0.11275269549E+00  0.51100000000E-03 0.  1.
</event>
<event>
 8    1  0.1090774E+005  0.1043930E+01  0.7957747E-01            NaN
         13   -1    0    0    0    0  0.00000000000E+00  0.00000000000E+00  0.74505805969E-08  0.10566000000E+00  0.10566000000E+00 0.  1.
     999900   -1    0    0    0    0 -0.00000000000E+00 -0.00000000000E+00 -0.74505805969E-08  0.93827000000E+00  0.93827000000E+00 0. -1.
     999902    2    1    2    0    0  0.23107481062E-01  0.39746169523E-02  0.39541324845E-02  0.10201521022E+01  0.10198749547E+01 0.  0.
     999903    2    3    3    0    0 -0.23602525329E-01  0.94131309868E-01 -0.84197422700E-01  0.12993822302E+00  0.19415280390E-01 0.  0.
         14    1    1    2    0    0 -0.23107481062E-01 -0.39746169523E-02 -0.39541324845E-02  0.23777897818E-01  0.00000000000E+00 0. -1.
     999901    1    3    3    0    0  0.46710006390E-01 -0.90156692915E-01  0.88151555184E-01  0.89021387916E+00  0.88000000000E+00 0.  1.
        -11    1    4    4    0    0 -0.13492244526E-01  0.27425176103E-01 -0.34793428123E-01  0.46314411452E-01  0.51100000000E-03 0. -1.
         11    1    4    4    0    0 -0.10110280803E-01  0.66706133764E-01 -0.49403994577E-01  0.83623811566E-01  0.51100000000E-03 0.  1.
</event>
<event>
 8    1  0.1090774E+005  0.1043930E+01  0.7957747E-01            NaN
         13   -1    0    0    0    0  0.00000000000E+00  0.00000000000E+00  0.74505805969E-08  0.10566000000E+00  0.10566000000E+00 0.  1.
     999900   -1    0    0    0    0 -0.00000000000E+00 -0.00000000000E+00 -0.74505805969E-08  0.93827000000E+00  0.93827000000E+00 0.  1.
     999902    2    1    2    0    0 -0.36645255607E-02 -0.23567964270E-01 -0.26426935183E-02  0.10199328852E+01  0.10196505425E+01 0.  0.
     999903    2    3    3    0    0  0.95794707338E-01  0.13798749044E-01 -0.84349559632E-01  0.12978434582E+00  0.19028840767E-01 0.  0.
         14    1    1    2    0    0  0.36645255607E-02  0.23567964270E-01  0.26426935183E-02  0.23997114752E-01  0.00000000000E+00 0.  1.
     999901    1    3    3    0    0 -0.99459232899E-01 -0.37366713314E-01  0.81706866114E-01  0.89014853943E+00  0.88000000000E+00 0. -1.
        -11    1    4    4    0    0  0.70189099327E-01  0.24892298667E-02 -0.54855007582E-01  0.89118117728E-01  0.51100000000E-03 0. -1.
         11    1    4    4    0    0  0.25605608011E-01  0.11309519177E-01 -0.29494552051E-01  0.40666228093E-01  0.51100000000E-03 0.  1.
</event>
<event>
 8    1  0.1090774E+005  0.1043930E+01  0.7957747E-01            NaN
         13   -1    0    0    0    0  0.00000000000E+00  0.00000000000E+00  0.74505805969E-08  0.10566000000E+00  0.10566000000E+00 0.  1.
     999900   -1    0    0    0    0 -0.00000000000E+00 -0.00000000000E+00 -0.74505805969E-08  0.93827000000E+00  0.93827000000E+00 0.  1.
     999902    2    1    2    0    0 -0.80593164080E-02 -0.17483615626E-01 -0.12346735624E-01  0.10210592484E+01  0.10208030748E+01 0.  0.
     999903    2    3    3    0    0  0.10763368246E+00 -0.52216998166E-01 -0.51985852269E-01  0.13192341100E+00  0.19739124529E-01 0.  0.
         14    1    1    2    0    0  0.80593164080E-02  0.17483615626E-01  0.12346735624E-01  0.22870751559E-01  0.00000000000E+00 0.  1.
     999901    1    3    3    0    0 -0.11569299887E+00  0.34733382540E-01  0.39639116645E-01  0.88913583744E+00  0.88000000000E+00 0.  1.
        -11    1    4    4    0    0  0.10425325322E+00 -0.49433218276E-01 -0.53607468720E-01  0.12722580595E+00  0.51100000000E-03 0. -1.
         11    1    4    4    0    0  0.33804292419E-02 -0.27837798895E-02  0.16216164509E-02  0.46976050544E-02  0.51100000000E-03 0.  1.
</event>
<event>
 8    1  0.1090774E+005  0.1043930E+01  0.7957747E-01            NaN
         13   -1    0    0    0    0  0.00000000000E+00  0.00000000000E+00  0.74505805969E-08  0.10566000000E+00  0.10566000000E+00 0. -1.
     999900   -1    0    0    0    0 -0.00000000000E+00 -0.00000000000E+00 -0.74505805969E-08  0.93827000000E+00  0.93827000000E+00 0.  1.
     999902    2    1    2    0    0 -0.12643626772E-01  0.18474928807E-01  0.95020175611E-03  0.10215226982E+01  0.10212769143E+01 0.  0.
     999903    2    3    3    0    0 -0.31345292232E-01 -0.12261349770E+00 -0.19942691414E-01  0.12984326621E+00  0.21094209510E-01 0.  0.
         14    1    1    2    0    0  0.12643626772E-01 -0.18474928807E-01 -0.95020175611E-03  0.22407301840E-01  0.00000000000E+00 0.  1.
     999901    1    3    3    0    0  0.18701665459E-01  0.14108842651E+00  0.20892893170E-01  0.89167943195E+00  0.88000000000E+00 0.  1.
        -11    1    4    4    0    0 -0.13990964448E-01 -0.50499499482E-01 -0.18754741139E-01  0.55659212807E-01  0.51100000000E-03 0. -1.
         11    1    4    4    0    0 -0.17354327784E-01 -0.72113998218E-01 -0.11879502748E-02  0.74184053399E-01  0.51100000000E-03 0.  1.
</event>
<event>
 8    1  0.1090774E+005  0.1043930E+01  0.7957747E-01            NaN
         13   -1    0    0    0    0  0.00000000000E+00  0.00000000000E+00  0.74505805969E-08  0.10566000000E+00  0.10566000000E+00 0. -1.
     999900   -1    0    0    0    0 -0.00000000000E+00 -0.00000000000E+00 -0.74505805969E-08  0.93827000000E+00  0.93827000000E+00 0.  1.
     999902    2    1    2    0    0  0.54891238388E-02 -0.15396767370E-01 -0.16548299972E-01  0.10206697945E+01  0.10204047199E+01 0.  0.
     999903    2    3    3    0    0 -0.79317356972E-01 -0.41156450764E-01  0.91764302033E-01  0.12961013311E+00  0.19824301283E-01 0.  0.
         14    1    1    2    0    0 -0.54891238388E-02  0.15396767370E-01  0.16548299972E-01  0.23260205457E-01  0.00000000000E+00 0. -1.
     999901    1    3    3    0    0  0.84806480810E-01  0.25759683394E-01 -0.10831260200E+00  0.89105966143E+00  0.88000000000E+00 0.  1.
        -11    1    4    4    0    0 -0.55288583156E-02  0.16893920545E-02  0.31943815755E-02  0.66247652364E-02  0.51100000000E-03 0. -1.
         11    1    4    4    0    0 -0.73788498656E-01 -0.42845842818E-01  0.88569920457E-01  0.12298536788E+00  0.51100000000E-03 0.  1.
</event>
<event>
 8    1  0.1090774E+005  0.1043930E+01  0.7957747E-01            NaN
         13   -1    0    0    0    0  0.00000000000E+00  0.00000000000E+00  0.74505805969E-08  0.10566000000E+00  0.10566000000E+00 0.  1.
     999900   -1    0    0    0    0 -0.00000000000E+00 -0.00000000000E+00 -0.74505805969E-08  0.93827000000E+00  0.93827000000E+00 0. -1.
     999902    2    1    2    0    0  0.10564784098E-01  0.84141410428E-04  0.21501685187E-01  0.10199728673E+01  0.10196914758E+01 0.  0.
     999903    2    3    3    0    0 -0.29648121413E-01  0.11434270298E+00 -0.47754753980E-01  0.12897985325E+00  0.20050466041E-01 0.  0.
         14    1    1    2    0    0 -0.10564784098E-01 -0.84141410428E-04 -0.21501685187E-01  0.23957132731E-01  0.00000000000E+00 0. -1.
     999901    1    3    3    0    0  0.40212905511E-01 -0.11425856157E+00  0.69256439167E-01  0.89099301402E+00  0.88000000000E+00 0.  1.
        -11    1    4    4    0    0 -0.13696324748E-01  0.39769808250E-01 -0.74407555581E-02  0.42718297299E-01  0.51100000000E-03 0. -1.
         11    1    4    4    0    0 -0.15951796665E-01  0.74572894732E-01 -0.40313998422E-01  0.86261555952E-01  0.51100000000E-03 0.  1.
</event>
<event>
 8    1  0.1090774E+005  0.1043930E+01  0.7957747E-01            NaN
         13   -1    0    0    0    0  0.00000000000E+00  0.00000000000E+00  0.74505805969E-08  0.10566000000E+00  0.10566000000E+00 0. -1.
     999900   -1    0    0    0    0 -0.00000000000E+00 -0.00000000000E+00 -0.74505805969E-08  0.93827000000E+00  0.93827000000E+00 0.  1.
     999902    2    1    2    0    0 -0.85916392625E-02 -0.19073070893E-01  0.10194865138E-01  0.10206591261E+01  0.10203938054E+01 0.  0.
     999903    2    3    3    0    0 -0.27902874082E-01 -0.12957407874E+00 -0.84459534591E-02  0.13334245393E+00  0.11868598412E-01 0.  0.
         14    1    1    2    0    0  0.85916392625E-02  0.19073070893E-01 -0.10194865138E-01  0.23270873935E-01  0.00000000000E+00 0.  1.
     999901    1    3    3    0    0  0.19311234819E-01  0.11050100785E+00  0.18640818597E-01  0.88731667213E+00  0.88000000000E+00 0. -1.
        -11    1    4    4    0    0 -0.20161652234E-01 -0.66791124346E-01 -0.61525245777E-02  0.70040425411E-01  0.51100000000E-03 0. -1.
         11    1    4    4    0    0 -0.77412218484E-02 -0.62782954393E-01 -0.22934288814E-02  0.63302028522E-01  0.51100000000E-03 0.  1.
</event>
<event>
 8    1  0.1090774E+005  0.1043930E+01  0.7957747E-01            NaN
         13   -1    0    0    0    0  0.00000000000E+00  0.00000000000E+00  0.74505805969E-08  0.10566000000E+00  0.10566000000E+00 0.  1.
     999900   -1    0    0    0    0 -0.00000000000E+00 -0.00000000000E+00 -0.74505805969E-08  0.93827000000E+00  0.93827000000E+00 0.  1.
     999902    2    1    2    0    0 -0.13002285900E-01 -0.17341032010E-01 -0.90973389615E-02  0.10204239921E+01  0.10201532195E+01 0.  0.
     999903    2    3    3    0    0  0.43230967579E-01  0.11484411025E+00  0.30176153639E-01  0.12791208865E+00  0.19819585211E-01 0.  0.
         14    1    1    2    0    0  0.13002285900E-01  0.17341032010E-01  0.90973389615E-02  0.23506007870E-01  0.00000000000E+00 0.  1.
     999901    1    3    3    0    0 -0.56233253480E-01 -0.13218514226E+00 -0.39273492601E-01  0.89251190348E+00  0.88000000000E+00 0.  1.
        -11    1    4    4    0    0  0.35752450160E-01  0.10177414564E+00  0.19947959737E-01  0.10970139758E+00  0.51100000000E-03 0.  1.
         11    1    4    4    0    0  0.74785174197E-02  0.13069964612E-01  0.10228193902E-01  0.18210691071E-01  0.51100000000E-03 0. -1.
</event>
<event>
 8    1  0.1090774E+005  0.1043930E+01  0.7957747E-01            NaN
         13   -1    0    0    0    0  0.00000000000E+00  0.00000000000E+00  0.74505805969E-08  0.10566000000E+00  0.10566000000E+00 0. -1.
     999900   -1    0    0    0    0 -0.00000000000E+00 -0.00000000000E+00 -0.74505805969E-08  0.93827000000E+00  0.93827000000E+00 0.  1.
     999902    2    1    2    0    0 -0.17268437648E-01  0.15902733290E-01 -0.17350722659E-02  0.10203905365E+01  0.10201189836E+01 0.  0.
     999903    2    3    3    0    0 -0.10508958001E+00 -0.28254648627E-01  0.71558870372E-01  0.13188931005E+00  0.20783964496E-01 0.  0.
         14    1    1    2    0    0  0.17268437648E-01 -0.15902733290E-01  0.17350722659E-02  0.23539463474E-01  0.00000000000E+00 0. -1.
     999901    1    3    3    0    0  0.87821142364E-01  0.44157381916E-01 -0.73293942638E-01  0.88850122648E+00  0.88000000000E+00 0.  1.
        -11    1    4    4    0    0 -0.85280298905E-01 -0.29465888005E-01  0.64107117665E-01  0.11068401688E+00  0.51100000000E-03 0.  1.
         11    1    4    4    0    0 -0.19809281106E-01  0.12112393787E-02  0.74517527070E-02  0.21205293164E-01  0.51100000000E-03 0. -1.
</event>
<event>
 8    1  0.1090774E+005  0.1043930E+01  0.7957747E-01            NaN
         13   -1    0    0    0    0  0.00000000000E+00  0.00000000000E+00  0.74505805969E-08  0.10566000000E+00  0.10566000000E+00 0. -1.
     999900   -1    0    0    0    0 -0.00000000000E+00 -0.00000000000E+00 -0.74505805969E-08  0.93827000000E+00  0.93827000000E+00 0. -1.
     999902    2    1    2    0    0 -0.70145423262E-03 -0.22119935073E-01 -0.94558778115E-02  0.10198634840E+01  0.10195794863E+01 0.  0.
     999903    2    3    3    0    0 -0.44427564883E-01  0.11315318663E+00  0.32900953936E-01  0.12744828279E+00  0.19573958494E-01 0.  0.
         14    1    1    2    0    0  0.70145423262E-03  0.22119935073E-01  0.94558778115E-02  0.24066515969E-01  0.00000000000E+00 0. -1.
     999901    1    3    3    0    0  0.43726110650E-01 -0.13527312170E+00 -0.42356831748E-01  0.89241520124E+00  0.88000000000E+00 0. -1.
        -11    1    4    4    0    0 -0.17927694637E-01  0.40334401057E-01  0.25226539647E-02  0.44214149858E-01  0.51100000000E-03 0. -1.
         11    1    4    4    0    0 -0.26499870245E-01  0.72818785571E-01  0.30378299972E-01  0.83234132934E-01  0.51100000000E-03 0.  1.
</event>
<event>
 8    1  0.1090774E+005  0.1043930E+01  0.7957747E-01            NaN
         13   -1    0    0    0    0  0.00000000000E+00  0.00000000000E+00  0.74505805969E-08  0.10566000000E+00  0.10566000000E+00 0.  1.
     999900   -1    0    0    0    0 -0.00000000000E+00 -0.00000000000E+00 -0.74505805969E-08  0.93827000000E+00  0.93827000000E+00 0. -1.
     999902    2    1    2    0    0 -0.60707607422E-02  0.19521851943E-01 -0.12222924429E-01  0.10201107489E+01  0.10198326252E+01 0.  0.
     999903    2    3    3    0    0  0.60537440045E-01 -0.10667429981E+00  0.29052093346E-01  0.12766145166E+00  0.20229538429E-01 0.  0.
         14    1    1    2    0    0  0.60707607422E-02 -0.19521851943E-01  0.12222924429E-01  0.23819251056E-01  0.00000000000E+00 0.  1.
     999901    1    3    3    0    0 -0.66608200787E-01  0.12619615175E+00 -0.41275017776E-01  0.89244929728E+00  0.88000000000E+00 0. -1.
        -11    1    4    4    0    0  0.25535577560E-01 -0.50094594560E-01  0.23347192144E-01  0.60884206716E-01  0.51100000000E-03 0.  1.
         11    1    4    4    0    0  0.35001862485E-01 -0.56579705250E-01  0.57049012023E-02  0.66777244944E-01  0.51100000000E-03 0. -1.
</event>
<event>
 8    1  0.1090774E+005  0.1043930E+01  0.7957747E-01            NaN
         13   -1    0    0    0    0  0.00000000000E+00  0.00000000000E+00  0.74505805969E-08  0.10566000000E+00  0.10566000000E+00 0. -1.
     999900   -1    0    0    0    0 -0.00000000000E+00 -0.00000000000E+00 -0.74505805969E-08  0.93827000000E+00  0.93827000000E+00 0.  1.
     999902    2    1    2    0    0 -0.14648554170E-01  0.34381969133E-02 -0.88454535562E-02  0.10264759636E+01  0.10263275600E+01 0.  0.
     999903    2    3    3    0    0  0.54773720855E-01 -0.10943840678E+00 -0.54416721724E-01  0.13538824605E+00  0.19795761891E-01 0.  0.
         14    1    1    2    0    0  0.14648554170E-01 -0.34381969133E-02  0.88454535562E-02  0.17454036378E-01  0.00000000000E+00 0. -1.
     999901    1    3    3    0    0 -0.69422275025E-01  0.11287660370E+00  0.45571268168E-01  0.89108771758E+00  0.88000000000E+00 0. -1.
        -11    1    4    4    0    0  0.17149045640E-01 -0.53392644680E-01 -0.30009761062E-01  0.63605905011E-01  0.51100000000E-03 0.  1.
         11    1    4    4    0    0  0.37624675215E-01 -0.56045762103E-01 -0.24406960662E-01  0.71782341035E-01  0.51100000000E-03 0. -1.
</event>
<event>
 7    1  0.1090774E+005  0.1043930E+01  0.7957747E-01            NaN
         13   -1    0    0    0    0  0.00000000000E+00  0.00000000000E+00  0.74505805969E-08  0.10566000000E+00  0.10566000000E+00 0.  1.
     999900   -1    0    0    0    0 -0.00000000000E+00 -0.00000000000E+00 -0.74505805969E-08  0.93827000000E+00  0.93827000000E+00 0.  1.
     999903    2    1    2    0    0 -0.40458840085E-01  0.93343167513E-01 -0.52273391894E-01  0.11610150821E+00  0.19929577160E-01 0.  0.
         14    1    1    2    0    0  0.16499499431E-01  0.26760954091E-01  0.22840802169E-01  0.38859804285E-01  0.00000000000E+00 0. -1.
     999901    1    1    2    0    0  0.23959340654E-01 -0.12010412160E+00  0.29432589725E-01  0.88896868751E+00  0.88000000000E+00 0. -1.
        -11    1    3    3    0    0 -0.11839934150E-01  0.19883930260E-01 -0.21106464563E-01  0.31325687393E-01  0.51100000000E-03 0.  1.
         11    1    3    3    0    0 -0.28618905934E-01  0.73459237253E-01 -0.31166927331E-01  0.84775820815E-01  0.51100000000E-03 0. -1.
</event>
<event>
 8    1  0.1090774E+005  0.1043930E+01  0.7957747E-01            NaN
         13   -1    0    0    0    0  0.00000000000E+00  0.00000000000E+00  0.74505805969E-08  0.10566000000E+00  0.10566000000E+00 0.  1.
     999900   -1    0    0    0    0 -0.00000000000E+00 -0.00000000000E+00 -0.74505805969E-08  0.93827000000E+00  0.93827000000E+00 0. -1.
     999902    2    1    2    0    0  0.85834460459E-02 -0.10552035317E-01  0.19060856386E-01  0.10205133982E+01  0.10202447053E+01 0.  0.
     999903    2    3    3    0    0  0.99886079360E-01 -0.72318423037E-01 -0.41501129673E-01  0.13157076129E+00  0.19527885221E-01 0.  0.
         14    1    1    2    0    0 -0.85834460459E-02  0.10552035317E-01 -0.19060856386E-01  0.23416601836E-01  0.00000000000E+00 0.  1.
     999901    1    3    3    0    0 -0.91302633314E-01  0.61766387719E-01  0.60561986059E-01  0.88894263688E+00  0.88000000000E+00 0.  1.
        -11    1    4    4    0    0  0.43120629177E-01 -0.19551189961E-01 -0.15519399510E-01  0.49827207143E-01  0.51100000000E-03 0. -1.
         11    1    4    4    0    0  0.56765450183E-01 -0.52767233075E-01 -0.25981730163E-01  0.81743554144E-01  0.51100000000E-03 0.  1.
</event>
<event>
 8    1  0.1090774E+005  0.1043930E+01  0.7957747E-01            NaN
         13   -1    0    0    0    0  0.00000000000E+00  0.00000000000E+00  0.74505805969E-08  0.10566000000E+00  0.10566000000E+00 0. -1.
     999900   -1    0    0    0    0 -0.00000000000E+00 -0.00000000000E+00 -0.74505805969E-08  0.93827000000E+00  0.93827000000E+00 0. -1.
     999902    2    1    2    0    0  0.85048476756E-02 -0.19309460638E-01 -0.11904895898E-01  0.10197036868E+01  0.10194158595E+01 0.  0.
     999903    2    3    3    0    0  0.14475089741E-01  0.63986753305E-01  0.10742307553E+00  0.12773223671E+00  0.21724969903E-01 0.  0.
         14    1    1    2    0    0 -0.85048476756E-02  0.19309460638E-01  0.11904895898E-01  0.24226313183E-01  0.00000000000E+00 0. -1.
     999901    1    3    3    0    0 -0.59702420653E-02 -0.83296213942E-01 -0.11932797142E+00  0.89197145011E+00  0.88000000000E+00 0. -1.
        -11    1    4    4    0    0 -0.43392290619E-02  0.10447911201E-01  0.10646866709E-01  0.15543636930E-01  0.51100000000E-03 0. -1.
         11    1    4    4    0    0  0.18814318803E-01  0.53538842104E-01  0.96776208817E-01  0.11218859978E+00  0.51100000000E-03 0.  1.
</event>
<event>
 8    1  0.1090774E+005  0.1043930E+01  0.7957747E-01            NaN
         13   -1    0    0    0    0  0.00000000000E+00  0.00000000000E+00  0.74505805969E-08  0.10566000000E+00  0.10566000000E+00 0. -1.
     999900   -1    0    0    0    0 -0.00000000000E+00 -0.00000000000E+00 -0.74505805969E-08  0.93827000000E+00  0.93827000000E+00 0.  1.
     999902    2    1    2    0    0  0.20652511950E-01 -0.11556054292E-01 -0.11456711603E-02  0.10202365156E+01  0.10199613554E+01 0.  0.
     999903    2    3    3    0    0  0.12876030325E+00 -0.17099405890E-01  0.22948138032E-01  0.13327623750E+00  0.19087510747E-01 0.  0.
         14    1    1    2    0    0 -0.20652511950E-01  0.11556054292E-01  0.11456711603E-02  0.23693484401E-01  0.00000000000E+00 0. -1.
     999901    1    3    3    0    0 -0.10810779130E+00  0.55433515976E-02 -0.24093809192E-01  0.88696027810E+00  0.88000000000E+00 0.  1.
        -11    1    4    4    0    0  0.48331780116E-01 -0.81537247623E-02 -0.50562302119E-03  0.49020005838E-01  0.51100000000E-03 0.  1.
         11    1    4    4    0    0  0.80428523138E-01 -0.89456811276E-02  0.23453761053E-01  0.84256231660E-01  0.51100000000E-03 0. -1.
</event>
<event>
 8    1  0.1090774E+005  0.1043930E+01  0.7957747E-01            NaN
         13   -1    0    0    0    0  0.00000000000E+00  0.00000000000E+00  0.74505805969E-08  0.10566000000E+00  0.10566000000E+00 0. -1.
     999900   -1    0    0    0    0 -0.00000000000E+00 -0.00000000000E+00 -0.74505805969E-08  0.93827000000E+00  0.93827000000E+00 0. -1.
     999902    2    1    2    0    0  0.10985348485E-01  0.13700107189E-01 -0.12411844830E-01  0.10224259374E+01  0.10221997714E+01 0.  0.
     999903    2    3    3    0    0 -0.56121455774E-01 -0.52772017963E-01  0.10264318289E+00  0.12992410206E+00  0.20252052306E-01 0.  0.
         14    1    1    2    0    0 -0.10985348485E-01 -0.13700107189E-01  0.12411844830E-01  0.21504062649E-01  0.00000000000E+00 0. -1.
     999901    1    3    3    0    0  0.67106804260E-01  0.66472125151E-01 -0.11505502772E+00  0.89250183529E+00  0.88000000000E+00 0. -1.
        -11    1    4    4    0    0 -0.48131177669E-01 -0.36753412065E-01  0.68971815417E-01  0.91786687516E-01  0.51100000000E-03 0. -1.
         11    1    4    4    0    0 -0.79902781054E-02 -0.16018605897E-01  0.33671367476E-01  0.38137414540E-01  0.51100000000E-03 0.  1.
</event>
<event>
 8    1  0.1090774E+005  0.1043930E+01  0.7957747E-01            NaN
         13   -1    0    0    0    0  0.00000000000E+00  0.00000000000E+00  0.74505805969E-08  0.10566000000E+00  0.10566000000E+00 0. -1.
     999900   -1    0    0    0    0 -0.00000000000E+00 -0.00000000000E+00 -0.74505805969E-08  0.93827000000E+00  0.93827000000E+00 0. -1.
     999902    2    1    2    0    0  0.52040825915E-02  0.17239564510E-01 -0.14721110869E-01  0.10206706757E+01  0.10204056214E+01 0.  0.
     999903    2    3    3    0    0 -0.57410956526E-01  0.11779228621E+00  0.15663522154E-03  0.13260939390E+00  0.20351564982E-01 0.  0.
         14    1    1    2    0    0 -0.52040825915E-02 -0.17239564510E-01  0.14721110869E-01  0.23259324266E-01  0.00000000000E+00 0.  1.
     999901    1    3    3    0    0  0.62615039117E-01 -0.10055272170E+00 -0.14877746091E-01  0.88806128183E+00  0.88000000000E+00 0. -1.
        -11    1    4    4    0    0 -0.59570921487E-02  0.16257870870E-01  0.67468791099E-02  0.18589965326E-01  0.51100000000E-03 0.  1.
         11    1    4    4    0    0 -0.51453864377E-01  0.10153441534E+00 -0.65902438883E-02  0.11401942857E+00  0.51100000000E-03 0. -1.
</event>
<event>
 8    1  0.1090774E+005  0.1043930E+01  0.7957747E-01            NaN
         13   -1    0    0    0    0  0.00000000000E+00  0.00000000000E+00  0.74505805969E-08  0.10566000000E+00  0.10566000000E+00 0. -1.
     999900   -1    0    0    0    0 -0.00000000000E+00 -0.00000000000E+00 -0.74505805969E-08  0.93827000000E+00  0.93827000000E+00 0. -1.
     999902    2    1    2    0    0  0.20867745584E-01  0.84024564121E-02  0.86428991669E-02  0.10198309588E+01  0.10195461837E+01 0.  0.
     999903    2    3    3    0    0  0.11194626670E+00  0.46420801580E-01 -0.49960540531E-01  0.13237670382E+00  0.18457482395E-01 0.  0.
         14    1    1    2    0    0 -0.20867745584E-01 -0.84024564121E-02 -0.86428991669E-02  0.24099041174E-01  0.00000000000E+00 0.  1.
     999901    1    3    3    0    0 -0.91078521121E-01 -0.38018345168E-01  0.58603439698E-01  0.88745425500E+00  0.88000000000E+00 0.  1.
        -11    1    4    4    0    0  0.96286251904E-01  0.44448172618E-01 -0.38337210741E-01  0.11276828102E+00  0.51100000000E-03 0.  1.
         11    1    4    4    0    0  0.15660014801E-01  0.19726289617E-02 -0.11623329789E-01  0.19608422807E-01  0.51100000000E-03 0. -1.
</event>
<event>
 8    1  0.1090774E+005  0.1043930E+01  0.7957747E-01            NaN
         13   -1    0    0    0    0  0.00000000000E+00  0.00000000000E+00  0.74505805969E-08  0.10566000000E+00  0.10566000000E+00 0. -1.
     999900   -1    0    0    0    0 -0.00000000000E+00 -0.00000000000E+00 -0.74505805969E-08  0.93827000000E+00  0.93827000000E+00 0. -1.
     999902    2    1    2    0    0  0.74117274772E-02  0.16409268921E-01  0.15862688651E-01  0.10199336940E+01  0.10196513705E+01 0.  0.
     999903    2    3    3    0    0 -0.11519430298E+00  0.27620281795E-01 -0.47344919198E-01  0.12911770446E+00  0.19930700577E-01 0.  0.
         14    1    1    2    0    0 -0.74117274772E-02 -0.16409268921E-01 -0.15862688651E-01  0.23996306006E-01  0.00000000000E+00 0.  1.
     999901    1    3    3    0    0  0.12260603046E+00 -0.11211012874E-01  0.63207607849E-01  0.89081598953E+00  0.88000000000E+00 0.  1.
        -11    1    4    4    0    0 -0.53122851918E-01  0.26539123188E-02 -0.22316617951E-01  0.57683387593E-01  0.51100000000E-03 0.  1.
         11    1    4    4    0    0 -0.62071451065E-01  0.24966369477E-01 -0.25028301247E-01  0.71434316869E-01  0.51100000000E-03 0. -1.
</event>
<event>
 8    1  0.1090774E+005  0.1043930E+01  0.7957747E-01            NaN
         13   -1    0    0    0    0  0.00000000000E+00  0.00000000000E+00  0.74505805969E-08  0.10566000000E+00  0.10566000000E+00 0.  1.
     999900   -1    0    0    0    0 -0.00000000000E+00 -0.00000000000E+00 -0.74505805969E-08  0.93827000000E+00  0.93827000000E+00 0.  1.
     999902    2    1    2    0    0  0.83257329588E-02  0.10127332074E-01 -0.13098294412E-01  0.10253977038E+01  0.10252302205E+01 0.  0.
     999903    2    3    3    0    0 -0.52924277262E-01  0.10348196988E+00 -0.68827902192E-01  0.13659376521E+00  0.20275092133E-01 0.  0.
         14    1    1    2    0    0 -0.83257329588E-02 -0.10127332074E-01  0.13098294412E-01  0.18532296154E-01  0.00000000000E+00 0.  1.
     999901    1    3    3    0    0  0.61250010221E-01 -0.93354637802E-01  0.55729607780E-01  0.88880393864E+00  0.88000000000E+00 0. -1.
        -11    1    4    4    0    0 -0.19542569085E-01  0.41196253556E-01 -0.15863723332E-01  0.48280038861E-01  0.51100000000E-03 0. -1.
         11    1    4    4    0    0 -0.33381708178E-01  0.62285716320E-01 -0.52964178860E-01  0.88313726349E-01  0.51100000000E-03 0.  1.
</event>
<event>
 8    1  0.1090774E+005  0.1043930E+01  0.7957747E-01            NaN
         13   -1    0    0    0    0  0.00000000000E+00  0.00000000000E+00  0.74505805969E-08  0.10566000000E+00  0.10566000000E+00 0. -1.
     999900   -1    0    0    0    0 -0.00000000000E+00 -0.00000000000E+00 -0.74505805969E-08  0.93827000000E+00  0.93827000000E+00 0.  1.
     999902    2    1    2    0    0 -0.14836218684E-01 -0.82585062389E-02 -0.15023997130E-01  0.10212576203E+01  0.10210059208E+01 0.  0.
     999903    2    3    3    0    0 -0.11696369490E+00  0.28685339497E-02  0.58537808131E-01  0.13223277725E+00  0.19237930929E-01 0.  0.
         14    1    1    2    0    0  0.14836218684E-01  0.82585062389E-02  0.15023997130E-01  0.22672379669E-01  0.00000000000E+00 0.  1.
     999901    1    3    3    0    0  0.10212747622E+00 -0.11127040189E-01 -0.73561805261E-01  0.88902484308E+00  0.88000000000E+00 0.  1.
        -11    1    4    4    0    0 -0.84101450866E-01  0.28957757275E-02  0.32153424789E-01  0.90086310844E-01  0.51100000000E-03 0.  1.
         11    1    4    4    0    0 -0.32862244035E-01 -0.27241777803E-04  0.26384383342E-01  0.42146466406E-01  0.51100000000E-03 0. -1.
</event>
<event>
 8    1  0.1090774E+005  0.1043930E+01  0.7957747E-01            NaN
         13   -1    0    0    0    0  0.00000000000E+00  0.00000000000E+00  0.74505805969E-08  0.10566000000E+00  0.10566000000E+00 0. -1.
     999900   -1    0    0    0    0 -0.00000000000E+00 -0.00000000000E+00 -0.74505805969E-08  0.93827000000E+00  0.93827000000E+00 0. -1.
     999902    2    1    2    0    0 -0.24072571642E-01 -0.28028647686E-03  0.65062724129E-02  0.10189921002E+01  0.10186869006E+01 0.  0.
     999903    2    3    3    0    0 -0.43921598490E-01  0.80110876077E-01 -0.90086964295E-01  0.12984251983E+00  0.19913802768E-01 0.  0.
         14    1    1    2    0    0  0.24072571642E-01  0.28028647686E-03 -0.65062724129E-02  0.24937899805E-01  0.00000000000E+00 0.  1.
     999901    1    3    3    0    0  0.19849026848E-01 -0.80391162554E-01  0.96593236708E-01  0.88914958036E+00  0.88000000000E+00 0.  1.
        -11    1    4    4    0    0 -0.35757554202E-01  0.48446810820E-01 -0.65153354615E-01  0.88718188100E-01  0.51100000000E-03 0.  1.
         11    1    4    4    0    0 -0.81640442873E-02  0.31664065257E-01 -0.24933609680E-01  0.41124331731E-01  0.51100000000E-03 0. -1.
</event>
<event>
 8    1  0.1090774E+005  0.1043930E+01  0.7957747E-01            NaN
         13   -1    0    0    0    0  0.00000000000E+00  0.00000000000E+00  0.74505805969E-08  0.10566000000E+00  0.10566000000E+00 0. -1.
     999900   -1    0    0    0    0 -0.00000000000E+00 -0.00000000000E+00 -0.74505805969E-08  0.93827000000E+00  0.93827000000E+00 0. -1.
     999902    2    1    2    0    0  0.20162938906E-01  0.50052419692E-02 -0.88536861670E-02  0.10213471678E+01  0.10210974747E+01 0.  0.
     999903    2    3    3    0    0  0.10265136966E-01  0.17296709428E-01 -0.12934770721E+00  0.13299596709E+00  0.23506354593E-01 0.  0.
         14    1    1    2    0    0 -0.20162938906E-01 -0.50052419692E-02  0.88536861670E-02  0.22582832224E-01  0.00000000000E+00 0. -1.
     999901    1    3    3    0    0  0.98978019400E-02 -0.12291467459E-01  0.12049402105E+00  0.88835120069E+00  0.88000000000E+00 0.  1.
        -11    1    4    4    0    0  0.73788842895E-02  0.10137495574E-01 -0.21674373652E-01  0.25045086226E-01  0.51100000000E-03 0.  1.
         11    1    4    4    0    0  0.28862526766E-02  0.71592138541E-02 -0.10767333356E+00  0.10795088086E+00  0.51100000000E-03 0. -1.
</event>
<event>
 8    1  0.1090774E+005  0.1043930E+01  0.7957747E-01            NaN
         13   -1    0    0    0    0  0.00000000000E+00  0.00000000000E+00  0.74505805969E-08  0.10566000000E+00  0.10566000000E+00 0. -1.
     999900   -1    0    0    0    0 -0.00000000000E+00 -0.00000000000E+00 -0.74505805969E-08  0.93827000000E+00  0.93827000000E+00 0.  1.
     999902    2    1    2    0    0  0.42168767828E-02 -0.17646727476E-01 -0.15857224950E-01  0.10198335143E+01  0.10195488003E+01 0.  0.
     999903    2    3    3    0    0 -0.94310354869E-01  0.21292258233E-01 -0.86062016876E-01  0.13070328041E+00  0.18134868792E-01 0.  0.
         14    1    1    2    0    0 -0.42168767828E-02  0.17646727476E-01  0.15857224950E-01  0.24096485709E-01  0.00000000000E+00 0. -1.
     999901    1    3    3    0    0  0.98527231652E-01 -0.38938985709E-01  0.70204791926E-01  0.88913023388E+00  0.88000000000E+00 0. -1.
        -11    1    4    4    0    0 -0.83912892187E-01  0.16117682790E-01 -0.81888163908E-01  0.11835153435E+00  0.51100000000E-03 0. -1.
         11    1    4    4    0    0 -0.10397462682E-01  0.51745754437E-02 -0.41738529680E-02  0.12351746065E-01  0.51100000000E-03 0.  1.
</event>
<event>
 8    1  0.1090774E+005  0.1043930E+01  0.7957747E-01            NaN
         13   -1    0    0    0    0  0.00000000000E+00  0.00000000000E+00  0.74505805969E-08  0.10566000000E+00  0.10566000000E+00 0. -1.
     999900   -1    0    0    0    0 -0.00000000000E+00 -0.00000000000E+00 -0.74505805969E-08  0.93827000000E+00  0.93827000000E+00 0.  1.
     999902    2    1    2    0    0  0.22815743794E-01 -0.13120643566E-01  0.11627672967E-01  0.10151565360E+01  0.10147486784E+01 0.  0.
     999903    2    3    3    0    0  0.10170307023E+00 -0.55810889448E-01  0.53985657903E-01  0.12958335084E+00  0.20470067922E-01 0.  0.
         14    1    1    2    0    0 -0.22815743794E-01  0.13120643566E-01 -0.11627672967E-01  0.28773464009E-01  0.00000000000E+00 0. -1.
     999901    1    3    3    0    0 -0.78887326437E-01  0.42690245882E-01 -0.42357984936E-01  0.88557318515E+00  0.88000000000E+00 0. -1.
        -11    1    4    4    0    0  0.80576013461E-01 -0.52878238130E-01  0.42246583206E-01  0.10523134954E+00  0.51100000000E-03 0. -1.
         11    1    4    4    0    0  0.21127056770E-01 -0.29326513180E-02  0.11739074698E-01  0.24352001299E-01  0.51100000000E-03 0.  1.
</event>
<event>
 8    1  0.1090774E+005  0.1043930E+01  0.7957747E-01            NaN
         13   -1    0    0    0    0  0.00000000000E+00  0.00000000000E+00  0.74505805969E-08  0.10566000000E+00  0.10566000000E+00 0.  1.
     999900   -1    0    0    0    0 -0.00000000000E+00 -0.00000000000E+00 -0.74505805969E-08  0.93827000000E+00  0.93827000000E+00 0.  1.
     999902    2    1    2    0    0 -0.51629366974E-02  0.67506722398E-02 -0.22029065935E-01  0.10203184088E+01  0.10200451697E+01 0.  0.
     999903    2    3    3    0    0  0.68991767476E-01  0.10710718635E+00 -0.25681482672E-01  0.13150814212E+00  0.20075844804E-01 0.  0.
         14    1    1    2    0    0  0.51629366974E-02 -0.67506722398E-02  0.22029065935E-01  0.23611591158E-01  0.00000000000E+00 0.  1.
     999901    1    3    3    0    0 -0.74154704174E-01 -0.10035651411E+00  0.36524167368E-02  0.88881026672E+00  0.88000000000E+00 0. -1.
        -11    1    4    4    0    0  0.90482558548E-02  0.65009946823E-02 -0.62822561102E-02  0.12800848749E-01  0.51100000000E-03 0. -1.
         11    1    4    4    0    0  0.59943511622E-01  0.10060619167E+00 -0.19399226562E-01  0.11870729337E+00  0.51100000000E-03 0.  1.
</event>
<event>
 8    1  0.1090774E+005  0.1043930E+01  0.7957747E-01            NaN
         13   -1    0    0    0    0  0.00000000000E+00  0.00000000000E+00  0.74505805969E-08  0.10566000000E+00  0.10566000000E+00 0.  1.
     999900   -1    0    0    0    0 -0.00000000000E+00 -0.00000000000E+00 -0.74505805969E-08  0.93827000000E+00  0.93827000000E+00 0.  1.
     999902    2    1    2    0    0 -0.54530011170E-02 -0.40785712635E-02  0.23099980462E-01  0.10198472455E+01  0.10195628599E+01 0.  0.
     999903    2    3    3    0    0 -0.18915312787E-01  0.90984168559E-01  0.90668416490E-01  0.13205016744E+00  0.24095165224E-01 0.  0.
         14    1    1    2    0    0  0.54530011170E-02  0.40785712635E-02 -0.23099980462E-01  0.24082754454E-01  0.00000000000E+00 0. -1.
     999901    1    3    3    0    0  0.13462311670E-01 -0.95062739822E-01 -0.67568436028E-01  0.88779707810E+00  0.88000000000E+00 0.  1.
        -11    1    4    4    0    0 -0.18643896090E-01  0.32342946518E-01  0.36688911833E-01  0.52344994253E-01  0.51100000000E-03 0.  1.
         11    1    4    4    0    0 -0.27141669732E-03  0.58641222041E-01  0.53979504657E-01  0.79705173191E-01  0.51100000000E-03 0. -1.
</event>
<event>
 8    1  0.1090774E+005  0.1043930E+01  0.7957747E-01            NaN
         13   -1    0    0    0    0  0.00000000000E+00  0.00000000000E+00  0.74505805969E-08  0.10566000000E+00  0.10566000000E+00 0. -1.
     999900   -1    0    0    0    0 -0.00000000000E+00 -0.00000000000E+00 -0.74505805969E-08  0.93827000000E+00  0.93827000000E+00 0. -1.
     999902    2    1    2    0    0 -0.90254504080E-02  0.20061973549E-01 -0.74955375054E-02  0.10206894187E+01  0.10204247962E+01 0.  0.
     999903    2    3    3    0    0 -0.29230807067E-01 -0.66239497593E-01 -0.10759179980E+00  0.13059084993E+00  0.15357850704E-01 0.  0.
         14    1    1    2    0    0  0.90254504080E-02 -0.20061973549E-01  0.74955375054E-02  0.23240581323E-01  0.00000000000E+00 0. -1.
     999901    1    3    3    0    0  0.20205356659E-01  0.86301471141E-01  0.10009626229E+00  0.89009856875E+00  0.88000000000E+00 0. -1.
        -11    1    4    4    0    0 -0.13807825139E-01 -0.42637548641E-01 -0.55322669602E-01  0.71200249171E-01  0.51100000000E-03 0. -1.
         11    1    4    4    0    0 -0.15422981928E-01 -0.23601948952E-01 -0.52269130198E-01  0.59390600759E-01  0.51100000000E-03 0.  1.
</event>
<event>
 8    1  0.1090774E+005  0.1043930E+01  0.7957747E-01            NaN
         13   -1    0    0    0    0  0.00000000000E+00  0.00000000000E+00  0.74505805969E-08  0.10566000000E+00  0.10566000000E+00 0. -1.
     999900   -1    0    0    0    0 -0.00000000000E+00 -0.00000000000E+00 -0.74505805969E-08  0.93827000000E+00  0.93827000000E+00 0.  1.
     999902    2    1    2    0    0  0.23005044820E-01  0.11004992415E-01 -0.25347569596E-02  0.10183025355E+01  0.10179800031E+01 0.  0.
     999903    2    3    3    0    0 -0.51495761251E-01 -0.11369735012E+00 -0.33329011810E-02  0.12639352589E+00  0.19629424524E-01 0.  0.
         14    1    1    2    0    0 -0.23005044820E-01 -0.11004992415E-01  0.25347569596E-02  0.25627464527E-01  0.00000000000E+00 0. -1.
     999901    1    3    3    0    0  0.74500806071E-01  0.12470234253E+00  0.79814422150E-03  0.89190900958E+00  0.88000000000E+00 0. -1.
        -11    1    4    4    0    0 -0.23786412037E-01 -0.48071822283E-01  0.80968515533E-02  0.54244940974E-01  0.51100000000E-03 0. -1.
         11    1    4    4    0    0 -0.27709349214E-01 -0.65625527833E-01 -0.11429752734E-01  0.72148584918E-01  0.51100000000E-03 0.  1.
</event>
<event>
 8    1  0.1090774E+005  0.1043930E+01  0.7957747E-01            NaN
         13   -1    0    0    0    0  0.00000000000E+00  0.00000000000E+00  0.74505805969E-08  0.10566000000E+00  0.10566000000E+00 0. -1.
     999900   -1    0    0    0    0 -0.00000000000E+00 -0.00000000000E+00 -0.74505805969E-08  0.93827000000E+00  0.93827000000E+00 0.  1.
     999902    2    1    2    0    0  0.11021056485E-01 -0.17388016323E-01 -0.98322119610E-02  0.10211159870E+01  0.10208610972E+01 0.  0.
     999903    2    3    3    0    0  0.20943651683E-01  0.12209066600E+00 -0.33151018529E-01  0.12977064008E+00  0.19916368298E-01 0.  0.
         14    1    1    2    0    0 -0.11021056485E-01  0.17388016323E-01  0.98322119610E-02  0.22814013013E-01  0.00000000000E+00 0. -1.
     999901    1    3    3    0    0 -0.99225951982E-02 -0.13947868232E+00  0.23318806568E-01  0.89134534691E+00  0.88000000000E+00 0. -1.
        -11    1    4    4    0    0  0.43114440102E-02  0.62974812602E-01 -0.89260029091E-02  0.63752256593E-01  0.51100000000E-03 0. -1.
         11    1    4    4    0    0  0.16632207673E-01  0.59115853398E-01 -0.24225015620E-01  0.66018383484E-01  0.51100000000E-03 0.  1.
</event>
<event>
 8    1  0.1090774E+005  0.1043930E+01  0.7957747E-01            NaN
         13   -1    0    0    0    0  0.00000000000E+00  0.00000000000E+00  0.74505805969E-08  0.10566000000E+00  0.10566000000E+00 0. -1.
     999900   -1    0    0    0    0 -0.00000000000E+00 -0.00000000000E+00 -0.74505805969E-08  0.93827000000E+00  0.93827000000E+00 0.  1.
     999902    2    1    2    0    0 -0.22745892094E-01 -0.10251690042E-02  0.47445804657E-02  0.10206719342E+01  0.10204069089E+01 0.  0.
     999903    2    3    3    0    0  0.11423804076E+00  0.26598226371E-01  0.49458838384E-01  0.12852451667E+00  0.17736377520E-01 0.  0.
         14    1    1    2    0    0  0.22745892094E-01  0.10251690042E-02 -0.47445804657E-02  0.23258065750E-01  0.00000000000E+00 0.  1.
     999901    1    3    3    0    0 -0.13698393286E+00 -0.27623395376E-01 -0.44714257918E-01  0.89214741758E+00  0.88000000000E+00 0.  1.
        -11    1    4    4    0    0  0.88697996903E-01  0.19922555265E-01  0.30020637259E-01  0.95737885110E-01  0.51100000000E-03 0. -1.
         11    1    4    4    0    0  0.25540043860E-01  0.66756711062E-02  0.19438201125E-01  0.32786631560E-01  0.51100000000E-03 0.  1.
</event>
<event>
 8    1  0.1090774E+005  0.1043930E+01  0.7957747E-01            NaN
         13   -1    0    0    0    0  0.00000000000E+00  0.00000000000E+00  0.74505805969E-08  0.10566000000E+00  0.10566000000E+00 0. -1.
     999900   -1    0    0    0    0 -0.00000000000E+00 -0.00000000000E+00 -0.74505805969E-08  0.93827000000E+00  0.93827000000E+00 0.  1.
     999902    2    1    2    0    0  0.19760616799E-01  0.62844924693E-02  0.11376914386E-01  0.10202781290E+01  0.10200039458E+01 0.  0.
     999903    2    3    3    0    0 -0.74564521995E-01  0.84519406274E-01  0.62495943096E-01  0.13031684407E+00  0.19321981438E-01 0.  0.
         14    1    1    2    0    0 -0.19760616799E-01 -0.62844924693E-02 -0.11376914386E-01  0.23651871022E-01  0.00000000000E+00 0.  1.
     999901    1    3    3    0    0  0.94325138794E-01 -0.78234913804E-01 -0.51119028710E-01  0.88996128491E+00  0.88000000000E+00 0.  1.
        -11    1    4    4    0    0 -0.22079212806E-01  0.35988954900E-01  0.16626920953E-01  0.45380746295E-01  0.51100000000E-03 0.  1.
         11    1    4    4    0    0 -0.52485309189E-01  0.48530451373E-01  0.45869022143E-01  0.84936097771E-01  0.51100000000E-03 0. -1.
</event>
<event>
 8    1  0.1090774E+005  0.1043930E+01  0.7957747E-01            NaN
         13   -1    0    0    0    0  0.00000000000E+00  0.00000000000E+00  0.74505805969E-08  0.10566000000E+00  0.10566000000E+00 0. -1.
     999900   -1    0    0    0    0 -0.00000000000E+00 -0.00000000000E+00 -0.74505805969E-08  0.93827000000E+00  0.93827000000E+00 0.  1.
     999902    2    1    2    0    0 -0.20627761631E-01 -0.11752567533E-01 -0.26929838999E-02  0.10200369141E+01  0.10197570429E+01 0.  0.
     999903    2    3    3    0    0 -0.33075949762E-02  0.46327810592E-01 -0.11986452978E+00  0.13020407040E+00  0.20697541616E-01 0.  0.
         14    1    1    2    0    0  0.20627761631E-01  0.11752567533E-01  0.26929838999E-02  0.23893085942E-01  0.00000000000E+00 0.  1.
     999901    1    3    3    0    0 -0.17320166655E-01 -0.58080378125E-01  0.11717154588E+00  0.88983284366E+00  0.88000000000E+00 0. -1.
        -11    1    4    4    0    0 -0.63375520875E-02  0.77926287743E-02 -0.43067610617E-01  0.44226347745E-01  0.51100000000E-03 0.  1.
         11    1    4    4    0    0  0.30299571113E-02  0.38535181818E-01 -0.76796919166E-01  0.85977722650E-01  0.51100000000E-03 0. -1.
</event>
<event>
 8    1  0.1090774E+005  0.1043930E+01  0.7957747E-01            NaN
         13   -1    0    0    0    0  0.00000000000E+00  0.00000000000E+00  0.74505805969E-08  0.10566000000E+00  0.10566000000E+00 0. -1.
     999900   -1    0    0    0    0 -0.00000000000E+00 -0.00000000000E+00 -0.74505805969E-08  0.93827000000E+00  0.93827000000E+00 0. -1.
     999902    2    1    2    0    0 -0.19058897947E-01  0.12711059514E-01  0.61691266884E-02  0.10202051028E+01  0.10199292039E+01 0.  0.
     999903    2    3    3    0    0 -0.52265508973E-02  0.10071014957E+00  0.83451068083E-01  0.13233818022E+00  0.19479787448E-01 0.  0.
         14    1    1    2    0    0  0.19058897947E-01 -0.12711059514E-01 -0.61691266884E-02  0.23724897239E-01  0.00000000000E+00 0. -1.
     999901    1    3    3    0    0 -0.13832347050E-01 -0.87999090057E-01 -0.77281941395E-01  0.88786692254E+00  0.88000000000E+00 0. -1.
        -11    1    4    4    0    0 -0.11112474525E-02  0.22630494393E-01  0.30112338001E-01  0.37688037469E-01  0.51100000000E-03 0.  1.
         11    1    4    4    0    0 -0.41153034448E-02  0.78079655178E-01  0.53338730082E-01  0.94650142752E-01  0.51100000000E-03 0. -1.
</event>
<event>
 8    1  0.1090774E+005  0.1043930E+01  0.7957747E-01            NaN
         13   -1    0    0    0    0  0.00000000000E+00  0.00000000000E+00  0.74505805969E-08  0.10566000000E+00  0.10566000000E+00 0. -1.
     999900   -1    0    0    0    0 -0.00000000000E+00 -0.00000000000E+00 -0.74505805969E-08  0.93827000000E+00  0.93827000000E+00 0.  1.
     999902    2    1    2    0    0  0.16649738835E-01 -0.17563599516E-01  0.33667994990E-02  0.10194958196E+01  0.10192029715E+01 0.  0.
     999903    2    3    3    0    0 -0.72591222133E-01 -0.63001321778E-01 -0.84439910170E-01  0.12947416036E+00  0.19869768352E-01 0.  0.
         14    1    1    2    0    0 -0.16649738835E-01  0.17563599516E-01 -0.33667994990E-02  0.24434180365E-01  0.00000000000E+00 0. -1.
     999901    1    3    3    0    0  0.89240960969E-01  0.45437722262E-01  0.87806709669E-01  0.89002165928E+00  0.88000000000E+00 0.  1.
        -11    1    4    4    0    0 -0.91364954488E-02 -0.12333513941E-01 -0.57501835819E-02  0.16398684321E-01  0.51100000000E-03 0.  1.
         11    1    4    4    0    0 -0.63454726685E-01 -0.50667807837E-01 -0.78689726588E-01  0.11307547604E+00  0.51100000000E-03 0. -1.
</event>
<event>
 8    1  0.1090774E+005  0.1043930E+01  0.7957747E-01            NaN
         13   -1    0    0    0    0  0.00000000000E+00  0.00000000000E+00  0.74505805969E-08  0.10566000000E+00  0.10566000000E+00 0. -1.
     999900   -1    0    0    0    0 -0.00000000000E+00 -0.00000000000E+00 -0.74505805969E-08  0.93827000000E+00  0.93827000000E+00 0. -1.
     999902    2    1    2    0    0 -0.18773577591E-01 -0.10248368172E-01  0.10312179881E-01  0.10201851623E+01  0.10199087939E+01 0.  0.
     999903    2    3    3    0    0 -0.93274684916E-01  0.89445748966E-01 -0.10301913836E-01  0.13118894581E+00  0.20092317455E-01 0.  0.
         14    1    1    2    0    0  0.18773577591E-01  0.10248368172E-01 -0.10312179881E-01  0.23744837747E-01  0.00000000000E+00 0.  1.
     999901    1    3    3    0    0  0.74501107325E-01 -0.99694117138E-01  0.20614093717E-01  0.88899621644E+00  0.88000000000E+00 0. -1.
        -11    1    4    4    0    0 -0.50770465496E-01  0.60701819509E-01 -0.10818797080E-01  0.79872764755E-01  0.51100000000E-03 0. -1.
         11    1    4    4    0    0 -0.42504219419E-01  0.28743929457E-01  0.51688324383E-03  0.51316181058E-01  0.51100000000E-03 0.  1.
</event>
<event>
 8    1  0.1090774E+005  0.1043930E+01  0.7957747E-01            NaN
         13   -1    0    0    0    0  0.00000000000E+00  0.00000000000E+00  0.74505805969E-08  0.10566000000E+00  0.10566000000E+00 0.  1.
     999900   -1    0    0    0    0 -0.00000000000E+00 -0.00000000000E+00 -0.74505805969E-08  0.93827000000E+00  0.93827000000E+00 0.  1.
     999902    2    1    2    0    0  0.48672492093E-02  0.18484930917E-01 -0.14373830747E-01  0.10200136918E+01  0.10197332699E+01 0.  0.
     999903    2    3    3    0    0 -0.55510811484E-01  0.51885371107E-01 -0.10664862537E+00  0.13250271312E+00  0.20236051108E-01 0.  0.
         14    1    1    2    0    0 -0.48672492093E-02 -0.18484930917E-01  0.14373830747E-01  0.23916308164E-01  0.00000000000E+00 0.  1.
     999901    1    3    3    0    0  0.60378060694E-01 -0.33400440190E-01  0.92274794622E-01  0.88751097872E+00  0.88000000000E+00 0.  1.
        -11    1    4    4    0    0 -0.16848289429E-01  0.24686775052E-01 -0.29338800313E-01  0.41884699401E-01  0.51100000000E-03 0.  1.
         11    1    4    4    0    0 -0.38662522056E-01  0.27198596055E-01 -0.77309825057E-01  0.90618013719E-01  0.51100000000E-03 0. -1.
</event>
<event>
 8    1  0.1090774E+005  0.1043930E+01  0.7957747E-01            NaN
         13   -1    0    0    0    0  0.00000000000E+00  0.00000000000E+00  0.74505805969E-08  0.10566000000E+00  0.10566000000E+00 0.  1.
     999900   -1    0    0    0    0 -0.00000000000E+00 -0.00000000000E+00 -0.74505805969E-08  0.93827000000E+00  0.93827000000E+00 0. -1.
     999902    2    1    2    0    0  0.64371749710E-02  0.20919516210E-01  0.12799292734E-01  0.10185748176E+01  0.10182591879E+01 0.  0.
     999903    2    3    3    0    0 -0.43225515266E-01 -0.23406951464E-01 -0.11517248973E+00  0.12683046206E+00  0.20122951261E-01 0.  0.
         14    1    1    2    0    0 -0.64371749710E-02 -0.20919516210E-01 -0.12799292734E-01  0.25355182400E-01  0.00000000000E+00 0. -1.
     999901    1    3    3    0    0  0.49662690237E-01  0.44326467674E-01  0.12797178246E+00  0.89174435554E+00  0.88000000000E+00 0.  1.
        -11    1    4    4    0    0 -0.78764631660E-02 -0.14281700727E-01 -0.29727855248E-01  0.33911829003E-01  0.51100000000E-03 0.  1.
         11    1    4    4    0    0 -0.35349052100E-01 -0.91252507366E-02 -0.85444634483E-01  0.92918633053E-01  0.51100000000E-03 0. -1.
</event>
<event>
 8    1  0.1090774E+005  0.1043930E+01  0.7957747E-01            NaN
         13   -1    0    0    0    0  0.00000000000E+00  0.00000000000E+00  0.74505805969E-08  0.10566000000E+00  0.10566000000E+00 0.  1.
     999900   -1    0    0    0    0 -0.00000000000E+00 -0.00000000000E+00 -0.74505805969E-08  0.93827000000E+00  0.93827000000E+00 0. -1.
     999902    2    1    2    0    0  0.10060834978E-01  0.54974922324E-02  0.23689940035E-01  0.10176116399E+01  0.10172712487E+01 0.  0.
     999903    2    3    3    0    0  0.10594054684E+00  0.55073909953E-01  0.49210600489E-01  0.13064938337E+00  0.19774811064E-01 0.  0.
         14    1    1    2    0    0 -0.10060834978E-01 -0.54974922324E-02 -0.23689940035E-01  0.26318360134E-01  0.00000000000E+00 0. -1.
     999901    1    3    3    0    0 -0.95879711859E-01 -0.49576417721E-01 -0.25520660455E-01  0.88696225650E+00  0.88000000000E+00 0. -1.
        -11    1    4    4    0    0  0.56091575276E-01  0.18543702379E-01  0.27241559450E-01  0.65057646723E-01  0.51100000000E-03 0.  1.
         11    1    4    4    0    0  0.49848971561E-01  0.36530207574E-01  0.21969041039E-01  0.65591736646E-01  0.51100000000E-03 0. -1.
</event>
<event>
 8    1  0.1090774E+005  0.1043930E+01  0.7957747E-01            NaN
         13   -1    0    0    0    0  0.00000000000E+00  0.00000000000E+00  0.74505805969E-08  0.10566000000E+00  0.10566000000E+00 0. -1.
     999900   -1    0    0    0    0 -0.00000000000E+00 -0.00000000000E+00 -0.74505805969E-08  0.93827000000E+00  0.93827000000E+00 0.  1.
     999902    2    1    2    0    0 -0.23490796925E-01 -0.32549645638E-02 -0.76629908390E-03  0.10202023885E+01  0.10199264257E+01 0.  0.
     999903    2    3    3    0    0 -0.20457902372E-01  0.74373426463E-01  0.10355567512E+00  0.13064157557E+00  0.19837113830E-01 0.  0.
         14    1    1    2    0    0  0.23490796925E-01  0.32549645638E-02  0.76629908390E-03  0.23727611527E-01  0.00000000000E+00 0.  1.
     999901    1    3    3    0    0 -0.30328945531E-02 -0.77628391027E-01 -0.10432197421E+00  0.88956081290E+00  0.88000000000E+00 0. -1.
        -11    1    4    4    0    0 -0.68083735480E-02  0.17409015143E-01  0.40303940034E-01  0.44430805326E-01  0.51100000000E-03 0. -1.
         11    1    4    4    0    0 -0.13649528824E-01  0.56964411320E-01  0.63251735089E-01  0.86210770249E-01  0.51100000000E-03 0.  1.
</event>
<event>
 8    1  0.1090774E+005  0.1043930E+01  0.7957747E-01            NaN
         13   -1    0    0    0    0  0.00000000000E+00  0.00000000000E+00  0.74505805969E-08  0.10566000000E+00  0.10566000000E+00 0.  1.
     999900   -1    0    0    0    0 -0.00000000000E+00 -0.00000000000E+00 -0.74505805969E-08  0.93827000000E+00  0.93827000000E+00 0. -1.
     999902    2    1    2    0    0 -0.46098727335E-03 -0.82664491161E-02 -0.22605659489E-01  0.10198558950E+01  0.10195717160E+01 0.  0.
     999903    2    3    3    0    0 -0.94817182703E-01 -0.53275066744E-01  0.66747196998E-01  0.12917480717E+00  0.20060200067E-01 0.  0.
         14    1    1    2    0    0  0.46098727335E-03  0.82664491161E-02  0.22605659489E-01  0.24074104993E-01  0.00000000000E+00 0.  1.
     999901    1    3    3    0    0  0.94356195430E-01  0.45008617628E-01 -0.89352856488E-01  0.89068108784E+00  0.88000000000E+00 0.  1.
        -11    1    4    4    0    0 -0.38775262415E-01 -0.33007640041E-01  0.33096000187E-01  0.60734105952E-01  0.51100000000E-03 0.  1.
         11    1    4    4    0    0 -0.56041920288E-01 -0.20267426703E-01  0.33651196811E-01  0.68440701213E-01  0.51100000000E-03 0. -1.
</event>
<event>
 8    1  0.1090774E+005  0.1043930E+01  0.7957747E-01            NaN
         13   -1    0    0    0    0  0.00000000000E+00  0.00000000000E+00  0.74505805969E-08  0.10566000000E+00  0.10566000000E+00 0.  1.
     999900   -1    0    0    0    0 -0.00000000000E+00 -0.00000000000E+00 -0.74505805969E-08  0.93827000000E+00  0.93827000000E+00 0. -1.
     999902    2    1    2    0    0 -0.10353915562E-01  0.19135194636E-01  0.10449706490E-01  0.10197938113E+01  0.10195081470E+01 0.  0.
     999903    2    3    3    0    0  0.12308281212E+00 -0.58598576839E-03 -0.31182862296E-01  0.12854325388E+00  0.20031854598E-01 0.  0.
         14    1    1    2    0    0  0.10353915562E-01 -0.19135194636E-01 -0.10449706490E-01  0.24136188742E-01  0.00000000000E+00 0. -1.
     999901    1    3    3    0    0 -0.13343672768E+00  0.19721180405E-01  0.41632568786E-01  0.89125055738E+00  0.88000000000E+00 0.  1.
        -11    1    4    4    0    0  0.98008653634E-01 -0.81471616351E-02 -0.27265737234E-01  0.10205760127E+00  0.51100000000E-03 0. -1.
         11    1    4    4    0    0  0.25074158481E-01  0.75611758667E-02 -0.39171250619E-02  0.26485652603E-01  0.51100000000E-03 0.  1.
</event>
<event>
 8    1  0.1090774E+005  0.1043930E+01  0.7957747E-01            NaN
         13   -1    0    0    0    0  0.00000000000E+00  0.00000000000E+00  0.74505805969E-08  0.10566000000E+00  0.10566000000E+00 0.  1.
     999900   -1    0    0    0    0 -0.00000000000E+00 -0.00000000000E+00 -0.74505805969E-08  0.93827000000E+00  0.93827000000E+00 0. -1.
     999902    2    1    2    0    0 -0.10224729001E-01 -0.14186370464E-01  0.18593218191E-01  0.10184053854E+01  0.10180854694E+01 0.  0.
     999903    2    3    3    0    0 -0.74019436045E-01  0.68140167784E-01 -0.75385027330E-01  0.12729409366E+00  0.19973095860E-01 0.  0.
         14    1    1    2    0    0  0.10224729001E-01  0.14186370464E-01 -0.18593218191E-01  0.25524614645E-01  0.00000000000E+00 0. -1.
     999901    1    3    3    0    0  0.63794707044E-01 -0.82326538248E-01  0.93978245521E-01  0.89111129169E+00  0.88000000000E+00 0.  1.
        -11    1    4    4    0    0 -0.58972999213E-01  0.42406954823E-01 -0.50630207881E-01  0.88542890875E-01  0.51100000000E-03 0.  1.
         11    1    4    4    0    0 -0.15046436832E-01  0.25733212960E-01 -0.24754819450E-01  0.38751202789E-01  0.51100000000E-03 0. -1.
</event>
<event>
 8    1  0.1090774E+005  0.1043930E+01  0.7957747E-01            NaN
         13   -1    0    0    0    0  0.00000000000E+00  0.00000000000E+00  0.74505805969E-08  0.10566000000E+00  0.10566000000E+00 0.  1.
     999900   -1    0    0    0    0 -0.00000000000E+00 -0.00000000000E+00 -0.74505805969E-08  0.93827000000E+00  0.93827000000E+00 0. -1.
     999902    2    1    2    0    0 -0.15669682808E-01 -0.14341292511E-01  0.10234006110E-01  0.10203514820E+01  0.10200790167E+01 0.  0.
     999903    2    3    3    0    0 -0.25646269680E-01 -0.12713751905E+00 -0.18640118478E-01  0.13262616633E+00  0.20507707833E-01 0.  0.
         14    1    1    2    0    0  0.15669682808E-01  0.14341292511E-01 -0.10234006110E-01  0.23578518004E-01  0.00000000000E+00 0. -1.
     999901    1    3    3    0    0  0.99765868718E-02  0.11279622653E+00  0.28874124588E-01  0.88772531567E+00  0.88000000000E+00 0.  1.
        -11    1    4    4    0    0 -0.13546248540E-01 -0.10665646130E+00 -0.15502122830E-01  0.10862632517E+00  0.51100000000E-03 0. -1.
         11    1    4    4    0    0 -0.12100021140E-01 -0.20481057743E-01 -0.31379956478E-02  0.23999841157E-01  0.51100000000E-03 0.  1.
</event>
<event>
 8    1  0.1090774E+005  0.1043930E+01  0.7957747E-01            NaN
         13   -1    0    0    0    0  0.00000000000E+00  0.00000000000E+00  0.74505805969E-08  0.10566000000E+00  0.10566000000E+00 0.  1.
     999900   -1    0    0    0    0 -0.00000000000E+00 -0.00000000000E+00 -0.74505805969E-08  0.93827000000E+00  0.93827000000E+00 0. -1.
     999902    2    1    2    0    0 -0.11207414044E-01 -0.21261223583E-01  0.37177414120E-02  0.10196098980E+01  0.10193198109E+01 0.  0.
     999903    2    3    3    0    0  0.31836652584E-01  0.38005460455E-01  0.11764693982E+00  0.12924750342E+00  0.20152598363E-01 0.  0.
         14    1    1    2    0    0  0.11207414044E-01  0.21261223583E-01 -0.37177414120E-02  0.24320101953E-01  0.00000000000E+00 0. -1.
     999901    1    3    3    0    0 -0.43044066628E-01 -0.59266684038E-01 -0.11392919841E+00  0.89036239462E+00  0.88000000000E+00 0. -1.
        -11    1    4    4    0    0  0.23152477075E-01  0.15326473559E-01  0.47600916569E-01  0.55109403605E-01  0.51100000000E-03 0. -1.
         11    1    4    4    0    0  0.86841755092E-02  0.22678986896E-01  0.70046023249E-01  0.74138099819E-01  0.51100000000E-03 0.  1.
</event>
<event>
 8    1  0.1090774E+005  0.1043930E+01  0.7957747E-01            NaN
         13   -1    0    0    0    0  0.00000000000E+00  0.00000000000E+00  0.74505805969E-08  0.10566000000E+00  0.10566000000E+00 0.  1.
     999900   -1    0    0    0    0 -0.00000000000E+00 -0.00000000000E+00 -0.74505805969E-08  0.93827000000E+00  0.93827000000E+00 0.  1.
     999902    2    1    2    0    0  0.82774179881E-02  0.79439693845E-03  0.22512380524E-01  0.10199309585E+01  0.10196485699E+01 0.  0.
     999903    2    3    3    0    0 -0.11299546286E+00  0.47991866959E-01  0.37228901267E-01  0.13023927665E+00  0.22474077752E-01 0.  0.
         14    1    1    2    0    0 -0.82774179881E-02 -0.79439693845E-03 -0.22512380524E-01  0.23999041478E-01  0.00000000000E+00 0. -1.
     999901    1    3    3    0    0  0.12127288085E+00 -0.47197470021E-01 -0.14716520744E-01  0.88969168187E+00  0.88000000000E+00 0.  1.
        -11    1    4    4    0    0 -0.82644795260E-01  0.41063638392E-01  0.36063491762E-01  0.99081891083E-01  0.51100000000E-03 0.  1.
         11    1    4    4    0    0 -0.30350667604E-01  0.69282285672E-02  0.11654095058E-02  0.31157385568E-01  0.51100000000E-03 0. -1.
</event>
<event>
 8    1  0.1090774E+005  0.1043930E+01  0.7957747E-01            NaN
         13   -1    0    0    0    0  0.00000000000E+00  0.00000000000E+00  0.74505805969E-08  0.10566000000E+00  0.10566000000E+00 0.  1.
     999900   -1    0    0    0    0 -0.00000000000E+00 -0.00000000000E+00 -0.74505805969E-08  0.93827000000E+00  0.93827000000E+00 0.  1.
     999902    2    1    2    0    0  0.10150421507E-01 -0.19086068140E-01 -0.10491864166E-01  0.10199010952E+01  0.10196179950E+01 0.  0.
     999903    2    3    3    0    0  0.59741346544E-01 -0.95342871257E-01  0.65893384406E-01  0.13192076539E+00  0.20046412314E-01 0.  0.
         14    1    1    2    0    0 -0.10150421507E-01  0.19086068140E-01  0.10491864166E-01  0.24028904833E-01  0.00000000000E+00 0.  1.
     999901    1    3    3    0    0 -0.49590925036E-01  0.76256803118E-01 -0.76385248572E-01  0.88798032977E+00  0.88000000000E+00 0.  1.
        -11    1    4    4    0    0  0.99163695910E-02 -0.96736903395E-02  0.20056982587E-02  0.14007091674E-01  0.51100000000E-03 0. -1.
         11    1    4    4    0    0  0.49824976953E-01 -0.85669180918E-01  0.63887686147E-01  0.11791367372E+00  0.51100000000E-03 0.  1.
</event>
<event>
 8    1  0.1090774E+005  0.1043930E+01  0.7957747E-01            NaN
         13   -1    0    0    0    0  0.00000000000E+00  0.00000000000E+00  0.74505805969E-08  0.10566000000E+00  0.10566000000E+00 0.  1.
     999900   -1    0    0    0    0 -0.00000000000E+00 -0.00000000000E+00 -0.74505805969E-08  0.93827000000E+00  0.93827000000E+00 0. -1.
     999902    2    1    2    0    0  0.16056761528E-01  0.18075994306E-01  0.38370223840E-02  0.10194497242E+01  0.10191557567E+01 0.  0.
     999903    2    3    3    0    0 -0.31668440370E-01  0.64243612009E-01  0.10795238547E+00  0.13082767147E+00  0.18221698489E-01 0.  0.
         14    1    1    2    0    0 -0.16056761528E-01 -0.18075994306E-01 -0.38370223840E-02  0.24480275768E-01  0.00000000000E+00 0.  1.
     999901    1    3    3    0    0  0.47725201897E-01 -0.46167617704E-01 -0.10411536308E+00  0.88862205276E+00  0.88000000000E+00 0. -1.
        -11    1    4    4    0    0 -0.50853255854E-02  0.30459303909E-01  0.43316905194E-01  0.53200048191E-01  0.51100000000E-03 0. -1.
         11    1    4    4    0    0 -0.26583114784E-01  0.33784308101E-01  0.64635480272E-01  0.77627623282E-01  0.51100000000E-03 0.  1.
</event>
<event>
 8    1  0.1090774E+005  0.1043930E+01  0.7957747E-01            NaN
         13   -1    0    0    0    0  0.00000000000E+00  0.00000000000E+00  0.74505805969E-08  0.10566000000E+00  0.10566000000E+00 0. -1.
     999900   -1    0    0    0    0 -0.00000000000E+00 -0.00000000000E+00 -0.74505805969E-08  0.93827000000E+00  0.93827000000E+00 0. -1.
     999902    2    1    2    0    0  0.29683060351E-02  0.21690835858E-01 -0.95676788655E-02  0.10200376648E+01  0.10197578114E+01 0.  0.
     999903    2    3    3    0    0 -0.69820023622E-01  0.20158563374E-01 -0.10785817002E+00  0.13157747470E+00  0.19951030863E-01 0.  0.
         14    1    1    2    0    0 -0.29683060351E-02 -0.21690835858E-01  0.95676788655E-02  0.23892335169E-01  0.00000000000E+00 0. -1.
     999901    1    3    3    0    0  0.72788329657E-01  0.15322724836E-02  0.98290491157E-01  0.88846019013E+00  0.88000000000E+00 0.  1.
        -11    1    4    4    0    0 -0.21963588487E-01  0.64917678624E-02 -0.19142681634E-01  0.29853737627E-01  0.51100000000E-03 0.  1.
         11    1    4    4    0    0 -0.47856435135E-01  0.13666795512E-01 -0.88715488388E-01  0.10172373707E+00  0.51100000000E-03 0. -1.
</event>
<event>
 8    1  0.1090774E+005  0.1043930E+01  0.7957747E-01            NaN
         13   -1    0    0    0    0  0.00000000000E+00  0.00000000000E+00  0.74505805969E-08  0.10566000000E+00  0.10566000000E+00 0.  1.
     999900   -1    0    0    0    0 -0.00000000000E+00 -0.00000000000E+00 -0.74505805969E-08  0.93827000000E+00  0.93827000000E+00 0.  1.
     999902    2    1    2    0    0 -0.46879667096E-02  0.22388640917E-01 -0.47043603451E-02  0.10205770713E+01  0.10203098545E+01 0.  0.
     999903    2    3    3    0    0 -0.44433979398E-01  0.70602397762E-01 -0.10173658250E+00  0.13304140212E+00  0.19763738612E-01 0.  0.
         14    1    1    2    0    0  0.46879667096E-02 -0.22388640917E-01  0.47043603451E-02  0.23352928729E-01  0.00000000000E+00 0.  1.
     999901    1    3    3    0    0  0.39746012689E-01 -0.48213756845E-01  0.97032222160E-01  0.88753566915E+00  0.88000000000E+00 0. -1.
        -11    1    4    4    0    0 -0.14037048717E-01  0.40413283802E-01 -0.54068371832E-01  0.68948692503E-01  0.51100000000E-03 0.  1.
         11    1    4    4    0    0 -0.30396930681E-01  0.30189113961E-01 -0.47668210673E-01  0.64092709619E-01  0.51100000000E-03 0. -1.
</event>
<event>
 8    1  0.1090774E+005  0.1043930E+01  0.7957747E-01            NaN
         13   -1    0    0    0    0  0.00000000000E+00  0.00000000000E+00  0.74505805969E-08  0.10566000000E+00  0.10566000000E+00 0.  1.
     999900   -1    0    0    0    0 -0.00000000000E+00 -0.00000000000E+00 -0.74505805969E-08  0.93827000000E+00  0.93827000000E+00 0. -1.
     999902    2    1    2    0    0 -0.23218009393E-01  0.14884483491E-02 -0.45476694273E-02  0.10202240359E+01  0.10199485823E+01 0.  0.
     999903    2    3    3    0    0 -0.58907701475E-01 -0.11375065356E+00 -0.22998306470E-01  0.13180170907E+00  0.20819220334E-01 0.  0.
         14    1    1    2    0    0  0.23218009393E-01 -0.14884483491E-02  0.45476694273E-02  0.23705964142E-01  0.00000000000E+00 0. -1.
     999901    1    3    3    0    0  0.35689692082E-01  0.11523910191E+00  0.18450637042E-01  0.88842232679E+00  0.88000000000E+00 0.  1.
        -11    1    4    4    0    0 -0.50793431330E-01 -0.78673969433E-01 -0.14003173886E-01  0.94688521651E-01  0.51100000000E-03 0.  1.
         11    1    4    4    0    0 -0.81142701455E-02 -0.35076684124E-01 -0.89951325831E-02  0.37113187418E-01  0.51100000000E-03 0. -1.
</event>
<event>
 8    1  0.1090774E+005  0.1043930E+01  0.7957747E-01            NaN
         13   -1    0    0    0    0  0.00000000000E+00  0.00000000000E+00  0.74505805969E-08  0.10566000000E+00  0.10566000000E+00 0.  1.
     999900   -1    0    0    0    0 -0.00000000000E+00 -0.00000000000E+00 -0.74505805969E-08  0.93827000000E+00  0.93827000000E+00 0. -1.
     999902    2    1    2    0    0 -0.11531461220E-01  0.19737767117E-01 -0.39073005714E-02  0.10207390309E+01  0.10204755500E+01 0.  0.
     999903    2    3    3    0    0 -0.84062379311E-01 -0.49205429067E-01 -0.85421472182E-01  0.13132435905E+00  0.21484913436E-01 0.  0.
         14    1    1    2    0    0  0.11531461220E-01 -0.19737767117E-01  0.39073005714E-02  0.23190969070E-01  0.00000000000E+00 0.  1.
     999901    1    3    3    0    0  0.72530918091E-01  0.68943196185E-01  0.81514171611E-01  0.88941467188E+00  0.88000000000E+00 0.  1.
        -11    1    4    4    0    0 -0.28709888646E-01 -0.19570970375E-01 -0.17785058305E-01  0.39036521456E-01  0.51100000000E-03 0. -1.
         11    1    4    4    0    0 -0.55352490665E-01 -0.29634458692E-01 -0.67636413878E-01  0.92287837596E-01  0.51100000000E-03 0.  1.
</event>
<event>
 8    1  0.1090774E+005  0.1043930E+01  0.7957747E-01            NaN
         13   -1    0    0    0    0  0.00000000000E+00  0.00000000000E+00  0.74505805969E-08  0.10566000000E+00  0.10566000000E+00 0.  1.
     999900   -1    0    0    0    0 -0.00000000000E+00 -0.00000000000E+00 -0.74505805969E-08  0.93827000000E+00  0.93827000000E+00 0.  1.
     999902    2    1    2    0    0 -0.12979431986E-01 -0.98876360414E-04 -0.19908107524E-01  0.10201643067E+01  0.10198874470E+01 0.  0.
     999903    2    3    3    0    0  0.50599501171E-01  0.12848651419E-01  0.11471210656E+00  0.12756556079E+00  0.19715667525E-01 0.  0.
         14    1    1    2    0    0  0.12979431986E-01  0.98876360414E-04  0.19908107524E-01  0.23765693266E-01  0.00000000000E+00 0. -1.
     999901    1    3    3    0    0 -0.63578933158E-01 -0.12947527780E-01 -0.13462021409E+00  0.89259874594E+00  0.88000000000E+00 0.  1.
        -11    1    4    4    0    0  0.21348512111E-01  0.15489869462E-01  0.56943653345E-01  0.62757754920E-01  0.51100000000E-03 0. -1.
         11    1    4    4    0    0  0.29250989061E-01 -0.26412180426E-02  0.57768453218E-01  0.64807805872E-01  0.51100000000E-03 0.  1.
</event>
<event>
 8    1  0.1090774E+005  0.1043930E+01  0.7957747E-01            NaN
         13   -1    0    0    0    0  0.00000000000E+00  0.00000000000E+00  0.74505805969E-08  0.10566000000E+00  0.10566000000E+00 0.  1.
     999900   -1    0    0    0    0 -0.00000000000E+00 -0.00000000000E+00 -0.74505805969E-08  0.93827000000E+00  0.93827000000E+00 0.  1.
     999902    2    1    2    0    0  0.97173672852E-02 -0.16865188732E-01 -0.15069892036E-02  0.10244073763E+01  0.10242213334E+01 0.  0.
     999903    2    3    3    0    0 -0.77969798651E-02  0.78824832633E-01 -0.10496906718E+00  0.13302208696E+00  0.20055508486E-01 0.  0.
         14    1    1    2    0    0 -0.97173672852E-02  0.16865188732E-01  0.15069892036E-02  0.19522623655E-01  0.00000000000E+00 0. -1.
     999901    1    3    3    0    0  0.17514347150E-01 -0.95690021365E-01  0.10346207798E+00  0.89138528938E+00  0.88000000000E+00 0. -1.
        -11    1    4    4    0    0  0.42323889242E-02  0.37092684643E-01 -0.58633334263E-01  0.69511936945E-01  0.51100000000E-03 0.  1.
         11    1    4    4    0    0 -0.12029368789E-01  0.41732147990E-01 -0.46335732918E-01  0.63510150019E-01  0.51100000000E-03 0. -1.
</event>
<event>
 8    1  0.1090774E+005  0.1043930E+01  0.7957747E-01            NaN
         13   -1    0    0    0    0  0.00000000000E+00  0.00000000000E+00  0.74505805969E-08  0.10566000000E+00  0.10566000000E+00 0. -1.
     999900   -1    0    0    0    0 -0.00000000000E+00 -0.00000000000E+00 -0.74505805969E-08  0.93827000000E+00  0.93827000000E+00 0.  1.
     999902    2    1    2    0    0 -0.43680363722E-02  0.22698521228E-01  0.37545014704E-03  0.10208119644E+01  0.10205501571E+01 0.  0.
     999903    2    3    3    0    0 -0.93289829614E-01 -0.73500342541E-01 -0.48296784054E-01  0.12978430315E+00  0.20151757547E-01 0.  0.
         14    1    1    2    0    0  0.43680363722E-02 -0.22698521228E-01 -0.37545014704E-03  0.23118035610E-01  0.00000000000E+00 0.  1.
     999901    1    3    3    0    0  0.88921793242E-01  0.96198863769E-01  0.48672234201E-01  0.89102766123E+00  0.88000000000E+00 0.  1.
        -11    1    4    4    0    0 -0.60246329383E-02 -0.16765330322E-02  0.12175085519E-02  0.63914327911E-02  0.51100000000E-03 0.  1.
         11    1    4    4    0    0 -0.87265196676E-01 -0.71823809509E-01 -0.49514292606E-01  0.12339287036E+00  0.51100000000E-03 0. -1.
</event>
<event>
 8    1  0.1090774E+005  0.1043930E+01  0.7957747E-01            NaN
         13   -1    0    0    0    0  0.00000000000E+00  0.00000000000E+00  0.74505805969E-08  0.10566000000E+00  0.10566000000E+00 0. -1.
     999900   -1    0    0    0    0 -0.00000000000E+00 -0.00000000000E+00 -0.74505805969E-08  0.93827000000E+00  0.93827000000E+00 0.  1.
     999902    2    1    2    0    0  0.71687965589E-02 -0.88562993430E-02 -0.20924860664E-01  0.10201040588E+01  0.10198257769E+01 0.  0.
     999903    2    3    3    0    0  0.67444412698E-01 -0.10825480519E+00  0.23229921918E-01  0.13136176895E+00  0.21176246610E-01 0.  0.
         14    1    1    2    0    0 -0.71687965589E-02  0.88562993430E-02  0.20924860664E-01  0.23825941240E-01  0.00000000000E+00 0. -1.
     999901    1    3    3    0    0 -0.60275616139E-01  0.99398505843E-01 -0.44154782582E-01  0.88874228981E+00  0.88000000000E+00 0.  1.
        -11    1    4    4    0    0  0.62050765403E-01 -0.84145736297E-01  0.17683711780E-01  0.10603667859E+00  0.51100000000E-03 0. -1.
         11    1    4    4    0    0  0.53936472949E-02 -0.24109068889E-01  0.55462101380E-02  0.25325090360E-01  0.51100000000E-03 0.  1.
</event>
<event>
 8    1  0.1090774E+005  0.1043930E+01  0.7957747E-01            NaN
         13   -1    0    0    0    0  0.00000000000E+00  0.00000000000E+00  0.74505805969E-08  0.10566000000E+00  0.10566000000E+00 0. -1.
     999900   -1    0    0    0    0 -0.00000000000E+00 -0.00000000000E+00 -0.74505805969E-08  0.93827000000E+00  0.93827000000E+00 0.  1.
     999902    2    1    2    0    0  0.94226807440E-02 -0.97425594371E-02  0.19469287262E-01  0.10202074891E+01  0.10199316464E+01 0.  0.
     999903    2    3    3    0    0 -0.62284008154E-01 -0.11108247179E+00  0.26296062299E-01  0.13146780172E+00  0.19330979964E-01 0.  0.
         14    1    1    2    0    0 -0.94226807440E-02  0.97425594371E-02 -0.19469287262E-01  0.23722510897E-01  0.00000000000E+00 0.  1.
     999901    1    3    3    0    0  0.71706688898E-01  0.10133991235E+00 -0.68267750368E-02  0.88873968738E+00  0.88000000000E+00 0.  1.
        -11    1    4    4    0    0 -0.19514929816E-01 -0.54347916048E-01  0.10885930060E-01  0.58764726314E-01  0.51100000000E-03 0.  1.
         11    1    4    4    0    0 -0.42769078337E-01 -0.56734555742E-01  0.15410132239E-01  0.72703075407E-01  0.51100000000E-03 0. -1.
</event>
<event>
 8    1  0.1090774E+005  0.1043930E+01  0.7957747E-01            NaN
         13   -1    0    0    0    0  0.00000000000E+00  0.00000000000E+00  0.74505805969E-08  0.10566000000E+00  0.10566000000E+00 0. -1.
     999900   -1    0    0    0    0 -0.00000000000E+00 -0.00000000000E+00 -0.74505805969E-08  0.93827000000E+00  0.93827000000E+00 0.  1.
     999902    2    1    2    0    0  0.24953162338E-01 -0.42874012283E-02  0.99411020687E-02  0.10167294921E+01  0.10163655801E+01 0.  0.
     999903    2    3    3    0    0 -0.69732299646E-01  0.37537667386E-02 -0.10133685954E+00  0.12464609811E+00  0.19768821235E-01 0.  0.
         14    1    1    2    0    0 -0.24953162338E-01  0.42874012283E-02 -0.99411020687E-02  0.27200507905E-01  0.00000000000E+00 0.  1.
     999901    1    3    3    0    0  0.94685461984E-01 -0.80411679669E-02  0.11127796161E+00  0.89208339399E+00  0.88000000000E+00 0. -1.
        -11    1    4    4    0    0 -0.35579147545E-01  0.10836512620E-01 -0.44990403042E-01  0.58375536252E-01  0.51100000000E-03 0.  1.
         11    1    4    4    0    0 -0.34153152101E-01 -0.70827458811E-02 -0.56346456496E-01  0.66270561853E-01  0.51100000000E-03 0. -1.
</event>
<event>
 8    1  0.1090774E+005  0.1043930E+01  0.7957747E-01            NaN
         13   -1    0    0    0    0  0.00000000000E+00  0.00000000000E+00  0.74505805969E-08  0.10566000000E+00  0.10566000000E+00 0.  1.
     999900   -1    0    0    0    0 -0.00000000000E+00 -0.00000000000E+00 -0.74505805969E-08  0.93827000000E+00  0.93827000000E+00 0.  1.
     999902    2    1    2    0    0  0.16301967298E-01 -0.52779653708E-02  0.16586344332E-01  0.10200821935E+01  0.10198033946E+01 0.  0.
     999903    2    3    3    0    0  0.87521353067E-01 -0.20364856213E-01  0.96754609585E-01  0.13344429338E+00  0.19266819896E-01 0.  0.
         14    1    1    2    0    0 -0.16301967298E-01  0.52779653708E-02 -0.16586344332E-01  0.23847806493E-01  0.00000000000E+00 0. -1.
     999901    1    3    3    0    0 -0.71219385769E-01  0.15086890842E-01 -0.80168265253E-01  0.88663790013E+00  0.88000000000E+00 0.  1.
        -11    1    4    4    0    0  0.47684899851E-01 -0.38653006767E-02  0.41349840318E-01  0.63236545118E-01  0.51100000000E-03 0. -1.
         11    1    4    4    0    0  0.39836453215E-01 -0.16499555536E-01  0.55404769267E-01  0.70207748263E-01  0.51100000000E-03 0.  1.
</event>
<event>
 8    1  0.1090774E+005  0.1043930E+01  0.7957747E-01            NaN
         13   -1    0    0    0    0  0.00000000000E+00  0.00000000000E+00  0.74505805969E-08  0.10566000000E+00  0.10566000000E+00 0.  1.
     999900   -1    0    0    0    0 -0.00000000000E+00 -0.00000000000E+00 -0.74505805969E-08  0.93827000000E+00  0.93827000000E+00 0.  1.
     999902    2    1    2    0    0  0.61819206693E-02  0.28120858602E-01  0.15220237057E-02  0.10150974596E+01  0.10146879013E+01 0.  0.
     999903    2    3    3    0    0 -0.11333144510E+00  0.47651299628E-01 -0.21504678962E-01  0.12650581446E+00  0.20654468535E-01 0.  0.
         14    1    1    2    0    0 -0.61819206693E-02 -0.28120858602E-01 -0.15220237057E-02  0.28832540433E-01  0.00000000000E+00 0. -1.
     999901    1    3    3    0    0  0.11951336577E+00 -0.19530441026E-01  0.23026702668E-01  0.88859164511E+00  0.88000000000E+00 0. -1.
        -11    1    4    4    0    0 -0.41771246191E-01  0.13370884902E-01 -0.16959771501E-01  0.47026721572E-01  0.51100000000E-03 0.  1.
         11    1    4    4    0    0 -0.71560198905E-01  0.34280414726E-01 -0.45449074612E-02  0.79479092885E-01  0.51100000000E-03 0. -1.
</event>
<event>
 8    1  0.1090774E+005  0.1043930E+01  0.7957747E-01            NaN
         13   -1    0    0    0    0  0.00000000000E+00  0.00000000000E+00  0.74505805969E-08  0.10566000000E+00  0.10566000000E+00 0. -1.
     999900   -1    0    0    0    0 -0.00000000000E+00 -0.00000000000E+00 -0.74505805969E-08  0.93827000000E+00  0.93827000000E+00 0. -1.
     999902    2    1    2    0    0  0.81406879421E-02  0.25210099831E-02  0.23520387589E-01  0.10189133071E+01  0.10186061518E+01 0.  0.
     999903    2    3    3    0    0 -0.10199579182E+00 -0.64850325563E-01 -0.35668833677E-01  0.12752545383E+00  0.19538920266E-01 0.  0.
         14    1    1    2    0    0 -0.81406879421E-02 -0.25210099831E-02 -0.23520387589E-01  0.25016692904E-01  0.00000000000E+00 0.  1.
     999901    1    3    3    0    0  0.11013647976E+00  0.67371335546E-01  0.59189221266E-01  0.89138785326E+00  0.88000000000E+00 0.  1.
        -11    1    4    4    0    0 -0.45255116495E-01 -0.35550038910E-01 -0.87065391909E-02  0.58205633586E-01  0.51100000000E-03 0. -1.
         11    1    4    4    0    0 -0.56740675326E-01 -0.29300286653E-01 -0.26962294486E-01  0.69319820249E-01  0.51100000000E-03 0.  1.
</event>
<event>
 7    1  0.1090774E+005  0.1043930E+01  0.7957747E-01            NaN
         13   -1    0    0    0    0  0.00000000000E+00  0.00000000000E+00  0.74505805969E-08  0.10566000000E+00  0.10566000000E+00 0.  1.
     999900   -1    0    0    0    0 -0.00000000000E+00 -0.00000000000E+00 -0.74505805969E-08  0.93827000000E+00  0.93827000000E+00 0.  1.
     999903    2    1    2    0    0  0.85552289948E-01  0.45038208840E-01 -0.46000149465E-01  0.10892748000E+00  0.20038652100E-01 0.  0.
         14    1    1    2    0    0 -0.65469667562E-02  0.44881512115E-01  0.82250488268E-02  0.46096250733E-01  0.00000000000E+00 0. -1.
     999901    1    1    2    0    0 -0.79005323192E-01 -0.89919720955E-01  0.37775100639E-01  0.88890626926E+00  0.88000000000E+00 0.  1.
        -11    1    3    3    0    0  0.54718871721E-01  0.34253710996E-01 -0.21331786977E-01  0.67991013348E-01  0.51100000000E-03 0. -1.
         11    1    3    3    0    0  0.30833418227E-01  0.10784497844E-01 -0.24668362488E-01  0.40936466654E-01  0.51100000000E-03 0.  1.
</event>
<event>
 8    1  0.1090774E+005  0.1043930E+01  0.7957747E-01            NaN
         13   -1    0    0    0    0  0.00000000000E+00  0.00000000000E+00  0.74505805969E-08  0.10566000000E+00  0.10566000000E+00 0. -1.
     999900   -1    0    0    0    0 -0.00000000000E+00 -0.00000000000E+00 -0.74505805969E-08  0.93827000000E+00  0.93827000000E+00 0. -1.
     999902    2    1    2    0    0 -0.61608856819E-02  0.26088128432E-01 -0.49916683620E-02  0.10166634690E+01  0.10162977642E+01 0.  0.
     999903    2    3    3    0    0 -0.82118924142E-01  0.37102545670E-01  0.89041212737E-01  0.12833181717E+00  0.20508562467E-01 0.  0.
         14    1    1    2    0    0  0.61608856819E-02 -0.26088128432E-01  0.49916683620E-02  0.27266530958E-01  0.00000000000E+00 0.  1.
     999901    1    3    3    0    0  0.75958038460E-01 -0.11014417239E-01 -0.94032881099E-01  0.88833165187E+00  0.88000000000E+00 0. -1.
        -11    1    4    4    0    0 -0.19839856775E-01  0.68751812833E-02  0.33665751090E-01  0.39680372377E-01  0.51100000000E-03 0. -1.
         11    1    4    4    0    0 -0.62279067367E-01  0.30227364387E-01  0.55375461647E-01  0.88651444791E-01  0.51100000000E-03 0.  1.
</event>
<event>
 8    1  0.1090774E+005  0.1043930E+01  0.7957747E-01            NaN
         13   -1    0    0    0    0  0.00000000000E+00  0.00000000000E+00  0.74505805969E-08  0.10566000000E+00  0.10566000000E+00 0. -1.
     999900   -1    0    0    0    0 -0.00000000000E+00 -0.00000000000E+00 -0.74505805969E-08  0.93827000000E+00  0.93827000000E+00 0. -1.
     999902    2    1    2    0    0  0.19856368017E-01 -0.11020235541E-01  0.57075031973E-02  0.10205142674E+01  0.10202455946E+01 0.  0.
     999903    2    3    3    0    0  0.41871090822E-02 -0.94379091712E-01 -0.89107137888E-01  0.13136633775E+00  0.19801207927E-01 0.  0.
         14    1    1    2    0    0 -0.19856368017E-01  0.11020235541E-01 -0.57075031973E-02  0.23415732637E-01  0.00000000000E+00 0. -1.
     999901    1    3    3    0    0  0.15669258935E-01  0.83358856171E-01  0.94814641085E-01  0.88914792962E+00  0.88000000000E+00 0.  1.
        -11    1    4    4    0    0 -0.99824489007E-04 -0.49272244568E-01 -0.59426498166E-01  0.77198017170E-01  0.51100000000E-03 0. -1.
         11    1    4    4    0    0  0.42869335712E-02 -0.45106847144E-01 -0.29680639722E-01  0.54168320576E-01  0.51100000000E-03 0.  1.
</event>
<event>
 8    1  0.1090774E+005  0.1043930E+01  0.7957747E-01            NaN
         13   -1    0    0    0    0  0.00000000000E+00  0.00000000000E+00  0.74505805969E-08  0.10566000000E+00  0.10566000000E+00 0.  1.
     999900   -1    0    0    0    0 -0.00000000000E+00 -0.00000000000E+00 -0.74505805969E-08  0.93827000000E+00  0.93827000000E+00 0. -1.
     999902    2    1    2    0    0 -0.20639096965E-01  0.13171096224E-01  0.37883997963E-02  0.10191549708E+01  0.10188537934E+01 0.  0.
     999903    2    3    3    0    0  0.10525421959E+00  0.25178712526E-01  0.65514526359E-01  0.12797405498E+00  0.19307699972E-01 0.  0.
         14    1    1    2    0    0  0.20639096965E-01 -0.13171096224E-01 -0.37883997963E-02  0.24775029208E-01  0.00000000000E+00 0. -1.
     999901    1    3    3    0    0 -0.12589331656E+00 -0.12007616302E-01 -0.61726126563E-01  0.89118091581E+00  0.88000000000E+00 0.  1.
        -11    1    4    4    0    0  0.56967141161E-01  0.21349860527E-01  0.43347924136E-01  0.74701910046E-01  0.51100000000E-03 0.  1.
         11    1    4    4    0    0  0.48287078431E-01  0.38288519987E-02  0.22166602223E-01  0.53272144936E-01  0.51100000000E-03 0. -1.
</event>
<event>
 8    1  0.1090774E+005  0.1043930E+01  0.7957747E-01            NaN
         13   -1    0    0    0    0  0.00000000000E+00  0.00000000000E+00  0.74505805969E-08  0.10566000000E+00  0.10566000000E+00 0.  1.
     999900   -1    0    0    0    0 -0.00000000000E+00 -0.00000000000E+00 -0.74505805969E-08  0.93827000000E+00  0.93827000000E+00 0. -1.
     999902    2    1    2    0    0 -0.23956461907E-02 -0.18425794001E-01  0.16693721948E-01  0.10189514220E+01  0.10186452135E+01 0.  0.
     999903    2    3    3    0    0 -0.25119477777E-01  0.91478718332E-01 -0.81560753471E-01  0.12639928557E+00  0.18035487616E-01 0.  0.
         14    1    1    2    0    0  0.23956461907E-02  0.18425794001E-01 -0.16693721948E-01  0.24978577976E-01  0.00000000000E+00 0. -1.
     999901    1    3    3    0    0  0.22723831586E-01 -0.10990451233E+00  0.98254475419E-01  0.89255213646E+00  0.88000000000E+00 0.  1.
        -11    1    4    4    0    0 -0.70832579200E-03  0.58206107264E-02 -0.12068977747E-01  0.13427679602E-01  0.51100000000E-03 0. -1.
         11    1    4    4    0    0 -0.24411151985E-01  0.85658107606E-01 -0.69491775725E-01  0.11297160596E+00  0.51100000000E-03 0.  1.
</event>
<event>
 8    1  0.1090774E+005  0.1043930E+01  0.7957747E-01            NaN
         13   -1    0    0    0    0  0.00000000000E+00  0.00000000000E+00  0.74505805969E-08  0.10566000000E+00  0.10566000000E+00 0.  1.
     999900   -1    0    0    0    0 -0.00000000000E+00 -0.00000000000E+00 -0.74505805969E-08  0.93827000000E+00  0.93827000000E+00 0. -1.
     999902    2    1    2    0    0  0.23920237359E-01  0.72540951055E-02  0.40584324489E-02  0.10186066802E+01  0.10182918533E+01 0.  0.
     999903    2    3    3    0    0  0.72237819011E-01 -0.31361211759E-01 -0.10171925031E+00  0.13011658528E+00  0.19536933851E-01 0.  0.
         14    1    1    2    0    0 -0.23920237359E-01 -0.72540951055E-02 -0.40584324489E-02  0.25323319787E-01  0.00000000000E+00 0.  1.
     999901    1    3    3    0    0 -0.48317581652E-01  0.38615306864E-01  0.10577768275E+00  0.88849009493E+00  0.88000000000E+00 0.  1.
        -11    1    4    4    0    0  0.64748359310E-01 -0.24135600802E-01 -0.77984830935E-01  0.10419583598E+00  0.51100000000E-03 0. -1.
         11    1    4    4    0    0  0.74894597005E-02 -0.72256109567E-02 -0.23734419371E-01  0.25920749298E-01  0.51100000000E-03 0.  1.
</event>
<event>
 8    1  0.1090774E+005  0.1043930E+01  0.7957747E-01            NaN
         13   -1    0    0    0    0  0.00000000000E+00  0.00000000000E+00  0.74505805969E-08  0.10566000000E+00  0.10566000000E+00 0.  1.
     999900   -1    0    0    0    0 -0.00000000000E+00 -0.00000000000E+00 -0.74505805969E-08  0.93827000000E+00  0.93827000000E+00 0.  1.
     999902    2    1    2    0    0 -0.10788817289E-01 -0.79520220836E-02 -0.19973093345E-01  0.10198767738E+01  0.10195930934E+01 0.  0.
     999903    2    3    3    0    0 -0.32780443906E-01 -0.10509897924E+00  0.66434595682E-01  0.13005238007E+00  0.19486228946E-01 0.  0.
         14    1    1    2    0    0  0.10788817289E-01  0.79520220836E-02  0.19973093345E-01  0.24053226217E-01  0.00000000000E+00 0. -1.
     999901    1    3    3    0    0  0.21991626617E-01  0.97146957154E-01 -0.86407689027E-01  0.88982439371E+00  0.88000000000E+00 0.  1.
        -11    1    4    4    0    0 -0.12913027763E-01 -0.25417617039E-01  0.92330392540E-02  0.29971848071E-01  0.51100000000E-03 0.  1.
         11    1    4    4    0    0 -0.19867416143E-01 -0.79681362199E-01  0.57201556428E-01  0.10008053200E+00  0.51100000000E-03 0. -1.
</event>
<event>
 8    1  0.1090774E+005  0.1043930E+01  0.7957747E-01            NaN
         13   -1    0    0    0    0  0.00000000000E+00  0.00000000000E+00  0.74505805969E-08  0.10566000000E+00  0.10566000000E+00 0. -1.
     999900   -1    0    0    0    0 -0.00000000000E+00 -0.00000000000E+00 -0.74505805969E-08  0.93827000000E+00  0.93827000000E+00 0. -1.
     999902    2    1    2    0    0  0.44972913929E-02  0.10741216345E-01 -0.16037043495E-01  0.10241111675E+01  0.10239193802E+01 0.  0.
     999903    2    3    3    0    0  0.66245987711E-01  0.14829919140E-01  0.11221853119E+00  0.13266340601E+00  0.19953023911E-01 0.  0.
         14    1    1    2    0    0 -0.44972913929E-02 -0.10741216345E-01  0.16037043495E-01  0.19818832522E-01  0.00000000000E+00 0. -1.
     999901    1    3    3    0    0 -0.61748696318E-01 -0.40887027945E-02 -0.12825557468E+00  0.89144776147E+00  0.88000000000E+00 0. -1.
        -11    1    4    4    0    0  0.20894038809E-01  0.81830995068E-02  0.21801454743E-01  0.31290390301E-01  0.51100000000E-03 0.  1.
         11    1    4    4    0    0  0.45351948902E-01  0.66468196327E-02  0.90417076444E-01  0.10137301571E+00  0.51100000000E-03 0. -1.
</event>
<event>
 8    1  0.1090774E+005  0.1043930E+01  0.7957747E-01            NaN
         13   -1    0    0    0    0  0.00000000000E+00  0.00000000000E+00  0.74505805969E-08  0.10566000000E+00  0.10566000000E+00 0.  1.
     999900   -1    0    0    0    0 -0.00000000000E+00 -0.00000000000E+00 -0.74505805969E-08  0.93827000000E+00  0.93827000000E+00 0.  1.
     999902    2    1    2    0    0  0.75997608403E-02  0.20549471879E-01  0.65333295159E-02  0.10210668954E+01  0.10208108949E+01 0.  0.
     999903    2    3    3    0    0 -0.57620130197E-01 -0.87964215585E-01 -0.70953053620E-01  0.12863594894E+00  0.21332813083E-01 0.  0.
         14    1    1    2    0    0 -0.75997608403E-02 -0.20549471879E-01 -0.65333295159E-02  0.22863104643E-01  0.00000000000E+00 0.  1.
     999901    1    3    3    0    0  0.65219891038E-01  0.10851368746E+00  0.77486383136E-01  0.89243094642E+00  0.88000000000E+00 0. -1.
        -11    1    4    4    0    0 -0.22580868817E-01 -0.32516003053E-01 -0.39372736428E-01  0.55836006178E-01  0.51100000000E-03 0. -1.
         11    1    4    4    0    0 -0.35039261381E-01 -0.55448212532E-01 -0.31580317192E-01  0.72799942761E-01  0.51100000000E-03 0.  1.
</event>
<event>
 8    1  0.1090774E+005  0.1043930E+01  0.7957747E-01            NaN
         13   -1    0    0    0    0  0.00000000000E+00  0.00000000000E+00  0.74505805969E-08  0.10566000000E+00  0.10566000000E+00 0. -1.
     999900   -1    0    0    0    0 -0.00000000000E+00 -0.00000000000E+00 -0.74505805969E-08  0.93827000000E+00  0.93827000000E+00 0.  1.
     999902    2    1    2    0    0  0.14923956270E-01 -0.91455615189E-02  0.18617361911E-01  0.10183766845E+01  0.10180560396E+01 0.  0.
     999903    2    3    3    0    0  0.28891727767E-01 -0.42831461746E-01 -0.11493180017E+00  0.12755390912E+00  0.19784210709E-01 0.  0.
         14    1    1    2    0    0 -0.14923956270E-01  0.91455615189E-02 -0.18617361911E-01  0.25553315455E-01  0.00000000000E+00 0.  1.
     999901    1    3    3    0    0 -0.13967771497E-01  0.33685900227E-01  0.13354916208E+00  0.89082277542E+00  0.88000000000E+00 0. -1.
        -11    1    4    4    0    0  0.76690652493E-03 -0.14168151966E-01 -0.41441628475E-01  0.43806327938E-01  0.51100000000E-03 0.  1.
         11    1    4    4    0    0  0.28124821242E-01 -0.28663309780E-01 -0.73490171697E-01  0.83747581186E-01  0.51100000000E-03 0. -1.
</event>
<event>
 8    1  0.1090774E+005  0.1043930E+01  0.7957747E-01            NaN
         13   -1    0    0    0    0  0.00000000000E+00  0.00000000000E+00  0.74505805969E-08  0.10566000000E+00  0.10566000000E+00 0.  1.
     999900   -1    0    0    0    0 -0.00000000000E+00 -0.00000000000E+00 -0.74505805969E-08  0.93827000000E+00  0.93827000000E+00 0.  1.
     999902    2    1    2    0    0 -0.37741063229E-02 -0.11902060855E-01 -0.17958478228E-01  0.10220574174E+01  0.10218233480E+01 0.  0.
     999903    2    3    3    0    0  0.94698161877E-01  0.75836492853E-01  0.44135717464E-01  0.13006496753E+00  0.15811979999E-01 0.  0.
         14    1    1    2    0    0  0.37741063229E-02  0.11902060855E-01  0.17958478228E-01  0.21872582641E-01  0.00000000000E+00 0.  1.
     999901    1    3    3    0    0 -0.98472268200E-01 -0.87738553708E-01 -0.62094195692E-01  0.89199244983E+00  0.88000000000E+00 0.  1.
        -11    1    4    4    0    0  0.27097407830E-01  0.16730431746E-01  0.55595975120E-02  0.32331828018E-01  0.51100000000E-03 0.  1.
         11    1    4    4    0    0  0.67600754047E-01  0.59106061108E-01  0.38576119952E-01  0.97733139513E-01  0.51100000000E-03 0. -1.
</event>
<event>
 8    1  0.1090774E+005  0.1043930E+01  0.7957747E-01            NaN
         13   -1    0    0    0    0  0.00000000000E+00  0.00000000000E+00  0.74505805969E-08  0.10566000000E+00  0.10566000000E+00 0.  1.
     999900   -1    0    0    0    0 -0.00000000000E+00 -0.00000000000E+00 -0.74505805969E-08  0.93827000000E+00  0.93827000000E+00 0. -1.
     999902    2    1    2    0    0  0.22815018717E-02 -0.24078149980E-01  0.22981803082E-02  0.10196350583E+01  0.10193455783E+01 0.  0.
     999903    2    3    3    0    0 -0.11397982669E-02  0.12451100278E+00 -0.13840361782E-01  0.12702602066E+00  0.20970583143E-01 0.  0.
         14    1    1    2    0    0 -0.22815018717E-02  0.24078149980E-01 -0.22981803082E-02  0.24294941654E-01  0.00000000000E+00 0.  1.
     999901    1    3    3    0    0  0.34213001386E-02 -0.14858915276E+00  0.16138542090E-01  0.89260903768E+00  0.88000000000E+00 0. -1.
        -11    1    4    4    0    0  0.97107103567E-03  0.28983022239E-01 -0.12183962606E-01  0.31458999076E-01  0.51100000000E-03 0.  1.
         11    1    4    4    0    0 -0.21108693025E-02  0.95527980543E-01 -0.16563991755E-02  0.95567021587E-01  0.51100000000E-03 0. -1.
</event>
<event>
 7    1  0.1090774E+005  0.1043930E+01  0.7957747E-01            NaN
         13   -1    0    0    0    0  0.00000000000E+00  0.00000000000E+00  0.74505805969E-08  0.10566000000E+00  0.10566000000E+00 0. -1.
     999900   -1    0    0    0    0 -0.00000000000E+00 -0.00000000000E+00 -0.74505805969E-08  0.93827000000E+00  0.93827000000E+00 0.  1.
     999903    2    1    2    0    0 -0.11412077458E+00  0.52335821469E-01 -0.69796777935E-01  0.14502660142E+00  0.19963354156E-01 0.  0.
         14    1    1    2    0    0 -0.21529773890E-02  0.49142681284E-02 -0.34841459894E-02  0.63972350395E-02  0.00000000000E+00 0.  1.
     999901    1    1    2    0    0  0.11627375197E+00 -0.57250089597E-01  0.73280923924E-01  0.89250616355E+00  0.88000000000E+00 0. -1.
        -11    1    3    3    0    0 -0.86567089065E-01  0.41938476329E-01 -0.43617172731E-01  0.10561920083E+00  0.51100000000E-03 0.  1.
         11    1    3    3    0    0 -0.27553685512E-01  0.10397345140E-01 -0.26179605204E-01  0.39407400585E-01  0.51100000000E-03 0. -1.
</event>
<event>
 8    1  0.1090774E+005  0.1043930E+01  0.7957747E-01            NaN
         13   -1    0    0    0    0  0.00000000000E+00  0.00000000000E+00  0.74505805969E-08  0.10566000000E+00  0.10566000000E+00 0.  1.
     999900   -1    0    0    0    0 -0.00000000000E+00 -0.00000000000E+00 -0.74505805969E-08  0.93827000000E+00  0.93827000000E+00 0.  1.
     999902    2    1    2    0    0  0.22346576997E-01  0.72494873871E-02  0.50402689043E-02  0.10199023309E+01  0.10196192602E+01 0.  0.
     999903    2    3    3    0    0 -0.60960372024E-01 -0.49006672363E-01 -0.99318319259E-01  0.12805283791E+00  0.20385775968E-01 0.  0.
         14    1    1    2    0    0 -0.22346576997E-01 -0.72494873871E-02 -0.50402689043E-02  0.24027669081E-01  0.00000000000E+00 0. -1.
     999901    1    3    3    0    0  0.83306949021E-01  0.56256159750E-01  0.10435858816E+00  0.89184949301E+00  0.88000000000E+00 0. -1.
        -11    1    4    4    0    0 -0.45165091070E-01 -0.44664774656E-01 -0.70470727755E-01  0.94874718116E-01  0.51100000000E-03 0. -1.
         11    1    4    4    0    0 -0.15795280955E-01 -0.43418977066E-02 -0.28847591504E-01  0.33178119789E-01  0.51100000000E-03 0.  1.
</event>
<event>
 8    1  0.1090774E+005  0.1043930E+01  0.7957747E-01            NaN
         13   -1    0    0    0    0  0.00000000000E+00  0.00000000000E+00  0.74505805969E-08  0.10566000000E+00  0.10566000000E+00 0.  1.
     999900   -1    0    0    0    0 -0.00000000000E+00 -0.00000000000E+00 -0.74505805969E-08  0.93827000000E+00  0.93827000000E+00 0. -1.
     999902    2    1    2    0    0 -0.57561818777E-03 -0.19238470438E-01  0.13008398181E-01  0.10206992337E+01  0.10204348373E+01 0.  0.
     999903    2    3    3    0    0 -0.82830402019E-01  0.58538531524E-01  0.80320614732E-01  0.13089810645E+00  0.19881598285E-01 0.  0.
         14    1    1    2    0    0  0.57561818777E-03  0.19238470438E-01 -0.13008398181E-01  0.23230766331E-01  0.00000000000E+00 0. -1.
     999901    1    3    3    0    0  0.82254783831E-01 -0.77777001962E-01 -0.67312216551E-01  0.88980112722E+00  0.88000000000E+00 0. -1.
        -11    1    4    4    0    0 -0.40362353326E-01  0.26579864177E-01  0.25923987189E-01  0.54844534628E-01  0.51100000000E-03 0.  1.
         11    1    4    4    0    0 -0.42468048692E-01  0.31958667347E-01  0.54396627543E-01  0.76053571825E-01  0.51100000000E-03 0. -1.
</event>
<event>
 8    1  0.1090774E+005  0.1043930E+01  0.7957747E-01            NaN
         13   -1    0    0    0    0  0.00000000000E+00  0.00000000000E+00  0.74505805969E-08  0.10566000000E+00  0.10566000000E+00 0.  1.
     999900   -1    0    0    0    0 -0.00000000000E+00 -0.00000000000E+00 -0.74505805969E-08  0.93827000000E+00  0.93827000000E+00 0. -1.
     999902    2    1    2    0    0 -0.15402301085E-01  0.12919512862E-01  0.87598962399E-02  0.10220010129E+01  0.10217657217E+01 0.  0.
     999903    2    3    3    0    0  0.10271233120E+00  0.72316836902E-01 -0.31207870362E-01  0.13122801670E+00  0.21617430786E-01 0.  0.
         14    1    1    2    0    0  0.15402301085E-01 -0.12919512862E-01 -0.87598962399E-02  0.21928987060E-01  0.00000000000E+00 0. -1.
     999901    1    3    3    0    0 -0.11811463229E+00 -0.59397324039E-01  0.39967766602E-01  0.89077299624E+00  0.88000000000E+00 0. -1.
        -11    1    4    4    0    0  0.50159814147E-01  0.22727837333E-01 -0.16493160761E-01  0.57487798862E-01  0.51100000000E-03 0.  1.
         11    1    4    4    0    0  0.52552517057E-01  0.49588999568E-01 -0.14714709601E-01  0.73740217838E-01  0.51100000000E-03 0. -1.
</event>
<event>
 8    1  0.1090774E+005  0.1043930E+01  0.7957747E-01            NaN
         13   -1    0    0    0    0  0.00000000000E+00  0.00000000000E+00  0.74505805969E-08  0.10566000000E+00  0.10566000000E+00 0.  1.
     999900   -1    0    0    0    0 -0.00000000000E+00 -0.00000000000E+00 -0.74505805969E-08  0.93827000000E+00  0.93827000000E+00 0. -1.
     999902    2    1    2    0    0  0.23314522660E-01  0.10416530391E-02 -0.25435974038E-02  0.10204540145E+01  0.10201839412E+01 0.  0.
     999903    2    3    3    0    0  0.12219505590E+00 -0.18032820278E-01 -0.46397676321E-01  0.13362574722E+00  0.21125379489E-01 0.  0.
         14    1    1    2    0    0 -0.23314522660E-01 -0.10416530391E-02  0.25435974038E-02  0.23475985510E-01  0.00000000000E+00 0. -1.
     999901    1    3    3    0    0 -0.98880533242E-01  0.19074473317E-01  0.43854078917E-01  0.88682826727E+00  0.88000000000E+00 0.  1.
        -11    1    4    4    0    0  0.91981285381E-01 -0.12422788761E-01 -0.24838713102E-01  0.96083845315E-01  0.51100000000E-03 0.  1.
         11    1    4    4    0    0  0.30213770521E-01 -0.56100315168E-02 -0.21558963219E-01  0.37541901907E-01  0.51100000000E-03 0. -1.
</event>
<event>
 8    1  0.1090774E+005  0.1043930E+01  0.7957747E-01            NaN
         13   -1    0    0    0    0  0.00000000000E+00  0.00000000000E+00  0.74505805969E-08  0.10566000000E+00  0.10566000000E+00 0.  1.
     999900   -1    0    0    0    0 -0.00000000000E+00 -0.00000000000E+00 -0.74505805969E-08  0.93827000000E+00  0.93827000000E+00 0.  1.
     999902    2    1    2    0    0 -0.11247722728E-01 -0.20623193286E-01 -0.10715778937E-02  0.10204145658E+01  0.10201435734E+01 0.  0.
     999903    2    3    3    0    0  0.76984797939E-01  0.62583381062E-01  0.79232598049E-01  0.12847450478E+00  0.19610076153E-01 0.  0.
         14    1    1    2    0    0  0.11247722728E-01  0.20623193286E-01  0.10715778937E-02  0.23515434231E-01  0.00000000000E+00 0. -1.
     999901    1    3    3    0    0 -0.88232520668E-01 -0.83206574347E-01 -0.80304175943E-01  0.89194006099E+00  0.88000000000E+00 0. -1.
        -11    1    4    4    0    0  0.25511907074E-01  0.13722323252E-01  0.14428059825E-01  0.32366488677E-01  0.51100000000E-03 0.  1.
         11    1    4    4    0    0  0.51472890865E-01  0.48861057810E-01  0.64804538224E-01  0.96108016106E-01  0.51100000000E-03 0. -1.
</event>
<event>
 8    1  0.1090774E+005  0.1043930E+01  0.7957747E-01            NaN
         13   -1    0    0    0    0  0.00000000000E+00  0.00000000000E+00  0.74505805969E-08  0.10566000000E+00  0.10566000000E+00 0. -1.
     999900   -1    0    0    0    0 -0.00000000000E+00 -0.00000000000E+00 -0.74505805969E-08  0.93827000000E+00  0.93827000000E+00 0. -1.
     999902    2    1    2    0    0 -0.80980351330E-02  0.61738815997E-03  0.21673665310E-01  0.10207846525E+01  0.10205222191E+01 0.  0.
     999903    2    3    3    0    0 -0.10309958376E+00  0.74611964340E-01  0.30401811498E-01  0.13254106428E+00  0.21128042619E-01 0.  0.
         14    1    1    2    0    0  0.80980351330E-02 -0.61738815997E-03 -0.21673665310E-01  0.23145347462E-01  0.00000000000E+00 0.  1.
     999901    1    3    3    0    0  0.95001548623E-01 -0.73994576180E-01 -0.87281461875E-02  0.88824358826E+00  0.88000000000E+00 0. -1.
        -11    1    4    4    0    0 -0.47648889583E-01  0.33347217341E-01  0.24686624018E-01  0.63183416411E-01  0.51100000000E-03 0. -1.
         11    1    4    4    0    0 -0.55450694173E-01  0.41264746998E-01  0.57151874800E-02  0.69357647870E-01  0.51100000000E-03 0.  1.
</event>
<event>
 8    1  0.1090774E+005  0.1043930E+01  0.7957747E-01            NaN
         13   -1    0    0    0    0  0.00000000000E+00  0.00000000000E+00  0.74505805969E-08  0.10566000000E+00  0.10566000000E+00 0.  1.
     999900   -1    0    0    0    0 -0.00000000000E+00 -0.00000000000E+00 -0.74505805969E-08  0.93827000000E+00  0.93827000000E+00 0.  1.
     999902    2    1    2    0    0 -0.99004666555E-02 -0.14844064946E-01 -0.14580320316E-01  0.10208876207E+01  0.10206275436E+01 0.  0.
     999903    2    3    3    0    0  0.32967177947E-01  0.10353529494E+00 -0.68899121801E-01  0.13026882457E+00  0.20407977575E-01 0.  0.
         14    1    1    2    0    0  0.99004666555E-02  0.14844064946E-01  0.14580320316E-01  0.23042379319E-01  0.00000000000E+00 0.  1.
     999901    1    3    3    0    0 -0.42867644602E-01 -0.11837935989E+00  0.54318801485E-01  0.89061879612E+00  0.88000000000E+00 0. -1.
        -11    1    4    4    0    0  0.45071925294E-02  0.12827511802E-01 -0.17588494752E-01  0.22236818841E-01  0.51100000000E-03 0.  1.
         11    1    4    4    0    0  0.28459985417E-01  0.90707783137E-01 -0.51310627049E-01  0.10803200572E+00  0.51100000000E-03 0. -1.
</event>
<event>
 8    1  0.1090774E+005  0.1043930E+01  0.7957747E-01            NaN
         13   -1    0    0    0    0  0.00000000000E+00  0.00000000000E+00  0.74505805969E-08  0.10566000000E+00  0.10566000000E+00 0.  1.
     999900   -1    0    0    0    0 -0.00000000000E+00 -0.00000000000E+00 -0.74505805969E-08  0.93827000000E+00  0.93827000000E+00 0. -1.
     999902    2    1    2    0    0  0.17998815869E-02 -0.11682038297E-01 -0.20166828819E-01  0.10205545732E+01  0.10202868353E+01 0.  0.
     999903    2    3    3    0    0  0.10647746233E+00 -0.74436405498E-01 -0.13369067580E-01  0.13210552231E+00  0.19872307603E-01 0.  0.
         14    1    1    2    0    0 -0.17998815869E-02  0.11682038297E-01  0.20166828819E-01  0.23375426779E-01  0.00000000000E+00 0.  1.
     999901    1    3    3    0    0 -0.10467758074E+00  0.62754367201E-01 -0.67977612384E-02  0.88844905091E+00  0.88000000000E+00 0.  1.
        -11    1    4    4    0    0  0.25781556581E-01 -0.12700172631E-01  0.40188190647E-02  0.29024043004E-01  0.51100000000E-03 0. -1.
         11    1    4    4    0    0  0.80695905744E-01 -0.61736232867E-01 -0.17387886645E-01  0.10308147930E+00  0.51100000000E-03 0.  1.
</event>
<event>
 8    1  0.1090774E+005  0.1043930E+01  0.7957747E-01            NaN
         13   -1    0    0    0    0  0.00000000000E+00  0.00000000000E+00  0.74505805969E-08  0.10566000000E+00  0.10566000000E+00 0.  1.
     999900   -1    0    0    0    0 -0.00000000000E+00 -0.00000000000E+00 -0.74505805969E-08  0.93827000000E+00  0.93827000000E+00 0.  1.
     999902    2    1    2    0    0 -0.20922150333E-01  0.79392746488E-02  0.51116393279E-02  0.10209757561E+01  0.10207176873E+01 0.  0.
     999903    2    3    3    0    0  0.82380657506E-01 -0.27537079417E-01  0.95798096014E-01  0.12959812836E+00  0.85753251077E-02 0.  0.
         14    1    1    2    0    0  0.20922150333E-01 -0.79392746488E-02 -0.51116393279E-02  0.22954243902E-01  0.00000000000E+00 0. -1.
     999901    1    3    3    0    0 -0.10330280784E+00  0.35476354066E-01 -0.90686456686E-01  0.89137762774E+00  0.88000000000E+00 0. -1.
        -11    1    4    4    0    0  0.90735554026E-02 -0.33242259779E-02  0.14951789612E-01  0.17810025817E-01  0.51100000000E-03 0.  1.
         11    1    4    4    0    0  0.73307102103E-01 -0.24212853440E-01  0.80846306402E-01  0.11178810254E+00  0.51100000000E-03 0. -1.
</event>
<event>
 8    1  0.1090774E+005  0.1043930E+01  0.7957747E-01            NaN
         13   -1    0    0    0    0  0.00000000000E+00  0.00000000000E+00  0.74505805969E-08  0.10566000000E+00  0.10566000000E+00 0.  1.
     999900   -1    0    0    0    0 -0.00000000000E+00 -0.00000000000E+00 -0.74505805969E-08  0.93827000000E+00  0.93827000000E+00 0. -1.
     999902    2    1    2    0    0 -0.65218660270E-02  0.10428887929E-01  0.16927336048E-01  0.10230055849E+01  0.10227915700E+01 0.  0.
     999903    2    3    3    0    0 -0.11997811447E+00  0.52902505384E-01 -0.18757585026E-01  0.13398941969E+00  0.20196399789E-01 0.  0.
         14    1    1    2    0    0  0.65218660270E-02 -0.10428887929E-01 -0.16927336048E-01  0.20924415059E-01  0.00000000000E+00 0. -1.
     999901    1    3    3    0    0  0.11345624844E+00 -0.42473617455E-01  0.35684921073E-01  0.88901616525E+00  0.88000000000E+00 0.  1.
        -11    1    4    4    0    0 -0.93285750174E-01  0.33207844528E-01 -0.18923046977E-01  0.10081336693E+00  0.51100000000E-03 0. -1.
         11    1    4    4    0    0 -0.26692364296E-01  0.19694660856E-01  0.16546195156E-03  0.33176052758E-01  0.51100000000E-03 0.  1.
</event>
<event>
 8    1  0.1090774E+005  0.1043930E+01  0.7957747E-01            NaN
         13   -1    0    0    0    0  0.00000000000E+00  0.00000000000E+00  0.74505805969E-08  0.10566000000E+00  0.10566000000E+00 0.  1.
     999900   -1    0    0    0    0 -0.00000000000E+00 -0.00000000000E+00 -0.74505805969E-08  0.93827000000E+00  0.93827000000E+00 0.  1.
     999902    2    1    2    0    0 -0.45946992533E-02 -0.23394217726E-01 -0.31699640340E-02  0.10198790259E+01  0.10195953992E+01 0.  0.
     999903    2    3    3    0    0  0.20455553418E-01 -0.10958528019E+00 -0.69319401113E-01  0.13284342206E+00  0.20367427773E-01 0.  0.
         14    1    1    2    0    0  0.45946992533E-02  0.23394217726E-01  0.31699640340E-02  0.24050974122E-01  0.00000000000E+00 0. -1.
     999901    1    3    3    0    0 -0.25050252671E-01  0.86191062469E-01  0.66149437079E-01  0.88703560381E+00  0.88000000000E+00 0. -1.
        -11    1    4    4    0    0  0.17925319583E-01 -0.44243554579E-01 -0.25460859951E-01  0.54104766096E-01  0.51100000000E-03 0. -1.
         11    1    4    4    0    0  0.25302338346E-02 -0.65341725616E-01 -0.43858541162E-01  0.78738655968E-01  0.51100000000E-03 0.  1.
</event>
<event>
 8    1  0.1090774E+005  0.1043930E+01  0.7957747E-01            NaN
         13   -1    0    0    0    0  0.00000000000E+00  0.00000000000E+00  0.74505805969E-08  0.10566000000E+00  0.10566000000E+00 0. -1.
     999900   -1    0    0    0    0 -0.00000000000E+00 -0.00000000000E+00 -0.74505805969E-08  0.93827000000E+00  0.93827000000E+00 0. -1.
     999902    2    1    2    0    0  0.20188453336E-01 -0.48793735389E-02 -0.75097922749E-02  0.10218442826E+01  0.10216055789E+01 0.  0.
     999903    2    3    3    0    0 -0.38494024245E-02  0.12998543462E+00 -0.55385261089E-03  0.13121825551E+00  0.17518353597E-01 0.  0.
         14    1    1    2    0    0 -0.20188453336E-01  0.48793735389E-02  0.75097922749E-02  0.22085717426E-01  0.00000000000E+00 0. -1.
     999901    1    3    3    0    0  0.24037855760E-01 -0.13486480816E+00 -0.69559396640E-02  0.89062602707E+00  0.88000000000E+00 0. -1.
        -11    1    4    4    0    0  0.47734523219E-02  0.22679466502E-01 -0.39274030602E-02  0.23512330035E-01  0.51100000000E-03 0.  1.
         11    1    4    4    0    0 -0.86228547465E-02  0.10730596812E+00  0.33735504493E-02  0.10770592547E+00  0.51100000000E-03 0. -1.
</event>
<event>
 8    1  0.1090774E+005  0.1043930E+01  0.7957747E-01            NaN
         13   -1    0    0    0    0  0.00000000000E+00  0.00000000000E+00  0.74505805969E-08  0.10566000000E+00  0.10566000000E+00 0.  1.
     999900   -1    0    0    0    0 -0.00000000000E+00 -0.00000000000E+00 -0.74505805969E-08  0.93827000000E+00  0.93827000000E+00 0.  1.
     999902    2    1    2    0    0 -0.16242866914E-01  0.17552968779E-01  0.87223174007E-03  0.10199988858E+01  0.10197181124E+01 0.  0.
     999903    2    3    3    0    0 -0.11062436270E+00 -0.21433409229E-01  0.65345542088E-01  0.13175082801E+00  0.19776252394E-01 0.  0.
         14    1    1    2    0    0  0.16242866914E-01 -0.17552968779E-01 -0.87223174007E-03  0.23931114198E-01  0.00000000000E+00 0.  1.
     999901    1    3    3    0    0  0.94381495782E-01  0.38986378008E-01 -0.64473310348E-01  0.88824805779E+00  0.88000000000E+00 0. -1.
        -11    1    4    4    0    0 -0.51668722116E-01 -0.16848958459E-01  0.22990484879E-01  0.59011590066E-01  0.51100000000E-03 0.  1.
         11    1    4    4    0    0 -0.58955640580E-01 -0.45844507698E-02  0.42355057210E-01  0.72739237948E-01  0.51100000000E-03 0. -1.
</event>
<event>
 8    1  0.1090774E+005  0.1043930E+01  0.7957747E-01            NaN
         13   -1    0    0    0    0  0.00000000000E+00  0.00000000000E+00  0.74505805969E-08  0.10566000000E+00  0.10566000000E+00 0. -1.
     999900   -1    0    0    0    0 -0.00000000000E+00 -0.00000000000E+00 -0.74505805969E-08  0.93827000000E+00  0.93827000000E+00 0. -1.
     999902    2    1    2    0    0  0.59118108678E-02 -0.15076764906E-01 -0.16427149125E-01  0.10208624996E+01  0.10206018486E+01 0.  0.
     999903    2    3    3    0    0 -0.21111696030E-01  0.11843935586E+00  0.40385697761E-01  0.12857077373E+00  0.20636243545E-01 0.  0.
         14    1    1    2    0    0 -0.59118108678E-02  0.15076764906E-01  0.16427149125E-01  0.23067500431E-01  0.00000000000E+00 0. -1.
     999901    1    3    3    0    0  0.27023506898E-01 -0.13351612077E+00 -0.56812846886E-01  0.89229172584E+00  0.88000000000E+00 0. -1.
        -11    1    4    4    0    0 -0.14074895672E-01  0.60613118649E-01  0.31146904475E-01  0.69587668591E-01  0.51100000000E-03 0. -1.
         11    1    4    4    0    0 -0.70368003585E-02  0.57826237213E-01  0.92387932859E-02  0.58983105139E-01  0.51100000000E-03 0.  1.
</event>
<event>
 8    1  0.1090774E+005  0.1043930E+01  0.7957747E-01            NaN
         13   -1    0    0    0    0  0.00000000000E+00  0.00000000000E+00  0.74505805969E-08  0.10566000000E+00  0.10566000000E+00 0. -1.
     999900   -1    0    0    0    0 -0.00000000000E+00 -0.00000000000E+00 -0.74505805969E-08  0.93827000000E+00  0.93827000000E+00 0.  1.
     999902    2    1    2    0    0  0.17278869389E-01 -0.13548810437E-01  0.98143587137E-02  0.10198789870E+01  0.10195953593E+01 0.  0.
     999903    2    3    3    0    0 -0.45951020958E-01 -0.39960349802E-01 -0.11181352570E+00  0.12887453651E+00  0.19951334458E-01 0.  0.
         14    1    1    2    0    0 -0.17278869389E-01  0.13548810437E-01 -0.98143587137E-02  0.24051013047E-01  0.00000000000E+00 0.  1.
     999901    1    3    3    0    0  0.63229890348E-01  0.26411539364E-01  0.12162788442E+00  0.89100445044E+00  0.88000000000E+00 0. -1.
        -11    1    4    4    0    0 -0.12030748712E-01 -0.22456654329E-01 -0.52178295757E-01  0.58067856059E-01  0.51100000000E-03 0.  1.
         11    1    4    4    0    0 -0.33920272246E-01 -0.17503695473E-01 -0.59635229946E-01  0.70806680448E-01  0.51100000000E-03 0. -1.
</event>
<event>
 8    1  0.1090774E+005  0.1043930E+01  0.7957747E-01            NaN
         13   -1    0    0    0    0  0.00000000000E+00  0.00000000000E+00  0.74505805969E-08  0.10566000000E+00  0.10566000000E+00 0.  1.
     999900   -1    0    0    0    0 -0.00000000000E+00 -0.00000000000E+00 -0.74505805969E-08  0.93827000000E+00  0.93827000000E+00 0.  1.
     999902    2    1    2    0    0 -0.23151564939E-02  0.15512034292E-01  0.18840360946E-01  0.10194158743E+01  0.10191210833E+01 0.  0.
     999903    2    3    3    0    0  0.38789163192E-01 -0.69711563479E-02  0.12430922698E+00  0.13188066901E+00  0.19660385143E-01 0.  0.
         14    1    1    2    0    0  0.23151564939E-02 -0.15512034292E-01 -0.18840360946E-01  0.24514125684E-01  0.00000000000E+00 0.  1.
     999901    1    3    3    0    0 -0.41104319686E-01  0.22483190640E-01 -0.10546886603E+00  0.88753520531E+00  0.88000000000E+00 0.  1.
        -11    1    4    4    0    0  0.88278151497E-02  0.10910150154E-02  0.57870274724E-01  0.58552117397E-01  0.51100000000E-03 0.  1.
         11    1    4    4    0    0  0.29961348043E-01 -0.80621713632E-02  0.66438952255E-01  0.73328551611E-01  0.51100000000E-03 0. -1.
</event>
<event>
 8    1  0.1090774E+005  0.1043930E+01  0.7957747E-01            NaN
         13   -1    0    0    0    0  0.00000000000E+00  0.00000000000E+00  0.74505805969E-08  0.10566000000E+00  0.10566000000E+00 0.  1.
     999900   -1    0    0    0    0 -0.00000000000E+00 -0.00000000000E+00 -0.74505805969E-08  0.93827000000E+00  0.93827000000E+00 0.  1.
     999902    2    1    2    0    0 -0.48001767661E-02  0.96545574445E-02  0.19826222825E-01  0.10213616308E+01  0.10211122610E+01 0.  0.
     999903    2    3    3    0    0  0.11941931810E+00 -0.21988329879E-01  0.46760437457E-01  0.13166662288E+00  0.20127118065E-01 0.  0.
         14    1    1    2    0    0  0.48001767661E-02 -0.96545574445E-02 -0.19826222825E-01  0.22568369191E-01  0.00000000000E+00 0.  1.
     999901    1    3    3    0    0 -0.12421949487E+00  0.31642887324E-01 -0.26934214632E-01  0.88969500793E+00  0.88000000000E+00 0.  1.
        -11    1    4    4    0    0  0.96160294582E-01 -0.22865314164E-01  0.44098289597E-01  0.10823375219E+00  0.51100000000E-03 0. -1.
         11    1    4    4    0    0  0.23259023520E-01  0.87698428468E-03  0.26621478598E-02  0.23432870689E-01  0.51100000000E-03 0.  1.
</event>
<event>
 8    1  0.1090774E+005  0.1043930E+01  0.7957747E-01            NaN
         13   -1    0    0    0    0  0.00000000000E+00  0.00000000000E+00  0.74505805969E-08  0.10566000000E+00  0.10566000000E+00 0. -1.
     999900   -1    0    0    0    0 -0.00000000000E+00 -0.00000000000E+00 -0.74505805969E-08  0.93827000000E+00  0.93827000000E+00 0. -1.
     999902    2    1    2    0    0  0.20699619120E-01  0.87331756272E-02  0.69789792588E-02  0.10204045087E+01  0.10201332818E+01 0.  0.
     999903    2    3    3    0    0  0.11080240896E+00 -0.68349605016E-01 -0.12334354527E-01  0.13224164490E+00  0.19669113053E-01 0.  0.
         14    1    1    2    0    0 -0.20699619120E-01 -0.87331756272E-02 -0.69789792588E-02  0.23525491275E-01  0.00000000000E+00 0. -1.
     999901    1    3    3    0    0 -0.90102789840E-01  0.77082780643E-01  0.19313333786E-01  0.88816286382E+00  0.88000000000E+00 0. -1.
        -11    1    4    4    0    0  0.49807663498E-01 -0.39611738409E-01 -0.12275959160E-01  0.64813991215E-01  0.51100000000E-03 0.  1.
         11    1    4    4    0    0  0.60994745461E-01 -0.28737866607E-01 -0.58395367538E-04  0.67427653689E-01  0.51100000000E-03 0. -1.
</event>
<event>
 8    1  0.1090774E+005  0.1043930E+01  0.7957747E-01            NaN
         13   -1    0    0    0    0  0.00000000000E+00  0.00000000000E+00  0.74505805969E-08  0.10566000000E+00  0.10566000000E+00 0.  1.
     999900   -1    0    0    0    0 -0.00000000000E+00 -0.00000000000E+00 -0.74505805969E-08  0.93827000000E+00  0.93827000000E+00 0.  1.
     999902    2    1    2    0    0 -0.20046086430E-01  0.75467873444E-02 -0.98682276737E-02  0.10203464995E+01  0.10200739176E+01 0.  0.
     999903    2    3    3    0    0  0.41677274152E-01  0.22012381122E-01  0.11836970401E+00  0.12879504622E+00  0.18847731952E-01 0.  0.
         14    1    1    2    0    0  0.20046086430E-01 -0.75467873444E-02  0.98682276737E-02  0.23583500542E-01  0.00000000000E+00 0.  1.
     999901    1    3    3    0    0 -0.61723360582E-01 -0.14465593778E-01 -0.12823793169E+00  0.89155145324E+00  0.88000000000E+00 0.  1.
        -11    1    4    4    0    0  0.68144949909E-02  0.34228043624E-02  0.61112653586E-02  0.97857864767E-02  0.51100000000E-03 0.  1.
         11    1    4    4    0    0  0.34862779161E-01  0.18589576760E-01  0.11225843865E+00  0.11900925974E+00  0.51100000000E-03 0. -1.
</event>
<event>
 8    1  0.1090774E+005  0.1043930E+01  0.7957747E-01            NaN
         13   -1    0    0    0    0  0.00000000000E+00  0.00000000000E+00  0.74505805969E-08  0.10566000000E+00  0.10566000000E+00 0. -1.
     999900   -1    0    0    0    0 -0.00000000000E+00 -0.00000000000E+00 -0.74505805969E-08  0.93827000000E+00  0.93827000000E+00 0.  1.
     999902    2    1    2    0    0 -0.87335666088E-02  0.51536943975E-02 -0.24031217459E-01  0.10178467647E+01  0.10175125067E+01 0.  0.
     999903    2    3    3    0    0  0.75902118859E-01  0.22401540339E-01  0.95874360994E-01  0.12552505410E+00  0.17369094803E-01 0.  0.
         14    1    1    2    0    0  0.87335666088E-02 -0.51536943975E-02  0.24031217459E-01  0.26083235310E-01  0.00000000000E+00 0. -1.
     999901    1    3    3    0    0 -0.84635685468E-01 -0.17247845942E-01 -0.11990557845E+00  0.89232171059E+00  0.88000000000E+00 0.  1.
        -11    1    4    4    0    0  0.23001160035E-01  0.13525501997E-01  0.24408788508E-01  0.36166872199E-01  0.51100000000E-03 0.  1.
         11    1    4    4    0    0  0.52900958824E-01  0.88760383425E-02  0.71465572486E-01  0.89358181903E-01  0.51100000000E-03 0. -1.
</event>
<event>
 8    1  0.1090774E+005  0.1043930E+01  0.7957747E-01            NaN
         13   -1    0    0    0    0  0.00000000000E+00  0.00000000000E+00  0.74505805969E-08  0.10566000000E+00  0.10566000000E+00 0. -1.
     999900   -1    0    0    0    0 -0.00000000000E+00 -0.00000000000E+00 -0.74505805969E-08  0.93827000000E+00  0.93827000000E+00 0.  1.
     999902    2    1    2    0    0 -0.37545639459E-02 -0.12156683167E-02 -0.24634837600E-01  0.10189810557E+01  0.10186755823E+01 0.  0.
     999903    2    3    3    0    0 -0.97955492978E-01 -0.82078682848E-01  0.80221818156E-02  0.12966720608E+00  0.20421560864E-01 0.  0.
         14    1    1    2    0    0  0.37545639459E-02  0.12156683167E-02  0.24634837600E-01  0.24948944336E-01  0.00000000000E+00 0. -1.
     999901    1    3    3    0    0  0.94200929032E-01  0.80863014531E-01 -0.32657019416E-01  0.88931384959E+00  0.88000000000E+00 0. -1.
        -11    1    4    4    0    0 -0.46215411640E-01 -0.51965239663E-01  0.49483094689E-02  0.69720852648E-01  0.51100000000E-03 0.  1.
         11    1    4    4    0    0 -0.51740081338E-01 -0.30113443185E-01  0.30738723467E-02  0.59946353430E-01  0.51100000000E-03 0. -1.
</event>
<event>
 8    1  0.1090774E+005  0.1043930E+01  0.7957747E-01            NaN
         13   -1    0    0    0    0  0.00000000000E+00  0.00000000000E+00  0.74505805969E-08  0.10566000000E+00  0.10566000000E+00 0.  1.
     999900   -1    0    0    0    0 -0.00000000000E+00 -0.00000000000E+00 -0.74505805969E-08  0.93827000000E+00  0.93827000000E+00 0.  1.
     999902    2    1    2    0    0 -0.16599617049E-01 -0.95613072450E-03  0.16946396718E-01  0.10201888578E+01  0.10199125765E+01 0.  0.
     999903    2    3    3    0    0 -0.33580232241E-02 -0.12082539587E+00 -0.43432430008E-01  0.12991385350E+00  0.19523850763E-01 0.  0.
         14    1    1    2    0    0  0.16599617049E-01  0.95613072450E-03 -0.16946396718E-01  0.23741142219E-01  0.00000000000E+00 0.  1.
     999901    1    3    3    0    0 -0.13241593825E-01  0.11986926514E+00  0.60378826726E-01  0.89027500428E+00  0.88000000000E+00 0. -1.
        -11    1    4    4    0    0 -0.95314960970E-02 -0.38088633727E-01 -0.10477582304E-01  0.40640303751E-01  0.51100000000E-03 0.  1.
         11    1    4    4    0    0  0.61734728729E-02 -0.82736762138E-01 -0.32954847704E-01  0.89273549748E-01  0.51100000000E-03 0. -1.
</event>
<event>
 8    1  0.1090774E+005  0.1043930E+01  0.7957747E-01            NaN
         13   -1    0    0    0    0  0.00000000000E+00  0.00000000000E+00  0.74505805969E-08  0.10566000000E+00  0.10566000000E+00 0. -1.
     999900   -1    0    0    0    0 -0.00000000000E+00 -0.00000000000E+00 -0.74505805969E-08  0.93827000000E+00  0.93827000000E+00 0.  1.
     999902    2    1    2    0    0 -0.41715064744E-02  0.20668317810E-01 -0.15051406216E-01  0.10180239070E+01  0.10176942318E+01 0.  0.
     999903    2    3    3    0    0  0.76266442372E-01  0.10380972489E+00 -0.62381638934E-02  0.13040888319E+00  0.19352852799E-01 0.  0.
         14    1    1    2    0    0  0.41715064744E-02 -0.20668317810E-01  0.15051406216E-01  0.25906093037E-01  0.00000000000E+00 0. -1.
     999901    1    3    3    0    0 -0.80437948846E-01 -0.83141407084E-01 -0.88132423224E-02  0.88761502377E+00  0.88000000000E+00 0.  1.
        -11    1    4    4    0    0  0.65165405730E-01  0.75027907177E-01 -0.59290306745E-02  0.99554665812E-01  0.51100000000E-03 0. -1.
         11    1    4    4    0    0  0.11101036642E-01  0.28781817718E-01 -0.30913321890E-03  0.30854217378E-01  0.51100000000E-03 0.  1.
</event>
<event>
 8    1  0.1090774E+005  0.1043930E+01  0.7957747E-01            NaN
         13   -1    0    0    0    0  0.00000000000E+00  0.00000000000E+00  0.74505805969E-08  0.10566000000E+00  0.10566000000E+00 0. -1.
     999900   -1    0    0    0    0 -0.00000000000E+00 -0.00000000000E+00 -0.74505805969E-08  0.93827000000E+00  0.93827000000E+00 0. -1.
     999902    2    1    2    0    0  0.13960573622E-01 -0.14063300632E-01  0.16194675404E-01  0.10183381741E+01  0.10180165496E+01 0.  0.
     999903    2    3    3    0    0  0.88337535698E-01  0.89880452257E-01  0.18696446842E-01  0.12910114435E+00  0.20869413905E-01 0.  0.
         14    1    1    2    0    0 -0.13960573622E-01  0.14063300632E-01 -0.16194675404E-01  0.25591825882E-01  0.00000000000E+00 0.  1.
     999901    1    3    3    0    0 -0.74376962076E-01 -0.10394375289E+00 -0.25017714384E-02  0.88923702977E+00  0.88000000000E+00 0.  1.
        -11    1    4    4    0    0  0.24490502181E-01  0.25253466140E-01 -0.41456934602E-02  0.35425557786E-01  0.51100000000E-03 0.  1.
         11    1    4    4    0    0  0.63847033516E-01  0.64626986117E-01  0.22842140302E-01  0.93675586564E-01  0.51100000000E-03 0. -1.
</event>
<event>
 8    1  0.1090774E+005  0.1043930E+01  0.7957747E-01            NaN
         13   -1    0    0    0    0  0.00000000000E+00  0.00000000000E+00  0.74505805969E-08  0.10566000000E+00  0.10566000000E+00 0. -1.
     999900   -1    0    0    0    0 -0.00000000000E+00 -0.00000000000E+00 -0.74505805969E-08  0.93827000000E+00  0.93827000000E+00 0.  1.
     999902    2    1    2    0    0  0.45081291171E-02  0.21321120290E-01  0.87002943227E-02  0.10204649511E+01  0.10201951323E+01 0.  0.
     999903    2    3    3    0    0 -0.52163763136E-02 -0.13699843213E-01 -0.12695876871E+00  0.12932836489E+00  0.19809107186E-01 0.  0.
         14    1    1    2    0    0 -0.45081291171E-02 -0.21321120290E-01 -0.87002943227E-02  0.23465048900E-01  0.00000000000E+00 0. -1.
     999901    1    3    3    0    0  0.97245054307E-02  0.35020963503E-01  0.13565906303E+00  0.89113658621E+00  0.88000000000E+00 0. -1.
        -11    1    4    4    0    0 -0.85580811770E-02 -0.16036532255E-01 -0.73659579968E-01  0.75870982347E-01  0.51100000000E-03 0. -1.
         11    1    4    4    0    0  0.33417048635E-02  0.23366890422E-02 -0.53299188744E-01  0.53457382548E-01  0.51100000000E-03 0.  1.
</event>
<event>
 8    1  0.1090774E+005  0.1043930E+01  0.7957747E-01            NaN
         13   -1    0    0    0    0  0.00000000000E+00  0.00000000000E+00  0.74505805969E-08  0.10566000000E+00  0.10566000000E+00 0. -1.
     999900   -1    0    0    0    0 -0.00000000000E+00 -0.00000000000E+00 -0.74505805969E-08  0.93827000000E+00  0.93827000000E+00 0. -1.
     999902    2    1    2    0    0  0.22424739211E-01 -0.19378526113E-02 -0.64494169484E-02  0.10205159192E+01  0.10202472848E+01 0.  0.
     999903    2    3    3    0    0  0.87034698936E-02 -0.10069100139E+00 -0.83256481750E-01  0.13156159931E+00  0.12743018040E-01 0.  0.
         14    1    1    2    0    0 -0.22424739211E-01  0.19378526113E-02  0.64494169484E-02  0.23414080815E-01  0.00000000000E+00 0. -1.
     999901    1    3    3    0    0  0.13721269318E-01  0.98753148783E-01  0.76807064802E-01  0.88895431988E+00  0.88000000000E+00 0.  1.
        -11    1    4    4    0    0 -0.20962466552E-02 -0.49198168965E-01 -0.39565950184E-01  0.63171034616E-01  0.51100000000E-03 0.  1.
         11    1    4    4    0    0  0.10799716549E-01 -0.51492832429E-01 -0.43690531566E-01  0.68390564691E-01  0.51100000000E-03 0. -1.
</event>
<event>
 8    1  0.1090774E+005  0.1043930E+01  0.7957747E-01            NaN
         13   -1    0    0    0    0  0.00000000000E+00  0.00000000000E+00  0.74505805969E-08  0.10566000000E+00  0.10566000000E+00 0.  1.
     999900   -1    0    0    0    0 -0.00000000000E+00 -0.00000000000E+00 -0.74505805969E-08  0.93827000000E+00  0.93827000000E+00 0.  1.
     999902    2    1    2    0    0 -0.21904114319E-01  0.12284598407E-01  0.14457775010E-01  0.10149519248E+01  0.10145381614E+01 0.  0.
     999903    2    3    3    0    0 -0.85873522195E-02 -0.10537161810E+00 -0.56574700668E-01  0.12418487670E+00  0.32315109870E-01 0.  0.
         14    1    1    2    0    0  0.21904114319E-01 -0.12284598407E-01 -0.14457775010E-01  0.28978075166E-01  0.00000000000E+00 0. -1.
     999901    1    3    3    0    0 -0.13316762099E-01  0.11765621651E+00  0.71032475678E-01  0.89076704813E+00  0.88000000000E+00 0.  1.
        -11    1    4    4    0    0 -0.10219064255E-01 -0.67579868652E-01 -0.19176192407E-01  0.70989121684E-01  0.51100000000E-03 0.  1.
         11    1    4    4    0    0  0.16317120358E-02 -0.37791749452E-01 -0.37398508261E-01  0.53195755018E-01  0.51100000000E-03 0. -1.
</event>
<event>
 8    1  0.1090774E+005  0.1043930E+01  0.7957747E-01            NaN
         13   -1    0    0    0    0  0.00000000000E+00  0.00000000000E+00  0.74505805969E-08  0.10566000000E+00  0.10566000000E+00 0.  1.
     999900   -1    0    0    0    0 -0.00000000000E+00 -0.00000000000E+00 -0.74505805969E-08  0.93827000000E+00  0.93827000000E+00 0. -1.
     999902    2    1    2    0    0  0.17597914625E-01  0.12819600305E-01 -0.12461709069E-01  0.10188436901E+01  0.10185348015E+01 0.  0.
     999903    2    3    3    0    0 -0.54757911288E-01  0.81219717740E-01 -0.83760288638E-01  0.13036328568E+00  0.19588999493E-01 0.  0.
         14    1    1    2    0    0 -0.17597914625E-01 -0.12819600305E-01  0.12461709069E-01  0.25086309893E-01  0.00000000000E+00 0.  1.
     999901    1    3    3    0    0  0.72355825913E-01 -0.68400117435E-01  0.71298579570E-01  0.88848040443E+00  0.88000000000E+00 0.  1.
        -11    1    4    4    0    0 -0.27912809793E-01  0.51899896294E-01 -0.39914440109E-01  0.71176877117E-01  0.51100000000E-03 0.  1.
         11    1    4    4    0    0 -0.26845101495E-01  0.29319821446E-01 -0.43845848530E-01  0.59186408559E-01  0.51100000000E-03 0. -1.
</event>
<event>
 8    1  0.1681267E+005  0.1043930E+01  0.7957747E-01            NaN
         13   -1    0    0    0    0  0.00000000000E+00  0.00000000000E+00  0.74505805969E-08  0.10566000000E+00  0.10566000000E+00 0.  1.
     999900   -1    0    0    0    0 -0.00000000000E+00 -0.00000000000E+00 -0.74505805969E-08  0.93827000000E+00  0.93827000000E+00 0.  1.
     999902    2    1    2    0    0 -0.23719675645E-01 -0.21057368590E-02  0.90532589586E-02  0.10184541558E+01  0.10181354766E+01 0.  0.
     999903    2    3    3    0    0 -0.92984112565E-01  0.84858958999E-01  0.32224135761E-01  0.13115639851E+00  0.17790948033E-01 0.  0.
         14    1    1    2    0    0  0.23719675645E-01  0.21057368590E-02 -0.90532589586E-02  0.25475844209E-01  0.00000000000E+00 0. -1.
     999901    1    3    3    0    0  0.69264436920E-01 -0.86964695858E-01 -0.23170876803E-01  0.88729775728E+00  0.88000000000E+00 0.  1.
        -11    1    4    4    0    0 -0.62470743883E-01  0.46002503769E-01  0.22736090254E-01  0.80845625208E-01  0.51100000000E-03 0.  1.
         11    1    4    4    0    0 -0.30513368683E-01  0.38856455230E-01  0.94880455070E-02  0.50310773299E-01  0.51100000000E-03 0. -1.
</event>
<event>
 8    1  0.1090774E+005  0.1043930E+01  0.7957747E-01            NaN
         13   -1    0    0    0    0  0.00000000000E+00  0.00000000000E+00  0.74505805969E-08  0.10566000000E+00  0.10566000000E+00 0. -1.
     999900   -1    0    0    0    0 -0.00000000000E+00 -0.00000000000E+00 -0.74505805969E-08  0.93827000000E+00  0.93827000000E+00 0. -1.
     999902    2    1    2    0    0 -0.20980488922E-01  0.10385621422E-01  0.38196358355E-02  0.10202101420E+01  0.10199343617E+01 0.  0.
     999903    2    3    3    0    0  0.47252836081E-01 -0.22706609435E-01 -0.11554357295E+00  0.12891980879E+00  0.22838108892E-01 0.  0.
         14    1    1    2    0    0  0.20980488922E-01 -0.10385621422E-01 -0.38196358355E-02  0.23719858044E-01  0.00000000000E+00 0. -1.
     999901    1    3    3    0    0 -0.68233325003E-01  0.33092230857E-01  0.11936320879E+00  0.89129033317E+00  0.88000000000E+00 0.  1.
        -11    1    4    4    0    0  0.14629319513E-01 -0.11007666914E-01 -0.65727354053E-01  0.68231458376E-01  0.51100000000E-03 0. -1.
         11    1    4    4    0    0  0.32623516569E-01 -0.11698942521E-01 -0.49816218900E-01  0.60688350414E-01  0.51100000000E-03 0.  1.
</event>
<event>
 8    1  0.1090774E+005  0.1043930E+01  0.7957747E-01            NaN
         13   -1    0    0    0    0  0.00000000000E+00  0.00000000000E+00  0.74505805969E-08  0.10566000000E+00  0.10566000000E+00 0.  1.
     999900   -1    0    0    0    0 -0.00000000000E+00 -0.00000000000E+00 -0.74505805969E-08  0.93827000000E+00  0.93827000000E+00 0. -1.
     999902    2    1    2    0    0  0.20161303601E-01  0.66982410050E-02 -0.11977795526E-01  0.10195412284E+01  0.10192494808E+01 0.  0.
     999903    2    3    3    0    0 -0.55438442705E-01 -0.96557869159E-01 -0.61730106801E-01  0.12889402639E+00  0.20154923182E-01 0.  0.
         14    1    1    2    0    0 -0.20161303601E-01 -0.66982410050E-02  0.11977795526E-01  0.24388771620E-01  0.00000000000E+00 0. -1.
     999901    1    3    3    0    0  0.75599746306E-01  0.10325611016E+00  0.49752311275E-01  0.89064720199E+00  0.88000000000E+00 0. -1.
        -11    1    4    4    0    0 -0.33188543141E-01 -0.37896449118E-01 -0.25973484637E-01  0.56678949150E-01  0.51100000000E-03 0. -1.
         11    1    4    4    0    0 -0.22249899564E-01 -0.58661420041E-01 -0.35756622163E-01  0.72215077244E-01  0.51100000000E-03 0.  1.
</event>
<event>
 8    1  0.1090774E+005  0.1043930E+01  0.7957747E-01            NaN
         13   -1    0    0    0    0  0.00000000000E+00  0.00000000000E+00  0.74505805969E-08  0.10566000000E+00  0.10566000000E+00 0.  1.
     999900   -1    0    0    0    0 -0.00000000000E+00 -0.00000000000E+00 -0.74505805969E-08  0.93827000000E+00  0.93827000000E+00 0. -1.
     999902    2    1    2    0    0  0.22889701276E-01  0.30976072482E-02 -0.34630058009E-03  0.10208290580E+01  0.10205676422E+01 0.  0.
     999903    2    3    3    0    0 -0.78993140633E-01 -0.72327372197E-01  0.69168521484E-01  0.12903235953E+00  0.19846924312E-01 0.  0.
         14    1    1    2    0    0 -0.22889701276E-01 -0.30976072482E-02  0.34630058009E-03  0.23100941956E-01  0.00000000000E+00 0. -1.
     999901    1    3    3    0    0  0.10188284191E+00  0.75424979445E-01 -0.69514822064E-01  0.89179669852E+00  0.88000000000E+00 0. -1.
        -11    1    4    4    0    0 -0.49517925771E-01 -0.48211527097E-01  0.33311305676E-01  0.76722099323E-01  0.51100000000E-03 0.  1.
         11    1    4    4    0    0 -0.29475214862E-01 -0.24115845100E-01  0.35857215807E-01  0.52310260203E-01  0.51100000000E-03 0. -1.
</event>
<event>
 8    1  0.1090774E+005  0.1043930E+01  0.7957747E-01            NaN
         13   -1    0    0    0    0  0.00000000000E+00  0.00000000000E+00  0.74505805969E-08  0.10566000000E+00  0.10566000000E+00 0.  1.
     999900   -1    0    0    0    0 -0.00000000000E+00 -0.00000000000E+00 -0.74505805969E-08  0.93827000000E+00  0.93827000000E+00 0.  1.
     999902    2    1    2    0    0 -0.46820936615E-02 -0.21251233825E-01 -0.70544612368E-02  0.10210541970E+01  0.10207979089E+01 0.  0.
     999903    2    3    3    0    0 -0.55616791591E-01  0.10351959339E+00  0.49813555887E-01  0.12898016746E+00  0.18573086075E-01 0.  0.
         14    1    1    2    0    0  0.46820936615E-02  0.21251233825E-01  0.70544612368E-02  0.22875803013E-01  0.00000000000E+00 0.  1.
     999901    1    3    3    0    0  0.50934697929E-01 -0.12477082722E+00 -0.56868017124E-01  0.89207402952E+00  0.88000000000E+00 0.  1.
        -11    1    4    4    0    0 -0.20638129449E-01  0.38560935880E-01  0.28420202684E-01  0.52161740814E-01  0.51100000000E-03 0.  1.
         11    1    4    4    0    0 -0.34978662141E-01  0.64958657511E-01  0.21393353203E-01  0.76818426651E-01  0.51100000000E-03 0. -1.
</event>
<event>
 8    1  0.1090774E+005  0.1043930E+01  0.7957747E-01            NaN
         13   -1    0    0    0    0  0.00000000000E+00  0.00000000000E+00  0.74505805969E-08  0.10566000000E+00  0.10566000000E+00 0.  1.
     999900   -1    0    0    0    0 -0.00000000000E+00 -0.00000000000E+00 -0.74505805969E-08  0.93827000000E+00  0.93827000000E+00 0.  1.
     999902    2    1    2    0    0 -0.18060531662E-02 -0.12571546707E-01  0.31174682547E-01  0.10102674623E+01  0.10097064815E+01 0.  0.
     999903    2    3    3    0    0 -0.39560274610E-01  0.83765059681E-01  0.78063508806E-01  0.12296554917E+00  0.21095362618E-01 0.  0.
         14    1    1    2    0    0  0.18060531662E-02  0.12571546707E-01 -0.31174682547E-01  0.33662537732E-01  0.00000000000E+00 0. -1.
     999901    1    3    3    0    0  0.37754221444E-01 -0.96336606387E-01 -0.46888826258E-01  0.88730191310E+00  0.88000000000E+00 0. -1.
        -11    1    4    4    0    0 -0.26841876681E-01  0.45906683325E-01  0.56436943743E-01  0.77545468325E-01  0.51100000000E-03 0. -1.
         11    1    4    4    0    0 -0.12718397929E-01  0.37858376355E-01  0.21626565062E-01  0.45420080840E-01  0.51100000000E-03 0.  1.
</event>
<event>
 8    1  0.1090774E+005  0.1043930E+01  0.7957747E-01            NaN
         13   -1    0    0    0    0  0.00000000000E+00  0.00000000000E+00  0.74505805969E-08  0.10566000000E+00  0.10566000000E+00 0. -1.
     999900   -1    0    0    0    0 -0.00000000000E+00 -0.00000000000E+00 -0.74505805969E-08  0.93827000000E+00  0.93827000000E+00 0. -1.
     999902    2    1    2    0    0  0.79972057284E-02 -0.73073967783E-02  0.21061001829E-01  0.10202462683E+01  0.10199713373E+01 0.  0.
     999903    2    3    3    0    0  0.18229105520E-01  0.10942293667E+00  0.67261678701E-01  0.13127767212E+00  0.20100109903E-01 0.  0.
         14    1    1    2    0    0 -0.79972057284E-02  0.73073967783E-02 -0.21061001829E-01  0.23683731656E-01  0.00000000000E+00 0.  1.
     999901    1    3    3    0    0 -0.10231899792E-01 -0.11673033345E+00 -0.46200676872E-01  0.88896859622E+00  0.88000000000E+00 0. -1.
        -11    1    4    4    0    0  0.19734065920E-01  0.58787733872E-01  0.34824372365E-01  0.71122633832E-01  0.51100000000E-03 0.  1.
         11    1    4    4    0    0 -0.15049603992E-02  0.50635202802E-01  0.32437306336E-01  0.60155038292E-01  0.51100000000E-03 0. -1.
</event>
<event>
 8    1  0.1090774E+005  0.1043930E+01  0.7957747E-01            NaN
         13   -1    0    0    0    0  0.00000000000E+00  0.00000000000E+00  0.74505805969E-08  0.10566000000E+00  0.10566000000E+00 0.  1.
     999900   -1    0    0    0    0 -0.00000000000E+00 -0.00000000000E+00 -0.74505805969E-08  0.93827000000E+00  0.93827000000E+00 0. -1.
     999902    2    1    2    0    0 -0.59226955235E-02 -0.11465845598E-01 -0.18627074562E-01  0.10212692003E+01  0.10210177607E+01 0.  0.
     999903    2    3    3    0    0  0.83835548093E-02  0.12176864533E+00 -0.42221159622E-01  0.13081269981E+00  0.20771353703E-01 0.  0.
         14    1    1    2    0    0  0.59226955235E-02  0.11465845598E-01  0.18627074562E-01  0.22660799727E-01  0.00000000000E+00 0.  1.
     999901    1    3    3    0    0 -0.14306250333E-01 -0.13323449093E+00  0.23594085060E-01  0.89045650047E+00  0.88000000000E+00 0. -1.
        -11    1    4    4    0    0  0.35159514568E-02  0.73762657895E-01 -0.14819219968E-01  0.75320395749E-01  0.51100000000E-03 0.  1.
         11    1    4    4    0    0  0.48676033525E-02  0.48005987434E-01 -0.27401939654E-01  0.55492304058E-01  0.51100000000E-03 0. -1.
</event>
<event>
 8    1  0.1090774E+005  0.1043930E+01  0.7957747E-01            NaN
         13   -1    0    0    0    0  0.00000000000E+00  0.00000000000E+00  0.74505805969E-08  0.10566000000E+00  0.10566000000E+00 0. -1.
     999900   -1    0    0    0    0 -0.00000000000E+00 -0.00000000000E+00 -0.74505805969E-08  0.93827000000E+00  0.93827000000E+00 0.  1.
     999902    2    1    2    0    0 -0.17645891092E-01 -0.40249671705E-02  0.15314186291E-01  0.10202213068E+01  0.10199457891E+01 0.  0.
     999903    2    3    3    0    0 -0.85962141576E-01 -0.61830183090E-01  0.78616282491E-01  0.13342047882E+00  0.20200073508E-01 0.  0.
         14    1    1    2    0    0  0.17645891092E-01  0.40249671705E-02 -0.15314186291E-01  0.23708693234E-01  0.00000000000E+00 0.  1.
     999901    1    3    3    0    0  0.68316250484E-01  0.57805215919E-01 -0.63302096200E-01  0.88680082795E+00  0.88000000000E+00 0. -1.
        -11    1    4    4    0    0 -0.31276946536E-02 -0.68414932539E-02  0.17343434356E-02  0.77367675383E-02  0.51100000000E-03 0. -1.
         11    1    4    4    0    0 -0.82834446922E-01 -0.54988689836E-01  0.76881939055E-01  0.12568371128E+00  0.51100000000E-03 0.  1.
</event>
<event>
 8    1  0.1090774E+005  0.1043930E+01  0.7957747E-01            NaN
         13   -1    0    0    0    0  0.00000000000E+00  0.00000000000E+00  0.74505805969E-08  0.10566000000E+00  0.10566000000E+00 0. -1.
     999900   -1    0    0    0    0 -0.00000000000E+00 -0.00000000000E+00 -0.74505805969E-08  0.93827000000E+00  0.93827000000E+00 0.  1.
     999902    2    1    2    0    0 -0.62671729107E-02 -0.12586807784E-02  0.20394160014E-01  0.10225575061E+01  0.10223341282E+01 0.  0.
     999903    2    3    3    0    0  0.20106967957E-01  0.12504607029E+00  0.35169013936E-01  0.13302572938E+00  0.20449334467E-01 0.  0.
         14    1    1    2    0    0  0.62671729107E-02  0.12586807784E-02 -0.20394160014E-01  0.21372493918E-01  0.00000000000E+00 0.  1.
     999901    1    3    3    0    0 -0.26374140867E-01 -0.12630475107E+00 -0.14774853922E-01  0.88953177670E+00  0.88000000000E+00 0.  1.
        -11    1    4    4    0    0  0.18670693107E-01  0.59288488304E-01  0.22042865763E-01  0.65953534238E-01  0.51100000000E-03 0. -1.
         11    1    4    4    0    0  0.14362748499E-02  0.65757581990E-01  0.13126148172E-01  0.67072195144E-01  0.51100000000E-03 0.  1.
</event>
<event>
 8    1  0.1090774E+005  0.1043930E+01  0.7957747E-01            NaN
         13   -1    0    0    0    0  0.00000000000E+00  0.00000000000E+00  0.74505805969E-08  0.10566000000E+00  0.10566000000E+00 0.  1.
     999900   -1    0    0    0    0 -0.00000000000E+00 -0.00000000000E+00 -0.74505805969E-08  0.93827000000E+00  0.93827000000E+00 0. -1.
     999902    2    1    2    0    0  0.10721817559E-02 -0.22640282094E-01  0.11297116050E-01  0.10186049772E+01  0.10182901074E+01 0.  0.
     999903    2    3    3    0    0 -0.40990221863E-01 -0.55342392205E-01 -0.10736850346E+00  0.12904317328E+00  0.19523482538E-01 0.  0.
         14    1    1    2    0    0 -0.10721817559E-02  0.22640282094E-01 -0.11297116050E-01  0.25325022765E-01  0.00000000000E+00 0. -1.
     999901    1    3    3    0    0  0.42062403619E-01  0.32702110110E-01  0.11866561951E+00  0.88956180396E+00  0.88000000000E+00 0.  1.
        -11    1    4    4    0    0 -0.26284982843E-01 -0.41923190366E-01 -0.89588629088E-01  0.10234665503E+00  0.51100000000E-03 0.  1.
         11    1    4    4    0    0 -0.14705239020E-01 -0.13419201839E-01 -0.17779874376E-01  0.26696518245E-01  0.51100000000E-03 0. -1.
</event>
<event>
 8    1  0.1090774E+005  0.1043930E+01  0.7957747E-01            NaN
         13   -1    0    0    0    0  0.00000000000E+00  0.00000000000E+00  0.74505805969E-08  0.10566000000E+00  0.10566000000E+00 0.  1.
     999900   -1    0    0    0    0 -0.00000000000E+00 -0.00000000000E+00 -0.74505805969E-08  0.93827000000E+00  0.93827000000E+00 0.  1.
     999902    2    1    2    0    0  0.19106392582E-01  0.10934072400E-01  0.85146545663E-02  0.10203268748E+01  0.10200538338E+01 0.  0.
     999903    2    3    3    0    0  0.12961518014E+00 -0.16959479451E-01  0.13399183775E-01  0.13296330727E+00  0.20297391156E-01 0.  0.
         14    1    1    2    0    0 -0.19106392582E-01 -0.10934072400E-01 -0.85146545663E-02  0.23603125198E-01  0.00000000000E+00 0. -1.
     999901    1    3    3    0    0 -0.11050878756E+00  0.27893551851E-01 -0.48845292088E-02  0.88736356753E+00  0.88000000000E+00 0.  1.
        -11    1    4    4    0    0  0.57331258027E-01 -0.17449902003E-01  0.39393959946E-02  0.60059571999E-01  0.51100000000E-03 0.  1.
         11    1    4    4    0    0  0.72283922112E-01  0.49042255202E-03  0.94597877805E-02  0.72903735268E-01  0.51100000000E-03 0. -1.
</event>
<event>
 8    1  0.1090774E+005  0.1043930E+01  0.7957747E-01            NaN
         13   -1    0    0    0    0  0.00000000000E+00  0.00000000000E+00  0.74505805969E-08  0.10566000000E+00  0.10566000000E+00 0.  1.
     999900   -1    0    0    0    0 -0.00000000000E+00 -0.00000000000E+00 -0.74505805969E-08  0.93827000000E+00  0.93827000000E+00 0. -1.
     999902    2    1    2    0    0  0.14114609068E-01 -0.17863778456E-01 -0.64338890658E-02  0.10202713505E+01  0.10199970083E+01 0.  0.
     999903    2    3    3    0    0  0.56648670052E-01 -0.10748674234E+00  0.47155985651E-01  0.13307729239E+00  0.26896229630E-01 0.  0.
         14    1    1    2    0    0 -0.14114609068E-01  0.17863778456E-01  0.64338890658E-02  0.23658649547E-01  0.00000000000E+00 0.  1.
     999901    1    3    3    0    0 -0.42534060984E-01  0.89622963884E-01 -0.53589874717E-01  0.88719405807E+00  0.88000000000E+00 0. -1.
        -11    1    4    4    0    0  0.15903224576E-01 -0.52146949399E-01  0.11761899657E-01  0.55774728041E-01  0.51100000000E-03 0. -1.
         11    1    4    4    0    0  0.40745445476E-01 -0.55339792941E-01  0.35394085994E-01  0.77302564344E-01  0.51100000000E-03 0.  1.
</event>
<event>
 8    1  0.1090774E+005  0.1043930E+01  0.7957747E-01            NaN
         13   -1    0    0    0    0  0.00000000000E+00  0.00000000000E+00  0.74505805969E-08  0.10566000000E+00  0.10566000000E+00 0.  1.
     999900   -1    0    0    0    0 -0.00000000000E+00 -0.00000000000E+00 -0.74505805969E-08  0.93827000000E+00  0.93827000000E+00 0.  1.
     999902    2    1    2    0    0  0.18549526387E-01  0.43872698577E-02 -0.15209348205E-01  0.10195444030E+01  0.10192527324E+01 0.  0.
     999903    2    3    3    0    0  0.75093636621E-01  0.34578632144E-01 -0.10214389849E+00  0.13294056209E+00  0.20126623892E-01 0.  0.
         14    1    1    2    0    0 -0.18549526387E-01 -0.43872698577E-02  0.15209348205E-01  0.24385596954E-01  0.00000000000E+00 0.  1.
     999901    1    3    3    0    0 -0.56544110233E-01 -0.30191362286E-01  0.86934550284E-01  0.88660384095E+00  0.88000000000E+00 0. -1.
        -11    1    4    4    0    0  0.87157061318E-02  0.76012871046E-02 -0.60150169721E-02  0.13045483862E-01  0.51100000000E-03 0. -1.
         11    1    4    4    0    0  0.66377930489E-01  0.26977345039E-01 -0.96128881517E-01  0.11989507823E+00  0.51100000000E-03 0.  1.
</event>
<event>
 8    1  0.1090774E+005  0.1043930E+01  0.7957747E-01            NaN
         13   -1    0    0    0    0  0.00000000000E+00  0.00000000000E+00  0.74505805969E-08  0.10566000000E+00  0.10566000000E+00 0.  1.
     999900   -1    0    0    0    0 -0.00000000000E+00 -0.00000000000E+00 -0.74505805969E-08  0.93827000000E+00  0.93827000000E+00 0.  1.
     999902    2    1    2    0    0 -0.21584859899E-01 -0.10191464999E-01 -0.42795245713E-02  0.10196795059E+01  0.10193910968E+01 0.  0.
     999903    2    3    3    0    0  0.22278361437E-02  0.94302792549E-01 -0.85843052197E-01  0.12943307739E+00  0.22043411179E-01 0.  0.
         14    1    1    2    0    0  0.21584859899E-01  0.10191464999E-01  0.42795245713E-02  0.24250494144E-01  0.00000000000E+00 0.  1.
     999901    1    3    3    0    0 -0.23812696042E-01 -0.10449425755E+00  0.81563527625E-01  0.89024642846E+00  0.88000000000E+00 0. -1.
        -11    1    4    4    0    0 -0.45335970200E-02  0.23112307147E-01 -0.32856554158E-01  0.40429525298E-01  0.51100000000E-03 0. -1.
         11    1    4    4    0    0  0.67614331637E-02  0.71190485402E-01 -0.52986498038E-01  0.89003552095E-01  0.51100000000E-03 0.  1.
</event>
<event>
 8    1  0.1090774E+005  0.1043930E+01  0.7957747E-01            NaN
         13   -1    0    0    0    0  0.00000000000E+00  0.00000000000E+00  0.74505805969E-08  0.10566000000E+00  0.10566000000E+00 0.  1.
     999900   -1    0    0    0    0 -0.00000000000E+00 -0.00000000000E+00 -0.74505805969E-08  0.93827000000E+00  0.93827000000E+00 0.  1.
     999902    2    1    2    0    0  0.19722254125E-02  0.65304172795E-02  0.22431719742E-01  0.10204839327E+01  0.10202145553E+01 0.  0.
     999903    2    3    3    0    0  0.28417339062E-01  0.10821571110E+00  0.68705613995E-01  0.13302660056E+00  0.21387607935E-01 0.  0.
         14    1    1    2    0    0 -0.19722254125E-02 -0.65304172795E-02 -0.22431719742E-01  0.23446067335E-01  0.00000000000E+00 0. -1.
     999901    1    3    3    0    0 -0.26445113650E-01 -0.10168529382E+00 -0.46273894254E-01  0.88745733210E+00  0.88000000000E+00 0.  1.
        -11    1    4    4    0    0  0.13240839062E-01  0.18334015883E-01  0.16284947647E-01  0.27873223680E-01  0.51100000000E-03 0. -1.
         11    1    4    4    0    0  0.15176500001E-01  0.89881695220E-01  0.52420666349E-01  0.10515337688E+00  0.51100000000E-03 0.  1.
</event>
<event>
 8    1  0.1090774E+005  0.1043930E+01  0.7957747E-01            NaN
         13   -1    0    0    0    0  0.00000000000E+00  0.00000000000E+00  0.74505805969E-08  0.10566000000E+00  0.10566000000E+00 0.  1.
     999900   -1    0    0    0    0 -0.00000000000E+00 -0.00000000000E+00 -0.74505805969E-08  0.93827000000E+00  0.93827000000E+00 0. -1.
     999902    2    1    2    0    0  0.14773865581E-01 -0.17088128173E-01  0.93856891255E-02  0.10194685530E+01  0.10191750430E+01 0.  0.
     999903    2    3    3    0    0 -0.59902098676E-01 -0.40841910958E-01  0.10679169957E+00  0.13063298176E+00  0.20104370430E-01 0.  0.
         14    1    1    2    0    0 -0.14773865581E-01  0.17088128173E-01 -0.93856891255E-02  0.24461446994E-01  0.00000000000E+00 0. -1.
     999901    1    3    3    0    0  0.74675964258E-01  0.23753782784E-01 -0.97406010447E-01  0.88883557124E+00  0.88000000000E+00 0. -1.
        -11    1    4    4    0    0 -0.43515659715E-01 -0.18028446965E-01  0.64875856882E-01  0.80173408731E-01  0.51100000000E-03 0.  1.
         11    1    4    4    0    0 -0.16386438962E-01 -0.22813463992E-01  0.41915842691E-01  0.50459573033E-01  0.51100000000E-03 0. -1.
</event>
<event>
 8    1  0.1090774E+005  0.1043930E+01  0.7957747E-01            NaN
         13   -1    0    0    0    0  0.00000000000E+00  0.00000000000E+00  0.74505805969E-08  0.10566000000E+00  0.10566000000E+00 0.  1.
     999900   -1    0    0    0    0 -0.00000000000E+00 -0.00000000000E+00 -0.74505805969E-08  0.93827000000E+00  0.93827000000E+00 0. -1.
     999902    2    1    2    0    0 -0.55161027762E-02 -0.16977218849E-01  0.15811360331E-01  0.10200835649E+01  0.10198047985E+01 0.  0.
     999903    2    3    3    0    0 -0.19320971320E-01 -0.12836354386E+00  0.20640584782E-01  0.13294163198E+00  0.19923464822E-01 0.  0.
         14    1    1    2    0    0  0.55161027762E-02  0.16977218849E-01 -0.15811360331E-01  0.23846435062E-01  0.00000000000E+00 0. -1.
     999901    1    3    3    0    0  0.13804868544E-01  0.11138632501E+00 -0.48292244510E-02  0.88714193295E+00  0.88000000000E+00 0. -1.
        -11    1    4    4    0    0 -0.28130231584E-02 -0.70260361787E-01  0.17456307647E-01  0.72452849050E-01  0.51100000000E-03 0.  1.
         11    1    4    4    0    0 -0.16507948161E-01 -0.58103182070E-01  0.31842771342E-02  0.60488782935E-01  0.51100000000E-03 0. -1.
</event>
<event>
 8    1  0.1090774E+005  0.1043930E+01  0.7957747E-01            NaN
         13   -1    0    0    0    0  0.00000000000E+00  0.00000000000E+00  0.74505805969E-08  0.10566000000E+00  0.10566000000E+00 0.  1.
     999900   -1    0    0    0    0 -0.00000000000E+00 -0.00000000000E+00 -0.74505805969E-08  0.93827000000E+00  0.93827000000E+00 0.  1.
     999902    2    1    2    0    0  0.85888211401E-02 -0.12172616240E-01 -0.18163228000E-01  0.10204386551E+01  0.10201682241E+01 0.  0.
     999903    2    3    3    0    0 -0.76371275664E-01 -0.92071387224E-01  0.47967270862E-01  0.13028401990E+00  0.19061864434E-01 0.  0.
         14    1    1    2    0    0 -0.85888211401E-02  0.12172616240E-01  0.18163228000E-01  0.23491344919E-01  0.00000000000E+00 0.  1.
     999901    1    3    3    0    0  0.84960096804E-01  0.79898770983E-01 -0.66130498862E-01  0.89015463518E+00  0.88000000000E+00 0.  1.
        -11    1    4    4    0    0 -0.96236163839E-02 -0.22109273863E-01  0.13425470132E-01  0.27603230831E-01  0.51100000000E-03 0. -1.
         11    1    4    4    0    0 -0.66747659280E-01 -0.69962113361E-01  0.34541800729E-01  0.10268078907E+00  0.51100000000E-03 0.  1.
</event>
<event>
 8    1  0.1090774E+005  0.1043930E+01  0.7957747E-01            NaN
         13   -1    0    0    0    0  0.00000000000E+00  0.00000000000E+00  0.74505805969E-08  0.10566000000E+00  0.10566000000E+00 0.  1.
     999900   -1    0    0    0    0 -0.00000000000E+00 -0.00000000000E+00 -0.74505805969E-08  0.93827000000E+00  0.93827000000E+00 0. -1.
     999902    2    1    2    0    0  0.10074872867E-01 -0.21127582560E-01  0.10896611397E-02  0.10204978603E+01  0.10202288066E+01 0.  0.
     999903    2    3    3    0    0  0.44880631446E-01 -0.62168242322E-01  0.10641000165E+00  0.13258561764E+00  0.19408661006E-01 0.  0.
         14    1    1    2    0    0 -0.10074872867E-01  0.21127582560E-01 -0.10896611397E-02  0.23432139670E-01  0.00000000000E+00 0. -1.
     999901    1    3    3    0    0 -0.34805758579E-01  0.41040659762E-01 -0.10532034051E+00  0.88791224268E+00  0.88000000000E+00 0. -1.
        -11    1    4    4    0    0  0.21063779713E-01 -0.14568459301E-01  0.39621608100E-01  0.47181095490E-01  0.51100000000E-03 0.  1.
         11    1    4    4    0    0  0.23816851733E-01 -0.47599783021E-01  0.66788393553E-01  0.85404522155E-01  0.51100000000E-03 0. -1.
</event>
<event>
 8    1  0.1090774E+005  0.1043930E+01  0.7957747E-01            NaN
         13   -1    0    0    0    0  0.00000000000E+00  0.00000000000E+00  0.74505805969E-08  0.10566000000E+00  0.10566000000E+00 0.  1.
     999900   -1    0    0    0    0 -0.00000000000E+00 -0.00000000000E+00 -0.74505805969E-08  0.93827000000E+00  0.93827000000E+00 0. -1.
     999902    2    1    2    0    0  0.16219618190E-01  0.13897762365E-01 -0.82249093645E-02  0.10210417291E+01  0.10207851584E+01 0.  0.
     999903    2    3    3    0    0 -0.21575625890E-02  0.24197103052E-01 -0.12867332181E+00  0.13258710598E+00  0.20793317514E-01 0.  0.
         14    1    1    2    0    0 -0.16219618190E-01 -0.13897762365E-01  0.82249093645E-02  0.22888270949E-01  0.00000000000E+00 0.  1.
     999901    1    3    3    0    0  0.18377180779E-01 -0.10299340687E-01  0.12044841245E+00  0.88845462307E+00  0.88000000000E+00 0.  1.
        -11    1    4    4    0    0  0.25530684939E-02  0.56966327969E-02 -0.80840230200E-01  0.81082511824E-01  0.51100000000E-03 0. -1.
         11    1    4    4    0    0 -0.47106310829E-02  0.18500470255E-01 -0.47833091615E-01  0.51504594157E-01  0.51100000000E-03 0.  1.
</event>
<event>
 8    1  0.1090774E+005  0.1043930E+01  0.7957747E-01            NaN
         13   -1    0    0    0    0  0.00000000000E+00  0.00000000000E+00  0.74505805969E-08  0.10566000000E+00  0.10566000000E+00 0.  1.
     999900   -1    0    0    0    0 -0.00000000000E+00 -0.00000000000E+00 -0.74505805969E-08  0.93827000000E+00  0.93827000000E+00 0.  1.
     999902    2    1    2    0    0 -0.92213327812E-02  0.22862072461E-01 -0.12121199695E-01  0.10164594555E+01  0.10160881821E+01 0.  0.
     999903    2    3    3    0    0 -0.33127226369E-01 -0.22565384981E-01 -0.12027075557E+00  0.12835390313E+00  0.20076356148E-01 0.  0.
         14    1    1    2    0    0  0.92213327812E-02 -0.22862072461E-01  0.12121199695E-01  0.27470544543E-01  0.00000000000E+00 0.  1.
     999901    1    3    3    0    0  0.23905893587E-01  0.45427457442E-01  0.10814955588E+00  0.88810555233E+00  0.88000000000E+00 0. -1.
        -11    1    4    4    0    0 -0.25696826766E-01 -0.20762824212E-01 -0.11321344099E+00  0.11793627991E+00  0.51100000000E-03 0. -1.
         11    1    4    4    0    0 -0.74303996022E-02 -0.18025607697E-02 -0.70573145786E-02  0.10417623224E-01  0.51100000000E-03 0.  1.
</event>
<event>
 8    1  0.1090774E+005  0.1043930E+01  0.7957747E-01            NaN
         13   -1    0    0    0    0  0.00000000000E+00  0.00000000000E+00  0.74505805969E-08  0.10566000000E+00  0.10566000000E+00 0.  1.
     999900   -1    0    0    0    0 -0.00000000000E+00 -0.00000000000E+00 -0.74505805969E-08  0.93827000000E+00  0.93827000000E+00 0.  1.
     999902    2    1    2    0    0  0.17624473374E-01  0.10165693507E-01  0.12080241262E-01  0.10202678865E+01  0.10199934630E+01 0.  0.
     999903    2    3    3    0    0  0.57874163518E-01  0.78880272260E-01 -0.85308512326E-01  0.13132115007E+00  0.19904422265E-01 0.  0.
         14    1    1    2    0    0 -0.17624473374E-01 -0.10165693507E-01 -0.12080241262E-01  0.23662113497E-01  0.00000000000E+00 0. -1.
     999901    1    3    3    0    0 -0.40249690144E-01 -0.68714578754E-01  0.97388753588E-01  0.88894673643E+00  0.88000000000E+00 0.  1.
        -11    1    4    4    0    0  0.45592059169E-01  0.46257474397E-01 -0.54098088739E-01  0.84529605010E-01  0.51100000000E-03 0. -1.
         11    1    4    4    0    0  0.12282104348E-01  0.32622797863E-01 -0.31210423587E-01  0.46791545060E-01  0.51100000000E-03 0.  1.
</event>
<event>
 8    1  0.1090774E+005  0.1043930E+01  0.7957747E-01            NaN
         13   -1    0    0    0    0  0.00000000000E+00  0.00000000000E+00  0.74505805969E-08  0.10566000000E+00  0.10566000000E+00 0. -1.
     999900   -1    0    0    0    0 -0.00000000000E+00 -0.00000000000E+00 -0.74505805969E-08  0.93827000000E+00  0.93827000000E+00 0.  1.
     999902    2    1    2    0    0  0.20852067690E-01 -0.44747053710E-02 -0.58946601386E-02  0.10218035739E+01  0.10215639798E+01 0.  0.
     999903    2    3    3    0    0  0.12063438466E+00 -0.53330929349E-01 -0.18489441327E-01  0.13472856582E+00  0.20324473376E-01 0.  0.
         14    1    1    2    0    0 -0.20852067690E-01  0.44747053710E-02  0.58946601386E-02  0.22126426129E-01  0.00000000000E+00 0. -1.
     999901    1    3    3    0    0 -0.99782316974E-01  0.48856223978E-01  0.12594781188E-01  0.88707500805E+00  0.88000000000E+00 0. -1.
        -11    1    4    4    0    0  0.99929542094E-01 -0.36574959733E-01 -0.10578503912E-01  0.10693833236E+00  0.51100000000E-03 0.  1.
         11    1    4    4    0    0  0.20704842569E-01 -0.16755969616E-01 -0.79109374151E-02  0.27790233453E-01  0.51100000000E-03 0. -1.
</event>
<event>
 8    1  0.1090774E+005  0.1043930E+01  0.7957747E-01            NaN
         13   -1    0    0    0    0  0.00000000000E+00  0.00000000000E+00  0.74505805969E-08  0.10566000000E+00  0.10566000000E+00 0. -1.
     999900   -1    0    0    0    0 -0.00000000000E+00 -0.00000000000E+00 -0.74505805969E-08  0.93827000000E+00  0.93827000000E+00 0. -1.
     999902    2    1    2    0    0  0.22276756256E-01 -0.65480154333E-03  0.70589964776E-03  0.10216324457E+01  0.10213890900E+01 0.  0.
     999903    2    3    3    0    0  0.66372161279E-01  0.10878775543E+00 -0.31498778788E-01  0.13317354436E+00  0.22427222950E-01 0.  0.
         14    1    1    2    0    0 -0.22276756256E-01  0.65480154333E-03 -0.70589964776E-03  0.22297554320E-01  0.00000000000E+00 0.  1.
     999901    1    3    3    0    0 -0.44095405023E-01 -0.10944255697E+00  0.32204678435E-01  0.88845890132E+00  0.88000000000E+00 0.  1.
        -11    1    4    4    0    0  0.55890155561E-01  0.84875525195E-01 -0.16201861700E-01  0.10290930818E+00  0.51100000000E-03 0. -1.
         11    1    4    4    0    0  0.10482005717E-01  0.23912230230E-01 -0.15296917087E-01  0.30264236184E-01  0.51100000000E-03 0.  1.
</event>
<event>
 8    1  0.1090774E+005  0.1043930E+01  0.7957747E-01            NaN
         13   -1    0    0    0    0  0.00000000000E+00  0.00000000000E+00  0.74505805969E-08  0.10566000000E+00  0.10566000000E+00 0. -1.
     999900   -1    0    0    0    0 -0.00000000000E+00 -0.00000000000E+00 -0.74505805969E-08  0.93827000000E+00  0.93827000000E+00 0. -1.
     999902    2    1    2    0    0  0.20324211544E-01  0.90549772100E-02 -0.11448750337E-01  0.10189072090E+01  0.10185999020E+01 0.  0.
     999903    2    3    3    0    0 -0.21355170754E-01 -0.11829632299E+00 -0.39921339538E-01  0.12830841438E+00  0.20476144622E-01 0.  0.
         14    1    1    2    0    0 -0.20324211544E-01 -0.90549772100E-02  0.11448750337E-01  0.25022791040E-01  0.00000000000E+00 0. -1.
     999901    1    3    3    0    0  0.41679382298E-01  0.12735130020E+00  0.28472589202E-01  0.89059879458E+00  0.88000000000E+00 0.  1.
        -11    1    4    4    0    0 -0.50575377034E-02 -0.79629302388E-01 -0.29493243488E-01  0.85067720193E-01  0.51100000000E-03 0.  1.
         11    1    4    4    0    0 -0.16297633051E-01 -0.38667020605E-01 -0.10428096050E-01  0.43240694187E-01  0.51100000000E-03 0. -1.
</event>
<event>
 8    1  0.1090774E+005  0.1043930E+01  0.7957747E-01            NaN
         13   -1    0    0    0    0  0.00000000000E+00  0.00000000000E+00  0.74505805969E-08  0.10566000000E+00  0.10566000000E+00 0.  1.
     999900   -1    0    0    0    0 -0.00000000000E+00 -0.00000000000E+00 -0.74505805969E-08  0.93827000000E+00  0.93827000000E+00 0.  1.
     999902    2    1    2    0    0  0.15852218491E-01 -0.61746817322E-02 -0.16414240531E-01  0.10202900588E+01  0.10200161554E+01 0.  0.
     999903    2    3    3    0    0  0.80884895164E-01  0.37943610230E-01  0.92423673870E-01  0.13010953539E+00  0.20106513515E-01 0.  0.
         14    1    1    2    0    0 -0.15852218491E-01  0.61746817322E-02  0.16414240531E-01  0.23639941154E-01  0.00000000000E+00 0.  1.
     999901    1    3    3    0    0 -0.65032676674E-01 -0.44118291962E-01 -0.10883791440E+00  0.89018052345E+00  0.88000000000E+00 0.  1.
        -11    1    4    4    0    0  0.39760915645E-01  0.77380230894E-02  0.42799830566E-01  0.58931265316E-01  0.51100000000E-03 0.  1.
         11    1    4    4    0    0  0.41123979519E-01  0.30205587140E-01  0.49623843305E-01  0.71178270078E-01  0.51100000000E-03 0. -1.
</event>
<event>
 8    1  0.1090774E+005  0.1043930E+01  0.7957747E-01            NaN
         13   -1    0    0    0    0  0.00000000000E+00  0.00000000000E+00  0.74505805969E-08  0.10566000000E+00  0.10566000000E+00 0.  1.
     999900   -1    0    0    0    0 -0.00000000000E+00 -0.00000000000E+00 -0.74505805969E-08  0.93827000000E+00  0.93827000000E+00 0. -1.
     999902    2    1    2    0    0  0.14082377223E-01 -0.17914958575E-01  0.61793445575E-02  0.10203197609E+01  0.10200465534E+01 0.  0.
     999903    2    3    3    0    0  0.56397256706E-01 -0.90440735512E-01  0.77518968605E-01  0.13344892520E+00  0.20958242736E-01 0.  0.
         14    1    1    2    0    0 -0.14082377223E-01  0.17914958575E-01 -0.61793445575E-02  0.23610239053E-01  0.00000000000E+00 0. -1.
     999901    1    3    3    0    0 -0.42314879483E-01  0.72525776937E-01 -0.71339624048E-01  0.88687083575E+00  0.88000000000E+00 0. -1.
        -11    1    4    4    0    0  0.50044141050E-01 -0.79659478370E-01  0.58845808730E-01  0.11096458387E+00  0.51100000000E-03 0.  1.
         11    1    4    4    0    0  0.63531156558E-02 -0.10781257141E-01  0.18673159875E-01  0.22484341325E-01  0.51100000000E-03 0. -1.
</event>
<event>
 8    1  0.1090774E+005  0.1043930E+01  0.7957747E-01            NaN
         13   -1    0    0    0    0  0.00000000000E+00  0.00000000000E+00  0.74505805969E-08  0.10566000000E+00  0.10566000000E+00 0. -1.
     999900   -1    0    0    0    0 -0.00000000000E+00 -0.00000000000E+00 -0.74505805969E-08  0.93827000000E+00  0.93827000000E+00 0.  1.
     999902    2    1    2    0    0 -0.10279880028E-01 -0.74403376705E-02  0.19815162906E-01  0.10203996953E+01  0.10201283561E+01 0.  0.
     999903    2    3    3    0    0 -0.16813207852E-01 -0.35741861600E-01  0.12591404837E+00  0.13355098548E+00  0.20526897382E-01 0.  0.
         14    1    1    2    0    0  0.10279880028E-01  0.74403376705E-02 -0.19815162906E-01  0.23530304695E-01  0.00000000000E+00 0.  1.
     999901    1    3    3    0    0  0.65333278234E-02  0.28301523930E-01 -0.10609888546E+00  0.88684870983E+00  0.88000000000E+00 0.  1.
        -11    1    4    4    0    0 -0.87013511362E-03 -0.58109035106E-02  0.43075060196E-02  0.73033871480E-02  0.51100000000E-03 0.  1.
         11    1    4    4    0    0 -0.15943072738E-01 -0.29930958090E-01  0.12160654235E+00  0.12624759833E+00  0.51100000000E-03 0. -1.
</event>
<event>
 8    1  0.1090774E+005  0.1043930E+01  0.7957747E-01            NaN
         13   -1    0    0    0    0  0.00000000000E+00  0.00000000000E+00  0.74505805969E-08  0.10566000000E+00  0.10566000000E+00 0.  1.
     999900   -1    0    0    0    0 -0.00000000000E+00 -0.00000000000E+00 -0.74505805969E-08  0.93827000000E+00  0.93827000000E+00 0.  1.
     999902    2    1    2    0    0 -0.89288458127E-02 -0.94217526567E-02 -0.20427027139E-01  0.10197275797E+01  0.10194403267E+01 0.  0.
     999903    2    3    3    0    0 -0.99301494126E-02  0.10351878037E+00 -0.76516597248E-01  0.13073792482E+00  0.20563792791E-01 0.  0.
         14    1    1    2    0    0  0.89288458127E-02  0.94217526567E-02  0.20427027139E-01  0.24202420301E-01  0.00000000000E+00 0.  1.
     999901    1    3    3    0    0  0.10013035999E-02 -0.11294053303E+00  0.56089570108E-01  0.88898965488E+00  0.88000000000E+00 0.  1.
        -11    1    4    4    0    0  0.61106869309E-02  0.30196933414E-01 -0.25326096864E-01  0.39885681463E-01  0.51100000000E-03 0.  1.
         11    1    4    4    0    0 -0.16040836344E-01  0.73321846959E-01 -0.51190500384E-01  0.90852243356E-01  0.51100000000E-03 0. -1.
</event>
<event>
 8    1  0.1090774E+005  0.1043930E+01  0.7957747E-01            NaN
         13   -1    0    0    0    0  0.00000000000E+00  0.00000000000E+00  0.74505805969E-08  0.10566000000E+00  0.10566000000E+00 0.  1.
     999900   -1    0    0    0    0 -0.00000000000E+00 -0.00000000000E+00 -0.74505805969E-08  0.93827000000E+00  0.93827000000E+00 0. -1.
     999902    2    1    2    0    0  0.45453800190E-02  0.48413791472E-03  0.14063886598E-01  0.10291419043E+01  0.10290356512E+01 0.  0.
     999903    2    3    3    0    0  0.19039243778E-02 -0.10959473561E-01  0.13843455150E+00  0.14031908963E+00  0.20039632698E-01 0.  0.
         14    1    1    2    0    0 -0.45453800190E-02 -0.48413791472E-03 -0.14063886598E-01  0.14788095728E-01  0.00000000000E+00 0. -1.
     999901    1    3    3    0    0  0.26414556412E-02  0.11443611476E-01 -0.12437066490E+00  0.88882281464E+00  0.88000000000E+00 0. -1.
        -11    1    4    4    0    0 -0.19934527017E-02 -0.12444232791E-01  0.43504319127E-01  0.45295912477E-01  0.51100000000E-03 0. -1.
         11    1    4    4    0    0  0.38973770795E-02  0.14847592304E-02  0.94930232371E-01  0.95023177157E-01  0.51100000000E-03 0.  1.
</event>
<event>
 8    1  0.1090774E+005  0.1043930E+01  0.7957747E-01            NaN
         13   -1    0    0    0    0  0.00000000000E+00  0.00000000000E+00  0.74505805969E-08  0.10566000000E+00  0.10566000000E+00 0.  1.
     999900   -1    0    0    0    0 -0.00000000000E+00 -0.00000000000E+00 -0.74505805969E-08  0.93827000000E+00  0.93827000000E+00 0.  1.
     999902    2    1    2    0    0  0.25741021246E-03  0.24944313709E-01 -0.10324929530E-02  0.10189630000E+01  0.10186570789E+01 0.  0.
     999903    2    3    3    0    0 -0.63694576115E-01 -0.11408516156E-01 -0.10990035618E+00  0.12920820434E+00  0.20724828418E-01 0.  0.
         14    1    1    2    0    0 -0.25741021246E-03 -0.24944313709E-01  0.10324929530E-02  0.24966999983E-01  0.00000000000E+00 0. -1.
     999901    1    3    3    0    0  0.63951986327E-01  0.36352829865E-01  0.10886786322E+00  0.88975479568E+00  0.88000000000E+00 0. -1.
        -11    1    4    4    0    0 -0.45287369130E-02 -0.71712089409E-02 -0.16574209299E-01  0.18625284711E-01  0.51100000000E-03 0.  1.
         11    1    4    4    0    0 -0.59165839202E-01 -0.42373072146E-02 -0.93326146877E-01  0.11058291962E+00  0.51100000000E-03 0. -1.
</event>
<event>
 8    1  0.1090774E+005  0.1043930E+01  0.7957747E-01            NaN
         13   -1    0    0    0    0  0.00000000000E+00  0.00000000000E+00  0.74505805969E-08  0.10566000000E+00  0.10566000000E+00 0. -1.
     999900   -1    0    0    0    0 -0.00000000000E+00 -0.00000000000E+00 -0.74505805969E-08  0.93827000000E+00  0.93827000000E+00 0.  1.
     999902    2    1    2    0    0  0.87139762661E-02 -0.15717334823E-01 -0.20649715686E-01  0.10165552168E+01  0.10161865626E+01 0.  0.
     999903    2    3    3    0    0  0.12295095722E+00 -0.43783307348E-02  0.28378676895E-01  0.12774565110E+00  0.19429215436E-01 0.  0.
         14    1    1    2    0    0 -0.87139762661E-02  0.15717334823E-01  0.20649715686E-01  0.27374783181E-01  0.00000000000E+00 0. -1.
     999901    1    3    3    0    0 -0.11423698095E+00 -0.11339004089E-01 -0.49028392581E-01  0.88880956572E+00  0.88000000000E+00 0. -1.
        -11    1    4    4    0    0  0.99756271822E-01 -0.10020326018E-01  0.18734149891E-01  0.10199485376E+00  0.51100000000E-03 0.  1.
         11    1    4    4    0    0  0.23194685395E-01  0.56419952832E-02  0.96445270046E-02  0.25750797337E-01  0.51100000000E-03 0. -1.
</event>
<event>
 8    1  0.1107886E+005  0.1043930E+01  0.7957747E-01            NaN
         13   -1    0    0    0    0  0.00000000000E+00  0.00000000000E+00  0.74505805969E-08  0.10566000000E+00  0.10566000000E+00 0. -1.
     999900   -1    0    0    0    0 -0.00000000000E+00 -0.00000000000E+00 -0.74505805969E-08  0.93827000000E+00  0.93827000000E+00 0.  1.
     999902    2    1    2    0    0  0.20431077231E-01 -0.38113865951E-03 -0.10205631069E-01  0.10210886102E+01  0.10208331013E+01 0.  0.
     999903    2    3    3    0    0  0.13213066744E+00 -0.97617741089E-02  0.49334215761E-02  0.13384907900E+00  0.18369316514E-01 0.  0.
         14    1    1    2    0    0 -0.20431077231E-01  0.38113865951E-03  0.10205631069E-01  0.22841389822E-01  0.00000000000E+00 0. -1.
     999901    1    3    3    0    0 -0.11169959021E+00  0.93806354494E-02 -0.15139052645E-01  0.88723953118E+00  0.88000000000E+00 0. -1.
        -11    1    4    4    0    0  0.64559313392E-01 -0.13797655958E-01  0.69671989115E-03  0.66022926285E-01  0.51100000000E-03 0.  1.
         11    1    4    4    0    0  0.67571354045E-01  0.40358818495E-02  0.42367016849E-02  0.67826152713E-01  0.51100000000E-03 0. -1.
</event>
<event>
 8    1  0.1090774E+005  0.1043930E+01  0.7957747E-01            NaN
         13   -1    0    0    0    0  0.00000000000E+00  0.00000000000E+00  0.74505805969E-08  0.10566000000E+00  0.10566000000E+00 0. -1.
     999900   -1    0    0    0    0 -0.00000000000E+00 -0.00000000000E+00 -0.74505805969E-08  0.93827000000E+00  0.93827000000E+00 0.  1.
     999902    2    1    2    0    0 -0.53084598641E-02 -0.83532850786E-02  0.22872979473E-01  0.10190075140E+01  0.10187026962E+01 0.  0.
     999903    2    3    3    0    0  0.11609437895E+00 -0.52722961988E-01  0.10651762832E-01  0.12948141792E+00  0.19858549528E-01 0.  0.
         14    1    1    2    0    0  0.53084598641E-02  0.83532850786E-02 -0.22872979473E-01  0.24922485986E-01  0.00000000000E+00 0.  1.
     999901    1    3    3    0    0 -0.12140283882E+00  0.44369676910E-01  0.12221216641E-01  0.88952609610E+00  0.88000000000E+00 0.  1.
        -11    1    4    4    0    0  0.84660514501E-02 -0.44626046074E-03  0.46375054919E-02  0.96768152686E-02  0.51100000000E-03 0.  1.
         11    1    4    4    0    0  0.10762832750E+00 -0.52276701528E-01  0.60142573402E-02  0.11980460265E+00  0.51100000000E-03 0. -1.
</event>
<event>
 8    1  0.1090774E+005  0.1043930E+01  0.7957747E-01            NaN
         13   -1    0    0    0    0  0.00000000000E+00  0.00000000000E+00  0.74505805969E-08  0.10566000000E+00  0.10566000000E+00 0. -1.
     999900   -1    0    0    0    0 -0.00000000000E+00 -0.00000000000E+00 -0.74505805969E-08  0.93827000000E+00  0.93827000000E+00 0. -1.
     999902    2    1    2    0    0 -0.19385836165E-01 -0.12725535835E-01  0.28257260553E-02  0.10205690361E+01  0.10203016333E+01 0.  0.
     999903    2    3    3    0    0 -0.51617841814E-01  0.10987723771E+00 -0.43011776991E-01  0.13030423339E+00  0.19793213975E-01 0.  0.
         14    1    1    2    0    0  0.19385836165E-01  0.12725535835E-01 -0.28257260553E-02  0.23360963889E-01  0.00000000000E+00 0.  1.
     999901    1    3    3    0    0  0.32232005649E-01 -0.12260277355E+00  0.45837503046E-01  0.89026480272E+00  0.88000000000E+00 0.  1.
        -11    1    4    4    0    0 -0.77047591686E-02  0.34017257791E-01 -0.72104288519E-02  0.35620058207E-01  0.51100000000E-03 0.  1.
         11    1    4    4    0    0 -0.43913082645E-01  0.75859979923E-01 -0.35801348139E-01  0.94684175187E-01  0.51100000000E-03 0. -1.
</event>
<event>
 8    1  0.1090774E+005  0.1043930E+01  0.7957747E-01            NaN
         13   -1    0    0    0    0  0.00000000000E+00  0.00000000000E+00  0.74505805969E-08  0.10566000000E+00  0.10566000000E+00 0. -1.
     999900   -1    0    0    0    0 -0.00000000000E+00 -0.00000000000E+00 -0.74505805969E-08  0.93827000000E+00  0.93827000000E+00 0. -1.
     999902    2    1    2    0    0 -0.91941441463E-02 -0.14156976298E-01 -0.10812930471E-01  0.10238832614E+01  0.10236869938E+01 0.  0.
     999903    2    3    3    0    0 -0.50397232788E-03  0.92291570883E-01 -0.94009747682E-01  0.13353022876E+00  0.21783050484E-01 0.  0.
         14    1    1    2    0    0  0.91941441463E-02  0.14156976298E-01  0.10812930471E-01  0.20046738634E-01  0.00000000000E+00 0. -1.
     999901    1    3    3    0    0 -0.86901718184E-02 -0.10644854718E+00  0.83196817211E-01  0.89035303261E+00  0.88000000000E+00 0.  1.
        -11    1    4    4    0    0  0.77710715800E-02  0.49189365979E-01 -0.60175058605E-01  0.78110703992E-01  0.51100000000E-03 0. -1.
         11    1    4    4    0    0 -0.82750439079E-02  0.43102204903E-01 -0.33834689077E-01  0.55419524765E-01  0.51100000000E-03 0.  1.
</event>
<event>
 8    1  0.1090774E+005  0.1043930E+01  0.7957747E-01            NaN
         13   -1    0    0    0    0  0.00000000000E+00  0.00000000000E+00  0.74505805969E-08  0.10566000000E+00  0.10566000000E+00 0. -1.
     999900   -1    0    0    0    0 -0.00000000000E+00 -0.00000000000E+00 -0.74505805969E-08  0.93827000000E+00  0.93827000000E+00 0. -1.
     999902    2    1    2    0    0  0.86368053438E-02  0.17804035421E-02 -0.22232127256E-01  0.10200128153E+01  0.10197323725E+01 0.  0.
     999903    2    3    3    0    0 -0.81903244621E-01 -0.98153078688E-01 -0.47344214639E-02  0.12956889720E+00  0.20579505307E-01 0.  0.
         14    1    1    2    0    0 -0.86368053438E-02 -0.17804035421E-02  0.22232127256E-01  0.23917184735E-01  0.00000000000E+00 0. -1.
     999901    1    3    3    0    0  0.90540049965E-01  0.99933482230E-01 -0.17497705792E-01  0.89044391807E+00  0.88000000000E+00 0.  1.
        -11    1    4    4    0    0 -0.31688186008E-01 -0.42024026965E-01  0.78283542896E-02  0.53213759750E-01  0.51100000000E-03 0.  1.
         11    1    4    4    0    0 -0.50215058613E-01 -0.56129051722E-01 -0.12562775753E-01  0.76355137446E-01  0.51100000000E-03 0. -1.
</event>
<event>
 8    1  0.1090774E+005  0.1043930E+01  0.7957747E-01            NaN
         13   -1    0    0    0    0  0.00000000000E+00  0.00000000000E+00  0.74505805969E-08  0.10566000000E+00  0.10566000000E+00 0.  1.
     999900   -1    0    0    0    0 -0.00000000000E+00 -0.00000000000E+00 -0.74505805969E-08  0.93827000000E+00  0.93827000000E+00 0. -1.
     999902    2    1    2    0    0  0.37058377091E-02  0.28045311881E-01  0.29423502217E-02  0.10154883022E+01  0.10150899279E+01 0.  0.
     999903    2    3    3    0    0  0.92982475681E-01 -0.12886423809E-01 -0.81970863263E-01  0.12596259769E+00  0.18318102814E-01 0.  0.
         14    1    1    2    0    0 -0.37058377091E-02 -0.28045311881E-01 -0.29423502217E-02  0.28441697847E-01  0.00000000000E+00 0. -1.
     999901    1    3    3    0    0 -0.89276637971E-01  0.40931735689E-01  0.84913213485E-01  0.88952570446E+00  0.88000000000E+00 0. -1.
        -11    1    4    4    0    0  0.41972129264E-01  0.28537253640E-02 -0.32272892048E-01  0.53024560965E-01  0.51100000000E-03 0.  1.
         11    1    4    4    0    0  0.51010346417E-01 -0.15740149173E-01 -0.49697971215E-01  0.72938036726E-01  0.51100000000E-03 0. -1.
</event>
<event>
 8    1  0.1090774E+005  0.1043930E+01  0.7957747E-01            NaN
         13   -1    0    0    0    0  0.00000000000E+00  0.00000000000E+00  0.74505805969E-08  0.10566000000E+00  0.10566000000E+00 0.  1.
     999900   -1    0    0    0    0 -0.00000000000E+00 -0.00000000000E+00 -0.74505805969E-08  0.93827000000E+00  0.93827000000E+00 0. -1.
     999902    2    1    2    0    0  0.33406347076E-02  0.71214875728E-02 -0.22902222949E-01  0.10197145660E+01  0.10194270003E+01 0.  0.
     999903    2    3    3    0    0 -0.11248586540E-01  0.93417297252E-01  0.85167391013E-01  0.12879433752E+00  0.21935696005E-01 0.  0.
         14    1    1    2    0    0 -0.33406347076E-02 -0.71214875728E-02  0.22902222949E-01  0.24215433953E-01  0.00000000000E+00 0.  1.
     999901    1    3    3    0    0  0.14589221248E-01 -0.86295809679E-01 -0.10806961396E+00  0.89092022853E+00  0.88000000000E+00 0. -1.
        -11    1    4    4    0    0  0.65043905822E-02  0.29241402997E-01  0.28664273725E-01  0.41464062214E-01  0.51100000000E-03 0. -1.
         11    1    4    4    0    0 -0.17752977122E-01  0.64175894255E-01  0.56503117288E-01  0.87330275302E-01  0.51100000000E-03 0.  1.
</event>
<event>
 8    1  0.1090774E+005  0.1043930E+01  0.7957747E-01            NaN
         13   -1    0    0    0    0  0.00000000000E+00  0.00000000000E+00  0.74505805969E-08  0.10566000000E+00  0.10566000000E+00 0.  1.
     999900   -1    0    0    0    0 -0.00000000000E+00 -0.00000000000E+00 -0.74505805969E-08  0.93827000000E+00  0.93827000000E+00 0.  1.
     999902    2    1    2    0    0  0.23495281403E-01 -0.71894242879E-03 -0.25971116282E-02  0.10202806847E+01  0.10200065615E+01 0.  0.
     999903    2    3    3    0    0  0.11730519673E+00 -0.59923681285E-01  0.50370452780E-02  0.13328362624E+00  0.19692547887E-01 0.  0.
         14    1    1    2    0    0 -0.23495281403E-01  0.71894242879E-03  0.25971116282E-02  0.23649315323E-01  0.00000000000E+00 0.  1.
     999901    1    3    3    0    0 -0.93809915323E-01  0.59204738856E-01 -0.76341569062E-02  0.88699705843E+00  0.88000000000E+00 0. -1.
        -11    1    4    4    0    0  0.55829363425E-01 -0.37122783415E-01 -0.36207747621E-02  0.67144545570E-01  0.51100000000E-03 0.  1.
         11    1    4    4    0    0  0.61475833301E-01 -0.22800897870E-01  0.86578200401E-02  0.66139080675E-01  0.51100000000E-03 0. -1.
</event>
<event>
 8    1  0.1090774E+005  0.1043930E+01  0.7957747E-01            NaN
         13   -1    0    0    0    0  0.00000000000E+00  0.00000000000E+00  0.74505805969E-08  0.10566000000E+00  0.10566000000E+00 0.  1.
     999900   -1    0    0    0    0 -0.00000000000E+00 -0.00000000000E+00 -0.74505805969E-08  0.93827000000E+00  0.93827000000E+00 0.  1.
     999902    2    1    2    0    0  0.14354795477E-01  0.18639333769E-01  0.47870780657E-02  0.10199216466E+01  0.10196390362E+01 0.  0.
     999903    2    3    3    0    0 -0.13525237359E-01 -0.93856347427E-01 -0.83219160724E-01  0.12797003772E+00  0.21423254765E-01 0.  0.
         14    1    1    2    0    0 -0.14354795477E-01 -0.18639333769E-01 -0.47870780657E-02  0.24008353399E-01  0.00000000000E+00 0.  1.
     999901    1    3    3    0    0  0.27880032836E-01  0.11249568120E+00  0.88006238790E-01  0.89195160888E+00  0.88000000000E+00 0. -1.
        -11    1    4    4    0    0 -0.19858812657E-02 -0.75397930201E-01 -0.63619971468E-01  0.98673975767E-01  0.51100000000E-03 0. -1.
         11    1    4    4    0    0 -0.11539356093E-01 -0.18458417226E-01 -0.19599189256E-01  0.29296061954E-01  0.51100000000E-03 0.  1.
</event>
<event>
 8    1  0.1090774E+005  0.1043930E+01  0.7957747E-01            NaN
         13   -1    0    0    0    0  0.00000000000E+00  0.00000000000E+00  0.74505805969E-08  0.10566000000E+00  0.10566000000E+00 0. -1.
     999900   -1    0    0    0    0 -0.00000000000E+00 -0.00000000000E+00 -0.74505805969E-08  0.93827000000E+00  0.93827000000E+00 0. -1.
     999902    2    1    2    0    0 -0.60334254503E-02  0.98432812467E-02  0.20992754438E-01  0.10199719503E+01  0.10196905370E+01 0.  0.
     999903    2    3    3    0    0  0.10345674674E+00  0.67864236094E-01 -0.31946445339E-01  0.12971519635E+00  0.22284609252E-01 0.  0.
         14    1    1    2    0    0  0.60334254503E-02 -0.98432812467E-02 -0.20992754438E-01  0.23958049739E-01  0.00000000000E+00 0.  1.
     999901    1    3    3    0    0 -0.10949017219E+00 -0.58020954847E-01  0.52939199777E-01  0.89025675391E+00  0.88000000000E+00 0. -1.
        -11    1    4    4    0    0  0.62416818758E-01  0.53369754233E-01 -0.22901982221E-01  0.85258148241E-01  0.51100000000E-03 0.  1.
         11    1    4    4    0    0  0.41039927977E-01  0.14494481861E-01 -0.90444631174E-02  0.44457048112E-01  0.51100000000E-03 0. -1.
</event>
<event>
 8    1  0.1090774E+005  0.1043930E+01  0.7957747E-01            NaN
         13   -1    0    0    0    0  0.00000000000E+00  0.00000000000E+00  0.74505805969E-08  0.10566000000E+00  0.10566000000E+00 0. -1.
     999900   -1    0    0    0    0 -0.00000000000E+00 -0.00000000000E+00 -0.74505805969E-08  0.93827000000E+00  0.93827000000E+00 0.  1.
     999902    2    1    2    0    0  0.11566109731E-01  0.56199657192E-02 -0.21523072694E-01  0.10188580721E+01  0.10185495420E+01 0.  0.
     999903    2    3    3    0    0  0.92992156226E-01  0.84911319165E-01  0.26668266034E-01  0.13024132408E+00  0.19852779244E-01 0.  0.
         14    1    1    2    0    0 -0.11566109731E-01 -0.56199657192E-02  0.21523072694E-01  0.25071927872E-01  0.00000000000E+00 0. -1.
     999901    1    3    3    0    0 -0.81426046495E-01 -0.79291353446E-01 -0.48191338728E-01  0.88861674805E+00  0.88000000000E+00 0.  1.
        -11    1    4    4    0    0  0.62653271614E-01  0.64550800371E-01  0.26204207303E-01  0.93697171109E-01  0.51100000000E-03 0. -1.
         11    1    4    4    0    0  0.30338884612E-01  0.20360518794E-01  0.46405873075E-03  0.36544152974E-01  0.51100000000E-03 0.  1.
</event>
<event>
 8    1  0.1090774E+005  0.1043930E+01  0.7957747E-01            NaN
         13   -1    0    0    0    0  0.00000000000E+00  0.00000000000E+00  0.74505805969E-08  0.10566000000E+00  0.10566000000E+00 0.  1.
     999900   -1    0    0    0    0 -0.00000000000E+00 -0.00000000000E+00 -0.74505805969E-08  0.93827000000E+00  0.93827000000E+00 0. -1.
     999902    2    1    2    0    0  0.21327445255E-01  0.44360449245E-02 -0.72051733443E-02  0.10209854377E+01  0.10207275891E+01 0.  0.
     999903    2    3    3    0    0  0.36250520167E-01  0.11176465190E+00 -0.58581161116E-01  0.13285165266E+00  0.20306933531E-01 0.  0.
         14    1    1    2    0    0 -0.21327445255E-01 -0.44360449245E-02  0.72051733443E-02  0.22944562288E-01  0.00000000000E+00 0. -1.
     999901    1    3    3    0    0 -0.14923074912E-01 -0.10732860697E+00  0.51375987772E-01  0.88813378506E+00  0.88000000000E+00 0.  1.
        -11    1    4    4    0    0  0.28978324911E-01  0.85359542033E-01 -0.34982950672E-01  0.96695722188E-01  0.51100000000E-03 0. -1.
         11    1    4    4    0    0  0.72721952568E-02  0.26405109864E-01 -0.23598210444E-01  0.36155930467E-01  0.51100000000E-03 0.  1.
</event>
<event>
 8    1  0.1090774E+005  0.1043930E+01  0.7957747E-01            NaN
         13   -1    0    0    0    0  0.00000000000E+00  0.00000000000E+00  0.74505805969E-08  0.10566000000E+00  0.10566000000E+00 0. -1.
     999900   -1    0    0    0    0 -0.00000000000E+00 -0.00000000000E+00 -0.74505805969E-08  0.93827000000E+00  0.93827000000E+00 0.  1.
     999902    2    1    2    0    0  0.78763109310E-02  0.21957903066E-01  0.75431941480E-03  0.10205900176E+01  0.10203231004E+01 0.  0.
     999903    2    3    3    0    0  0.68260958443E-01  0.30309915749E-01 -0.10686521791E+00  0.13194046542E+00  0.20245053119E-01 0.  0.
         14    1    1    2    0    0 -0.78763109310E-02 -0.21957903066E-01 -0.75431941480E-03  0.23339982406E-01  0.00000000000E+00 0.  1.
     999901    1    3    3    0    0 -0.60384647512E-01 -0.83520126824E-02  0.10761953732E+00  0.88864955218E+00  0.88000000000E+00 0. -1.
        -11    1    4    4    0    0  0.34670456113E-01  0.25609832358E-01 -0.66011690444E-01  0.78839764312E-01  0.51100000000E-03 0.  1.
         11    1    4    4    0    0  0.33590502329E-01  0.47000833907E-02 -0.40853527464E-01  0.53100701105E-01  0.51100000000E-03 0. -1.
</event>
<event>
 8    1  0.1090774E+005  0.1043930E+01  0.7957747E-01            NaN
         13   -1    0    0    0    0  0.00000000000E+00  0.00000000000E+00  0.74505805969E-08  0.10566000000E+00  0.10566000000E+00 0.  1.
     999900   -1    0    0    0    0 -0.00000000000E+00 -0.00000000000E+00 -0.74505805969E-08  0.93827000000E+00  0.93827000000E+00 0.  1.
     999902    2    1    2    0    0  0.43498736558E-02 -0.28330711069E-02 -0.24243421377E-01  0.10191370338E+01  0.10188354148E+01 0.  0.
     999903    2    3    3    0    0  0.85444957873E-01  0.67776091080E-02  0.92309138817E-01  0.12770376252E+00  0.20988021400E-01 0.  0.
         14    1    1    2    0    0 -0.43498736558E-02  0.28330711069E-02  0.24243421377E-01  0.24792966196E-01  0.00000000000E+00 0.  1.
     999901    1    3    3    0    0 -0.81095084217E-01 -0.96106802149E-02 -0.11655256019E+00  0.89143327128E+00  0.88000000000E+00 0.  1.
        -11    1    4    4    0    0  0.35286890212E-01 -0.61421334274E-02  0.30387441560E-01  0.46973909241E-01  0.51100000000E-03 0. -1.
         11    1    4    4    0    0  0.50158067661E-01  0.12919742535E-01  0.61921697258E-01  0.80729853282E-01  0.51100000000E-03 0.  1.
</event>
<event>
 8    1  0.1090774E+005  0.1043930E+01  0.7957747E-01            NaN
         13   -1    0    0    0    0  0.00000000000E+00  0.00000000000E+00  0.74505805969E-08  0.10566000000E+00  0.10566000000E+00 0. -1.
     999900   -1    0    0    0    0 -0.00000000000E+00 -0.00000000000E+00 -0.74505805969E-08  0.93827000000E+00  0.93827000000E+00 0. -1.
     999902    2    1    2    0    0 -0.17805078953E-01  0.12363560830E-01  0.10768773424E-01  0.10197257658E+01  0.10194384692E+01 0.  0.
     999903    2    3    3    0    0  0.78182243688E-01  0.95330835098E-01 -0.34410561261E-01  0.12947955996E+00  0.19504829446E-01 0.  0.
         14    1    1    2    0    0  0.17805078953E-01 -0.12363560830E-01 -0.10768773424E-01  0.24204234216E-01  0.00000000000E+00 0.  1.
     999901    1    3    3    0    0 -0.95987322641E-01 -0.82967274269E-01  0.45179334685E-01  0.89024620583E+00  0.88000000000E+00 0.  1.
        -11    1    4    4    0    0  0.26893770840E-01  0.19426896772E-01 -0.10491235542E-01  0.34799516841E-01  0.51100000000E-03 0. -1.
         11    1    4    4    0    0  0.51288472847E-01  0.75903938326E-01 -0.23919325720E-01  0.94680043116E-01  0.51100000000E-03 0.  1.
</event>
<event>
 8    1  0.1090774E+005  0.1043930E+01  0.7957747E-01            NaN
         13   -1    0    0    0    0  0.00000000000E+00  0.00000000000E+00  0.74505805969E-08  0.10566000000E+00  0.10566000000E+00 0. -1.
     999900   -1    0    0    0    0 -0.00000000000E+00 -0.00000000000E+00 -0.74505805969E-08  0.93827000000E+00  0.93827000000E+00 0. -1.
     999902    2    1    2    0    0 -0.22588205038E-01  0.93667694508E-03  0.43072902741E-02  0.10209157192E+01  0.10206562833E+01 0.  0.
     999903    2    3    3    0    0 -0.60564504960E-01  0.66782397543E-02 -0.11537068684E+00  0.13198491026E+00  0.19923930515E-01 0.  0.
         14    1    1    2    0    0  0.22588205038E-01 -0.93667694508E-03 -0.43072902741E-02  0.23014280785E-01  0.00000000000E+00 0. -1.
     999901    1    3    3    0    0  0.37976299922E-01 -0.57415628093E-02  0.11967797712E+00  0.88893080895E+00  0.88000000000E+00 0.  1.
        -11    1    4    4    0    0 -0.24594153153E-02 -0.34396967974E-02 -0.14738027945E-01  0.15341148147E-01  0.51100000000E-03 0.  1.
         11    1    4    4    0    0 -0.58105089645E-01  0.10117936552E-01 -0.10063265890E+00  0.11664376212E+00  0.51100000000E-03 0. -1.
</event>
<event>
 8    1  0.1090774E+005  0.1043930E+01  0.7957747E-01            NaN
         13   -1    0    0    0    0  0.00000000000E+00  0.00000000000E+00  0.74505805969E-08  0.10566000000E+00  0.10566000000E+00 0.  1.
     999900   -1    0    0    0    0 -0.00000000000E+00 -0.00000000000E+00 -0.74505805969E-08  0.93827000000E+00  0.93827000000E+00 0. -1.
     999902    2    1    2    0    0  0.97154074509E-02  0.47376966311E-02  0.21555048570E-01  0.10198166213E+01  0.10195315033E+01 0.  0.
     999903    2    3    3    0    0 -0.72593680181E-01 -0.47207463093E-01  0.96616378351E-01  0.13127439457E+00  0.19996377958E-01 0.  0.
         14    1    1    2    0    0 -0.97154074509E-02 -0.47376966311E-02 -0.21555048570E-01  0.24113378655E-01  0.00000000000E+00 0. -1.
     999901    1    3    3    0    0  0.82309087631E-01  0.51945159724E-01 -0.75061329780E-01  0.88854222677E+00  0.88000000000E+00 0. -1.
        -11    1    4    4    0    0 -0.34418244402E-01 -0.16644102703E-01  0.29819900715E-01  0.48488445038E-01  0.51100000000E-03 0.  1.
         11    1    4    4    0    0 -0.38175435779E-01 -0.30563360390E-01  0.66796477635E-01  0.82785949537E-01  0.51100000000E-03 0. -1.
</event>
<event>
 8    1  0.1090774E+005  0.1043930E+01  0.7957747E-01            NaN
         13   -1    0    0    0    0  0.00000000000E+00  0.00000000000E+00  0.74505805969E-08  0.10566000000E+00  0.10566000000E+00 0. -1.
     999900   -1    0    0    0    0 -0.00000000000E+00 -0.00000000000E+00 -0.74505805969E-08  0.93827000000E+00  0.93827000000E+00 0. -1.
     999902    2    1    2    0    0  0.60448003301E-03  0.63127239903E-02 -0.22700906801E-01  0.10203599544E+01  0.10200876872E+01 0.  0.
     999903    2    3    3    0    0 -0.38468392253E-01 -0.12242430012E+00 -0.35014032453E-02  0.12992829971E+00  0.20039380708E-01 0.  0.
         14    1    1    2    0    0 -0.60448003301E-03 -0.63127239903E-02  0.22700906801E-01  0.23570045606E-01  0.00000000000E+00 0. -1.
     999901    1    3    3    0    0  0.39072872286E-01  0.12873702411E+00 -0.19199503556E-01  0.89043165468E+00  0.88000000000E+00 0.  1.
        -11    1    4    4    0    0 -0.25943846129E-01 -0.52978952880E-01 -0.61418616209E-02  0.59311349550E-01  0.51100000000E-03 0.  1.
         11    1    4    4    0    0 -0.12524546123E-01 -0.69445347238E-01  0.26404583757E-02  0.70616950161E-01  0.51100000000E-03 0. -1.
</event>
<event>
 8    1  0.1090774E+005  0.1043930E+01  0.7957747E-01            NaN
         13   -1    0    0    0    0  0.00000000000E+00  0.00000000000E+00  0.74505805969E-08  0.10566000000E+00  0.10566000000E+00 0.  1.
     999900   -1    0    0    0    0 -0.00000000000E+00 -0.00000000000E+00 -0.74505805969E-08  0.93827000000E+00  0.93827000000E+00 0. -1.
     999902    2    1    2    0    0 -0.17135608777E-01  0.13224320045E-01 -0.18943525548E-01  0.10151659793E+01  0.10147583932E+01 0.  0.
     999903    2    3    3    0    0  0.33030606173E-01  0.85614159127E-01  0.82410169667E-01  0.12498088084E+00  0.20198498036E-01 0.  0.
         14    1    1    2    0    0  0.17135608777E-01 -0.13224320045E-01  0.18943525548E-01  0.28764020738E-01  0.00000000000E+00 0.  1.
     999901    1    3    3    0    0 -0.50166214950E-01 -0.72389839082E-01 -0.10135369521E+00  0.89018509843E+00  0.88000000000E+00 0. -1.
        -11    1    4    4    0    0  0.16516087648E-01  0.54901583744E-01  0.39206043463E-01  0.69457469100E-01  0.51100000000E-03 0.  1.
         11    1    4    4    0    0  0.16514518524E-01  0.30712575383E-01  0.43204126204E-01  0.55523411736E-01  0.51100000000E-03 0. -1.
</event>
<event>
 8    1  0.1090774E+005  0.1043930E+01  0.7957747E-01            NaN
         13   -1    0    0    0    0  0.00000000000E+00  0.00000000000E+00  0.74505805969E-08  0.10566000000E+00  0.10566000000E+00 0. -1.
     999900   -1    0    0    0    0 -0.00000000000E+00 -0.00000000000E+00 -0.74505805969E-08  0.93827000000E+00  0.93827000000E+00 0.  1.
     999902    2    1    2    0    0 -0.39050471143E-02  0.22452985620E-01  0.43430754592E-02  0.10207298220E+01  0.10204661294E+01 0.  0.
     999903    2    3    3    0    0  0.67978350580E-01 -0.61033268681E-01 -0.88687943809E-01  0.12899446433E+00  0.20685850639E-01 0.  0.
         14    1    1    2    0    0  0.39050471143E-02 -0.22452985620E-01 -0.43430754592E-02  0.23200178031E-01  0.00000000000E+00 0.  1.
     999901    1    3    3    0    0 -0.71883397695E-01  0.83486254301E-01  0.93031019269E-01  0.89173535764E+00  0.88000000000E+00 0. -1.
        -11    1    4    4    0    0  0.45601234838E-01 -0.43291972427E-01 -0.47192820044E-01  0.78619914018E-01  0.51100000000E-03 0.  1.
         11    1    4    4    0    0  0.22377115742E-01 -0.17741296254E-01 -0.41495123765E-01  0.50374550310E-01  0.51100000000E-03 0. -1.
</event>
<event>
 8    1  0.1090774E+005  0.1043930E+01  0.7957747E-01            NaN
         13   -1    0    0    0    0  0.00000000000E+00  0.00000000000E+00  0.74505805969E-08  0.10566000000E+00  0.10566000000E+00 0.  1.
     999900   -1    0    0    0    0 -0.00000000000E+00 -0.00000000000E+00 -0.74505805969E-08  0.93827000000E+00  0.93827000000E+00 0.  1.
     999902    2    1    2    0    0 -0.11392061323E-01  0.21035301060E-01  0.43255854048E-02  0.10196200506E+01  0.10193302085E+01 0.  0.
     999903    2    3    3    0    0 -0.78666998795E-04 -0.12115879772E+00 -0.33252458492E-01  0.12734247941E+00  0.20758627434E-01 0.  0.
         14    1    1    2    0    0  0.11392061323E-01 -0.21035301060E-01 -0.43255854048E-02  0.24309949423E-01  0.00000000000E+00 0.  1.
     999901    1    3    3    0    0 -0.11313394324E-01  0.14219409878E+00  0.37578043897E-01  0.89227757116E+00  0.88000000000E+00 0.  1.
        -11    1    4    4    0    0 -0.82080624029E-02 -0.84027765448E-01 -0.28090534103E-01  0.88979643075E-01  0.51100000000E-03 0.  1.
         11    1    4    4    0    0  0.81293954041E-02 -0.37131032275E-01 -0.51619243898E-02  0.38362836338E-01  0.51100000000E-03 0. -1.
</event>
<event>
 8    1  0.1090774E+005  0.1043930E+01  0.7957747E-01            NaN
         13   -1    0    0    0    0  0.00000000000E+00  0.00000000000E+00  0.74505805969E-08  0.10566000000E+00  0.10566000000E+00 0.  1.
     999900   -1    0    0    0    0 -0.00000000000E+00 -0.00000000000E+00 -0.74505805969E-08  0.93827000000E+00  0.93827000000E+00 0. -1.
     999902    2    1    2    0    0  0.15867101049E-01 -0.17205094045E-01  0.34065682682E-02  0.10202786816E+01  0.10200045113E+01 0.  0.
     999903    2    3    3    0    0  0.80155555831E-01  0.25466464942E-01  0.99499401107E-01  0.13169120703E+00  0.19209092131E-01 0.  0.
         14    1    1    2    0    0 -0.15867101049E-01  0.17205094045E-01 -0.34065682682E-02  0.23651318445E-01  0.00000000000E+00 0.  1.
     999901    1    3    3    0    0 -0.64288454781E-01 -0.42671558987E-01 -0.96092832839E-01  0.88858747453E+00  0.88000000000E+00 0. -1.
        -11    1    4    4    0    0  0.27428323771E-01  0.15310472432E-01  0.47443467794E-01  0.56902260661E-01  0.51100000000E-03 0.  1.
         11    1    4    4    0    0  0.52727232060E-01  0.10155992510E-01  0.52055933313E-01  0.74788946367E-01  0.51100000000E-03 0. -1.
</event>
<event>
 8    1  0.1090774E+005  0.1043930E+01  0.7957747E-01            NaN
         13   -1    0    0    0    0  0.00000000000E+00  0.00000000000E+00  0.74505805969E-08  0.10566000000E+00  0.10566000000E+00 0.  1.
     999900   -1    0    0    0    0 -0.00000000000E+00 -0.00000000000E+00 -0.74505805969E-08  0.93827000000E+00  0.93827000000E+00 0. -1.
     999902    2    1    2    0    0 -0.16957033550E-01 -0.37052574188E-02 -0.12410754076E-01  0.10225923165E+01  0.10223696734E+01 0.  0.
     999903    2    3    3    0    0 -0.66253531893E-01  0.76797189536E-01  0.82652862589E-01  0.13245306903E+00  0.20615067130E-01 0.  0.
         14    1    1    2    0    0  0.16957033550E-01  0.37052574188E-02  0.12410754076E-01  0.21337683475E-01  0.00000000000E+00 0.  1.
     999901    1    3    3    0    0  0.49296498342E-01 -0.80502446955E-01 -0.95063616665E-01  0.89013924749E+00  0.88000000000E+00 0. -1.
        -11    1    4    4    0    0 -0.38159917812E-01  0.32833929819E-01  0.31507003700E-01  0.59390223757E-01  0.51100000000E-03 0. -1.
         11    1    4    4    0    0 -0.28093614080E-01  0.43963259717E-01  0.51145858889E-01  0.73062845274E-01  0.51100000000E-03 0.  1.
</event>
<event>
 7    1  0.1090774E+005  0.1043930E+01  0.7957747E-01            NaN
         13   -1    0    0    0    0  0.00000000000E+00  0.00000000000E+00  0.74505805969E-08  0.10566000000E+00  0.10566000000E+00 0.  1.
     999900   -1    0    0    0    0 -0.00000000000E+00 -0.00000000000E+00 -0.74505805969E-08  0.93827000000E+00  0.93827000000E+00 0. -1.
     999902    2    1    2    0    0  0.21936542431E-01  0.29159448445E-02 -0.79037325042E-02  0.10204314125E+01  0.10201608128E+01 0.  0.
         14    1    1    2    0    0 -0.21936542431E-01 -0.29159448445E-02  0.79037325042E-02  0.23498587525E-01  0.00000000000E+00 0. -1.
     999901    1    3    3    0    0 -0.54412655230E-03  0.11521206288E+00  0.43500560906E-01  0.88857549725E+00  0.88000000000E+00 0.  1.
        -11    1    3    3    0    0 -0.47167891740E-02 -0.70965428165E-01 -0.22725707483E-01  0.74666317683E-01  0.51100000000E-03 0. -1.
         11    1    3    3    0    0  0.27197458157E-01 -0.41330689874E-01 -0.28678585927E-01  0.57189597546E-01  0.51100000000E-03 0.  1.
</event>
<event>
 8    1  0.1090774E+005  0.1043930E+01  0.7957747E-01            NaN
         13   -1    0    0    0    0  0.00000000000E+00  0.00000000000E+00  0.74505805969E-08  0.10566000000E+00  0.10566000000E+00 0.  1.
     999900   -1    0    0    0    0 -0.00000000000E+00 -0.00000000000E+00 -0.74505805969E-08  0.93827000000E+00  0.93827000000E+00 0. -1.
     999902    2    1    2    0    0  0.90203412924E-02  0.34225572822E-01  0.44548847134E-02  0.10082564469E+01  0.10076251587E+01 0.  0.
     999903    2    3    3    0    0 -0.99495519973E-01  0.58462169150E-01 -0.29522246083E-01  0.12060924776E+00  0.18916762806E-01 0.  0.
         14    1    1    2    0    0 -0.90203412924E-02 -0.34225572822E-01 -0.44548847134E-02  0.35673553087E-01  0.00000000000E+00 0.  1.
     999901    1    3    3    0    0  0.10851586127E+00 -0.24236596328E-01  0.33977130796E-01  0.88764719915E+00  0.88000000000E+00 0. -1.
        -11    1    4    4    0    0 -0.45548329708E-01  0.30664899670E-01 -0.49507074034E-02  0.55133991655E-01  0.51100000000E-03 0. -1.
         11    1    4    4    0    0 -0.53947190264E-01  0.27797269480E-01 -0.24571538679E-01  0.65475256105E-01  0.51100000000E-03 0.  1.
</event>
<event>
 8    1  0.1090774E+005  0.1043930E+01  0.7957747E-01            NaN
         13   -1    0    0    0    0  0.00000000000E+00  0.00000000000E+00  0.74505805969E-08  0.10566000000E+00  0.10566000000E+00 0.  1.
     999900   -1    0    0    0    0 -0.00000000000E+00 -0.00000000000E+00 -0.74505805969E-08  0.93827000000E+00  0.93827000000E+00 0.  1.
     999902    2    1    2    0    0  0.17526211612E-01 -0.15487552200E-01  0.92725972643E-02  0.10187702419E+01  0.10184595193E+01 0.  0.
     999903    2    3    3    0    0 -0.10181935740E+00 -0.50246454333E-01 -0.54641344943E-01  0.12773907629E+00  0.20969199321E-01 0.  0.
         14    1    1    2    0    0 -0.17526211612E-01  0.15487552200E-01 -0.92725972643E-02  0.25159758080E-01  0.00000000000E+00 0.  1.
     999901    1    3    3    0    0  0.11934556901E+00  0.34758902132E-01  0.63913942207E-01  0.89103116563E+00  0.88000000000E+00 0. -1.
        -11    1    4    4    0    0 -0.70082687027E-01 -0.28635400399E-01 -0.26814961485E-01  0.80317323520E-01  0.51100000000E-03 0. -1.
         11    1    4    4    0    0 -0.31736670368E-01 -0.21611053933E-01 -0.27826383458E-01  0.47421752767E-01  0.51100000000E-03 0.  1.
</event>
<event>
 8    1  0.1090774E+005  0.1043930E+01  0.7957747E-01            NaN
         13   -1    0    0    0    0  0.00000000000E+00  0.00000000000E+00  0.74505805969E-08  0.10566000000E+00  0.10566000000E+00 0. -1.
     999900   -1    0    0    0    0 -0.00000000000E+00 -0.00000000000E+00 -0.74505805969E-08  0.93827000000E+00  0.93827000000E+00 0.  1.
     999902    2    1    2    0    0 -0.14561014480E-01  0.11420049956E-01  0.14842558659E-01  0.10202078114E+01  0.10199319763E+01 0.  0.
     999903    2    3    3    0    0 -0.10612108856E+00  0.64245765625E-01 -0.44058839627E-01  0.13192678712E+00  0.86192791998E-02 0.  0.
         14    1    1    2    0    0  0.14561014480E-01 -0.11420049956E-01 -0.14842558659E-01  0.23722188585E-01  0.00000000000E+00 0.  1.
     999901    1    3    3    0    0  0.91560074075E-01 -0.52825715669E-01  0.58901398287E-01  0.88828102429E+00  0.88000000000E+00 0. -1.
        -11    1    4    4    0    0 -0.33057177640E-01  0.15521013197E-01 -0.12295740430E-01  0.38537322142E-01  0.51100000000E-03 0. -1.
         11    1    4    4    0    0 -0.73063910915E-01  0.48724752429E-01 -0.31763099197E-01  0.93389464979E-01  0.51100000000E-03 0.  1.
</event>
<event>
 8    1  0.1090774E+005  0.1043930E+01  0.7957747E-01            NaN
         13   -1    0    0    0    0  0.00000000000E+00  0.00000000000E+00  0.74505805969E-08  0.10566000000E+00  0.10566000000E+00 0. -1.
     999900   -1    0    0    0    0 -0.00000000000E+00 -0.00000000000E+00 -0.74505805969E-08  0.93827000000E+00  0.93827000000E+00 0. -1.
     999902    2    1    2    0    0 -0.24455283298E-01  0.47095232107E-02 -0.22517338905E-03  0.10190243542E+01  0.10187199533E+01 0.  0.
     999903    2    3    3    0    0  0.11933487563E+00 -0.27326314908E-01 -0.24440233801E-01  0.12645039430E+00  0.20120565630E-01 0.  0.
         14    1    1    2    0    0  0.24455283298E-01 -0.47095232107E-02  0.22517338905E-03  0.24905645808E-01  0.00000000000E+00 0.  1.
     999901    1    3    3    0    0 -0.14379015893E+00  0.32035838119E-01  0.24215060412E-01  0.89257395989E+00  0.88000000000E+00 0.  1.
        -11    1    4    4    0    0  0.88993837226E-01 -0.21503668691E-01 -0.92586992368E-02  0.92023341952E-01  0.51100000000E-03 0. -1.
         11    1    4    4    0    0  0.30341038406E-01 -0.58226462174E-02 -0.15181534564E-01  0.34427052346E-01  0.51100000000E-03 0.  1.
</event>
<event>
 8    1  0.1090774E+005  0.1043930E+01  0.7957747E-01            NaN
         13   -1    0    0    0    0  0.00000000000E+00  0.00000000000E+00  0.74505805969E-08  0.10566000000E+00  0.10566000000E+00 0. -1.
     999900   -1    0    0    0    0 -0.00000000000E+00 -0.00000000000E+00 -0.74505805969E-08  0.93827000000E+00  0.93827000000E+00 0. -1.
     999902    2    1    2    0    0 -0.15379771292E-02 -0.62545975881E-02 -0.16158507697E-01  0.10265350945E+01  0.10263877034E+01 0.  0.
     999903    2    3    3    0    0  0.12533157279E+00 -0.25639186477E-01  0.39752391861E-01  0.13546962351E+00  0.20159246395E-01 0.  0.
         14    1    1    2    0    0  0.15379771292E-02  0.62545975881E-02  0.16158507697E-01  0.17394905450E-01  0.00000000000E+00 0. -1.
     999901    1    3    3    0    0 -0.12686954992E+00  0.19384588889E-01 -0.55910899558E-01  0.89106547104E+00  0.88000000000E+00 0. -1.
        -11    1    4    4    0    0  0.29435831467E-01 -0.99889490329E-02  0.17911623726E-01  0.35879446240E-01  0.51100000000E-03 0.  1.
         11    1    4    4    0    0  0.95895741322E-01 -0.15650237444E-01  0.21840768135E-01  0.99590177274E-01  0.51100000000E-03 0. -1.
</event>
<event>
 8    1  0.1090774E+005  0.1043930E+01  0.7957747E-01            NaN
         13   -1    0    0    0    0  0.00000000000E+00  0.00000000000E+00  0.74505805969E-08  0.10566000000E+00  0.10566000000E+00 0.  1.
     999900   -1    0    0    0    0 -0.00000000000E+00 -0.00000000000E+00 -0.74505805969E-08  0.93827000000E+00  0.93827000000E+00 0.  1.
     999902    2    1    2    0    0  0.46212288065E-02 -0.22873227642E-01 -0.32229817499E-02  0.10203730921E+01  0.10201011318E+01 0.  0.
     999903    2    3    3    0    0 -0.11027569417E+00 -0.60787944437E-01  0.32419255401E-01  0.13137973007E+00  0.18807510168E-01 0.  0.
         14    1    1    2    0    0 -0.46212288065E-02  0.22873227642E-01  0.32229817499E-02  0.23556907900E-01  0.00000000000E+00 0.  1.
     999901    1    3    3    0    0  0.11489692298E+00  0.37914716795E-01 -0.35642237151E-01  0.88899336203E+00  0.88000000000E+00 0.  1.
        -11    1    4    4    0    0 -0.72288410617E-02 -0.99236224533E-03  0.57171639620E-02  0.92837498183E-02  0.51100000000E-03 0.  1.
         11    1    4    4    0    0 -0.10304685311E+00 -0.59795582192E-01  0.26702091439E-01  0.12209598025E+00  0.51100000000E-03 0. -1.
</event>
<event>
 8    1  0.1090774E+005  0.1043930E+01  0.7957747E-01            NaN
         13   -1    0    0    0    0  0.00000000000E+00  0.00000000000E+00  0.74505805969E-08  0.10566000000E+00  0.10566000000E+00 0.  1.
     999900   -1    0    0    0    0 -0.00000000000E+00 -0.00000000000E+00 -0.74505805969E-08  0.93827000000E+00  0.93827000000E+00 0. -1.
     999902    2    1    2    0    0 -0.78241388690E-02 -0.11541750611E-01 -0.18888452971E-01  0.10204522912E+01  0.10201821777E+01 0.  0.
     999903    2    3    3    0    0  0.10656059067E+00  0.27966999604E-02 -0.73980910200E-01  0.13122530307E+00  0.19593980676E-01 0.  0.
         14    1    1    2    0    0  0.78241388690E-02  0.11541750611E-01  0.18888452971E-01  0.23477708829E-01  0.00000000000E+00 0.  1.
     999901    1    3    3    0    0 -0.11438472954E+00 -0.14338450571E-01  0.55092457228E-01  0.88922698810E+00  0.88000000000E+00 0.  1.
        -11    1    4    4    0    0  0.92161570627E-01  0.27414512105E-02 -0.71332929761E-01  0.11657580643E+00  0.51100000000E-03 0. -1.
         11    1    4    4    0    0  0.14399020041E-01  0.55248749870E-04 -0.26479804388E-02  0.14649496646E-01  0.51100000000E-03 0.  1.
</event>
<event>
 8    1  0.1090774E+005  0.1043930E+01  0.7957747E-01            NaN
         13   -1    0    0    0    0  0.00000000000E+00  0.00000000000E+00  0.74505805969E-08  0.10566000000E+00  0.10566000000E+00 0. -1.
     999900   -1    0    0    0    0 -0.00000000000E+00 -0.00000000000E+00 -0.74505805969E-08  0.93827000000E+00  0.93827000000E+00 0.  1.
     999902    2    1    2    0    0  0.92729456458E-02  0.69067005545E-02 -0.21066870443E-01  0.10198987066E+01  0.10196155494E+01 0.  0.
     999903    2    3    3    0    0 -0.61012847921E-02 -0.68359083409E-01 -0.11101923749E+00  0.13198388322E+00  0.19603172601E-01 0.  0.
         14    1    1    2    0    0 -0.92729456458E-02 -0.69067005545E-02  0.21066870443E-01  0.24031293426E-01  0.00000000000E+00 0. -1.
     999901    1    3    3    0    0  0.15374230438E-01  0.75265783964E-01  0.89952367046E-01  0.88791482336E+00  0.88000000000E+00 0. -1.
        -11    1    4    4    0    0 -0.11759833411E-01 -0.31402946575E-01 -0.59908671957E-01  0.68656746443E-01  0.51100000000E-03 0.  1.
         11    1    4    4    0    0  0.56585486186E-02 -0.36956136834E-01 -0.51110565532E-01  0.63327136775E-01  0.51100000000E-03 0. -1.
</event>
<event>
 8    1  0.1090774E+005  0.1043930E+01  0.7957747E-01            NaN
         13   -1    0    0    0    0  0.00000000000E+00  0.00000000000E+00  0.74505805969E-08  0.10566000000E+00  0.10566000000E+00 0. -1.
     999900   -1    0    0    0    0 -0.00000000000E+00 -0.00000000000E+00 -0.74505805969E-08  0.93827000000E+00  0.93827000000E+00 0.  1.
     999902    2    1    2    0    0 -0.11747334866E-01  0.23225861175E-01  0.94359763182E-02  0.10162446582E+01  0.10158674752E+01 0.  0.
     999903    2    3    3    0    0 -0.44824099980E-02 -0.11742612473E+00 -0.34534531689E-01  0.12396153838E+00  0.19100846825E-01 0.  0.
         14    1    1    2    0    0  0.11747334866E-01 -0.23225861175E-01 -0.94359763182E-02  0.27685341841E-01  0.00000000000E+00 0.  1.
     999901    1    3    3    0    0 -0.72649248678E-02  0.14065198591E+00  0.43970508008E-01  0.89228311978E+00  0.88000000000E+00 0.  1.
        -11    1    4    4    0    0  0.30212168052E-02 -0.19271965862E-01 -0.12212802043E-01  0.23020644516E-01  0.51100000000E-03 0.  1.
         11    1    4    4    0    0 -0.75036268032E-02 -0.98154158867E-01 -0.22321729647E-01  0.10094089386E+00  0.51100000000E-03 0. -1.
</event>
<event>
 8    1  0.1090774E+005  0.1043930E+01  0.7957747E-01            NaN
         13   -1    0    0    0    0  0.00000000000E+00  0.00000000000E+00  0.74505805969E-08  0.10566000000E+00  0.10566000000E+00 0. -1.
     999900   -1    0    0    0    0 -0.00000000000E+00 -0.00000000000E+00 -0.74505805969E-08  0.93827000000E+00  0.93827000000E+00 0. -1.
     999902    2    1    2    0    0 -0.21170748489E-01 -0.72627373007E-02  0.81659692367E-02  0.10201049922E+01  0.10198267324E+01 0.  0.
     999903    2    3    3    0    0 -0.64274329302E-01  0.80877803095E-01 -0.77203527622E-01  0.13054632376E+00  0.20237330104E-01 0.  0.
         14    1    1    2    0    0  0.21170748489E-01  0.72627373007E-02 -0.81659692367E-02  0.23825007833E-01  0.00000000000E+00 0. -1.
     999901    1    3    3    0    0  0.43103580813E-01 -0.88140540396E-01  0.85369496858E-01  0.88955866840E+00  0.88000000000E+00 0.  1.
        -11    1    4    4    0    0 -0.57950087833E-01  0.61448117513E-01 -0.57678401311E-01  0.10227972881E+00  0.51100000000E-03 0.  1.
         11    1    4    4    0    0 -0.63242414695E-02  0.19429685582E-01 -0.19525126311E-01  0.28266594956E-01  0.51100000000E-03 0. -1.
</event>
<event>
 8    1  0.1090774E+005  0.1043930E+01  0.7957747E-01            NaN
         13   -1    0    0    0    0  0.00000000000E+00  0.00000000000E+00  0.74505805969E-08  0.10566000000E+00  0.10566000000E+00 0.  1.
     999900   -1    0    0    0    0 -0.00000000000E+00 -0.00000000000E+00 -0.74505805969E-08  0.93827000000E+00  0.93827000000E+00 0.  1.
     999902    2    1    2    0    0 -0.21190312746E-01  0.99262089808E-02  0.31907882390E-02  0.10203134781E+01  0.10200401234E+01 0.  0.
     999903    2    3    3    0    0 -0.36886794744E-01 -0.12319107835E+00 -0.13372180076E-03  0.13015751189E+00  0.20106780179E-01 0.  0.
         14    1    1    2    0    0  0.21190312746E-01 -0.99262089808E-02 -0.31907882390E-02  0.23616521941E-01  0.00000000000E+00 0. -1.
     999901    1    3    3    0    0  0.15696481998E-01  0.13311728733E+00  0.33245100398E-02  0.89015596617E+00  0.88000000000E+00 0.  1.
        -11    1    4    4    0    0 -0.19158522716E-01 -0.82514772319E-01 -0.80104051529E-02  0.85089155332E-01  0.51100000000E-03 0.  1.
         11    1    4    4    0    0 -0.17728272028E-01 -0.40676306032E-01  0.78766833522E-02  0.45068356561E-01  0.51100000000E-03 0. -1.
</event>
<event>
 8    1  0.1090774E+005  0.1043930E+01  0.7957747E-01            NaN
         13   -1    0    0    0    0  0.00000000000E+00  0.00000000000E+00  0.74505805969E-08  0.10566000000E+00  0.10566000000E+00 0. -1.
     999900   -1    0    0    0    0 -0.00000000000E+00 -0.00000000000E+00 -0.74505805969E-08  0.93827000000E+00  0.93827000000E+00 0.  1.
     999902    2    1    2    0    0  0.10796027818E-01  0.45904807912E-02 -0.19936058966E-01  0.10207983512E+01  0.10205362319E+01 0.  0.
     999903    2    3    3    0    0  0.92610678156E-01  0.20664225982E-01  0.87242663937E-01  0.13038312166E+00  0.19614485964E-01 0.  0.
         14    1    1    2    0    0 -0.10796027818E-01 -0.45904807912E-02  0.19936058966E-01  0.23131648831E-01  0.00000000000E+00 0. -1.
     999901    1    3    3    0    0 -0.81814650337E-01 -0.16073745191E-01 -0.10717872290E+00  0.89041522951E+00  0.88000000000E+00 0.  1.
        -11    1    4    4    0    0  0.74778735664E-02  0.32480681802E-02  0.16193130799E-01  0.18136900122E-01  0.51100000000E-03 0. -1.
         11    1    4    4    0    0  0.85132804589E-01  0.17416157802E-01  0.71049533138E-01  0.11224622154E+00  0.51100000000E-03 0.  1.
</event>
<event>
 8    1  0.1090774E+005  0.1043930E+01  0.7957747E-01            NaN
         13   -1    0    0    0    0  0.00000000000E+00  0.00000000000E+00  0.74505805969E-08  0.10566000000E+00  0.10566000000E+00 0. -1.
     999900   -1    0    0    0    0 -0.00000000000E+00 -0.00000000000E+00 -0.74505805969E-08  0.93827000000E+00  0.93827000000E+00 0. -1.
     999902    2    1    2    0    0 -0.13681038613E-01 -0.20808625666E-01  0.81371771072E-03  0.10190135023E+01  0.10187088328E+01 0.  0.
     999903    2    3    3    0    0 -0.94464119455E-01  0.56883739448E-01  0.65108682862E-01  0.12957780916E+00  0.19799958678E-01 0.  0.
         14    1    1    2    0    0  0.13681038613E-01  0.20808625666E-01 -0.81371771072E-03  0.24916497670E-01  0.00000000000E+00 0. -1.
     999901    1    3    3    0    0  0.80783080842E-01 -0.77692365113E-01 -0.64294965151E-01  0.88943569317E+00  0.88000000000E+00 0. -1.
        -11    1    4    4    0    0 -0.27688398905E-01  0.68425300285E-02  0.14761630771E-01  0.32119067781E-01  0.51100000000E-03 0. -1.
         11    1    4    4    0    0 -0.66775720551E-01  0.50041209419E-01  0.50347052091E-01  0.97458741376E-01  0.51100000000E-03 0.  1.
</event>
<event>
 8    1  0.1090774E+005  0.1043930E+01  0.7957747E-01            NaN
         13   -1    0    0    0    0  0.00000000000E+00  0.00000000000E+00  0.74505805969E-08  0.10566000000E+00  0.10566000000E+00 0.  1.
     999900   -1    0    0    0    0 -0.00000000000E+00 -0.00000000000E+00 -0.74505805969E-08  0.93827000000E+00  0.93827000000E+00 0.  1.
     999902    2    1    2    0    0  0.12459895064E-01 -0.20319071544E-01 -0.12128040842E-02  0.10200640295E+01  0.10197848007E+01 0.  0.
     999903    2    3    3    0    0  0.56004064284E-01 -0.61769567561E-01 -0.10077867020E+00  0.13241116945E+00  0.20602008023E-01 0.  0.
         14    1    1    2    0    0 -0.12459895064E-01  0.20319071544E-01  0.12128040842E-02  0.23865970484E-01  0.00000000000E+00 0.  1.
     999901    1    3    3    0    0 -0.43544169220E-01  0.41450496017E-01  0.99565866114E-01  0.88765286007E+00  0.88000000000E+00 0. -1.
        -11    1    4    4    0    0  0.12061709084E-01 -0.25632798340E-01 -0.41469760541E-01  0.50224768164E-01  0.51100000000E-03 0. -1.
         11    1    4    4    0    0  0.43942355200E-01 -0.36136769221E-01 -0.59308909657E-01  0.82186401283E-01  0.51100000000E-03 0.  1.
</event>
<event>
 8    1  0.1090774E+005  0.1043930E+01  0.7957747E-01            NaN
         13   -1    0    0    0    0  0.00000000000E+00  0.00000000000E+00  0.74505805969E-08  0.10566000000E+00  0.10566000000E+00 0. -1.
     999900   -1    0    0    0    0 -0.00000000000E+00 -0.00000000000E+00 -0.74505805969E-08  0.93827000000E+00  0.93827000000E+00 0.  1.
     999902    2    1    2    0    0  0.65926207444E-02 -0.10457269460E-01  0.19936463461E-01  0.10204719586E+01  0.10202023027E+01 0.  0.
     999903    2    3    3    0    0 -0.89203377981E-01 -0.43942927814E-01 -0.79766028154E-01  0.12904683578E+00  0.20055997355E-01 0.  0.
         14    1    1    2    0    0 -0.65926207444E-02  0.10457269460E-01 -0.19936463461E-01  0.23458041439E-01  0.00000000000E+00 0.  1.
     999901    1    3    3    0    0  0.95795998725E-01  0.33485658354E-01  0.99702491615E-01  0.89142512278E+00  0.88000000000E+00 0. -1.
        -11    1    4    4    0    0 -0.58639420168E-01 -0.35498043290E-01 -0.45054846504E-01  0.82029829876E-01  0.51100000000E-03 0. -1.
         11    1    4    4    0    0 -0.30563957813E-01 -0.84448845238E-02 -0.34711181650E-01  0.47017005906E-01  0.51100000000E-03 0.  1.
</event>
<event>
 8    1  0.1090774E+005  0.1043930E+01  0.7957747E-01            NaN
         13   -1    0    0    0    0  0.00000000000E+00  0.00000000000E+00  0.74505805969E-08  0.10566000000E+00  0.10566000000E+00 0. -1.
     999900   -1    0    0    0    0 -0.00000000000E+00 -0.00000000000E+00 -0.74505805969E-08  0.93827000000E+00  0.93827000000E+00 0. -1.
     999902    2    1    2    0    0 -0.11568899135E-01 -0.20592616649E-01 -0.19104680132E-02  0.10202330556E+01  0.10199578141E+01 0.  0.
     999903    2    3    3    0    0  0.86633129245E-01 -0.85204672962E-01 -0.45877038123E-01  0.13132844005E+00  0.19424756389E-01 0.  0.
         14    1    1    2    0    0  0.11568899135E-01  0.20592616649E-01  0.19104680132E-02  0.23696944438E-01  0.00000000000E+00 0. -1.
     999901    1    3    3    0    0 -0.98202028380E-01  0.64612056313E-01  0.43966570110E-01  0.88890461552E+00  0.88000000000E+00 0.  1.
        -11    1    4    4    0    0  0.54068677978E-01 -0.40504489026E-01 -0.21603126519E-01  0.70929484461E-01  0.51100000000E-03 0. -1.
         11    1    4    4    0    0  0.32564451267E-01 -0.44700183935E-01 -0.24273911605E-01  0.60398955585E-01  0.51100000000E-03 0.  1.
</event>
<event>
 8    1  0.1090774E+005  0.1043930E+01  0.7957747E-01            NaN
         13   -1    0    0    0    0  0.00000000000E+00  0.00000000000E+00  0.74505805969E-08  0.10566000000E+00  0.10566000000E+00 0.  1.
     999900   -1    0    0    0    0 -0.00000000000E+00 -0.00000000000E+00 -0.74505805969E-08  0.93827000000E+00  0.93827000000E+00 0.  1.
     999902    2    1    2    0    0  0.16600916277E-01 -0.12824387002E-01 -0.11689003893E-01  0.10199156681E+01  0.10196329153E+01 0.  0.
     999903    2    3    3    0    0  0.12070375538E+00  0.37599435163E-02  0.48369316413E-01  0.13159171654E+00  0.19830667027E-01 0.  0.
         14    1    1    2    0    0 -0.16600916277E-01  0.12824387002E-01  0.11689003893E-01  0.24014331871E-01  0.00000000000E+00 0.  1.
     999901    1    3    3    0    0 -0.10410283910E+00 -0.16584330518E-01 -0.60058320306E-01  0.88832395159E+00  0.88000000000E+00 0.  1.
        -11    1    4    4    0    0  0.94324940959E-01 -0.90377061973E-04  0.29164496503E-01  0.98732120570E-01  0.51100000000E-03 0.  1.
         11    1    4    4    0    0  0.26378814418E-01  0.38503205783E-02  0.19204819909E-01  0.32859595971E-01  0.51100000000E-03 0. -1.
</event>
<event>
 8    1  0.1090774E+005  0.1043930E+01  0.7957747E-01            NaN
         13   -1    0    0    0    0  0.00000000000E+00  0.00000000000E+00  0.74505805969E-08  0.10566000000E+00  0.10566000000E+00 0.  1.
     999900   -1    0    0    0    0 -0.00000000000E+00 -0.00000000000E+00 -0.74505805969E-08  0.93827000000E+00  0.93827000000E+00 0. -1.
     999902    2    1    2    0    0  0.18088267531E-01  0.54752997057E-03  0.15300711389E-01  0.10202319625E+01  0.10199566953E+01 0.  0.
     999903    2    3    3    0    0 -0.60280868206E-01 -0.65635112251E-01 -0.89799939166E-01  0.12806156943E+00  0.19849066928E-01 0.  0.
         14    1    1    2    0    0 -0.18088267531E-01 -0.54752997057E-03 -0.15300711389E-01  0.23698037478E-01  0.00000000000E+00 0. -1.
     999901    1    3    3    0    0  0.78369135737E-01  0.66182642222E-01  0.10510065055E+00  0.89217039309E+00  0.88000000000E+00 0.  1.
        -11    1    4    4    0    0 -0.41026653280E-01 -0.36723427811E-01 -0.65985626747E-01  0.85942774494E-01  0.51100000000E-03 0.  1.
         11    1    4    4    0    0 -0.19254214927E-01 -0.28911684440E-01 -0.23814312419E-01  0.42118794933E-01  0.51100000000E-03 0. -1.
</event>
<event>
 8    1  0.1090774E+005  0.1043930E+01  0.7957747E-01            NaN
         13   -1    0    0    0    0  0.00000000000E+00  0.00000000000E+00  0.74505805969E-08  0.10566000000E+00  0.10566000000E+00 0.  1.
     999900   -1    0    0    0    0 -0.00000000000E+00 -0.00000000000E+00 -0.74505805969E-08  0.93827000000E+00  0.93827000000E+00 0. -1.
     999902    2    1    2    0    0 -0.43337602478E-02  0.19038844752E-01  0.13643166014E-01  0.10201099440E+01  0.10198318013E+01 0.  0.
     999903    2    3    3    0    0  0.28234801594E-01  0.52480594729E-02  0.12731655483E+00  0.13209387644E+00  0.20360277752E-01 0.  0.
         14    1    1    2    0    0  0.43337602478E-02 -0.19038844752E-01 -0.13643166014E-01  0.23820055967E-01  0.00000000000E+00 0. -1.
     999901    1    3    3    0    0 -0.32568561842E-01  0.13790785279E-01 -0.11367338881E+00  0.88801606759E+00  0.88000000000E+00 0. -1.
        -11    1    4    4    0    0  0.17425354598E-01 -0.12259223313E-02  0.10514228932E+00  0.10658474559E+00  0.51100000000E-03 0. -1.
         11    1    4    4    0    0  0.10809446996E-01  0.64739818042E-02  0.22174265509E-01  0.25509130848E-01  0.51100000000E-03 0.  1.
</event>
<event>
 8    1  0.1090774E+005  0.1043930E+01  0.7957747E-01            NaN
         13   -1    0    0    0    0  0.00000000000E+00  0.00000000000E+00  0.74505805969E-08  0.10566000000E+00  0.10566000000E+00 0. -1.
     999900   -1    0    0    0    0 -0.00000000000E+00 -0.00000000000E+00 -0.74505805969E-08  0.93827000000E+00  0.93827000000E+00 0.  1.
     999902    2    1    2    0    0  0.39410837045E-02  0.20543823371E-01  0.14941225280E-01  0.10182235605E+01  0.10178990117E+01 0.  0.
     999903    2    3    3    0    0 -0.91872555488E-01 -0.73143469550E-01 -0.39905535518E-01  0.12639076816E+00  0.24323669960E-01 0.  0.
         14    1    1    2    0    0 -0.39410837045E-02 -0.20543823371E-01 -0.14941225280E-01  0.25706439511E-01  0.00000000000E+00 0.  1.
     999901    1    3    3    0    0  0.95813639193E-01  0.93687292921E-01  0.54846760798E-01  0.89183279233E+00  0.88000000000E+00 0. -1.
        -11    1    4    4    0    0 -0.18338588164E-01 -0.43582717912E-02 -0.10041412120E-01  0.21363272858E-01  0.51100000000E-03 0. -1.
         11    1    4    4    0    0 -0.73533967324E-01 -0.68785197759E-01 -0.29864123398E-01  0.10502749530E+00  0.51100000000E-03 0.  1.
</event>
<event>
 8    1  0.1090774E+005  0.1043930E+01  0.7957747E-01            NaN
         13   -1    0    0    0    0  0.00000000000E+00  0.00000000000E+00  0.74505805969E-08  0.10566000000E+00  0.10566000000E+00 0. -1.
     999900   -1    0    0    0    0 -0.00000000000E+00 -0.00000000000E+00 -0.74505805969E-08  0.93827000000E+00  0.93827000000E+00 0.  1.
     999902    2    1    2    0    0  0.13482413534E-01  0.93535731617E-03  0.19632881841E-01  0.10200951428E+01  0.10198166502E+01 0.  0.
     999903    2    3    3    0    0 -0.89002064137E-01 -0.53221435246E-01  0.77056577421E-01  0.13063828204E+00  0.19358616202E-01 0.  0.
         14    1    1    2    0    0 -0.13482413534E-01 -0.93535731617E-03 -0.19632881841E-01  0.23834857193E-01  0.00000000000E+00 0.  1.
     999901    1    3    3    0    0  0.10248447767E+00  0.54156792562E-01 -0.57423695579E-01  0.88945686076E+00  0.88000000000E+00 0. -1.
        -11    1    4    4    0    0 -0.30090183946E-01 -0.28876689837E-01  0.32211967213E-01  0.52698712874E-01  0.51100000000E-03 0. -1.
         11    1    4    4    0    0 -0.58911880192E-01 -0.24344745409E-01  0.44844610208E-01  0.77939569170E-01  0.51100000000E-03 0.  1.
</event>
<event>
 8    1  0.1090774E+005  0.1043930E+01  0.7957747E-01            NaN
         13   -1    0    0    0    0  0.00000000000E+00  0.00000000000E+00  0.74505805969E-08  0.10566000000E+00  0.10566000000E+00 0. -1.
     999900   -1    0    0    0    0 -0.00000000000E+00 -0.00000000000E+00 -0.74505805969E-08  0.93827000000E+00  0.93827000000E+00 0.  1.
     999902    2    1    2    0    0 -0.25095310493E-04  0.24077664269E-01  0.25670542461E-02  0.10197158654E+01  0.10194283309E+01 0.  0.
     999903    2    3    3    0    0  0.15286605108E-01  0.94462119106E-01  0.89477721704E-01  0.13250569653E+00  0.19867679512E-01 0.  0.
         14    1    1    2    0    0  0.25095310494E-04 -0.24077664269E-01 -0.25670542461E-02  0.24214134590E-01  0.00000000000E+00 0. -1.
     999901    1    3    3    0    0 -0.15311700419E-01 -0.70384454837E-01 -0.86910667457E-01  0.88721016888E+00  0.88000000000E+00 0.  1.
        -11    1    4    4    0    0  0.64761846088E-02  0.75709185977E-02  0.13214139123E-01  0.16557003632E-01  0.51100000000E-03 0.  1.
         11    1    4    4    0    0  0.88104204993E-02  0.86891200508E-01  0.76263582581E-01  0.11594869290E+00  0.51100000000E-03 0. -1.
</event>
<event>
 8    1  0.1090774E+005  0.1043930E+01  0.7957747E-01            NaN
         13   -1    0    0    0    0  0.00000000000E+00  0.00000000000E+00  0.74505805969E-08  0.10566000000E+00  0.10566000000E+00 0.  1.
     999900   -1    0    0    0    0 -0.00000000000E+00 -0.00000000000E+00 -0.74505805969E-08  0.93827000000E+00  0.93827000000E+00 0.  1.
     999902    2    1    2    0    0  0.24817563835E-02  0.24429978652E-01  0.60384168584E-02  0.10186427414E+01  0.10183288217E+01 0.  0.
     999903    2    3    3    0    0  0.49200984646E-01  0.11933804945E+00 -0.14113773830E-01  0.13207839570E+00  0.24149473352E-01 0.  0.
         14    1    1    2    0    0 -0.24817563835E-02 -0.24429978652E-01 -0.60384168584E-02  0.25287258646E-01  0.00000000000E+00 0.  1.
     999901    1    3    3    0    0 -0.46719228263E-01 -0.94908070796E-01  0.20152190688E-01  0.88656434565E+00  0.88000000000E+00 0.  1.
        -11    1    4    4    0    0  0.26159246156E-01  0.86739995462E-01 -0.30518792615E-02  0.90651575056E-01  0.51100000000E-03 0. -1.
         11    1    4    4    0    0  0.23041738490E-01  0.32598053986E-01 -0.11061894568E-01  0.41426820645E-01  0.51100000000E-03 0.  1.
</event>
<event>
 8    1  0.1090774E+005  0.1043930E+01  0.7957747E-01            NaN
         13   -1    0    0    0    0  0.00000000000E+00  0.00000000000E+00  0.74505805969E-08  0.10566000000E+00  0.10566000000E+00 0.  1.
     999900   -1    0    0    0    0 -0.00000000000E+00 -0.00000000000E+00 -0.74505805969E-08  0.93827000000E+00  0.93827000000E+00 0. -1.
     999902    2    1    2    0    0 -0.49274489441E-02 -0.19030114464E-01 -0.13388154578E-01  0.10201462305E+01  0.10198689445E+01 0.  0.
     999903    2    3    3    0    0 -0.11248746648E+00  0.52157325281E-01 -0.35301916390E-01  0.13047380655E+00  0.20084128004E-01 0.  0.
         14    1    1    2    0    0  0.49274489441E-02  0.19030114464E-01  0.13388154578E-01  0.23783769521E-01  0.00000000000E+00 0.  1.
     999901    1    3    3    0    0  0.10756001754E+00 -0.71187439745E-01  0.21913761812E-01  0.88967242393E+00  0.88000000000E+00 0. -1.
        -11    1    4    4    0    0 -0.76167975841E-01  0.29966798753E-01 -0.31627658866E-01  0.87750438732E-01  0.51100000000E-03 0.  1.
         11    1    4    4    0    0 -0.36319490641E-01  0.22190526529E-01 -0.36742575238E-02  0.42723367815E-01  0.51100000000E-03 0. -1.
</event>
<event>
 8    1  0.1090774E+005  0.1043930E+01  0.7957747E-01            NaN
         13   -1    0    0    0    0  0.00000000000E+00  0.00000000000E+00  0.74505805969E-08  0.10566000000E+00  0.10566000000E+00 0.  1.
     999900   -1    0    0    0    0 -0.00000000000E+00 -0.00000000000E+00 -0.74505805969E-08  0.93827000000E+00  0.93827000000E+00 0. -1.
     999902    2    1    2    0    0  0.52821181915E-02 -0.43359053323E-02  0.18519019866E-01  0.10241903206E+01  0.10240000770E+01 0.  0.
     999903    2    3    3    0    0 -0.25503379448E-01 -0.11139703744E+00 -0.65772407487E-01  0.13317130976E+00  0.18677950734E-01 0.  0.
         14    1    1    2    0    0 -0.52821181915E-02  0.43359053323E-02 -0.18519019866E-01  0.19739679441E-01  0.00000000000E+00 0. -1.
     999901    1    3    3    0    0  0.30785497640E-01  0.10706113211E+00  0.84291427353E-01  0.89101901080E+00  0.88000000000E+00 0.  1.
        -11    1    4    4    0    0  0.23387023301E-02 -0.72435758841E-02 -0.19094220345E-02  0.78642185679E-02  0.51100000000E-03 0.  1.
         11    1    4    4    0    0 -0.27842081778E-01 -0.10415346156E+00 -0.63862985452E-01  0.12530709120E+00  0.51100000000E-03 0. -1.
</event>
<event>
 8    1  0.1090774E+005  0.1043930E+01  0.7957747E-01            NaN
         13   -1    0    0    0    0  0.00000000000E+00  0.00000000000E+00  0.74505805969E-08  0.10566000000E+00  0.10566000000E+00 0.  1.
     999900   -1    0    0    0    0 -0.00000000000E+00 -0.00000000000E+00 -0.74505805969E-08  0.93827000000E+00  0.93827000000E+00 0. -1.
     999902    2    1    2    0    0 -0.22488040258E-01  0.70467901611E-02  0.56731630088E-02  0.10196904871E+01  0.10194023423E+01 0.  0.
     999903    2    3    3    0    0 -0.57101994722E-01 -0.67851836753E-01 -0.93817555320E-01  0.13024890208E+00  0.17278114932E-01 0.  0.
         14    1    1    2    0    0  0.22488040258E-01 -0.70467901611E-02 -0.56731630088E-02  0.24239512882E-01  0.00000000000E+00 0.  1.
     999901    1    3    3    0    0  0.34613954464E-01  0.74898626914E-01  0.99490718329E-01  0.88944158504E+00  0.88000000000E+00 0.  1.
        -11    1    4    4    0    0 -0.47265082243E-01 -0.58886416701E-01 -0.70027317012E-01  0.10298390321E+00  0.51100000000E-03 0.  1.
         11    1    4    4    0    0 -0.98369124789E-02 -0.89654200522E-02 -0.23790238308E-01  0.27264998874E-01  0.51100000000E-03 0. -1.
</event>
<event>
 8    1  0.1090774E+005  0.1043930E+01  0.7957747E-01            NaN
         13   -1    0    0    0    0  0.00000000000E+00  0.00000000000E+00  0.74505805969E-08  0.10566000000E+00  0.10566000000E+00 0.  1.
     999900   -1    0    0    0    0 -0.00000000000E+00 -0.00000000000E+00 -0.74505805969E-08  0.93827000000E+00  0.93827000000E+00 0.  1.
     999902    2    1    2    0    0 -0.77059220588E-02 -0.73366107826E-02  0.20602861931E-01  0.10207419640E+01  0.10204785505E+01 0.  0.
     999903    2    3    3    0    0  0.49617683215E-01 -0.28772039048E-01  0.11876559309E+00  0.13317146255E+00  0.18428988463E-01 0.  0.
         14    1    1    2    0    0  0.77059220588E-02  0.73366107826E-02 -0.20602861931E-01  0.23188035973E-01  0.00000000000E+00 0. -1.
     999901    1    3    3    0    0 -0.57323605274E-01  0.21435428265E-01 -0.98162731162E-01  0.88757050148E+00  0.88000000000E+00 0.  1.
        -11    1    4    4    0    0  0.40839078196E-01 -0.17406939854E-01  0.10096073346E+00  0.11029126295E+00  0.51100000000E-03 0. -1.
         11    1    4    4    0    0  0.87786050191E-02 -0.11365099193E-01  0.17804859637E-01  0.22880199594E-01  0.51100000000E-03 0.  1.
</event>
<event>
 8    1  0.1090774E+005  0.1043930E+01  0.7957747E-01            NaN
         13   -1    0    0    0    0  0.00000000000E+00  0.00000000000E+00  0.74505805969E-08  0.10566000000E+00  0.10566000000E+00 0. -1.
     999900   -1    0    0    0    0 -0.00000000000E+00 -0.00000000000E+00 -0.74505805969E-08  0.93827000000E+00  0.93827000000E+00 0.  1.
     999902    2    1    2    0    0 -0.16700718737E-01  0.52208253405E-02  0.15215184770E-01  0.10207422258E+01  0.10204788184E+01 0.  0.
     999903    2    3    3    0    0  0.66334057184E-01 -0.56948313256E-01  0.94589290015E-01  0.13110183534E+00  0.24438492545E-01 0.  0.
         14    1    1    2    0    0  0.16700718737E-01 -0.52208253405E-02 -0.15215184770E-01  0.23187774174E-01  0.00000000000E+00 0.  1.
     999901    1    3    3    0    0 -0.83034775921E-01  0.62169138597E-01 -0.79374105245E-01  0.88964039049E+00  0.88000000000E+00 0.  1.
        -11    1    4    4    0    0  0.26085091712E-01 -0.38429594228E-01  0.47017188476E-01  0.66091927309E-01  0.51100000000E-03 0.  1.
         11    1    4    4    0    0  0.40248965472E-01 -0.18518719028E-01  0.47572101538E-01  0.65009908028E-01  0.51100000000E-03 0. -1.
</event>
<event>
 8    1  0.1090774E+005  0.1043930E+01  0.7957747E-01            NaN
         13   -1    0    0    0    0  0.00000000000E+00  0.00000000000E+00  0.74505805969E-08  0.10566000000E+00  0.10566000000E+00 0.  1.
     999900   -1    0    0    0    0 -0.00000000000E+00 -0.00000000000E+00 -0.74505805969E-08  0.93827000000E+00  0.93827000000E+00 0.  1.
     999902    2    1    2    0    0  0.15321440871E-01  0.36888746490E-02 -0.17046053899E-01  0.10207152999E+01  0.10204512733E+01 0.  0.
     999903    2    3    3    0    0  0.46952777707E-01 -0.13199325075E-01 -0.12274056746E+00  0.13366564913E+00  0.20554156286E-01 0.  0.
         14    1    1    2    0    0 -0.15321440871E-01 -0.36888746490E-02  0.17046053899E-01  0.23214700085E-01  0.00000000000E+00 0.  1.
     999901    1    3    3    0    0 -0.31631336837E-01  0.16888199724E-01  0.10569451356E+00  0.88704965078E+00  0.88000000000E+00 0. -1.
        -11    1    4    4    0    0  0.17582798910E-01 -0.15288120980E-01 -0.59631643198E-01  0.64024022461E-01  0.51100000000E-03 0. -1.
         11    1    4    4    0    0  0.29369978797E-01  0.20887959045E-02 -0.63108924260E-01  0.69641626669E-01  0.51100000000E-03 0.  1.
</event>
<event>
 8    1  0.1090774E+005  0.1043930E+01  0.7957747E-01            NaN
         13   -1    0    0    0    0  0.00000000000E+00  0.00000000000E+00  0.74505805969E-08  0.10566000000E+00  0.10566000000E+00 0. -1.
     999900   -1    0    0    0    0 -0.00000000000E+00 -0.00000000000E+00 -0.74505805969E-08  0.93827000000E+00  0.93827000000E+00 0. -1.
     999902    2    1    2    0    0  0.53730456250E-02 -0.30305457939E-02 -0.93534422287E-02  0.10327255050E+01  0.10326647219E+01 0.  0.
     999903    2    3    3    0    0  0.50834397481E-01 -0.99035959769E-01 -0.87261767568E-01  0.14292019977E+00  0.20477063476E-01 0.  0.
         14    1    1    2    0    0 -0.53730456250E-02  0.30305457939E-02  0.93534422287E-02  0.11204495019E-01  0.00000000000E+00 0.  1.
     999901    1    3    3    0    0 -0.45461351856E-01  0.96005413975E-01  0.77908325339E-01  0.88980530521E+00  0.88000000000E+00 0.  1.
        -11    1    4    4    0    0  0.17523736334E-01 -0.54896788350E-01 -0.39688808125E-01  0.69972861294E-01  0.51100000000E-03 0. -1.
         11    1    4    4    0    0  0.33310661147E-01 -0.44139171419E-01 -0.47572959443E-01  0.72947338476E-01  0.51100000000E-03 0.  1.
</event>
<event>
 8    1  0.1090774E+005  0.1043930E+01  0.7957747E-01            NaN
         13   -1    0    0    0    0  0.00000000000E+00  0.00000000000E+00  0.74505805969E-08  0.10566000000E+00  0.10566000000E+00 0. -1.
     999900   -1    0    0    0    0 -0.00000000000E+00 -0.00000000000E+00 -0.74505805969E-08  0.93827000000E+00  0.93827000000E+00 0. -1.
     999902    2    1    2    0    0  0.18932044040E-01 -0.25557488674E-03  0.14762438566E-01  0.10199213099E+01  0.10196386914E+01 0.  0.
     999903    2    3    3    0    0 -0.48601292621E-01  0.90514716463E-01  0.77952823252E-01  0.13043099396E+00  0.19509023347E-01 0.  0.
         14    1    1    2    0    0 -0.18932044040E-01  0.25557488674E-03 -0.14762438566E-01  0.24008690144E-01  0.00000000000E+00 0.  1.
     999901    1    3    3    0    0  0.67533336661E-01 -0.90770291350E-01 -0.63190384686E-01  0.88949031589E+00  0.88000000000E+00 0.  1.
        -11    1    4    4    0    0 -0.13947949417E-01  0.43678746458E-01  0.28339627768E-01  0.53905229877E-01  0.51100000000E-03 0.  1.
         11    1    4    4    0    0 -0.34653343204E-01  0.46835970005E-01  0.49613195484E-01  0.76525764085E-01  0.51100000000E-03 0. -1.
</event>
<event>
 8    1  0.1090774E+005  0.1043930E+01  0.7957747E-01            NaN
         13   -1    0    0    0    0  0.00000000000E+00  0.00000000000E+00  0.74505805969E-08  0.10566000000E+00  0.10566000000E+00 0. -1.
     999900   -1    0    0    0    0 -0.00000000000E+00 -0.00000000000E+00 -0.74505805969E-08  0.93827000000E+00  0.93827000000E+00 0. -1.
     999902    2    1    2    0    0 -0.14112250281E-01 -0.16130113050E-01  0.10211794890E-01  0.10201893827E+01  0.10199131138E+01 0.  0.
     999903    2    3    3    0    0 -0.52702000213E-01  0.67396414069E-01 -0.94773424129E-01  0.12918559722E+00  0.19675851977E-01 0.  0.
         14    1    1    2    0    0  0.14112250281E-01  0.16130113050E-01 -0.10211794890E-01  0.23740617302E-01  0.00000000000E+00 0.  1.
     999901    1    3    3    0    0  0.38589749932E-01 -0.83526527119E-01  0.10498521902E+00  0.89100378548E+00  0.88000000000E+00 0. -1.
        -11    1    4    4    0    0 -0.70271415626E-02  0.20470523467E-01 -0.30715146942E-01  0.37577977889E-01  0.51100000000E-03 0.  1.
         11    1    4    4    0    0 -0.45674858651E-01  0.46925890601E-01 -0.64058277187E-01  0.91607619326E-01  0.51100000000E-03 0. -1.
</event>
<event>
 8    1  0.1090774E+005  0.1043930E+01  0.7957747E-01            NaN
         13   -1    0    0    0    0  0.00000000000E+00  0.00000000000E+00  0.74505805969E-08  0.10566000000E+00  0.10566000000E+00 0. -1.
     999900   -1    0    0    0    0 -0.00000000000E+00 -0.00000000000E+00 -0.74505805969E-08  0.93827000000E+00  0.93827000000E+00 0.  1.
     999902    2    1    2    0    0 -0.11185442646E-01 -0.20207508770E-01  0.65671368877E-02  0.10199178192E+01  0.10196351177E+01 0.  0.
     999903    2    3    3    0    0 -0.81366569497E-03 -0.61809495137E-01  0.11506457879E+00  0.13221854926E+00  0.20513696317E-01 0.  0.
         14    1    1    2    0    0  0.11185442646E-01  0.20207508770E-01 -0.65671368877E-02  0.24012180758E-01  0.00000000000E+00 0. -1.
     999901    1    3    3    0    0 -0.10371776951E-01  0.41601986367E-01 -0.10849744190E+00  0.88769926998E+00  0.88000000000E+00 0.  1.
        -11    1    4    4    0    0  0.95019004615E-02 -0.29831382500E-01  0.50176790517E-01  0.59145320372E-01  0.51100000000E-03 0. -1.
         11    1    4    4    0    0 -0.10315566157E-01 -0.31978112637E-01  0.64887788268E-01  0.73073228889E-01  0.51100000000E-03 0.  1.
</event>
<event>
 8    1  0.1090774E+005  0.1043930E+01  0.7957747E-01            NaN
         13   -1    0    0    0    0  0.00000000000E+00  0.00000000000E+00  0.74505805969E-08  0.10566000000E+00  0.10566000000E+00 0. -1.
     999900   -1    0    0    0    0 -0.00000000000E+00 -0.00000000000E+00 -0.74505805969E-08  0.93827000000E+00  0.93827000000E+00 0. -1.
     999902    2    1    2    0    0  0.64870920288E-02 -0.15717064077E-01  0.20029077469E-01  0.10176569642E+01  0.10173177598E+01 0.  0.
     999903    2    3    3    0    0  0.33518838433E-01 -0.12175402048E+00  0.27990666628E-01  0.13084360258E+00  0.19723510949E-01 0.  0.
         14    1    1    2    0    0 -0.64870920288E-02  0.15717064077E-01 -0.20029077469E-01  0.26273035806E-01  0.00000000000E+00 0. -1.
     999901    1    3    3    0    0 -0.27031746404E-01  0.10603695640E+00 -0.79615891585E-02  0.88681336162E+00  0.88000000000E+00 0.  1.
        -11    1    4    4    0    0  0.28172935822E-01 -0.75428865373E-01  0.24084325670E-01  0.84044892220E-01  0.51100000000E-03 0.  1.
         11    1    4    4    0    0  0.53459026113E-02 -0.46325155109E-01  0.39063409583E-02  0.46798710359E-01  0.51100000000E-03 0. -1.
</event>
<event>
 8    1  0.1090774E+005  0.1043930E+01  0.7957747E-01            NaN
         13   -1    0    0    0    0  0.00000000000E+00  0.00000000000E+00  0.74505805969E-08  0.10566000000E+00  0.10566000000E+00 0.  1.
     999900   -1    0    0    0    0 -0.00000000000E+00 -0.00000000000E+00 -0.74505805969E-08  0.93827000000E+00  0.93827000000E+00 0.  1.
     999902    2    1    2    0    0  0.12268236050E-01  0.16022231823E-01  0.33231227605E-02  0.10234784799E+01  0.10232741247E+01 0.  0.
     999903    2    3    3    0    0  0.87139823233E-01 -0.60975909582E-01 -0.77605253180E-01  0.13326284853E+00  0.20615555672E-01 0.  0.
         14    1    1    2    0    0 -0.12268236050E-01 -0.16022231823E-01 -0.33231227605E-02  0.20451520072E-01  0.00000000000E+00 0. -1.
     999901    1    3    3    0    0 -0.74871587183E-01  0.76998141405E-01  0.80928375940E-01  0.89021563139E+00  0.88000000000E+00 0. -1.
        -11    1    4    4    0    0  0.55589715143E-01 -0.33511885803E-01 -0.35832301732E-01  0.74144978847E-01  0.51100000000E-03 0. -1.
         11    1    4    4    0    0  0.31550108090E-01 -0.27464023779E-01 -0.41772951448E-01  0.59117869686E-01  0.51100000000E-03 0.  1.
</event>
<event>
 8    1  0.1090774E+005  0.1043930E+01  0.7957747E-01            NaN
         13   -1    0    0    0    0  0.00000000000E+00  0.00000000000E+00  0.74505805969E-08  0.10566000000E+00  0.10566000000E+00 0.  1.
     999900   -1    0    0    0    0 -0.00000000000E+00 -0.00000000000E+00 -0.74505805969E-08  0.93827000000E+00  0.93827000000E+00 0.  1.
     999902    2    1    2    0    0  0.21123603411E-01  0.12708582055E-01  0.85389336452E-02  0.10178411505E+01  0.10175067467E+01 0.  0.
     999903    2    3    3    0    0  0.59828604453E-01  0.32461248486E-01  0.10997772908E+00  0.13094878155E+00  0.20476521460E-01 0.  0.
         14    1    1    2    0    0 -0.21123603411E-01 -0.12708582055E-01 -0.85389336452E-02  0.26088849471E-01  0.00000000000E+00 0. -1.
     999901    1    3    3    0    0 -0.38705001041E-01 -0.19752666431E-01 -0.10143879544E+00  0.88689236898E+00  0.88000000000E+00 0.  1.
        -11    1    4    4    0    0  0.24884234741E-01  0.32622461827E-02  0.46224197984E-01  0.52600427651E-01  0.51100000000E-03 0.  1.
         11    1    4    4    0    0  0.34944369711E-01  0.29199002304E-01  0.63753531097E-01  0.78348353897E-01  0.51100000000E-03 0. -1.
</event>
<event>
 8    1  0.1090774E+005  0.1043930E+01  0.7957747E-01            NaN
         13   -1    0    0    0    0  0.00000000000E+00  0.00000000000E+00  0.74505805969E-08  0.10566000000E+00  0.10566000000E+00 0.  1.
     999900   -1    0    0    0    0 -0.00000000000E+00 -0.00000000000E+00 -0.74505805969E-08  0.93827000000E+00  0.93827000000E+00 0.  1.
     999902    2    1    2    0    0 -0.17037280262E-01 -0.13318826120E-01  0.14070228791E-01  0.10181301669E+01  0.10178032253E+01 0.  0.
     999903    2    3    3    0    0 -0.88659615344E-01 -0.93149821682E-01 -0.16101845131E-01  0.13110530777E+00  0.19796859249E-01 0.  0.
         14    1    1    2    0    0  0.17037280262E-01  0.13318826120E-01 -0.14070228791E-01  0.25799833065E-01  0.00000000000E+00 0. -1.
     999901    1    3    3    0    0  0.71622335082E-01  0.79830995562E-01  0.30172073921E-01  0.88702485917E+00  0.88000000000E+00 0. -1.
        -11    1    4    4    0    0 -0.19387065393E-01 -0.32669477228E-01 -0.76682580195E-02  0.38758435843E-01  0.51100000000E-03 0.  1.
         11    1    4    4    0    0 -0.69272549950E-01 -0.60480344454E-01 -0.84335871113E-02  0.92346871926E-01  0.51100000000E-03 0. -1.
</event>
<event>
 8    1  0.1090774E+005  0.1043930E+01  0.7957747E-01            NaN
         13   -1    0    0    0    0  0.00000000000E+00  0.00000000000E+00  0.74505805969E-08  0.10566000000E+00  0.10566000000E+00 0.  1.
     999900   -1    0    0    0    0 -0.00000000000E+00 -0.00000000000E+00 -0.74505805969E-08  0.93827000000E+00  0.93827000000E+00 0.  1.
     999902    2    1    2    0    0 -0.16965037708E-01  0.52173999357E-02 -0.16847105183E-01  0.10194584100E+01  0.10191646535E+01 0.  0.
     999903    2    3    3    0    0 -0.10486886983E+00 -0.66090722474E-01  0.35875852386E-01  0.13064366982E+00  0.20377149527E-01 0.  0.
         14    1    1    2    0    0  0.16965037708E-01 -0.52173999357E-02  0.16847105183E-01  0.24471590050E-01  0.00000000000E+00 0.  1.
     999901    1    3    3    0    0  0.87903832120E-01  0.71308122410E-01 -0.52722957569E-01  0.88881474013E+00  0.88000000000E+00 0. -1.
        -11    1    4    4    0    0 -0.52678171009E-01 -0.32118846959E-01  0.28396545270E-01  0.67920798988E-01  0.51100000000E-03 0.  1.
         11    1    4    4    0    0 -0.52190698818E-01 -0.33971875515E-01  0.74793071157E-02  0.62722870830E-01  0.51100000000E-03 0. -1.
</event>
<event>
 8    1  0.1090774E+005  0.1043930E+01  0.7957747E-01            NaN
         13   -1    0    0    0    0  0.00000000000E+00  0.00000000000E+00  0.74505805969E-08  0.10566000000E+00  0.10566000000E+00 0. -1.
     999900   -1    0    0    0    0 -0.00000000000E+00 -0.00000000000E+00 -0.74505805969E-08  0.93827000000E+00  0.93827000000E+00 0. -1.
     999902    2    1    2    0    0 -0.25960926020E-01  0.85848826052E-02 -0.12885734554E-01  0.10137023298E+01  0.10132515490E+01 0.  0.
     999903    2    3    3    0    0 -0.29837825285E-01  0.12056257164E+00  0.10779530846E-01  0.12628243036E+00  0.20135154159E-01 0.  0.
         14    1    1    2    0    0  0.25960926020E-01 -0.85848826052E-02  0.12885734554E-01  0.30227670174E-01  0.00000000000E+00 0. -1.
     999901    1    3    3    0    0  0.38768992647E-02 -0.11197768904E+00 -0.23665265400E-01  0.88741989947E+00  0.88000000000E+00 0.  1.
        -11    1    4    4    0    0 -0.11526070261E-01  0.20401617963E-01 -0.26126595835E-02  0.23583117315E-01  0.51100000000E-03 0.  1.
         11    1    4    4    0    0 -0.18311755023E-01  0.10016095368E+00  0.13392190430E-01  0.10269931304E+00  0.51100000000E-03 0. -1.
</event>
<event>
 8    1  0.1090774E+005  0.1043930E+01  0.7957747E-01            NaN
         13   -1    0    0    0    0  0.00000000000E+00  0.00000000000E+00  0.74505805969E-08  0.10566000000E+00  0.10566000000E+00 0.  1.
     999900   -1    0    0    0    0 -0.00000000000E+00 -0.00000000000E+00 -0.74505805969E-08  0.93827000000E+00  0.93827000000E+00 0. -1.
     999902    2    1    2    0    0  0.18858501764E-01 -0.47904071879E-02  0.12862161733E-01  0.10206056287E+01  0.10203390726E+01 0.  0.
     999903    2    3    3    0    0  0.12287413452E+00 -0.33014557456E-01 -0.33063382232E-01  0.13284157783E+00  0.19122855867E-01 0.  0.
         14    1    1    2    0    0 -0.18858501764E-01  0.47904071879E-02 -0.12862161733E-01  0.23324371251E-01  0.00000000000E+00 0.  1.
     999901    1    3    3    0    0 -0.10401563276E+00  0.28224150268E-01  0.45925543964E-01  0.88776405092E+00  0.88000000000E+00 0.  1.
        -11    1    4    4    0    0  0.25675948003E-01 -0.88005500379E-02  0.63645166672E-03  0.27154560916E-01  0.51100000000E-03 0.  1.
         11    1    4    4    0    0  0.97198186521E-01 -0.24214007418E-01 -0.33699833898E-01  0.10568701691E+00  0.51100000000E-03 0. -1.
</event>
<event>
 8    1  0.1090774E+005  0.1043930E+01  0.7957747E-01            NaN
         13   -1    0    0    0    0  0.00000000000E+00  0.00000000000E+00  0.74505805969E-08  0.10566000000E+00  0.10566000000E+00 0.  1.
     999900   -1    0    0    0    0 -0.00000000000E+00 -0.00000000000E+00 -0.74505805969E-08  0.93827000000E+00  0.93827000000E+00 0.  1.
     999902    2    1    2    0    0  0.13794206515E-04  0.13427585270E-01 -0.18903426579E-01  0.10207429395E+01  0.10204795485E+01 0.  0.
     999903    2    3    3    0    0  0.30785418314E-01  0.72200664112E-01 -0.10661316766E+00  0.13389787622E+00  0.20039856750E-01 0.  0.
         14    1    1    2    0    0 -0.13794206515E-04 -0.13427585270E-01  0.18903426579E-01  0.23187060462E-01  0.00000000000E+00 0.  1.
     999901    1    3    3    0    0 -0.30771624108E-01 -0.58773078842E-01  0.87709741084E-01  0.88684506332E+00  0.88000000000E+00 0. -1.
        -11    1    4    4    0    0  0.11127118050E-01  0.24426501036E-01 -0.21774439637E-01  0.34566660982E-01  0.51100000000E-03 0.  1.
         11    1    4    4    0    0  0.19658300264E-01  0.47774163076E-01 -0.84838728026E-01  0.99331215239E-01  0.51100000000E-03 0. -1.
</event>
<event>
 8    1  0.1090774E+005  0.1043930E+01  0.7957747E-01            NaN
         13   -1    0    0    0    0  0.00000000000E+00  0.00000000000E+00  0.74505805969E-08  0.10566000000E+00  0.10566000000E+00 0. -1.
     999900   -1    0    0    0    0 -0.00000000000E+00 -0.00000000000E+00 -0.74505805969E-08  0.93827000000E+00  0.93827000000E+00 0. -1.
     999902    2    1    2    0    0 -0.17924489049E-01  0.56198710717E-02  0.18471579314E-01  0.10175848012E+01  0.10172437063E+01 0.  0.
     999903    2    3    3    0    0  0.11828696232E-03  0.34741354299E-01  0.12423416896E+00  0.13059025333E+00  0.20315261189E-01 0.  0.
         14    1    1    2    0    0  0.17924489049E-01 -0.56198710717E-02 -0.18471579314E-01  0.26345198820E-01  0.00000000000E+00 0.  1.
     999901    1    3    3    0    0 -0.18042776011E-01 -0.29121483227E-01 -0.10576258964E+00  0.88699454785E+00  0.88000000000E+00 0. -1.
        -11    1    4    4    0    0 -0.64992549784E-02  0.32505280099E-01  0.99089662215E-01  0.10448854401E+00  0.51100000000E-03 0. -1.
         11    1    4    4    0    0  0.66175419407E-02  0.22360741992E-02  0.25144506743E-01  0.26101709322E-01  0.51100000000E-03 0.  1.
</event>
<event>
 8    1  0.1090774E+005  0.1043930E+01  0.7957747E-01            NaN
         13   -1    0    0    0    0  0.00000000000E+00  0.00000000000E+00  0.74505805969E-08  0.10566000000E+00  0.10566000000E+00 0.  1.
     999900   -1    0    0    0    0 -0.00000000000E+00 -0.00000000000E+00 -0.74505805969E-08  0.93827000000E+00  0.93827000000E+00 0. -1.
     999902    2    1    2    0    0 -0.16643063805E-01 -0.12161621844E-01 -0.13828517080E-01  0.10191081446E+01  0.10188058137E+01 0.  0.
     999903    2    3    3    0    0 -0.11725871722E+00  0.51698289610E-01  0.14629526474E-01  0.13061984520E+00  0.20620402573E-01 0.  0.
         14    1    1    2    0    0  0.16643063805E-01  0.12161621844E-01  0.13828517080E-01  0.24821855356E-01  0.00000000000E+00 0. -1.
     999901    1    3    3    0    0  0.10061565342E+00 -0.63859911455E-01 -0.28458043554E-01  0.88848829944E+00  0.88000000000E+00 0.  1.
        -11    1    4    4    0    0 -0.58974999726E-01  0.28424648342E-01  0.17582933345E-01  0.67789614928E-01  0.51100000000E-03 0.  1.
         11    1    4    4    0    0 -0.58283717496E-01  0.23273641268E-01 -0.29534068706E-02  0.62830230273E-01  0.51100000000E-03 0. -1.
</event>
<event>
 8    1  0.1090774E+005  0.1043930E+01  0.7957747E-01            NaN
         13   -1    0    0    0    0  0.00000000000E+00  0.00000000000E+00  0.74505805969E-08  0.10566000000E+00  0.10566000000E+00 0.  1.
     999900   -1    0    0    0    0 -0.00000000000E+00 -0.00000000000E+00 -0.74505805969E-08  0.93827000000E+00  0.93827000000E+00 0.  1.
     999902    2    1    2    0    0  0.66385984632E-02 -0.53338359910E-02 -0.21024189784E-01  0.10212465842E+01  0.10209946368E+01 0.  0.
     999903    2    3    3    0    0 -0.24824101839E-01  0.11917725892E+00 -0.45519515767E-01  0.13158769718E+00  0.20587390768E-01 0.  0.
         14    1    1    2    0    0 -0.66385984632E-02  0.53338359910E-02  0.21024189784E-01  0.22683415793E-01  0.00000000000E+00 0.  1.
     999901    1    3    3    0    0  0.31462700302E-01 -0.12451109491E+00  0.24495325983E-01  0.88965888702E+00  0.88000000000E+00 0.  1.
        -11    1    4    4    0    0 -0.51566242493E-02  0.14950278337E-01  0.80946300694E-03  0.15843545921E-01  0.51100000000E-03 0. -1.
         11    1    4    4    0    0 -0.19667477590E-01  0.10422698058E+00 -0.46328978774E-01  0.11574415126E+00  0.51100000000E-03 0.  1.
</event>
<event>
 8    1  0.1090774E+005  0.1043930E+01  0.7957747E-01            NaN
         13   -1    0    0    0    0  0.00000000000E+00  0.00000000000E+00  0.74505805969E-08  0.10566000000E+00  0.10566000000E+00 0. -1.
     999900   -1    0    0    0    0 -0.00000000000E+00 -0.00000000000E+00 -0.74505805969E-08  0.93827000000E+00  0.93827000000E+00 0. -1.
     999902    2    1    2    0    0  0.29054665402E-02  0.23807878528E-01  0.73613322687E-02  0.10188412370E+01  0.10185322873E+01 0.  0.
     999903    2    3    3    0    0  0.99420960720E-01 -0.74424390964E-01  0.23438640812E-01  0.12798586197E+00  0.20186470204E-01 0.  0.
         14    1    1    2    0    0 -0.29054665402E-02 -0.23807878528E-01 -0.73613322687E-02  0.25088762994E-01  0.00000000000E+00 0. -1.
     999901    1    3    3    0    0 -0.96515494180E-01  0.98232269491E-01 -0.16077308543E-01  0.89085537504E+00  0.88000000000E+00 0. -1.
        -11    1    4    4    0    0  0.19443823341E-01 -0.57132534516E-02  0.18421488401E-02  0.20355789459E-01  0.51100000000E-03 0.  1.
         11    1    4    4    0    0  0.79977137379E-01 -0.68711137512E-01  0.21596491972E-01  0.10763007251E+00  0.51100000000E-03 0. -1.
</event>
<event>
 8    1  0.1090774E+005  0.1043930E+01  0.7957747E-01            NaN
         13   -1    0    0    0    0  0.00000000000E+00  0.00000000000E+00  0.74505805969E-08  0.10566000000E+00  0.10566000000E+00 0. -1.
     999900   -1    0    0    0    0 -0.00000000000E+00 -0.00000000000E+00 -0.74505805969E-08  0.93827000000E+00  0.93827000000E+00 0.  1.
     999902    2    1    2    0    0  0.14868721908E-02 -0.22858008233E-01 -0.62304340752E-02  0.10201914735E+01  0.10199152539E+01 0.  0.
     999903    2    3    3    0    0 -0.20431861084E-01  0.15494599001E-01 -0.12675899671E+00  0.13087798115E+00  0.20091270658E-01 0.  0.
         14    1    1    2    0    0 -0.14868721908E-02  0.22858008233E-01  0.62304340752E-02  0.23738526451E-01  0.00000000000E+00 0.  1.
     999901    1    3    3    0    0  0.21918733275E-01 -0.38352607234E-01  0.12052856264E+00  0.88931349240E+00  0.88000000000E+00 0.  1.
        -11    1    4    4    0    0 -0.18549336353E-01  0.14658475092E-01 -0.66462157612E-01  0.70543804027E-01  0.51100000000E-03 0.  1.
         11    1    4    4    0    0 -0.18825247313E-02  0.83612390948E-03 -0.60296839102E-01  0.60334177124E-01  0.51100000000E-03 0. -1.
</event>
<event>
 8    1  0.1090774E+005  0.1043930E+01  0.7957747E-01            NaN
         13   -1    0    0    0    0  0.00000000000E+00  0.00000000000E+00  0.74505805969E-08  0.10566000000E+00  0.10566000000E+00 0.  1.
     999900   -1    0    0    0    0 -0.00000000000E+00 -0.00000000000E+00 -0.74505805969E-08  0.93827000000E+00  0.93827000000E+00 0.  1.
     999902    2    1    2    0    0 -0.16190630921E-01  0.10497149850E-01  0.29691223976E-02  0.10244071321E+01  0.10242210845E+01 0.  0.
     999903    2    3    3    0    0 -0.11802523403E+00 -0.80437693794E-02  0.64440026494E-01  0.13621080009E+00  0.20154576533E-01 0.  0.
         14    1    1    2    0    0  0.16190630921E-01 -0.10497149850E-01 -0.29691223976E-02  0.19522867935E-01  0.00000000000E+00 0. -1.
     999901    1    3    3    0    0  0.10183460310E+00  0.18540919229E-01 -0.61470904097E-01  0.88819633197E+00  0.88000000000E+00 0.  1.
        -11    1    4    4    0    0 -0.10360381828E+00 -0.84526022453E-02  0.48505766577E-01  0.11470949463E+00  0.51100000000E-03 0. -1.
         11    1    4    4    0    0 -0.14421415747E-01  0.40883286597E-03  0.15934259917E-01  0.21501305462E-01  0.51100000000E-03 0.  1.
</event>
<event>
 8    1  0.1090774E+005  0.1043930E+01  0.7957747E-01            NaN
         13   -1    0    0    0    0  0.00000000000E+00  0.00000000000E+00  0.74505805969E-08  0.10566000000E+00  0.10566000000E+00 0.  1.
     999900   -1    0    0    0    0 -0.00000000000E+00 -0.00000000000E+00 -0.74505805969E-08  0.93827000000E+00  0.93827000000E+00 0. -1.
     999902    2    1    2    0    0 -0.20412721461E-01  0.69995789708E-02  0.79336083473E-02  0.10209383614E+01  0.10206794415E+01 0.  0.
     999903    2    3    3    0    0 -0.32421998406E-01  0.55386336873E-01  0.11448620028E+00  0.13311013709E+00  0.22189777982E-01 0.  0.
         14    1    1    2    0    0  0.20412721461E-01 -0.69995789708E-02 -0.79336083473E-02  0.22991638580E-01  0.00000000000E+00 0.  1.
     999901    1    3    3    0    0  0.12009276945E-01 -0.48386757902E-01 -0.10655259194E+00  0.88782822433E+00  0.88000000000E+00 0. -1.
        -11    1    4    4    0    0 -0.19526702620E-01  0.25582294074E-01  0.77324361142E-01  0.83755977890E-01  0.51100000000E-03 0.  1.
         11    1    4    4    0    0 -0.12895295786E-01  0.29804042799E-01  0.37161839142E-01  0.49354159197E-01  0.51100000000E-03 0. -1.
</event>
<event>
 8    1  0.1090774E+005  0.1043930E+01  0.7957747E-01            NaN
         13   -1    0    0    0    0  0.00000000000E+00  0.00000000000E+00  0.74505805969E-08  0.10566000000E+00  0.10566000000E+00 0. -1.
     999900   -1    0    0    0    0 -0.00000000000E+00 -0.00000000000E+00 -0.74505805969E-08  0.93827000000E+00  0.93827000000E+00 0. -1.
     999902    2    1    2    0    0  0.10488241314E-01  0.32533668126E-01 -0.33580019594E-02  0.10095829631E+01  0.10089985334E+01 0.  0.
     999903    2    3    3    0    0  0.70399950282E-01  0.99734893263E-01  0.16743563695E-01  0.12476123501E+00  0.19540135681E-01 0.  0.
         14    1    1    2    0    0 -0.10488241314E-01 -0.32533668126E-01  0.33580019594E-02  0.34347036914E-01  0.00000000000E+00 0.  1.
     999901    1    3    3    0    0 -0.59911708968E-01 -0.67201225137E-01 -0.20101565655E-01  0.88482172807E+00  0.88000000000E+00 0. -1.
        -11    1    4    4    0    0  0.50961920162E-01  0.69374429352E-01  0.28692740877E-02  0.86130265350E-01  0.51100000000E-03 0. -1.
         11    1    4    4    0    0  0.19438030120E-01  0.30360463911E-01  0.13874289608E-01  0.38630969661E-01  0.51100000000E-03 0.  1.
</event>
<event>
 8    1  0.1090774E+005  0.1043930E+01  0.7957747E-01            NaN
         13   -1    0    0    0    0  0.00000000000E+00  0.00000000000E+00  0.74505805969E-08  0.10566000000E+00  0.10566000000E+00 0. -1.
     999900   -1    0    0    0    0 -0.00000000000E+00 -0.00000000000E+00 -0.74505805969E-08  0.93827000000E+00  0.93827000000E+00 0. -1.
     999902    2    1    2    0    0 -0.37506078199E-04  0.23061156606E-01 -0.45805731786E-02  0.10204183008E+01  0.10201473955E+01 0.  0.
     999903    2    3    3    0    0 -0.66272806055E-01  0.11688598105E-01 -0.11115748342E+00  0.13144412349E+00  0.19820780285E-01 0.  0.
         14    1    1    2    0    0  0.37506078199E-04 -0.23061156606E-01  0.45805731786E-02  0.23511699245E-01  0.00000000000E+00 0. -1.
     999901    1    3    3    0    0  0.66235299977E-01  0.11372558501E-01  0.10657691024E+00  0.88897417727E+00  0.88000000000E+00 0.  1.
        -11    1    4    4    0    0 -0.27800103787E-01 -0.46397442132E-02 -0.49272620901E-01  0.56766409860E-01  0.51100000000E-03 0. -1.
         11    1    4    4    0    0 -0.38472702268E-01  0.16328342318E-01 -0.61884862520E-01  0.74677713628E-01  0.51100000000E-03 0.  1.
</event>
<event>
 8    1  0.1090774E+005  0.1043930E+01  0.7957747E-01            NaN
         13   -1    0    0    0    0  0.00000000000E+00  0.00000000000E+00  0.74505805969E-08  0.10566000000E+00  0.10566000000E+00 0. -1.
     999900   -1    0    0    0    0 -0.00000000000E+00 -0.00000000000E+00 -0.74505805969E-08  0.93827000000E+00  0.93827000000E+00 0.  1.
     999902    2    1    2    0    0 -0.36078889175E-02  0.13779539020E-01 -0.12347088074E-01  0.10250794525E+01  0.10249061131E+01 0.  0.
     999903    2    3    3    0    0 -0.15955307734E-02  0.13497757726E+00 -0.89765511990E-02  0.13676398229E+00  0.20057823856E-01 0.  0.
         14    1    1    2    0    0  0.36078889175E-02 -0.13779539020E-01  0.12347088074E-01  0.18850547524E-01  0.00000000000E+00 0. -1.
     999901    1    3    3    0    0 -0.20123581441E-02 -0.12119803824E+00 -0.33705368755E-02  0.88831547019E+00  0.88000000000E+00 0. -1.
        -11    1    4    4    0    0  0.43699442492E-03  0.10678036423E+00  0.98062411077E-03  0.10678698373E+00  0.51100000000E-03 0. -1.
         11    1    4    4    0    0 -0.20325251984E-02  0.28197213027E-01 -0.99571753097E-02  0.29976998554E-01  0.51100000000E-03 0.  1.
</event>
<event>
 8    1  0.1090774E+005  0.1043930E+01  0.7957747E-01            NaN
         13   -1    0    0    0    0  0.00000000000E+00  0.00000000000E+00  0.74505805969E-08  0.10566000000E+00  0.10566000000E+00 0.  1.
     999900   -1    0    0    0    0 -0.00000000000E+00 -0.00000000000E+00 -0.74505805969E-08  0.93827000000E+00  0.93827000000E+00 0. -1.
     999902    2    1    2    0    0 -0.20628114116E-01 -0.56577650506E-02 -0.85448923318E-02  0.10208964466E+01  0.10206365710E+01 0.  0.
     999903    2    3    3    0    0 -0.97387103352E-01  0.11856969097E-02  0.87331636739E-01  0.13234082975E+00  0.20040625437E-01 0.  0.
         14    1    1    2    0    0  0.20628114116E-01  0.56577650506E-02  0.85448923318E-02  0.23033553401E-01  0.00000000000E+00 0. -1.
     999901    1    3    3    0    0  0.76758989236E-01 -0.68434619602E-02 -0.95876529071E-01  0.88855561685E+00  0.88000000000E+00 0. -1.
        -11    1    4    4    0    0 -0.78589092815E-01 -0.28224897034E-02  0.59966353160E-01  0.98896089862E-01  0.51100000000E-03 0. -1.
         11    1    4    4    0    0 -0.18798010537E-01  0.40081866131E-02  0.27365283579E-01  0.33444739892E-01  0.51100000000E-03 0.  1.
</event>
<event>
 8    1  0.1090774E+005  0.1043930E+01  0.7957747E-01            NaN
         13   -1    0    0    0    0  0.00000000000E+00  0.00000000000E+00  0.74505805969E-08  0.10566000000E+00  0.10566000000E+00 0.  1.
     999900   -1    0    0    0    0 -0.00000000000E+00 -0.00000000000E+00 -0.74505805969E-08  0.93827000000E+00  0.93827000000E+00 0.  1.
     999902    2    1    2    0    0  0.69526921781E-02  0.22163675310E-01  0.51344920564E-02  0.10201406864E+01  0.10198632696E+01 0.  0.
     999903    2    3    3    0    0  0.58146426555E-01 -0.45035921475E-02  0.11578465065E+00  0.13133508384E+00  0.21012607113E-01 0.  0.
         14    1    1    2    0    0 -0.69526921781E-02 -0.22163675310E-01 -0.51344920564E-02  0.23789313576E-01  0.00000000000E+00 0. -1.
     999901    1    3    3    0    0 -0.51193734377E-01  0.26667267457E-01 -0.11065015859E+00  0.88880560259E+00  0.88000000000E+00 0.  1.
        -11    1    4    4    0    0  0.36700749767E-01 -0.12125346182E-01  0.81180594267E-01  0.89913953645E-01  0.51100000000E-03 0. -1.
         11    1    4    4    0    0  0.21445676787E-01  0.76217540346E-02  0.34604056380E-01  0.41421130192E-01  0.51100000000E-03 0.  1.
</event>
<event>
 8    1  0.1090774E+005  0.1043930E+01  0.7957747E-01            NaN
         13   -1    0    0    0    0  0.00000000000E+00  0.00000000000E+00  0.74505805969E-08  0.10566000000E+00  0.10566000000E+00 0.  1.
     999900   -1    0    0    0    0 -0.00000000000E+00 -0.00000000000E+00 -0.74505805969E-08  0.93827000000E+00  0.93827000000E+00 0. -1.
     999902    2    1    2    0    0  0.13983870390E-01 -0.97819014389E-02 -0.16592964812E-01  0.10201274643E+01  0.10198497353E+01 0.  0.
     999903    2    3    3    0    0  0.35869871320E-01  0.11981893644E+00  0.26588920051E-01  0.12931881510E+00  0.19317351584E-01 0.  0.
         14    1    1    2    0    0 -0.13983870390E-01  0.97819014389E-02  0.16592964812E-01  0.23802535750E-01  0.00000000000E+00 0. -1.
     999901    1    3    3    0    0 -0.21886000930E-01 -0.12960083788E+00 -0.43181884864E-01  0.89080864915E+00  0.88000000000E+00 0. -1.
        -11    1    4    4    0    0  0.19432686730E-01  0.34316498097E-01  0.99133089625E-02  0.40666769859E-01  0.51100000000E-03 0. -1.
         11    1    4    4    0    0  0.16437184590E-01  0.85502438343E-01  0.16675611089E-01  0.88652045244E-01  0.51100000000E-03 0.  1.
</event>
<event>
 8    1  0.1090774E+005  0.1043930E+01  0.7957747E-01            NaN
         13   -1    0    0    0    0  0.00000000000E+00  0.00000000000E+00  0.74505805969E-08  0.10566000000E+00  0.10566000000E+00 0.  1.
     999900   -1    0    0    0    0 -0.00000000000E+00 -0.00000000000E+00 -0.74505805969E-08  0.93827000000E+00  0.93827000000E+00 0. -1.
     999902    2    1    2    0    0 -0.74779181780E-02 -0.21004312861E-01  0.81526851847E-02  0.10201904403E+01  0.10199141963E+01 0.  0.
     999903    2    3    3    0    0 -0.74511699141E-01 -0.97224737411E-01  0.48031577470E-01  0.13345857161E+00  0.22349832823E-01 0.  0.
         14    1    1    2    0    0  0.74779181780E-02  0.21004312861E-01 -0.81526851847E-02  0.23739559700E-01  0.00000000000E+00 0. -1.
     999901    1    3    3    0    0  0.67033780963E-01  0.76220424549E-01 -0.39878892285E-01  0.88673186869E+00  0.88000000000E+00 0.  1.
        -11    1    4    4    0    0 -0.39159189425E-02 -0.15443861524E-01  0.21620692604E-02  0.16086731938E-01  0.51100000000E-03 0. -1.
         11    1    4    4    0    0 -0.70595780198E-01 -0.81780875886E-01  0.45869508210E-01  0.11737183967E+00  0.51100000000E-03 0.  1.
</event>
<event>
 8    1  0.1090774E+005  0.1043930E+01  0.7957747E-01            NaN
         13   -1    0    0    0    0  0.00000000000E+00  0.00000000000E+00  0.74505805969E-08  0.10566000000E+00  0.10566000000E+00 0. -1.
     999900   -1    0    0    0    0 -0.00000000000E+00 -0.00000000000E+00 -0.74505805969E-08  0.93827000000E+00  0.93827000000E+00 0. -1.
     999902    2    1    2    0    0 -0.93578670062E-02 -0.19887319405E-01  0.73134964637E-02  0.10207661839E+01  0.10205033267E+01 0.  0.
     999903    2    3    3    0    0 -0.10118291403E+00 -0.50919835805E-01 -0.65196229457E-01  0.13247990303E+00  0.21669439363E-01 0.  0.
         14    1    1    2    0    0  0.93578670062E-02  0.19887319405E-01 -0.73134964637E-02  0.23163816149E-01  0.00000000000E+00 0. -1.
     999901    1    3    3    0    0  0.91825047025E-01  0.31032516399E-01  0.72509725921E-01  0.88828628082E+00  0.88000000000E+00 0.  1.
        -11    1    4    4    0    0 -0.37656605321E-01 -0.19643836301E-01 -0.36760258527E-01  0.56173641122E-01  0.51100000000E-03 0. -1.
         11    1    4    4    0    0 -0.63526308710E-01 -0.31275999504E-01 -0.28435970930E-01  0.76306261912E-01  0.51100000000E-03 0.  1.
</event>
<event>
 7    1  0.1090774E+005  0.1043930E+01  0.7957747E-01            NaN
         13   -1    0    0    0    0  0.00000000000E+00  0.00000000000E+00  0.74505805969E-08  0.10566000000E+00  0.10566000000E+00 0.  1.
     999900   -1    0    0    0    0 -0.00000000000E+00 -0.00000000000E+00 -0.74505805969E-08  0.93827000000E+00  0.93827000000E+00 0.  1.
     999903    2    1    2    0    0 -0.23529787451E-01 -0.51764163633E-01 -0.83031794942E-01  0.10267227600E+00  0.20350374784E-01 0.  0.
         14    1    1    2    0    0 -0.37464093644E-01 -0.34637014902E-01  0.93068427293E-02  0.51864230791E-01  0.00000000000E+00 0.  1.
     999901    1    1    2    0    0  0.60993881095E-01  0.86401178535E-01  0.73724952213E-01  0.88939349321E+00  0.88000000000E+00 0. -1.
        -11    1    3    3    0    0 -0.22281217750E-02 -0.24345081162E-01 -0.24496550630E-01  0.34611986612E-01  0.51100000000E-03 0. -1.
         11    1    3    3    0    0 -0.21301665676E-01 -0.27419082470E-01 -0.58535244312E-01  0.68060289389E-01  0.51100000000E-03 0.  1.
</event>
<event>
 8    1  0.1090774E+005  0.1043930E+01  0.7957747E-01            NaN
         13   -1    0    0    0    0  0.00000000000E+00  0.00000000000E+00  0.74505805969E-08  0.10566000000E+00  0.10566000000E+00 0.  1.
     999900   -1    0    0    0    0 -0.00000000000E+00 -0.00000000000E+00 -0.74505805969E-08  0.93827000000E+00  0.93827000000E+00 0. -1.
     999902    2    1    2    0    0  0.13573940065E-01 -0.85799962638E-03  0.19242495329E-01  0.10203660097E+01  0.10200938840E+01 0.  0.
     999903    2    3    3    0    0  0.69170300311E-01 -0.89505884043E-01  0.66917983631E-01  0.13288510576E+00  0.19611248690E-01 0.  0.
         14    1    1    2    0    0 -0.13573940065E-01  0.85799962638E-03 -0.19242495329E-01  0.23563990298E-01  0.00000000000E+00 0. -1.
     999901    1    3    3    0    0 -0.55596360245E-01  0.88647884417E-01 -0.47675488302E-01  0.88748090395E+00  0.88000000000E+00 0. -1.
        -11    1    4    4    0    0  0.41444605259E-01 -0.39631322902E-01  0.39046193326E-01  0.69376965877E-01  0.51100000000E-03 0.  1.
         11    1    4    4    0    0  0.27725695052E-01 -0.49874561141E-01  0.27871790305E-01  0.63508139879E-01  0.51100000000E-03 0. -1.
</event>
<event>
 8    1  0.1090774E+005  0.1043930E+01  0.7957747E-01            NaN
         13   -1    0    0    0    0  0.00000000000E+00  0.00000000000E+00  0.74505805969E-08  0.10566000000E+00  0.10566000000E+00 0.  1.
     999900   -1    0    0    0    0 -0.00000000000E+00 -0.00000000000E+00 -0.74505805969E-08  0.93827000000E+00  0.93827000000E+00 0.  1.
     999902    2    1    2    0    0 -0.79311172958E-02 -0.15564832750E-01  0.16958785081E-01  0.10195831926E+01  0.10192924603E+01 0.  0.
     999903    2    3    3    0    0 -0.38558115357E-02 -0.13040461737E-01  0.13014633678E+00  0.13232088502E+00  0.19642472038E-01 0.  0.
         14    1    1    2    0    0  0.79311172958E-02  0.15564832750E-01 -0.16958785081E-01  0.24346807419E-01  0.00000000000E+00 0. -1.
     999901    1    3    3    0    0 -0.40753057601E-02 -0.25243710127E-02 -0.11318755170E+00  0.88726230757E+00  0.88000000000E+00 0.  1.
        -11    1    4    4    0    0 -0.10880493078E-01 -0.12622300408E-01  0.98136812307E-01  0.99542968852E-01  0.51100000000E-03 0. -1.
         11    1    4    4    0    0  0.70246815423E-02 -0.41816132987E-03  0.32009524478E-01  0.32777916163E-01  0.51100000000E-03 0.  1.
</event>
<event>
 8    1  0.1184921E+005  0.1043930E+01  0.7957747E-01            NaN
         13   -1    0    0    0    0  0.00000000000E+00  0.00000000000E+00  0.74505805969E-08  0.10566000000E+00  0.10566000000E+00 0. -1.
     999900   -1    0    0    0    0 -0.00000000000E+00 -0.00000000000E+00 -0.74505805969E-08  0.93827000000E+00  0.93827000000E+00 0. -1.
     999902    2    1    2    0    0 -0.10864801081E-01 -0.16285892370E-01 -0.13502315605E-01  0.10201479328E+01  0.10198706870E+01 0.  0.
     999903    2    3    3    0    0  0.23699078404E-01 -0.75321952092E-01  0.10139912087E+00  0.13004554645E+00  0.19875101384E-01 0.  0.
         14    1    1    2    0    0  0.10864801081E-01  0.16285892370E-01  0.13502315605E-01  0.23782067183E-01  0.00000000000E+00 0. -1.
     999901    1    3    3    0    0 -0.34563879484E-01  0.59036059722E-01 -0.11490143647E+00  0.89010238637E+00  0.88000000000E+00 0. -1.
        -11    1    4    4    0    0  0.18133957619E-01 -0.28542731311E-01  0.49524804945E-01  0.59970787517E-01  0.51100000000E-03 0. -1.
         11    1    4    4    0    0  0.55651207849E-02 -0.46779220781E-01  0.51874315921E-01  0.70074758933E-01  0.51100000000E-03 0.  1.
</event>
<event>
 7    1  0.1090774E+005  0.1043930E+01  0.7957747E-01            NaN
         13   -1    0    0    0    0  0.00000000000E+00  0.00000000000E+00  0.74505805969E-08  0.10566000000E+00  0.10566000000E+00 0. -1.
     999900   -1    0    0    0    0 -0.00000000000E+00 -0.00000000000E+00 -0.74505805969E-08  0.93827000000E+00  0.93827000000E+00 0. -1.
     999902    2    1    2    0    0 -0.10688336250E-01 -0.12554909286E-01 -0.15977345029E-01  0.10209704305E+01  0.10207122406E+01 0.  0.
         14    1    1    2    0    0  0.10688336250E-01  0.12554909286E-01  0.15977345029E-01  0.22959569534E-01  0.00000000000E+00 0. -1.
     999901    1    3    3    0    0 -0.13927300681E-01  0.39743343193E-01 -0.12909182323E+00  0.89041462356E+00  0.88000000000E+00 0. -1.
        -11    1    3    3    0    0 -0.15963892756E-01 -0.10360844522E-01  0.31398861369E-01  0.36719784686E-01  0.51100000000E-03 0. -1.
         11    1    3    3    0    0  0.19202857186E-01 -0.41937407957E-01  0.81715616831E-01  0.93836022216E-01  0.51100000000E-03 0.  1.
</event>
<event>
 8    1  0.1090774E+005  0.1043930E+01  0.7957747E-01            NaN
         13   -1    0    0    0    0  0.00000000000E+00  0.00000000000E+00  0.74505805969E-08  0.10566000000E+00  0.10566000000E+00 0. -1.
     999900   -1    0    0    0    0 -0.00000000000E+00 -0.00000000000E+00 -0.74505805969E-08  0.93827000000E+00  0.93827000000E+00 0.  1.
     999902    2    1    2    0    0 -0.19165546482E-01 -0.14386992157E-01 -0.10497324118E-01  0.10177670963E+01  0.10174307666E+01 0.  0.
     999903    2    3    3    0    0  0.47476726031E-01  0.66098497620E-02  0.11496654526E+00  0.12612633773E+00  0.19819609304E-01 0.  0.
         14    1    1    2    0    0  0.19165546482E-01  0.14386992157E-01  0.10497324118E-01  0.26162903679E-01  0.00000000000E+00 0. -1.
     999901    1    3    3    0    0 -0.66642272513E-01 -0.20996841919E-01 -0.12546386938E+00  0.89164075859E+00  0.88000000000E+00 0.  1.
        -11    1    4    4    0    0  0.14821541100E-01  0.20509877193E-02  0.16476650996E-01  0.22262654385E-01  0.51100000000E-03 0.  1.
         11    1    4    4    0    0  0.32655184930E-01  0.45588620427E-02  0.98489894262E-01  0.10386368335E+00  0.51100000000E-03 0. -1.
</event>
<event>
 8    1  0.1090774E+005  0.1043930E+01  0.7957747E-01            NaN
         13   -1    0    0    0    0  0.00000000000E+00  0.00000000000E+00  0.74505805969E-08  0.10566000000E+00  0.10566000000E+00 0.  1.
     999900   -1    0    0    0    0 -0.00000000000E+00 -0.00000000000E+00 -0.74505805969E-08  0.93827000000E+00  0.93827000000E+00 0. -1.
     999902    2    1    2    0    0 -0.34824092618E-02 -0.74728962250E-02 -0.21977995718E-01  0.10204565331E+01  0.10201865184E+01 0.  0.
     999903    2    3    3    0    0  0.10914577870E+00 -0.59943248121E-01 -0.37666321709E-01  0.13158963074E+00  0.19775872234E-01 0.  0.
         14    1    1    2    0    0  0.34824092618E-02  0.74728962250E-02  0.21977995718E-01  0.23473466894E-01  0.00000000000E+00 0.  1.
     999901    1    3    3    0    0 -0.11262818797E+00  0.52470351896E-01  0.15688325991E-01  0.88886690237E+00  0.88000000000E+00 0. -1.
        -11    1    4    4    0    0  0.34075371506E-01 -0.26106979681E-01 -0.20050584921E-01  0.47381350847E-01  0.51100000000E-03 0. -1.
         11    1    4    4    0    0  0.75070407198E-01 -0.33836268440E-01 -0.17615736787E-01  0.84208279892E-01  0.51100000000E-03 0.  1.
</event>
<event>
 8    1  0.1090774E+005  0.1043930E+01  0.7957747E-01            NaN
         13   -1    0    0    0    0  0.00000000000E+00  0.00000000000E+00  0.74505805969E-08  0.10566000000E+00  0.10566000000E+00 0.  1.
     999900   -1    0    0    0    0 -0.00000000000E+00 -0.00000000000E+00 -0.74505805969E-08  0.93827000000E+00  0.93827000000E+00 0.  1.
     999902    2    1    2    0    0 -0.22063469120E-01 -0.42028134153E-02  0.91364540844E-02  0.10196826269E+01  0.10193942929E+01 0.  0.
     999903    2    3    3    0    0  0.65382110631E-01 -0.89077982499E-01  0.64595116191E-01  0.12955556463E+00  0.20060108009E-01 0.  0.
         14    1    1    2    0    0  0.22063469120E-01  0.42028134153E-02 -0.91364540844E-02  0.24247373125E-01  0.00000000000E+00 0. -1.
     999901    1    3    3    0    0 -0.87445579751E-01  0.84875169084E-01 -0.55458662107E-01  0.89012706225E+00  0.88000000000E+00 0.  1.
        -11    1    4    4    0    0  0.42777903903E-01 -0.41386561685E-01  0.34041011946E-01  0.68570023813E-01  0.51100000000E-03 0.  1.
         11    1    4    4    0    0  0.22604206727E-01 -0.47691420814E-01  0.30554104245E-01  0.60985540813E-01  0.51100000000E-03 0. -1.
</event>
<event>
 8    1  0.1090774E+005  0.1043930E+01  0.7957747E-01            NaN
         13   -1    0    0    0    0  0.00000000000E+00  0.00000000000E+00  0.74505805969E-08  0.10566000000E+00  0.10566000000E+00 0. -1.
     999900   -1    0    0    0    0 -0.00000000000E+00 -0.00000000000E+00 -0.74505805969E-08  0.93827000000E+00  0.93827000000E+00 0.  1.
     999902    2    1    2    0    0  0.12626146545E-01 -0.12748935462E-01 -0.13347777978E-01  0.10215666794E+01  0.10213218701E+01 0.  0.
     999903    2    3    3    0    0  0.38036003085E-01 -0.58719396651E-02  0.12308825528E+00  0.13066390969E+00  0.21002892688E-01 0.  0.
         14    1    1    2    0    0 -0.12626146545E-01  0.12748935462E-01  0.13347777978E-01  0.22363320615E-01  0.00000000000E+00 0. -1.
     999901    1    3    3    0    0 -0.25409856540E-01 -0.68769957966E-02 -0.13643603326E+00  0.89090276970E+00  0.88000000000E+00 0.  1.
        -11    1    4    4    0    0  0.22769870728E-01 -0.12741989477E-01  0.87911893024E-01  0.91703802347E-01  0.51100000000E-03 0.  1.
         11    1    4    4    0    0  0.15266132357E-01  0.68700498119E-02  0.35176362256E-01  0.38960107342E-01  0.51100000000E-03 0. -1.
</event>
<event>
 8    1  0.1090774E+005  0.1043930E+01  0.7957747E-01            NaN
         13   -1    0    0    0    0  0.00000000000E+00  0.00000000000E+00  0.74505805969E-08  0.10566000000E+00  0.10566000000E+00 0.  1.
     999900   -1    0    0    0    0 -0.00000000000E+00 -0.00000000000E+00 -0.74505805969E-08  0.93827000000E+00  0.93827000000E+00 0. -1.
     999902    2    1    2    0    0 -0.14188630106E-01  0.16343438516E-01 -0.99269379511E-02  0.10201188828E+01  0.10198409512E+01 0.  0.
     999903    2    3    3    0    0 -0.35508151591E-02 -0.12672734665E+00 -0.67109241289E-02  0.12849522033E+00  0.19838257656E-01 0.  0.
         14    1    1    2    0    0  0.14188630106E-01 -0.16343438516E-01  0.99269379511E-02  0.23811117234E-01  0.00000000000E+00 0.  1.
     999901    1    3    3    0    0 -0.10637814947E-01  0.14307078517E+00 -0.32160138221E-02  0.89162366244E+00  0.88000000000E+00 0. -1.
        -11    1    4    4    0    0 -0.10917093513E-01 -0.66357969021E-01  0.46914641020E-03  0.67253581337E-01  0.51100000000E-03 0.  1.
         11    1    4    4    0    0  0.73662783539E-02 -0.60369377631E-01 -0.71800705391E-02  0.61241638991E-01  0.51100000000E-03 0. -1.
</event>
<event>
 8    1  0.1090774E+005  0.1043930E+01  0.7957747E-01            NaN
         13   -1    0    0    0    0  0.00000000000E+00  0.00000000000E+00  0.74505805969E-08  0.10566000000E+00  0.10566000000E+00 0.  1.
     999900   -1    0    0    0    0 -0.00000000000E+00 -0.00000000000E+00 -0.74505805969E-08  0.93827000000E+00  0.93827000000E+00 0. -1.
     999902    2    1    2    0    0  0.19162487167E-01  0.13827746128E-01 -0.47776353836E-02  0.10198212199E+01  0.10195362119E+01 0.  0.
     999903    2    3    3    0    0 -0.10637487249E+00  0.67159396994E-01 -0.22624247563E-01  0.12913474577E+00  0.18382814964E-01 0.  0.
         14    1    1    2    0    0 -0.19162487167E-01 -0.13827746128E-01  0.47776353836E-02  0.24108780086E-01  0.00000000000E+00 0.  1.
     999901    1    3    3    0    0  0.12553735966E+00 -0.53331650867E-01  0.17846612179E-01  0.89068647414E+00  0.88000000000E+00 0.  1.
        -11    1    4    4    0    0 -0.75587421477E-01  0.39595180691E-01 -0.99603238611E-02  0.85911034168E-01  0.51100000000E-03 0. -1.
         11    1    4    4    0    0 -0.30787451013E-01  0.27564216303E-01 -0.12663923702E-01  0.43223711603E-01  0.51100000000E-03 0.  1.
</event>
<event>
 8    1  0.1090774E+005  0.1043930E+01  0.7957747E-01            NaN
         13   -1    0    0    0    0  0.00000000000E+00  0.00000000000E+00  0.74505805969E-08  0.10566000000E+00  0.10566000000E+00 0.  1.
     999900   -1    0    0    0    0 -0.00000000000E+00 -0.00000000000E+00 -0.74505805969E-08  0.93827000000E+00  0.93827000000E+00 0. -1.
     999902    2    1    2    0    0  0.16180336010E-01  0.95679633512E-02 -0.15939600443E-01  0.10192841067E+01  0.10189860990E+01 0.  0.
     999903    2    3    3    0    0  0.88302044837E-01 -0.80862442854E-01  0.45445260930E-01  0.12959466621E+00  0.19837338073E-01 0.  0.
         14    1    1    2    0    0 -0.16180336010E-01 -0.95679633512E-02  0.15939600443E-01  0.24645893337E-01  0.00000000000E+00 0.  1.
     999901    1    3    3    0    0 -0.72121708827E-01  0.90430406206E-01 -0.61384861373E-01  0.88968944045E+00  0.88000000000E+00 0. -1.
        -11    1    4    4    0    0  0.61981023484E-01 -0.61490624917E-01  0.41504281051E-01  0.96672698791E-01  0.51100000000E-03 0.  1.
         11    1    4    4    0    0  0.26321021353E-01 -0.19371817937E-01  0.39409798790E-02  0.32921967418E-01  0.51100000000E-03 0. -1.
</event>
<event>
 8    1  0.1090774E+005  0.1043930E+01  0.7957747E-01            NaN
         13   -1    0    0    0    0  0.00000000000E+00  0.00000000000E+00  0.74505805969E-08  0.10566000000E+00  0.10566000000E+00 0. -1.
     999900   -1    0    0    0    0 -0.00000000000E+00 -0.00000000000E+00 -0.74505805969E-08  0.93827000000E+00  0.93827000000E+00 0.  1.
     999902    2    1    2    0    0 -0.44514925738E-02 -0.21294815908E-01 -0.96776127387E-02  0.10201194738E+01  0.10198415561E+01 0.  0.
     999903    2    3    3    0    0  0.92872307882E-01 -0.61858404438E-02  0.87512065764E-01  0.12930746393E+00  0.19963175626E-01 0.  0.
         14    1    1    2    0    0  0.44514925738E-02  0.21294815908E-01  0.96776127387E-02  0.23810526223E-01  0.00000000000E+00 0.  1.
     999901    1    3    3    0    0 -0.97323800456E-01 -0.15108975465E-01 -0.97189678503E-01  0.89081200984E+00  0.88000000000E+00 0. -1.
        -11    1    4    4    0    0  0.78906658036E-01 -0.29196859766E-02  0.63475228655E-01  0.10131214647E+00  0.51100000000E-03 0.  1.
         11    1    4    4    0    0  0.13965649846E-01 -0.32661544673E-02  0.24036837109E-01  0.27995317463E-01  0.51100000000E-03 0. -1.
</event>
<event>
 8    1  0.1090774E+005  0.1043930E+01  0.7957747E-01            NaN
         13   -1    0    0    0    0  0.00000000000E+00  0.00000000000E+00  0.74505805969E-08  0.10566000000E+00  0.10566000000E+00 0. -1.
     999900   -1    0    0    0    0 -0.00000000000E+00 -0.00000000000E+00 -0.74505805969E-08  0.93827000000E+00  0.93827000000E+00 0. -1.
     999902    2    1    2    0    0 -0.15860790497E-02  0.13614458748E-01 -0.23686116775E-01  0.10165639396E+01  0.10161955235E+01 0.  0.
     999903    2    3    3    0    0  0.53328222730E-01  0.10300721910E+00 -0.54942554760E-01  0.12978120913E+00  0.19237759597E-01 0.  0.
         14    1    1    2    0    0  0.15860790497E-02 -0.13614458748E-01  0.23686116775E-01  0.27366060397E-01  0.00000000000E+00 0. -1.
     999901    1    3    3    0    0 -0.54914301779E-01 -0.89392760353E-01  0.31256437985E-01  0.88678273047E+00  0.88000000000E+00 0.  1.
        -11    1    4    4    0    0  0.27256789756E-01  0.55044335494E-01 -0.18532183324E-01  0.64160068559E-01  0.51100000000E-03 0.  1.
         11    1    4    4    0    0  0.26071432974E-01  0.47962883606E-01 -0.36410371436E-01  0.65621140574E-01  0.51100000000E-03 0. -1.
</event>
<event>
 8    1  0.1090774E+005  0.1043930E+01  0.7957747E-01            NaN
         13   -1    0    0    0    0  0.00000000000E+00  0.00000000000E+00  0.74505805969E-08  0.10566000000E+00  0.10566000000E+00 0.  1.
     999900   -1    0    0    0    0 -0.00000000000E+00 -0.00000000000E+00 -0.74505805969E-08  0.93827000000E+00  0.93827000000E+00 0. -1.
     999902    2    1    2    0    0 -0.14727072921E-01 -0.16157144467E-01  0.86070849469E-02  0.10204348536E+01  0.10201643341E+01 0.  0.
     999903    2    3    3    0    0 -0.40314421325E-01 -0.91013819969E-02  0.12418819622E+00  0.13248018724E+00  0.20498883175E-01 0.  0.
         14    1    1    2    0    0  0.14727072921E-01  0.16157144467E-01 -0.86070849469E-02  0.23495146423E-01  0.00000000000E+00 0. -1.
     999901    1    3    3    0    0  0.25587348404E-01 -0.70557624701E-02 -0.11558111127E+00  0.88795466633E+00  0.88000000000E+00 0. -1.
        -11    1    4    4    0    0 -0.19351160230E-01 -0.14571905512E-01  0.58887028504E-01  0.63676927372E-01  0.51100000000E-03 0. -1.
         11    1    4    4    0    0 -0.20963261096E-01  0.54705235155E-02  0.65301167713E-01  0.68803259871E-01  0.51100000000E-03 0.  1.
</event>
<event>
 7    1  0.1090774E+005  0.1043930E+01  0.7957747E-01            NaN
         13   -1    0    0    0    0  0.00000000000E+00  0.00000000000E+00  0.74505805969E-08  0.10566000000E+00  0.10566000000E+00 0.  1.
     999900   -1    0    0    0    0 -0.00000000000E+00 -0.00000000000E+00 -0.74505805969E-08  0.93827000000E+00  0.93827000000E+00 0. -1.
     999903    2    1    2    0    0 -0.15451373381E-01  0.58548420500E-01 -0.94560731766E-01  0.11377599436E+00  0.18346182666E-01 0.  0.
         14    1    1    2    0    0 -0.83345425495E-02  0.38056791359E-01  0.11711234607E-01  0.40680916707E-01  0.00000000000E+00 0.  1.
     999901    1    1    2    0    0  0.23785915931E-01 -0.96605211859E-01  0.82849497159E-01  0.88947308893E+00  0.88000000000E+00 0. -1.
        -11    1    3    3    0    0 -0.72169487021E-02  0.46498809192E-01 -0.81860282980E-01  0.94422405474E-01  0.51100000000E-03 0.  1.
         11    1    3    3    0    0 -0.82344246792E-02  0.12049611308E-01 -0.12700448785E-01  0.19353588888E-01  0.51100000000E-03 0. -1.
</event>
<event>
 8    1  0.1090774E+005  0.1043930E+01  0.7957747E-01            NaN
         13   -1    0    0    0    0  0.00000000000E+00  0.00000000000E+00  0.74505805969E-08  0.10566000000E+00  0.10566000000E+00 0. -1.
     999900   -1    0    0    0    0 -0.00000000000E+00 -0.00000000000E+00 -0.74505805969E-08  0.93827000000E+00  0.93827000000E+00 0.  1.
     999902    2    1    2    0    0 -0.20355247805E-01  0.42844901810E-02  0.80661159425E-02  0.10216195720E+01  0.10213759322E+01 0.  0.
     999903    2    3    3    0    0  0.11462313494E+00  0.87450764534E-03 -0.55516833404E-01  0.12905384156E+00  0.20821801136E-01 0.  0.
         14    1    1    2    0    0  0.20355247805E-01 -0.42844901810E-02 -0.80661159425E-02  0.22310427959E-01  0.00000000000E+00 0.  1.
     999901    1    3    3    0    0 -0.13497838274E+00  0.34099825357E-02  0.63582949347E-01  0.89256573049E+00  0.88000000000E+00 0.  1.
        -11    1    4    4    0    0  0.96311298898E-01 -0.69592450605E-02 -0.45241005971E-01  0.10663633119E+00  0.51100000000E-03 0. -1.
         11    1    4    4    0    0  0.18311836040E-01  0.78337527058E-02 -0.10275827434E-01  0.22417510367E-01  0.51100000000E-03 0.  1.
</event>
<event>
 8    1  0.1090774E+005  0.1043930E+01  0.7957747E-01            NaN
         13   -1    0    0    0    0  0.00000000000E+00  0.00000000000E+00  0.74505805969E-08  0.10566000000E+00  0.10566000000E+00 0.  1.
     999900   -1    0    0    0    0 -0.00000000000E+00 -0.00000000000E+00 -0.74505805969E-08  0.93827000000E+00  0.93827000000E+00 0.  1.
     999902    2    1    2    0    0 -0.12388008783E-01 -0.62579942715E-02  0.13762452781E-01  0.10243844030E+01  0.10241979178E+01 0.  0.
     999903    2    3    3    0    0  0.11183244592E+00  0.25347337008E-01 -0.61979573976E-01  0.13187867592E+00  0.20038316260E-01 0.  0.
         14    1    1    2    0    0  0.12388008783E-01  0.62579942715E-02 -0.13762452781E-01  0.19545596958E-01  0.00000000000E+00 0. -1.
     999901    1    3    3    0    0 -0.12422045470E+00 -0.31605331280E-01  0.75742026757E-01  0.89250572712E+00  0.88000000000E+00 0. -1.
        -11    1    4    4    0    0  0.29726476589E-01  0.60237172992E-02 -0.68156050802E-02  0.31091191262E-01  0.51100000000E-03 0. -1.
         11    1    4    4    0    0  0.82105969328E-01  0.19323619709E-01 -0.55163968896E-01  0.10078748466E+00  0.51100000000E-03 0.  1.
</event>
<event>
 8    1  0.1090774E+005  0.1043930E+01  0.7957747E-01            NaN
         13   -1    0    0    0    0  0.00000000000E+00  0.00000000000E+00  0.74505805969E-08  0.10566000000E+00  0.10566000000E+00 0.  1.
     999900   -1    0    0    0    0 -0.00000000000E+00 -0.00000000000E+00 -0.74505805969E-08  0.93827000000E+00  0.93827000000E+00 0. -1.
     999902    2    1    2    0    0 -0.79687836718E-02  0.14119746967E-01  0.17164056455E-01  0.10203191211E+01  0.10200458986E+01 0.  0.
     999903    2    3    3    0    0  0.72494072755E-01  0.93017881130E-01 -0.51853679198E-01  0.13045248242E+00  0.20526308184E-01 0.  0.
         14    1    1    2    0    0  0.79687836718E-02 -0.14119746967E-01 -0.17164056455E-01  0.23610878882E-01  0.00000000000E+00 0. -1.
     999901    1    3    3    0    0 -0.80462856427E-01 -0.78898134163E-01  0.69017735653E-01  0.88986663870E+00  0.88000000000E+00 0.  1.
        -11    1    4    4    0    0  0.39113531901E-01  0.34134503983E-01 -0.25142212443E-01  0.57683834022E-01  0.51100000000E-03 0.  1.
         11    1    4    4    0    0  0.33380540854E-01  0.58883377147E-01 -0.26711466755E-01  0.72768648394E-01  0.51100000000E-03 0. -1.
</event>
<event>
 8    1  0.1090774E+005  0.1043930E+01  0.7957747E-01            NaN
         13   -1    0    0    0    0  0.00000000000E+00  0.00000000000E+00  0.74505805969E-08  0.10566000000E+00  0.10566000000E+00 0.  1.
     999900   -1    0    0    0    0 -0.00000000000E+00 -0.00000000000E+00 -0.74505805969E-08  0.93827000000E+00  0.93827000000E+00 0. -1.
     999902    2    1    2    0    0 -0.25497512568E-01 -0.11944484748E-01  0.92006231060E-02  0.10143082963E+01  0.10138756702E+01 0.  0.
     999903    2    3    3    0    0 -0.45712463966E-01  0.16390860063E-01 -0.11350877054E+00  0.12511251849E+00  0.20263554423E-01 0.  0.
         14    1    1    2    0    0  0.25497512568E-01  0.11944484748E-01 -0.92006231060E-02  0.29621703675E-01  0.00000000000E+00 0. -1.
     999901    1    3    3    0    0  0.20214951398E-01 -0.28335344811E-01  0.12270939365E+00  0.88919577783E+00  0.88000000000E+00 0.  1.
        -11    1    4    4    0    0 -0.11897075048E-01  0.12507155049E-01 -0.25969236340E-01  0.31187043451E-01  0.51100000000E-03 0.  1.
         11    1    4    4    0    0 -0.33815388918E-01  0.38837050140E-02 -0.87539534203E-01  0.93925475042E-01  0.51100000000E-03 0. -1.
</event>
<event>
 8    1  0.1090774E+005  0.1043930E+01  0.7957747E-01            NaN
         13   -1    0    0    0    0  0.00000000000E+00  0.00000000000E+00  0.74505805969E-08  0.10566000000E+00  0.10566000000E+00 0.  1.
     999900   -1    0    0    0    0 -0.00000000000E+00 -0.00000000000E+00 -0.74505805969E-08  0.93827000000E+00  0.93827000000E+00 0.  1.
     999902    2    1    2    0    0  0.20637202615E-02  0.17914812577E-01 -0.19747548833E-02  0.10257889111E+01  0.10256284858E+01 0.  0.
     999903    2    3    3    0    0 -0.12240994771E+00 -0.39207910215E-01 -0.35303992105E-01  0.13457202526E+00  0.18487904237E-01 0.  0.
         14    1    1    2    0    0 -0.20637202615E-02 -0.17914812577E-01  0.19747548833E-02  0.18141088937E-01  0.00000000000E+00 0.  1.
     999901    1    3    3    0    0  0.12447366797E+00  0.57122722792E-01  0.33329237221E-01  0.89121688580E+00  0.88000000000E+00 0. -1.
        -11    1    4    4    0    0 -0.98876780297E-02 -0.84445145612E-02 -0.13770260238E-02  0.13085615181E-01  0.51100000000E-03 0.  1.
         11    1    4    4    0    0 -0.11252226968E+00 -0.30763395654E-01 -0.33926966081E-01  0.12148641008E+00  0.51100000000E-03 0. -1.
</event>
<event>
 8    1  0.1090774E+005  0.1043930E+01  0.7957747E-01            NaN
         13   -1    0    0    0    0  0.00000000000E+00  0.00000000000E+00  0.74505805969E-08  0.10566000000E+00  0.10566000000E+00 0. -1.
     999900   -1    0    0    0    0 -0.00000000000E+00 -0.00000000000E+00 -0.74505805969E-08  0.93827000000E+00  0.93827000000E+00 0.  1.
     999902    2    1    2    0    0 -0.89315393907E-02  0.97064310904E-02 -0.20138391733E-01  0.10198563210E+01  0.10195721521E+01 0.  0.
     999903    2    3    3    0    0 -0.19142764485E-01  0.10764667496E+00 -0.72627666178E-01  0.13280971317E+00  0.20233387117E-01 0.  0.
         14    1    1    2    0    0  0.89315393907E-02 -0.97064310904E-02  0.20138391733E-01  0.24073679029E-01  0.00000000000E+00 0. -1.
     999901    1    3    3    0    0  0.10211225095E-01 -0.97940243871E-01  0.52489274445E-01  0.88704660781E+00  0.88000000000E+00 0. -1.
        -11    1    4    4    0    0 -0.19946226327E-01  0.62603118924E-01 -0.37283532648E-01  0.75546842233E-01  0.51100000000E-03 0. -1.
         11    1    4    4    0    0  0.80346184124E-03  0.45043556038E-01 -0.35344133530E-01  0.57262870932E-01  0.51100000000E-03 0.  1.
</event>
<event>
 8    1  0.1090774E+005  0.1043930E+01  0.7957747E-01            NaN
         13   -1    0    0    0    0  0.00000000000E+00  0.00000000000E+00  0.74505805969E-08  0.10566000000E+00  0.10566000000E+00 0.  1.
     999900   -1    0    0    0    0 -0.00000000000E+00 -0.00000000000E+00 -0.74505805969E-08  0.93827000000E+00  0.93827000000E+00 0.  1.
     999902    2    1    2    0    0 -0.81238557041E-02  0.16876219606E-01 -0.13301779936E-01  0.10209573822E+01  0.10206988954E+01 0.  0.
     999903    2    3    3    0    0  0.77938386993E-01 -0.85481725282E-01  0.51975811950E-01  0.12846367212E+00  0.20491766727E-01 0.  0.
         14    1    1    2    0    0  0.81238557041E-02 -0.16876219606E-01  0.13301779936E-01  0.22972617812E-01  0.00000000000E+00 0. -1.
     999901    1    3    3    0    0 -0.86062242697E-01  0.10235794489E+00 -0.65277591886E-01  0.89249371006E+00  0.88000000000E+00 0.  1.
        -11    1    4    4    0    0  0.26343552919E-01 -0.25371797409E-01  0.65954122430E-02  0.37168151256E-01  0.51100000000E-03 0. -1.
         11    1    4    4    0    0  0.51594834074E-01 -0.60109927873E-01  0.45380399707E-01  0.91295520868E-01  0.51100000000E-03 0.  1.
</event>
<event>
 8    1  0.1090774E+005  0.1043930E+01  0.7957747E-01            NaN
         13   -1    0    0    0    0  0.00000000000E+00  0.00000000000E+00  0.74505805969E-08  0.10566000000E+00  0.10566000000E+00 0. -1.
     999900   -1    0    0    0    0 -0.00000000000E+00 -0.00000000000E+00 -0.74505805969E-08  0.93827000000E+00  0.93827000000E+00 0.  1.
     999902    2    1    2    0    0  0.12086288397E-01  0.36995971237E-02 -0.19936602744E-01  0.10203242059E+01  0.10200511025E+01 0.  0.
     999903    2    3    3    0    0  0.21245272074E-02 -0.39106474800E-01  0.12034761884E+00  0.12812957506E+00  0.19995215844E-01 0.  0.
         14    1    1    2    0    0 -0.12086288397E-01 -0.36995971237E-02  0.19936602744E-01  0.23605794099E-01  0.00000000000E+00 0. -1.
     999901    1    3    3    0    0  0.99617611896E-02  0.42806071924E-01 -0.14028422158E+00  0.89219463084E+00  0.88000000000E+00 0.  1.
        -11    1    4    4    0    0  0.52421803319E-02 -0.38376340109E-01  0.95280032322E-01  0.10285314587E+00  0.51100000000E-03 0. -1.
         11    1    4    4    0    0 -0.31176531245E-02 -0.73013469144E-03  0.25067586519E-01  0.25276429189E-01  0.51100000000E-03 0.  1.
</event>
<event>
 8    1  0.1090774E+005  0.1043930E+01  0.7957747E-01            NaN
         13   -1    0    0    0    0  0.00000000000E+00  0.00000000000E+00  0.74505805969E-08  0.10566000000E+00  0.10566000000E+00 0.  1.
     999900   -1    0    0    0    0 -0.00000000000E+00 -0.00000000000E+00 -0.74505805969E-08  0.93827000000E+00  0.93827000000E+00 0.  1.
     999902    2    1    2    0    0 -0.63355014196E-02  0.15682324894E-01  0.16996493565E-01  0.10199517873E+01  0.10196698945E+01 0.  0.
     999903    2    3    3    0    0  0.83364756978E-01  0.94720434648E-01  0.32145848183E-01  0.13173860222E+00  0.20001507775E-01 0.  0.
         14    1    1    2    0    0  0.63355014196E-02 -0.15682324894E-01 -0.16996493565E-01  0.23978212732E-01  0.00000000000E+00 0. -1.
     999901    1    3    3    0    0 -0.89700258398E-01 -0.79038109754E-01 -0.15149354618E-01  0.88821318505E+00  0.88000000000E+00 0.  1.
        -11    1    4    4    0    0  0.49222550314E-01  0.53044586794E-01  0.28370507582E-01  0.77728594926E-01  0.51100000000E-03 0.  1.
         11    1    4    4    0    0  0.34142206664E-01  0.41675847854E-01  0.37753406009E-02  0.54010007294E-01  0.51100000000E-03 0. -1.
</event>
<event>
 8    1  0.1090774E+005  0.1043930E+01  0.7957747E-01            NaN
         13   -1    0    0    0    0  0.00000000000E+00  0.00000000000E+00  0.74505805969E-08  0.10566000000E+00  0.10566000000E+00 0.  1.
     999900   -1    0    0    0    0 -0.00000000000E+00 -0.00000000000E+00 -0.74505805969E-08  0.93827000000E+00  0.93827000000E+00 0. -1.
     999902    2    1    2    0    0 -0.30072382348E-02  0.51351821683E-03  0.23728320566E-01  0.10200063636E+01  0.10197257677E+01 0.  0.
     999903    2    3    3    0    0  0.80902094724E-01 -0.82890387529E-01  0.59449947747E-01  0.13137088021E+00  0.17551256502E-01 0.  0.
         14    1    1    2    0    0  0.30072382348E-02 -0.51351821683E-03 -0.23728320566E-01  0.23923636422E-01  0.00000000000E+00 0. -1.
     999901    1    3    3    0    0 -0.83909332959E-01  0.83403905746E-01 -0.35721627180E-01  0.88863548337E+00  0.88000000000E+00 0.  1.
        -11    1    4    4    0    0  0.38453528718E-01 -0.44896203793E-01  0.21435663265E-01  0.62881569371E-01  0.51100000000E-03 0.  1.
         11    1    4    4    0    0  0.42448566005E-01 -0.37994183736E-01  0.38014284481E-01  0.68489310840E-01  0.51100000000E-03 0. -1.
</event>
<event>
 8    1  0.1090774E+005  0.1043930E+01  0.7957747E-01            NaN
         13   -1    0    0    0    0  0.00000000000E+00  0.00000000000E+00  0.74505805969E-08  0.10566000000E+00  0.10566000000E+00 0. -1.
     999900   -1    0    0    0    0 -0.00000000000E+00 -0.00000000000E+00 -0.74505805969E-08  0.93827000000E+00  0.93827000000E+00 0.  1.
     999902    2    1    2    0    0  0.75840770005E-02  0.19840787874E-01  0.40174045017E-04  0.10226890796E+01  0.10224684722E+01 0.  0.
     999903    2    3    3    0    0  0.11177747808E-02 -0.55304108293E-01 -0.11775114715E+00  0.13164286087E+00  0.20117563182E-01 0.  0.
         14    1    1    2    0    0 -0.75840770005E-02 -0.19840787874E-01 -0.40174045017E-04  0.21240920445E-01  0.00000000000E+00 0.  1.
     999901    1    3    3    0    0  0.64663022197E-02  0.75144896166E-01  0.11779132119E+00  0.89104621869E+00  0.88000000000E+00 0. -1.
        -11    1    4    4    0    0 -0.83807476394E-02 -0.36467407001E-01 -0.68354841573E-01  0.77927878143E-01  0.51100000000E-03 0. -1.
         11    1    4    4    0    0  0.94985224203E-02 -0.18836701291E-01 -0.49396305577E-01  0.53714982727E-01  0.51100000000E-03 0.  1.
</event>
<event>
 8    1  0.1090774E+005  0.1043930E+01  0.7957747E-01            NaN
         13   -1    0    0    0    0  0.00000000000E+00  0.00000000000E+00  0.74505805969E-08  0.10566000000E+00  0.10566000000E+00 0. -1.
     999900   -1    0    0    0    0 -0.00000000000E+00 -0.00000000000E+00 -0.74505805969E-08  0.93827000000E+00  0.93827000000E+00 0.  1.
     999902    2    1    2    0    0  0.14547981784E-01 -0.13972535301E-01  0.12692119113E-01  0.10200979752E+01  0.10198195496E+01 0.  0.
     999903    2    3    3    0    0 -0.16628280173E-01 -0.10996583553E+00 -0.64932936947E-01  0.13093414201E+00  0.23632150894E-01 0.  0.
         14    1    1    2    0    0 -0.14547981784E-01  0.13972535301E-01 -0.12692119113E-01  0.23832024763E-01  0.00000000000E+00 0.  1.
     999901    1    3    3    0    0  0.31176261957E-01  0.95993300234E-01  0.77625056059E-01  0.88916383323E+00  0.88000000000E+00 0. -1.
        -11    1    4    4    0    0 -0.15437836428E-01 -0.30432844966E-01 -0.18191363526E-01  0.38673914648E-01  0.51100000000E-03 0.  1.
         11    1    4    4    0    0 -0.11904437444E-02 -0.79532990569E-01 -0.46741573421E-01  0.92260227357E-01  0.51100000000E-03 0. -1.
</event>
<event>
 7    1  0.1090774E+005  0.1043930E+01  0.7957747E-01            NaN
         13   -1    0    0    0    0  0.00000000000E+00  0.00000000000E+00  0.74505805969E-08  0.10566000000E+00  0.10566000000E+00 0. -1.
     999900   -1    0    0    0    0 -0.00000000000E+00 -0.00000000000E+00 -0.74505805969E-08  0.93827000000E+00  0.93827000000E+00 0.  1.
     999902    2    1    2    0    0 -0.11783045951E-01 -0.89576098060E-02  0.19636909614E-01  0.10193396124E+01  0.10190429619E+01 0.  0.
         14    1    1    2    0    0  0.11783045951E-01  0.89576098060E-02 -0.19636909614E-01  0.24590387644E-01  0.00000000000E+00 0.  1.
     999901    1    3    3    0    0 -0.10292458547E+00 -0.91267780069E-01  0.52405620641E-01  0.89222734045E+00  0.88000000000E+00 0. -1.
        -11    1    3    3    0    0  0.53858312166E-01  0.48142949497E-01 -0.19579600144E-01  0.74847065663E-01  0.51100000000E-03 0.  1.
         11    1    3    3    0    0  0.37283227352E-01  0.34167220766E-01 -0.13189110884E-01  0.52265206242E-01  0.51100000000E-03 0. -1.
</event>
<event>
 8    1  0.1090774E+005  0.1043930E+01  0.7957747E-01            NaN
         13   -1    0    0    0    0  0.00000000000E+00  0.00000000000E+00  0.74505805969E-08  0.10566000000E+00  0.10566000000E+00 0. -1.
     999900   -1    0    0    0    0 -0.00000000000E+00 -0.00000000000E+00 -0.74505805969E-08  0.93827000000E+00  0.93827000000E+00 0. -1.
     999902    2    1    2    0    0  0.14280416248E-01  0.17854311429E-01 -0.41116539861E-02  0.10207004407E+01  0.10204360721E+01 0.  0.
     999903    2    3    3    0    0 -0.84020659170E-01 -0.78947917273E-01  0.52752318331E-01  0.12813823884E+00  0.18556841209E-01 0.  0.
         14    1    1    2    0    0 -0.14280416248E-01 -0.17854311429E-01  0.41116539861E-02  0.23229559258E-01  0.00000000000E+00 0. -1.
     999901    1    3    3    0    0  0.98301075418E-01  0.96802228701E-01 -0.56863972317E-01  0.89256220190E+00  0.88000000000E+00 0.  1.
        -11    1    4    4    0    0 -0.16496328044E-01 -0.14416793374E-01  0.24478483475E-02  0.22050529532E-01  0.51100000000E-03 0.  1.
         11    1    4    4    0    0 -0.67524331126E-01 -0.64531123899E-01  0.50304469984E-01  0.10608770931E+00  0.51100000000E-03 0. -1.
</event>
<event>
 8    1  0.1090774E+005  0.1043930E+01  0.7957747E-01            NaN
         13   -1    0    0    0    0  0.00000000000E+00  0.00000000000E+00  0.74505805969E-08  0.10566000000E+00  0.10566000000E+00 0.  1.
     999900   -1    0    0    0    0 -0.00000000000E+00 -0.00000000000E+00 -0.74505805969E-08  0.93827000000E+00  0.93827000000E+00 0.  1.
     999902    2    1    2    0    0  0.44886753289E-04 -0.49949926793E-02 -0.23549495197E-01  0.10198565563E+01  0.10195723931E+01 0.  0.
     999903    2    3    3    0    0 -0.61993035979E-01 -0.11351343106E+00 -0.15415993409E-02  0.13075065554E+00  0.19102927892E-01 0.  0.
         14    1    1    2    0    0 -0.44886753289E-04  0.49949926793E-02  0.23549495197E-01  0.24073443682E-01  0.00000000000E+00 0.  1.
     999901    1    3    3    0    0  0.62037922733E-01  0.10851843838E+00 -0.22007895856E-01  0.88910590078E+00  0.88000000000E+00 0.  1.
        -11    1    4    4    0    0 -0.36514935799E-01 -0.54715754998E-01 -0.83353736067E-02  0.66309078983E-01  0.51100000000E-03 0.  1.
         11    1    4    4    0    0 -0.25478100180E-01 -0.58797676060E-01  0.67937742658E-02  0.64441576553E-01  0.51100000000E-03 0. -1.
</event>
<event>
 8    1  0.1090774E+005  0.1043930E+01  0.7957747E-01            NaN
         13   -1    0    0    0    0  0.00000000000E+00  0.00000000000E+00  0.74505805969E-08  0.10566000000E+00  0.10566000000E+00 0. -1.
     999900   -1    0    0    0    0 -0.00000000000E+00 -0.00000000000E+00 -0.74505805969E-08  0.93827000000E+00  0.93827000000E+00 0.  1.
     999902    2    1    2    0    0  0.57273418652E-02  0.23704567012E-01 -0.24834503218E-03  0.10195420805E+01  0.10192503536E+01 0.  0.
     999903    2    3    3    0    0 -0.11471257170E-01 -0.46978148765E-01 -0.11760924106E+00  0.12877532201E+00  0.20312896756E-01 0.  0.
         14    1    1    2    0    0 -0.57273418652E-02 -0.23704567012E-01  0.24834503218E-03  0.24387919496E-01  0.00000000000E+00 0. -1.
     999901    1    3    3    0    0  0.17198599035E-01  0.70682715777E-01  0.11736089603E+00  0.89076675849E+00  0.88000000000E+00 0. -1.
        -11    1    4    4    0    0 -0.13850731957E-01 -0.19224444727E-01 -0.66002127513E-01  0.70128196954E-01  0.51100000000E-03 0.  1.
         11    1    4    4    0    0  0.23794747872E-02 -0.27753704038E-01 -0.51607113545E-01  0.58647125058E-01  0.51100000000E-03 0. -1.
</event>
<event>
 8    1  0.1090774E+005  0.1043930E+01  0.7957747E-01            NaN
         13   -1    0    0    0    0  0.00000000000E+00  0.00000000000E+00  0.74505805969E-08  0.10566000000E+00  0.10566000000E+00 0. -1.
     999900   -1    0    0    0    0 -0.00000000000E+00 -0.00000000000E+00 -0.74505805969E-08  0.93827000000E+00  0.93827000000E+00 0. -1.
     999902    2    1    2    0    0 -0.19879636095E-01  0.13247275646E-01 -0.91929868906E-03  0.10200231944E+01  0.10197429979E+01 0.  0.
     999903    2    3    3    0    0 -0.25520129671E-02  0.23678629929E-01 -0.12710644879E+00  0.13079192161E+00  0.19577720763E-01 0.  0.
         14    1    1    2    0    0  0.19879636095E-01 -0.13247275646E-01  0.91929868906E-03  0.23906805587E-01  0.00000000000E+00 0.  1.
     999901    1    3    3    0    0 -0.17327623128E-01 -0.10431354283E-01  0.12618715010E+00  0.88923127280E+00  0.88000000000E+00 0.  1.
        -11    1    4    4    0    0  0.78072251770E-02  0.65256554318E-02 -0.55759939449E-01  0.56683056658E-01  0.51100000000E-03 0. -1.
         11    1    4    4    0    0 -0.10359238144E-01  0.17152974497E-01 -0.71346509339E-01  0.74108864955E-01  0.51100000000E-03 0.  1.
</event>
<event>
 8    1  0.1090774E+005  0.1043930E+01  0.7957747E-01            NaN
         13   -1    0    0    0    0  0.00000000000E+00  0.00000000000E+00  0.74505805969E-08  0.10566000000E+00  0.10566000000E+00 0.  1.
     999900   -1    0    0    0    0 -0.00000000000E+00 -0.00000000000E+00 -0.74505805969E-08  0.93827000000E+00  0.93827000000E+00 0.  1.
     999902    2    1    2    0    0 -0.88120665319E-03 -0.16661494944E-01  0.17446349593E-01  0.10197896385E+01  0.10195038743E+01 0.  0.
     999903    2    3    3    0    0  0.65781447107E-01  0.28661286482E-01 -0.10398242778E+00  0.12780140322E+00  0.19292103315E-01 0.  0.
         14    1    1    2    0    0  0.88120665319E-03  0.16661494944E-01 -0.17446349593E-01  0.24140361494E-01  0.00000000000E+00 0. -1.
     999901    1    3    3    0    0 -0.66662653760E-01 -0.45322781427E-01  0.12142877737E+00  0.89198823529E+00  0.88000000000E+00 0. -1.
        -11    1    4    4    0    0  0.13969626505E-01  0.15389241825E-01 -0.30606338926E-01  0.36999842325E-01  0.51100000000E-03 0.  1.
         11    1    4    4    0    0  0.51811820602E-01  0.13272044658E-01 -0.73376088854E-01  0.90801560890E-01  0.51100000000E-03 0. -1.
</event>
<event>
 8    1  0.1090774E+005  0.1043930E+01  0.7957747E-01            NaN
         13   -1    0    0    0    0  0.00000000000E+00  0.00000000000E+00  0.74505805969E-08  0.10566000000E+00  0.10566000000E+00 0.  1.
     999900   -1    0    0    0    0 -0.00000000000E+00 -0.00000000000E+00 -0.74505805969E-08  0.93827000000E+00  0.93827000000E+00 0.  1.
     999902    2    1    2    0    0 -0.61196791375E-02 -0.10279634113E-01  0.20625308526E-01  0.10200862440E+01  0.10198075409E+01 0.  0.
     999903    2    3    3    0    0 -0.30047172573E-01  0.19594294377E-01  0.12655859499E+00  0.13290709761E+00  0.18985512248E-01 0.  0.
         14    1    1    2    0    0  0.61196791375E-02  0.10279634113E-01 -0.20625308526E-01  0.23843756038E-01  0.00000000000E+00 0. -1.
     999901    1    3    3    0    0  0.23927493436E-01 -0.29873928490E-01 -0.10593328647E+00  0.88717914636E+00  0.88000000000E+00 0.  1.
        -11    1    4    4    0    0 -0.81895804706E-02  0.15409880813E-01  0.42384516809E-01  0.45839306726E-01  0.51100000000E-03 0. -1.
         11    1    4    4    0    0 -0.21857592103E-01  0.41844135636E-02  0.84174078185E-01  0.87067790880E-01  0.51100000000E-03 0.  1.
</event>
<event>
 8    1  0.1090774E+005  0.1043930E+01  0.7957747E-01            NaN
         13   -1    0    0    0    0  0.00000000000E+00  0.00000000000E+00  0.74505805969E-08  0.10566000000E+00  0.10566000000E+00 0.  1.
     999900   -1    0    0    0    0 -0.00000000000E+00 -0.00000000000E+00 -0.74505805969E-08  0.93827000000E+00  0.93827000000E+00 0. -1.
     999902    2    1    2    0    0  0.21495956479E-01  0.65412906175E-02 -0.88072487340E-02  0.10197963667E+01  0.10195107636E+01 0.  0.
     999903    2    3    3    0    0  0.10880787416E+00 -0.71443164591E-01 -0.93434619362E-02  0.13204345411E+00  0.20121984152E-01 0.  0.
         14    1    1    2    0    0 -0.21495956479E-01 -0.65412906175E-02  0.88072487340E-02  0.24133633339E-01  0.00000000000E+00 0. -1.
     999901    1    3    3    0    0 -0.87311917679E-01  0.77984455208E-01  0.53621320214E-03  0.88775291255E+00  0.88000000000E+00 0.  1.
        -11    1    4    4    0    0  0.27391220737E-01 -0.17088617462E-01  0.63264776648E-02  0.32902663432E-01  0.51100000000E-03 0.  1.
         11    1    4    4    0    0  0.81416653420E-01 -0.54354547128E-01 -0.15669939601E-01  0.99140790676E-01  0.51100000000E-03 0. -1.
</event>
<event>
 8    1  0.1090774E+005  0.1043930E+01  0.7957747E-01            NaN
         13   -1    0    0    0    0  0.00000000000E+00  0.00000000000E+00  0.74505805969E-08  0.10566000000E+00  0.10566000000E+00 0.  1.
     999900   -1    0    0    0    0 -0.00000000000E+00 -0.00000000000E+00 -0.74505805969E-08  0.93827000000E+00  0.93827000000E+00 0. -1.
     999902    2    1    2    0    0  0.12161118277E-01  0.13093097988E-01 -0.15685591136E-01  0.10201527045E+01  0.10198755712E+01 0.  0.
     999903    2    3    3    0    0  0.61370083724E-01  0.11637963976E+00 -0.14858142107E-01  0.13274619298E+00  0.95015596436E-02 0.  0.
         14    1    1    2    0    0 -0.12161118277E-01 -0.13093097988E-01  0.15685591136E-01  0.23777295514E-01  0.00000000000E+00 0.  1.
     999901    1    3    3    0    0 -0.49208965446E-01 -0.10328654178E+00 -0.82744902871E-03  0.88740651151E+00  0.88000000000E+00 0. -1.
        -11    1    4    4    0    0  0.17069410571E-01  0.40706174365E-01 -0.27921103226E-02  0.44231373591E-01  0.51100000000E-03 0.  1.
         11    1    4    4    0    0  0.44300673153E-01  0.75673465400E-01 -0.12066031784E-01  0.88514819389E-01  0.51100000000E-03 0. -1.
</event>
<event>
 8    1  0.1090774E+005  0.1043930E+01  0.7957747E-01            NaN
         13   -1    0    0    0    0  0.00000000000E+00  0.00000000000E+00  0.74505805969E-08  0.10566000000E+00  0.10566000000E+00 0. -1.
     999900   -1    0    0    0    0 -0.00000000000E+00 -0.00000000000E+00 -0.74505805969E-08  0.93827000000E+00  0.93827000000E+00 0. -1.
     999902    2    1    2    0    0 -0.85578980126E-02  0.21170867852E-01 -0.30332859430E-02  0.10208942867E+01  0.10206343618E+01 0.  0.
     999903    2    3    3    0    0 -0.30871378176E-01 -0.43911320752E-02  0.12552909680E+00  0.13090575109E+00  0.20160295001E-01 0.  0.
         14    1    1    2    0    0  0.85578980126E-02 -0.21170867852E-01  0.30332859430E-02  0.23035713308E-01  0.00000000000E+00 0. -1.
     999901    1    3    3    0    0  0.22313480164E-01  0.25561999927E-01 -0.12856238274E+00  0.88998853560E+00  0.88000000000E+00 0. -1.
        -11    1    4    4    0    0  0.23635307528E-02 -0.98584340895E-03  0.21114045101E-01  0.21274919186E-01  0.51100000000E-03 0.  1.
         11    1    4    4    0    0 -0.33234908929E-01 -0.34052886662E-02  0.10441505170E+00  0.10963083191E+00  0.51100000000E-03 0. -1.
</event>
<event>
 8    1  0.1090774E+005  0.1043930E+01  0.7957747E-01            NaN
         13   -1    0    0    0    0  0.00000000000E+00  0.00000000000E+00  0.74505805969E-08  0.10566000000E+00  0.10566000000E+00 0.  1.
     999900   -1    0    0    0    0 -0.00000000000E+00 -0.00000000000E+00 -0.74505805969E-08  0.93827000000E+00  0.93827000000E+00 0. -1.
     999902    2    1    2    0    0  0.18978832889E-01  0.11363320520E-01 -0.67354105484E-02  0.10208067021E+01  0.10205447742E+01 0.  0.
     999903    2    3    3    0    0  0.74306455914E-01  0.10769139048E+00 -0.19476516680E-01  0.13373140725E+00  0.19643564012E-01 0.  0.
         14    1    1    2    0    0 -0.18978832889E-01 -0.11363320520E-01  0.67354105484E-02  0.23123297912E-01  0.00000000000E+00 0.  1.
     999901    1    3    3    0    0 -0.55327623025E-01 -0.96328069965E-01  0.12741106132E-01  0.88707529484E+00  0.88000000000E+00 0. -1.
        -11    1    4    4    0    0  0.24835722355E-01  0.34769596232E-01 -0.15718307211E-01  0.45530915097E-01  0.51100000000E-03 0. -1.
         11    1    4    4    0    0  0.49470733559E-01  0.72921794253E-01 -0.37582094690E-02  0.88200492149E-01  0.51100000000E-03 0.  1.
</event>
<event>
 7    1  0.1090774E+005  0.1043930E+01  0.7957747E-01            NaN
         13   -1    0    0    0    0  0.00000000000E+00  0.00000000000E+00  0.74505805969E-08  0.10566000000E+00  0.10566000000E+00 0.  1.
     999900   -1    0    0    0    0 -0.00000000000E+00 -0.00000000000E+00 -0.74505805969E-08  0.93827000000E+00  0.93827000000E+00 0.  1.
     999903    2    1    2    0    0  0.71291564487E-01  0.71411627103E-01 -0.21041680191E-02  0.10286979129E+00  0.19891173508E-01 0.  0.
         14    1    1    2    0    0  0.46116137980E-01  0.31212810553E-02 -0.18788952761E-01  0.49894542021E-01  0.00000000000E+00 0.  1.
     999901    1    1    2    0    0 -0.11740770247E+00 -0.74532908158E-01  0.20893120780E-01  0.89116566669E+00  0.88000000000E+00 0. -1.
        -11    1    3    3    0    0  0.49864269675E-01  0.53028347641E-01 -0.10179701225E-01  0.73500601915E-01  0.51100000000E-03 0.  1.
         11    1    3    3    0    0  0.21427294812E-01  0.18383279462E-01  0.80755332062E-02  0.29369189370E-01  0.51100000000E-03 0. -1.
</event>
<event>
 7    1  0.1090774E+005  0.1043930E+01  0.7957747E-01            NaN
         13   -1    0    0    0    0  0.00000000000E+00  0.00000000000E+00  0.74505805969E-08  0.10566000000E+00  0.10566000000E+00 0.  1.
     999900   -1    0    0    0    0 -0.00000000000E+00 -0.00000000000E+00 -0.74505805969E-08  0.93827000000E+00  0.93827000000E+00 0.  1.
     999902    2    1    2    0    0  0.46022421924E-02  0.87622542248E-02 -0.21780297973E-01  0.10200063901E+01  0.10197257948E+01 0.  0.
         14    1    1    2    0    0 -0.46022421924E-02 -0.87622542248E-02  0.21780297973E-01  0.23923609930E-01  0.00000000000E+00 0.  1.
     999901    1    3    3    0    0  0.27311796813E-01 -0.32689776864E-01  0.95258612826E-01  0.88616519852E+00  0.88000000000E+00 0. -1.
        -11    1    3    3    0    0 -0.26907559928E-01  0.53447480130E-02 -0.38290306261E-01  0.47106175680E-01  0.51100000000E-03 0.  1.
         11    1    3    3    0    0  0.41980053079E-02  0.36107283076E-01 -0.78748604538E-01  0.86735015867E-01  0.51100000000E-03 0. -1.
</event>
<event>
 8    1  0.1090774E+005  0.1043930E+01  0.7957747E-01            NaN
         13   -1    0    0    0    0  0.00000000000E+00  0.00000000000E+00  0.74505805969E-08  0.10566000000E+00  0.10566000000E+00 0.  1.
     999900   -1    0    0    0    0 -0.00000000000E+00 -0.00000000000E+00 -0.74505805969E-08  0.93827000000E+00  0.93827000000E+00 0.  1.
     999902    2    1    2    0    0  0.13596355685E-01 -0.15184362644E-01 -0.89294148799E-02  0.10216778044E+01  0.10214354487E+01 0.  0.
     999903    2    3    3    0    0  0.12641695201E+00  0.34498008952E-01 -0.12679011431E-01  0.13307728426E+00  0.19428017838E-01 0.  0.
         14    1    1    2    0    0 -0.13596355685E-01  0.15184362644E-01  0.89294148799E-02  0.22252195553E-01  0.00000000000E+00 0.  1.
     999901    1    3    3    0    0 -0.11282059633E+00 -0.49682371596E-01  0.37495965512E-02  0.88860052019E+00  0.88000000000E+00 0.  1.
        -11    1    4    4    0    0  0.27431646048E-01  0.67513803243E-02  0.52081295423E-02  0.28730855809E-01  0.51100000000E-03 0.  1.
         11    1    4    4    0    0  0.98985305966E-01  0.27746628628E-01 -0.17887140973E-01  0.10434642845E+00  0.51100000000E-03 0. -1.
</event>
<event>
 8    1  0.1090774E+005  0.1043930E+01  0.7957747E-01            NaN
         13   -1    0    0    0    0  0.00000000000E+00  0.00000000000E+00  0.74505805969E-08  0.10566000000E+00  0.10566000000E+00 0. -1.
     999900   -1    0    0    0    0 -0.00000000000E+00 -0.00000000000E+00 -0.74505805969E-08  0.93827000000E+00  0.93827000000E+00 0.  1.
     999902    2    1    2    0    0 -0.79261911580E-02  0.22965907865E-02 -0.22544247947E-01  0.10199228771E+01  0.10196402960E+01 0.  0.
     999903    2    3    3    0    0 -0.77182957218E-01  0.45549389035E-01  0.90400352947E-01  0.12895498368E+00  0.20620578932E-01 0.  0.
         14    1    1    2    0    0  0.79261911580E-02 -0.22965907865E-02  0.22544247947E-01  0.24007122923E-01  0.00000000000E+00 0. -1.
     999901    1    3    3    0    0  0.69256766060E-01 -0.43252798249E-01 -0.11294460089E+00  0.89096789340E+00  0.88000000000E+00 0.  1.
        -11    1    4    4    0    0 -0.93584349087E-02  0.62357454677E-04  0.15656650643E-01  0.18247630607E-01  0.51100000000E-03 0. -1.
         11    1    4    4    0    0 -0.67824522309E-01  0.45487031581E-01  0.74743702304E-01  0.11070735307E+00  0.51100000000E-03 0.  1.
</event>
<event>
 8    1  0.1090774E+005  0.1043930E+01  0.7957747E-01            NaN
         13   -1    0    0    0    0  0.00000000000E+00  0.00000000000E+00  0.74505805969E-08  0.10566000000E+00  0.10566000000E+00 0.  1.
     999900   -1    0    0    0    0 -0.00000000000E+00 -0.00000000000E+00 -0.74505805969E-08  0.93827000000E+00  0.93827000000E+00 0.  1.
     999902    2    1    2    0    0 -0.52466661036E-02  0.10174342373E-02  0.30545974247E-01  0.10129200142E+01  0.10124452261E+01 0.  0.
     999903    2    3    3    0    0  0.85091202866E-01 -0.79717355373E-01  0.38199412669E-01  0.12458583611E+00  0.21611706939E-01 0.  0.
         14    1    1    2    0    0  0.52466661036E-02 -0.10174342373E-02 -0.30545974247E-01  0.31009985816E-01  0.00000000000E+00 0. -1.
     999901    1    3    3    0    0 -0.90337868970E-01  0.80734789611E-01 -0.76534384220E-02  0.88833417808E+00  0.88000000000E+00 0. -1.
        -11    1    4    4    0    0  0.59353073042E-01 -0.67997864561E-01  0.27691267145E-01  0.94411674392E-01  0.51100000000E-03 0. -1.
         11    1    4    4    0    0  0.25738129824E-01 -0.11719490813E-01  0.10508145523E-01  0.30174161713E-01  0.51100000000E-03 0.  1.
</event>
<event>
 8    1  0.1090774E+005  0.1043930E+01  0.7957747E-01            NaN
         13   -1    0    0    0    0  0.00000000000E+00  0.00000000000E+00  0.74505805969E-08  0.10566000000E+00  0.10566000000E+00 0. -1.
     999900   -1    0    0    0    0 -0.00000000000E+00 -0.00000000000E+00 -0.74505805969E-08  0.93827000000E+00  0.93827000000E+00 0.  1.
     999902    2    1    2    0    0  0.11876350828E-01 -0.20436798608E-01 -0.24554187518E-02  0.10201657511E+01  0.10198889254E+01 0.  0.
     999903    2    3    3    0    0 -0.24546635454E-01  0.92784887078E-01 -0.83056103422E-01  0.12851433128E+00  0.20150544546E-01 0.  0.
         14    1    1    2    0    0 -0.11876350828E-01  0.20436798608E-01  0.24554187518E-02  0.23764248937E-01  0.00000000000E+00 0.  1.
     999901    1    3    3    0    0  0.36422986282E-01 -0.11322168569E+00  0.80600684670E-01  0.89165141979E+00  0.88000000000E+00 0. -1.
        -11    1    4    4    0    0 -0.40737102201E-02  0.51793176171E-01 -0.49054785574E-01  0.71454610219E-01  0.51100000000E-03 0.  1.
         11    1    4    4    0    0 -0.20472925234E-01  0.40991710907E-01 -0.34001317847E-01  0.57059721056E-01  0.51100000000E-03 0. -1.
</event>
<event>
 8    1  0.1090774E+005  0.1043930E+01  0.7957747E-01            NaN
         13   -1    0    0    0    0  0.00000000000E+00  0.00000000000E+00  0.74505805969E-08  0.10566000000E+00  0.10566000000E+00 0. -1.
     999900   -1    0    0    0    0 -0.00000000000E+00 -0.00000000000E+00 -0.74505805969E-08  0.93827000000E+00  0.93827000000E+00 0. -1.
     999902    2    1    2    0    0 -0.12376345361E-01  0.20254360977E-01 -0.50221071119E-02  0.10196682065E+01  0.10193795254E+01 0.  0.
     999903    2    3    3    0    0  0.68821802429E-01  0.93493008219E-01 -0.58187024146E-01  0.13130817418E+00  0.19460826083E-01 0.  0.
         14    1    1    2    0    0  0.12376345361E-01 -0.20254360977E-01  0.50221071119E-02  0.24261793481E-01  0.00000000000E+00 0.  1.
     999901    1    3    3    0    0 -0.81198147790E-01 -0.73238647243E-01  0.53164917035E-01  0.88836003234E+00  0.88000000000E+00 0.  1.
        -11    1    4    4    0    0  0.68518662514E-01  0.88878239017E-01 -0.52324162614E-01  0.12382337258E+00  0.51100000000E-03 0. -1.
         11    1    4    4    0    0  0.30313991543E-03  0.46147692022E-02 -0.58628615325E-02  0.74848015970E-02  0.51100000000E-03 0.  1.
</event>
<event>
 8    1  0.1090774E+005  0.1043930E+01  0.7957747E-01            NaN
         13   -1    0    0    0    0  0.00000000000E+00  0.00000000000E+00  0.74505805969E-08  0.10566000000E+00  0.10566000000E+00 0.  1.
     999900   -1    0    0    0    0 -0.00000000000E+00 -0.00000000000E+00 -0.74505805969E-08  0.93827000000E+00  0.93827000000E+00 0. -1.
     999902    2    1    2    0    0  0.13897877233E-01 -0.19898629326E-01  0.19916554711E-02  0.10195769071E+01  0.10192860229E+01 0.  0.
     999903    2    3    3    0    0  0.30830757364E-02 -0.96320938486E-01 -0.87551933872E-01  0.13167185384E+00  0.19619057640E-01 0.  0.
         14    1    1    2    0    0 -0.13897877233E-01  0.19898629326E-01 -0.19916554711E-02  0.24353092867E-01  0.00000000000E+00 0.  1.
     999901    1    3    3    0    0  0.10814801497E-01  0.76422309159E-01  0.89543589343E-01  0.88790505329E+00  0.88000000000E+00 0.  1.
        -11    1    4    4    0    0  0.31345555541E-02 -0.76021142760E-02 -0.21235302605E-02  0.85081185790E-02  0.51100000000E-03 0.  1.
         11    1    4    4    0    0 -0.51479817762E-04 -0.88718824210E-01 -0.85428403611E-01  0.12316373526E+00  0.51100000000E-03 0. -1.
</event>
<event>
 8    1  0.1090774E+005  0.1043930E+01  0.7957747E-01            NaN
         13   -1    0    0    0    0  0.00000000000E+00  0.00000000000E+00  0.74505805969E-08  0.10566000000E+00  0.10566000000E+00 0. -1.
     999900   -1    0    0    0    0 -0.00000000000E+00 -0.00000000000E+00 -0.74505805969E-08  0.93827000000E+00  0.93827000000E+00 0.  1.
     999902    2    1    2    0    0 -0.74044569300E-02 -0.22972503153E-01  0.12028761716E-01  0.10169623714E+01  0.10166047471E+01 0.  0.
     999903    2    3    3    0    0  0.79570503405E-01  0.83006047883E-01 -0.42056158943E-01  0.12470608779E+00  0.23694278430E-01 0.  0.
         14    1    1    2    0    0  0.74044569300E-02  0.22972503153E-01 -0.12028761716E-01  0.26967628593E-01  0.00000000000E+00 0.  1.
     999901    1    3    3    0    0 -0.86974960335E-01 -0.10597855104E+00  0.54084920660E-01  0.89225628361E+00  0.88000000000E+00 0.  1.
        -11    1    4    4    0    0  0.66065503532E-01  0.67866464798E-01 -0.43771788656E-01  0.10433953423E+00  0.51100000000E-03 0.  1.
         11    1    4    4    0    0  0.13504999873E-01  0.15139583085E-01  0.17156297123E-02  0.20366553559E-01  0.51100000000E-03 0. -1.
</event>
<event>
 7    1  0.1090774E+005  0.1043930E+01  0.7957747E-01            NaN
         13   -1    0    0    0    0  0.00000000000E+00  0.00000000000E+00  0.74505805969E-08  0.10566000000E+00  0.10566000000E+00 0.  1.
     999900   -1    0    0    0    0 -0.00000000000E+00 -0.00000000000E+00 -0.74505805969E-08  0.93827000000E+00  0.93827000000E+00 0. -1.
     999903    2    1    2    0    0  0.10040856675E+00 -0.63856544395E-01  0.37663224713E-02  0.12041627351E+00  0.18065303780E-01 0.  0.
         14    1    1    2    0    0 -0.27577689576E-01  0.28554409662E-01 -0.28443284475E-02  0.39799164285E-01  0.00000000000E+00 0. -1.
     999901    1    1    2    0    0 -0.72830877177E-01  0.35302134733E-01 -0.92199402383E-03  0.88371456221E+00  0.88000000000E+00 0.  1.
        -11    1    3    3    0    0  0.44449424424E-01 -0.34873976148E-01  0.88576112148E-02  0.57189718844E-01  0.51100000000E-03 0. -1.
         11    1    3    3    0    0  0.55959142329E-01 -0.28982568247E-01 -0.50912887435E-02  0.63226554662E-01  0.51100000000E-03 0.  1.
</event>
<event>
 8    1  0.1090774E+005  0.1043930E+01  0.7957747E-01            NaN
         13   -1    0    0    0    0  0.00000000000E+00  0.00000000000E+00  0.74505805969E-08  0.10566000000E+00  0.10566000000E+00 0. -1.
     999900   -1    0    0    0    0 -0.00000000000E+00 -0.00000000000E+00 -0.74505805969E-08  0.93827000000E+00  0.93827000000E+00 0. -1.
     999902    2    1    2    0    0  0.19112769186E-01 -0.13703855092E-02  0.14051836152E-01  0.10201680556E+01  0.10198912842E+01 0.  0.
     999903    2    3    3    0    0 -0.67985517116E-01  0.88954757332E-01  0.62777893768E-01  0.12993270942E+00  0.20160993051E-01 0.  0.
         14    1    1    2    0    0 -0.19112769186E-01  0.13703855092E-02 -0.14051836152E-01  0.23761944399E-01  0.00000000000E+00 0. -1.
     999901    1    3    3    0    0  0.87098286302E-01 -0.90325142841E-01 -0.48726057616E-01  0.89023534618E+00  0.88000000000E+00 0.  1.
        -11    1    4    4    0    0 -0.27537488492E-01  0.20842654502E-01  0.19443469116E-01  0.39636335999E-01  0.51100000000E-03 0. -1.
         11    1    4    4    0    0 -0.40448028624E-01  0.68112102829E-01  0.43334424652E-01  0.90296373417E-01  0.51100000000E-03 0.  1.
</event>
<event>
 8    1  0.1090774E+005  0.1043930E+01  0.7957747E-01            NaN
         13   -1    0    0    0    0  0.00000000000E+00  0.00000000000E+00  0.74505805969E-08  0.10566000000E+00  0.10566000000E+00 0.  1.
     999900   -1    0    0    0    0 -0.00000000000E+00 -0.00000000000E+00 -0.74505805969E-08  0.93827000000E+00  0.93827000000E+00 0.  1.
     999902    2    1    2    0    0  0.23727831155E-01  0.12504938652E-01 -0.28724212603E-02  0.10169553032E+01  0.10165974889E+01 0.  0.
     999903    2    3    3    0    0  0.40777342029E-03 -0.58641570081E-01 -0.11108618970E+00  0.12717113250E+00  0.19833188837E-01 0.  0.
         14    1    1    2    0    0 -0.23727831155E-01 -0.12504938652E-01  0.28724212603E-02  0.26974696771E-01  0.00000000000E+00 0.  1.
     999901    1    3    3    0    0  0.23320057734E-01  0.71146508733E-01  0.10821376844E+00  0.88978417073E+00  0.88000000000E+00 0. -1.
        -11    1    4    4    0    0 -0.42906127309E-02 -0.29461307251E-01 -0.73856235544E-01  0.79632798722E-01  0.51100000000E-03 0.  1.
         11    1    4    4    0    0  0.46983861512E-02 -0.29180262830E-01 -0.37229954154E-01  0.47538333780E-01  0.51100000000E-03 0. -1.
</event>
<event>
 8    1  0.1090774E+005  0.1043930E+01  0.7957747E-01            NaN
         13   -1    0    0    0    0  0.00000000000E+00  0.00000000000E+00  0.74505805969E-08  0.10566000000E+00  0.10566000000E+00 0. -1.
     999900   -1    0    0    0    0 -0.00000000000E+00 -0.00000000000E+00 -0.74505805969E-08  0.93827000000E+00  0.93827000000E+00 0.  1.
     999902    2    1    2    0    0 -0.79688478989E-02  0.20880379673E-01  0.75684079027E-02  0.10203339497E+01  0.10200610743E+01 0.  0.
     999903    2    3    3    0    0  0.11753486221E+00 -0.38427366312E-02  0.51672031259E-01  0.12999269864E+00  0.19972291441E-01 0.  0.
         14    1    1    2    0    0  0.79688478989E-02 -0.20880379673E-01 -0.75684079027E-02  0.23596050312E-01  0.00000000000E+00 0.  1.
     999901    1    3    3    0    0 -0.12550371011E+00  0.24723116304E-01 -0.44103623356E-01  0.89034125105E+00  0.88000000000E+00 0. -1.
        -11    1    4    4    0    0  0.10736898402E-01 -0.87696373576E-04  0.11721223614E-01  0.15903989498E-01  0.51100000000E-03 0. -1.
         11    1    4    4    0    0  0.10679796381E+00 -0.37550402576E-02  0.39950807645E-01  0.11408870914E+00  0.51100000000E-03 0.  1.
</event>
<event>
 8    1  0.1090774E+005  0.1043930E+01  0.7957747E-01            NaN
         13   -1    0    0    0    0  0.00000000000E+00  0.00000000000E+00  0.74505805969E-08  0.10566000000E+00  0.10566000000E+00 0. -1.
     999900   -1    0    0    0    0 -0.00000000000E+00 -0.00000000000E+00 -0.74505805969E-08  0.93827000000E+00  0.93827000000E+00 0. -1.
     999902    2    1    2    0    0 -0.22308140694E-01 -0.55438890490E-02 -0.69781959368E-02  0.10199074467E+01  0.10196244980E+01 0.  0.
     999903    2    3    3    0    0  0.98960278012E-01  0.31498785402E-01 -0.73087335718E-01  0.12836462248E+00  0.18719176181E-01 0.  0.
         14    1    1    2    0    0  0.22308140694E-01  0.55438890490E-02  0.69781959368E-02  0.24022553269E-01  0.00000000000E+00 0. -1.
     999901    1    3    3    0    0 -0.12126841871E+00 -0.37042674451E-01  0.66109139781E-01  0.89154282425E+00  0.88000000000E+00 0. -1.
        -11    1    4    4    0    0  0.35623310774E-01  0.17700652921E-01 -0.36159890441E-01  0.53759949610E-01  0.51100000000E-03 0.  1.
         11    1    4    4    0    0  0.63336967239E-01  0.13798132482E-01 -0.36927445276E-01  0.74604672874E-01  0.51100000000E-03 0. -1.
</event>
<event>
 8    1  0.1090774E+005  0.1043930E+01  0.7957747E-01            NaN
         13   -1    0    0    0    0  0.00000000000E+00  0.00000000000E+00  0.74505805969E-08  0.10566000000E+00  0.10566000000E+00 0.  1.
     999900   -1    0    0    0    0 -0.00000000000E+00 -0.00000000000E+00 -0.74505805969E-08  0.93827000000E+00  0.93827000000E+00 0. -1.
     999902    2    1    2    0    0 -0.21355032652E-01  0.92870888161E-02  0.15842605620E-03  0.10206423952E+01  0.10203766885E+01 0.  0.
     999903    2    3    3    0    0 -0.11686169580E+00  0.50811609362E-01 -0.35160228780E-01  0.13379786774E+00  0.20667659138E-01 0.  0.
         14    1    1    2    0    0  0.21355032652E-01 -0.92870888161E-02 -0.15842605620E-03  0.23287604794E-01  0.00000000000E+00 0.  1.
     999901    1    3    3    0    0  0.95506663144E-01 -0.41524520546E-01  0.35318654836E-01  0.88684452746E+00  0.88000000000E+00 0.  1.
        -11    1    4    4    0    0 -0.26179746572E-01  0.20084398410E-01 -0.13343722731E-01  0.35596042581E-01  0.51100000000E-03 0.  1.
         11    1    4    4    0    0 -0.90681949224E-01  0.30727210952E-01 -0.21816506049E-01  0.98201825162E-01  0.51100000000E-03 0. -1.
</event>
<event>
 8    1  0.1090774E+005  0.1043930E+01  0.7957747E-01            NaN
         13   -1    0    0    0    0  0.00000000000E+00  0.00000000000E+00  0.74505805969E-08  0.10566000000E+00  0.10566000000E+00 0. -1.
     999900   -1    0    0    0    0 -0.00000000000E+00 -0.00000000000E+00 -0.74505805969E-08  0.93827000000E+00  0.93827000000E+00 0. -1.
     999902    2    1    2    0    0 -0.10270352156E-01 -0.88413623110E-02  0.14523130017E-01  0.10240661855E+01  0.10238735181E+01 0.  0.
     999903    2    3    3    0    0 -0.81503212432E-01 -0.25629168161E-01  0.10531467595E+00  0.13637307658E+00  0.14380790932E-01 0.  0.
         14    1    1    2    0    0  0.10270352156E-01  0.88413623110E-02 -0.14523130017E-01  0.19863814499E-01  0.00000000000E+00 0.  1.
     999901    1    3    3    0    0  0.71232860276E-01  0.16787805850E-01 -0.90791545937E-01  0.88769310892E+00  0.88000000000E+00 0. -1.
        -11    1    4    4    0    0 -0.44165081871E-01 -0.66978750963E-02  0.57640097088E-01  0.72925015604E-01  0.51100000000E-03 0. -1.
         11    1    4    4    0    0 -0.37338130561E-01 -0.18931293064E-01  0.47674578867E-01  0.63448060979E-01  0.51100000000E-03 0.  1.
</event>
<event>
 8    1  0.1090774E+005  0.1043930E+01  0.7957747E-01            NaN
         13   -1    0    0    0    0  0.00000000000E+00  0.00000000000E+00  0.74505805969E-08  0.10566000000E+00  0.10566000000E+00 0. -1.
     999900   -1    0    0    0    0 -0.00000000000E+00 -0.00000000000E+00 -0.74505805969E-08  0.93827000000E+00  0.93827000000E+00 0.  1.
     999902    2    1    2    0    0  0.54279481916E-02  0.10705419474E-01 -0.95539234369E-02  0.10285890065E+01  0.10284745978E+01 0.  0.
     999903    2    3    3    0    0 -0.10512777337E+00 -0.45170135907E-01  0.71159606831E-01  0.13625536980E+00  0.20239719463E-01 0.  0.
         14    1    1    2    0    0 -0.54279481916E-02 -0.10705419474E-01  0.95539234369E-02  0.15340993473E-01  0.00000000000E+00 0. -1.
     999901    1    3    3    0    0  0.11055572156E+00  0.55875555381E-01 -0.80713530268E-01  0.89233363672E+00  0.88000000000E+00 0.  1.
        -11    1    4    4    0    0 -0.55905643689E-01 -0.14448888331E-01  0.29654216749E-01  0.64914136074E-01  0.51100000000E-03 0.  1.
         11    1    4    4    0    0 -0.49222129684E-01 -0.30721247576E-01  0.41505390082E-01  0.71341233730E-01  0.51100000000E-03 0. -1.
</event>
<event>
 8    1  0.1090774E+005  0.1043930E+01  0.7957747E-01            NaN
         13   -1    0    0    0    0  0.00000000000E+00  0.00000000000E+00  0.74505805969E-08  0.10566000000E+00  0.10566000000E+00 0. -1.
     999900   -1    0    0    0    0 -0.00000000000E+00 -0.00000000000E+00 -0.74505805969E-08  0.93827000000E+00  0.93827000000E+00 0. -1.
     999902    2    1    2    0    0  0.11722822948E-01 -0.21253732151E-01 -0.72234121044E-02  0.10186056364E+01  0.10182907832E+01 0.  0.
     999903    2    3    3    0    0 -0.93277955832E-01 -0.87381725166E-01  0.99495349633E-02  0.12973388802E+00  0.19888326131E-01 0.  0.
         14    1    1    2    0    0 -0.11722822948E-01  0.21253732151E-01  0.72234121044E-02  0.25324363578E-01  0.00000000000E+00 0.  1.
     999901    1    3    3    0    0  0.10500077878E+00  0.66127993015E-01 -0.17172947068E-01  0.88887174841E+00  0.88000000000E+00 0. -1.
        -11    1    4    4    0    0 -0.84243850310E-01 -0.81007264940E-01  0.14493679453E-01  0.11776897364E+00  0.51100000000E-03 0. -1.
         11    1    4    4    0    0 -0.90341055222E-02 -0.63744602257E-02 -0.45441444896E-02  0.11964914371E-01  0.51100000000E-03 0.  1.
</event>
<event>
 8    1  0.1090774E+005  0.1043930E+01  0.7957747E-01            NaN
         13   -1    0    0    0    0  0.00000000000E+00  0.00000000000E+00  0.74505805969E-08  0.10566000000E+00  0.10566000000E+00 0.  1.
     999900   -1    0    0    0    0 -0.00000000000E+00 -0.00000000000E+00 -0.74505805969E-08  0.93827000000E+00  0.93827000000E+00 0. -1.
     999902    2    1    2    0    0  0.11601525331E-01 -0.13780294501E-01 -0.15862714317E-01  0.10199275499E+01  0.10196450801E+01 0.  0.
     999903    2    3    3    0    0 -0.62282814271E-01  0.28675262926E-01 -0.10970737683E+00  0.13084476932E+00  0.19576145416E-01 0.  0.
         14    1    1    2    0    0 -0.11601525331E-01  0.13780294501E-01  0.15862714317E-01  0.24002450126E-01  0.00000000000E+00 0.  1.
     999901    1    3    3    0    0  0.73884339601E-01 -0.42455557426E-01  0.93844662517E-01  0.88908278055E+00  0.88000000000E+00 0.  1.
        -11    1    4    4    0    0 -0.18301296217E-01  0.18618763363E-01 -0.43135333622E-01  0.50423346975E-01  0.51100000000E-03 0.  1.
         11    1    4    4    0    0 -0.43981518053E-01  0.10056499562E-01 -0.66572043212E-01  0.80421422346E-01  0.51100000000E-03 0. -1.
</event>
<event>
 8    1  0.1090774E+005  0.1043930E+01  0.7957747E-01            NaN
         13   -1    0    0    0    0  0.00000000000E+00  0.00000000000E+00  0.74505805969E-08  0.10566000000E+00  0.10566000000E+00 0.  1.
     999900   -1    0    0    0    0 -0.00000000000E+00 -0.00000000000E+00 -0.74505805969E-08  0.93827000000E+00  0.93827000000E+00 0. -1.
     999902    2    1    2    0    0  0.14714985595E-01  0.14760394397E-01  0.11134624581E-01  0.10202999363E+01  0.10200262645E+01 0.  0.
     999903    2    3    3    0    0  0.39180958093E-01 -0.27390567947E-01 -0.11860211528E+00  0.12945376045E+00  0.20159951798E-01 0.  0.
         14    1    1    2    0    0 -0.14714985595E-01 -0.14760394397E-01 -0.11134624581E-01  0.23630063656E-01  0.00000000000E+00 0.  1.
     999901    1    3    3    0    0 -0.24465972498E-01  0.42150962344E-01  0.12973673986E+00  0.89084617589E+00  0.88000000000E+00 0.  1.
        -11    1    4    4    0    0  0.23357181932E-01 -0.17202947266E-01 -0.45474211339E-01  0.53941304771E-01  0.51100000000E-03 0. -1.
         11    1    4    4    0    0  0.15823776162E-01 -0.10187620680E-01 -0.73127903939E-01  0.75512455679E-01  0.51100000000E-03 0.  1.
</event>
<event>
 8    1  0.1090774E+005  0.1043930E+01  0.7957747E-01            NaN
         13   -1    0    0    0    0  0.00000000000E+00  0.00000000000E+00  0.74505805969E-08  0.10566000000E+00  0.10566000000E+00 0.  1.
     999900   -1    0    0    0    0 -0.00000000000E+00 -0.00000000000E+00 -0.74505805969E-08  0.93827000000E+00  0.93827000000E+00 0. -1.
     999902    2    1    2    0    0 -0.18752831052E-01 -0.13185395657E-01 -0.26586565388E-02  0.10208520498E+01  0.10205911600E+01 0.  0.
     999903    2    3    3    0    0 -0.49034757605E-01 -0.63773147817E-01 -0.10413539233E+00  0.13306060827E+00  0.19736354790E-01 0.  0.
         14    1    1    2    0    0  0.18752831052E-01  0.13185395657E-01  0.26586565388E-02  0.23077950206E-01  0.00000000000E+00 0.  1.
     999901    1    3    3    0    0  0.30281926552E-01  0.50587752160E-01  0.10147673579E+00  0.88779144153E+00  0.88000000000E+00 0. -1.
        -11    1    4    4    0    0 -0.36643846226E-01 -0.55842417987E-01 -0.75092733880E-01  0.10050038266E+00  0.51100000000E-03 0. -1.
         11    1    4    4    0    0 -0.12390911379E-01 -0.79307298300E-02 -0.29042658450E-01  0.32560225602E-01  0.51100000000E-03 0.  1.
</event>
<event>
 8    1  0.1090774E+005  0.1043930E+01  0.7957747E-01            NaN
         13   -1    0    0    0    0  0.00000000000E+00  0.00000000000E+00  0.74505805969E-08  0.10566000000E+00  0.10566000000E+00 0. -1.
     999900   -1    0    0    0    0 -0.00000000000E+00 -0.00000000000E+00 -0.74505805969E-08  0.93827000000E+00  0.93827000000E+00 0.  1.
     999902    2    1    2    0    0  0.12597974520E-01 -0.26562209053E-02  0.19836481323E-01  0.10202815230E+01  0.10200074195E+01 0.  0.
     999903    2    3    3    0    0 -0.67670198807E-01 -0.77408697077E-01 -0.74587983852E-01  0.12845929189E+00  0.19158813834E-01 0.  0.
         14    1    1    2    0    0 -0.12597974520E-01  0.26562209053E-02 -0.19836481323E-01  0.23648476966E-01  0.00000000000E+00 0.  1.
     999901    1    3    3    0    0  0.80268173327E-01  0.74752476172E-01  0.94424465175E-01  0.89182223115E+00  0.88000000000E+00 0.  1.
        -11    1    4    4    0    0 -0.34796923687E-01 -0.26839183097E-01 -0.26504682936E-01  0.51321798351E-01  0.51100000000E-03 0.  1.
         11    1    4    4    0    0 -0.32873275120E-01 -0.50569513980E-01 -0.48083300915E-01  0.77137493537E-01  0.51100000000E-03 0. -1.
</event>
<event>
 8    1  0.1090774E+005  0.1043930E+01  0.7957747E-01            NaN
         13   -1    0    0    0    0  0.00000000000E+00  0.00000000000E+00  0.74505805969E-08  0.10566000000E+00  0.10566000000E+00 0. -1.
     999900   -1    0    0    0    0 -0.00000000000E+00 -0.00000000000E+00 -0.74505805969E-08  0.93827000000E+00  0.93827000000E+00 0. -1.
     999902    2    1    2    0    0  0.15385334739E-01  0.16115220677E-01 -0.74920707619E-02  0.10204238309E+01  0.10201530545E+01 0.  0.
     999903    2    3    3    0    0  0.59367299897E-02  0.41792960060E-01 -0.12288353830E+00  0.13246898224E+00  0.25802538586E-01 0.  0.
         14    1    1    2    0    0 -0.15385334739E-01 -0.16115220677E-01  0.74920707619E-02  0.23506169122E-01  0.00000000000E+00 0. -1.
     999901    1    3    3    0    0  0.94486047489E-02 -0.25677739384E-01  0.11539146754E+00  0.88795484863E+00  0.88000000000E+00 0.  1.
        -11    1    4    4    0    0 -0.21598862717E-02  0.37463537298E-01 -0.76826828660E-01  0.85503242386E-01  0.51100000000E-03 0. -1.
         11    1    4    4    0    0  0.80966162614E-02  0.43294227627E-02 -0.46056709642E-01  0.46965739858E-01  0.51100000000E-03 0.  1.
</event>
<event>
 8    1  0.1090774E+005  0.1043930E+01  0.7957747E-01            NaN
         13   -1    0    0    0    0  0.00000000000E+00  0.00000000000E+00  0.74505805969E-08  0.10566000000E+00  0.10566000000E+00 0. -1.
     999900   -1    0    0    0    0 -0.00000000000E+00 -0.00000000000E+00 -0.74505805969E-08  0.93827000000E+00  0.93827000000E+00 0.  1.
     999902    2    1    2    0    0  0.68197921186E-02 -0.14460614271E-01 -0.18355907058E-01  0.10195874805E+01  0.10192968519E+01 0.  0.
     999903    2    3    3    0    0  0.37377091207E-01 -0.10521770794E+00 -0.69203926192E-01  0.13293302720E+00  0.20351739690E-01 0.  0.
         14    1    1    2    0    0 -0.68197921186E-02  0.14460614271E-01  0.18355907058E-01  0.24342519458E-01  0.00000000000E+00 0. -1.
     999901    1    3    3    0    0 -0.30557299088E-01  0.90757093673E-01  0.50848019134E-01  0.88665445334E+00  0.88000000000E+00 0. -1.
        -11    1    4    4    0    0  0.19555569316E-01 -0.44743438741E-01 -0.19234084675E-01  0.52484347533E-01  0.51100000000E-03 0.  1.
         11    1    4    4    0    0  0.17821521891E-01 -0.60474269202E-01 -0.49969841518E-01  0.80448679668E-01  0.51100000000E-03 0. -1.
</event>
<event>
 8    1  0.1090774E+005  0.1043930E+01  0.7957747E-01            NaN
         13   -1    0    0    0    0  0.00000000000E+00  0.00000000000E+00  0.74505805969E-08  0.10566000000E+00  0.10566000000E+00 0. -1.
     999900   -1    0    0    0    0 -0.00000000000E+00 -0.00000000000E+00 -0.74505805969E-08  0.93827000000E+00  0.93827000000E+00 0. -1.
     999902    2    1    2    0    0  0.99142955527E-02  0.17293968816E-01  0.12813522994E-01  0.10202327220E+01  0.10199574727E+01 0.  0.
     999903    2    3    3    0    0  0.25534708506E-03 -0.42577748234E-01 -0.11926044614E+00  0.12831262965E+00  0.20691714988E-01 0.  0.
         14    1    1    2    0    0 -0.99142955527E-02 -0.17293968816E-01 -0.12813522994E-01  0.23697278013E-01  0.00000000000E+00 0.  1.
     999901    1    3    3    0    0  0.96589484677E-02  0.59871717050E-01  0.13207396913E+00  0.89192009233E+00  0.88000000000E+00 0.  1.
        -11    1    4    4    0    0 -0.68505787069E-02 -0.21668804326E-01 -0.81043339234E-01  0.84170965688E-01  0.51100000000E-03 0. -1.
         11    1    4    4    0    0  0.71059257920E-02 -0.20908943908E-01 -0.38217106901E-01  0.44141663965E-01  0.51100000000E-03 0.  1.
</event>
<event>
 8    1  0.1090774E+005  0.1043930E+01  0.7957747E-01            NaN
         13   -1    0    0    0    0  0.00000000000E+00  0.00000000000E+00  0.74505805969E-08  0.10566000000E+00  0.10566000000E+00 0. -1.
     999900   -1    0    0    0    0 -0.00000000000E+00 -0.00000000000E+00 -0.74505805969E-08  0.93827000000E+00  0.93827000000E+00 0.  1.
     999902    2    1    2    0    0 -0.19381692743E-01 -0.41646882592E-02  0.13773661776E-01  0.10197906462E+01  0.10195049062E+01 0.  0.
     999903    2    3    3    0    0 -0.83744573804E-01 -0.48001540723E-01  0.88135989513E-01  0.13322761639E+00  0.25774863089E-01 0.  0.
         14    1    1    2    0    0  0.19381692743E-01  0.41646882592E-02 -0.13773661776E-01  0.24139353773E-01  0.00000000000E+00 0.  1.
     999901    1    3    3    0    0  0.64362881061E-01  0.43836852464E-01 -0.74362327737E-01  0.88656302984E+00  0.88000000000E+00 0. -1.
        -11    1    4    4    0    0 -0.19336047577E-01 -0.22749474191E-02  0.27248751915E-01  0.33493487778E-01  0.51100000000E-03 0. -1.
         11    1    4    4    0    0 -0.64408526227E-01 -0.45726593304E-01  0.60887237599E-01  0.99734128608E-01  0.51100000000E-03 0.  1.
</event>
<event>
 8    1  0.1090774E+005  0.1043930E+01  0.7957747E-01            NaN
         13   -1    0    0    0    0  0.00000000000E+00  0.00000000000E+00  0.74505805969E-08  0.10566000000E+00  0.10566000000E+00 0.  1.
     999900   -1    0    0    0    0 -0.00000000000E+00 -0.00000000000E+00 -0.74505805969E-08  0.93827000000E+00  0.93827000000E+00 0. -1.
     999902    2    1    2    0    0  0.18243634412E-01 -0.10187570765E-01  0.11272561680E-01  0.10201878973E+01  0.10199115934E+01 0.  0.
     999903    2    3    3    0    0  0.11269857742E+00 -0.20747812340E-01  0.65303285834E-01  0.13342266673E+00  0.20140699806E-01 0.  0.
         14    1    1    2    0    0 -0.18243634412E-01  0.10187570765E-01 -0.11272561680E-01  0.23742102718E-01  0.00000000000E+00 0. -1.
     999901    1    3    3    0    0 -0.94454943004E-01  0.10560241575E-01 -0.54030724154E-01  0.88676523055E+00  0.88000000000E+00 0. -1.
        -11    1    4    4    0    0  0.18080204984E-01  0.21488067045E-02  0.49263016409E-02  0.18869042142E-01  0.51100000000E-03 0. -1.
         11    1    4    4    0    0  0.94618372432E-01 -0.22896619045E-01  0.60376984193E-01  0.11455362459E+00  0.51100000000E-03 0.  1.
</event>
<event>
 8    1  0.1090774E+005  0.1043930E+01  0.7957747E-01            NaN
         13   -1    0    0    0    0  0.00000000000E+00  0.00000000000E+00  0.74505805969E-08  0.10566000000E+00  0.10566000000E+00 0.  1.
     999900   -1    0    0    0    0 -0.00000000000E+00 -0.00000000000E+00 -0.74505805969E-08  0.93827000000E+00  0.93827000000E+00 0.  1.
     999902    2    1    2    0    0  0.18994759626E-01 -0.15927717808E-02 -0.13233653839E-01  0.10207250995E+01  0.10204612983E+01 0.  0.
     999903    2    3    3    0    0  0.12078529502E+00 -0.63683518847E-02  0.50430329386E-01  0.13256001231E+00  0.19982375813E-01 0.  0.
         14    1    1    2    0    0 -0.18994759626E-01  0.15927717808E-02  0.13233653839E-01  0.23204900541E-01  0.00000000000E+00 0. -1.
     999901    1    3    3    0    0 -0.10179053540E+00  0.47755801039E-02 -0.63663983225E-01  0.88816508714E+00  0.88000000000E+00 0.  1.
        -11    1    4    4    0    0  0.47330880457E-01 -0.10976974418E-01  0.25339191171E-01  0.54800017723E-01  0.51100000000E-03 0. -1.
         11    1    4    4    0    0  0.73454414567E-01  0.46086225334E-02  0.25091138216E-01  0.77759994592E-01  0.51100000000E-03 0.  1.
</event>
<event>
 8    1  0.1090774E+005  0.1043930E+01  0.7957747E-01            NaN
         13   -1    0    0    0    0  0.00000000000E+00  0.00000000000E+00  0.74505805969E-08  0.10566000000E+00  0.10566000000E+00 0. -1.
     999900   -1    0    0    0    0 -0.00000000000E+00 -0.00000000000E+00 -0.74505805969E-08  0.93827000000E+00  0.93827000000E+00 0.  1.
     999902    2    1    2    0    0  0.17528439559E-01  0.19138245203E-02  0.17611984093E-02  0.10262096519E+01  0.10260566451E+01 0.  0.
     999903    2    3    3    0    0 -0.12767213342E+00  0.28426895054E-01  0.19438359375E-01  0.13374193184E+00  0.20019802737E-01 0.  0.
         14    1    1    2    0    0 -0.17528439559E-01 -0.19138245203E-02 -0.17611984093E-02  0.17720348120E-01  0.00000000000E+00 0. -1.
     999901    1    3    3    0    0  0.14520057298E+00 -0.26513070534E-01 -0.17677160965E-01  0.89246772004E+00  0.88000000000E+00 0. -1.
        -11    1    4    4    0    0 -0.37910133801E-01 -0.78444538088E-03  0.59892838560E-02  0.38391747049E-01  0.51100000000E-03 0.  1.
         11    1    4    4    0    0 -0.89761999618E-01  0.29211340435E-01  0.13449075519E-01  0.95350184787E-01  0.51100000000E-03 0. -1.
</event>
<event>
 8    1  0.1090774E+005  0.1043930E+01  0.7957747E-01            NaN
         13   -1    0    0    0    0  0.00000000000E+00  0.00000000000E+00  0.74505805969E-08  0.10566000000E+00  0.10566000000E+00 0.  1.
     999900   -1    0    0    0    0 -0.00000000000E+00 -0.00000000000E+00 -0.74505805969E-08  0.93827000000E+00  0.93827000000E+00 0.  1.
     999902    2    1    2    0    0 -0.95740633297E-02 -0.15973636322E-01  0.73557042697E-02  0.10239068601E+01  0.10237110589E+01 0.  0.
     999903    2    3    3    0    0 -0.80656326218E-01 -0.84194107278E-01 -0.65629985774E-01  0.13540608255E+00  0.20818777600E-01 0.  0.
         14    1    1    2    0    0  0.95740633297E-02  0.15973636322E-01 -0.73557042697E-02  0.20023139896E-01  0.00000000000E+00 0.  1.
     999901    1    3    3    0    0  0.71082262889E-01  0.68220470956E-01  0.72985690044E-01  0.88850077755E+00  0.88000000000E+00 0. -1.
        -11    1    4    4    0    0 -0.78119778727E-01 -0.74898640748E-01 -0.56341143356E-01  0.12201267053E+00  0.51100000000E-03 0.  1.
         11    1    4    4    0    0 -0.25365474909E-02 -0.92954665302E-02 -0.92888424181E-02  0.13393412024E-01  0.51100000000E-03 0. -1.
</event>
<event>
 8    1  0.1090774E+005  0.1043930E+01  0.7957747E-01            NaN
         13   -1    0    0    0    0  0.00000000000E+00  0.00000000000E+00  0.74505805969E-08  0.10566000000E+00  0.10566000000E+00 0.  1.
     999900   -1    0    0    0    0 -0.00000000000E+00 -0.00000000000E+00 -0.74505805969E-08  0.93827000000E+00  0.93827000000E+00 0.  1.
     999902    2    1    2    0    0  0.14513402558E-01 -0.68368646675E-02  0.20351165565E-01  0.10180156890E+01  0.10176858020E+01 0.  0.
     999903    2    3    3    0    0 -0.11557963880E-01  0.11673141350E+00  0.48387014771E-01  0.12855807659E+00  0.20641376689E-01 0.  0.
         14    1    1    2    0    0 -0.14513402558E-01  0.68368646675E-02 -0.20351165565E-01  0.25914310952E-01  0.00000000000E+00 0. -1.
     999901    1    3    3    0    0  0.26071366438E-01 -0.12356827817E+00 -0.28035849206E-01  0.88945761246E+00  0.88000000000E+00 0.  1.
        -11    1    4    4    0    0 -0.10969879268E-01  0.25529225816E-01  0.13639836980E-01  0.30957808316E-01  0.51100000000E-03 0.  1.
         11    1    4    4    0    0 -0.58808461247E-03  0.91202187684E-01  0.34747177791E-01  0.97600268274E-01  0.51100000000E-03 0. -1.
</event>
<event>
 8    1  0.1090774E+005  0.1043930E+01  0.7957747E-01            NaN
         13   -1    0    0    0    0  0.00000000000E+00  0.00000000000E+00  0.74505805969E-08  0.10566000000E+00  0.10566000000E+00 0.  1.
     999900   -1    0    0    0    0 -0.00000000000E+00 -0.00000000000E+00 -0.74505805969E-08  0.93827000000E+00  0.93827000000E+00 0.  1.
     999902    2    1    2    0    0  0.16963845262E-01  0.14042423815E-01  0.82482467454E-02  0.10204141482E+01  0.10201431461E+01 0.  0.
     999903    2    3    3    0    0 -0.26194827071E-01  0.12438705735E+00 -0.32004781534E-01  0.13156156454E+00  0.11217407086E-01 0.  0.
         14    1    1    2    0    0 -0.16963845262E-01 -0.14042423815E-01 -0.82482467454E-02  0.23515851825E-01  0.00000000000E+00 0. -1.
     999901    1    3    3    0    0  0.43158672332E-01 -0.11034463354E+00  0.40253028280E-01  0.88885258363E+00  0.88000000000E+00 0. -1.
        -11    1    4    4    0    0 -0.54474326883E-02  0.46767767092E-01 -0.84968800674E-02  0.47847222004E-01  0.51100000000E-03 0.  1.
         11    1    4    4    0    0 -0.20747394382E-01  0.77619290259E-01 -0.23507901467E-01  0.83714342537E-01  0.51100000000E-03 0. -1.
</event>
<event>
 8    1  0.1090774E+005  0.1043930E+01  0.7957747E-01            NaN
         13   -1    0    0    0    0  0.00000000000E+00  0.00000000000E+00  0.74505805969E-08  0.10566000000E+00  0.10566000000E+00 0. -1.
     999900   -1    0    0    0    0 -0.00000000000E+00 -0.00000000000E+00 -0.74505805969E-08  0.93827000000E+00  0.93827000000E+00 0. -1.
     999902    2    1    2    0    0 -0.12945219688E-01 -0.33431498062E-02  0.19544565457E-01  0.10202499366E+01  0.10199750917E+01 0.  0.
     999903    2    3    3    0    0  0.80514888528E-01 -0.24275105275E-01 -0.94068237132E-01  0.12779220231E+00  0.20250573437E-01 0.  0.
         14    1    1    2    0    0  0.12945219688E-01  0.33431498062E-02 -0.19544565457E-01  0.23680063393E-01  0.00000000000E+00 0.  1.
     999901    1    3    3    0    0 -0.93460108216E-01  0.20931955469E-01  0.11361280259E+00  0.89245773429E+00  0.88000000000E+00 0.  1.
        -11    1    4    4    0    0  0.36455859190E-01 -0.20436221237E-02 -0.47712695471E-01  0.60083013330E-01  0.51100000000E-03 0. -1.
         11    1    4    4    0    0  0.44059029338E-01 -0.22231483152E-01 -0.46355541661E-01  0.67709188985E-01  0.51100000000E-03 0.  1.
</event>
<event>
 8    1  0.1090774E+005  0.1043930E+01  0.7957747E-01            NaN
         13   -1    0    0    0    0  0.00000000000E+00  0.00000000000E+00  0.74505805969E-08  0.10566000000E+00  0.10566000000E+00 0.  1.
     999900   -1    0    0    0    0 -0.00000000000E+00 -0.00000000000E+00 -0.74505805969E-08  0.93827000000E+00  0.93827000000E+00 0. -1.
     999902    2    1    2    0    0  0.21891653178E-01  0.84444664320E-02 -0.26253438598E-02  0.10203197073E+01  0.10200464985E+01 0.  0.
     999903    2    3    3    0    0 -0.13478559306E-01  0.94291449261E-01  0.87552527462E-01  0.13085199855E+00  0.19602333898E-01 0.  0.
         14    1    1    2    0    0 -0.21891653178E-01 -0.84444664320E-02  0.26253438598E-02  0.23610292725E-01  0.00000000000E+00 0.  1.
     999901    1    3    3    0    0  0.35370212483E-01 -0.85846982829E-01 -0.90177871322E-01  0.88946770873E+00  0.88000000000E+00 0. -1.
        -11    1    4    4    0    0  0.18985411117E-02  0.55098521687E-01  0.48817700629E-01  0.73640210253E-01  0.51100000000E-03 0. -1.
         11    1    4    4    0    0 -0.15377100417E-01  0.39192927575E-01  0.38734826833E-01  0.57211788295E-01  0.51100000000E-03 0.  1.
</event>
<event>
 8    1  0.1090774E+005  0.1043930E+01  0.7957747E-01            NaN
         13   -1    0    0    0    0  0.00000000000E+00  0.00000000000E+00  0.74505805969E-08  0.10566000000E+00  0.10566000000E+00 0.  1.
     999900   -1    0    0    0    0 -0.00000000000E+00 -0.00000000000E+00 -0.74505805969E-08  0.93827000000E+00  0.93827000000E+00 0. -1.
     999902    2    1    2    0    0 -0.71456951245E-03 -0.21392048256E-01  0.10202017831E-01  0.10202190003E+01  0.10199434284E+01 0.  0.
     999903    2    3    3    0    0  0.39128984083E-01 -0.69612683811E-01  0.10446774915E+00  0.13297677490E+00  0.19806789454E-01 0.  0.
         14    1    1    2    0    0  0.71456951245E-03  0.21392048256E-01 -0.10202017831E-01  0.23710999684E-01  0.00000000000E+00 0. -1.
     999901    1    3    3    0    0 -0.39843553595E-01  0.48220635555E-01 -0.94265731318E-01  0.88724222541E+00  0.88000000000E+00 0. -1.
        -11    1    4    4    0    0  0.41871792361E-02 -0.69876696528E-02  0.23183593116E-01  0.24578448037E-01  0.51100000000E-03 0.  1.
         11    1    4    4    0    0  0.34941804847E-01 -0.62625014158E-01  0.81284156033E-01  0.10839832687E+00  0.51100000000E-03 0. -1.
</event>
<event>
 8    1  0.1090774E+005  0.1043930E+01  0.7957747E-01            NaN
         13   -1    0    0    0    0  0.00000000000E+00  0.00000000000E+00  0.74505805969E-08  0.10566000000E+00  0.10566000000E+00 0. -1.
     999900   -1    0    0    0    0 -0.00000000000E+00 -0.00000000000E+00 -0.74505805969E-08  0.93827000000E+00  0.93827000000E+00 0. -1.
     999902    2    1    2    0    0 -0.12900438715E-01 -0.20137485115E-01  0.31175544076E-02  0.10198123971E+01  0.10195271779E+01 0.  0.
     999903    2    3    3    0    0  0.10706146879E+00  0.38572359637E-01 -0.54410388660E-01  0.12787788750E+00  0.21030422957E-01 0.  0.
         14    1    1    2    0    0  0.12900438715E-01  0.20137485115E-01 -0.31175544076E-02  0.24117602934E-01  0.00000000000E+00 0.  1.
     999901    1    3    3    0    0 -0.11996190750E+00 -0.58709844752E-01  0.57527943068E-01  0.89193450957E+00  0.88000000000E+00 0. -1.
        -11    1    4    4    0    0  0.24604411411E-01  0.18575971131E-01 -0.16050561053E-01  0.34760975180E-01  0.51100000000E-03 0. -1.
         11    1    4    4    0    0  0.82457057378E-01  0.19996388506E-01 -0.38359827607E-01  0.93116912319E-01  0.51100000000E-03 0.  1.
</event>
<event>
 8    1  0.1090774E+005  0.1043930E+01  0.7957747E-01            NaN
         13   -1    0    0    0    0  0.00000000000E+00  0.00000000000E+00  0.74505805969E-08  0.10566000000E+00  0.10566000000E+00 0. -1.
     999900   -1    0    0    0    0 -0.00000000000E+00 -0.00000000000E+00 -0.74505805969E-08  0.93827000000E+00  0.93827000000E+00 0.  1.
     999902    2    1    2    0    0  0.61369251876E-02 -0.19963144136E-01  0.11083144898E-01  0.10202862889E+01  0.10200122971E+01 0.  0.
     999903    2    3    3    0    0 -0.24202218662E-01 -0.89662497423E-01  0.90356700444E-01  0.13345893246E+00  0.31966271364E-01 0.  0.
         14    1    1    2    0    0 -0.61369251876E-02  0.19963144136E-01 -0.11083144898E-01  0.23643711117E-01  0.00000000000E+00 0. -1.
     999901    1    3    3    0    0  0.30339143849E-01  0.69699353287E-01 -0.79273555546E-01  0.88682735643E+00  0.88000000000E+00 0. -1.
        -11    1    4    4    0    0 -0.29588505467E-01 -0.51713233779E-01  0.60044099999E-01  0.84588966594E-01  0.51100000000E-03 0. -1.
         11    1    4    4    0    0  0.53862868055E-02 -0.37949263644E-01  0.30312600445E-01  0.48869965862E-01  0.51100000000E-03 0.  1.
</event>
<event>
 8    1  0.1090774E+005  0.1043930E+01  0.7957747E-01            NaN
         13   -1    0    0    0    0  0.00000000000E+00  0.00000000000E+00  0.74505805969E-08  0.10566000000E+00  0.10566000000E+00 0.  1.
     999900   -1    0    0    0    0 -0.00000000000E+00 -0.00000000000E+00 -0.74505805969E-08  0.93827000000E+00  0.93827000000E+00 0. -1.
     999902    2    1    2    0    0  0.21888396411E-01  0.95727750151E-02  0.36435809213E-02  0.10197635853E+01  0.10194771965E+01 0.  0.
     999903    2    3    3    0    0 -0.12453597987E+00 -0.13645276211E-01  0.14197662318E-01  0.12730038463E+00  0.17561619113E-01 0.  0.
         14    1    1    2    0    0 -0.21888396411E-01 -0.95727750151E-02 -0.36435809213E-02  0.24166414729E-01  0.00000000000E+00 0. -1.
     999901    1    3    3    0    0  0.14642437628E+00  0.23218051226E-01 -0.10554081397E-01  0.89246320065E+00  0.88000000000E+00 0.  1.
        -11    1    4    4    0    0 -0.51664780373E-01 -0.58604309951E-02  0.14608155840E-01  0.54011605424E-01  0.51100000000E-03 0. -1.
         11    1    4    4    0    0 -0.72871199496E-01 -0.77848452161E-02 -0.41049352145E-03  0.73288779202E-01  0.51100000000E-03 0.  1.
</event>
<event>
 8    1  0.1090774E+005  0.1043930E+01  0.7957747E-01            NaN
         13   -1    0    0    0    0  0.00000000000E+00  0.00000000000E+00  0.74505805969E-08  0.10566000000E+00  0.10566000000E+00 0. -1.
     999900   -1    0    0    0    0 -0.00000000000E+00 -0.00000000000E+00 -0.74505805969E-08  0.93827000000E+00  0.93827000000E+00 0. -1.
     999902    2    1    2    0    0  0.20629355161E-01  0.10093560437E-01  0.41611240413E-02  0.10205897941E+01  0.10203228718E+01 0.  0.
     999903    2    3    3    0    0 -0.10408298446E+00  0.66852118504E-01 -0.31905372640E-01  0.12925624615E+00  0.19665984977E-01 0.  0.
         14    1    1    2    0    0 -0.20629355161E-01 -0.10093560437E-01 -0.41611240413E-02  0.23340205868E-01  0.00000000000E+00 0. -1.
     999901    1    3    3    0    0  0.12471233962E+00 -0.56758558067E-01  0.36066496681E-01  0.89133354798E+00  0.88000000000E+00 0.  1.
        -11    1    4    4    0    0 -0.97259014641E-01  0.55916078573E-01 -0.30620358670E-01  0.11629183659E+00  0.51100000000E-03 0.  1.
         11    1    4    4    0    0 -0.68239698147E-02  0.10936039931E-01 -0.12850139692E-02  0.12964409563E-01  0.51100000000E-03 0. -1.
</event>
<event>
 8    1  0.1090774E+005  0.1043930E+01  0.7957747E-01            NaN
         13   -1    0    0    0    0  0.00000000000E+00  0.00000000000E+00  0.74505805969E-08  0.10566000000E+00  0.10566000000E+00 0. -1.
     999900   -1    0    0    0    0 -0.00000000000E+00 -0.00000000000E+00 -0.74505805969E-08  0.93827000000E+00  0.93827000000E+00 0. -1.
     999902    2    1    2    0    0 -0.31253000309E-03 -0.15671092214E-01  0.17918499217E-01  0.10201234164E+01  0.10198455919E+01 0.  0.
     999903    2    3    3    0    0 -0.26033105933E-01  0.17494198085E-01 -0.12253378228E+00  0.12799768098E+00  0.19624193366E-01 0.  0.
         14    1    1    2    0    0  0.31253000309E-03  0.15671092214E-01 -0.17918499217E-01  0.23806583551E-01  0.00000000000E+00 0.  1.
     999901    1    3    3    0    0  0.25720575930E-01 -0.33165290300E-01  0.14045228150E+00  0.89212573547E+00  0.88000000000E+00 0.  1.
        -11    1    4    4    0    0 -0.19619631664E-01  0.22040125253E-02 -0.78398700170E-01  0.80848036013E-01  0.51100000000E-03 0. -1.
         11    1    4    4    0    0 -0.64134742695E-02  0.15290185560E-01 -0.44135082110E-01  0.47149644967E-01  0.51100000000E-03 0.  1.
</event>
<event>
 8    1  0.1090774E+005  0.1043930E+01  0.7957747E-01            NaN
         13   -1    0    0    0    0  0.00000000000E+00  0.00000000000E+00  0.74505805969E-08  0.10566000000E+00  0.10566000000E+00 0. -1.
     999900   -1    0    0    0    0 -0.00000000000E+00 -0.00000000000E+00 -0.74505805969E-08  0.93827000000E+00  0.93827000000E+00 0. -1.
     999902    2    1    2    0    0 -0.18952414868E-01  0.33691290857E-02  0.16692472779E-01  0.10184509163E+01  0.10181321551E+01 0.  0.
     999903    2    3    3    0    0 -0.11042130781E+00  0.49324402794E-01 -0.44688072592E-01  0.13039347618E+00  0.19485196126E-01 0.  0.
         14    1    1    2    0    0  0.18952414868E-01 -0.33691290857E-02 -0.16692472779E-01  0.25479083728E-01  0.00000000000E+00 0. -1.
     999901    1    3    3    0    0  0.91468892942E-01 -0.45955273709E-01  0.61380545371E-01  0.88805744009E+00  0.88000000000E+00 0.  1.
        -11    1    4    4    0    0 -0.63359162939E-01  0.18936714088E-01 -0.29046378255E-01  0.72228359247E-01  0.51100000000E-03 0.  1.
         11    1    4    4    0    0 -0.47062144871E-01  0.30387688706E-01 -0.15641694338E-01  0.58165116930E-01  0.51100000000E-03 0. -1.
</event>
<event>
 8    1  0.1090774E+005  0.1043930E+01  0.7957747E-01            NaN
         13   -1    0    0    0    0  0.00000000000E+00  0.00000000000E+00  0.74505805969E-08  0.10566000000E+00  0.10566000000E+00 0. -1.
     999900   -1    0    0    0    0 -0.00000000000E+00 -0.00000000000E+00 -0.74505805969E-08  0.93827000000E+00  0.93827000000E+00 0. -1.
     999902    2    1    2    0    0 -0.17004074310E-01 -0.11372341216E-01 -0.12582091914E-01  0.10199138029E+01  0.10196310056E+01 0.  0.
     999903    2    3    3    0    0  0.71195633621E-01  0.53602361241E-01 -0.91928907368E-01  0.12957857523E+00  0.19941207896E-01 0.  0.
         14    1    1    2    0    0  0.17004074310E-01  0.11372341216E-01  0.12582091914E-01  0.24016197135E-01  0.00000000000E+00 0. -1.
     999901    1    3    3    0    0 -0.88199707932E-01 -0.64974702457E-01  0.79346815455E-01  0.89033522763E+00  0.88000000000E+00 0. -1.
        -11    1    4    4    0    0  0.26435135794E-01  0.31962187924E-01 -0.45146606401E-01  0.61309665240E-01  0.51100000000E-03 0.  1.
         11    1    4    4    0    0  0.44760497827E-01  0.21640173317E-01 -0.46782300967E-01  0.68268909994E-01  0.51100000000E-03 0. -1.
</event>
<event>
 8    1  0.1090774E+005  0.1043930E+01  0.7957747E-01            NaN
         13   -1    0    0    0    0  0.00000000000E+00  0.00000000000E+00  0.74505805969E-08  0.10566000000E+00  0.10566000000E+00 0.  1.
     999900   -1    0    0    0    0 -0.00000000000E+00 -0.00000000000E+00 -0.74505805969E-08  0.93827000000E+00  0.93827000000E+00 0.  1.
     999902    2    1    2    0    0 -0.13534970573E-02  0.12890139043E-01 -0.19505001552E-01  0.10205113595E+01  0.10202426192E+01 0.  0.
     999903    2    3    3    0    0 -0.70483511299E-01 -0.20691425008E-01  0.10394490818E+00  0.12857719120E+00  0.18206859308E-01 0.  0.
         14    1    1    2    0    0  0.13534970573E-02 -0.12890139043E-01  0.19505001552E-01  0.23418640532E-01  0.00000000000E+00 0. -1.
     999901    1    3    3    0    0  0.69130014242E-01  0.33581564051E-01 -0.12344990973E+00  0.89193416827E+00  0.88000000000E+00 0.  1.
        -11    1    4    4    0    0 -0.44775968711E-01 -0.22085513613E-01  0.68899104279E-01  0.85088218791E-01  0.51100000000E-03 0. -1.
         11    1    4    4    0    0 -0.25707542588E-01  0.13940886046E-02  0.35045803902E-01  0.43488972408E-01  0.51100000000E-03 0.  1.
</event>
<event>
 8    1  0.1090774E+005  0.1043930E+01  0.7957747E-01            NaN
         13   -1    0    0    0    0  0.00000000000E+00  0.00000000000E+00  0.74505805969E-08  0.10566000000E+00  0.10566000000E+00 0.  1.
     999900   -1    0    0    0    0 -0.00000000000E+00 -0.00000000000E+00 -0.74505805969E-08  0.93827000000E+00  0.93827000000E+00 0.  1.
     999902    2    1    2    0    0  0.23622296031E-01 -0.41487061526E-02  0.37266225779E-02  0.10196583633E+01  0.10193694450E+01 0.  0.
     999903    2    3    3    0    0 -0.12479239243E+00  0.28694445910E-02  0.17662769280E-02  0.12720107180E+00  0.24405286566E-01 0.  0.
         14    1    1    2    0    0 -0.23622296031E-01  0.41487061526E-02 -0.37266225779E-02  0.24271636705E-01  0.00000000000E+00 0. -1.
     999901    1    3    3    0    0  0.14841468846E+00 -0.70181507435E-02  0.19603456499E-02  0.89245729150E+00  0.88000000000E+00 0.  1.
        -11    1    4    4    0    0 -0.64907498463E-01 -0.10278181395E-01  0.40736541983E-02  0.65844363077E-01  0.51100000000E-03 0.  1.
         11    1    4    4    0    0 -0.59884893965E-01  0.13147625986E-01 -0.23073772703E-02  0.61356708721E-01  0.51100000000E-03 0. -1.
</event>
<event>
 8    1  0.1090774E+005  0.1043930E+01  0.7957747E-01            NaN
         13   -1    0    0    0    0  0.00000000000E+00  0.00000000000E+00  0.74505805969E-08  0.10566000000E+00  0.10566000000E+00 0. -1.
     999900   -1    0    0    0    0 -0.00000000000E+00 -0.00000000000E+00 -0.74505805969E-08  0.93827000000E+00  0.93827000000E+00 0. -1.
     999902    2    1    2    0    0 -0.99315562481E-02  0.92022037342E-02  0.18618705887E-01  0.10209088668E+01  0.10206492746E+01 0.  0.
     999903    2    3    3    0    0  0.98482655982E-01  0.81980125960E-01  0.19747644968E-01  0.13127324374E+00  0.20569892067E-01 0.  0.
         14    1    1    2    0    0  0.99315562481E-02 -0.92022037342E-02 -0.18618705887E-01  0.23021133160E-01  0.00000000000E+00 0.  1.
     999901    1    3    3    0    0 -0.10841421223E+00 -0.72777922226E-01 -0.11289390805E-02  0.88963562310E+00  0.88000000000E+00 0.  1.
        -11    1    4    4    0    0  0.43106696052E-01  0.22954592936E-01  0.78192519120E-02  0.49462130997E-01  0.51100000000E-03 0. -1.
         11    1    4    4    0    0  0.55375959930E-01  0.59025533024E-01  0.11928393056E-01  0.81811112747E-01  0.51100000000E-03 0.  1.
</event>
<event>
 8    1  0.1090774E+005  0.1043930E+01  0.7957747E-01            NaN
         13   -1    0    0    0    0  0.00000000000E+00  0.00000000000E+00  0.74505805969E-08  0.10566000000E+00  0.10566000000E+00 0.  1.
     999900   -1    0    0    0    0 -0.00000000000E+00 -0.00000000000E+00 -0.74505805969E-08  0.93827000000E+00  0.93827000000E+00 0. -1.
     999902    2    1    2    0    0  0.12587940071E-01  0.10059400028E-01  0.16969453208E-01  0.10205289294E+01  0.10202605969E+01 0.  0.
     999903    2    3    3    0    0 -0.26878524346E-01 -0.14171269966E-02  0.12836756284E+00  0.13255435130E+00  0.19182323598E-01 0.  0.
         14    1    1    2    0    0 -0.12587940071E-01 -0.10059400028E-01 -0.16969453208E-01  0.23401070624E-01  0.00000000000E+00 0. -1.
     999901    1    3    3    0    0  0.39466464417E-01  0.11476527025E-01 -0.11139810963E+00  0.88797457808E+00  0.88000000000E+00 0. -1.
        -11    1    4    4    0    0 -0.58018215259E-02  0.77239612832E-02  0.48053384472E-01  0.49017441704E-01  0.51100000000E-03 0. -1.
         11    1    4    4    0    0 -0.21076702820E-01 -0.91410882798E-02  0.80314178366E-01  0.83536909593E-01  0.51100000000E-03 0.  1.
</event>
<event>
 8    1  0.1090774E+005  0.1043930E+01  0.7957747E-01            NaN
         13   -1    0    0    0    0  0.00000000000E+00  0.00000000000E+00  0.74505805969E-08  0.10566000000E+00  0.10566000000E+00 0.  1.
     999900   -1    0    0    0    0 -0.00000000000E+00 -0.00000000000E+00 -0.74505805969E-08  0.93827000000E+00  0.93827000000E+00 0. -1.
     999902    2    1    2    0    0  0.15459331199E-01  0.14199256007E-01 -0.11530792423E-01  0.10199807001E+01  0.10196994947E+01 0.  0.
     999903    2    3    3    0    0  0.52807315997E-01 -0.74833154530E-01 -0.91686620910E-01  0.13107879384E+00  0.19662148941E-01 0.  0.
         14    1    1    2    0    0 -0.15459331199E-01 -0.14199256007E-01  0.11530792423E-01  0.23949299910E-01  0.00000000000E+00 0.  1.
     999901    1    3    3    0    0 -0.37347984798E-01  0.89032410537E-01  0.80155828487E-01  0.88890190625E+00  0.88000000000E+00 0. -1.
        -11    1    4    4    0    0  0.18562988065E-01 -0.38716789683E-01 -0.33183218252E-01  0.54267498779E-01  0.51100000000E-03 0. -1.
         11    1    4    4    0    0  0.34244327932E-01 -0.36116364847E-01 -0.58503402659E-01  0.76811295061E-01  0.51100000000E-03 0.  1.
</event>
<event>
 8    1  0.1090774E+005  0.1043930E+01  0.7957747E-01            NaN
         13   -1    0    0    0    0  0.00000000000E+00  0.00000000000E+00  0.74505805969E-08  0.10566000000E+00  0.10566000000E+00 0. -1.
     999900   -1    0    0    0    0 -0.00000000000E+00 -0.00000000000E+00 -0.74505805969E-08  0.93827000000E+00  0.93827000000E+00 0.  1.
     999902    2    1    2    0    0 -0.11747244479E-01 -0.34203887508E-02 -0.19852708041E-01  0.10206099050E+01  0.10203434478E+01 0.  0.
     999903    2    3    3    0    0  0.53725747902E-01 -0.63367430982E-01  0.96042518156E-01  0.12858296372E+00  0.20187272415E-01 0.  0.
         14    1    1    2    0    0  0.11747244479E-01  0.34203887508E-02  0.19852708041E-01  0.23320094953E-01  0.00000000000E+00 0. -1.
     999901    1    3    3    0    0 -0.65472992381E-01  0.59947042232E-01 -0.11589522620E+00  0.89202694133E+00  0.88000000000E+00 0. -1.
        -11    1    4    4    0    0  0.36179480627E-01 -0.37440888729E-01  0.73186218973E-01  0.89817919904E-01  0.51100000000E-03 0. -1.
         11    1    4    4    0    0  0.17546267275E-01 -0.25926542254E-01  0.22856299183E-01  0.38765043813E-01  0.51100000000E-03 0.  1.
</event>
<event>
 8    1  0.1090774E+005  0.1043930E+01  0.7957747E-01            NaN
         13   -1    0    0    0    0  0.00000000000E+00  0.00000000000E+00  0.74505805969E-08  0.10566000000E+00  0.10566000000E+00 0. -1.
     999900   -1    0    0    0    0 -0.00000000000E+00 -0.00000000000E+00 -0.74505805969E-08  0.93827000000E+00  0.93827000000E+00 0. -1.
     999902    2    1    2    0    0  0.64028040379E-03 -0.11449315320E-01 -0.21269377852E-01  0.10197663245E+01  0.10194800014E+01 0.  0.
     999903    2    3    3    0    0  0.74004184983E-01  0.83360855500E-01 -0.65805213524E-01  0.13052244812E+00  0.16737135719E-01 0.  0.
         14    1    1    2    0    0 -0.64028040379E-03  0.11449315320E-01  0.21269377852E-01  0.24163675517E-01  0.00000000000E+00 0. -1.
     999901    1    3    3    0    0 -0.73363904579E-01 -0.94810170820E-01  0.44535835673E-01  0.88924387636E+00  0.88000000000E+00 0. -1.
        -11    1    4    4    0    0  0.47371257113E-01  0.63487526429E-01 -0.50420375969E-01  0.93899826658E-01  0.51100000000E-03 0.  1.
         11    1    4    4    0    0  0.26632927870E-01  0.19873329071E-01 -0.15384837556E-01  0.36622621464E-01  0.51100000000E-03 0. -1.
</event>
<event>
 7    1  0.1090774E+005  0.1043930E+01  0.7957747E-01            NaN
         13   -1    0    0    0    0  0.00000000000E+00  0.00000000000E+00  0.74505805969E-08  0.10566000000E+00  0.10566000000E+00 0. -1.
     999900   -1    0    0    0    0 -0.00000000000E+00 -0.00000000000E+00 -0.74505805969E-08  0.93827000000E+00  0.93827000000E+00 0.  1.
     999903    2    1    2    0    0  0.23412637943E-02 -0.15780274098E-02 -0.97085758677E-01  0.99266173749E-01  0.20497732223E-01 0.  0.
         14    1    1    2    0    0  0.49544661272E-01 -0.22979209298E-01  0.24357321623E-01  0.59799637433E-01  0.00000000000E+00 0. -1.
     999901    1    1    2    0    0 -0.51885925067E-01  0.24557236708E-01  0.72728437054E-01  0.88486418882E+00  0.88000000000E+00 0. -1.
        -11    1    3    3    0    0 -0.84464837293E-02  0.27405303924E-02 -0.35966714707E-01  0.37050226478E-01  0.51100000000E-03 0.  1.
         11    1    3    3    0    0  0.10787747524E-01 -0.43185578022E-02 -0.61119043970E-01  0.62215947272E-01  0.51100000000E-03 0. -1.
</event>
<event>
 8    1  0.1090774E+005  0.1043930E+01  0.7957747E-01            NaN
         13   -1    0    0    0    0  0.00000000000E+00  0.00000000000E+00  0.74505805969E-08  0.10566000000E+00  0.10566000000E+00 0.  1.
     999900   -1    0    0    0    0 -0.00000000000E+00 -0.00000000000E+00 -0.74505805969E-08  0.93827000000E+00  0.93827000000E+00 0. -1.
     999902    2    1    2    0    0 -0.17226083836E-01  0.16574621622E-01  0.42518775665E-04  0.10200248153E+01  0.10197446573E+01 0.  0.
     999903    2    3    3    0    0 -0.21121305622E-01  0.19536758978E-03  0.12758819281E+00  0.13067035749E+00  0.18704215093E-01 0.  0.
         14    1    1    2    0    0  0.17226083836E-01 -0.16574621622E-01 -0.42518775665E-04  0.23905184670E-01  0.00000000000E+00 0. -1.
     999901    1    3    3    0    0  0.38952217863E-02  0.16379254032E-01 -0.12754567403E+00  0.88935445784E+00  0.88000000000E+00 0. -1.
        -11    1    4    4    0    0 -0.68057234999E-02  0.64536609949E-02  0.21857430510E-01  0.23790250148E-01  0.51100000000E-03 0.  1.
         11    1    4    4    0    0 -0.14315582122E-01 -0.62582934051E-02  0.10573076230E+00  0.10688010734E+00  0.51100000000E-03 0. -1.
</event>
<event>
 7    1  0.1090774E+005  0.1043930E+01  0.7957747E-01            NaN
         13   -1    0    0    0    0  0.00000000000E+00  0.00000000000E+00  0.74505805969E-08  0.10566000000E+00  0.10566000000E+00 0. -1.
     999900   -1    0    0    0    0 -0.00000000000E+00 -0.00000000000E+00 -0.74505805969E-08  0.93827000000E+00  0.93827000000E+00 0.  1.
     999903    2    1    2    0    0  0.19558373820E-01  0.23771243579E-01 -0.95074519791E-01  0.10212019184E+00  0.21018260175E-01 0.  0.
         14    1    1    2    0    0 -0.50789050422E-01 -0.50887468832E-02  0.28703653679E-01  0.58560419416E-01  0.00000000000E+00 0. -1.
     999901    1    1    2    0    0  0.31230676602E-01 -0.18682496695E-01  0.66370866112E-01  0.88324938874E+00  0.88000000000E+00 0. -1.
        -11    1    3    3    0    0  0.16769765930E-01  0.15786514339E-01 -0.38130554295E-01  0.44549291533E-01  0.51100000000E-03 0.  1.
         11    1    3    3    0    0  0.27886078899E-02  0.79847292400E-02 -0.56943965497E-01  0.57570900310E-01  0.51100000000E-03 0. -1.
</event>
<event>
 8    1  0.1090774E+005  0.1043930E+01  0.7957747E-01            NaN
         13   -1    0    0    0    0  0.00000000000E+00  0.00000000000E+00  0.74505805969E-08  0.10566000000E+00  0.10566000000E+00 0. -1.
     999900   -1    0    0    0    0 -0.00000000000E+00 -0.00000000000E+00 -0.74505805969E-08  0.93827000000E+00  0.93827000000E+00 0. -1.
     999902    2    1    2    0    0  0.24169654175E-01 -0.38138868920E-02 -0.46938337757E-05  0.10194612865E+01  0.10191676000E+01 0.  0.
     999903    2    3    3    0    0  0.87188258025E-01  0.83253035852E-01 -0.49094487972E-01  0.13156388180E+00  0.19129190475E-01 0.  0.
         14    1    1    2    0    0 -0.24169654175E-01  0.38138868920E-02  0.46938337757E-05  0.24468713457E-01  0.00000000000E+00 0. -1.
     999901    1    3    3    0    0 -0.63018603850E-01 -0.87066922744E-01  0.49089794139E-01  0.88789740475E+00  0.88000000000E+00 0. -1.
        -11    1    4    4    0    0  0.29294725099E-01  0.32330010900E-01 -0.85922967047E-02  0.44469081474E-01  0.51100000000E-03 0.  1.
         11    1    4    4    0    0  0.57893532926E-01  0.50923024951E-01 -0.40502191268E-01  0.87094800323E-01  0.51100000000E-03 0. -1.
</event>
<event>
 8    1  0.1090774E+005  0.1043930E+01  0.7957747E-01            NaN
         13   -1    0    0    0    0  0.00000000000E+00  0.00000000000E+00  0.74505805969E-08  0.10566000000E+00  0.10566000000E+00 0. -1.
     999900   -1    0    0    0    0 -0.00000000000E+00 -0.00000000000E+00 -0.74505805969E-08  0.93827000000E+00  0.93827000000E+00 0.  1.
     999902    2    1    2    0    0  0.59573729626E-02 -0.12005174974E-01  0.19668901987E-01  0.10201291550E+01  0.10198514659E+01 0.  0.
     999903    2    3    3    0    0  0.59015877556E-01 -0.35265058635E-01 -0.10725553421E+00  0.12913755030E+00  0.21124845893E-01 0.  0.
         14    1    1    2    0    0 -0.59573729626E-02  0.12005174974E-01 -0.19668901987E-01  0.23800845030E-01  0.00000000000E+00 0.  1.
     999901    1    3    3    0    0 -0.53058504594E-01  0.23259883661E-01  0.12692443619E+00  0.89099160467E+00  0.88000000000E+00 0. -1.
        -11    1    4    4    0    0  0.40233544096E-01 -0.17084096269E-01 -0.51462623407E-01  0.67522345522E-01  0.51100000000E-03 0.  1.
         11    1    4    4    0    0  0.18782333461E-01 -0.18180962366E-01 -0.55792910800E-01  0.61615204774E-01  0.51100000000E-03 0. -1.
</event>
<event>
 8    1  0.1090774E+005  0.1043930E+01  0.7957747E-01            NaN
         13   -1    0    0    0    0  0.00000000000E+00  0.00000000000E+00  0.74505805969E-08  0.10566000000E+00  0.10566000000E+00 0.  1.
     999900   -1    0    0    0    0 -0.00000000000E+00 -0.00000000000E+00 -0.74505805969E-08  0.93827000000E+00  0.93827000000E+00 0.  1.
     999902    2    1    2    0    0  0.13262099045E-01  0.11721362805E-01 -0.15042004012E-01  0.10207020965E+01  0.10204377660E+01 0.  0.
     999903    2    3    3    0    0  0.11125329003E+00  0.70031996075E-01  0.59422229645E-02  0.13309703721E+00  0.19943326793E-01 0.  0.
         14    1    1    2    0    0 -0.13262099045E-01 -0.11721362805E-01  0.15042004012E-01  0.23227903516E-01  0.00000000000E+00 0.  1.
     999901    1    3    3    0    0 -0.97991190987E-01 -0.58310633271E-01 -0.20984226976E-01  0.88760505927E+00  0.88000000000E+00 0. -1.
        -11    1    4    4    0    0  0.30993219228E-01  0.19038953679E-01 -0.72582033039E-02  0.37094528323E-01  0.51100000000E-03 0.  1.
         11    1    4    4    0    0  0.80260070803E-01  0.50993042396E-01  0.13200426268E-01  0.96002508888E-01  0.51100000000E-03 0. -1.
</event>
<event>
 8    1  0.1090774E+005  0.1043930E+01  0.7957747E-01            NaN
         13   -1    0    0    0    0  0.00000000000E+00  0.00000000000E+00  0.74505805969E-08  0.10566000000E+00  0.10566000000E+00 0. -1.
     999900   -1    0    0    0    0 -0.00000000000E+00 -0.00000000000E+00 -0.74505805969E-08  0.93827000000E+00  0.93827000000E+00 0.  1.
     999902    2    1    2    0    0 -0.91353734139E-02  0.21723942643E-01 -0.26163882568E-02  0.10202186057E+01  0.10199430245E+01 0.  0.
     999903    2    3    3    0    0  0.42960849153E-01  0.87151880089E-01  0.86426189355E-01  0.13177985598E+00  0.21339153518E-01 0.  0.
         14    1    1    2    0    0  0.91353734139E-02 -0.21723942643E-01  0.26163882568E-02  0.23711394284E-01  0.00000000000E+00 0. -1.
     999901    1    3    3    0    0 -0.52096222567E-01 -0.65427937446E-01 -0.89042577612E-01  0.88843874974E+00  0.88000000000E+00 0.  1.
        -11    1    4    4    0    0  0.29256528858E-01  0.56651412251E-01  0.42731906405E-01  0.76756784305E-01  0.51100000000E-03 0. -1.
         11    1    4    4    0    0  0.13704320295E-01  0.30500467838E-01  0.43694282950E-01  0.55023071675E-01  0.51100000000E-03 0.  1.
</event>
<event>
 8    1  0.1090774E+005  0.1043930E+01  0.7957747E-01            NaN
         13   -1    0    0    0    0  0.00000000000E+00  0.00000000000E+00  0.74505805969E-08  0.10566000000E+00  0.10566000000E+00 0.  1.
     999900   -1    0    0    0    0 -0.00000000000E+00 -0.00000000000E+00 -0.74505805969E-08  0.93827000000E+00  0.93827000000E+00 0.  1.
     999902    2    1    2    0    0 -0.20854618765E-01  0.10202000015E-01 -0.74335332143E-02  0.10195526879E+01  0.10192612178E+01 0.  0.
     999903    2    3    3    0    0  0.49302032364E-01 -0.76183802629E-01  0.87330747166E-01  0.12749622590E+00  0.19848577786E-01 0.  0.
         14    1    1    2    0    0  0.20854618765E-01 -0.10202000015E-01  0.74335332143E-02  0.24377312079E-01  0.00000000000E+00 0.  1.
     999901    1    3    3    0    0 -0.70156651129E-01  0.86385802644E-01 -0.94764280381E-01  0.89205646202E+00  0.88000000000E+00 0.  1.
        -11    1    4    4    0    0  0.20211007319E-01 -0.39895650586E-01  0.54808800770E-01  0.70741879501E-01  0.51100000000E-03 0. -1.
         11    1    4    4    0    0  0.29091025045E-01 -0.36288152043E-01  0.32521946397E-01  0.56754346400E-01  0.51100000000E-03 0.  1.
</event>
<event>
 8    1  0.1090774E+005  0.1043930E+01  0.7957747E-01            NaN
         13   -1    0    0    0    0  0.00000000000E+00  0.00000000000E+00  0.74505805969E-08  0.10566000000E+00  0.10566000000E+00 0. -1.
     999900   -1    0    0    0    0 -0.00000000000E+00 -0.00000000000E+00 -0.74505805969E-08  0.93827000000E+00  0.93827000000E+00 0.  1.
     999902    2    1    2    0    0 -0.20357180491E-01  0.96229091670E-02 -0.10595610595E-01  0.10190446199E+01  0.10187407203E+01 0.  0.
     999903    2    3    3    0    0 -0.91128194688E-01 -0.82523496122E-01 -0.40062638769E-01  0.13091861409E+00  0.20498614865E-01 0.  0.
         14    1    1    2    0    0  0.20357180491E-01 -0.96229091670E-02  0.10595610595E-01  0.24885380091E-01  0.00000000000E+00 0.  1.
     999901    1    3    3    0    0  0.70771014197E-01  0.92146405289E-01  0.29467028174E-01  0.88812600582E+00  0.88000000000E+00 0. -1.
        -11    1    4    4    0    0 -0.13907152163E-01 -0.23981170613E-01 -0.94758226514E-02  0.29301156311E-01  0.51100000000E-03 0.  1.
         11    1    4    4    0    0 -0.77221042526E-01 -0.58542325509E-01 -0.30586816118E-01  0.10161745778E+00  0.51100000000E-03 0. -1.
</event>
<event>
 8    1  0.1090774E+005  0.1043930E+01  0.7957747E-01            NaN
         13   -1    0    0    0    0  0.00000000000E+00  0.00000000000E+00  0.74505805969E-08  0.10566000000E+00  0.10566000000E+00 0. -1.
     999900   -1    0    0    0    0 -0.00000000000E+00 -0.00000000000E+00 -0.74505805969E-08  0.93827000000E+00  0.93827000000E+00 0. -1.
     999902    2    1    2    0    0 -0.14825438181E-01  0.18462601909E-01  0.36590435579E-02  0.10199706618E+01  0.10196892179E+01 0.  0.
     999903    2    3    3    0    0 -0.39342484849E-01  0.41949672292E-01 -0.11561269189E+00  0.13127584641E+00  0.23652636297E-01 0.  0.
         14    1    1    2    0    0  0.14825438181E-01 -0.18462601909E-01 -0.36590435579E-02  0.23959338185E-01  0.00000000000E+00 0.  1.
     999901    1    3    3    0    0  0.24517046668E-01 -0.23487070383E-01  0.11927173545E+00  0.88869481541E+00  0.88000000000E+00 0.  1.
        -11    1    4    4    0    0 -0.65905928549E-02  0.17136046425E-01 -0.55495777604E-01  0.58456158394E-01  0.51100000000E-03 0. -1.
         11    1    4    4    0    0 -0.32751891994E-01  0.24813625867E-01 -0.60116914290E-01  0.72819688015E-01  0.51100000000E-03 0.  1.
</event>
<event>
 8    1  0.1090774E+005  0.1043930E+01  0.7957747E-01            NaN
         13   -1    0    0    0    0  0.00000000000E+00  0.00000000000E+00  0.74505805969E-08  0.10566000000E+00  0.10566000000E+00 0. -1.
     999900   -1    0    0    0    0 -0.00000000000E+00 -0.00000000000E+00 -0.74505805969E-08  0.93827000000E+00  0.93827000000E+00 0. -1.
     999902    2    1    2    0    0  0.22994413009E-01  0.60494549032E-02  0.22212151431E-02  0.10200496162E+01  0.10197700460E+01 0.  0.
     999903    2    3    3    0    0  0.41030526986E-01  0.34742672155E-01 -0.11810766778E+00  0.13121462465E+00  0.19424189023E-01 0.  0.
         14    1    1    2    0    0 -0.22994413009E-01 -0.60494549032E-02 -0.22212151431E-02  0.23880383811E-01  0.00000000000E+00 0.  1.
     999901    1    3    3    0    0 -0.18036113977E-01 -0.28693217251E-01  0.12032888292E+00  0.88883499154E+00  0.88000000000E+00 0.  1.
        -11    1    4    4    0    0  0.33303780561E-01  0.19761295841E-01 -0.66900602425E-01  0.77302020276E-01  0.51100000000E-03 0. -1.
         11    1    4    4    0    0  0.77267464244E-02  0.14981376314E-01 -0.51207065357E-01  0.53912604371E-01  0.51100000000E-03 0.  1.
</event>
<event>
 8    1  0.1090774E+005  0.1043930E+01  0.7957747E-01            NaN
         13   -1    0    0    0    0  0.00000000000E+00  0.00000000000E+00  0.74505805969E-08  0.10566000000E+00  0.10566000000E+00 0.  1.
     999900   -1    0    0    0    0 -0.00000000000E+00 -0.00000000000E+00 -0.74505805969E-08  0.93827000000E+00  0.93827000000E+00 0. -1.
     999902    2    1    2    0    0  0.26222978717E-02  0.91082937945E-02 -0.21560237050E-01  0.10203783274E+01  0.10201064894E+01 0.  0.
     999903    2    3    3    0    0  0.99922003525E-01 -0.25904678738E-01 -0.80455187077E-01  0.13236832962E+00  0.19821160159E-01 0.  0.
         14    1    1    2    0    0 -0.26222978717E-02 -0.91082937945E-02  0.21560237050E-01  0.23551672629E-01  0.00000000000E+00 0.  1.
     999901    1    3    3    0    0 -0.97299705653E-01  0.35012972532E-01  0.58894950027E-01  0.88800999775E+00  0.88000000000E+00 0. -1.
        -11    1    4    4    0    0  0.29845052922E-01  0.71105104381E-03 -0.27452607138E-01  0.40560319737E-01  0.51100000000E-03 0. -1.
         11    1    4    4    0    0  0.70076950603E-01 -0.26615729781E-01 -0.53002579939E-01  0.91808009883E-01  0.51100000000E-03 0.  1.
</event>
<event>
 8    1  0.1090774E+005  0.1043930E+01  0.7957747E-01            NaN
         13   -1    0    0    0    0  0.00000000000E+00  0.00000000000E+00  0.74505805969E-08  0.10566000000E+00  0.10566000000E+00 0.  1.
     999900   -1    0    0    0    0 -0.00000000000E+00 -0.00000000000E+00 -0.74505805969E-08  0.93827000000E+00  0.93827000000E+00 0.  1.
     999902    2    1    2    0    0  0.21685499006E-01 -0.66613545919E-02 -0.32183297518E-02  0.10210172926E+01  0.10207601676E+01 0.  0.
     999903    2    3    3    0    0 -0.11557199158E+00 -0.11893461268E-01  0.51992518570E-01  0.12865232726E+00  0.18704535954E-01 0.  0.
         14    1    1    2    0    0 -0.21685499006E-01  0.66613545919E-02  0.32183297518E-02  0.22912707359E-01  0.00000000000E+00 0. -1.
     999901    1    3    3    0    0  0.13725749058E+00  0.52321066763E-02 -0.55210848322E-01  0.89236496538E+00  0.88000000000E+00 0. -1.
        -11    1    4    4    0    0 -0.38577595061E-01 -0.25700016435E-02  0.27022926440E-01  0.47173461009E-01  0.51100000000E-03 0. -1.
         11    1    4    4    0    0 -0.76994396514E-01 -0.93234596247E-02  0.24969592131E-01  0.81478866254E-01  0.51100000000E-03 0.  1.
</event>
<event>
 8    1  0.1090774E+005  0.1043930E+01  0.7957747E-01            NaN
         13   -1    0    0    0    0  0.00000000000E+00  0.00000000000E+00  0.74505805969E-08  0.10566000000E+00  0.10566000000E+00 0.  1.
     999900   -1    0    0    0    0 -0.00000000000E+00 -0.00000000000E+00 -0.74505805969E-08  0.93827000000E+00  0.93827000000E+00 0.  1.
     999902    2    1    2    0    0 -0.22766653916E-01  0.79449706699E-02  0.20076809812E-03  0.10198160331E+01  0.10195309010E+01 0.  0.
     999903    2    3    3    0    0 -0.12168833409E+00 -0.48095889300E-01 -0.18537634174E-01  0.13230422787E+00  0.62848714644E-02 0.  0.
         14    1    1    2    0    0  0.22766653916E-01 -0.79449706699E-02 -0.20076809812E-03  0.24113966851E-01  0.00000000000E+00 0.  1.
     999901    1    3    3    0    0  0.98921680175E-01  0.56040859970E-01  0.18738402272E-01  0.88751180528E+00  0.88000000000E+00 0. -1.
        -11    1    4    4    0    0 -0.74665636617E-01 -0.27310998408E-01 -0.13507713606E-01  0.80644698359E-01  0.51100000000E-03 0. -1.
         11    1    4    4    0    0 -0.47022697474E-01 -0.20784890892E-01 -0.50299205671E-02  0.51659529508E-01  0.51100000000E-03 0.  1.
</event>
<event>
 8    1  0.1090774E+005  0.1043930E+01  0.7957747E-01            NaN
         13   -1    0    0    0    0  0.00000000000E+00  0.00000000000E+00  0.74505805969E-08  0.10566000000E+00  0.10566000000E+00 0. -1.
     999900   -1    0    0    0    0 -0.00000000000E+00 -0.00000000000E+00 -0.74505805969E-08  0.93827000000E+00  0.93827000000E+00 0.  1.
     999902    2    1    2    0    0  0.12732239663E-01 -0.20529364557E-01  0.11444058770E-01  0.10171992833E+01  0.10168479978E+01 0.  0.
     999903    2    3    3    0    0  0.97575576940E-01  0.63758704889E-01  0.50277852266E-01  0.12826118978E+00  0.18354964217E-01 0.  0.
         14    1    1    2    0    0 -0.12732239663E-01  0.20529364557E-01 -0.11444058770E-01  0.26730716733E-01  0.00000000000E+00 0.  1.
     999901    1    3    3    0    0 -0.84843337277E-01 -0.84288069446E-01 -0.38833793496E-01  0.88893809348E+00  0.88000000000E+00 0.  1.
        -11    1    4    4    0    0  0.70814640899E-01  0.37581475931E-01  0.39048429804E-01  0.89174669553E-01  0.51100000000E-03 0. -1.
         11    1    4    4    0    0  0.26760936041E-01  0.26177228959E-01  0.11229422462E-01  0.39086520229E-01  0.51100000000E-03 0.  1.
</event>
<event>
 8    1  0.1090774E+005  0.1043930E+01  0.7957747E-01            NaN
         13   -1    0    0    0    0  0.00000000000E+00  0.00000000000E+00  0.74505805969E-08  0.10566000000E+00  0.10566000000E+00 0.  1.
     999900   -1    0    0    0    0 -0.00000000000E+00 -0.00000000000E+00 -0.74505805969E-08  0.93827000000E+00  0.93827000000E+00 0. -1.
     999902    2    1    2    0    0 -0.10135565427E-01  0.62590812621E-02  0.20790418205E-01  0.10199686295E+01  0.10196871373E+01 0.  0.
     999903    2    3    3    0    0 -0.10229324409E+00 -0.63550590510E-01 -0.44882223806E-01  0.12998024540E+00  0.19438745848E-01 0.  0.
         14    1    1    2    0    0  0.10135565427E-01 -0.62590812621E-02 -0.20790418205E-01  0.23961370452E-01  0.00000000000E+00 0. -1.
     999901    1    3    3    0    0  0.92157678662E-01  0.69809671772E-01  0.65672642012E-01  0.88998838415E+00  0.88000000000E+00 0. -1.
        -11    1    4    4    0    0 -0.80781767001E-01 -0.51656045235E-01 -0.43672901007E-01  0.10536424580E+00  0.51100000000E-03 0.  1.
         11    1    4    4    0    0 -0.21511477088E-01 -0.11894545275E-01 -0.12093227988E-02  0.24615999602E-01  0.51100000000E-03 0. -1.
</event>
<event>
 8    1  0.1090774E+005  0.1043930E+01  0.7957747E-01            NaN
         13   -1    0    0    0    0  0.00000000000E+00  0.00000000000E+00  0.74505805969E-08  0.10566000000E+00  0.10566000000E+00 0. -1.
     999900   -1    0    0    0    0 -0.00000000000E+00 -0.00000000000E+00 -0.74505805969E-08  0.93827000000E+00  0.93827000000E+00 0. -1.
     999902    2    1    2    0    0 -0.47813302613E-02  0.29566204744E-01  0.11380954848E-02  0.10139580657E+01  0.10135149936E+01 0.  0.
     999903    2    3    3    0    0 -0.11908841813E+00  0.28122956795E-01  0.24368153266E-01  0.12626001523E+00  0.19360591929E-01 0.  0.
         14    1    1    2    0    0  0.47813302613E-02 -0.29566204744E-01 -0.11380954848E-02  0.29971934261E-01  0.00000000000E+00 0. -1.
     999901    1    3    3    0    0  0.11430708787E+00  0.14432479490E-02 -0.23230057781E-01  0.88769805051E+00  0.88000000000E+00 0. -1.
        -11    1    4    4    0    0 -0.74329793132E-01  0.20313994203E-01  0.61370225092E-02  0.77301362690E-01  0.51100000000E-03 0.  1.
         11    1    4    4    0    0 -0.44758624996E-01  0.78089625922E-02  0.18231130757E-01  0.48958652535E-01  0.51100000000E-03 0. -1.
</event>
<event>
 8    1  0.1090774E+005  0.1043930E+01  0.7957747E-01            NaN
         13   -1    0    0    0    0  0.00000000000E+00  0.00000000000E+00  0.74505805969E-08  0.10566000000E+00  0.10566000000E+00 0.  1.
     999900   -1    0    0    0    0 -0.00000000000E+00 -0.00000000000E+00 -0.74505805969E-08  0.93827000000E+00  0.93827000000E+00 0.  1.
     999902    2    1    2    0    0 -0.22873416762E-01 -0.36371937379E-02 -0.24176598645E-02  0.10206433632E+01  0.10203776788E+01 0.  0.
     999903    2    3    3    0    0 -0.92786167874E-01 -0.19752989446E-01 -0.91009925187E-01  0.13328993809E+00  0.21998808436E-01 0.  0.
         14    1    1    2    0    0  0.22873416762E-01  0.36371937379E-02  0.24176598645E-02  0.23286636766E-01  0.00000000000E+00 0.  1.
     999901    1    3    3    0    0  0.69912751113E-01  0.16115795709E-01  0.88592265323E-01  0.88735342514E+00  0.88000000000E+00 0. -1.
        -11    1    4    4    0    0 -0.55185179463E-01 -0.22407003324E-01 -0.52461339778E-01  0.79372105444E-01  0.51100000000E-03 0. -1.
         11    1    4    4    0    0 -0.37600988412E-01  0.26540138781E-02 -0.38548585409E-01  0.53917832646E-01  0.51100000000E-03 0.  1.
</event>
<event>
 8    1  0.1090774E+005  0.1043930E+01  0.7957747E-01            NaN
         13   -1    0    0    0    0  0.00000000000E+00  0.00000000000E+00  0.74505805969E-08  0.10566000000E+00  0.10566000000E+00 0. -1.
     999900   -1    0    0    0    0 -0.00000000000E+00 -0.00000000000E+00 -0.74505805969E-08  0.93827000000E+00  0.93827000000E+00 0.  1.
     999902    2    1    2    0    0 -0.12075210674E-01 -0.45103289719E-02 -0.16693394572E-01  0.10228391678E+01  0.10226216994E+01 0.  0.
     999903    2    3    3    0    0 -0.60444132327E-01  0.29015936614E-02  0.11499984236E+00  0.13169518515E+00  0.21371608965E-01 0.  0.
         14    1    1    2    0    0  0.12075210674E-01  0.45103289719E-02  0.16693394572E-01  0.21090832192E-01  0.00000000000E+00 0. -1.
     999901    1    3    3    0    0  0.48368921653E-01 -0.74119226333E-02 -0.13169323693E+00  0.89114398266E+00  0.88000000000E+00 0.  1.
        -11    1    4    4    0    0 -0.53020434120E-01 -0.47995803561E-02  0.91315670990E-01  0.10570248481E+00  0.51100000000E-03 0.  1.
         11    1    4    4    0    0 -0.74236982068E-02  0.77011740175E-02  0.23684171369E-01  0.25992700336E-01  0.51100000000E-03 0. -1.
</event>
<event>
 8    1  0.1090774E+005  0.1043930E+01  0.7957747E-01            NaN
         13   -1    0    0    0    0  0.00000000000E+00  0.00000000000E+00  0.74505805969E-08  0.10566000000E+00  0.10566000000E+00 0.  1.
     999900   -1    0    0    0    0 -0.00000000000E+00 -0.00000000000E+00 -0.74505805969E-08  0.93827000000E+00  0.93827000000E+00 0. -1.
     999902    2    1    2    0    0  0.85283068887E-02 -0.21267755134E-01 -0.72155559318E-02  0.10199068097E+01  0.10196238457E+01 0.  0.
     999903    2    3    3    0    0 -0.11846330095E+00  0.11494230399E-02 -0.48554233356E-01  0.12954829502E+00  0.19757842021E-01 0.  0.
         14    1    1    2    0    0 -0.85283068887E-02  0.21267755134E-01  0.72155559318E-02  0.24023190343E-01  0.00000000000E+00 0.  1.
     999901    1    3    3    0    0  0.12699160783E+00 -0.22417178174E-01  0.41338677424E-01  0.89035851464E+00  0.88000000000E+00 0. -1.
        -11    1    4    4    0    0 -0.69921882253E-01 -0.83514442762E-02 -0.32357916968E-01  0.77499110646E-01  0.51100000000E-03 0.  1.
         11    1    4    4    0    0 -0.48541418692E-01  0.95008673161E-02 -0.16196316388E-01  0.52049184373E-01  0.51100000000E-03 0. -1.
</event>
<event>
 8    1  0.1090774E+005  0.1043930E+01  0.7957747E-01            NaN
         13   -1    0    0    0    0  0.00000000000E+00  0.00000000000E+00  0.74505805969E-08  0.10566000000E+00  0.10566000000E+00 0.  1.
     999900   -1    0    0    0    0 -0.00000000000E+00 -0.00000000000E+00 -0.74505805969E-08  0.93827000000E+00  0.93827000000E+00 0. -1.
     999902    2    1    2    0    0 -0.30124863549E-02  0.42661843400E-02  0.23560971856E-01  0.10197971428E+01  0.10195115584E+01 0.  0.
     999903    2    3    3    0    0  0.11980134441E+00 -0.17014634790E-02  0.48526142826E-01  0.13089776174E+00  0.20595640072E-01 0.  0.
         14    1    1    2    0    0  0.30124863549E-02 -0.42661843400E-02 -0.23560971856E-01  0.24132857221E-01  0.00000000000E+00 0. -1.
     999901    1    3    3    0    0 -0.12281383077E+00  0.59676478190E-02 -0.24965170970E-01  0.88889938104E+00  0.88000000000E+00 0.  1.
        -11    1    4    4    0    0  0.87162256038E-01 -0.29824741526E-03  0.25139282158E-01  0.90717101241E-01  0.51100000000E-03 0. -1.
         11    1    4    4    0    0  0.32639088375E-01 -0.14032160638E-02  0.23386860668E-01  0.40180660500E-01  0.51100000000E-03 0.  1.
</event>
<event>
 8    1  0.1090774E+005  0.1043930E+01  0.7957747E-01            NaN
         13   -1    0    0    0    0  0.00000000000E+00  0.00000000000E+00  0.74505805969E-08  0.10566000000E+00  0.10566000000E+00 0.  1.
     999900   -1    0    0    0    0 -0.00000000000E+00 -0.00000000000E+00 -0.74505805969E-08  0.93827000000E+00  0.93827000000E+00 0.  1.
     999902    2    1    2    0    0  0.13092249290E-01  0.12002847386E-01 -0.21781612640E-03  0.10261670391E+01  0.10260132891E+01 0.  0.
     999903    2    3    3    0    0  0.12383005037E+00 -0.54114485410E-01  0.76222811520E-02  0.13673135877E+00  0.19367663608E-01 0.  0.
         14    1    1    2    0    0 -0.13092249290E-01 -0.12002847386E-01  0.21781612640E-03  0.17762960922E-01  0.00000000000E+00 0.  1.
     999901    1    3    3    0    0 -0.11073780108E+00  0.66117332796E-01 -0.78400972784E-02  0.88943568031E+00  0.88000000000E+00 0. -1.
        -11    1    4    4    0    0  0.47812840476E-01 -0.27498265202E-01 -0.42278831785E-02  0.55320506331E-01  0.51100000000E-03 0. -1.
         11    1    4    4    0    0  0.76017209898E-01 -0.26616220207E-01  0.11850164330E-01  0.81410852437E-01  0.51100000000E-03 0.  1.
</event>
<event>
 8    1  0.1090774E+005  0.1043930E+01  0.7957747E-01            NaN
         13   -1    0    0    0    0  0.00000000000E+00  0.00000000000E+00  0.74505805969E-08  0.10566000000E+00  0.10566000000E+00 0.  1.
     999900   -1    0    0    0    0 -0.00000000000E+00 -0.00000000000E+00 -0.74505805969E-08  0.93827000000E+00  0.93827000000E+00 0. -1.
     999902    2    1    2    0    0 -0.11429230700E-01  0.67266230854E-02 -0.20046144839E-01  0.10198941373E+01  0.10196108712E+01 0.  0.
     999903    2    3    3    0    0 -0.27951238369E-01  0.35184996714E-01 -0.12375809379E+00  0.13319293390E+00  0.20125509755E-01 0.  0.
         14    1    1    2    0    0  0.11429230700E-01 -0.67266230854E-02  0.20046144839E-01  0.24035862693E-01  0.00000000000E+00 0.  1.
     999901    1    3    3    0    0  0.16522007669E-01 -0.28458373628E-01  0.10371194895E+00  0.88670120341E+00  0.88000000000E+00 0.  1.
        -11    1    4    4    0    0 -0.21747180471E-01  0.15336641507E-01 -0.51105391042E-01  0.57620955786E-01  0.51100000000E-03 0.  1.
         11    1    4    4    0    0 -0.62040578974E-02  0.19848355207E-01 -0.72652702746E-01  0.75571978114E-01  0.51100000000E-03 0. -1.
</event>
<event>
 8    1  0.1090774E+005  0.1043930E+01  0.7957747E-01            NaN
         13   -1    0    0    0    0  0.00000000000E+00  0.00000000000E+00  0.74505805969E-08  0.10566000000E+00  0.10566000000E+00 0.  1.
     999900   -1    0    0    0    0 -0.00000000000E+00 -0.00000000000E+00 -0.74505805969E-08  0.93827000000E+00  0.93827000000E+00 0. -1.
     999902    2    1    2    0    0  0.19589013506E-01  0.39659993773E-02  0.13044344675E-01  0.10200634223E+01  0.10197841792E+01 0.  0.
     999903    2    3    3    0    0  0.75131144589E-01 -0.66099263706E-01  0.84627168748E-01  0.13264121723E+00  0.20448307234E-01 0.  0.
         14    1    1    2    0    0 -0.19589013506E-01 -0.39659993773E-02 -0.13044344675E-01  0.23866577660E-01  0.00000000000E+00 0. -1.
     999901    1    3    3    0    0 -0.55542131083E-01  0.70065263084E-01 -0.71582824073E-01  0.88742220511E+00  0.88000000000E+00 0.  1.
        -11    1    4    4    0    0  0.56255846717E-01 -0.53667374123E-01  0.75134009311E-01  0.10812163433E+00  0.51100000000E-03 0. -1.
         11    1    4    4    0    0  0.18875297872E-01 -0.12431889583E-01  0.94931594375E-02  0.24519582897E-01  0.51100000000E-03 0.  1.
</event>
<event>
 8    1  0.1090774E+005  0.1043930E+01  0.7957747E-01            NaN
         13   -1    0    0    0    0  0.00000000000E+00  0.00000000000E+00  0.74505805969E-08  0.10566000000E+00  0.10566000000E+00 0. -1.
     999900   -1    0    0    0    0 -0.00000000000E+00 -0.00000000000E+00 -0.74505805969E-08  0.93827000000E+00  0.93827000000E+00 0. -1.
     999902    2    1    2    0    0  0.12429106896E-02 -0.22723254804E-01 -0.29855663912E-02  0.10209777726E+01  0.10207197497E+01 0.  0.
     999903    2    3    3    0    0 -0.79737119379E-01  0.76896376070E-01  0.63348027470E-01  0.12919193407E+00  0.20162400291E-01 0.  0.
         14    1    1    2    0    0 -0.12429106896E-02  0.22723254804E-01  0.29855663912E-02  0.22952227398E-01  0.00000000000E+00 0.  1.
     999901    1    3    3    0    0  0.80980030069E-01 -0.99619630875E-01 -0.66333593862E-01  0.89178583853E+00  0.88000000000E+00 0.  1.
        -11    1    4    4    0    0 -0.81501772205E-02  0.10034945553E-01  0.15452232696E-01  0.20153365408E-01  0.51100000000E-03 0. -1.
         11    1    4    4    0    0 -0.71586942158E-01  0.66861430517E-01  0.47895794774E-01  0.10903856866E+00  0.51100000000E-03 0.  1.
</event>
<event>
 8    1  0.1090774E+005  0.1043930E+01  0.7957747E-01            NaN
         13   -1    0    0    0    0  0.00000000000E+00  0.00000000000E+00  0.74505805969E-08  0.10566000000E+00  0.10566000000E+00 0.  1.
     999900   -1    0    0    0    0 -0.00000000000E+00 -0.00000000000E+00 -0.74505805969E-08  0.93827000000E+00  0.93827000000E+00 0. -1.
     999902    2    1    2    0    0 -0.21009499969E-01  0.15284736979E-01 -0.25393781273E-01  0.10076000344E+01  0.10069448659E+01 0.  0.
     999903    2    3    3    0    0 -0.25036217009E-01 -0.90042238839E-01  0.66611320348E-01  0.11654732832E+00  0.20292727816E-01 0.  0.
         14    1    1    2    0    0  0.21009499969E-01 -0.15284736979E-01  0.25393781273E-01  0.36329965604E-01  0.00000000000E+00 0.  1.
     999901    1    3    3    0    0  0.40267170398E-02  0.10532697582E+00 -0.92005101620E-01  0.89105270608E+00  0.88000000000E+00 0.  1.
        -11    1    4    4    0    0 -0.11108213771E-01 -0.50402065034E-01  0.24773993364E-01  0.57251833517E-01  0.51100000000E-03 0.  1.
         11    1    4    4    0    0 -0.13928003238E-01 -0.39640173806E-01  0.41837326984E-01  0.59295494801E-01  0.51100000000E-03 0. -1.
</event>
<event>
 8    1  0.1090774E+005  0.1043930E+01  0.7957747E-01            NaN
         13   -1    0    0    0    0  0.00000000000E+00  0.00000000000E+00  0.74505805969E-08  0.10566000000E+00  0.10566000000E+00 0.  1.
     999900   -1    0    0    0    0 -0.00000000000E+00 -0.00000000000E+00 -0.74505805969E-08  0.93827000000E+00  0.93827000000E+00 0. -1.
     999902    2    1    2    0    0  0.10915638016E-01 -0.47188465153E-02  0.21368421685E-01  0.10194753867E+01  0.10191820426E+01 0.  0.
     999903    2    3    3    0    0 -0.10632400570E+00 -0.66647391470E-01  0.24564787244E-01  0.12953690823E+00  0.20729516243E-01 0.  0.
         14    1    1    2    0    0 -0.10915638016E-01  0.47188465153E-02 -0.21368421685E-01  0.24454613287E-01  0.00000000000E+00 0. -1.
     999901    1    3    3    0    0  0.11723964371E+00  0.61928544955E-01 -0.31963655596E-02  0.88993847849E+00  0.88000000000E+00 0. -1.
        -11    1    4    4    0    0 -0.68960034374E-01 -0.43345708366E-01  0.57722411085E-02  0.81657312368E-01  0.51100000000E-03 0. -1.
         11    1    4    4    0    0 -0.37363971321E-01 -0.23301683104E-01  0.18792546136E-01  0.47879595859E-01  0.51100000000E-03 0.  1.
</event>
<event>
 8    1  0.1090774E+005  0.1043930E+01  0.7957747E-01            NaN
         13   -1    0    0    0    0  0.00000000000E+00  0.00000000000E+00  0.74505805969E-08  0.10566000000E+00  0.10566000000E+00 0. -1.
     999900   -1    0    0    0    0 -0.00000000000E+00 -0.00000000000E+00 -0.74505805969E-08  0.93827000000E+00  0.93827000000E+00 0.  1.
     999902    2    1    2    0    0  0.15679621866E-02  0.95733599382E-02  0.21582281540E-01  0.10202677389E+01  0.10199933119E+01 0.  0.
     999903    2    3    3    0    0 -0.27798265721E-01 -0.75886385441E-01  0.10237118248E+00  0.13195890183E+00  0.20045091595E-01 0.  0.
         14    1    1    2    0    0 -0.15679621866E-02 -0.95733599382E-02 -0.21582281540E-01  0.23662261143E-01  0.00000000000E+00 0.  1.
     999901    1    3    3    0    0  0.29366227907E-01  0.85459745380E-01 -0.80788900943E-01  0.88830883703E+00  0.88000000000E+00 0. -1.
        -11    1    4    4    0    0 -0.72226829816E-02 -0.21579858196E-01  0.44435338265E-01  0.49926123792E-01  0.51100000000E-03 0.  1.
         11    1    4    4    0    0 -0.20575582739E-01 -0.54306527245E-01  0.57935844219E-01  0.82032778039E-01  0.51100000000E-03 0. -1.
</event>
<event>
 8    1  0.1090774E+005  0.1043930E+01  0.7957747E-01            NaN
         13   -1    0    0    0    0  0.00000000000E+00  0.00000000000E+00  0.74505805969E-08  0.10566000000E+00  0.10566000000E+00 0.  1.
     999900   -1    0    0    0    0 -0.00000000000E+00 -0.00000000000E+00 -0.74505805969E-08  0.93827000000E+00  0.93827000000E+00 0.  1.
     999902    2    1    2    0    0 -0.67324205603E-02 -0.64569769682E-03 -0.22574554304E-01  0.10203640730E+01  0.10200919020E+01 0.  0.
     999903    2    3    3    0    0 -0.12990899313E+00 -0.38623441386E-02 -0.26135804482E-02  0.13155517606E+00  0.20215571937E-01 0.  0.
         14    1    1    2    0    0  0.67324205603E-02  0.64569769682E-03  0.22574554304E-01  0.23565926974E-01  0.00000000000E+00 0. -1.
     999901    1    3    3    0    0  0.12317657257E+00  0.32166464418E-02 -0.19960973856E-01  0.88880889696E+00  0.88000000000E+00 0.  1.
        -11    1    4    4    0    0 -0.14624716231E-01  0.58944041854E-02  0.92811973899E-03  0.15803444333E-01  0.51100000000E-03 0. -1.
         11    1    4    4    0    0 -0.11528427690E+00 -0.97567483240E-02 -0.35417001872E-02  0.11575173173E+00  0.51100000000E-03 0.  1.
</event>
<event>
 8    1  0.1090774E+005  0.1043930E+01  0.7957747E-01            NaN
         13   -1    0    0    0    0  0.00000000000E+00  0.00000000000E+00  0.74505805969E-08  0.10566000000E+00  0.10566000000E+00 0.  1.
     999900   -1    0    0    0    0 -0.00000000000E+00 -0.00000000000E+00 -0.74505805969E-08  0.93827000000E+00  0.93827000000E+00 0. -1.
     999902    2    1    2    0    0 -0.66259360760E-02  0.18328969293E-01 -0.14503266276E-01  0.10196359909E+01  0.10193465334E+01 0.  0.
     999903    2    3    3    0    0  0.41027977346E-01 -0.11900994987E+00 -0.59147454436E-02  0.12766814573E+00  0.20433015582E-01 0.  0.
         14    1    1    2    0    0  0.66259360760E-02 -0.18328969293E-01  0.14503266276E-01  0.24294009074E-01  0.00000000000E+00 0. -1.
     999901    1    3    3    0    0 -0.47653913422E-01  0.13733891916E+00 -0.85885208321E-02  0.89196784520E+00  0.88000000000E+00 0. -1.
        -11    1    4    4    0    0  0.23432885641E-01 -0.92658452492E-01 -0.88131794428E-03  0.95580995966E-01  0.51100000000E-03 0.  1.
         11    1    4    4    0    0  0.17595091705E-01 -0.26351497380E-01 -0.50334274993E-02  0.32087149759E-01  0.51100000000E-03 0. -1.
</event>
<event>
 8    1  0.1090774E+005  0.1043930E+01  0.7957747E-01            NaN
         13   -1    0    0    0    0  0.00000000000E+00  0.00000000000E+00  0.74505805969E-08  0.10566000000E+00  0.10566000000E+00 0. -1.
     999900   -1    0    0    0    0 -0.00000000000E+00 -0.00000000000E+00 -0.74505805969E-08  0.93827000000E+00  0.93827000000E+00 0. -1.
     999902    2    1    2    0    0 -0.43744350019E-02  0.18777542973E-01 -0.13588163641E-01  0.10203425035E+01  0.10200698282E+01 0.  0.
     999903    2    3    3    0    0 -0.44919249918E-01 -0.94888029763E-02 -0.12248736772E+00  0.13225359745E+00  0.19495701935E-01 0.  0.
         14    1    1    2    0    0  0.43744350019E-02 -0.18777542973E-01  0.13588163641E-01  0.23587496535E-01  0.00000000000E+00 0. -1.
     999901    1    3    3    0    0  0.40544814916E-01  0.28266345949E-01  0.10889920408E+00  0.88808890601E+00  0.88000000000E+00 0.  1.
        -11    1    4    4    0    0 -0.11292626015E-01 -0.10587647878E-01 -0.49859536185E-01  0.52209732421E-01  0.51100000000E-03 0. -1.
         11    1    4    4    0    0 -0.33626623903E-01  0.10988449013E-02 -0.72627831533E-01  0.80043865033E-01  0.51100000000E-03 0.  1.
</event>
<event>
 8    1  0.1090774E+005  0.1043930E+01  0.7957747E-01            NaN
         13   -1    0    0    0    0  0.00000000000E+00  0.00000000000E+00  0.74505805969E-08  0.10566000000E+00  0.10566000000E+00 0. -1.
     999900   -1    0    0    0    0 -0.00000000000E+00 -0.00000000000E+00 -0.74505805969E-08  0.93827000000E+00  0.93827000000E+00 0.  1.
     999902    2    1    2    0    0 -0.17624289048E-01  0.66169281112E-02  0.13669961167E-01  0.10206648514E+01  0.10203996627E+01 0.  0.
     999903    2    3    3    0    0  0.35398549302E-01 -0.83479702316E-01  0.92286507315E-01  0.13099671914E+00  0.20528589825E-01 0.  0.
         14    1    1    2    0    0  0.17624289048E-01 -0.66169281112E-02 -0.13669961167E-01  0.23265148621E-01  0.00000000000E+00 0.  1.
     999901    1    3    3    0    0 -0.53022838350E-01  0.90096630427E-01 -0.78616546149E-01  0.88966813224E+00  0.88000000000E+00 0.  1.
        -11    1    4    4    0    0  0.25082780005E-01 -0.55595194956E-01  0.47824391507E-01  0.77507451893E-01  0.51100000000E-03 0.  1.
         11    1    4    4    0    0  0.10315769297E-01 -0.27884507360E-01  0.44462115808E-01  0.53489267242E-01  0.51100000000E-03 0. -1.
</event>
<event>
 8    1  0.1090774E+005  0.1043930E+01  0.7957747E-01            NaN
         13   -1    0    0    0    0  0.00000000000E+00  0.00000000000E+00  0.74505805969E-08  0.10566000000E+00  0.10566000000E+00 0. -1.
     999900   -1    0    0    0    0 -0.00000000000E+00 -0.00000000000E+00 -0.74505805969E-08  0.93827000000E+00  0.93827000000E+00 0. -1.
     999902    2    1    2    0    0 -0.15040262164E-02  0.10249855760E-01  0.20307178708E-01  0.10211330014E+01  0.10208784959E+01 0.  0.
     999903    2    3    3    0    0 -0.63280661826E-01 -0.48761126214E-01  0.10450190051E+00  0.13299596249E+00  0.19626238514E-01 0.  0.
         14    1    1    2    0    0  0.15040262164E-02 -0.10249855760E-01 -0.20307178708E-01  0.22796998597E-01  0.00000000000E+00 0.  1.
     999901    1    3    3    0    0  0.61776635610E-01  0.59010981974E-01 -0.84194721805E-01  0.88813703891E+00  0.88000000000E+00 0. -1.
        -11    1    4    4    0    0 -0.15145069825E-01 -0.13920150883E-01  0.41909123225E-01  0.46688108455E-01  0.51100000000E-03 0. -1.
         11    1    4    4    0    0 -0.48135592001E-01 -0.34840975331E-01  0.62592777288E-01  0.86307854040E-01  0.51100000000E-03 0.  1.
</event>
<event>
 8    1  0.1090774E+005  0.1043930E+01  0.7957747E-01            NaN
         13   -1    0    0    0    0  0.00000000000E+00  0.00000000000E+00  0.74505805969E-08  0.10566000000E+00  0.10566000000E+00 0.  1.
     999900   -1    0    0    0    0 -0.00000000000E+00 -0.00000000000E+00 -0.74505805969E-08  0.93827000000E+00  0.93827000000E+00 0. -1.
     999902    2    1    2    0    0  0.54140865457E-02 -0.77394134517E-02 -0.21795912960E-01  0.10201755757E+01  0.10198989815E+01 0.  0.
     999903    2    3    3    0    0  0.12308363751E+00  0.35456168943E-01 -0.20933030680E-01  0.13129272279E+00  0.19820836157E-01 0.  0.
         14    1    1    2    0    0 -0.54140865457E-02  0.77394134517E-02  0.21795912960E-01  0.23754424334E-01  0.00000000000E+00 0.  1.
     999901    1    3    3    0    0 -0.11766955097E+00 -0.43195582395E-01 -0.86288228040E-03  0.88888285287E+00  0.88000000000E+00 0.  1.
        -11    1    4    4    0    0  0.28376943319E-01 -0.88311589748E-04 -0.64171632215E-02  0.29098106741E-01  0.51100000000E-03 0. -1.
         11    1    4    4    0    0  0.94706694193E-01  0.35544480533E-01 -0.14515867458E-01  0.10219461605E+00  0.51100000000E-03 0.  1.
</event>
<event>
 8    1  0.1090774E+005  0.1043930E+01  0.7957747E-01            NaN
         13   -1    0    0    0    0  0.00000000000E+00  0.00000000000E+00  0.74505805969E-08  0.10566000000E+00  0.10566000000E+00 0. -1.
     999900   -1    0    0    0    0 -0.00000000000E+00 -0.00000000000E+00 -0.74505805969E-08  0.93827000000E+00  0.93827000000E+00 0. -1.
     999902    2    1    2    0    0  0.15090911036E-01 -0.14971491005E-01 -0.11106205752E-01  0.10199460690E+01  0.10196640401E+01 0.  0.
     999903    2    3    3    0    0  0.24242180943E-01 -0.51691759928E-02 -0.12825318293E+00  0.13208163941E+00  0.19551900678E-01 0.  0.
         14    1    1    2    0    0 -0.15090911036E-01  0.14971491005E-01  0.11106205752E-01  0.23983930975E-01  0.00000000000E+00 0. -1.
     999901    1    3    3    0    0 -0.91512699070E-02 -0.98023150123E-02  0.11714697717E+00  0.88786442962E+00  0.88000000000E+00 0.  1.
        -11    1    4    4    0    0  0.18922340714E-01  0.12845241447E-02 -0.11383639495E+00  0.11540663290E+00  0.51100000000E-03 0.  1.
         11    1    4    4    0    0  0.53198402290E-02 -0.64537001375E-02 -0.14416787977E-01  0.16675006510E-01  0.51100000000E-03 0. -1.
</event>
<event>
 8    1  0.1090774E+005  0.1043930E+01  0.7957747E-01            NaN
         13   -1    0    0    0    0  0.00000000000E+00  0.00000000000E+00  0.74505805969E-08  0.10566000000E+00  0.10566000000E+00 0.  1.
     999900   -1    0    0    0    0 -0.00000000000E+00 -0.00000000000E+00 -0.74505805969E-08  0.93827000000E+00  0.93827000000E+00 0. -1.
     999902    2    1    2    0    0 -0.10881938313E-01  0.11788743821E-01 -0.24438312341E-01  0.10146960784E+01  0.10142748687E+01 0.  0.
     999903    2    3    3    0    0  0.11593015202E+00 -0.35361058493E-01 -0.26113218408E-01  0.12435501149E+00  0.95950040299E-02 0.  0.
         14    1    1    2    0    0  0.10881938313E-01 -0.11788743821E-01  0.24438312341E-01  0.29233921605E-01  0.00000000000E+00 0.  1.
     999901    1    3    3    0    0 -0.12681209033E+00  0.47149802314E-01  0.16749060675E-02  0.89034106691E+00  0.88000000000E+00 0. -1.
        -11    1    4    4    0    0  0.56088218782E-01 -0.12530132489E-01 -0.14267749052E-01  0.59217584300E-01  0.51100000000E-03 0.  1.
         11    1    4    4    0    0  0.59841933234E-01 -0.22830926004E-01 -0.11845469356E-01  0.65137427188E-01  0.51100000000E-03 0. -1.
</event>
<event>
 8    1  0.1090774E+005  0.1043930E+01  0.7957747E-01            NaN
         13   -1    0    0    0    0  0.00000000000E+00  0.00000000000E+00  0.74505805969E-08  0.10566000000E+00  0.10566000000E+00 0. -1.
     999900   -1    0    0    0    0 -0.00000000000E+00 -0.00000000000E+00 -0.74505805969E-08  0.93827000000E+00  0.93827000000E+00 0.  1.
     999902    2    1    2    0    0  0.89122943706E-02  0.47258906177E-02 -0.20122647743E-01  0.10214203579E+01  0.10211722987E+01 0.  0.
     999903    2    3    3    0    0 -0.10210204058E+00  0.21067138367E-01  0.74189147114E-01  0.12929596438E+00  0.18567871367E-01 0.  0.
         14    1    1    2    0    0 -0.89122943706E-02 -0.47258906177E-02  0.20122647743E-01  0.22509642051E-01  0.00000000000E+00 0. -1.
     999901    1    3    3    0    0  0.11101433495E+00 -0.16341247749E-01 -0.94311794857E-01  0.89212439356E+00  0.88000000000E+00 0.  1.
        -11    1    4    4    0    0 -0.71200579301E-01  0.60078803105E-02  0.48060841811E-01  0.86114590838E-01  0.51100000000E-03 0. -1.
         11    1    4    4    0    0 -0.30901461280E-01  0.15059258056E-01  0.26128305303E-01  0.43181373547E-01  0.51100000000E-03 0.  1.
</event>
<event>
 8    1  0.1090774E+005  0.1043930E+01  0.7957747E-01            NaN
         13   -1    0    0    0    0  0.00000000000E+00  0.00000000000E+00  0.74505805969E-08  0.10566000000E+00  0.10566000000E+00 0. -1.
     999900   -1    0    0    0    0 -0.00000000000E+00 -0.00000000000E+00 -0.74505805969E-08  0.93827000000E+00  0.93827000000E+00 0. -1.
     999902    2    1    2    0    0  0.15653600233E-01  0.10663667434E-01  0.15550273263E-01  0.10194236742E+01  0.10191290731E+01 0.  0.
     999903    2    3    3    0    0 -0.35971622078E-01 -0.91335595213E-01 -0.77914573464E-01  0.12712064795E+00  0.21279798636E-01 0.  0.
         14    1    1    2    0    0 -0.15653600233E-01 -0.10663667434E-01 -0.15550273263E-01  0.24506325753E-01  0.00000000000E+00 0.  1.
     999901    1    3    3    0    0  0.51625222310E-01  0.10199926265E+00  0.93464846727E-01  0.89230302629E+00  0.88000000000E+00 0.  1.
        -11    1    4    4    0    0 -0.31009852576E-01 -0.50657623861E-01 -0.43869656225E-01  0.73841815189E-01  0.51100000000E-03 0. -1.
         11    1    4    4    0    0 -0.49617695018E-02 -0.40677971352E-01 -0.34044917239E-01  0.53278832765E-01  0.51100000000E-03 0.  1.
</event>
<event>
 8    1  0.1090774E+005  0.1043930E+01  0.7957747E-01            NaN
         13   -1    0    0    0    0  0.00000000000E+00  0.00000000000E+00  0.74505805969E-08  0.10566000000E+00  0.10566000000E+00 0.  1.
     999900   -1    0    0    0    0 -0.00000000000E+00 -0.00000000000E+00 -0.74505805969E-08  0.93827000000E+00  0.93827000000E+00 0.  1.
     999902    2    1    2    0    0 -0.17446397288E-01  0.13803873548E-01 -0.84881701546E-02  0.10201188107E+01  0.10198408774E+01 0.  0.
     999903    2    3    3    0    0 -0.20946100114E-01  0.12330943602E+00  0.37459558400E-01  0.13213519042E+00  0.20310930802E-01 0.  0.
         14    1    1    2    0    0  0.17446397288E-01 -0.13803873548E-01  0.84881701546E-02  0.23811189299E-01  0.00000000000E+00 0.  1.
     999901    1    3    3    0    0  0.34997028264E-02 -0.10950556247E+00 -0.45947728554E-01  0.88798362028E+00  0.88000000000E+00 0.  1.
        -11    1    4    4    0    0 -0.11722549603E-01  0.10772947882E+00  0.29223204987E-01  0.11223776373E+00  0.51100000000E-03 0. -1.
         11    1    4    4    0    0 -0.92235505111E-02  0.15579957201E-01  0.82363534127E-02  0.19897426692E-01  0.51100000000E-03 0.  1.
</event>
<event>
 8    1  0.1090774E+005  0.1043930E+01  0.7957747E-01            NaN
         13   -1    0    0    0    0  0.00000000000E+00  0.00000000000E+00  0.74505805969E-08  0.10566000000E+00  0.10566000000E+00 0. -1.
     999900   -1    0    0    0    0 -0.00000000000E+00 -0.00000000000E+00 -0.74505805969E-08  0.93827000000E+00  0.93827000000E+00 0. -1.
     999902    2    1    2    0    0  0.20963739862E-01  0.11599322607E-02 -0.62876817583E-02  0.10220129114E+01  0.10217778781E+01 0.  0.
     999903    2    3    3    0    0 -0.87726183420E-01 -0.43431331365E-01  0.83170226212E-01  0.12970993732E+00  0.18033787994E-01 0.  0.
         14    1    1    2    0    0 -0.20963739862E-01 -0.11599322607E-02  0.62876817583E-02  0.21917088623E-01  0.00000000000E+00 0. -1.
     999901    1    3    3    0    0  0.10868992328E+00  0.44591263625E-01 -0.89457907971E-01  0.89230297406E+00  0.88000000000E+00 0. -1.
        -11    1    4    4    0    0 -0.82124790703E-01 -0.34849459505E-01  0.75927529277E-01  0.11715040290E+00  0.51100000000E-03 0. -1.
         11    1    4    4    0    0 -0.56013927170E-02 -0.85818718599E-02  0.72426969354E-02  0.12559534422E-01  0.51100000000E-03 0.  1.
</event>
<event>
 7    1  0.1090774E+005  0.1043930E+01  0.7957747E-01            NaN
         13   -1    0    0    0    0  0.00000000000E+00  0.00000000000E+00  0.74505805969E-08  0.10566000000E+00  0.10566000000E+00 0. -1.
     999900   -1    0    0    0    0 -0.00000000000E+00 -0.00000000000E+00 -0.74505805969E-08  0.93827000000E+00  0.93827000000E+00 0.  1.
     999902    2    1    2    0    0  0.10882244792E-01 -0.19869189962E-01  0.58902043954E-02  0.10205226834E+01  0.10202542060E+01 0.  0.
         14    1    1    2    0    0 -0.10882244792E-01  0.19869189962E-01 -0.58902043954E-02  0.23407316575E-01  0.00000000000E+00 0. -1.
     999901    1    3    3    0    0 -0.47162215922E-01 -0.10001351030E+00 -0.46013786317E-01  0.88811274362E+00  0.88000000000E+00 0. -1.
        -11    1    3    3    0    0  0.28682871557E-02  0.87691013511E-02  0.40422666396E-01  0.41465374583E-01  0.51100000000E-03 0. -1.
         11    1    3    3    0    0  0.55176173558E-01  0.71375218987E-01  0.11481324316E-01  0.90944565220E-01  0.51100000000E-03 0.  1.
</event>
<event>
 8    1  0.1090774E+005  0.1043930E+01  0.7957747E-01            NaN
         13   -1    0    0    0    0  0.00000000000E+00  0.00000000000E+00  0.74505805969E-08  0.10566000000E+00  0.10566000000E+00 0.  1.
     999900   -1    0    0    0    0 -0.00000000000E+00 -0.00000000000E+00 -0.74505805969E-08  0.93827000000E+00  0.93827000000E+00 0.  1.
     999902    2    1    2    0    0 -0.57774639911E-02 -0.10730385985E-01 -0.20238987146E-01  0.10203050794E+01  0.10200315280E+01 0.  0.
     999903    2    3    3    0    0  0.28365239095E-01  0.66948695244E-01  0.10300076098E+00  0.12767536928E+00  0.20127806019E-01 0.  0.
         14    1    1    2    0    0  0.57774639911E-02  0.10730385985E-01  0.20238987146E-01  0.23624920619E-01  0.00000000000E+00 0.  1.
     999901    1    3    3    0    0 -0.34142703086E-01 -0.77679081229E-01 -0.12323974812E+00  0.89262971010E+00  0.88000000000E+00 0.  1.
        -11    1    4    4    0    0  0.19575963174E-01  0.31867999761E-01  0.66452764288E-01  0.76256270205E-01  0.51100000000E-03 0.  1.
         11    1    4    4    0    0  0.87892759215E-02  0.35080695483E-01  0.36547996690E-01  0.51419099077E-01  0.51100000000E-03 0. -1.
</event>
<event>
 8    1  0.1090774E+005  0.1043930E+01  0.7957747E-01            NaN
         13   -1    0    0    0    0  0.00000000000E+00  0.00000000000E+00  0.74505805969E-08  0.10566000000E+00  0.10566000000E+00 0. -1.
     999900   -1    0    0    0    0 -0.00000000000E+00 -0.00000000000E+00 -0.74505805969E-08  0.93827000000E+00  0.93827000000E+00 0. -1.
     999902    2    1    2    0    0 -0.56930826355E-02 -0.83826222377E-02 -0.21263647531E-01  0.10203753348E+01  0.10201034269E+01 0.  0.
     999903    2    3    3    0    0  0.73211750241E-01 -0.87378173917E-01 -0.63768578042E-01  0.13230273702E+00  0.21039891349E-01 0.  0.
         14    1    1    2    0    0  0.56930826355E-02  0.83826222377E-02  0.21263647531E-01  0.23554665181E-01  0.00000000000E+00 0. -1.
     999901    1    3    3    0    0 -0.78904832877E-01  0.78995551679E-01  0.42504930511E-01  0.88807259779E+00  0.88000000000E+00 0. -1.
        -11    1    4    4    0    0  0.62726063160E-01 -0.76547133848E-01 -0.46414635953E-01  0.10930966221E+00  0.51100000000E-03 0.  1.
         11    1    4    4    0    0  0.10485687082E-01 -0.10831040068E-01 -0.17353942089E-01  0.22993074818E-01  0.51100000000E-03 0. -1.
</event>
<event>
 8    1  0.1090774E+005  0.1043930E+01  0.7957747E-01            NaN
         13   -1    0    0    0    0  0.00000000000E+00  0.00000000000E+00  0.74505805969E-08  0.10566000000E+00  0.10566000000E+00 0. -1.
     999900   -1    0    0    0    0 -0.00000000000E+00 -0.00000000000E+00 -0.74505805969E-08  0.93827000000E+00  0.93827000000E+00 0.  1.
     999902    2    1    2    0    0  0.28613662731E-02 -0.27033179714E-01 -0.10152869559E-01  0.10149117130E+01  0.10144967837E+01 0.  0.
     999903    2    3    3    0    0 -0.11177562475E+00 -0.11084527716E-01 -0.54122722833E-01  0.12624453836E+00  0.19792859760E-01 0.  0.
         14    1    1    2    0    0 -0.28613662731E-02  0.27033179714E-01  0.10152869559E-01  0.29018287040E-01  0.00000000000E+00 0.  1.
     999901    1    3    3    0    0  0.11463699102E+00 -0.15948651999E-01  0.43969853274E-01  0.88866717460E+00  0.88000000000E+00 0.  1.
        -11    1    4    4    0    0 -0.73655630068E-01 -0.78199832108E-02 -0.45798612937E-01  0.87086612324E-01  0.51100000000E-03 0.  1.
         11    1    4    4    0    0 -0.38119994678E-01 -0.32645445050E-02 -0.83241098961E-02  0.39157926038E-01  0.51100000000E-03 0. -1.
</event>
<event>
 8    1  0.1090774E+005  0.1043930E+01  0.7957747E-01            NaN
         13   -1    0    0    0    0  0.00000000000E+00  0.00000000000E+00  0.74505805969E-08  0.10566000000E+00  0.10566000000E+00 0.  1.
     999900   -1    0    0    0    0 -0.00000000000E+00 -0.00000000000E+00 -0.74505805969E-08  0.93827000000E+00  0.93827000000E+00 0.  1.
     999902    2    1    2    0    0 -0.21024661525E-01  0.10669918024E-01 -0.84977491154E-02  0.10188681708E+01  0.10185598923E+01 0.  0.
     999903    2    3    3    0    0 -0.12450683742E+00 -0.36968395684E-01 -0.25948232770E-02  0.13150532833E+00  0.20452467487E-01 0.  0.
         14    1    1    2    0    0  0.21024661525E-01 -0.10669918024E-01  0.84977491154E-02  0.25061829201E-01  0.00000000000E+00 0. -1.
     999901    1    3    3    0    0  0.10348217590E+00  0.47638313709E-01 -0.59029258384E-02  0.88736284247E+00  0.88000000000E+00 0. -1.
        -11    1    4    4    0    0 -0.78478935838E-01 -0.32904285688E-01  0.15178921326E-02  0.85112869206E-01  0.51100000000E-03 0.  1.
         11    1    4    4    0    0 -0.46027901586E-01 -0.40641099961E-02 -0.41127154096E-02  0.46392459123E-01  0.51100000000E-03 0. -1.
</event>
<event>
 8    1  0.1090774E+005  0.1043930E+01  0.7957747E-01            NaN
         13   -1    0    0    0    0  0.00000000000E+00  0.00000000000E+00  0.74505805969E-08  0.10566000000E+00  0.10566000000E+00 0. -1.
     999900   -1    0    0    0    0 -0.00000000000E+00 -0.00000000000E+00 -0.74505805969E-08  0.93827000000E+00  0.93827000000E+00 0. -1.
     999902    2    1    2    0    0 -0.16268994069E-01  0.15941753017E-01 -0.59185241896E-02  0.10203960121E+01  0.10201245870E+01 0.  0.
     999903    2    3    3    0    0 -0.61552444540E-02 -0.87956326242E-03  0.12808797543E+00  0.13003485699E+00  0.21537732378E-01 0.  0.
         14    1    1    2    0    0  0.16268994069E-01 -0.15941753017E-01  0.59185241896E-02  0.23533987886E-01  0.00000000000E+00 0.  1.
     999901    1    3    3    0    0 -0.10113749614E-01  0.16821316279E-01 -0.13400649962E+00  0.89036115512E+00  0.88000000000E+00 0. -1.
        -11    1    4    4    0    0  0.16472115461E-02 -0.87679588808E-02  0.87482360038E-01  0.87937562211E-01  0.51100000000E-03 0. -1.
         11    1    4    4    0    0 -0.78024560001E-02  0.78883956184E-02  0.40605615395E-01  0.42097294778E-01  0.51100000000E-03 0.  1.
</event>
<event>
 8    1  0.1090774E+005  0.1043930E+01  0.7957747E-01            NaN
         13   -1    0    0    0    0  0.00000000000E+00  0.00000000000E+00  0.74505805969E-08  0.10566000000E+00  0.10566000000E+00 0. -1.
     999900   -1    0    0    0    0 -0.00000000000E+00 -0.00000000000E+00 -0.74505805969E-08  0.93827000000E+00  0.93827000000E+00 0.  1.
     999902    2    1    2    0    0  0.34355289065E-02 -0.94416193177E-02  0.21281627558E-01  0.10203958821E+01  0.10201244539E+01 0.  0.
     999903    2    3    3    0    0 -0.58783724605E-01  0.11190019995E+00  0.22108382115E-01  0.12989279050E+00  0.20153794579E-01 0.  0.
         14    1    1    2    0    0 -0.34355289065E-02  0.94416193177E-02 -0.21281627558E-01  0.23534117908E-01  0.00000000000E+00 0.  1.
     999901    1    3    3    0    0  0.62219253511E-01 -0.12134181927E+00 -0.82675455685E-03  0.89050309159E+00  0.88000000000E+00 0.  1.
        -11    1    4    4    0    0 -0.38607605136E-01  0.90901600513E-01  0.19325729337E-01  0.10063494962E+00  0.51100000000E-03 0.  1.
         11    1    4    4    0    0 -0.20176119469E-01  0.20998599441E-01  0.27826527775E-02  0.29257840877E-01  0.51100000000E-03 0. -1.
</event>
<event>
 8    1  0.1090774E+005  0.1043930E+01  0.7957747E-01            NaN
         13   -1    0    0    0    0  0.00000000000E+00  0.00000000000E+00  0.74505805969E-08  0.10566000000E+00  0.10566000000E+00 0.  1.
     999900   -1    0    0    0    0 -0.00000000000E+00 -0.00000000000E+00 -0.74505805969E-08  0.93827000000E+00  0.93827000000E+00 0.  1.
     999902    2    1    2    0    0  0.93931678526E-02  0.21718329698E-01  0.39594486031E-02  0.10199384456E+01  0.10196562353E+01 0.  0.
     999903    2    3    3    0    0 -0.94518429661E-01 -0.77597485352E-01 -0.32090211128E-01  0.12754793181E+00  0.16840130041E-01 0.  0.
         14    1    1    2    0    0 -0.93931678526E-02 -0.21718329698E-01 -0.39594486031E-02  0.23991554356E-01  0.00000000000E+00 0. -1.
     999901    1    3    3    0    0  0.10391159751E+00  0.99315815050E-01  0.36049659731E-01  0.89239051384E+00  0.88000000000E+00 0. -1.
        -11    1    4    4    0    0 -0.78330415662E-01 -0.70680710096E-01 -0.30697098384E-01  0.10988170807E+00  0.51100000000E-03 0.  1.
         11    1    4    4    0    0 -0.16188013999E-01 -0.69167752560E-02 -0.13931127447E-02  0.17666223742E-01  0.51100000000E-03 0. -1.
</event>
<event>
 8    1  0.1090774E+005  0.1043930E+01  0.7957747E-01            NaN
         13   -1    0    0    0    0  0.00000000000E+00  0.00000000000E+00  0.74505805969E-08  0.10566000000E+00  0.10566000000E+00 0.  1.
     999900   -1    0    0    0    0 -0.00000000000E+00 -0.00000000000E+00 -0.74505805969E-08  0.93827000000E+00  0.93827000000E+00 0. -1.
     999902    2    1    2    0    0 -0.12656629018E-01 -0.22237377406E-01  0.45651052429E-02  0.10179390131E+01  0.10176071457E+01 0.  0.
     999903    2    3    3    0    0  0.25688456270E-01  0.78319992295E-01 -0.93196033555E-01  0.12600887550E+00  0.19970429566E-01 0.  0.
         14    1    1    2    0    0  0.12656629018E-01  0.22237377406E-01 -0.45651052429E-02  0.25990986858E-01  0.00000000000E+00 0.  1.
     999901    1    3    3    0    0 -0.38345085288E-01 -0.10055736970E+00  0.97761138797E-01  0.89193013764E+00  0.88000000000E+00 0. -1.
        -11    1    4    4    0    0  0.10243175511E-01  0.31734450086E-01 -0.52753562213E-01  0.62411516677E-01  0.51100000000E-03 0.  1.
         11    1    4    4    0    0  0.15445280759E-01  0.46585542208E-01 -0.40442471342E-01  0.63597358827E-01  0.51100000000E-03 0. -1.
</event>
<event>
 8    1  0.1090774E+005  0.1043930E+01  0.7957747E-01            NaN
         13   -1    0    0    0    0  0.00000000000E+00  0.00000000000E+00  0.74505805969E-08  0.10566000000E+00  0.10566000000E+00 0. -1.
     999900   -1    0    0    0    0 -0.00000000000E+00 -0.00000000000E+00 -0.74505805969E-08  0.93827000000E+00  0.93827000000E+00 0.  1.
     999902    2    1    2    0    0 -0.41409746835E-02 -0.53393095340E-02 -0.22974611640E-01  0.10199823764E+01  0.10197012109E+01 0.  0.
     999903    2    3    3    0    0  0.45544047509E-01 -0.79449744663E-02  0.11737094492E+00  0.12747340377E+00  0.18334314101E-01 0.  0.
         14    1    1    2    0    0  0.41409746835E-02  0.53393095340E-02  0.22974611640E-01  0.23947623633E-01  0.00000000000E+00 0. -1.
     999901    1    3    3    0    0 -0.49685022192E-01  0.26056649323E-02 -0.14034555656E+00  0.89250897260E+00  0.88000000000E+00 0.  1.
        -11    1    4    4    0    0  0.33378437050E-02  0.27124122291E-02  0.24818420553E-01  0.25193521001E-01  0.51100000000E-03 0. -1.
         11    1    4    4    0    0  0.42206203804E-01 -0.10657386695E-01  0.92552524371E-01  0.10227988277E+00  0.51100000000E-03 0.  1.
</event>
<event>
 8    1  0.1090774E+005  0.1043930E+01  0.7957747E-01            NaN
         13   -1    0    0    0    0  0.00000000000E+00  0.00000000000E+00  0.74505805969E-08  0.10566000000E+00  0.10566000000E+00 0. -1.
     999900   -1    0    0    0    0 -0.00000000000E+00 -0.00000000000E+00 -0.74505805969E-08  0.93827000000E+00  0.93827000000E+00 0. -1.
     999902    2    1    2    0    0 -0.22319884070E-01  0.67264197043E-02  0.31350019765E-02  0.10204087291E+01  0.10201376006E+01 0.  0.
     999903    2    3    3    0    0 -0.43440687706E-01  0.11191370622E+00 -0.51670571860E-01  0.13220036137E+00  0.19882569347E-01 0.  0.
         14    1    1    2    0    0  0.22319884070E-01 -0.67264197043E-02 -0.31350019765E-02  0.23521270891E-01  0.00000000000E+00 0.  1.
     999901    1    3    3    0    0  0.21120803636E-01 -0.10518728651E+00  0.54805573837E-01  0.88820836773E+00  0.88000000000E+00 0.  1.
        -11    1    4    4    0    0 -0.25285606284E-01  0.74368978261E-01 -0.43181380424E-01  0.89638159001E-01  0.51100000000E-03 0.  1.
         11    1    4    4    0    0 -0.18155081422E-01  0.37544727955E-01 -0.84891914359E-02  0.42562202373E-01  0.51100000000E-03 0. -1.
</event>
<event>
 8    1  0.1090774E+005  0.1043930E+01  0.7957747E-01            NaN
         13   -1    0    0    0    0  0.00000000000E+00  0.00000000000E+00  0.74505805969E-08  0.10566000000E+00  0.10566000000E+00 0. -1.
     999900   -1    0    0    0    0 -0.00000000000E+00 -0.00000000000E+00 -0.74505805969E-08  0.93827000000E+00  0.93827000000E+00 0.  1.
     999902    2    1    2    0    0 -0.10772686372E-01 -0.12686934353E-01 -0.19320963535E-01  0.10184288489E+01  0.10181095283E+01 0.  0.
     999903    2    3    3    0    0  0.24315233536E-01  0.12013050703E+00  0.24733102462E-01  0.12668202633E+00  0.20347976181E-01 0.  0.
         14    1    1    2    0    0  0.10772686372E-01  0.12686934353E-01  0.19320963535E-01  0.25501151089E-01  0.00000000000E+00 0. -1.
     999901    1    3    3    0    0 -0.35087919908E-01 -0.13281744139E+00 -0.44054065997E-01  0.89174682259E+00  0.88000000000E+00 0.  1.
        -11    1    4    4    0    0  0.34789160738E-02  0.67843785626E-01  0.12351838633E-01  0.69048614351E-01  0.51100000000E-03 0.  1.
         11    1    4    4    0    0  0.20836317462E-01  0.52286721407E-01  0.12381263829E-01  0.57633411975E-01  0.51100000000E-03 0. -1.
</event>
<event>
 8    1  0.1090774E+005  0.1043930E+01  0.7957747E-01            NaN
         13   -1    0    0    0    0  0.00000000000E+00  0.00000000000E+00  0.74505805969E-08  0.10566000000E+00  0.10566000000E+00 0.  1.
     999900   -1    0    0    0    0 -0.00000000000E+00 -0.00000000000E+00 -0.74505805969E-08  0.93827000000E+00  0.93827000000E+00 0. -1.
     999902    2    1    2    0    0 -0.32204400988E-02  0.12748565707E-02 -0.22462519781E-01  0.10212020153E+01  0.10209490657E+01 0.  0.
     999903    2    3    3    0    0  0.50769400672E-01 -0.82042146270E-01  0.83511812149E-01  0.12930113241E+00  0.20883348987E-01 0.  0.
         14    1    1    2    0    0  0.32204400988E-02 -0.12748565707E-02  0.22462519781E-01  0.22727984702E-01  0.00000000000E+00 0.  1.
     999901    1    3    3    0    0 -0.53989840770E-01  0.83317002841E-01 -0.10597433193E+00  0.89190088289E+00  0.88000000000E+00 0.  1.
        -11    1    4    4    0    0  0.39668316803E-01 -0.68942546766E-01  0.77625263693E-01  0.11114221879E+00  0.51100000000E-03 0.  1.
         11    1    4    4    0    0  0.11101083868E-01 -0.13099599504E-01  0.58865484557E-02  0.18158913622E-01  0.51100000000E-03 0. -1.
</event>
<event>
 8    1  0.1090774E+005  0.1043930E+01  0.7957747E-01            NaN
         13   -1    0    0    0    0  0.00000000000E+00  0.00000000000E+00  0.74505805969E-08  0.10566000000E+00  0.10566000000E+00 0. -1.
     999900   -1    0    0    0    0 -0.00000000000E+00 -0.00000000000E+00 -0.74505805969E-08  0.93827000000E+00  0.93827000000E+00 0.  1.
     999902    2    1    2    0    0  0.88552482595E-03 -0.16180361623E-01  0.18365544423E-01  0.10194375220E+01  0.10191432577E+01 0.  0.
     999903    2    3    3    0    0  0.67890490088E-01  0.10521364746E+00  0.21103205193E-01  0.12857632878E+00  0.20186549876E-01 0.  0.
         14    1    1    2    0    0 -0.88552482595E-03  0.16180361623E-01 -0.18365544423E-01  0.24492477997E-01  0.00000000000E+00 0.  1.
     999901    1    3    3    0    0 -0.67004965262E-01 -0.12139400908E+00 -0.27376607706E-02  0.89086119323E+00  0.88000000000E+00 0. -1.
        -11    1    4    4    0    0  0.27795943391E-01  0.45420945653E-01  0.19036051857E-01  0.56553595503E-01  0.51100000000E-03 0.  1.
         11    1    4    4    0    0  0.40094546697E-01  0.59792701807E-01  0.20671533362E-02  0.72022733274E-01  0.51100000000E-03 0. -1.
</event>
<event>
 8    1  0.1090774E+005  0.1043930E+01  0.7957747E-01            NaN
         13   -1    0    0    0    0  0.00000000000E+00  0.00000000000E+00  0.74505805969E-08  0.10566000000E+00  0.10566000000E+00 0.  1.
     999900   -1    0    0    0    0 -0.00000000000E+00 -0.00000000000E+00 -0.74505805969E-08  0.93827000000E+00  0.93827000000E+00 0.  1.
     999902    2    1    2    0    0  0.96337558403E-02  0.86882678360E-02 -0.19450633579E-01  0.10205500429E+01  0.10202822000E+01 0.  0.
     999903    2    3    3    0    0  0.12667127134E+00  0.24360778721E-01  0.18808884350E-01  0.13183906714E+00  0.19715652978E-01 0.  0.
         14    1    1    2    0    0 -0.96337558403E-02 -0.86882678360E-02  0.19450633579E-01  0.23379957147E-01  0.00000000000E+00 0.  1.
     999901    1    3    3    0    0 -0.11703751550E+00 -0.15672510885E-01 -0.38259517929E-01  0.88871097571E+00  0.88000000000E+00 0. -1.
        -11    1    4    4    0    0  0.69025364732E-01  0.19269672731E-01  0.24899088522E-02  0.71709706670E-01  0.51100000000E-03 0. -1.
         11    1    4    4    0    0  0.57645906608E-01  0.50911059896E-02  0.16318975498E-01  0.60129360475E-01  0.51100000000E-03 0.  1.
</event>
<event>
 8    1  0.1090774E+005  0.1043930E+01  0.7957747E-01            NaN
         13   -1    0    0    0    0  0.00000000000E+00  0.00000000000E+00  0.74505805969E-08  0.10566000000E+00  0.10566000000E+00 0.  1.
     999900   -1    0    0    0    0 -0.00000000000E+00 -0.00000000000E+00 -0.74505805969E-08  0.93827000000E+00  0.93827000000E+00 0.  1.
     999902    2    1    2    0    0  0.19960446102E-01 -0.12037702209E-01 -0.18429574570E-02  0.10205479091E+01  0.10202800167E+01 0.  0.
     999903    2    3    3    0    0  0.68192037642E-02  0.40146467640E-01 -0.12292089230E+00  0.13062895428E+00  0.17208646890E-01 0.  0.
         14    1    1    2    0    0 -0.19960446102E-01  0.12037702209E-01  0.18429574570E-02  0.23382090908E-01  0.00000000000E+00 0. -1.
     999901    1    3    3    0    0  0.13141242338E-01 -0.52184169849E-01  0.12107793484E+00  0.88991895481E+00  0.88000000000E+00 0. -1.
        -11    1    4    4    0    0  0.83856219608E-02  0.34509023546E-01 -0.83021876059E-01  0.90299968921E-01  0.51100000000E-03 0. -1.
         11    1    4    4    0    0 -0.15664181966E-02  0.56374440942E-02 -0.39899016240E-01  0.40328985356E-01  0.51100000000E-03 0.  1.
</event>
<event>
 8    1  0.1090774E+005  0.1043930E+01  0.7957747E-01            NaN
         13   -1    0    0    0    0  0.00000000000E+00  0.00000000000E+00  0.74505805969E-08  0.10566000000E+00  0.10566000000E+00 0. -1.
     999900   -1    0    0    0    0 -0.00000000000E+00 -0.00000000000E+00 -0.74505805969E-08  0.93827000000E+00  0.93827000000E+00 0.  1.
     999902    2    1    2    0    0 -0.75536083597E-02 -0.27117452942E-02  0.22228689901E-01  0.10202968619E+01  0.10200231180E+01 0.  0.
     999903    2    3    3    0    0  0.22398032319E-02 -0.59755371401E-01 -0.11165211562E+00  0.12829128104E+00  0.20414130881E-01 0.  0.
         14    1    1    2    0    0  0.75536083597E-02  0.27117452942E-02 -0.22228689901E-01  0.23633138101E-01  0.00000000000E+00 0.  1.
     999901    1    3    3    0    0 -0.97934115916E-02  0.57043626107E-01  0.13388080552E+00  0.89200558086E+00  0.88000000000E+00 0.  1.
        -11    1    4    4    0    0  0.13423408854E-02 -0.19675428443E-01 -0.58342359139E-01  0.61587469134E-01  0.51100000000E-03 0. -1.
         11    1    4    4    0    0  0.89746234649E-03 -0.40079942958E-01 -0.53309756481E-01  0.66703811910E-01  0.51100000000E-03 0.  1.
</event>
<event>
 8    1  0.1090774E+005  0.1043930E+01  0.7957747E-01            NaN
         13   -1    0    0    0    0  0.00000000000E+00  0.00000000000E+00  0.74505805969E-08  0.10566000000E+00  0.10566000000E+00 0.  1.
     999900   -1    0    0    0    0 -0.00000000000E+00 -0.00000000000E+00 -0.74505805969E-08  0.93827000000E+00  0.93827000000E+00 0. -1.
     999902    2    1    2    0    0 -0.21067464110E-01 -0.98583280975E-02 -0.65252281039E-02  0.10197721177E+01  0.10194859335E+01 0.  0.
     999903    2    3    3    0    0  0.11264329857E+00 -0.58105963706E-01  0.84370841393E-03  0.12833468093E+00  0.20106286455E-01 0.  0.
         14    1    1    2    0    0  0.21067464110E-01  0.98583280975E-02  0.65252281039E-02  0.24157882331E-01  0.00000000000E+00 0.  1.
     999901    1    3    3    0    0 -0.13371076268E+00  0.48247635608E-01 -0.73689365178E-02  0.89143743674E+00  0.88000000000E+00 0. -1.
        -11    1    4    4    0    0  0.97458807849E-01 -0.43178362720E-01 -0.32466569483E-02  0.10664610699E+00  0.51100000000E-03 0.  1.
         11    1    4    4    0    0  0.15184490717E-01 -0.14927600986E-01  0.40903653622E-02  0.21688573935E-01  0.51100000000E-03 0. -1.
</event>
<event>
 8    1  0.1090774E+005  0.1043930E+01  0.7957747E-01            NaN
         13   -1    0    0    0    0  0.00000000000E+00  0.00000000000E+00  0.74505805969E-08  0.10566000000E+00  0.10566000000E+00 0.  1.
     999900   -1    0    0    0    0 -0.00000000000E+00 -0.00000000000E+00 -0.74505805969E-08  0.93827000000E+00  0.93827000000E+00 0. -1.
     999902    2    1    2    0    0 -0.18361720635E-01  0.60050630646E-02  0.14171078525E-01  0.10199710135E+01  0.10196895779E+01 0.  0.
     999903    2    3    3    0    0 -0.11835928438E+00  0.21730177457E-01 -0.50231881549E-01  0.13182995870E+00  0.19359113504E-01 0.  0.
         14    1    1    2    0    0  0.18361720635E-01 -0.60050630646E-02 -0.14171078525E-01  0.23958986491E-01  0.00000000000E+00 0.  1.
     999901    1    3    3    0    0  0.99997563741E-01 -0.15725114392E-01  0.64402960074E-01  0.88814105481E+00  0.88000000000E+00 0.  1.
        -11    1    4    4    0    0 -0.70730856857E-01  0.15366301424E-01 -0.20144050377E-01  0.75133356226E-01  0.51100000000E-03 0.  1.
         11    1    4    4    0    0 -0.47628427520E-01  0.63638760330E-02 -0.30087831172E-01  0.56696602471E-01  0.51100000000E-03 0. -1.
</event>
<event>
 8    1  0.1090774E+005  0.1043930E+01  0.7957747E-01            NaN
         13   -1    0    0    0    0  0.00000000000E+00  0.00000000000E+00  0.74505805969E-08  0.10566000000E+00  0.10566000000E+00 0.  1.
     999900   -1    0    0    0    0 -0.00000000000E+00 -0.00000000000E+00 -0.74505805969E-08  0.93827000000E+00  0.93827000000E+00 0.  1.
     999902    2    1    2    0    0  0.75997036961E-02 -0.19569302791E-01 -0.20721851077E-01  0.10144324031E+01  0.10140034479E+01 0.  0.
     999903    2    3    3    0    0 -0.84053745161E-01  0.86185369937E-01 -0.18613273553E-01  0.12337188243E+00  0.19524788194E-01 0.  0.
         14    1    1    2    0    0 -0.75997036961E-02  0.19569302791E-01  0.20721851077E-01  0.29497596852E-01  0.00000000000E+00 0.  1.
     999901    1    3    3    0    0  0.91653448857E-01 -0.10575467273E+00 -0.21085775234E-02  0.89106052072E+00  0.88000000000E+00 0.  1.
        -11    1    4    4    0    0 -0.26246685523E-01  0.15569808293E-01 -0.75642789960E-02  0.31444981618E-01  0.51100000000E-03 0.  1.
         11    1    4    4    0    0 -0.57807059638E-01  0.70615561645E-01 -0.11048994557E-01  0.91926900808E-01  0.51100000000E-03 0. -1.
</event>
<event>
 8    1  0.1090774E+005  0.1043930E+01  0.7957747E-01            NaN
         13   -1    0    0    0    0  0.00000000000E+00  0.00000000000E+00  0.74505805969E-08  0.10566000000E+00  0.10566000000E+00 0. -1.
     999900   -1    0    0    0    0 -0.00000000000E+00 -0.00000000000E+00 -0.74505805969E-08  0.93827000000E+00  0.93827000000E+00 0.  1.
     999902    2    1    2    0    0  0.11303220818E-01  0.20502517392E-01  0.57394958828E-02  0.10198248588E+01  0.10195399378E+01 0.  0.
     999903    2    3    3    0    0 -0.41063209067E-01  0.20739813701E-01  0.12060041193E+00  0.13081679958E+00  0.21266139358E-01 0.  0.
         14    1    1    2    0    0 -0.11303220818E-01 -0.20502517392E-01 -0.57394958828E-02  0.24105141221E-01  0.00000000000E+00 0.  1.
     999901    1    3    3    0    0  0.52366429885E-01 -0.23729630913E-03 -0.11486091605E+00  0.88900805920E+00  0.88000000000E+00 0.  1.
        -11    1    4    4    0    0 -0.26890211603E-01  0.41576466297E-02  0.50066026958E-01  0.56984538973E-01  0.51100000000E-03 0.  1.
         11    1    4    4    0    0 -0.14172997464E-01  0.16582167072E-01  0.70534384971E-01  0.73832260606E-01  0.51100000000E-03 0. -1.
</event>
<event>
 8    1  0.1090774E+005  0.1043930E+01  0.7957747E-01            NaN
         13   -1    0    0    0    0  0.00000000000E+00  0.00000000000E+00  0.74505805969E-08  0.10566000000E+00  0.10566000000E+00 0.  1.
     999900   -1    0    0    0    0 -0.00000000000E+00 -0.00000000000E+00 -0.74505805969E-08  0.93827000000E+00  0.93827000000E+00 0.  1.
     999902    2    1    2    0    0  0.19805391071E-01  0.96228251674E-02 -0.80910047279E-02  0.10204711714E+01  0.10202014973E+01 0.  0.
     999903    2    3    3    0    0  0.90460433864E-01  0.75265593140E-01  0.58101101034E-01  0.13273106143E+00  0.19844322161E-01 0.  0.
         14    1    1    2    0    0 -0.19805391071E-01 -0.96228251674E-02  0.80910047279E-02  0.23458828555E-01  0.00000000000E+00 0. -1.
     999901    1    3    3    0    0 -0.70655042794E-01 -0.65642767973E-01 -0.66192105762E-01  0.88774011001E+00  0.88000000000E+00 0.  1.
        -11    1    4    4    0    0  0.15620910120E-01  0.86696694848E-02  0.21965994862E-02  0.18007281090E-01  0.51100000000E-03 0.  1.
         11    1    4    4    0    0  0.74839523744E-01  0.66595923655E-01  0.55904501548E-01  0.11472378034E+00  0.51100000000E-03 0. -1.
</event>
<event>
 8    1  0.1090774E+005  0.1043930E+01  0.7957747E-01            NaN
         13   -1    0    0    0    0  0.00000000000E+00  0.00000000000E+00  0.74505805969E-08  0.10566000000E+00  0.10566000000E+00 0. -1.
     999900   -1    0    0    0    0 -0.00000000000E+00 -0.00000000000E+00 -0.74505805969E-08  0.93827000000E+00  0.93827000000E+00 0.  1.
     999902    2    1    2    0    0 -0.13178080681E-01  0.35591779691E-02  0.17360210089E-01  0.10218459231E+01  0.10216072553E+01 0.  0.
     999903    2    3    3    0    0 -0.10579978984E+00  0.40742193981E-02  0.80946885360E-01  0.13470314341E+00  0.19553613499E-01 0.  0.
         14    1    1    2    0    0  0.13178080681E-01 -0.35591779691E-02 -0.17360210089E-01  0.22084076901E-01  0.00000000000E+00 0.  1.
     999901    1    3    3    0    0  0.92621709164E-01 -0.51504142907E-03 -0.63586675271E-01  0.88714277969E+00  0.88000000000E+00 0.  1.
        -11    1    4    4    0    0 -0.56008013497E-01 -0.28218102414E-03  0.30895246922E-01  0.63966824256E-01  0.51100000000E-03 0. -1.
         11    1    4    4    0    0 -0.49791776348E-01  0.43564004223E-02  0.50051638439E-01  0.70736319158E-01  0.51100000000E-03 0.  1.
</event>
<event>
 8    1  0.1090774E+005  0.1043930E+01  0.7957747E-01            NaN
         13   -1    0    0    0    0  0.00000000000E+00  0.00000000000E+00  0.74505805969E-08  0.10566000000E+00  0.10566000000E+00 0. -1.
     999900   -1    0    0    0    0 -0.00000000000E+00 -0.00000000000E+00 -0.74505805969E-08  0.93827000000E+00  0.93827000000E+00 0. -1.
     999902    2    1    2    0    0 -0.99145562330E-02  0.74312515423E-02  0.19493994192E-01  0.10208315642E+01  0.10205702057E+01 0.  0.
     999903    2    3    3    0    0 -0.78251184538E-01 -0.83731377326E-01 -0.59087904456E-01  0.13001416743E+00  0.16676685801E-01 0.  0.
         14    1    1    2    0    0  0.99145562330E-02 -0.74312515423E-02 -0.19493994192E-01  0.23098435755E-01  0.00000000000E+00 0.  1.
     999901    1    3    3    0    0  0.68336628305E-01  0.91162628868E-01  0.78581898648E-01  0.89081739681E+00  0.88000000000E+00 0.  1.
        -11    1    4    4    0    0 -0.67767319489E-01 -0.62906784716E-01 -0.48270409021E-01  0.10430707868E+00  0.51100000000E-03 0.  1.
         11    1    4    4    0    0 -0.10483865049E-01 -0.20824592610E-01 -0.10817495435E-01  0.25707088754E-01  0.51100000000E-03 0. -1.
</event>
<event>
 8    1  0.1090774E+005  0.1043930E+01  0.7957747E-01            NaN
         13   -1    0    0    0    0  0.00000000000E+00  0.00000000000E+00  0.74505805969E-08  0.10566000000E+00  0.10566000000E+00 0. -1.
     999900   -1    0    0    0    0 -0.00000000000E+00 -0.00000000000E+00 -0.74505805969E-08  0.93827000000E+00  0.93827000000E+00 0. -1.
     999902    2    1    2    0    0  0.12285671395E-01  0.17743326635E-01 -0.77316528215E-02  0.10210053012E+01  0.10207479038E+01 0.  0.
     999903    2    3    3    0    0  0.80527184518E-01  0.49108505839E-01  0.91139065682E-01  0.13228931865E+00  0.17258671568E-01 0.  0.
         14    1    1    2    0    0 -0.12285671395E-01 -0.17743326635E-01  0.77316528215E-02  0.22924698843E-01  0.00000000000E+00 0. -1.
     999901    1    3    3    0    0 -0.68241513123E-01 -0.31365179204E-01 -0.98870718503E-01  0.88871598250E+00  0.88000000000E+00 0. -1.
        -11    1    4    4    0    0  0.41048462954E-01  0.34051473681E-01  0.45676172836E-01  0.70221457238E-01  0.51100000000E-03 0. -1.
         11    1    4    4    0    0  0.39478721564E-01  0.15057032159E-01  0.45462892846E-01  0.62067861415E-01  0.51100000000E-03 0.  1.
</event>
<event>
 8    1  0.1090774E+005  0.1043930E+01  0.7957747E-01            NaN
         13   -1    0    0    0    0  0.00000000000E+00  0.00000000000E+00  0.74505805969E-08  0.10566000000E+00  0.10566000000E+00 0.  1.
     999900   -1    0    0    0    0 -0.00000000000E+00 -0.00000000000E+00 -0.74505805969E-08  0.93827000000E+00  0.93827000000E+00 0. -1.
     999902    2    1    2    0    0 -0.38687775806E-02  0.21012278652E-01 -0.12355677415E-01  0.10192491155E+01  0.10189502507E+01 0.  0.
     999903    2    3    3    0    0 -0.12374279788E+00 -0.30630145732E-01 -0.10538726323E-01  0.12961996692E+00  0.20971056609E-01 0.  0.
         14    1    1    2    0    0  0.38687775806E-02 -0.21012278652E-01  0.12355677415E-01  0.24680884475E-01  0.00000000000E+00 0.  1.
     999901    1    3    3    0    0  0.11987402030E+00  0.51642424384E-01 -0.18169510921E-02  0.88962914861E+00  0.88000000000E+00 0. -1.
        -11    1    4    4    0    0 -0.52657441655E-01 -0.16204235800E-01 -0.14509576449E-01  0.56975190647E-01  0.51100000000E-03 0.  1.
         11    1    4    4    0    0 -0.71085356230E-01 -0.14425909932E-01  0.39708501267E-02  0.72644776271E-01  0.51100000000E-03 0. -1.
</event>
<event>
 8    1  0.1090774E+005  0.1043930E+01  0.7957747E-01            NaN
         13   -1    0    0    0    0  0.00000000000E+00  0.00000000000E+00  0.74505805969E-08  0.10566000000E+00  0.10566000000E+00 0. -1.
     999900   -1    0    0    0    0 -0.00000000000E+00 -0.00000000000E+00 -0.74505805969E-08  0.93827000000E+00  0.93827000000E+00 0. -1.
     999902    2    1    2    0    0  0.21865104580E-01  0.10927041026E-01 -0.41194823818E-02  0.10191418343E+01  0.10188403335E+01 0.  0.
     999903    2    3    3    0    0 -0.83897636661E-01  0.40349825756E-02  0.93530468594E-01  0.12741947233E+00  0.20800933919E-01 0.  0.
         14    1    1    2    0    0 -0.21865104580E-01 -0.10927041026E-01  0.41194823818E-02  0.24788165704E-01  0.00000000000E+00 0.  1.
     999901    1    3    3    0    0  0.10576274124E+00  0.68920584503E-02 -0.97649950975E-01  0.89172236197E+00  0.88000000000E+00 0. -1.
        -11    1    4    4    0    0 -0.27980617277E-01 -0.71810579617E-02  0.24540466090E-01  0.37907494424E-01  0.51100000000E-03 0.  1.
         11    1    4    4    0    0 -0.55917019385E-01  0.11216040537E-01  0.68990002504E-01  0.89511977906E-01  0.51100000000E-03 0. -1.
</event>
<event>
 8    1  0.1090774E+005  0.1043930E+01  0.7957747E-01            NaN
         13   -1    0    0    0    0  0.00000000000E+00  0.00000000000E+00  0.74505805969E-08  0.10566000000E+00  0.10566000000E+00 0. -1.
     999900   -1    0    0    0    0 -0.00000000000E+00 -0.00000000000E+00 -0.74505805969E-08  0.93827000000E+00  0.93827000000E+00 0.  1.
     999902    2    1    2    0    0  0.21476215908E-01  0.94831866576E-02  0.45822671100E-03  0.10204487596E+01  0.10201785639E+01 0.  0.
     999903    2    3    3    0    0  0.40430962353E-01 -0.10064657934E+00  0.70084415405E-01  0.13065347195E+00  0.19852148525E-01 0.  0.
         14    1    1    2    0    0 -0.21476215908E-01 -0.94831866576E-02 -0.45822671100E-03  0.23481240398E-01  0.00000000000E+00 0. -1.
     999901    1    3    3    0    0 -0.18954746445E-01  0.11012976600E+00 -0.69626188694E-01  0.88979528765E+00  0.88000000000E+00 0.  1.
        -11    1    4    4    0    0  0.12562881017E-01 -0.50003087005E-01  0.24761775327E-01  0.57197389170E-01  0.51100000000E-03 0.  1.
         11    1    4    4    0    0  0.27868081336E-01 -0.50643492334E-01  0.45322640078E-01  0.73456082782E-01  0.51100000000E-03 0. -1.
</event>
<event>
 8    1  0.1090774E+005  0.1043930E+01  0.7957747E-01            NaN
         13   -1    0    0    0    0  0.00000000000E+00  0.00000000000E+00  0.74505805969E-08  0.10566000000E+00  0.10566000000E+00 0.  1.
     999900   -1    0    0    0    0 -0.00000000000E+00 -0.00000000000E+00 -0.74505805969E-08  0.93827000000E+00  0.93827000000E+00 0.  1.
     999902    2    1    2    0    0  0.21323326567E-01 -0.38199253832E-02  0.10332138505E-01  0.10199293923E+01  0.10196469664E+01 0.  0.
     999903    2    3    3    0    0  0.45833719892E-01  0.11332854704E+00  0.43297510770E-01  0.13121614281E+00  0.19972787577E-01 0.  0.
         14    1    1    2    0    0 -0.21323326567E-01  0.38199253832E-02 -0.10332138505E-01  0.24000607740E-01  0.00000000000E+00 0.  1.
     999901    1    3    3    0    0 -0.24510393325E-01 -0.11714847242E+00 -0.32965372265E-01  0.88871324945E+00  0.88000000000E+00 0.  1.
        -11    1    4    4    0    0  0.40394940029E-01  0.85314471272E-01  0.26277989497E-01  0.97985223587E-01  0.51100000000E-03 0.  1.
         11    1    4    4    0    0  0.54387798635E-02  0.28014075765E-01  0.17019521273E-01  0.33230919228E-01  0.51100000000E-03 0. -1.
</event>
<event>
 8    1  0.1090774E+005  0.1043930E+01  0.7957747E-01            NaN
         13   -1    0    0    0    0  0.00000000000E+00  0.00000000000E+00  0.74505805969E-08  0.10566000000E+00  0.10566000000E+00 0. -1.
     999900   -1    0    0    0    0 -0.00000000000E+00 -0.00000000000E+00 -0.74505805969E-08  0.93827000000E+00  0.93827000000E+00 0.  1.
     999902    2    1    2    0    0  0.60504877117E-02 -0.15612087118E-01  0.12298084253E-01  0.10231552908E+01  0.10229443585E+01 0.  0.
     999903    2    3    3    0    0  0.53660848447E-01 -0.11497186964E+00  0.43954884726E-01  0.13572007298E+00  0.19745603370E-01 0.  0.
         14    1    1    2    0    0 -0.60504877117E-02  0.15612087118E-01 -0.12298084253E-01  0.20774709192E-01  0.00000000000E+00 0.  1.
     999901    1    3    3    0    0 -0.47610360735E-01  0.99359782523E-01 -0.31656800473E-01  0.88743521783E+00  0.88000000000E+00 0.  1.
        -11    1    4    4    0    0  0.76548144124E-02 -0.37698428977E-01  0.13386884793E-01  0.40733739535E-01  0.51100000000E-03 0. -1.
         11    1    4    4    0    0  0.46006034035E-01 -0.77273440664E-01  0.30567999933E-01  0.94986333441E-01  0.51100000000E-03 0.  1.
</event>
<event>
 8    1  0.1090774E+005  0.1043930E+01  0.7957747E-01            NaN
         13   -1    0    0    0    0  0.00000000000E+00  0.00000000000E+00  0.74505805969E-08  0.10566000000E+00  0.10566000000E+00 0.  1.
     999900   -1    0    0    0    0 -0.00000000000E+00 -0.00000000000E+00 -0.74505805969E-08  0.93827000000E+00  0.93827000000E+00 0. -1.
     999902    2    1    2    0    0 -0.53922559274E-02 -0.12265357330E-01  0.19698753434E-01  0.10201065598E+01  0.10198283371E+01 0.  0.
     999903    2    3    3    0    0 -0.87661415338E-02  0.30370999527E-01  0.12693936821E+00  0.13256512898E+00  0.21463163075E-01 0.  0.
         14    1    1    2    0    0  0.53922559274E-02  0.12265357330E-01 -0.19698753434E-01  0.23823440164E-01  0.00000000000E+00 0.  1.
     999901    1    3    3    0    0  0.33738856064E-02 -0.42636356857E-01 -0.10724061478E+00  0.88754143086E+00  0.88000000000E+00 0. -1.
        -11    1    4    4    0    0 -0.69261413816E-02  0.55131573160E-02  0.67915557917E-01  0.68491973735E-01  0.51100000000E-03 0. -1.
         11    1    4    4    0    0 -0.18400001521E-02  0.24857842211E-01  0.59023810296E-01  0.64073155243E-01  0.51100000000E-03 0.  1.
</event>
<event>
 8    1  0.1090774E+005  0.1043930E+01  0.7957747E-01            NaN
         13   -1    0    0    0    0  0.00000000000E+00  0.00000000000E+00  0.74505805969E-08  0.10566000000E+00  0.10566000000E+00 0.  1.
     999900   -1    0    0    0    0 -0.00000000000E+00 -0.00000000000E+00 -0.74505805969E-08  0.93827000000E+00  0.93827000000E+00 0. -1.
     999902    2    1    2    0    0 -0.44846538797E-02 -0.73765802033E-02 -0.21974517383E-01  0.10203205640E+01  0.10200473753E+01 0.  0.
     999903    2    3    3    0    0  0.36102307402E-02 -0.81404160828E-01  0.97800872269E-01  0.12909009219E+00  0.21437586576E-01 0.  0.
         14    1    1    2    0    0  0.44846538797E-02  0.73765802033E-02  0.21974517383E-01  0.23609436040E-01  0.00000000000E+00 0.  1.
     999901    1    3    3    0    0 -0.80948846198E-02  0.74027580624E-01 -0.11977538965E+00  0.89123047177E+00  0.88000000000E+00 0. -1.
        -11    1    4    4    0    0 -0.40228117086E-02 -0.80176743990E-02  0.19675969875E-01  0.21630326589E-01  0.51100000000E-03 0. -1.
         11    1    4    4    0    0  0.76330424488E-02 -0.73386486429E-01  0.78124902394E-01  0.10745976560E+00  0.51100000000E-03 0.  1.
</event>
<event>
 8    1  0.1090774E+005  0.1043930E+01  0.7957747E-01            NaN
         13   -1    0    0    0    0  0.00000000000E+00  0.00000000000E+00  0.74505805969E-08  0.10566000000E+00  0.10566000000E+00 0. -1.
     999900   -1    0    0    0    0 -0.00000000000E+00 -0.00000000000E+00 -0.74505805969E-08  0.93827000000E+00  0.93827000000E+00 0. -1.
     999902    2    1    2    0    0  0.21715561608E-01 -0.85390187962E-02  0.26629368858E-02  0.10204444365E+01  0.10201741402E+01 0.  0.
     999903    2    3    3    0    0  0.67586516433E-01  0.81648564452E-01  0.74586018686E-01  0.13173139266E+00  0.23572448942E-01 0.  0.
         14    1    1    2    0    0 -0.21715561608E-01  0.85390187962E-02 -0.26629368858E-02  0.23485563456E-01  0.00000000000E+00 0. -1.
     999901    1    3    3    0    0 -0.45870954825E-01 -0.90187583248E-01 -0.71923081800E-01  0.88871304388E+00  0.88000000000E+00 0. -1.
        -11    1    4    4    0    0  0.54833531811E-01  0.49820607515E-01  0.54674326336E-01  0.92077968187E-01  0.51100000000E-03 0. -1.
         11    1    4    4    0    0  0.12752984622E-01  0.31827956936E-01  0.19911692350E-01  0.39653424477E-01  0.51100000000E-03 0.  1.
</event>
<event>
 8    1  0.1090774E+005  0.1043930E+01  0.7957747E-01            NaN
         13   -1    0    0    0    0  0.00000000000E+00  0.00000000000E+00  0.74505805969E-08  0.10566000000E+00  0.10566000000E+00 0. -1.
     999900   -1    0    0    0    0 -0.00000000000E+00 -0.00000000000E+00 -0.74505805969E-08  0.93827000000E+00  0.93827000000E+00 0. -1.
     999902    2    1    2    0    0 -0.11865629870E-01 -0.16095216398E-01  0.12579288364E-01  0.10203061210E+01  0.10200325940E+01 0.  0.
     999903    2    3    3    0    0 -0.55201056351E-01  0.55707185855E-01 -0.10072734591E+00  0.12908676668E+00  0.19155885237E-01 0.  0.
         14    1    1    2    0    0  0.11865629870E-01  0.16095216398E-01 -0.12579288364E-01  0.23623878997E-01  0.00000000000E+00 0.  1.
     999901    1    3    3    0    0  0.43335426481E-01 -0.71802402254E-01  0.11330663427E+00  0.89121935433E+00  0.88000000000E+00 0.  1.
        -11    1    4    4    0    0 -0.12286132698E-01  0.57201061683E-02 -0.26976002179E-01  0.30193285443E-01  0.51100000000E-03 0.  1.
         11    1    4    4    0    0 -0.42914923653E-01  0.49987079687E-01 -0.73751343727E-01  0.98893481233E-01  0.51100000000E-03 0. -1.
</event>
<event>
 8    1  0.1090774E+005  0.1043930E+01  0.7957747E-01            NaN
         13   -1    0    0    0    0  0.00000000000E+00  0.00000000000E+00  0.74505805969E-08  0.10566000000E+00  0.10566000000E+00 0. -1.
     999900   -1    0    0    0    0 -0.00000000000E+00 -0.00000000000E+00 -0.74505805969E-08  0.93827000000E+00  0.93827000000E+00 0. -1.
     999902    2    1    2    0    0 -0.12213421897E-01  0.14512986746E-01  0.14697613154E-01  0.10199338692E+01  0.10196515500E+01 0.  0.
     999903    2    3    3    0    0  0.19417751969E-01 -0.47824347752E-02  0.12869331113E+00  0.13180782886E+00  0.20283358865E-01 0.  0.
         14    1    1    2    0    0  0.12213421897E-01 -0.14512986746E-01 -0.14697613154E-01  0.23996130754E-01  0.00000000000E+00 0.  1.
     999901    1    3    3    0    0 -0.31631173866E-01  0.19295421521E-01 -0.11399569797E+00  0.88812604038E+00  0.88000000000E+00 0. -1.
        -11    1    4    4    0    0  0.18766166206E-01  0.23336167791E-02  0.64529546489E-01  0.67245358594E-01  0.51100000000E-03 0. -1.
         11    1    4    4    0    0  0.65158576303E-03 -0.71160515544E-02  0.64163764637E-01  0.64562470268E-01  0.51100000000E-03 0.  1.
</event>
<event>
 8    1  0.1090774E+005  0.1043930E+01  0.7957747E-01            NaN
         13   -1    0    0    0    0  0.00000000000E+00  0.00000000000E+00  0.74505805969E-08  0.10566000000E+00  0.10566000000E+00 0. -1.
     999900   -1    0    0    0    0 -0.00000000000E+00 -0.00000000000E+00 -0.74505805969E-08  0.93827000000E+00  0.93827000000E+00 0.  1.
     999902    2    1    2    0    0  0.15818330193E-01  0.14785931087E-01  0.13469645369E-01  0.10184295162E+01  0.10181102125E+01 0.  0.
     999903    2    3    3    0    0  0.99180722211E-01 -0.37129468573E-01  0.74242032149E-01  0.13088358492E+00  0.20080347808E-01 0.  0.
         14    1    1    2    0    0 -0.15818330193E-01 -0.14785931087E-01 -0.13469645369E-01  0.25500483811E-01  0.00000000000E+00 0.  1.
     999901    1    3    3    0    0 -0.83362392017E-01  0.51915399661E-01 -0.60772386780E-01  0.88754593127E+00  0.88000000000E+00 0.  1.
        -11    1    4    4    0    0  0.38591478631E-01 -0.16006738359E-01  0.17767226490E-01  0.45403230656E-01  0.51100000000E-03 0. -1.
         11    1    4    4    0    0  0.60589243579E-01 -0.21122730214E-01  0.56474805659E-01  0.85480354260E-01  0.51100000000E-03 0.  1.
</event>
<event>
 8    1  0.1090774E+005  0.1043930E+01  0.7957747E-01            NaN
         13   -1    0    0    0    0  0.00000000000E+00  0.00000000000E+00  0.74505805969E-08  0.10566000000E+00  0.10566000000E+00 0. -1.
     999900   -1    0    0    0    0 -0.00000000000E+00 -0.00000000000E+00 -0.74505805969E-08  0.93827000000E+00  0.93827000000E+00 0.  1.
     999902    2    1    2    0    0  0.15872110318E-01  0.35739528655E-02  0.66768589317E-02  0.10263437136E+01  0.10261930330E+01 0.  0.
     999903    2    3    3    0    0 -0.62651657778E-01 -0.41069900208E-01 -0.10935380322E+00  0.13414296804E+00  0.20594044541E-01 0.  0.
         14    1    1    2    0    0 -0.15872110318E-01 -0.35739528655E-02 -0.66768589317E-02  0.17586286425E-01  0.00000000000E+00 0.  1.
     999901    1    3    3    0    0  0.78523768096E-01  0.44643853074E-01  0.11603066215E+00  0.89220074553E+00  0.88000000000E+00 0.  1.
        -11    1    4    4    0    0 -0.33174029536E-01 -0.13055219423E-01 -0.63716705045E-01  0.73013934373E-01  0.51100000000E-03 0. -1.
         11    1    4    4    0    0 -0.29477628243E-01 -0.28014680785E-01 -0.45637098175E-01  0.61129033667E-01  0.51100000000E-03 0.  1.
</event>
<event>
 8    1  0.1090774E+005  0.1043930E+01  0.7957747E-01            NaN
         13   -1    0    0    0    0  0.00000000000E+00  0.00000000000E+00  0.74505805969E-08  0.10566000000E+00  0.10566000000E+00 0. -1.
     999900   -1    0    0    0    0 -0.00000000000E+00 -0.00000000000E+00 -0.74505805969E-08  0.93827000000E+00  0.93827000000E+00 0. -1.
     999902    2    1    2    0    0 -0.18556231880E-01 -0.12563379192E-01 -0.96308481310E-02  0.10195389058E+01  0.10192471021E+01 0.  0.
     999903    2    3    3    0    0  0.11312999510E+00  0.17522153251E-01  0.51367907900E-01  0.12714479455E+00  0.20535704870E-01 0.  0.
         14    1    1    2    0    0  0.18556231880E-01  0.12563379192E-01  0.96308481310E-02  0.24391094154E-01  0.00000000000E+00 0. -1.
     999901    1    3    3    0    0 -0.13168622698E+00 -0.30085532444E-01 -0.60998756031E-01  0.89239411130E+00  0.88000000000E+00 0. -1.
        -11    1    4    4    0    0  0.46484444570E-01  0.54964316194E-02  0.10263287265E-01  0.47922964579E-01  0.51100000000E-03 0. -1.
         11    1    4    4    0    0  0.66645550525E-01  0.12025721632E-01  0.41104620635E-01  0.79221829972E-01  0.51100000000E-03 0.  1.
</event>
<event>
 8    1  0.1090774E+005  0.1043930E+01  0.7957747E-01            NaN
         13   -1    0    0    0    0  0.00000000000E+00  0.00000000000E+00  0.74505805969E-08  0.10566000000E+00  0.10566000000E+00 0.  1.
     999900   -1    0    0    0    0 -0.00000000000E+00 -0.00000000000E+00 -0.74505805969E-08  0.93827000000E+00  0.93827000000E+00 0. -1.
     999902    2    1    2    0    0 -0.15873807101E-01  0.17758153812E-01  0.20534834598E-02  0.10200229598E+01  0.10197427577E+01 0.  0.
     999903    2    3    3    0    0  0.36755302769E-01 -0.11131901742E+00 -0.46447035637E-01  0.12773206566E+00  0.20378360048E-01 0.  0.
         14    1    1    2    0    0  0.15873807101E-01 -0.17758153812E-01 -0.20534834598E-02  0.23907040240E-01  0.00000000000E+00 0. -1.
     999901    1    3    3    0    0 -0.52629109870E-01  0.12907717123E+00  0.48500519097E-01  0.89229089410E+00  0.88000000000E+00 0.  1.
        -11    1    4    4    0    0  0.25930077503E-01 -0.53870333717E-01 -0.30581428023E-01  0.67155540613E-01  0.51100000000E-03 0.  1.
         11    1    4    4    0    0  0.10825225266E-01 -0.57448683701E-01 -0.15865607614E-01  0.60576525049E-01  0.51100000000E-03 0. -1.
</event>
<event>
 8    1  0.1090774E+005  0.1043930E+01  0.7957747E-01            NaN
         13   -1    0    0    0    0  0.00000000000E+00  0.00000000000E+00  0.74505805969E-08  0.10566000000E+00  0.10566000000E+00 0. -1.
     999900   -1    0    0    0    0 -0.00000000000E+00 -0.00000000000E+00 -0.74505805969E-08  0.93827000000E+00  0.93827000000E+00 0. -1.
     999902    2    1    2    0    0  0.18284326791E-01 -0.11795665113E-02  0.16742891918E-01  0.10191099997E+01  0.10188077145E+01 0.  0.
     999903    2    3    3    0    0 -0.11190331952E+00 -0.44675940874E-02  0.59926998167E-01  0.12847848142E+00  0.19317421262E-01 0.  0.
         14    1    1    2    0    0 -0.18284326791E-01  0.11795665113E-02 -0.16742891918E-01  0.24820000264E-01  0.00000000000E+00 0.  1.
     999901    1    3    3    0    0  0.13018764631E+00  0.32880275760E-02 -0.43184106249E-01  0.89063151831E+00  0.88000000000E+00 0. -1.
        -11    1    4    4    0    0 -0.10491718133E+00 -0.65844808622E-02  0.60226440350E-01  0.12115467620E+00  0.51100000000E-03 0.  1.
         11    1    4    4    0    0 -0.69861381890E-02  0.21168867748E-02 -0.29944218260E-03  0.73238052291E-02  0.51100000000E-03 0. -1.
</event>
<event>
 8    1  0.1090774E+005  0.1043930E+01  0.7957747E-01            NaN
         13   -1    0    0    0    0  0.00000000000E+00  0.00000000000E+00  0.74505805969E-08  0.10566000000E+00  0.10566000000E+00 0. -1.
     999900   -1    0    0    0    0 -0.00000000000E+00 -0.00000000000E+00 -0.74505805969E-08  0.93827000000E+00  0.93827000000E+00 0.  1.
     999902    2    1    2    0    0  0.10020591173E-01 -0.21317161884E-01  0.27274694164E-02  0.10202177094E+01  0.10199421071E+01 0.  0.
     999903    2    3    3    0    0  0.84559739861E-01 -0.10150397296E+00  0.45104191211E-02  0.13343183426E+00  0.18174278035E-01 0.  0.
         14    1    1    2    0    0 -0.10020591173E-01  0.21317161884E-01 -0.27274694164E-02  0.23712290646E-01  0.00000000000E+00 0. -1.
     999901    1    3    3    0    0 -0.74539148687E-01  0.80186811072E-01 -0.17829497047E-02  0.88678587509E+00  0.88000000000E+00 0.  1.
        -11    1    4    4    0    0  0.57671382214E-01 -0.64528563593E-01 -0.51585682289E-02  0.86699456705E-01  0.51100000000E-03 0.  1.
         11    1    4    4    0    0  0.26888357647E-01 -0.36975409363E-01  0.96689873499E-02  0.46732377555E-01  0.51100000000E-03 0. -1.
</event>
<event>
 8    1  0.1090774E+005  0.1043930E+01  0.7957747E-01            NaN
         13   -1    0    0    0    0  0.00000000000E+00  0.00000000000E+00  0.74505805969E-08  0.10566000000E+00  0.10566000000E+00 0.  1.
     999900   -1    0    0    0    0 -0.00000000000E+00 -0.00000000000E+00 -0.74505805969E-08  0.93827000000E+00  0.93827000000E+00 0.  1.
     999902    2    1    2    0    0  0.24029942641E-01 -0.16499634097E-02 -0.64781610300E-02  0.10189875243E+01  0.10186822113E+01 0.  0.
     999903    2    3    3    0    0  0.57886975934E-01  0.10242073542E+00 -0.56691257144E-01  0.13078801741E+00  0.71202412427E-02 0.  0.
         14    1    1    2    0    0 -0.24029942641E-01  0.16499634097E-02  0.64781610300E-02  0.24942475677E-01  0.00000000000E+00 0.  1.
     999901    1    3    3    0    0 -0.33857033293E-01 -0.10407069883E+00  0.50213096114E-01  0.88819950691E+00  0.88000000000E+00 0. -1.
        -11    1    4    4    0    0  0.14225647195E-01  0.19732956963E-01 -0.10672988541E-01  0.26569389041E-01  0.51100000000E-03 0. -1.
         11    1    4    4    0    0  0.43661328739E-01  0.82687778454E-01 -0.46018268604E-01  0.10421862837E+00  0.51100000000E-03 0.  1.
</event>
<event>
 8    1  0.1090774E+005  0.1043930E+01  0.7957747E-01            NaN
         13   -1    0    0    0    0  0.00000000000E+00  0.00000000000E+00  0.74505805969E-08  0.10566000000E+00  0.10566000000E+00 0. -1.
     999900   -1    0    0    0    0 -0.00000000000E+00 -0.00000000000E+00 -0.74505805969E-08  0.93827000000E+00  0.93827000000E+00 0. -1.
     999902    2    1    2    0    0  0.67846457957E-02  0.11428235622E-02  0.23653222246E-01  0.10192964378E+01  0.10189987319E+01 0.  0.
     999903    2    3    3    0    0 -0.36352480520E-01 -0.72055275678E-01 -0.96125645757E-01  0.12712731110E+00  0.20192767603E-01 0.  0.
         14    1    1    2    0    0 -0.67846457957E-02 -0.11428235622E-02 -0.23653222246E-01  0.24633562205E-01  0.00000000000E+00 0.  1.
     999901    1    3    3    0    0  0.43137126316E-01  0.73198099240E-01  0.11977886800E+00  0.89216912669E+00  0.88000000000E+00 0.  1.
        -11    1    4    4    0    0 -0.20892065558E-02 -0.21945117241E-01 -0.31610656224E-01  0.38541505713E-01  0.51100000000E-03 0.  1.
         11    1    4    4    0    0 -0.34263273964E-01 -0.50110158437E-01 -0.64514989533E-01  0.88585805391E-01  0.51100000000E-03 0. -1.
</event>
<event>
 8    1  0.1090774E+005  0.1043930E+01  0.7957747E-01            NaN
         13   -1    0    0    0    0  0.00000000000E+00  0.00000000000E+00  0.74505805969E-08  0.10566000000E+00  0.10566000000E+00 0.  1.
     999900   -1    0    0    0    0 -0.00000000000E+00 -0.00000000000E+00 -0.74505805969E-08  0.93827000000E+00  0.93827000000E+00 0. -1.
     999902    2    1    2    0    0 -0.15266443294E-02 -0.20681377911E-01  0.12866462175E-01  0.10195251668E+01  0.10192330302E+01 0.  0.
     999903    2    3    3    0    0  0.11241112347E-01 -0.11792762426E+00 -0.49188426681E-01  0.13190438218E+00  0.30756747995E-01 0.  0.
         14    1    1    2    0    0  0.15266443294E-02  0.20681377911E-01 -0.12866462175E-01  0.24404833212E-01  0.00000000000E+00 0. -1.
     999901    1    3    3    0    0 -0.12767756676E-01  0.97246246353E-01  0.62054888856E-01  0.88762078461E+00  0.88000000000E+00 0.  1.
        -11    1    4    4    0    0  0.66078471760E-02 -0.44473251926E-01 -0.34921018212E-01  0.56932173813E-01  0.51100000000E-03 0.  1.
         11    1    4    4    0    0  0.46332651705E-02 -0.73454372338E-01 -0.14267408469E-01  0.74972208365E-01  0.51100000000E-03 0. -1.
</event>
<event>
 8    1  0.1090774E+005  0.1043930E+01  0.7957747E-01            NaN
         13   -1    0    0    0    0  0.00000000000E+00  0.00000000000E+00  0.74505805969E-08  0.10566000000E+00  0.10566000000E+00 0.  1.
     999900   -1    0    0    0    0 -0.00000000000E+00 -0.00000000000E+00 -0.74505805969E-08  0.93827000000E+00  0.93827000000E+00 0.  1.
     999902    2    1    2    0    0 -0.17327237060E-01  0.15759141324E-02  0.16409101045E-01  0.10200139960E+01  0.10197335813E+01 0.  0.
     999903    2    3    3    0    0  0.12459042989E+00  0.18012382307E-01  0.15429807379E-01  0.12849184784E+00  0.20612007856E-01 0.  0.
         14    1    1    2    0    0  0.17327237060E-01 -0.15759141324E-02 -0.16409101045E-01  0.23916003985E-01  0.00000000000E+00 0. -1.
     999901    1    3    3    0    0 -0.14191766695E+00 -0.16436468175E-01  0.97929366642E-03  0.89152214818E+00  0.88000000000E+00 0.  1.
        -11    1    4    4    0    0  0.86948166322E-01  0.71751747026E-02  0.26501185133E-02  0.87285457024E-01  0.51100000000E-03 0.  1.
         11    1    4    4    0    0  0.37642263568E-01  0.10837207605E-01  0.12779688866E-01  0.41206390811E-01  0.51100000000E-03 0. -1.
</event>
<event>
 8    1  0.1090774E+005  0.1043930E+01  0.7957747E-01            NaN
         13   -1    0    0    0    0  0.00000000000E+00  0.00000000000E+00  0.74505805969E-08  0.10566000000E+00  0.10566000000E+00 0. -1.
     999900   -1    0    0    0    0 -0.00000000000E+00 -0.00000000000E+00 -0.74505805969E-08  0.93827000000E+00  0.93827000000E+00 0. -1.
     999902    2    1    2    0    0  0.14794708034E-02 -0.23994512178E-01  0.74875725031E-02  0.10187508580E+01  0.10184396504E+01 0.  0.
     999903    2    3    3    0    0  0.40976170919E-01 -0.12398781078E+00  0.26486551979E-02  0.13219456303E+00  0.20404982593E-01 0.  0.
         14    1    1    2    0    0 -0.14794708034E-02  0.23994512178E-01 -0.74875725031E-02  0.25179141973E-01  0.00000000000E+00 0.  1.
     999901    1    3    3    0    0 -0.39496700116E-01  0.99993298600E-01  0.48389173052E-02  0.88655629500E+00  0.88000000000E+00 0.  1.
        -11    1    4    4    0    0  0.13580055370E-01 -0.69592416256E-01  0.62456832256E-02  0.71181401954E-01  0.51100000000E-03 0.  1.
         11    1    4    4    0    0  0.27396115549E-01 -0.54395394522E-01 -0.35970280277E-02  0.61013161072E-01  0.51100000000E-03 0. -1.
</event>
<event>
 8    1  0.1090774E+005  0.1043930E+01  0.7957747E-01            NaN
         13   -1    0    0    0    0  0.00000000000E+00  0.00000000000E+00  0.74505805969E-08  0.10566000000E+00  0.10566000000E+00 0.  1.
     999900   -1    0    0    0    0 -0.00000000000E+00 -0.00000000000E+00 -0.74505805969E-08  0.93827000000E+00  0.93827000000E+00 0.  1.
     999902    2    1    2    0    0 -0.19532873898E-01 -0.59615892636E-02  0.12109047790E-01  0.10201875749E+01  0.10199112635E+01 0.  0.
     999903    2    3    3    0    0 -0.49965709922E-02  0.12758302794E+00  0.14437283893E-01  0.12999046780E+00  0.19664480938E-01 0.  0.
         14    1    1    2    0    0  0.19532873898E-01  0.59615892636E-02 -0.12109047790E-01  0.23742425058E-01  0.00000000000E+00 0. -1.
     999901    1    3    3    0    0 -0.14536302905E-01 -0.13354461721E+00 -0.23282361037E-02  0.89019710715E+00  0.88000000000E+00 0.  1.
        -11    1    4    4    0    0  0.61602051804E-02  0.47517206519E-01  0.27539841775E-03  0.47918368175E-01  0.51100000000E-03 0. -1.
         11    1    4    4    0    0 -0.11156776173E-01  0.80065821425E-01  0.14161885476E-01  0.82072099622E-01  0.51100000000E-03 0.  1.
</event>
<event>
 8    1  0.1090774E+005  0.1043930E+01  0.7957747E-01            NaN
         13   -1    0    0    0    0  0.00000000000E+00  0.00000000000E+00  0.74505805969E-08  0.10566000000E+00  0.10566000000E+00 0. -1.
     999900   -1    0    0    0    0 -0.00000000000E+00 -0.00000000000E+00 -0.74505805969E-08  0.93827000000E+00  0.93827000000E+00 0.  1.
     999902    2    1    2    0    0 -0.45197368980E-03  0.23449191866E-01  0.14209482870E-02  0.10204334476E+01  0.10201628954E+01 0.  0.
     999903    2    3    3    0    0  0.97579826808E-02 -0.87042904332E-01 -0.91986106175E-01  0.12856034883E+00  0.19865400622E-01 0.  0.
         14    1    1    2    0    0  0.45197368980E-03 -0.23449191866E-01 -0.14209482870E-02  0.23496552373E-01  0.00000000000E+00 0.  1.
     999901    1    3    3    0    0 -0.10209956371E-01  0.11049209620E+00  0.93407054462E-01  0.89187309880E+00  0.88000000000E+00 0. -1.
        -11    1    4    4    0    0  0.14825291057E-01 -0.76440021140E-01 -0.76991529745E-01  0.10950261577E+00  0.51100000000E-03 0.  1.
         11    1    4    4    0    0 -0.50673083761E-02 -0.10602883192E-01 -0.14994576430E-01  0.19057733062E-01  0.51100000000E-03 0. -1.
</event>
<event>
 8    1  0.1090774E+005  0.1043930E+01  0.7957747E-01            NaN
         13   -1    0    0    0    0  0.00000000000E+00  0.00000000000E+00  0.74505805969E-08  0.10566000000E+00  0.10566000000E+00 0.  1.
     999900   -1    0    0    0    0 -0.00000000000E+00 -0.00000000000E+00 -0.74505805969E-08  0.93827000000E+00  0.93827000000E+00 0.  1.
     999902    2    1    2    0    0 -0.17830768579E-01 -0.35505516905E-02  0.13348583172E-01  0.10213750139E+01  0.10211259431E+01 0.  0.
     999903    2    3    3    0    0 -0.36008166657E-01  0.10589159997E+00  0.67245708927E-01  0.13277335819E+00  0.24436862836E-01 0.  0.
         14    1    1    2    0    0  0.17830768579E-01  0.35505516905E-02 -0.13348583172E-01  0.22554986104E-01  0.00000000000E+00 0. -1.
     999901    1    3    3    0    0  0.18177398078E-01 -0.10944215166E+00 -0.53897125755E-01  0.88860165571E+00  0.88000000000E+00 0.  1.
        -11    1    4    4    0    0 -0.23842007760E-01  0.60149718080E-01  0.25125668583E-01  0.69411744408E-01  0.51100000000E-03 0.  1.
         11    1    4    4    0    0 -0.12166158897E-01  0.45741881891E-01  0.42120040345E-01  0.63361613781E-01  0.51100000000E-03 0. -1.
</event>
<event>
 8    1  0.1090774E+005  0.1043930E+01  0.7957747E-01            NaN
         13   -1    0    0    0    0  0.00000000000E+00  0.00000000000E+00  0.74505805969E-08  0.10566000000E+00  0.10566000000E+00 0.  1.
     999900   -1    0    0    0    0 -0.00000000000E+00 -0.00000000000E+00 -0.74505805969E-08  0.93827000000E+00  0.93827000000E+00 0. -1.
     999902    2    1    2    0    0 -0.17271242425E-01  0.69118303860E-02  0.14771751814E-01  0.10201755506E+01  0.10198989559E+01 0.  0.
     999903    2    3    3    0    0  0.37459670121E-01  0.12208096316E+00 -0.19454522281E-01  0.13032677707E+00  0.17309013075E-01 0.  0.
         14    1    1    2    0    0  0.17271242425E-01 -0.69118303860E-02 -0.14771751814E-01  0.23754449390E-01  0.00000000000E+00 0. -1.
     999901    1    3    3    0    0 -0.54730912546E-01 -0.11516913277E+00  0.34226274095E-01  0.88984877354E+00  0.88000000000E+00 0. -1.
        -11    1    4    4    0    0  0.10518062271E-01  0.52412057148E-01 -0.14863667542E-01  0.55487323798E-01  0.51100000000E-03 0. -1.
         11    1    4    4    0    0  0.26941607850E-01  0.69668906008E-01 -0.45908547393E-02  0.74839453272E-01  0.51100000000E-03 0.  1.
</event>
<event>
 8    1  0.1090774E+005  0.1043930E+01  0.7957747E-01            NaN
         13   -1    0    0    0    0  0.00000000000E+00  0.00000000000E+00  0.74505805969E-08  0.10566000000E+00  0.10566000000E+00 0.  1.
     999900   -1    0    0    0    0 -0.00000000000E+00 -0.00000000000E+00 -0.74505805969E-08  0.93827000000E+00  0.93827000000E+00 0. -1.
     999902    2    1    2    0    0 -0.12203480607E-01  0.17497355599E-01  0.84800282321E-02  0.10209736660E+01  0.10207155497E+01 0.  0.
     999903    2    3    3    0    0  0.10483059530E+00  0.76267120046E-01  0.28126517637E-02  0.13126417449E+00  0.20402087716E-01 0.  0.
         14    1    1    2    0    0  0.12203480607E-01 -0.17497355599E-01 -0.84800282321E-02  0.22956334000E-01  0.00000000000E+00 0.  1.
     999901    1    3    3    0    0 -0.11703407590E+00 -0.58769764447E-01  0.56673764685E-02  0.88970949151E+00  0.88000000000E+00 0. -1.
        -11    1    4    4    0    0  0.61449631057E-01  0.56804051587E-01  0.19120398941E-02  0.83705880625E-01  0.51100000000E-03 0.  1.
         11    1    4    4    0    0  0.43380964238E-01  0.19463068460E-01  0.90061186959E-03  0.47558293860E-01  0.51100000000E-03 0. -1.
</event>
<event>
 8    1  0.1090774E+005  0.1043930E+01  0.7957747E-01            NaN
         13   -1    0    0    0    0  0.00000000000E+00  0.00000000000E+00  0.74505805969E-08  0.10566000000E+00  0.10566000000E+00 0. -1.
     999900   -1    0    0    0    0 -0.00000000000E+00 -0.00000000000E+00 -0.74505805969E-08  0.93827000000E+00  0.93827000000E+00 0.  1.
     999902    2    1    2    0    0 -0.26174566315E-01 -0.67268502444E-02  0.61686079449E-02  0.10162097879E+01  0.10158316410E+01 0.  0.
     999903    2    3    3    0    0 -0.36516705779E-01  0.11737693437E+00 -0.24780256584E-01  0.12690301212E+00  0.19480730062E-01 0.  0.
         14    1    1    2    0    0  0.26174566315E-01  0.67268502444E-02 -0.61686079449E-02  0.27720212119E-01  0.00000000000E+00 0.  1.
     999901    1    3    3    0    0  0.10342139464E-01 -0.12410378462E+00  0.30948864529E-01  0.88930677576E+00  0.88000000000E+00 0. -1.
        -11    1    4    4    0    0 -0.29640524431E-01  0.64796720426E-01 -0.10888273017E-01  0.72083224656E-01  0.51100000000E-03 0.  1.
         11    1    4    4    0    0 -0.68761813483E-02  0.52580213948E-01 -0.13891983566E-01  0.54819787460E-01  0.51100000000E-03 0. -1.
</event>
<event>
 8    1  0.1090774E+005  0.1043930E+01  0.7957747E-01            NaN
         13   -1    0    0    0    0  0.00000000000E+00  0.00000000000E+00  0.74505805969E-08  0.10566000000E+00  0.10566000000E+00 0.  1.
     999900   -1    0    0    0    0 -0.00000000000E+00 -0.00000000000E+00 -0.74505805969E-08  0.93827000000E+00  0.93827000000E+00 0. -1.
     999902    2    1    2    0    0  0.16692634607E-01  0.11799827056E-01 -0.16548600163E-01  0.10176291229E+01  0.10172891898E+01 0.  0.
     999903    2    3    3    0    0 -0.34151483201E-01  0.14424731496E-01  0.11860947608E+00  0.12585576604E+00  0.19926598922E-01 0.  0.
         14    1    1    2    0    0 -0.16692634607E-01 -0.11799827056E-01  0.16548600163E-01  0.26300877096E-01  0.00000000000E+00 0.  1.
     999901    1    3    3    0    0  0.50844117809E-01 -0.26249044401E-02 -0.13515807625E+00  0.89177335686E+00  0.88000000000E+00 0. -1.
        -11    1    4    4    0    0 -0.58082260001E-02  0.12358352466E-01  0.38112620223E-01  0.40488236640E-01  0.51100000000E-03 0.  1.
         11    1    4    4    0    0 -0.28343257201E-01  0.20663790293E-02  0.80496855861E-01  0.85367529398E-01  0.51100000000E-03 0. -1.
</event>
<event>
 8    1  0.1090774E+005  0.1043930E+01  0.7957747E-01            NaN
         13   -1    0    0    0    0  0.00000000000E+00  0.00000000000E+00  0.74505805969E-08  0.10566000000E+00  0.10566000000E+00 0.  1.
     999900   -1    0    0    0    0 -0.00000000000E+00 -0.00000000000E+00 -0.74505805969E-08  0.93827000000E+00  0.93827000000E+00 0.  1.
     999902    2    1    2    0    0 -0.14922798142E-01 -0.36883631472E-02 -0.19170798624E-01  0.10193573842E+01  0.10190611676E+01 0.  0.
     999903    2    3    3    0    0  0.11609107321E+00  0.48568833780E-01  0.85861185789E-02  0.12769270757E+00  0.19890631961E-01 0.  0.
         14    1    1    2    0    0  0.14922798142E-01  0.36883631472E-02  0.19170798624E-01  0.24572615794E-01  0.00000000000E+00 0.  1.
     999901    1    3    3    0    0 -0.13101387135E+00 -0.52257196927E-01 -0.27756917203E-01  0.89166467664E+00  0.88000000000E+00 0. -1.
        -11    1    4    4    0    0  0.93768378634E-01  0.30741159950E-01  0.40583851372E-02  0.98763654031E-01  0.51100000000E-03 0.  1.
         11    1    4    4    0    0  0.22322694573E-01  0.17827673831E-01  0.45277334418E-02  0.28929053534E-01  0.51100000000E-03 0. -1.
</event>
<event>
 8    1  0.1090774E+005  0.1043930E+01  0.7957747E-01            NaN
         13   -1    0    0    0    0  0.00000000000E+00  0.00000000000E+00  0.74505805969E-08  0.10566000000E+00  0.10566000000E+00 0.  1.
     999900   -1    0    0    0    0 -0.00000000000E+00 -0.00000000000E+00 -0.74505805969E-08  0.93827000000E+00  0.93827000000E+00 0.  1.
     999902    2    1    2    0    0 -0.15175490485E-01  0.11466491010E-01 -0.13993546544E-01  0.10203165447E+01  0.10200432619E+01 0.  0.
     999903    2    3    3    0    0 -0.28022778319E-01  0.12532137819E+00  0.23249088290E-01  0.13210767172E+00  0.20522984334E-01 0.  0.
         14    1    1    2    0    0  0.15175490485E-01 -0.11466491010E-01  0.13993546544E-01  0.23613455326E-01  0.00000000000E+00 0.  1.
     999901    1    3    3    0    0  0.12847287834E-01 -0.11385488718E+00 -0.37242634835E-01  0.88820887295E+00  0.88000000000E+00 0.  1.
        -11    1    4    4    0    0 -0.22386129386E-01  0.59485433819E-01  0.16619123645E-01  0.65697123356E-01  0.51100000000E-03 0.  1.
         11    1    4    4    0    0 -0.56366489332E-02  0.65835944369E-01  0.66299646449E-02  0.66410548367E-01  0.51100000000E-03 0. -1.
</event>
<event>
 8    1  0.1090774E+005  0.1043930E+01  0.7957747E-01            NaN
         13   -1    0    0    0    0  0.00000000000E+00  0.00000000000E+00  0.74505805969E-08  0.10566000000E+00  0.10566000000E+00 0. -1.
     999900   -1    0    0    0    0 -0.00000000000E+00 -0.00000000000E+00 -0.74505805969E-08  0.93827000000E+00  0.93827000000E+00 0.  1.
     999902    2    1    2    0    0 -0.68894155472E-02  0.70063226140E-02 -0.21264217537E-01  0.10205052364E+01  0.10202363540E+01 0.  0.
     999903    2    3    3    0    0  0.79052327668E-01  0.31271483126E-01 -0.99781413942E-01  0.13250763989E+00  0.19358922862E-01 0.  0.
         14    1    1    2    0    0  0.68894155472E-02 -0.70063226140E-02  0.21264217537E-01  0.23424763619E-01  0.00000000000E+00 0. -1.
     999901    1    3    3    0    0 -0.85941743215E-01 -0.24265160512E-01  0.78517196405E-01  0.88799759649E+00  0.88000000000E+00 0. -1.
        -11    1    4    4    0    0  0.25367223665E-01  0.14351081946E-01 -0.22125516223E-01  0.36595753560E-01  0.51100000000E-03 0. -1.
         11    1    4    4    0    0  0.53685104003E-01  0.16920401180E-01 -0.77655897719E-01  0.95911886330E-01  0.51100000000E-03 0.  1.
</event>
<event>
 8    1  0.1090774E+005  0.1043930E+01  0.7957747E-01            NaN
         13   -1    0    0    0    0  0.00000000000E+00  0.00000000000E+00  0.74505805969E-08  0.10566000000E+00  0.10566000000E+00 0.  1.
     999900   -1    0    0    0    0 -0.00000000000E+00 -0.00000000000E+00 -0.74505805969E-08  0.93827000000E+00  0.93827000000E+00 0.  1.
     999902    2    1    2    0    0  0.13588105987E-01  0.51407149570E-02  0.19019540282E-01  0.10199966240E+01  0.10197157969E+01 0.  0.
     999903    2    3    3    0    0 -0.15355628120E-01  0.68063016896E-01  0.11067261184E+00  0.13252986892E+00  0.21151112559E-01 0.  0.
         14    1    1    2    0    0 -0.13588105987E-01 -0.51407149570E-02 -0.19019540282E-01  0.23933376008E-01  0.00000000000E+00 0. -1.
     999901    1    3    3    0    0  0.28943734108E-01 -0.62922301939E-01 -0.91653071555E-01  0.88746675507E+00  0.88000000000E+00 0.  1.
        -11    1    4    4    0    0 -0.15251921495E-01  0.68534463187E-01  0.10200652010E+00  0.12383531410E+00  0.51100000000E-03 0.  1.
         11    1    4    4    0    0 -0.10370662522E-03 -0.47144629088E-03  0.86660917345E-02  0.86945548259E-02  0.51100000000E-03 0. -1.
</event>
<event>
 8    1  0.1090774E+005  0.1043930E+01  0.7957747E-01            NaN
         13   -1    0    0    0    0  0.00000000000E+00  0.00000000000E+00  0.74505805969E-08  0.10566000000E+00  0.10566000000E+00 0. -1.
     999900   -1    0    0    0    0 -0.00000000000E+00 -0.00000000000E+00 -0.74505805969E-08  0.93827000000E+00  0.93827000000E+00 0.  1.
     999902    2    1    2    0    0 -0.21515964829E-02  0.90912006285E-02 -0.21417580979E-01  0.10205635268E+01  0.10202959963E+01 0.  0.
     999903    2    3    3    0    0 -0.11099220659E+00 -0.16409750104E-01  0.61684720595E-01  0.12960754052E+00  0.20113676505E-01 0.  0.
         14    1    1    2    0    0  0.21515964829E-02 -0.90912006285E-02  0.21417580979E-01  0.23366473232E-01  0.00000000000E+00 0. -1.
     999901    1    3    3    0    0  0.10884061011E+00  0.25500950732E-01 -0.83102301575E-01  0.89095598624E+00  0.88000000000E+00 0.  1.
        -11    1    4    4    0    0 -0.47792835146E-01 -0.36602235408E-02  0.37058517008E-01  0.60589992008E-01  0.51100000000E-03 0. -1.
         11    1    4    4    0    0 -0.63199371448E-01 -0.12749526563E-01  0.24626203588E-01  0.69017548516E-01  0.51100000000E-03 0.  1.
</event>
<event>
 8    1  0.1090774E+005  0.1043930E+01  0.7957747E-01            NaN
         13   -1    0    0    0    0  0.00000000000E+00  0.00000000000E+00  0.74505805969E-08  0.10566000000E+00  0.10566000000E+00 0. -1.
     999900   -1    0    0    0    0 -0.00000000000E+00 -0.00000000000E+00 -0.74505805969E-08  0.93827000000E+00  0.93827000000E+00 0. -1.
     999902    2    1    2    0    0  0.22471440651E-01  0.64659882839E-02 -0.49534567267E-02  0.10200278791E+01  0.10197477937E+01 0.  0.
     999903    2    3    3    0    0  0.76132122895E-01  0.71765668606E-01 -0.79439072321E-01  0.13284603529E+00  0.19776034871E-01 0.  0.
         14    1    1    2    0    0 -0.22471440651E-01 -0.64659882839E-02  0.49534567267E-02  0.23902120888E-01  0.00000000000E+00 0. -1.
     999901    1    3    3    0    0 -0.53660682244E-01 -0.65299680322E-01  0.74485615594E-01  0.88718184382E+00  0.88000000000E+00 0.  1.
        -11    1    4    4    0    0  0.57857573173E-01  0.64842407057E-01 -0.65955095980E-01  0.10909799418E+00  0.51100000000E-03 0.  1.
         11    1    4    4    0    0  0.18274549721E-01  0.69232615493E-02 -0.13483976341E-01  0.23748041119E-01  0.51100000000E-03 0. -1.
</event>
<event>
 8    1  0.1090774E+005  0.1043930E+01  0.7957747E-01            NaN
         13   -1    0    0    0    0  0.00000000000E+00  0.00000000000E+00  0.74505805969E-08  0.10566000000E+00  0.10566000000E+00 0. -1.
     999900   -1    0    0    0    0 -0.00000000000E+00 -0.00000000000E+00 -0.74505805969E-08  0.93827000000E+00  0.93827000000E+00 0. -1.
     999902    2    1    2    0    0  0.16730689023E-01 -0.23712339862E-02  0.17076679419E-01  0.10199060185E+01  0.10196230357E+01 0.  0.
     999903    2    3    3    0    0  0.94168310312E-01 -0.51389844974E-01 -0.71941863866E-01  0.13067955105E+00  0.19822372533E-01 0.  0.
         14    1    1    2    0    0 -0.16730689023E-01  0.23712339862E-02 -0.17076679419E-01  0.24023981472E-01  0.00000000000E+00 0. -1.
     999901    1    3    3    0    0 -0.77437621289E-01  0.49018610987E-01  0.89018543285E-01  0.88922646748E+00  0.88000000000E+00 0.  1.
        -11    1    4    4    0    0  0.52664948677E-01 -0.38454474591E-01 -0.37588160972E-01  0.75269345695E-01  0.51100000000E-03 0. -1.
         11    1    4    4    0    0  0.41503361635E-01 -0.12935370383E-01 -0.34353702894E-01  0.55410205355E-01  0.51100000000E-03 0.  1.
</event>
<event>
 8    1  0.1090774E+005  0.1043930E+01  0.7957747E-01            NaN
         13   -1    0    0    0    0  0.00000000000E+00  0.00000000000E+00  0.74505805969E-08  0.10566000000E+00  0.10566000000E+00 0.  1.
     999900   -1    0    0    0    0 -0.00000000000E+00 -0.00000000000E+00 -0.74505805969E-08  0.93827000000E+00  0.93827000000E+00 0. -1.
     999902    2    1    2    0    0 -0.16814535519E-01  0.36529914688E-03 -0.19058931634E-01  0.10185114060E+01  0.10181941756E+01 0.  0.
     999903    2    3    3    0    0  0.12436078860E+00 -0.17659104557E-01 -0.45280303685E-02  0.12695854809E+00  0.17903076808E-01 0.  0.
         14    1    1    2    0    0  0.16814535519E-01 -0.36529914688E-03  0.19058931634E-01  0.25418594045E-01  0.00000000000E+00 0.  1.
     999901    1    3    3    0    0 -0.14117532412E+00  0.18024403704E-01 -0.14530901265E-01  0.89155285786E+00  0.88000000000E+00 0.  1.
        -11    1    4    4    0    0  0.72999106651E-01 -0.48536227806E-02  0.43123060722E-02  0.73289046458E-01  0.51100000000E-03 0.  1.
         11    1    4    4    0    0  0.51361681952E-01 -0.12805481777E-01 -0.88403364406E-02  0.53669501636E-01  0.51100000000E-03 0. -1.
</event>
<event>
 8    1  0.1090774E+005  0.1043930E+01  0.7957747E-01            NaN
         13   -1    0    0    0    0  0.00000000000E+00  0.00000000000E+00  0.74505805969E-08  0.10566000000E+00  0.10566000000E+00 0. -1.
     999900   -1    0    0    0    0 -0.00000000000E+00 -0.00000000000E+00 -0.74505805969E-08  0.93827000000E+00  0.93827000000E+00 0. -1.
     999902    2    1    2    0    0 -0.23586104936E-01 -0.19934081470E-02 -0.15206939731E-01  0.10157958741E+01  0.10154061891E+01 0.  0.
     999903    2    3    3    0    0 -0.41387325410E-01 -0.82251235595E-01 -0.88007640392E-01  0.12897112012E+00  0.20249162868E-01 0.  0.
         14    1    1    2    0    0  0.23586104936E-01  0.19934081470E-02  0.15206939731E-01  0.28134125862E-01  0.00000000000E+00 0. -1.
     999901    1    3    3    0    0  0.17801220474E-01  0.80257827448E-01  0.72800700662E-01  0.88682475402E+00  0.88000000000E+00 0.  1.
        -11    1    4    4    0    0 -0.14945704845E-01 -0.48112675944E-01 -0.55215148555E-01  0.74747424242E-01  0.51100000000E-03 0. -1.
         11    1    4    4    0    0 -0.26441620564E-01 -0.34138559651E-01 -0.32792491837E-01  0.54223695881E-01  0.51100000000E-03 0.  1.
</event>
<event>
 8    1  0.1090774E+005  0.1043930E+01  0.7957747E-01            NaN
         13   -1    0    0    0    0  0.00000000000E+00  0.00000000000E+00  0.74505805969E-08  0.10566000000E+00  0.10566000000E+00 0. -1.
     999900   -1    0    0    0    0 -0.00000000000E+00 -0.00000000000E+00 -0.74505805969E-08  0.93827000000E+00  0.93827000000E+00 0.  1.
     999902    2    1    2    0    0  0.14010848004E-01 -0.14684152865E-01  0.25599478728E-01  0.10112610313E+01  0.10107332051E+01 0.  0.
     999903    2    3    3    0    0 -0.51348108288E-01 -0.32544350037E-01 -0.10103667855E+00  0.11961788732E+00  0.20106357442E-01 0.  0.
         14    1    1    2    0    0 -0.14010848004E-01  0.14684152865E-01 -0.25599478728E-01  0.32668968737E-01  0.00000000000E+00 0.  1.
     999901    1    3    3    0    0  0.65358956292E-01  0.17860197172E-01  0.12663615728E+00  0.89164314394E+00  0.88000000000E+00 0. -1.
        -11    1    4    4    0    0 -0.33407613400E-01 -0.11869085168E-01 -0.68185500418E-01  0.76853545163E-01  0.51100000000E-03 0.  1.
         11    1    4    4    0    0 -0.17940494888E-01 -0.20675264869E-01 -0.32851178135E-01  0.42764342157E-01  0.51100000000E-03 0. -1.
</event>
<event>
 8    1  0.1090774E+005  0.1043930E+01  0.7957747E-01            NaN
         13   -1    0    0    0    0  0.00000000000E+00  0.00000000000E+00  0.74505805969E-08  0.10566000000E+00  0.10566000000E+00 0. -1.
     999900   -1    0    0    0    0 -0.00000000000E+00 -0.00000000000E+00 -0.74505805969E-08  0.93827000000E+00  0.93827000000E+00 0. -1.
     999902    2    1    2    0    0  0.41885610964E-02 -0.20820229432E-01 -0.10171328083E-01  0.10203825604E+01  0.10201108212E+01 0.  0.
     999903    2    3    3    0    0  0.21901579217E-01  0.60844976448E-01  0.10920568749E+00  0.12839947270E+00  0.19461553811E-01 0.  0.
         14    1    1    2    0    0 -0.41885610964E-02  0.20820229432E-01  0.10171328083E-01  0.23547439620E-01  0.00000000000E+00 0.  1.
     999901    1    3    3    0    0 -0.17713018121E-01 -0.81665205881E-01 -0.11937701558E+00  0.89198308768E+00  0.88000000000E+00 0. -1.
        -11    1    4    4    0    0  0.11114505747E-01  0.36912994931E-01  0.81889182321E-01  0.90510776899E-01  0.51100000000E-03 0.  1.
         11    1    4    4    0    0  0.10787073470E-01  0.23931981518E-01  0.27316505174E-01  0.37888695799E-01  0.51100000000E-03 0. -1.
</event>
<event>
 8    1  0.1090774E+005  0.1043930E+01  0.7957747E-01            NaN
         13   -1    0    0    0    0  0.00000000000E+00  0.00000000000E+00  0.74505805969E-08  0.10566000000E+00  0.10566000000E+00 0. -1.
     999900   -1    0    0    0    0 -0.00000000000E+00 -0.00000000000E+00 -0.74505805969E-08  0.93827000000E+00  0.93827000000E+00 0.  1.
     999902    2    1    2    0    0  0.15246441407E-01 -0.44106990175E-02  0.18403559875E-01  0.10196277520E+01  0.10193380957E+01 0.  0.
     999903    2    3    3    0    0 -0.77936691256E-01  0.62553023423E-01  0.80846526730E-01  0.12998380051E+00  0.19303339770E-01 0.  0.
         14    1    1    2    0    0 -0.15246441407E-01  0.44106990175E-02 -0.18403559875E-01  0.24302247992E-01  0.00000000000E+00 0.  1.
     999901    1    3    3    0    0  0.93183132663E-01 -0.66963722440E-01 -0.62442966855E-01  0.88964395150E+00  0.88000000000E+00 0.  1.
        -11    1    4    4    0    0 -0.29840528761E-01  0.20314489528E-01  0.18254228219E-01  0.40455081391E-01  0.51100000000E-03 0. -1.
         11    1    4    4    0    0 -0.48096162495E-01  0.42238533895E-01  0.62592298511E-01  0.89528719114E-01  0.51100000000E-03 0.  1.
</event>
<event>
 8    1  0.1090774E+005  0.1043930E+01  0.7957747E-01            NaN
         13   -1    0    0    0    0  0.00000000000E+00  0.00000000000E+00  0.74505805969E-08  0.10566000000E+00  0.10566000000E+00 0.  1.
     999900   -1    0    0    0    0 -0.00000000000E+00 -0.00000000000E+00 -0.74505805969E-08  0.93827000000E+00  0.93827000000E+00 0.  1.
     999902    2    1    2    0    0  0.18721524941E-01  0.55278949841E-02  0.12547971539E-01  0.10207242958E+01  0.10204604761E+01 0.  0.
     999903    2    3    3    0    0 -0.10096568560E+00  0.75331323211E-01 -0.20705568521E-01  0.12926294221E+00  0.20280772582E-01 0.  0.
         14    1    1    2    0    0 -0.18721524941E-01 -0.55278949841E-02 -0.12547971539E-01  0.23205704230E-01  0.00000000000E+00 0.  1.
     999901    1    3    3    0    0  0.11968721054E+00 -0.69803428227E-01  0.33253540059E-01  0.89146135356E+00  0.88000000000E+00 0. -1.
        -11    1    4    4    0    0 -0.52521574270E-01  0.51379428593E-01 -0.14106912586E-01  0.74817294458E-01  0.51100000000E-03 0.  1.
         11    1    4    4    0    0 -0.48444111329E-01  0.23951894618E-01 -0.65986559347E-02  0.54445647755E-01  0.51100000000E-03 0. -1.
</event>
<event>
 8    1  0.1090774E+005  0.1043930E+01  0.7957747E-01            NaN
         13   -1    0    0    0    0  0.00000000000E+00  0.00000000000E+00  0.74505805969E-08  0.10566000000E+00  0.10566000000E+00 0. -1.
     999900   -1    0    0    0    0 -0.00000000000E+00 -0.00000000000E+00 -0.74505805969E-08  0.93827000000E+00  0.93827000000E+00 0.  1.
     999902    2    1    2    0    0  0.43365524036E-02 -0.18058404138E-01  0.14108935203E-01  0.10206067562E+01  0.10203402262E+01 0.  0.
     999903    2    3    3    0    0  0.35524606412E-01  0.13724566254E-01  0.12555114565E+00  0.13246137502E+00  0.18236346066E-01 0.  0.
         14    1    1    2    0    0 -0.43365524036E-02  0.18058404138E-01 -0.14108935203E-01  0.23323243756E-01  0.00000000000E+00 0.  1.
     999901    1    3    3    0    0 -0.31188054009E-01 -0.31782970392E-01 -0.11144221045E+00  0.88814538122E+00  0.88000000000E+00 0.  1.
        -11    1    4    4    0    0  0.22115414501E-01  0.15817349406E-01  0.66036703770E-01  0.71416997042E-01  0.51100000000E-03 0. -1.
         11    1    4    4    0    0  0.13409191912E-01 -0.20927831515E-02  0.59514441883E-01  0.61044377977E-01  0.51100000000E-03 0.  1.
</event>
<event>
 8    1  0.1090774E+005  0.1043930E+01  0.7957747E-01            NaN
         13   -1    0    0    0    0  0.00000000000E+00  0.00000000000E+00  0.74505805969E-08  0.10566000000E+00  0.10566000000E+00 0.  1.
     999900   -1    0    0    0    0 -0.00000000000E+00 -0.00000000000E+00 -0.74505805969E-08  0.93827000000E+00  0.93827000000E+00 0. -1.
     999902    2    1    2    0    0  0.22078092748E-02 -0.25592997929E-01 -0.90688612315E-02  0.10166881166E+01  0.10163230817E+01 0.  0.
     999903    2    3    3    0    0 -0.56163023726E-01 -0.69867854634E-01  0.89293821815E-01  0.12818227283E+00  0.20530613902E-01 0.  0.
         14    1    1    2    0    0 -0.22078092748E-02  0.25592997929E-01  0.90688612315E-02  0.27241883357E-01  0.00000000000E+00 0.  1.
     999901    1    3    3    0    0  0.58370833000E-01  0.44274856705E-01 -0.98362683047E-01  0.88850584382E+00  0.88000000000E+00 0. -1.
        -11    1    4    4    0    0 -0.46741855901E-01 -0.43112159382E-01  0.61279333114E-01  0.88311251647E-01  0.51100000000E-03 0.  1.
         11    1    4    4    0    0 -0.94211678248E-02 -0.26755695252E-01  0.28014488701E-01  0.39871021178E-01  0.51100000000E-03 0. -1.
</event>
<event>
 8    1  0.1090774E+005  0.1043930E+01  0.7957747E-01            NaN
         13   -1    0    0    0    0  0.00000000000E+00  0.00000000000E+00  0.74505805969E-08  0.10566000000E+00  0.10566000000E+00 0. -1.
     999900   -1    0    0    0    0 -0.00000000000E+00 -0.00000000000E+00 -0.74505805969E-08  0.93827000000E+00  0.93827000000E+00 0.  1.
     999902    2    1    2    0    0 -0.24421234013E-02  0.91082715325E-02  0.16986567318E-01  0.10245014631E+01  0.10243172262E+01 0.  0.
     999903    2    3    3    0    0 -0.22551740821E-01  0.13203307939E+00  0.90948943824E-02  0.13569485668E+00  0.19724653624E-01 0.  0.
         14    1    1    2    0    0  0.24421234013E-02 -0.91082715325E-02 -0.16986567318E-01  0.19428536905E-01  0.00000000000E+00 0.  1.
     999901    1    3    3    0    0  0.20109617419E-01 -0.12292480785E+00  0.78916729359E-02  0.88880660641E+00  0.88000000000E+00 0. -1.
        -11    1    4    4    0    0 -0.15837235667E-01  0.66404542378E-01  0.13438222532E-01  0.69578935231E-01  0.51100000000E-03 0. -1.
         11    1    4    4    0    0 -0.67145051535E-02  0.65628537007E-01 -0.43433281500E-02  0.66115921453E-01  0.51100000000E-03 0.  1.
</event>
<event>
 8    1  0.1090774E+005  0.1043930E+01  0.7957747E-01            NaN
         13   -1    0    0    0    0  0.00000000000E+00  0.00000000000E+00  0.74505805969E-08  0.10566000000E+00  0.10566000000E+00 0. -1.
     999900   -1    0    0    0    0 -0.00000000000E+00 -0.00000000000E+00 -0.74505805969E-08  0.93827000000E+00  0.93827000000E+00 0.  1.
     999902    2    1    2    0    0  0.11488612612E-01 -0.16822099410E-01 -0.12586635323E-01  0.10199843399E+01  0.10197032211E+01 0.  0.
     999903    2    3    3    0    0 -0.12543562396E+00  0.16375456950E-01 -0.16164342804E-01  0.12876993008E+00  0.17836971844E-01 0.  0.
         14    1    1    2    0    0 -0.11488612612E-01  0.16822099410E-01  0.12586635323E-01  0.23945660088E-01  0.00000000000E+00 0. -1.
     999901    1    3    3    0    0  0.13692423657E+00 -0.33197556360E-01  0.35777074809E-02  0.89121440984E+00  0.88000000000E+00 0. -1.
        -11    1    4    4    0    0 -0.78071875097E-01  0.16722140268E-01 -0.15843788971E-01  0.81401071407E-01  0.51100000000E-03 0.  1.
         11    1    4    4    0    0 -0.47363748864E-01 -0.34668331805E-03 -0.32055383305E-03  0.47368858668E-01  0.51100000000E-03 0. -1.
</event>
<event>
 8    1  0.1090774E+005  0.1043930E+01  0.7957747E-01            NaN
         13   -1    0    0    0    0  0.00000000000E+00  0.00000000000E+00  0.74505805969E-08  0.10566000000E+00  0.10566000000E+00 0.  1.
     999900   -1    0    0    0    0 -0.00000000000E+00 -0.00000000000E+00 -0.74505805969E-08  0.93827000000E+00  0.93827000000E+00 0. -1.
     999902    2    1    2    0    0  0.71835056269E-03 -0.21551123539E-01 -0.71770585823E-02  0.10212038670E+01  0.10209509590E+01 0.  0.
     999903    2    3    3    0    0 -0.53769844721E-01  0.84173637572E-01  0.79079803423E-01  0.12902286806E+00  0.20417828259E-01 0.  0.
         14    1    1    2    0    0 -0.71835056269E-03  0.21551123539E-01  0.71770585823E-02  0.22726133045E-01  0.00000000000E+00 0.  1.
     999901    1    3    3    0    0  0.54488195284E-01 -0.10572476111E+00 -0.86256862005E-01  0.89218099889E+00  0.88000000000E+00 0. -1.
        -11    1    4    4    0    0 -0.11769339955E-01  0.36318987735E-01  0.32311204851E-01  0.50018609667E-01  0.51100000000E-03 0. -1.
         11    1    4    4    0    0 -0.42000504766E-01  0.47854649836E-01  0.46768598572E-01  0.79004258398E-01  0.51100000000E-03 0.  1.
</event>
<event>
 8    1  0.1090774E+005  0.1043930E+01  0.7957747E-01            NaN
         13   -1    0    0    0    0  0.00000000000E+00  0.00000000000E+00  0.74505805969E-08  0.10566000000E+00  0.10566000000E+00 0. -1.
     999900   -1    0    0    0    0 -0.00000000000E+00 -0.00000000000E+00 -0.74505805969E-08  0.93827000000E+00  0.93827000000E+00 0. -1.
     999902    2    1    2    0    0  0.14620991931E-02 -0.92867580226E-02  0.22163901605E-01  0.10198546985E+01  0.10195704909E+01 0.  0.
     999903    2    3    3    0    0  0.16383599703E-01  0.12647527996E+00  0.64710804314E-02  0.12918065779E+00  0.19528151117E-01 0.  0.
         14    1    1    2    0    0 -0.14620991931E-02  0.92867580226E-02 -0.22163901605E-01  0.24075301514E-01  0.00000000000E+00 0.  1.
     999901    1    3    3    0    0 -0.14921500510E-01 -0.13576203798E+00  0.15692821174E-01  0.89067404070E+00  0.88000000000E+00 0.  1.
        -11    1    4    4    0    0  0.54619451948E-02  0.10200442005E+00  0.34692758028E-02  0.10221072131E+00  0.51100000000E-03 0.  1.
         11    1    4    4    0    0  0.10921654509E-01  0.24470859904E-01  0.30018046286E-02  0.26969936479E-01  0.51100000000E-03 0. -1.
</event>
<event>
 8    1  0.1090774E+005  0.1043930E+01  0.7957747E-01            NaN
         13   -1    0    0    0    0  0.00000000000E+00  0.00000000000E+00  0.74505805969E-08  0.10566000000E+00  0.10566000000E+00 0.  1.
     999900   -1    0    0    0    0 -0.00000000000E+00 -0.00000000000E+00 -0.74505805969E-08  0.93827000000E+00  0.93827000000E+00 0.  1.
     999902    2    1    2    0    0 -0.94587886883E-02  0.18114590851E-01 -0.10179161226E-01  0.10210997042E+01  0.10208444462E+01 0.  0.
     999903    2    3    3    0    0 -0.10702452377E+00  0.68690596889E-01  0.34149804383E-01  0.13315710340E+00  0.19797935665E-01 0.  0.
         14    1    1    2    0    0  0.94587886883E-02 -0.18114590851E-01  0.10179161226E-01  0.22830295846E-01  0.00000000000E+00 0. -1.
     999901    1    3    3    0    0  0.97565735080E-01 -0.50576006038E-01 -0.44328965609E-01  0.88794260076E+00  0.88000000000E+00 0.  1.
        -11    1    4    4    0    0 -0.26682368384E-01  0.13562300843E-01  0.16338408128E-01  0.34104097817E-01  0.51100000000E-03 0. -1.
         11    1    4    4    0    0 -0.80342155384E-01  0.55128296046E-01  0.17811396255E-01  0.99053005579E-01  0.51100000000E-03 0.  1.
</event>
<event>
 8    1  0.1090774E+005  0.1043930E+01  0.7957747E-01            NaN
         13   -1    0    0    0    0  0.00000000000E+00  0.00000000000E+00  0.74505805969E-08  0.10566000000E+00  0.10566000000E+00 0.  1.
     999900   -1    0    0    0    0 -0.00000000000E+00 -0.00000000000E+00 -0.74505805969E-08  0.93827000000E+00  0.93827000000E+00 0. -1.
     999902    2    1    2    0    0  0.15507180210E-01  0.14673840437E-01 -0.11281769355E-01  0.10197831047E+01  0.10194971840E+01 0.  0.
     999903    2    3    3    0    0 -0.89486040752E-01  0.45745652581E-01 -0.80441724498E-01  0.13030453087E+00  0.20198601605E-01 0.  0.
         14    1    1    2    0    0 -0.15507180210E-01 -0.14673840437E-01  0.11281769355E-01  0.24146895267E-01  0.00000000000E+00 0. -1.
     999901    1    3    3    0    0  0.10499322096E+00 -0.31071812144E-01  0.69159955143E-01  0.88947857386E+00  0.88000000000E+00 0.  1.
        -11    1    4    4    0    0 -0.67566671296E-01  0.25608439825E-01 -0.51068583365E-01  0.88483380294E-01  0.51100000000E-03 0.  1.
         11    1    4    4    0    0 -0.21919369456E-01  0.20137212756E-01 -0.29373141132E-01  0.41821150581E-01  0.51100000000E-03 0. -1.
</event>
<event>
 8    1  0.1090774E+005  0.1043930E+01  0.7957747E-01            NaN
         13   -1    0    0    0    0  0.00000000000E+00  0.00000000000E+00  0.74505805969E-08  0.10566000000E+00  0.10566000000E+00 0. -1.
     999900   -1    0    0    0    0 -0.00000000000E+00 -0.00000000000E+00 -0.74505805969E-08  0.93827000000E+00  0.93827000000E+00 0.  1.
     999902    2    1    2    0    0  0.18203095149E-01 -0.15392857280E-01 -0.21859560522E-02  0.10199910958E+01  0.10197101375E+01 0.  0.
     999903    2    3    3    0    0  0.73275527979E-01 -0.51149840750E-01  0.95360552042E-01  0.13216968590E+00  0.19737825986E-01 0.  0.
         14    1    1    2    0    0 -0.18203095149E-01  0.15392857280E-01  0.21859560522E-02  0.23938904154E-01  0.00000000000E+00 0. -1.
     999901    1    3    3    0    0 -0.55072432830E-01  0.35756983470E-01 -0.97546508094E-01  0.88782140995E+00  0.88000000000E+00 0.  1.
        -11    1    4    4    0    0  0.51777555803E-01 -0.28231825481E-01  0.71656152179E-01  0.92805261279E-01  0.51100000000E-03 0. -1.
         11    1    4    4    0    0  0.21497972175E-01 -0.22918015270E-01  0.23704399863E-01  0.39364424617E-01  0.51100000000E-03 0.  1.
</event>
<event>
 8    1  0.1090774E+005  0.1043930E+01  0.7957747E-01            NaN
         13   -1    0    0    0    0  0.00000000000E+00  0.00000000000E+00  0.74505805969E-08  0.10566000000E+00  0.10566000000E+00 0. -1.
     999900   -1    0    0    0    0 -0.00000000000E+00 -0.00000000000E+00 -0.74505805969E-08  0.93827000000E+00  0.93827000000E+00 0. -1.
     999902    2    1    2    0    0  0.99921917105E-02 -0.18354062103E-01  0.11231391738E-01  0.10202053366E+01  0.10199294433E+01 0.  0.
     999903    2    3    3    0    0  0.44780302043E-01  0.78085089640E-02 -0.11948437100E+00  0.12948579416E+00  0.20586590569E-01 0.  0.
         14    1    1    2    0    0 -0.99921917105E-02  0.18354062103E-01 -0.11231391738E-01  0.23724663353E-01  0.00000000000E+00 0.  1.
     999901    1    3    3    0    0 -0.34788110333E-01 -0.26162571067E-01  0.13071576274E+00  0.89071954249E+00  0.88000000000E+00 0.  1.
        -11    1    4    4    0    0  0.27379744231E-01  0.58225448583E-02 -0.97123743543E-01  0.10107836120E+00  0.51100000000E-03 0.  1.
         11    1    4    4    0    0  0.17400557813E-01  0.19859641057E-02 -0.22360627459E-01  0.28407432953E-01  0.51100000000E-03 0. -1.
</event>
<event>
 8    1  0.1090774E+005  0.1043930E+01  0.7957747E-01            NaN
         13   -1    0    0    0    0  0.00000000000E+00  0.00000000000E+00  0.74505805969E-08  0.10566000000E+00  0.10566000000E+00 0. -1.
     999900   -1    0    0    0    0 -0.00000000000E+00 -0.00000000000E+00 -0.74505805969E-08  0.93827000000E+00  0.93827000000E+00 0.  1.
     999902    2    1    2    0    0  0.28597085757E-02 -0.67346214788E-02 -0.29980588562E-01  0.10130695277E+01  0.10125993775E+01 0.  0.
     999903    2    3    3    0    0  0.10401152242E+00 -0.60203078219E-01  0.23542430359E-01  0.12405024846E+00  0.19784102047E-01 0.  0.
         14    1    1    2    0    0 -0.28597085757E-02  0.67346214788E-02  0.29980588562E-01  0.30860472293E-01  0.00000000000E+00 0. -1.
     999901    1    3    3    0    0 -0.10115181384E+00  0.53468456741E-01 -0.53523018921E-01  0.88901927924E+00  0.88000000000E+00 0.  1.
        -11    1    4    4    0    0  0.38936125116E-01 -0.23181476093E-01  0.18696203160E-01  0.49022564259E-01  0.51100000000E-03 0.  1.
         11    1    4    4    0    0  0.65075397304E-01 -0.37021602126E-01  0.48462271981E-02  0.75027684205E-01  0.51100000000E-03 0. -1.
</event>
<event>
 8    1  0.1090774E+005  0.1043930E+01  0.7957747E-01            NaN
         13   -1    0    0    0    0  0.00000000000E+00  0.00000000000E+00  0.74505805969E-08  0.10566000000E+00  0.10566000000E+00 0.  1.
     999900   -1    0    0    0    0 -0.00000000000E+00 -0.00000000000E+00 -0.74505805969E-08  0.93827000000E+00  0.93827000000E+00 0. -1.
     999902    2    1    2    0    0 -0.21504889985E-01  0.62290278644E-02  0.30240422136E-02  0.10213378351E+01  0.10210879333E+01 0.  0.
     999903    2    3    3    0    0  0.78730730932E-01 -0.41853840280E-01 -0.91618524391E-01  0.12930848735E+00  0.19402550119E-01 0.  0.
         14    1    1    2    0    0  0.21504889985E-01 -0.62290278644E-02 -0.30240422136E-02  0.22592164853E-01  0.00000000000E+00 0.  1.
     999901    1    3    3    0    0 -0.10023562092E+00  0.48082868144E-01  0.94642566605E-01  0.89202934779E+00  0.88000000000E+00 0.  1.
        -11    1    4    4    0    0  0.28247955155E-01 -0.24074017754E-01 -0.30298534552E-01  0.47914169285E-01  0.51100000000E-03 0. -1.
         11    1    4    4    0    0  0.50482775777E-01 -0.17779822526E-01 -0.61319989839E-01  0.81394318070E-01  0.51100000000E-03 0.  1.
</event>
<event>
 8    1  0.1159813E+005  0.1043930E+01  0.7957747E-01            NaN
         13   -1    0    0    0    0  0.00000000000E+00  0.00000000000E+00  0.74505805969E-08  0.10566000000E+00  0.10566000000E+00 0. -1.
     999900   -1    0    0    0    0 -0.00000000000E+00 -0.00000000000E+00 -0.74505805969E-08  0.93827000000E+00  0.93827000000E+00 0. -1.
     999902    2    1    2    0    0  0.71516135369E-03  0.55178076319E-02  0.23474908835E-01  0.10198047228E+01  0.10195193199E+01 0.  0.
     999903    2    3    3    0    0  0.32660610102E-01  0.33511024314E-01  0.12296855001E+00  0.13318015932E+00  0.20639436581E-01 0.  0.
         14    1    1    2    0    0 -0.71516135369E-03 -0.55178076319E-02 -0.23474908835E-01  0.24125277234E-01  0.00000000000E+00 0.  1.
     999901    1    3    3    0    0 -0.31945448748E-01 -0.27993216682E-01 -0.99493641172E-01  0.88662456345E+00  0.88000000000E+00 0. -1.
        -11    1    4    4    0    0  0.20133501465E-01  0.29160309603E-01  0.68575768253E-01  0.77191830202E-01  0.51100000000E-03 0.  1.
         11    1    4    4    0    0  0.12527108637E-01  0.43507147101E-02  0.54392781754E-01  0.55988329116E-01  0.51100000000E-03 0. -1.
</event>
<event>
 8    1  0.1090774E+005  0.1043930E+01  0.7957747E-01            NaN
         13   -1    0    0    0    0  0.00000000000E+00  0.00000000000E+00  0.74505805969E-08  0.10566000000E+00  0.10566000000E+00 0. -1.
     999900   -1    0    0    0    0 -0.00000000000E+00 -0.00000000000E+00 -0.74505805969E-08  0.93827000000E+00  0.93827000000E+00 0. -1.
     999902    2    1    2    0    0 -0.24237882394E-02  0.58486942393E-02  0.22933612558E-01  0.10201385612E+01  0.10198610942E+01 0.  0.
     999903    2    3    3    0    0  0.22986917413E-01  0.75786641146E-01  0.10526925354E+00  0.13316833729E+00  0.19498127314E-01 0.  0.
         14    1    1    2    0    0  0.24237882394E-02 -0.58486942393E-02 -0.22933612558E-01  0.23791438769E-01  0.00000000000E+00 0.  1.
     999901    1    3    3    0    0 -0.25410705653E-01 -0.69937946906E-01 -0.82335640978E-01  0.88697022394E+00  0.88000000000E+00 0. -1.
        -11    1    4    4    0    0  0.14663463408E-01  0.19482403173E-01  0.26900545724E-01  0.36310902959E-01  0.51100000000E-03 0. -1.
         11    1    4    4    0    0  0.83234540054E-02  0.56304237973E-01  0.78368707812E-01  0.96857434332E-01  0.51100000000E-03 0.  1.
</event>
<event>
 8    1  0.1090774E+005  0.1043930E+01  0.7957747E-01            NaN
         13   -1    0    0    0    0  0.00000000000E+00  0.00000000000E+00  0.74505805969E-08  0.10566000000E+00  0.10566000000E+00 0.  1.
     999900   -1    0    0    0    0 -0.00000000000E+00 -0.00000000000E+00 -0.74505805969E-08  0.93827000000E+00  0.93827000000E+00 0. -1.
     999902    2    1    2    0    0 -0.20977549144E-02 -0.24044717427E-01 -0.17201138827E-02  0.10197327315E+01  0.10194456022E+01 0.  0.
     999903    2    3    3    0    0  0.19222894134E-01 -0.12952104221E+00  0.12740132077E-01  0.13305977945E+00  0.19934239583E-01 0.  0.
         14    1    1    2    0    0  0.20977549144E-02  0.24044717427E-01  0.17201138827E-02  0.24197268515E-01  0.00000000000E+00 0.  1.
     999901    1    3    3    0    0 -0.21320649048E-01  0.10547632478E+00 -0.14460245960E-01  0.88667295204E+00  0.88000000000E+00 0. -1.
        -11    1    4    4    0    0  0.42204916499E-02 -0.55451284199E-01 -0.36273593413E-02  0.55732183932E-01  0.51100000000E-03 0. -1.
         11    1    4    4    0    0  0.15002402484E-01 -0.74069758008E-01  0.16367491419E-01  0.77327595514E-01  0.51100000000E-03 0.  1.
</event>
<event>
 8    1  0.1090774E+005  0.1043930E+01  0.7957747E-01            NaN
         13   -1    0    0    0    0  0.00000000000E+00  0.00000000000E+00  0.74505805969E-08  0.10566000000E+00  0.10566000000E+00 0. -1.
     999900   -1    0    0    0    0 -0.00000000000E+00 -0.00000000000E+00 -0.74505805969E-08  0.93827000000E+00  0.93827000000E+00 0.  1.
     999902    2    1    2    0    0 -0.21124933695E-01  0.79813026506E-02  0.12047310426E-01  0.10183350453E+01  0.10180133412E+01 0.  0.
     999903    2    3    3    0    0 -0.53688232235E-01 -0.11144442106E+00  0.32363954507E-01  0.12943930459E+00  0.20120207624E-01 0.  0.
         14    1    1    2    0    0  0.21124933695E-01 -0.79813026506E-02 -0.12047310426E-01  0.25594954661E-01  0.00000000000E+00 0.  1.
     999901    1    3    3    0    0  0.32563298541E-01  0.11942572371E+00 -0.20316644081E-01  0.88889574075E+00  0.88000000000E+00 0.  1.
        -11    1    4    4    0    0 -0.41705996288E-01 -0.91813538731E-01  0.33886332088E-01  0.10638449438E+00  0.51100000000E-03 0.  1.
         11    1    4    4    0    0 -0.11982235947E-01 -0.19630882330E-01 -0.15223775807E-02  0.23054810211E-01  0.51100000000E-03 0. -1.
</event>
<event>
 8    1  0.1090774E+005  0.1043930E+01  0.7957747E-01            NaN
         13   -1    0    0    0    0  0.00000000000E+00  0.00000000000E+00  0.74505805969E-08  0.10566000000E+00  0.10566000000E+00 0. -1.
     999900   -1    0    0    0    0 -0.00000000000E+00 -0.00000000000E+00 -0.74505805969E-08  0.93827000000E+00  0.93827000000E+00 0. -1.
     999902    2    1    2    0    0 -0.55725783658E-02  0.27876623986E-01  0.94622239893E-03  0.10154861056E+01  0.10150876688E+01 0.  0.
     999903    2    3    3    0    0 -0.10832376895E+00 -0.10787042166E-02  0.62892674521E-01  0.12687281445E+00  0.20149938342E-01 0.  0.
         14    1    1    2    0    0  0.55725783658E-02 -0.27876623986E-01 -0.94622239893E-03  0.28443894447E-01  0.00000000000E+00 0. -1.
     999901    1    3    3    0    0  0.10275119058E+00  0.28955328202E-01 -0.61946452122E-01  0.88861329110E+00  0.88000000000E+00 0. -1.
        -11    1    4    4    0    0 -0.44691773434E-02  0.32736217311E-02  0.67023583791E-02  0.87105036713E-02  0.51100000000E-03 0.  1.
         11    1    4    4    0    0 -0.10385459161E+00 -0.43523259477E-02  0.56190316142E-01  0.11816231078E+00  0.51100000000E-03 0. -1.
</event>
<event>
 8    1  0.1090774E+005  0.1043930E+01  0.7957747E-01            NaN
         13   -1    0    0    0    0  0.00000000000E+00  0.00000000000E+00  0.74505805969E-08  0.10566000000E+00  0.10566000000E+00 0. -1.
     999900   -1    0    0    0    0 -0.00000000000E+00 -0.00000000000E+00 -0.74505805969E-08  0.93827000000E+00  0.93827000000E+00 0. -1.
     999902    2    1    2    0    0 -0.64676414676E-02  0.15134680116E-01 -0.16890169495E-01  0.10203468120E+01  0.10200742375E+01 0.  0.
     999903    2    3    3    0    0  0.45455110896E-01  0.16966622704E-01  0.11746725613E+00  0.12863427650E+00  0.19854154129E-01 0.  0.
         14    1    1    2    0    0  0.64676414676E-02 -0.15134680116E-01  0.16890169495E-01  0.23583187951E-01  0.00000000000E+00 0. -1.
     999901    1    3    3    0    0 -0.51922752363E-01 -0.18319425873E-02 -0.13435742563E+00  0.89171253554E+00  0.88000000000E+00 0. -1.
        -11    1    4    4    0    0  0.19499019900E-01  0.74765603693E-02  0.75849591415E-01  0.78673581150E-01  0.51100000000E-03 0.  1.
         11    1    4    4    0    0  0.25956090996E-01  0.94900623343E-02  0.41617664716E-01  0.49960695355E-01  0.51100000000E-03 0. -1.
</event>
<event>
 8    1  0.1090774E+005  0.1043930E+01  0.7957747E-01            NaN
         13   -1    0    0    0    0  0.00000000000E+00  0.00000000000E+00  0.74505805969E-08  0.10566000000E+00  0.10566000000E+00 0.  1.
     999900   -1    0    0    0    0 -0.00000000000E+00 -0.00000000000E+00 -0.74505805969E-08  0.93827000000E+00  0.93827000000E+00 0.  1.
     999902    2    1    2    0    0 -0.17160313727E-02 -0.44882323373E-02  0.22784279224E-01  0.10206445459E+01  0.10203788888E+01 0.  0.
     999903    2    3    3    0    0 -0.44342103183E-01  0.78666026590E-01  0.95342336462E-01  0.13272772296E+00  0.19285265518E-01 0.  0.
         14    1    1    2    0    0  0.17160313727E-02  0.44882323373E-02 -0.22784279224E-01  0.23285454107E-01  0.00000000000E+00 0. -1.
     999901    1    3    3    0    0  0.42626071811E-01 -0.83154258928E-01 -0.72558057238E-01  0.88791682293E+00  0.88000000000E+00 0.  1.
        -11    1    4    4    0    0 -0.45505135741E-01  0.69528695633E-01  0.85058009118E-01  0.11891208068E+00  0.51100000000E-03 0.  1.
         11    1    4    4    0    0  0.11630325570E-02  0.91373309571E-02  0.10284327344E-01  0.13815642282E-01  0.51100000000E-03 0. -1.
</event>
<event>
 8    1  0.1090774E+005  0.1043930E+01  0.7957747E-01            NaN
         13   -1    0    0    0    0  0.00000000000E+00  0.00000000000E+00  0.74505805969E-08  0.10566000000E+00  0.10566000000E+00 0.  1.
     999900   -1    0    0    0    0 -0.00000000000E+00 -0.00000000000E+00 -0.74505805969E-08  0.93827000000E+00  0.93827000000E+00 0.  1.
     999902    2    1    2    0    0 -0.16161291035E-01  0.13230215498E-01  0.10116589404E-01  0.10207228608E+01  0.10204590081E+01 0.  0.
     999903    2    3    3    0    0 -0.34817988067E-01  0.79956572288E-01 -0.97295871121E-01  0.13148840591E+00  0.14743425875E-01 0.  0.
         14    1    1    2    0    0  0.16161291035E-01 -0.13230215498E-01 -0.10116589404E-01  0.23207139229E-01  0.00000000000E+00 0. -1.
     999901    1    3    3    0    0  0.18656697033E-01 -0.66726356790E-01  0.10741246052E+00  0.88923445486E+00  0.88000000000E+00 0. -1.
        -11    1    4    4    0    0 -0.78395525746E-02  0.34457090190E-01 -0.43406360229E-01  0.55974305518E-01  0.51100000000E-03 0.  1.
         11    1    4    4    0    0 -0.26978435493E-01  0.45499482098E-01 -0.53889510892E-01  0.75514100392E-01  0.51100000000E-03 0. -1.
</event>
<event>
 8    1  0.1090774E+005  0.1043930E+01  0.7957747E-01            NaN
         13   -1    0    0    0    0  0.00000000000E+00  0.00000000000E+00  0.74505805969E-08  0.10566000000E+00  0.10566000000E+00 0. -1.
     999900   -1    0    0    0    0 -0.00000000000E+00 -0.00000000000E+00 -0.74505805969E-08  0.93827000000E+00  0.93827000000E+00 0. -1.
     999902    2    1    2    0    0  0.10633031063E-02  0.40079157474E-02 -0.23363096164E-01  0.10202017834E+01  0.10199258064E+01 0.  0.
     999903    2    3    3    0    0 -0.76052575299E-01  0.88956073585E-01 -0.58364005379E-01  0.13206434363E+00  0.18369989026E-01 0.  0.
         14    1    1    2    0    0 -0.10633031063E-02 -0.40079157474E-02  0.23363096164E-01  0.23728216631E-01  0.00000000000E+00 0. -1.
     999901    1    3    3    0    0  0.77115878406E-01 -0.84948157838E-01  0.35000909216E-01  0.88813743974E+00  0.88000000000E+00 0. -1.
        -11    1    4    4    0    0 -0.17829590705E-01  0.29931274113E-01 -0.10794128695E-01  0.36476702291E-01  0.51100000000E-03 0.  1.
         11    1    4    4    0    0 -0.58222984594E-01  0.59024799473E-01 -0.47569876684E-01  0.95587641338E-01  0.51100000000E-03 0. -1.
</event>
<event>
 8    1  0.1090774E+005  0.1043930E+01  0.7957747E-01            NaN
         13   -1    0    0    0    0  0.00000000000E+00  0.00000000000E+00  0.74505805969E-08  0.10566000000E+00  0.10566000000E+00 0.  1.
     999900   -1    0    0    0    0 -0.00000000000E+00 -0.00000000000E+00 -0.74505805969E-08  0.93827000000E+00  0.93827000000E+00 0. -1.
     999902    2    1    2    0    0  0.35644057466E-02  0.25317034243E-01  0.41117340919E-02  0.10180347578E+01  0.10177053623E+01 0.  0.
     999903    2    3    3    0    0  0.70434634297E-01  0.10765539671E+00  0.18910677515E-01  0.13154153046E+00  0.19870540069E-01 0.  0.
         14    1    1    2    0    0 -0.35644057466E-02 -0.25317034243E-01 -0.41117340919E-02  0.25895242196E-01  0.00000000000E+00 0. -1.
     999901    1    3    3    0    0 -0.66870228551E-01 -0.82338362465E-01 -0.14798943423E-01  0.88649322734E+00  0.88000000000E+00 0. -1.
        -11    1    4    4    0    0  0.27515263855E-01  0.34483469671E-01 -0.20222632734E-02  0.44165032495E-01  0.51100000000E-03 0. -1.
         11    1    4    4    0    0  0.42919370443E-01  0.73171927037E-01  0.20932940788E-01  0.87376497964E-01  0.51100000000E-03 0.  1.
</event>
<event>
 8    1  0.1090774E+005  0.1043930E+01  0.7957747E-01            NaN
         13   -1    0    0    0    0  0.00000000000E+00  0.00000000000E+00  0.74505805969E-08  0.10566000000E+00  0.10566000000E+00 0.  1.
     999900   -1    0    0    0    0 -0.00000000000E+00 -0.00000000000E+00 -0.74505805969E-08  0.93827000000E+00  0.93827000000E+00 0. -1.
     999902    2    1    2    0    0  0.18330711589E-01  0.20086000812E-02  0.15488461549E-01  0.10198480170E+01  0.10195636498E+01 0.  0.
     999903    2    3    3    0    0 -0.11290125879E+00 -0.40390764226E-01 -0.38374802104E-01  0.12747993867E+00  0.20010028873E-01 0.  0.
         14    1    1    2    0    0 -0.18330711589E-01 -0.20086000812E-02 -0.15488461549E-01  0.24081982950E-01  0.00000000000E+00 0. -1.
     999901    1    3    3    0    0  0.13123197038E+00  0.42399364307E-01  0.53863263653E-01  0.89236807838E+00  0.88000000000E+00 0. -1.
        -11    1    4    4    0    0 -0.41334128550E-01 -0.21216081024E-01 -0.68783873739E-02  0.46970263049E-01  0.51100000000E-03 0.  1.
         11    1    4    4    0    0 -0.71567130239E-01 -0.19174683202E-01 -0.31496414730E-01  0.80509675620E-01  0.51100000000E-03 0. -1.
</event>
<event>
 8    1  0.1090774E+005  0.1043930E+01  0.7957747E-01            NaN
         13   -1    0    0    0    0  0.00000000000E+00  0.00000000000E+00  0.74505805969E-08  0.10566000000E+00  0.10566000000E+00 0.  1.
     999900   -1    0    0    0    0 -0.00000000000E+00 -0.00000000000E+00 -0.74505805969E-08  0.93827000000E+00  0.93827000000E+00 0. -1.
     999902    2    1    2    0    0 -0.12315460380E-01  0.20260452023E-01 -0.39835795296E-02  0.10198878415E+01  0.10196044252E+01 0.  0.
     999903    2    3    3    0    0  0.80739301559E-01  0.91671882526E-01 -0.43597903743E-01  0.13122138222E+00  0.19892337193E-01 0.  0.
         14    1    1    2    0    0  0.12315460380E-01 -0.20260452023E-01  0.39835795296E-02  0.24042158522E-01  0.00000000000E+00 0. -1.
     999901    1    3    3    0    0 -0.93054761939E-01 -0.71411430503E-01  0.39614324213E-01  0.88866645926E+00  0.88000000000E+00 0.  1.
        -11    1    4    4    0    0  0.46187110177E-01  0.37427068320E-01 -0.20746272117E-01  0.62965891698E-01  0.51100000000E-03 0.  1.
         11    1    4    4    0    0  0.34552191382E-01  0.54244814206E-01 -0.22851631626E-01  0.68255490523E-01  0.51100000000E-03 0. -1.
</event>
<event>
 8    1  0.1090774E+005  0.1043930E+01  0.7957747E-01            NaN
         13   -1    0    0    0    0  0.00000000000E+00  0.00000000000E+00  0.74505805969E-08  0.10566000000E+00  0.10566000000E+00 0.  1.
     999900   -1    0    0    0    0 -0.00000000000E+00 -0.00000000000E+00 -0.74505805969E-08  0.93827000000E+00  0.93827000000E+00 0. -1.
     999902    2    1    2    0    0  0.19780958686E-01 -0.12776708124E-01 -0.43245866246E-02  0.10199877226E+01  0.10197066841E+01 0.  0.
     999903    2    3    3    0    0 -0.78398813126E-01 -0.93467050139E-01  0.39732318518E-01  0.12976796897E+00  0.19457781841E-01 0.  0.
         14    1    1    2    0    0 -0.19780958686E-01  0.12776708124E-01  0.43245866246E-02  0.23942277387E-01  0.00000000000E+00 0.  1.
     999901    1    3    3    0    0  0.98179771812E-01  0.80690342015E-01 -0.44056905142E-01  0.89021975364E+00  0.88000000000E+00 0. -1.
        -11    1    4    4    0    0 -0.53744159306E-01 -0.62177190493E-01  0.17093779297E-01  0.83945792561E-01  0.51100000000E-03 0.  1.
         11    1    4    4    0    0 -0.24654653820E-01 -0.31289859647E-01  0.22638539220E-01  0.45822176408E-01  0.51100000000E-03 0. -1.
</event>
<event>
 8    1  0.1090774E+005  0.1043930E+01  0.7957747E-01            NaN
         13   -1    0    0    0    0  0.00000000000E+00  0.00000000000E+00  0.74505805969E-08  0.10566000000E+00  0.10566000000E+00 0. -1.
     999900   -1    0    0    0    0 -0.00000000000E+00 -0.00000000000E+00 -0.74505805969E-08  0.93827000000E+00  0.93827000000E+00 0.  1.
     999902    2    1    2    0    0  0.12873379320E-01  0.12856889485E-02 -0.20254490674E-01  0.10198962470E+01  0.10196130312E+01 0.  0.
     999903    2    3    3    0    0  0.39498825213E-01 -0.12269815783E+00  0.41067305451E-02  0.13047262591E+00  0.19779932999E-01 0.  0.
         14    1    1    2    0    0 -0.12873379320E-01 -0.12856889485E-02  0.20254490674E-01  0.24033753008E-01  0.00000000000E+00 0. -1.
     999901    1    3    3    0    0 -0.26625445892E-01  0.12398384678E+00 -0.24361221219E-01  0.88942362108E+00  0.88000000000E+00 0. -1.
        -11    1    4    4    0    0  0.48739854159E-02 -0.32039958403E-01  0.78652656125E-02  0.33353233613E-01  0.51100000000E-03 0.  1.
         11    1    4    4    0    0  0.34624839797E-01 -0.90658199426E-01 -0.37585350674E-02  0.97119392301E-01  0.51100000000E-03 0. -1.
</event>
<event>
 8    1  0.1090774E+005  0.1043930E+01  0.7957747E-01            NaN
         13   -1    0    0    0    0  0.00000000000E+00  0.00000000000E+00  0.74505805969E-08  0.10566000000E+00  0.10566000000E+00 0.  1.
     999900   -1    0    0    0    0 -0.00000000000E+00 -0.00000000000E+00 -0.74505805969E-08  0.93827000000E+00  0.93827000000E+00 0.  1.
     999902    2    1    2    0    0  0.13517319301E-01 -0.17002137320E-01  0.96977721463E-02  0.10201426635E+01  0.10198652933E+01 0.  0.
     999903    2    3    3    0    0  0.22474945412E-01  0.12498779007E+00  0.98198146879E-02  0.12871605772E+00  0.18555967115E-01 0.  0.
         14    1    1    2    0    0 -0.13517319301E-01  0.17002137320E-01 -0.96977721463E-02  0.23787336529E-01  0.00000000000E+00 0.  1.
     999901    1    3    3    0    0 -0.89576261114E-02 -0.14198992739E+00 -0.12204254162E-03  0.89142660575E+00  0.88000000000E+00 0.  1.
        -11    1    4    4    0    0  0.14195584076E-01  0.64682878485E-01 -0.38183899238E-02  0.66334233989E-01  0.51100000000E-03 0.  1.
         11    1    4    4    0    0  0.82793613362E-02  0.60304911590E-01  0.13638204612E-01  0.62381823731E-01  0.51100000000E-03 0. -1.
</event>
<event>
 8    1  0.1090774E+005  0.1043930E+01  0.7957747E-01            NaN
         13   -1    0    0    0    0  0.00000000000E+00  0.00000000000E+00  0.74505805969E-08  0.10566000000E+00  0.10566000000E+00 0. -1.
     999900   -1    0    0    0    0 -0.00000000000E+00 -0.00000000000E+00 -0.74505805969E-08  0.93827000000E+00  0.93827000000E+00 0.  1.
     999902    2    1    2    0    0  0.82016056667E-03  0.35686680839E-02  0.23220596218E-01  0.10204224662E+01  0.10201516581E+01 0.  0.
     999903    2    3    3    0    0 -0.19904403075E-01  0.10370437949E+00 -0.72197744776E-01  0.12937738991E+00  0.19370366070E-01 0.  0.
         14    1    1    2    0    0 -0.82016056667E-03 -0.35686680839E-02 -0.23220596218E-01  0.23507533770E-01  0.00000000000E+00 0.  1.
     999901    1    3    3    0    0  0.20724563642E-01 -0.10013571141E+00  0.95418340994E-01  0.89104507632E+00  0.88000000000E+00 0. -1.
        -11    1    4    4    0    0  0.27209928669E-02  0.32921194958E-01 -0.22983104938E-01  0.40245411083E-01  0.51100000000E-03 0. -1.
         11    1    4    4    0    0 -0.22625395942E-01  0.70783184532E-01 -0.49214639839E-01  0.89131978826E-01  0.51100000000E-03 0.  1.
</event>
<event>
 8    1  0.1090774E+005  0.1043930E+01  0.7957747E-01            NaN
         13   -1    0    0    0    0  0.00000000000E+00  0.00000000000E+00  0.74505805969E-08  0.10566000000E+00  0.10566000000E+00 0.  1.
     999900   -1    0    0    0    0 -0.00000000000E+00 -0.00000000000E+00 -0.74505805969E-08  0.93827000000E+00  0.93827000000E+00 0.  1.
     999902    2    1    2    0    0 -0.19165555652E-01 -0.23682848208E-02 -0.14091589614E-01  0.10200239298E+01  0.10197437507E+01 0.  0.
     999903    2    3    3    0    0 -0.97531964454E-01 -0.16384601625E-01  0.83526126111E-01  0.13105431859E+00  0.20437255609E-01 0.  0.
         14    1    1    2    0    0  0.19165555652E-01  0.23682848208E-02  0.14091589614E-01  0.23906070239E-01  0.00000000000E+00 0.  1.
     999901    1    3    3    0    0  0.78366408802E-01  0.14016316804E-01 -0.97617715725E-01  0.88896961117E+00  0.88000000000E+00 0.  1.
        -11    1    4    4    0    0 -0.13666752652E-01 -0.41294157616E-02  0.40148065768E-02  0.14839541618E-01  0.51100000000E-03 0.  1.
         11    1    4    4    0    0 -0.83865211802E-01 -0.12255185863E-01  0.79511319534E-01  0.11621477697E+00  0.51100000000E-03 0. -1.
</event>
<event>
 8    1  0.1090774E+005  0.1043930E+01  0.7957747E-01            NaN
         13   -1    0    0    0    0  0.00000000000E+00  0.00000000000E+00  0.74505805969E-08  0.10566000000E+00  0.10566000000E+00 0. -1.
     999900   -1    0    0    0    0 -0.00000000000E+00 -0.00000000000E+00 -0.74505805969E-08  0.93827000000E+00  0.93827000000E+00 0.  1.
     999902    2    1    2    0    0 -0.13579342790E-01  0.13124260737E-01 -0.11601333103E-01  0.10217661623E+01  0.10215257485E+01 0.  0.
     999903    2    3    3    0    0  0.77711035352E-01 -0.93825374941E-01 -0.40977809370E-01  0.13011873477E+00  0.20236063831E-01 0.  0.
         14    1    1    2    0    0  0.13579342790E-01 -0.13124260737E-01  0.11601333103E-01  0.22163837671E-01  0.00000000000E+00 0. -1.
     999901    1    3    3    0    0 -0.91290378142E-01  0.10694963568E+00  0.29376476267E-01  0.89164742756E+00  0.88000000000E+00 0. -1.
        -11    1    4    4    0    0  0.12965169193E-01 -0.21149072007E-01 -0.16355077224E-01  0.29717478543E-01  0.51100000000E-03 0. -1.
         11    1    4    4    0    0  0.64745866159E-01 -0.72676302934E-01 -0.24622732146E-01  0.10040125623E+00  0.51100000000E-03 0.  1.
</event>
<event>
 8    1  0.1090774E+005  0.1043930E+01  0.7957747E-01            NaN
         13   -1    0    0    0    0  0.00000000000E+00  0.00000000000E+00  0.74505805969E-08  0.10566000000E+00  0.10566000000E+00 0. -1.
     999900   -1    0    0    0    0 -0.00000000000E+00 -0.00000000000E+00 -0.74505805969E-08  0.93827000000E+00  0.93827000000E+00 0. -1.
     999902    2    1    2    0    0 -0.78065638221E-02 -0.82475769860E-02  0.97778851641E-02  0.10289442734E+01  0.10288351402E+01 0.  0.
     999903    2    3    3    0    0 -0.83436571169E-01 -0.45384134669E-01 -0.98718504193E-01  0.13828693833E+00  0.18882615139E-01 0.  0.
         14    1    1    2    0    0  0.78065638221E-02  0.82475769860E-02 -0.97778851641E-02  0.14985726647E-01  0.00000000000E+00 0.  1.
     999901    1    3    3    0    0  0.75630007347E-01  0.37136557683E-01  0.10849638936E+00  0.89065733502E+00  0.88000000000E+00 0. -1.
        -11    1    4    4    0    0 -0.19172156287E-01 -0.26924868367E-02 -0.15505042863E-01  0.24809041441E-01  0.51100000000E-03 0.  1.
         11    1    4    4    0    0 -0.64264414882E-01 -0.42691647832E-01 -0.83213461330E-01  0.11347789689E+00  0.51100000000E-03 0. -1.
</event>
<event>
 8    1  0.1090774E+005  0.1043930E+01  0.7957747E-01            NaN
         13   -1    0    0    0    0  0.00000000000E+00  0.00000000000E+00  0.74505805969E-08  0.10566000000E+00  0.10566000000E+00 0. -1.
     999900   -1    0    0    0    0 -0.00000000000E+00 -0.00000000000E+00 -0.74505805969E-08  0.93827000000E+00  0.93827000000E+00 0.  1.
     999902    2    1    2    0    0  0.11156257569E-01  0.20635050983E-01 -0.27091129286E-02  0.10203163026E+01  0.10200430141E+01 0.  0.
     999903    2    3    3    0    0 -0.86557888769E-01  0.95301911235E-01  0.29150512633E-02  0.13174732630E+00  0.27823336812E-01 0.  0.
         14    1    1    2    0    0 -0.11156257569E-01 -0.20635050983E-01  0.27091129286E-02  0.23613697399E-01  0.00000000000E+00 0. -1.
     999901    1    3    3    0    0  0.97714146337E-01 -0.74666860252E-01 -0.56241641919E-02  0.88856897630E+00  0.88000000000E+00 0. -1.
        -11    1    4    4    0    0 -0.46612876753E-01  0.32012773690E-01  0.58232496557E-02  0.56848476814E-01  0.51100000000E-03 0. -1.
         11    1    4    4    0    0 -0.39945012015E-01  0.63289137544E-01 -0.29081983924E-02  0.74898849490E-01  0.51100000000E-03 0.  1.
</event>
<event>
 8    1  0.1090774E+005  0.1043930E+01  0.7957747E-01            NaN
         13   -1    0    0    0    0  0.00000000000E+00  0.00000000000E+00  0.74505805969E-08  0.10566000000E+00  0.10566000000E+00 0. -1.
     999900   -1    0    0    0    0 -0.00000000000E+00 -0.00000000000E+00 -0.74505805969E-08  0.93827000000E+00  0.93827000000E+00 0.  1.
     999902    2    1    2    0    0 -0.25218445046E-02 -0.23364489417E-01 -0.49283506952E-02  0.10199185922E+01  0.10196359090E+01 0.  0.
     999903    2    3    3    0    0  0.12233274106E+00  0.16546077085E-01 -0.34619295827E-01  0.12971464190E+00  0.19705848802E-01 0.  0.
         14    1    1    2    0    0  0.25218445046E-02  0.23364489417E-01  0.49283506952E-02  0.24011407830E-01  0.00000000000E+00 0.  1.
     999901    1    3    3    0    0 -0.12485458557E+00 -0.39910566502E-01  0.29690945132E-01  0.89020395027E+00  0.88000000000E+00 0. -1.
        -11    1    4    4    0    0  0.28648941024E-01 -0.10408519733E-02 -0.15135760362E-01  0.32422176938E-01  0.51100000000E-03 0.  1.
         11    1    4    4    0    0  0.93683800037E-01  0.17586929058E-01 -0.19483535465E-01  0.97292464961E-01  0.51100000000E-03 0. -1.
</event>
<event>
 8    1  0.1090774E+005  0.1043930E+01  0.7957747E-01            NaN
         13   -1    0    0    0    0  0.00000000000E+00  0.00000000000E+00  0.74505805969E-08  0.10566000000E+00  0.10566000000E+00 0. -1.
     999900   -1    0    0    0    0 -0.00000000000E+00 -0.00000000000E+00 -0.74505805969E-08  0.93827000000E+00  0.93827000000E+00 0.  1.
     999902    2    1    2    0    0 -0.14216444119E-01 -0.18809169599E-01 -0.57035108978E-02  0.10196725850E+01  0.10193840093E+01 0.  0.
     999903    2    3    3    0    0 -0.76730476729E-01  0.97988396816E-01  0.27892151224E-01  0.12912312301E+00  0.20137448354E-01 0.  0.
         14    1    1    2    0    0  0.14216444119E-01  0.18809169599E-01  0.57035108978E-02  0.24257414969E-01  0.00000000000E+00 0.  1.
     999901    1    3    3    0    0  0.62514032610E-01 -0.11679756641E+00 -0.33595662121E-01  0.89054946202E+00  0.88000000000E+00 0. -1.
        -11    1    4    4    0    0 -0.65721689094E-01  0.91139733798E-01  0.29155113962E-01  0.11608649054E+00  0.51100000000E-03 0.  1.
         11    1    4    4    0    0 -0.11008787636E-01  0.68486630179E-02 -0.12629627388E-02  0.13036632472E-01  0.51100000000E-03 0. -1.
</event>
<event>
 8    1  0.1090774E+005  0.1043930E+01  0.7957747E-01            NaN
         13   -1    0    0    0    0  0.00000000000E+00  0.00000000000E+00  0.74505805969E-08  0.10566000000E+00  0.10566000000E+00 0. -1.
     999900   -1    0    0    0    0 -0.00000000000E+00 -0.00000000000E+00 -0.74505805969E-08  0.93827000000E+00  0.93827000000E+00 0. -1.
     999902    2    1    2    0    0  0.11783418183E-01 -0.22244870419E-02 -0.21506865492E-01  0.10193059762E+01  0.10190085036E+01 0.  0.
     999903    2    3    3    0    0  0.96367566227E-02 -0.10547047841E+00  0.70727107511E-01  0.12847970316E+00  0.16965302616E-01 0.  0.
         14    1    1    2    0    0 -0.11783418183E-01  0.22244870419E-02  0.21506865492E-01  0.24624023838E-01  0.00000000000E+00 0. -1.
     999901    1    3    3    0    0  0.21466615599E-02  0.10324599137E+00 -0.92233973003E-01  0.89082627300E+00  0.88000000000E+00 0. -1.
        -11    1    4    4    0    0  0.12189636709E-01 -0.42020473194E-01  0.28604015518E-01  0.52275790145E-01  0.51100000000E-03 0.  1.
         11    1    4    4    0    0 -0.25528800861E-02 -0.63450005221E-01  0.42123091993E-01  0.76203913018E-01  0.51100000000E-03 0. -1.
</event>
<event>
 8    1  0.1098472E+005  0.1043930E+01  0.7957747E-01            NaN
         13   -1    0    0    0    0  0.00000000000E+00  0.00000000000E+00  0.74505805969E-08  0.10566000000E+00  0.10566000000E+00 0. -1.
     999900   -1    0    0    0    0 -0.00000000000E+00 -0.00000000000E+00 -0.74505805969E-08  0.93827000000E+00  0.93827000000E+00 0. -1.
     999902    2    1    2    0    0  0.25653776199E-01  0.11266399892E-02 -0.82957281681E-03  0.10182380997E+01  0.10179139226E+01 0.  0.
     999903    2    3    3    0    0 -0.63518616480E-01  0.68762206257E-01  0.82670669728E-01  0.12722823669E+00  0.24284335061E-01 0.  0.
         14    1    1    2    0    0 -0.25653776199E-01 -0.11266399892E-02  0.82957281681E-03  0.25691900319E-01  0.00000000000E+00 0.  1.
     999901    1    3    3    0    0  0.89172392679E-01 -0.67635566268E-01 -0.83500242545E-01  0.89100986299E+00  0.88000000000E+00 0. -1.
        -11    1    4    4    0    0 -0.39952742628E-01  0.26498681361E-01  0.46719312659E-01  0.66942938789E-01  0.51100000000E-03 0. -1.
         11    1    4    4    0    0 -0.23565873852E-01  0.42263524896E-01  0.35951357069E-01  0.60285297902E-01  0.51100000000E-03 0.  1.
</event>
<event>
 8    1  0.1090774E+005  0.1043930E+01  0.7957747E-01            NaN
         13   -1    0    0    0    0  0.00000000000E+00  0.00000000000E+00  0.74505805969E-08  0.10566000000E+00  0.10566000000E+00 0.  1.
     999900   -1    0    0    0    0 -0.00000000000E+00 -0.00000000000E+00 -0.74505805969E-08  0.93827000000E+00  0.93827000000E+00 0. -1.
     999902    2    1    2    0    0  0.13817841968E-01  0.21998573582E-01 -0.64370266934E-02  0.10171661193E+01  0.10168139500E+01 0.  0.
     999903    2    3    3    0    0  0.48228606213E-01 -0.54706661581E-01  0.10151413765E+00  0.12659256948E+00  0.20043483361E-01 0.  0.
         14    1    1    2    0    0 -0.13817841968E-01 -0.21998573582E-01  0.64370266934E-02  0.26763880678E-01  0.00000000000E+00 0. -1.
     999901    1    3    3    0    0 -0.34410764245E-01  0.76705235163E-01 -0.10795116435E+00  0.89057354984E+00  0.88000000000E+00 0. -1.
        -11    1    4    4    0    0  0.34784951266E-01 -0.29613838110E-01  0.49965516240E-01  0.67703664423E-01  0.51100000000E-03 0. -1.
         11    1    4    4    0    0  0.13443654947E-01 -0.25092823471E-01  0.51548621414E-01  0.58888905056E-01  0.51100000000E-03 0.  1.
</event>
<event>
 8    1  0.1090774E+005  0.1043930E+01  0.7957747E-01            NaN
         13   -1    0    0    0    0  0.00000000000E+00  0.00000000000E+00  0.74505805969E-08  0.10566000000E+00  0.10566000000E+00 0.  1.
     999900   -1    0    0    0    0 -0.00000000000E+00 -0.00000000000E+00 -0.74505805969E-08  0.93827000000E+00  0.93827000000E+00 0.  1.
     999902    2    1    2    0    0  0.18108568746E-01  0.10517609130E-01 -0.98557013252E-02  0.10207853416E+01  0.10205229240E+01 0.  0.
     999903    2    3    3    0    0  0.40338905739E-01 -0.11438135513E+00 -0.45259387010E-01  0.13098347595E+00  0.19948361874E-01 0.  0.
         14    1    1    2    0    0 -0.18108568746E-01 -0.10517609130E-01  0.98557013252E-02  0.23144658400E-01  0.00000000000E+00 0. -1.
     999901    1    3    3    0    0 -0.22230336993E-01  0.12489896426E+00  0.35403685685E-01  0.88980186565E+00  0.88000000000E+00 0.  1.
        -11    1    4    4    0    0  0.11003968759E-01 -0.16095436891E-01 -0.18070838339E-02  0.19587676997E-01  0.51100000000E-03 0. -1.
         11    1    4    4    0    0  0.29334936980E-01 -0.98285918240E-01 -0.43452303176E-01  0.11139579895E+00  0.51100000000E-03 0.  1.
</event>
<event>
 8    1  0.1090774E+005  0.1043930E+01  0.7957747E-01            NaN
         13   -1    0    0    0    0  0.00000000000E+00  0.00000000000E+00  0.74505805969E-08  0.10566000000E+00  0.10566000000E+00 0. -1.
     999900   -1    0    0    0    0 -0.00000000000E+00 -0.00000000000E+00 -0.74505805969E-08  0.93827000000E+00  0.93827000000E+00 0.  1.
     999902    2    1    2    0    0  0.18229426637E-01 -0.14645509099E-01 -0.20185665521E-02  0.10204592194E+01  0.10201892672E+01 0.  0.
     999903    2    3    3    0    0 -0.72006330900E-01  0.61577426744E-01  0.84467400446E-01  0.12836491361E+00  0.19134213708E-01 0.  0.
         14    1    1    2    0    0 -0.18229426637E-01  0.14645509099E-01  0.20185665521E-02  0.23470780626E-01  0.00000000000E+00 0. -1.
     999901    1    3    3    0    0  0.90235757537E-01 -0.76222935842E-01 -0.86485966998E-01  0.89209430576E+00  0.88000000000E+00 0.  1.
        -11    1    4    4    0    0 -0.28570776456E-01  0.21304290461E-01  0.20225916894E-01  0.40981836154E-01  0.51100000000E-03 0.  1.
         11    1    4    4    0    0 -0.43435554443E-01  0.40273136283E-01  0.64241483553E-01  0.87383077457E-01  0.51100000000E-03 0. -1.
</event>
<event>
 8    1  0.1090774E+005  0.1043930E+01  0.7957747E-01            NaN
         13   -1    0    0    0    0  0.00000000000E+00  0.00000000000E+00  0.74505805969E-08  0.10566000000E+00  0.10566000000E+00 0. -1.
     999900   -1    0    0    0    0 -0.00000000000E+00 -0.00000000000E+00 -0.74505805969E-08  0.93827000000E+00  0.93827000000E+00 0.  1.
     999902    2    1    2    0    0  0.23013336194E-01 -0.27209539802E-02  0.67605853854E-02  0.10197903490E+01  0.10195046019E+01 0.  0.
     999903    2    3    3    0    0  0.10801008300E+00  0.50349520333E-01 -0.53288921159E-01  0.13207031128E+00  0.20040104241E-01 0.  0.
         14    1    1    2    0    0 -0.23013336194E-01  0.27209539802E-02 -0.67605853854E-02  0.24139650952E-01  0.00000000000E+00 0.  1.
     999901    1    3    3    0    0 -0.84996746802E-01 -0.53070474313E-01  0.60049506544E-01  0.88772003776E+00  0.88000000000E+00 0. -1.
        -11    1    4    4    0    0  0.86496890825E-01  0.47982830654E-01 -0.47080873231E-01  0.10954877409E+00  0.51100000000E-03 0. -1.
         11    1    4    4    0    0  0.21513192171E-01  0.23666896786E-02 -0.62080479277E-02  0.22521537192E-01  0.51100000000E-03 0.  1.
</event>
<event>
 8    1  0.1090774E+005  0.1043930E+01  0.7957747E-01            NaN
         13   -1    0    0    0    0  0.00000000000E+00  0.00000000000E+00  0.74505805969E-08  0.10566000000E+00  0.10566000000E+00 0. -1.
     999900   -1    0    0    0    0 -0.00000000000E+00 -0.00000000000E+00 -0.74505805969E-08  0.93827000000E+00  0.93827000000E+00 0. -1.
     999902    2    1    2    0    0 -0.21352001317E-02 -0.28258956329E-02  0.13549767887E-01  0.10299249661E+01  0.10298297407E+01 0.  0.
     999903    2    3    3    0    0  0.11150925769E+00  0.64020972402E-01 -0.45842640557E-01  0.13812284410E+00  0.21056422112E-01 0.  0.
         14    1    1    2    0    0  0.21352001317E-02  0.28258956329E-02 -0.13549767887E-01  0.14005033935E-01  0.00000000000E+00 0.  1.
     999901    1    3    3    0    0 -0.11364445782E+00 -0.66846868035E-01  0.59392408445E-01  0.89180212196E+00  0.88000000000E+00 0.  1.
        -11    1    4    4    0    0  0.32131670329E-01  0.28565368684E-01 -0.20037952374E-01  0.47436327667E-01  0.51100000000E-03 0. -1.
         11    1    4    4    0    0  0.79377587357E-01  0.35455603719E-01 -0.25804688183E-01  0.90686516434E-01  0.51100000000E-03 0.  1.
</event>
<event>
 8    1  0.1090774E+005  0.1043930E+01  0.7957747E-01            NaN
         13   -1    0    0    0    0  0.00000000000E+00  0.00000000000E+00  0.74505805969E-08  0.10566000000E+00  0.10566000000E+00 0.  1.
     999900   -1    0    0    0    0 -0.00000000000E+00 -0.00000000000E+00 -0.74505805969E-08  0.93827000000E+00  0.93827000000E+00 0. -1.
     999902    2    1    2    0    0 -0.16290483584E-01 -0.63815010783E-02 -0.13224238032E-01  0.10219986552E+01  0.10217633128E+01 0.  0.
     999903    2    3    3    0    0 -0.12657081394E-01 -0.12147464613E+00 -0.50750175869E-01  0.13370375508E+00  0.19616890913E-01 0.  0.
         14    1    1    2    0    0  0.16290483584E-01  0.63815010783E-02  0.13224238032E-01  0.21931344759E-01  0.00000000000E+00 0.  1.
     999901    1    3    3    0    0 -0.36334021893E-02  0.11509314505E+00  0.37525937837E-01  0.88829490017E+00  0.88000000000E+00 0. -1.
        -11    1    4    4    0    0  0.18231205144E-02 -0.70927327396E-01 -0.25754987156E-01  0.75482382212E-01  0.51100000000E-03 0.  1.
         11    1    4    4    0    0 -0.14480201909E-01 -0.50547318733E-01 -0.24995188712E-01  0.58221372864E-01  0.51100000000E-03 0. -1.
</event>
<event>
 8    1  0.1090774E+005  0.1043930E+01  0.7957747E-01            NaN
         13   -1    0    0    0    0  0.00000000000E+00  0.00000000000E+00  0.74505805969E-08  0.10566000000E+00  0.10566000000E+00 0. -1.
     999900   -1    0    0    0    0 -0.00000000000E+00 -0.00000000000E+00 -0.74505805969E-08  0.93827000000E+00  0.93827000000E+00 0. -1.
     999902    2    1    2    0    0  0.35113839786E-02 -0.59555923668E-02  0.22605078378E-01  0.10202912930E+01  0.10200174186E+01 0.  0.
     999903    2    3    3    0    0  0.75038710719E-02  0.70755095943E-01  0.11014669818E+00  0.13261792697E+00  0.19814836591E-01 0.  0.
         14    1    1    2    0    0 -0.35113839786E-02  0.59555923668E-02 -0.22605078378E-01  0.23638706952E-01  0.00000000000E+00 0.  1.
     999901    1    3    3    0    0 -0.39924870934E-02 -0.76710688310E-01 -0.87541619805E-01  0.88767336608E+00  0.88000000000E+00 0. -1.
        -11    1    4    4    0    0  0.11012492891E-01  0.20319179831E-01  0.30343277784E-01  0.38146031200E-01  0.51100000000E-03 0. -1.
         11    1    4    4    0    0 -0.35086218186E-02  0.50435916113E-01  0.79803420399E-01  0.94471895765E-01  0.51100000000E-03 0.  1.
</event>
<event>
 8    1  0.1090774E+005  0.1043930E+01  0.7957747E-01            NaN
         13   -1    0    0    0    0  0.00000000000E+00  0.00000000000E+00  0.74505805969E-08  0.10566000000E+00  0.10566000000E+00 0.  1.
     999900   -1    0    0    0    0 -0.00000000000E+00 -0.00000000000E+00 -0.74505805969E-08  0.93827000000E+00  0.93827000000E+00 0. -1.
     999902    2    1    2    0    0  0.20077998637E-01 -0.79781260286E-02  0.14346152456E-01  0.10179956865E+01  0.10176652835E+01 0.  0.
     999903    2    3    3    0    0  0.69256431031E-01 -0.37026388013E-01 -0.99653279213E-01  0.12880606101E+00  0.22199519051E-01 0.  0.
         14    1    1    2    0    0 -0.20077998637E-01  0.79781260286E-02 -0.14346152456E-01  0.25934313457E-01  0.00000000000E+00 0. -1.
     999901    1    3    3    0    0 -0.49178432394E-01  0.29048261985E-01  0.11399943167E+00  0.88918962553E+00  0.88000000000E+00 0.  1.
        -11    1    4    4    0    0  0.57649556933E-01 -0.36088810016E-01 -0.73327260485E-01  0.10001510823E+00  0.51100000000E-03 0.  1.
         11    1    4    4    0    0  0.11606874098E-01 -0.93757799720E-03 -0.26326018729E-01  0.28790952779E-01  0.51100000000E-03 0. -1.
</event>
<event>
 8    1  0.1090774E+005  0.1043930E+01  0.7957747E-01            NaN
         13   -1    0    0    0    0  0.00000000000E+00  0.00000000000E+00  0.74505805969E-08  0.10566000000E+00  0.10566000000E+00 0.  1.
     999900   -1    0    0    0    0 -0.00000000000E+00 -0.00000000000E+00 -0.74505805969E-08  0.93827000000E+00  0.93827000000E+00 0.  1.
     999902    2    1    2    0    0 -0.15235648501E-01  0.14733681627E-01 -0.11242781845E-01  0.10199381993E+01  0.10196559831E+01 0.  0.
     999903    2    3    3    0    0  0.58717836007E-01  0.10563279582E+00 -0.48592703549E-01  0.13138500249E+00  0.17166718430E-01 0.  0.
         14    1    1    2    0    0  0.15235648501E-01 -0.14733681627E-01  0.11242781845E-01  0.23991800748E-01  0.00000000000E+00 0.  1.
     999901    1    3    3    0    0 -0.73953484507E-01 -0.90899114194E-01  0.37349921704E-01  0.88855319677E+00  0.88000000000E+00 0.  1.
        -11    1    4    4    0    0  0.42186313936E-02  0.20852875252E-01 -0.85156667965E-02  0.22921975462E-01  0.51100000000E-03 0. -1.
         11    1    4    4    0    0  0.54499204613E-01  0.84779920569E-01 -0.40077036753E-01  0.10846302702E+00  0.51100000000E-03 0.  1.
</event>
<event>
 7    1  0.1090774E+005  0.1043930E+01  0.7957747E-01            NaN
         13   -1    0    0    0    0  0.00000000000E+00  0.00000000000E+00  0.74505805969E-08  0.10566000000E+00  0.10566000000E+00 0.  1.
     999900   -1    0    0    0    0 -0.00000000000E+00 -0.00000000000E+00 -0.74505805969E-08  0.93827000000E+00  0.93827000000E+00 0.  1.
     999903    2    1    2    0    0 -0.16097471227E-01 -0.14099656535E+00  0.22087901856E-01  0.14472955116E+00  0.17877571103E-01 0.  0.
         14    1    1    2    0    0  0.28447080484E-02  0.61322908775E-02 -0.54314920690E-02  0.86717046411E-02  0.00000000000E+00 0. -1.
     999901    1    1    2    0    0  0.13252763179E-01  0.13486427448E+00 -0.16656409787E-01  0.89052874420E+00  0.88000000000E+00 0.  1.
        -11    1    3    3    0    0 -0.10570722947E-02 -0.38708383051E-02  0.38425297304E-02  0.55791528703E-02  0.51100000000E-03 0.  1.
         11    1    3    3    0    0 -0.15040398933E-01 -0.13712572705E+00  0.18245372126E-01  0.13915039829E+00  0.51100000000E-03 0. -1.
</event>
<event>
 8    1  0.1090774E+005  0.1043930E+01  0.7957747E-01            NaN
         13   -1    0    0    0    0  0.00000000000E+00  0.00000000000E+00  0.74505805969E-08  0.10566000000E+00  0.10566000000E+00 0. -1.
     999900   -1    0    0    0    0 -0.00000000000E+00 -0.00000000000E+00 -0.74505805969E-08  0.93827000000E+00  0.93827000000E+00 0. -1.
     999902    2    1    2    0    0 -0.72643528349E-02 -0.16033159516E-01 -0.13235390703E-01  0.10219070894E+01  0.10216697562E+01 0.  0.
     999903    2    3    3    0    0  0.38289967023E-01 -0.86963576701E-02 -0.12613751951E+00  0.13349507041E+00  0.19196660785E-01 0.  0.
         14    1    1    2    0    0  0.72643528349E-02  0.16033159516E-01  0.13235390703E-01  0.22022910644E-01  0.00000000000E+00 0. -1.
     999901    1    3    3    0    0 -0.45554319858E-01 -0.73368018459E-02  0.11290212880E+00  0.88841201895E+00  0.88000000000E+00 0.  1.
        -11    1    4    4    0    0  0.15190871584E-01  0.45588532975E-02 -0.63017963849E-01  0.64985156856E-01  0.51100000000E-03 0.  1.
         11    1    4    4    0    0  0.23099095439E-01 -0.13255210968E-01 -0.63119555657E-01  0.68509913554E-01  0.51100000000E-03 0. -1.
</event>
<event>
 8    1  0.1090774E+005  0.1043930E+01  0.7957747E-01            NaN
         13   -1    0    0    0    0  0.00000000000E+00  0.00000000000E+00  0.74505805969E-08  0.10566000000E+00  0.10566000000E+00 0.  1.
     999900   -1    0    0    0    0 -0.00000000000E+00 -0.00000000000E+00 -0.74505805969E-08  0.93827000000E+00  0.93827000000E+00 0.  1.
     999902    2    1    2    0    0 -0.53813841813E-03  0.12749730916E-01  0.19105389120E-01  0.10209547715E+01  0.10206962253E+01 0.  0.
     999903    2    3    3    0    0  0.10315381953E+00 -0.32301900011E-02  0.80842503578E-01  0.13257486891E+00  0.19734256262E-01 0.  0.
         14    1    1    2    0    0  0.53813841813E-03 -0.12749730916E-01 -0.19105389120E-01  0.22975228504E-01  0.00000000000E+00 0. -1.
     999901    1    3    3    0    0 -0.10369195795E+00  0.15979920917E-01 -0.61737114459E-01  0.88837990259E+00  0.88000000000E+00 0.  1.
        -11    1    4    4    0    0  0.64382143072E-01 -0.56019591583E-02  0.61356713560E-01  0.89114250896E-01  0.51100000000E-03 0.  1.
         11    1    4    4    0    0  0.38771676462E-01  0.23717691572E-02  0.19485790018E-01  0.43460618014E-01  0.51100000000E-03 0. -1.
</event>
<event>
 8    1  0.1090774E+005  0.1043930E+01  0.7957747E-01            NaN
         13   -1    0    0    0    0  0.00000000000E+00  0.00000000000E+00  0.74505805969E-08  0.10566000000E+00  0.10566000000E+00 0. -1.
     999900   -1    0    0    0    0 -0.00000000000E+00 -0.00000000000E+00 -0.74505805969E-08  0.93827000000E+00  0.93827000000E+00 0. -1.
     999902    2    1    2    0    0 -0.11774778329E-01  0.18741821352E-01 -0.17083185950E-01  0.10159704486E+01  0.10155856517E+01 0.  0.
     999903    2    3    3    0    0 -0.10839449996E+00  0.50946405457E-01 -0.44910897866E-01  0.12965961859E+00  0.21206699305E-01 0.  0.
         14    1    1    2    0    0  0.11774778329E-01 -0.18741821352E-01  0.17083185950E-01  0.27959551400E-01  0.00000000000E+00 0. -1.
     999901    1    3    3    0    0  0.96619721628E-01 -0.32204584105E-01  0.27827711916E-01  0.88631083001E+00  0.88000000000E+00 0.  1.
        -11    1    4    4    0    0 -0.53921937983E-01  0.22164967390E-01 -0.32714283291E-01  0.66853172157E-01  0.51100000000E-03 0. -1.
         11    1    4    4    0    0 -0.54472561975E-01  0.28781438067E-01 -0.12196614576E-01  0.62806446432E-01  0.51100000000E-03 0.  1.
</event>
<event>
 8    1  0.1090774E+005  0.1043930E+01  0.7957747E-01            NaN
         13   -1    0    0    0    0  0.00000000000E+00  0.00000000000E+00  0.74505805969E-08  0.10566000000E+00  0.10566000000E+00 0.  1.
     999900   -1    0    0    0    0 -0.00000000000E+00 -0.00000000000E+00 -0.74505805969E-08  0.93827000000E+00  0.93827000000E+00 0. -1.
     999902    2    1    2    0    0 -0.76822858515E-03  0.23410072275E-01  0.19658066815E-02  0.10204249781E+01  0.10201542285E+01 0.  0.
     999903    2    3    3    0    0  0.28481359073E-01 -0.20050626351E-02 -0.12551647116E+00  0.13039509172E+00  0.20815554837E-01 0.  0.
         14    1    1    2    0    0  0.76822858515E-03 -0.23410072275E-01 -0.19658066815E-02  0.23505021910E-01  0.00000000000E+00 0. -1.
     999901    1    3    3    0    0 -0.29249587658E-01  0.25415134910E-01  0.12748227784E+00  0.89002988637E+00  0.88000000000E+00 0.  1.
        -11    1    4    4    0    0  0.20135076616E-01 -0.46374049926E-02 -0.46409149268E-01  0.50803514565E-01  0.51100000000E-03 0.  1.
         11    1    4    4    0    0  0.83462824566E-02  0.26323423575E-02 -0.79107321890E-01  0.79591577160E-01  0.51100000000E-03 0. -1.
</event>
<event>
 8    1  0.1090774E+005  0.1043930E+01  0.7957747E-01            NaN
         13   -1    0    0    0    0  0.00000000000E+00  0.00000000000E+00  0.74505805969E-08  0.10566000000E+00  0.10566000000E+00 0. -1.
     999900   -1    0    0    0    0 -0.00000000000E+00 -0.00000000000E+00 -0.74505805969E-08  0.93827000000E+00  0.93827000000E+00 0.  1.
     999902    2    1    2    0    0  0.16426485466E-01 -0.22092181751E-02 -0.16661424491E-01  0.10204286567E+01  0.10201579928E+01 0.  0.
     999903    2    3    3    0    0 -0.11380810970E+00 -0.10708722289E-01  0.54172836255E-01  0.12798774336E+00  0.19473153229E-01 0.  0.
         14    1    1    2    0    0 -0.16426485466E-01  0.22092181751E-02  0.16661424491E-01  0.23501343276E-01  0.00000000000E+00 0.  1.
     999901    1    3    3    0    0  0.13023459516E+00  0.84995041142E-02 -0.70834260746E-01  0.89244091336E+00  0.88000000000E+00 0.  1.
        -11    1    4    4    0    0 -0.58824330930E-01 -0.28480383856E-02  0.38171784419E-01  0.70183755091E-01  0.51100000000E-03 0.  1.
         11    1    4    4    0    0 -0.54983778768E-01 -0.78606839037E-02  0.16001051836E-01  0.57803988270E-01  0.51100000000E-03 0. -1.
</event>
<event>
 8    1  0.1090774E+005  0.1043930E+01  0.7957747E-01            NaN
         13   -1    0    0    0    0  0.00000000000E+00  0.00000000000E+00  0.74505805969E-08  0.10566000000E+00  0.10566000000E+00 0.  1.
     999900   -1    0    0    0    0 -0.00000000000E+00 -0.00000000000E+00 -0.74505805969E-08  0.93827000000E+00  0.93827000000E+00 0.  1.
     999902    2    1    2    0    0  0.16962157393E-01 -0.54021466392E-02  0.15335261373E-01  0.10204338681E+01  0.10201633257E+01 0.  0.
     999903    2    3    3    0    0  0.11670077407E+00 -0.61295191521E-01  0.39285820867E-02  0.13296446783E+00  0.16968935645E-01 0.  0.
         14    1    1    2    0    0 -0.16962157393E-01  0.54021466392E-02 -0.15335261373E-01  0.23496131876E-01  0.00000000000E+00 0. -1.
     999901    1    3    3    0    0 -0.99738616675E-01  0.55893044882E-01  0.11406679287E-01  0.88746940029E+00  0.88000000000E+00 0. -1.
        -11    1    4    4    0    0  0.54203857298E-01 -0.21551579312E-01 -0.40314133222E-02  0.58472575890E-01  0.51100000000E-03 0.  1.
         11    1    4    4    0    0  0.62496916770E-01 -0.39743612209E-01  0.79599954089E-02  0.74491891942E-01  0.51100000000E-03 0. -1.
</event>
<event>
 8    1  0.1090774E+005  0.1043930E+01  0.7957747E-01            NaN
         13   -1    0    0    0    0  0.00000000000E+00  0.00000000000E+00  0.74505805969E-08  0.10566000000E+00  0.10566000000E+00 0.  1.
     999900   -1    0    0    0    0 -0.00000000000E+00 -0.00000000000E+00 -0.74505805969E-08  0.93827000000E+00  0.93827000000E+00 0.  1.
     999902    2    1    2    0    0  0.74623993149E-02  0.18159729441E-01  0.79159217503E-02  0.10227610370E+01  0.10225419374E+01 0.  0.
     999903    2    3    3    0    0 -0.10620612933E+00 -0.39319695841E-01  0.64405409563E-01  0.13179780490E+00  0.19920446948E-01 0.  0.
         14    1    1    2    0    0 -0.74623993149E-02 -0.18159729441E-01 -0.79159217503E-02  0.21168962990E-01  0.00000000000E+00 0.  1.
     999901    1    3    3    0    0  0.11366852865E+00  0.57479425282E-01 -0.56489487813E-01  0.89096323211E+00  0.88000000000E+00 0. -1.
        -11    1    4    4    0    0 -0.83249324488E-01 -0.24922480619E-01  0.56159404513E-01  0.10346844883E+00  0.51100000000E-03 0.  1.
         11    1    4    4    0    0 -0.22956804846E-01 -0.14397215221E-01  0.82460050506E-02  0.28329356067E-01  0.51100000000E-03 0. -1.
</event>
<event>
 8    1  0.1090774E+005  0.1043930E+01  0.7957747E-01            NaN
         13   -1    0    0    0    0  0.00000000000E+00  0.00000000000E+00  0.74505805969E-08  0.10566000000E+00  0.10566000000E+00 0. -1.
     999900   -1    0    0    0    0 -0.00000000000E+00 -0.00000000000E+00 -0.74505805969E-08  0.93827000000E+00  0.93827000000E+00 0.  1.
     999902    2    1    2    0    0  0.10141746408E-02 -0.22202710009E-01  0.26716714349E-02  0.10215441404E+01  0.10212988319E+01 0.  0.
     999903    2    3    3    0    0 -0.57264662240E-01  0.72230435415E-01  0.90052289655E-01  0.13028132045E+00  0.19165861408E-01 0.  0.
         14    1    1    2    0    0 -0.10141746408E-02  0.22202710009E-01 -0.26716714349E-02  0.22385859604E-01  0.00000000000E+00 0. -1.
     999901    1    3    3    0    0  0.58278836881E-01 -0.94433145424E-01 -0.87380618220E-01  0.89126281995E+00  0.88000000000E+00 0.  1.
        -11    1    4    4    0    0 -0.26440850338E-01  0.20101156606E-01  0.26499934573E-01  0.42493325556E-01  0.51100000000E-03 0. -1.
         11    1    4    4    0    0 -0.30823811902E-01  0.52129278809E-01  0.63552355083E-01  0.87787994890E-01  0.51100000000E-03 0.  1.
</event>
<event>
 8    1  0.1090774E+005  0.1043930E+01  0.7957747E-01            NaN
         13   -1    0    0    0    0  0.00000000000E+00  0.00000000000E+00  0.74505805969E-08  0.10566000000E+00  0.10566000000E+00 0. -1.
     999900   -1    0    0    0    0 -0.00000000000E+00 -0.00000000000E+00 -0.74505805969E-08  0.93827000000E+00  0.93827000000E+00 0.  1.
     999902    2    1    2    0    0 -0.23181121127E-01  0.82158206567E-03  0.18348700925E-02  0.10206618647E+01  0.10203966071E+01 0.  0.
     999903    2    3    3    0    0  0.12551304107E+00  0.53919904285E-02 -0.16811344919E-01  0.12798133735E+00  0.17720167973E-01 0.  0.
         14    1    1    2    0    0  0.23181121127E-01 -0.82158206567E-03 -0.18348700925E-02  0.23268135337E-01  0.00000000000E+00 0.  1.
     999901    1    3    3    0    0 -0.14869416220E+00 -0.45704083628E-02  0.18646215012E-01  0.89268052731E+00  0.88000000000E+00 0. -1.
        -11    1    4    4    0    0  0.13611295384E-01  0.53896253263E-02 -0.49000972027E-02  0.15446277765E-01  0.51100000000E-03 0. -1.
         11    1    4    4    0    0  0.11190174569E+00  0.23651021885E-05 -0.11911247717E-01  0.11253505959E+00  0.51100000000E-03 0.  1.
</event>
<event>
 8    1  0.1090774E+005  0.1043930E+01  0.7957747E-01            NaN
         13   -1    0    0    0    0  0.00000000000E+00  0.00000000000E+00  0.74505805969E-08  0.10566000000E+00  0.10566000000E+00 0. -1.
     999900   -1    0    0    0    0 -0.00000000000E+00 -0.00000000000E+00 -0.74505805969E-08  0.93827000000E+00  0.93827000000E+00 0.  1.
     999902    2    1    2    0    0 -0.24099891042E-02 -0.43928192431E-02 -0.23634141125E-01  0.10197705808E+01  0.10194843598E+01 0.  0.
     999903    2    3    3    0    0 -0.85988382634E-01 -0.58581539582E-01 -0.79629145779E-01  0.13238272547E+00  0.18936378158E-01 0.  0.
         14    1    1    2    0    0  0.24099891042E-02  0.43928192431E-02  0.23634141125E-01  0.24159419179E-01  0.00000000000E+00 0. -1.
     999901    1    3    3    0    0  0.83578393529E-01  0.54188720339E-01  0.55995004654E-01  0.88738785535E+00  0.88000000000E+00 0.  1.
        -11    1    4    4    0    0 -0.40322885189E-01 -0.16743656696E-01 -0.36494121665E-01  0.56906652921E-01  0.51100000000E-03 0. -1.
         11    1    4    4    0    0 -0.45665497444E-01 -0.41837882886E-01 -0.43135024114E-01  0.75476072550E-01  0.51100000000E-03 0.  1.
</event>
<event>
 8    1  0.1090774E+005  0.1043930E+01  0.7957747E-01            NaN
         13   -1    0    0    0    0  0.00000000000E+00  0.00000000000E+00  0.74505805969E-08  0.10566000000E+00  0.10566000000E+00 0.  1.
     999900   -1    0    0    0    0 -0.00000000000E+00 -0.00000000000E+00 -0.74505805969E-08  0.93827000000E+00  0.93827000000E+00 0.  1.
     999902    2    1    2    0    0  0.35901430371E-01  0.45954284481E-02 -0.12033363604E-01  0.10057877334E+01  0.10050642428E+01 0.  0.
     999903    2    3    3    0    0 -0.82096449681E-01 -0.42822015495E-01  0.63178929022E-01  0.11347119610E+00  0.17623371179E-01 0.  0.
         14    1    1    2    0    0 -0.35901430371E-01 -0.45954284481E-02  0.12033363604E-01  0.38142266646E-01  0.00000000000E+00 0. -1.
     999901    1    3    3    0    0  0.11799788005E+00  0.47417443943E-01 -0.75212292626E-01  0.89231653725E+00  0.88000000000E+00 0. -1.
        -11    1    4    4    0    0 -0.48793429298E-01 -0.22679082040E-01  0.26468272347E-01  0.59966407820E-01  0.51100000000E-03 0.  1.
         11    1    4    4    0    0 -0.33303020383E-01 -0.20142933455E-01  0.36710656676E-01  0.53504788284E-01  0.51100000000E-03 0. -1.
</event>
<event>
 8    1  0.1090774E+005  0.1043930E+01  0.7957747E-01            NaN
         13   -1    0    0    0    0  0.00000000000E+00  0.00000000000E+00  0.74505805969E-08  0.10566000000E+00  0.10566000000E+00 0. -1.
     999900   -1    0    0    0    0 -0.00000000000E+00 -0.00000000000E+00 -0.74505805969E-08  0.93827000000E+00  0.93827000000E+00 0.  1.
     999902    2    1    2    0    0 -0.11001718757E-01 -0.20896010897E-01  0.11418943668E-02  0.10202871362E+01  0.10200131642E+01 0.  0.
     999903    2    3    3    0    0 -0.53874342334E-01 -0.32119790511E-01 -0.11415868537E+00  0.13165995970E+00  0.19183686765E-01 0.  0.
         14    1    1    2    0    0  0.11001718757E-01  0.20896010897E-01 -0.11418943668E-02  0.23642863823E-01  0.00000000000E+00 0. -1.
     999901    1    3    3    0    0  0.42872623577E-01  0.11223779613E-01  0.11530057974E+00  0.88862717647E+00  0.88000000000E+00 0. -1.
        -11    1    4    4    0    0 -0.10973311865E-01 -0.16671560657E-01 -0.36445866847E-01  0.41556188941E-01  0.51100000000E-03 0. -1.
         11    1    4    4    0    0 -0.42901030469E-01 -0.15448229853E-01 -0.77712818527E-01  0.90103770761E-01  0.51100000000E-03 0.  1.
</event>
<event>
 8    1  0.1090774E+005  0.1043930E+01  0.7957747E-01            NaN
         13   -1    0    0    0    0  0.00000000000E+00  0.00000000000E+00  0.74505805969E-08  0.10566000000E+00  0.10566000000E+00 0.  1.
     999900   -1    0    0    0    0 -0.00000000000E+00 -0.00000000000E+00 -0.74505805969E-08  0.93827000000E+00  0.93827000000E+00 0. -1.
     999902    2    1    2    0    0  0.18607222572E-01 -0.21887116200E-02  0.15160656103E-01  0.10198288655E+01  0.10195440404E+01 0.  0.
     999903    2    3    3    0    0 -0.77583117266E-01  0.15745852060E-01  0.10130785531E+00  0.13022470073E+00  0.20691041333E-01 0.  0.
         14    1    1    2    0    0 -0.18607222572E-01  0.21887116200E-02 -0.15160656103E-01  0.24101134494E-01  0.00000000000E+00 0. -1.
     999901    1    3    3    0    0  0.96190339838E-01 -0.17934563680E-01 -0.86147199206E-01  0.88960416477E+00  0.88000000000E+00 0. -1.
        -11    1    4    4    0    0 -0.40318260345E-01  0.24616911723E-06  0.60941422844E-01  0.73073115826E-01  0.51100000000E-03 0. -1.
         11    1    4    4    0    0 -0.37264856922E-01  0.15745605890E-01  0.40366432465E-01  0.57151584906E-01  0.51100000000E-03 0.  1.
</event>
<event>
 8    1  0.1090774E+005  0.1043930E+01  0.7957747E-01            NaN
         13   -1    0    0    0    0  0.00000000000E+00  0.00000000000E+00  0.74505805969E-08  0.10566000000E+00  0.10566000000E+00 0. -1.
     999900   -1    0    0    0    0 -0.00000000000E+00 -0.00000000000E+00 -0.74505805969E-08  0.93827000000E+00  0.93827000000E+00 0.  1.
     999902    2    1    2    0    0  0.19471445499E-01 -0.12263949431E-02 -0.13233241626E-01  0.10203554392E+01  0.10200830664E+01 0.  0.
     999903    2    3    3    0    0 -0.11281138912E+00 -0.45246494553E-01 -0.38183865902E-01  0.12903111483E+00  0.20429542191E-01 0.  0.
         14    1    1    2    0    0 -0.19471445499E-01  0.12263949431E-02  0.13233241626E-01  0.23574560830E-01  0.00000000000E+00 0.  1.
     999901    1    3    3    0    0  0.13228283462E+00  0.44020099610E-01  0.24950624275E-01  0.89132432434E+00  0.88000000000E+00 0.  1.
        -11    1    4    4    0    0 -0.82161135175E-01 -0.37965173922E-01 -0.36136542612E-01  0.97457259336E-01  0.51100000000E-03 0. -1.
         11    1    4    4    0    0 -0.30650253948E-01 -0.72813206310E-02 -0.20473232892E-02  0.31573855496E-01  0.51100000000E-03 0.  1.
</event>
<event>
 8    1  0.1090774E+005  0.1043930E+01  0.7957747E-01            NaN
         13   -1    0    0    0    0  0.00000000000E+00  0.00000000000E+00  0.74505805969E-08  0.10566000000E+00  0.10566000000E+00 0.  1.
     999900   -1    0    0    0    0 -0.00000000000E+00 -0.00000000000E+00 -0.74505805969E-08  0.93827000000E+00  0.93827000000E+00 0.  1.
     999902    2    1    2    0    0  0.21657907946E-01 -0.10892669644E-01  0.93649239719E-03  0.10196690798E+01  0.10193804197E+01 0.  0.
     999903    2    3    3    0    0  0.10190657098E+00  0.72227854954E-01 -0.35386886491E-01  0.13137393893E+00  0.20126297580E-01 0.  0.
         14    1    1    2    0    0 -0.21657907946E-01  0.10892669644E-01 -0.93649239719E-03  0.24260920151E-01  0.00000000000E+00 0. -1.
     999901    1    3    3    0    0 -0.80248663033E-01 -0.83120524598E-01  0.36323378888E-01  0.88829514092E+00  0.88000000000E+00 0. -1.
        -11    1    4    4    0    0  0.48875928378E-01  0.43658584306E-01 -0.11333669419E-01  0.66510461898E-01  0.51100000000E-03 0.  1.
         11    1    4    4    0    0  0.53030642601E-01  0.28569270648E-01 -0.24053217072E-01  0.64863477031E-01  0.51100000000E-03 0. -1.
</event>
<event>
 8    1  0.1090774E+005  0.1043930E+01  0.7957747E-01            NaN
         13   -1    0    0    0    0  0.00000000000E+00  0.00000000000E+00  0.74505805969E-08  0.10566000000E+00  0.10566000000E+00 0.  1.
     999900   -1    0    0    0    0 -0.00000000000E+00 -0.00000000000E+00 -0.74505805969E-08  0.93827000000E+00  0.93827000000E+00 0. -1.
     999902    2    1    2    0    0 -0.10529620556E-01 -0.18244523204E-01 -0.11734720027E-01  0.10198169498E+01  0.10195318396E+01 0.  0.
     999903    2    3    3    0    0  0.15112684338E-01  0.10307313397E-01  0.12553324198E+00  0.12834893098E+00  0.19499212910E-01 0.  0.
         14    1    1    2    0    0  0.10529620556E-01  0.18244523204E-01  0.11734720027E-01  0.24113050203E-01  0.00000000000E+00 0.  1.
     999901    1    3    3    0    0 -0.25642304894E-01 -0.28551836601E-01 -0.13726796201E+00  0.89146801881E+00  0.88000000000E+00 0. -1.
        -11    1    4    4    0    0  0.11898540443E-01 -0.31106636649E-02  0.73057342280E-01  0.74087029061E-01  0.51100000000E-03 0.  1.
         11    1    4    4    0    0  0.32141438944E-02  0.13417977062E-01  0.52475899704E-01  0.54261901922E-01  0.51100000000E-03 0. -1.
</event>
<event>
 8    1  0.1090774E+005  0.1043930E+01  0.7957747E-01            NaN
         13   -1    0    0    0    0  0.00000000000E+00  0.00000000000E+00  0.74505805969E-08  0.10566000000E+00  0.10566000000E+00 0. -1.
     999900   -1    0    0    0    0 -0.00000000000E+00 -0.00000000000E+00 -0.74505805969E-08  0.93827000000E+00  0.93827000000E+00 0.  1.
     999902    2    1    2    0    0  0.39099537141E-02  0.22851005896E-01 -0.31619258720E-02  0.10205322654E+01  0.10202640103E+01 0.  0.
     999903    2    3    3    0    0 -0.65885270796E-01  0.62920789392E-01  0.92919789032E-01  0.13165170153E+00  0.19954665525E-01 0.  0.
         14    1    1    2    0    0 -0.39099537141E-02 -0.22851005896E-01  0.31619258720E-02  0.23397734585E-01  0.00000000000E+00 0. -1.
     999901    1    3    3    0    0  0.69795224510E-01 -0.40069783497E-01 -0.96081714904E-01  0.88888056389E+00  0.88000000000E+00 0.  1.
        -11    1    4    4    0    0 -0.25410287313E-01  0.24436629937E-01  0.50153489378E-01  0.61306322691E-01  0.51100000000E-03 0. -1.
         11    1    4    4    0    0 -0.40474983483E-01  0.38484159455E-01  0.42766299654E-01  0.70345378839E-01  0.51100000000E-03 0.  1.
</event>
<event>
 8    1  0.1090774E+005  0.1043930E+01  0.7957747E-01            NaN
         13   -1    0    0    0    0  0.00000000000E+00  0.00000000000E+00  0.74505805969E-08  0.10566000000E+00  0.10566000000E+00 0.  1.
     999900   -1    0    0    0    0 -0.00000000000E+00 -0.00000000000E+00 -0.74505805969E-08  0.93827000000E+00  0.93827000000E+00 0.  1.
     999902    2    1    2    0    0  0.69890175623E-02 -0.22121687732E-01 -0.10066727618E-01  0.10186405864E+01  0.10183266126E+01 0.  0.
     999903    2    3    3    0    0 -0.62221391939E-02  0.31155925607E-01  0.12143990678E+00  0.12717716393E+00  0.20419925300E-01 0.  0.
         14    1    1    2    0    0 -0.69890175623E-02  0.22121687732E-01  0.10066727618E-01  0.25289413586E-01  0.00000000000E+00 0. -1.
     999901    1    3    3    0    0  0.13211156756E-01 -0.53277613338E-01 -0.13150663440E+00  0.89146342249E+00  0.88000000000E+00 0.  1.
        -11    1    4    4    0    0 -0.75014071606E-02  0.22563295592E-01  0.51839175622E-01  0.57034504184E-01  0.51100000000E-03 0. -1.
         11    1    4    4    0    0  0.12792679667E-02  0.85926300146E-02  0.69600731156E-01  0.70142659741E-01  0.51100000000E-03 0.  1.
</event>
<event>
 8    1  0.1090774E+005  0.1043930E+01  0.7957747E-01            NaN
         13   -1    0    0    0    0  0.00000000000E+00  0.00000000000E+00  0.74505805969E-08  0.10566000000E+00  0.10566000000E+00 0.  1.
     999900   -1    0    0    0    0 -0.00000000000E+00 -0.00000000000E+00 -0.74505805969E-08  0.93827000000E+00  0.93827000000E+00 0.  1.
     999902    2    1    2    0    0 -0.12908526126E-01  0.36461639720E-02 -0.20668518790E-01  0.10192903525E+01  0.10189924978E+01 0.  0.
     999903    2    3    3    0    0 -0.92074048159E-01  0.53869711152E-02  0.88018638388E-01  0.12907514910E+00  0.20160942651E-01 0.  0.
         14    1    1    2    0    0  0.12908526126E-01 -0.36461639720E-02  0.20668518790E-01  0.24639647470E-01  0.00000000000E+00 0.  1.
     999901    1    3    3    0    0  0.79165522033E-01 -0.17408071432E-02 -0.10868715718E+00  0.89021520343E+00  0.88000000000E+00 0.  1.
        -11    1    4    4    0    0 -0.46318913816E-01 -0.69716297140E-02  0.47603287908E-01  0.66786072939E-01  0.51100000000E-03 0. -1.
         11    1    4    4    0    0 -0.45755134343E-01  0.12358600829E-01  0.40415350480E-01  0.62289076157E-01  0.51100000000E-03 0.  1.
</event>
<event>
 8    1  0.1090774E+005  0.1043930E+01  0.7957747E-01            NaN
         13   -1    0    0    0    0  0.00000000000E+00  0.00000000000E+00  0.74505805969E-08  0.10566000000E+00  0.10566000000E+00 0. -1.
     999900   -1    0    0    0    0 -0.00000000000E+00 -0.00000000000E+00 -0.74505805969E-08  0.93827000000E+00  0.93827000000E+00 0.  1.
     999902    2    1    2    0    0  0.20339259307E-01  0.11359899673E-01  0.54173872356E-02  0.10200117878E+01  0.10197313207E+01 0.  0.
     999903    2    3    3    0    0  0.59500986847E-01 -0.28528589285E-01 -0.11078797794E+00  0.13061400316E+00  0.20779651669E-01 0.  0.
         14    1    1    2    0    0 -0.20339259307E-01 -0.11359899673E-01 -0.54173872356E-02  0.23918212187E-01  0.00000000000E+00 0.  1.
     999901    1    3    3    0    0 -0.39161727539E-01  0.39888488958E-01  0.11620536517E+00  0.88939778466E+00  0.88000000000E+00 0. -1.
        -11    1    4    4    0    0  0.21560490123E-01 -0.36855305130E-03 -0.41113268355E-01  0.46427928249E-01  0.51100000000E-03 0.  1.
         11    1    4    4    0    0  0.37940496724E-01 -0.28160036234E-01 -0.69674709581E-01  0.84186074908E-01  0.51100000000E-03 0. -1.
</event>
<event>
 8    1  0.1090774E+005  0.1043930E+01  0.7957747E-01            NaN
         13   -1    0    0    0    0  0.00000000000E+00  0.00000000000E+00  0.74505805969E-08  0.10566000000E+00  0.10566000000E+00 0. -1.
     999900   -1    0    0    0    0 -0.00000000000E+00 -0.00000000000E+00 -0.74505805969E-08  0.93827000000E+00  0.93827000000E+00 0.  1.
     999902    2    1    2    0    0 -0.20207435316E-01  0.12761929190E-01  0.62003453833E-02  0.10192388769E+01  0.10189397610E+01 0.  0.
     999903    2    3    3    0    0  0.76178923728E-01 -0.64502171155E-01  0.77284251658E-01  0.12777211184E+00  0.19725579995E-01 0.  0.
         14    1    1    2    0    0  0.20207435316E-01 -0.12761929190E-01 -0.62003453833E-02  0.24691123133E-01  0.00000000000E+00 0.  1.
     999901    1    3    3    0    0 -0.96386359044E-01  0.77264100345E-01 -0.71083906275E-01  0.89146676502E+00  0.88000000000E+00 0.  1.
        -11    1    4    4    0    0  0.34801792777E-01 -0.25618164454E-01  0.45267940233E-01  0.62585163293E-01  0.51100000000E-03 0.  1.
         11    1    4    4    0    0  0.41377130951E-01 -0.38884006701E-01  0.32016311426E-01  0.65186948549E-01  0.51100000000E-03 0. -1.
</event>
<event>
 8    1  0.1090774E+005  0.1043930E+01  0.7957747E-01            NaN
         13   -1    0    0    0    0  0.00000000000E+00  0.00000000000E+00  0.74505805969E-08  0.10566000000E+00  0.10566000000E+00 0. -1.
     999900   -1    0    0    0    0 -0.00000000000E+00 -0.00000000000E+00 -0.74505805969E-08  0.93827000000E+00  0.93827000000E+00 0.  1.
     999902    2    1    2    0    0  0.91558747369E-02 -0.13023453734E-02  0.20877194304E-01  0.10210961789E+01  0.10208408412E+01 0.  0.
     999903    2    3    3    0    0 -0.12158180694E+00  0.38750023285E-02  0.44432885348E-01  0.13111077622E+00  0.20459787864E-01 0.  0.
         14    1    1    2    0    0 -0.91558747369E-02  0.13023453734E-02 -0.20877194304E-01  0.22833821136E-01  0.00000000000E+00 0.  1.
     999901    1    3    3    0    0  0.13073768167E+00 -0.51773477019E-02 -0.23555691044E-01  0.88998540264E+00  0.88000000000E+00 0.  1.
        -11    1    4    4    0    0 -0.10336223961E+00  0.98723956691E-02  0.40907482495E-01  0.11160152337E+00  0.51100000000E-03 0. -1.
         11    1    4    4    0    0 -0.18219567329E-01 -0.59973933407E-02  0.35254028526E-02  0.19509252851E-01  0.51100000000E-03 0.  1.
</event>
<event>
 8    1  0.1090774E+005  0.1043930E+01  0.7957747E-01            NaN
         13   -1    0    0    0    0  0.00000000000E+00  0.00000000000E+00  0.74505805969E-08  0.10566000000E+00  0.10566000000E+00 0.  1.
     999900   -1    0    0    0    0 -0.00000000000E+00 -0.00000000000E+00 -0.74505805969E-08  0.93827000000E+00  0.93827000000E+00 0.  1.
     999902    2    1    2    0    0 -0.10513339590E-01 -0.70885177753E-02 -0.19653150788E-01  0.10205414616E+01  0.10202734198E+01 0.  0.
     999903    2    3    3    0    0  0.42444996126E-01  0.75420898097E-01  0.92599184116E-01  0.12800968303E+00  0.17943814657E-01 0.  0.
         14    1    1    2    0    0  0.10513339590E-01  0.70885177753E-02  0.19653150788E-01  0.23388538422E-01  0.00000000000E+00 0.  1.
     999901    1    3    3    0    0 -0.52958335716E-01 -0.82509415872E-01 -0.11225233490E+00  0.89253177855E+00  0.88000000000E+00 0.  1.
        -11    1    4    4    0    0  0.32100366977E-01  0.40201613375E-01  0.49484873871E-01  0.71383591540E-01  0.51100000000E-03 0.  1.
         11    1    4    4    0    0  0.10344629149E-01  0.35219284722E-01  0.43114310244E-01  0.56626091489E-01  0.51100000000E-03 0. -1.
</event>
<event>
 8    1  0.1090774E+005  0.1043930E+01  0.7957747E-01            NaN
         13   -1    0    0    0    0  0.00000000000E+00  0.00000000000E+00  0.74505805969E-08  0.10566000000E+00  0.10566000000E+00 0. -1.
     999900   -1    0    0    0    0 -0.00000000000E+00 -0.00000000000E+00 -0.74505805969E-08  0.93827000000E+00  0.93827000000E+00 0.  1.
     999902    2    1    2    0    0  0.16024029234E-01  0.16179289957E-01  0.45667181520E-02  0.10207051458E+01  0.10204408855E+01 0.  0.
     999903    2    3    3    0    0 -0.15535168233E-01  0.12273725779E+00 -0.42697888009E-01  0.13245713629E+00  0.20396259759E-01 0.  0.
         14    1    1    2    0    0 -0.16024029234E-01 -0.16179289957E-01 -0.45667181520E-02  0.23224854167E-01  0.00000000000E+00 0. -1.
     999901    1    3    3    0    0  0.31559197467E-01 -0.10655796784E+00  0.47264606161E-01  0.88824800954E+00  0.88000000000E+00 0. -1.
        -11    1    4    4    0    0 -0.16147176008E-01  0.57316894735E-01 -0.14998673863E-01  0.61409926345E-01  0.51100000000E-03 0.  1.
         11    1    4    4    0    0  0.61200777488E-03  0.65420363058E-01 -0.27699214146E-01  0.71047209949E-01  0.51100000000E-03 0. -1.
</event>
<event>
 8    1  0.1090774E+005  0.1043930E+01  0.7957747E-01            NaN
         13   -1    0    0    0    0  0.00000000000E+00  0.00000000000E+00  0.74505805969E-08  0.10566000000E+00  0.10566000000E+00 0. -1.
     999900   -1    0    0    0    0 -0.00000000000E+00 -0.00000000000E+00 -0.74505805969E-08  0.93827000000E+00  0.93827000000E+00 0. -1.
     999902    2    1    2    0    0 -0.65115440142E-02  0.20281103989E-01  0.86879412101E-02  0.10209255720E+01  0.10206663607E+01 0.  0.
     999903    2    3    3    0    0 -0.12003548043E+00 -0.96176417634E-02  0.50900740462E-01  0.13212664112E+00  0.19119317948E-01 0.  0.
         14    1    1    2    0    0  0.65115440142E-02 -0.20281103989E-01 -0.86879412101E-02  0.23004427986E-01  0.00000000000E+00 0.  1.
     999901    1    3    3    0    0  0.11352393642E+00  0.29898745753E-01 -0.42212799252E-01  0.88879893089E+00  0.88000000000E+00 0. -1.
        -11    1    4    4    0    0 -0.38983073954E-01 -0.10590733659E-01  0.11536420731E-01  0.42014209722E-01  0.51100000000E-03 0.  1.
         11    1    4    4    0    0 -0.81052406477E-01  0.97309189512E-03  0.39364319732E-01  0.90112431399E-01  0.51100000000E-03 0. -1.
</event>
<event>
 8    1  0.1090774E+005  0.1043930E+01  0.7957747E-01            NaN
         13   -1    0    0    0    0  0.00000000000E+00  0.00000000000E+00  0.74505805969E-08  0.10566000000E+00  0.10566000000E+00 0. -1.
     999900   -1    0    0    0    0 -0.00000000000E+00 -0.00000000000E+00 -0.74505805969E-08  0.93827000000E+00  0.93827000000E+00 0. -1.
     999902    2    1    2    0    0 -0.16332020841E-01 -0.14803639020E-01 -0.10028447446E-01  0.10197132209E+01  0.10194256228E+01 0.  0.
     999903    2    3    3    0    0 -0.63972642697E-01 -0.10162997658E-01 -0.11380514588E+00  0.13232335867E+00  0.19028254948E-01 0.  0.
         14    1    1    2    0    0  0.16332020841E-01  0.14803639020E-01  0.10028447446E-01  0.24216779125E-01  0.00000000000E+00 0. -1.
     999901    1    3    3    0    0  0.47640621856E-01 -0.46406413625E-02  0.10377669843E+00  0.88738986220E+00  0.88000000000E+00 0.  1.
        -11    1    4    4    0    0 -0.29618012206E-01 -0.22016076674E-02 -0.70301608395E-01  0.76319401120E-01  0.51100000000E-03 0.  1.
         11    1    4    4    0    0 -0.34354630492E-01 -0.79613899906E-02 -0.43503537485E-01  0.56003957552E-01  0.51100000000E-03 0. -1.
</event>
<event>
 8    1  0.1090774E+005  0.1043930E+01  0.7957747E-01            NaN
         13   -1    0    0    0    0  0.00000000000E+00  0.00000000000E+00  0.74505805969E-08  0.10566000000E+00  0.10566000000E+00 0.  1.
     999900   -1    0    0    0    0 -0.00000000000E+00 -0.00000000000E+00 -0.74505805969E-08  0.93827000000E+00  0.93827000000E+00 0.  1.
     999902    2    1    2    0    0 -0.17744063701E-01  0.84256589817E-02  0.14118925843E-01  0.10197393491E+01  0.10194523787E+01 0.  0.
     999903    2    3    3    0    0 -0.69334913592E-02 -0.12509039718E+00  0.25709670274E-01  0.12952715465E+00  0.20508921871E-01 0.  0.
         14    1    1    2    0    0  0.17744063701E-01 -0.84256589817E-02 -0.14118925843E-01  0.24190650939E-01  0.00000000000E+00 0.  1.
     999901    1    3    3    0    0 -0.10810572342E-01  0.13351605616E+00 -0.11590744431E-01  0.89021219441E+00  0.88000000000E+00 0.  1.
        -11    1    4    4    0    0 -0.10633215205E-01 -0.99134781898E-01  0.13546898168E-01  0.10062082199E+00  0.51100000000E-03 0.  1.
         11    1    4    4    0    0  0.36997238460E-02 -0.25955615281E-01  0.12162772106E-01  0.28906332654E-01  0.51100000000E-03 0. -1.
</event>
<event>
 8    1  0.1090774E+005  0.1043930E+01  0.7957747E-01            NaN
         13   -1    0    0    0    0  0.00000000000E+00  0.00000000000E+00  0.74505805969E-08  0.10566000000E+00  0.10566000000E+00 0. -1.
     999900   -1    0    0    0    0 -0.00000000000E+00 -0.00000000000E+00 -0.74505805969E-08  0.93827000000E+00  0.93827000000E+00 0. -1.
     999902    2    1    2    0    0  0.20302997887E-02 -0.76210833959E-02 -0.22587520169E-01  0.10200051364E+01  0.10197245114E+01 0.  0.
     999903    2    3    3    0    0  0.69315960593E-01 -0.10578377709E+00  0.25936487143E-01  0.13066951145E+00  0.20172009497E-01 0.  0.
         14    1    1    2    0    0 -0.20302997887E-02  0.76210833959E-02  0.22587520169E-01  0.23924863568E-01  0.00000000000E+00 0. -1.
     999901    1    3    3    0    0 -0.67285660804E-01  0.98162693697E-01 -0.48524007313E-01  0.88933562499E+00  0.88000000000E+00 0. -1.
        -11    1    4    4    0    0  0.47361545898E-01 -0.85237233382E-01  0.14951263978E-01  0.98652437375E-01  0.51100000000E-03 0. -1.
         11    1    4    4    0    0  0.21954414695E-01 -0.20546543711E-01  0.10985223165E-01  0.32017074071E-01  0.51100000000E-03 0.  1.
</event>
<event>
 8    1  0.1090774E+005  0.1043930E+01  0.7957747E-01            NaN
         13   -1    0    0    0    0  0.00000000000E+00  0.00000000000E+00  0.74505805969E-08  0.10566000000E+00  0.10566000000E+00 0.  1.
     999900   -1    0    0    0    0 -0.00000000000E+00 -0.00000000000E+00 -0.74505805969E-08  0.93827000000E+00  0.93827000000E+00 0. -1.
     999902    2    1    2    0    0  0.16780087925E-01 -0.16314564220E-01 -0.33062108932E-02  0.10202938542E+01  0.10200200398E+01 0.  0.
     999903    2    3    3    0    0  0.89079184175E-01 -0.39606208559E-01  0.87275230887E-01  0.13238920979E+00  0.20154010362E-01 0.  0.
         14    1    1    2    0    0 -0.16780087925E-01  0.16314564220E-01  0.33062108932E-02  0.23636145771E-01  0.00000000000E+00 0. -1.
     999901    1    3    3    0    0 -0.72299096251E-01  0.23291644339E-01 -0.90581441780E-01  0.88790464444E+00  0.88000000000E+00 0. -1.
        -11    1    4    4    0    0  0.48387884874E-01 -0.31050810382E-01  0.56911665580E-01  0.80899561359E-01  0.51100000000E-03 0.  1.
         11    1    4    4    0    0  0.40691299302E-01 -0.85553981772E-02  0.30363565307E-01  0.51489648435E-01  0.51100000000E-03 0. -1.
</event>
<event>
 8    1  0.1090774E+005  0.1043930E+01  0.7957747E-01            NaN
         13   -1    0    0    0    0  0.00000000000E+00  0.00000000000E+00  0.74505805969E-08  0.10566000000E+00  0.10566000000E+00 0.  1.
     999900   -1    0    0    0    0 -0.00000000000E+00 -0.00000000000E+00 -0.74505805969E-08  0.93827000000E+00  0.93827000000E+00 0.  1.
     999902    2    1    2    0    0 -0.22314081225E-02 -0.19980459489E-01 -0.11822780320E-01  0.10206067052E+01  0.10203401740E+01 0.  0.
     999903    2    3    3    0    0  0.39918710741E-01  0.10498342779E+00 -0.60764915992E-01  0.12943447819E+00  0.21116002243E-01 0.  0.
         14    1    1    2    0    0  0.22314081225E-02  0.19980459489E-01  0.11822780320E-01  0.23323294752E-01  0.00000000000E+00 0.  1.
     999901    1    3    3    0    0 -0.42150118863E-01 -0.12496388728E+00  0.48942135671E-01  0.89117222706E+00  0.88000000000E+00 0. -1.
        -11    1    4    4    0    0  0.13718540124E-01  0.44395974735E-01 -0.36549688980E-01  0.59121415759E-01  0.51100000000E-03 0.  1.
         11    1    4    4    0    0  0.26200170617E-01  0.60587453051E-01 -0.24215227012E-01  0.70313062426E-01  0.51100000000E-03 0. -1.
</event>
<event>
 8    1  0.1090774E+005  0.1043930E+01  0.7957747E-01            NaN
         13   -1    0    0    0    0  0.00000000000E+00  0.00000000000E+00  0.74505805969E-08  0.10566000000E+00  0.10566000000E+00 0. -1.
     999900   -1    0    0    0    0 -0.00000000000E+00 -0.00000000000E+00 -0.74505805969E-08  0.93827000000E+00  0.93827000000E+00 0. -1.
     999902    2    1    2    0    0  0.23269241681E-01 -0.20972244874E-02 -0.93473641100E-02  0.10187659547E+01  0.10184551248E+01 0.  0.
     999903    2    3    3    0    0  0.67015651694E-01 -0.52940832317E-01 -0.98301558353E-01  0.13174190233E+00  0.19972560093E-01 0.  0.
         14    1    1    2    0    0 -0.23269241681E-01  0.20972244874E-02  0.93473641100E-02  0.25164045279E-01  0.00000000000E+00 0. -1.
     999901    1    3    3    0    0 -0.43746410013E-01  0.50843607829E-01  0.88954194243E-01  0.88702405239E+00  0.88000000000E+00 0.  1.
        -11    1    4    4    0    0  0.41397654307E-01 -0.26395612430E-01 -0.68691006809E-01  0.84434647361E-01  0.51100000000E-03 0.  1.
         11    1    4    4    0    0  0.25617997387E-01 -0.26545219886E-01 -0.29610551545E-01  0.47307254969E-01  0.51100000000E-03 0. -1.
</event>
<event>
 8    1  0.1090774E+005  0.1043930E+01  0.7957747E-01            NaN
         13   -1    0    0    0    0  0.00000000000E+00  0.00000000000E+00  0.74505805969E-08  0.10566000000E+00  0.10566000000E+00 0. -1.
     999900   -1    0    0    0    0 -0.00000000000E+00 -0.00000000000E+00 -0.74505805969E-08  0.93827000000E+00  0.93827000000E+00 0.  1.
     999902    2    1    2    0    0 -0.21201856184E-01 -0.10273540067E-01 -0.31752069935E-02  0.10201571947E+01  0.10198801673E+01 0.  0.
     999903    2    3    3    0    0 -0.91563806008E-01 -0.84572417183E-01 -0.42766798084E-01  0.13334344810E+00  0.20372820461E-01 0.  0.
         14    1    1    2    0    0  0.21201856184E-01  0.10273540067E-01  0.31752069935E-02  0.23772805274E-01  0.00000000000E+00 0. -1.
     999901    1    3    3    0    0  0.70361949824E-01  0.74298877116E-01  0.39591591091E-01  0.88681374663E+00  0.88000000000E+00 0. -1.
        -11    1    4    4    0    0 -0.42072773367E-01 -0.34296802476E-01 -0.86154926563E-02  0.54962503159E-01  0.51100000000E-03 0. -1.
         11    1    4    4    0    0 -0.49491032641E-01 -0.50275614707E-01 -0.34151305428E-01  0.78380944939E-01  0.51100000000E-03 0.  1.
</event>
<event>
 8    1  0.1090774E+005  0.1043930E+01  0.7957747E-01            NaN
         13   -1    0    0    0    0  0.00000000000E+00  0.00000000000E+00  0.74505805969E-08  0.10566000000E+00  0.10566000000E+00 0. -1.
     999900   -1    0    0    0    0 -0.00000000000E+00 -0.00000000000E+00 -0.74505805969E-08  0.93827000000E+00  0.93827000000E+00 0. -1.
     999902    2    1    2    0    0  0.15196571544E-01  0.94312644216E-02 -0.15741641500E-01  0.10201038838E+01  0.10198255978E+01 0.  0.
     999903    2    3    3    0    0 -0.11052178372E+00 -0.53869213157E-01  0.28538243327E-01  0.12781874805E+00  0.20155500897E-01 0.  0.
         14    1    1    2    0    0 -0.15196571544E-01 -0.94312644216E-02  0.15741641500E-01  0.23826116184E-01  0.00000000000E+00 0. -1.
     999901    1    3    3    0    0  0.12571835527E+00  0.63300477579E-01 -0.44279884827E-01  0.89228513577E+00  0.88000000000E+00 0.  1.
        -11    1    4    4    0    0 -0.68814864940E-01 -0.40962482851E-01  0.11304656933E-01  0.80879336220E-01  0.51100000000E-03 0. -1.
         11    1    4    4    0    0 -0.41706918785E-01 -0.12906730306E-01  0.17233586394E-01  0.46939411827E-01  0.51100000000E-03 0.  1.
</event>
<event>
 8    1  0.1090774E+005  0.1043930E+01  0.7957747E-01            NaN
         13   -1    0    0    0    0  0.00000000000E+00  0.00000000000E+00  0.74505805969E-08  0.10566000000E+00  0.10566000000E+00 0. -1.
     999900   -1    0    0    0    0 -0.00000000000E+00 -0.00000000000E+00 -0.74505805969E-08  0.93827000000E+00  0.93827000000E+00 0. -1.
     999902    2    1    2    0    0  0.31117546231E-02  0.21633977582E-01  0.82230184301E-02  0.10205776974E+01  0.10203104951E+01 0.  0.
     999903    2    3    3    0    0 -0.34740117809E-01  0.11767058198E+00  0.48629505795E-01  0.13362308876E+00  0.20905964891E-01 0.  0.
         14    1    1    2    0    0 -0.31117546231E-02 -0.21633977582E-01 -0.82230184301E-02  0.23352302562E-01  0.00000000000E+00 0.  1.
     999901    1    3    3    0    0  0.37851872432E-01 -0.96036604396E-01 -0.40406487364E-01  0.88695460868E+00  0.88000000000E+00 0. -1.
        -11    1    4    4    0    0 -0.23250048220E-01  0.50328472504E-01  0.28857240054E-01  0.62502170454E-01  0.51100000000E-03 0. -1.
         11    1    4    4    0    0 -0.11490069589E-01  0.67342109474E-01  0.19772265740E-01  0.71120918308E-01  0.51100000000E-03 0.  1.
</event>
<event>
 8    1  0.1090774E+005  0.1043930E+01  0.7957747E-01            NaN
         13   -1    0    0    0    0  0.00000000000E+00  0.00000000000E+00  0.74505805969E-08  0.10566000000E+00  0.10566000000E+00 0. -1.
     999900   -1    0    0    0    0 -0.00000000000E+00 -0.00000000000E+00 -0.74505805969E-08  0.93827000000E+00  0.93827000000E+00 0. -1.
     999902    2    1    2    0    0  0.12741414002E-01  0.41347937447E-02 -0.19519148283E-01  0.10202564430E+01  0.10199817509E+01 0.  0.
     999903    2    3    3    0    0 -0.70099376159E-01 -0.10028081040E+00 -0.33112339414E-01  0.13011601043E+00  0.29386828278E-01 0.  0.
         14    1    1    2    0    0 -0.12741414002E-01 -0.41347937447E-02  0.19519148283E-01  0.23673556974E-01  0.00000000000E+00 0. -1.
     999901    1    3    3    0    0  0.82840790161E-01  0.10441560414E+00  0.13593191131E-01  0.89014043260E+00  0.88000000000E+00 0. -1.
        -11    1    4    4    0    0 -0.21067622756E-01 -0.28645700014E-01 -0.23836494451E-01  0.42811919446E-01  0.51100000000E-03 0.  1.
         11    1    4    4    0    0 -0.49031753403E-01 -0.71635110383E-01 -0.92758449630E-02  0.87304090982E-01  0.51100000000E-03 0. -1.
</event>
<event>
 8    1  0.1090774E+005  0.1043930E+01  0.7957747E-01            NaN
         13   -1    0    0    0    0  0.00000000000E+00  0.00000000000E+00  0.74505805969E-08  0.10566000000E+00  0.10566000000E+00 0. -1.
     999900   -1    0    0    0    0 -0.00000000000E+00 -0.00000000000E+00 -0.74505805969E-08  0.93827000000E+00  0.93827000000E+00 0.  1.
     999902    2    1    2    0    0  0.21073901397E-01  0.74801979335E-02 -0.68597049030E-02  0.10205394414E+01  0.10202713527E+01 0.  0.
     999903    2    3    3    0    0  0.31698394254E-01  0.12525048984E+00 -0.21897048647E-01  0.13250293131E+00  0.19623268427E-01 0.  0.
         14    1    1    2    0    0 -0.21073901397E-01 -0.74801979335E-02  0.68597049030E-02  0.23390558621E-01  0.00000000000E+00 0. -1.
     999901    1    3    3    0    0 -0.10624492857E-01 -0.11777029191E+00  0.15037343744E-01  0.88803651007E+00  0.88000000000E+00 0.  1.
        -11    1    4    4    0    0  0.74258241221E-02  0.33033671142E-01  0.28601972917E-02  0.33982468165E-01  0.51100000000E-03 0.  1.
         11    1    4    4    0    0  0.24272570132E-01  0.92216818697E-01 -0.24757245939E-01  0.98520463148E-01  0.51100000000E-03 0. -1.
</event>
<event>
 8    1  0.1090774E+005  0.1043930E+01  0.7957747E-01            NaN
         13   -1    0    0    0    0  0.00000000000E+00  0.00000000000E+00  0.74505805969E-08  0.10566000000E+00  0.10566000000E+00 0.  1.
     999900   -1    0    0    0    0 -0.00000000000E+00 -0.00000000000E+00 -0.74505805969E-08  0.93827000000E+00  0.93827000000E+00 0. -1.
     999902    2    1    2    0    0 -0.16054380687E-01 -0.15830187699E-01 -0.56551226789E-03  0.10213765571E+01  0.10211275208E+01 0.  0.
     999903    2    3    3    0    0  0.30145166108E-01  0.79970570468E-01 -0.95573743899E-01  0.12989534729E+00  0.20843165422E-01 0.  0.
         14    1    1    2    0    0  0.16054380687E-01  0.15830187699E-01  0.56551226789E-03  0.22553442885E-01  0.00000000000E+00 0. -1.
     999901    1    3    3    0    0 -0.46199546795E-01 -0.95800758167E-01  0.95008231631E-01  0.89148120982E+00  0.88000000000E+00 0. -1.
        -11    1    4    4    0    0  0.60836923784E-02  0.36258475030E-01 -0.29759062058E-01  0.47302761231E-01  0.51100000000E-03 0.  1.
         11    1    4    4    0    0  0.24061473730E-01  0.43712095438E-01 -0.65814681841E-01  0.82592586062E-01  0.51100000000E-03 0. -1.
</event>
<event>
 8    1  0.1090774E+005  0.1043930E+01  0.7957747E-01            NaN
         13   -1    0    0    0    0  0.00000000000E+00  0.00000000000E+00  0.74505805969E-08  0.10566000000E+00  0.10566000000E+00 0. -1.
     999900   -1    0    0    0    0 -0.00000000000E+00 -0.00000000000E+00 -0.74505805969E-08  0.93827000000E+00  0.93827000000E+00 0.  1.
     999902    2    1    2    0    0 -0.22937792956E-01  0.58993424280E-03  0.81154446796E-02  0.10195917418E+01  0.10193012161E+01 0.  0.
     999903    2    3    3    0    0  0.61196754004E-01  0.90932732120E-01 -0.63209953065E-01  0.12811669705E+00  0.20114308936E-01 0.  0.
         14    1    1    2    0    0  0.22937792956E-01 -0.58993424280E-03 -0.81154446796E-02  0.24338258164E-01  0.00000000000E+00 0. -1.
     999901    1    3    3    0    0 -0.84134546960E-01 -0.90342797878E-01  0.71325397744E-01  0.89147504479E+00  0.88000000000E+00 0.  1.
        -11    1    4    4    0    0  0.27884209883E-01  0.24656249203E-01 -0.22605356834E-01  0.43551384182E-01  0.51100000000E-03 0. -1.
         11    1    4    4    0    0  0.33312544121E-01  0.66276482917E-01 -0.40604596231E-01  0.84565312864E-01  0.51100000000E-03 0.  1.
</event>
<event>
 8    1  0.1090774E+005  0.1043930E+01  0.7957747E-01            NaN
         13   -1    0    0    0    0  0.00000000000E+00  0.00000000000E+00  0.74505805969E-08  0.10566000000E+00  0.10566000000E+00 0.  1.
     999900   -1    0    0    0    0 -0.00000000000E+00 -0.00000000000E+00 -0.74505805969E-08  0.93827000000E+00  0.93827000000E+00 0. -1.
     999902    2    1    2    0    0  0.12474534076E-01 -0.19054661970E-01 -0.64034037956E-02  0.10202720685E+01  0.10199977431E+01 0.  0.
     999903    2    3    3    0    0  0.14568422011E-01 -0.42581757584E-01  0.12117705400E+00  0.13075833515E+00  0.19708343320E-01 0.  0.
         14    1    1    2    0    0 -0.12474534076E-01  0.19054661970E-01  0.64034037956E-02  0.23657931511E-01  0.00000000000E+00 0.  1.
     999901    1    3    3    0    0 -0.20938879350E-02  0.23527095614E-01 -0.12758045779E+00  0.88951373334E+00  0.88000000000E+00 0. -1.
        -11    1    4    4    0    0 -0.41479993022E-02 -0.15496952980E-01  0.44700130549E-01  0.47494465382E-01  0.51100000000E-03 0. -1.
         11    1    4    4    0    0  0.18716421313E-01 -0.27084804605E-01  0.76476923447E-01  0.83263869764E-01  0.51100000000E-03 0.  1.
</event>
<event>
 8    1  0.1090774E+005  0.1043930E+01  0.7957747E-01            NaN
         13   -1    0    0    0    0  0.00000000000E+00  0.00000000000E+00  0.74505805969E-08  0.10566000000E+00  0.10566000000E+00 0.  1.
     999900   -1    0    0    0    0 -0.00000000000E+00 -0.00000000000E+00 -0.74505805969E-08  0.93827000000E+00  0.93827000000E+00 0. -1.
     999902    2    1    2    0    0  0.61847327684E-02  0.26265675432E-01  0.95790208984E-03  0.10169289963E+01  0.10165704743E+01 0.  0.
     999903    2    3    3    0    0  0.45067314643E-01  0.92818283311E-01  0.77048843220E-01  0.13028874448E+00  0.19807476664E-01 0.  0.
         14    1    1    2    0    0 -0.61847327684E-02 -0.26265675432E-01 -0.95790208984E-03  0.27001003717E-01  0.00000000000E+00 0. -1.
     999901    1    3    3    0    0 -0.38882581874E-01 -0.66552607879E-01 -0.76090941130E-01  0.88664025180E+00  0.88000000000E+00 0. -1.
        -11    1    4    4    0    0  0.27140231330E-01  0.60791461243E-01  0.37837618504E-01  0.76577675675E-01  0.51100000000E-03 0. -1.
         11    1    4    4    0    0  0.17927083312E-01  0.32026822067E-01  0.39211224716E-01  0.53711068809E-01  0.51100000000E-03 0.  1.
</event>
<event>
 8    1  0.1090774E+005  0.1043930E+01  0.7957747E-01            NaN
         13   -1    0    0    0    0  0.00000000000E+00  0.00000000000E+00  0.74505805969E-08  0.10566000000E+00  0.10566000000E+00 0.  1.
     999900   -1    0    0    0    0 -0.00000000000E+00 -0.00000000000E+00 -0.74505805969E-08  0.93827000000E+00  0.93827000000E+00 0.  1.
     999902    2    1    2    0    0 -0.22584438359E-01  0.48646285845E-02  0.20600293450E-02  0.10207359234E+01  0.10204723711E+01 0.  0.
     999903    2    3    3    0    0  0.42986441003E-01 -0.71407409077E-01 -0.96970113033E-01  0.12948739857E+00  0.20418897784E-01 0.  0.
         14    1    1    2    0    0  0.22584438359E-01 -0.48646285845E-02 -0.20600293450E-02  0.23194076575E-01  0.00000000000E+00 0. -1.
     999901    1    3    3    0    0 -0.65570879363E-01  0.76272037661E-01  0.99030142378E-01  0.89124852485E+00  0.88000000000E+00 0. -1.
        -11    1    4    4    0    0  0.56385094784E-02 -0.27108881610E-01 -0.35294249082E-01  0.44862338219E-01  0.51100000000E-03 0. -1.
         11    1    4    4    0    0  0.37347931525E-01 -0.44298527467E-01 -0.61675863951E-01  0.84625060355E-01  0.51100000000E-03 0.  1.
</event>
<event>
 8    1  0.1090774E+005  0.1043930E+01  0.7957747E-01            NaN
         13   -1    0    0    0    0  0.00000000000E+00  0.00000000000E+00  0.74505805969E-08  0.10566000000E+00  0.10566000000E+00 0. -1.
     999900   -1    0    0    0    0 -0.00000000000E+00 -0.00000000000E+00 -0.74505805969E-08  0.93827000000E+00  0.93827000000E+00 0. -1.
     999902    2    1    2    0    0  0.11737614897E-01  0.19935877553E-01 -0.11350076113E-01  0.10181611225E+01  0.10178349750E+01 0.  0.
     999903    2    3    3    0    0 -0.12971710420E-01 -0.96732492318E-01  0.76848958383E-01  0.12574802932E+00  0.19528546575E-01 0.  0.
         14    1    1    2    0    0 -0.11737614897E-01 -0.19935877553E-01  0.11350076113E-01  0.25768877450E-01  0.00000000000E+00 0. -1.
     999901    1    3    3    0    0  0.24709325317E-01  0.11666836987E+00 -0.88199034497E-01  0.89241309323E+00  0.88000000000E+00 0. -1.
        -11    1    4    4    0    0 -0.10902543450E-01 -0.78289977228E-01  0.51560809392E-01  0.94376714152E-01  0.51100000000E-03 0. -1.
         11    1    4    4    0    0 -0.20691669695E-02 -0.18442515091E-01  0.25288148991E-01  0.31371315165E-01  0.51100000000E-03 0.  1.
</event>
<event>
 8    1  0.1090774E+005  0.1043930E+01  0.7957747E-01            NaN
         13   -1    0    0    0    0  0.00000000000E+00  0.00000000000E+00  0.74505805969E-08  0.10566000000E+00  0.10566000000E+00 0.  1.
     999900   -1    0    0    0    0 -0.00000000000E+00 -0.00000000000E+00 -0.74505805969E-08  0.93827000000E+00  0.93827000000E+00 0.  1.
     999902    2    1    2    0    0 -0.22808255609E-02  0.11355839859E-01 -0.20896121102E-01  0.10200384713E+01  0.10197586371E+01 0.  0.
     999903    2    3    3    0    0 -0.85920598821E-01  0.22040853138E-01 -0.95394391646E-01  0.13287457810E+00  0.26218600989E-01 0.  0.
         14    1    1    2    0    0  0.22808255609E-02 -0.11355839859E-01  0.20896121102E-01  0.23891528650E-01  0.00000000000E+00 0.  1.
     999901    1    3    3    0    0  0.83639773260E-01 -0.10685013279E-01  0.74498270544E-01  0.88716389325E+00  0.88000000000E+00 0. -1.
        -11    1    4    4    0    0 -0.17875681227E-01 -0.12611951831E-02 -0.78454902952E-02  0.19568940482E-01  0.51100000000E-03 0. -1.
         11    1    4    4    0    0 -0.68044917594E-01  0.23302048322E-01 -0.87548901351E-01  0.11330563761E+00  0.51100000000E-03 0.  1.
</event>
<event>
 8    1  0.1090774E+005  0.1043930E+01  0.7957747E-01            NaN
         13   -1    0    0    0    0  0.00000000000E+00  0.00000000000E+00  0.74505805969E-08  0.10566000000E+00  0.10566000000E+00 0. -1.
     999900   -1    0    0    0    0 -0.00000000000E+00 -0.00000000000E+00 -0.74505805969E-08  0.93827000000E+00  0.93827000000E+00 0. -1.
     999902    2    1    2    0    0  0.17262503890E-01 -0.15346262451E-01  0.45885034645E-02  0.10203809835E+01  0.10201092076E+01 0.  0.
     999903    2    3    3    0    0  0.60436532490E-01 -0.97732741721E-02  0.11556195971E+00  0.13234373043E+00  0.20302834869E-01 0.  0.
         14    1    1    2    0    0 -0.17262503890E-01  0.15346262451E-01 -0.45885034645E-02  0.23549016451E-01  0.00000000000E+00 0.  1.
     999901    1    3    3    0    0 -0.43174028600E-01 -0.55729882792E-02 -0.11097345624E+00  0.88803725312E+00  0.88000000000E+00 0. -1.
        -11    1    4    4    0    0  0.49586049145E-01 -0.19437881074E-02  0.77822980853E-01  0.92299686087E-01  0.51100000000E-03 0.  1.
         11    1    4    4    0    0  0.10850483345E-01 -0.78294860647E-02  0.37738978856E-01  0.40044044338E-01  0.51100000000E-03 0. -1.
</event>
<event>
 8    1  0.1090774E+005  0.1043930E+01  0.7957747E-01            NaN
         13   -1    0    0    0    0  0.00000000000E+00  0.00000000000E+00  0.74505805969E-08  0.10566000000E+00  0.10566000000E+00 0.  1.
     999900   -1    0    0    0    0 -0.00000000000E+00 -0.00000000000E+00 -0.74505805969E-08  0.93827000000E+00  0.93827000000E+00 0. -1.
     999902    2    1    2    0    0 -0.17121850587E-02 -0.71327294206E-02 -0.22984405924E-01  0.10198034519E+01  0.10195180186E+01 0.  0.
     999903    2    3    3    0    0 -0.27398809946E-01 -0.41795208092E-01  0.11555641325E+00  0.12792069690E+00  0.22646983151E-01 0.  0.
         14    1    1    2    0    0  0.17121850587E-02  0.71327294206E-02  0.22984405924E-01  0.24126548082E-01  0.00000000000E+00 0.  1.
     999901    1    3    3    0    0  0.25686624887E-01  0.34662478672E-01 -0.13854081917E+00  0.89188275502E+00  0.88000000000E+00 0. -1.
        -11    1    4    4    0    0 -0.21738345449E-01 -0.37374833265E-01  0.73688813560E-01  0.85438493604E-01  0.51100000000E-03 0.  1.
         11    1    4    4    0    0 -0.56604644970E-02 -0.44203748269E-02  0.41867599689E-01  0.42482203294E-01  0.51100000000E-03 0. -1.
</event>
<event>
 8    1  0.1090774E+005  0.1043930E+01  0.7957747E-01            NaN
         13   -1    0    0    0    0  0.00000000000E+00  0.00000000000E+00  0.74505805969E-08  0.10566000000E+00  0.10566000000E+00 0. -1.
     999900   -1    0    0    0    0 -0.00000000000E+00 -0.00000000000E+00 -0.74505805969E-08  0.93827000000E+00  0.93827000000E+00 0.  1.
     999902    2    1    2    0    0  0.11929494274E-01  0.15997175416E-01  0.12401838395E-01  0.10204347228E+01  0.10201642002E+01 0.  0.
     999903    2    3    3    0    0 -0.54614770666E-01  0.92708542035E-01  0.74796213260E-01  0.13239990875E+00  0.18910721212E-01 0.  0.
         14    1    1    2    0    0 -0.11929494274E-01 -0.15997175416E-01 -0.12401838395E-01  0.23495277195E-01  0.00000000000E+00 0.  1.
     999901    1    3    3    0    0  0.66544264940E-01 -0.76711366619E-01 -0.62394374866E-01  0.88803481406E+00  0.88000000000E+00 0. -1.
        -11    1    4    4    0    0 -0.24836337028E-01  0.58919738042E-01  0.48391920998E-01  0.80189889056E-01  0.51100000000E-03 0.  1.
         11    1    4    4    0    0 -0.29778433637E-01  0.33788803993E-01  0.26404292262E-01  0.52210019690E-01  0.51100000000E-03 0. -1.
</event>
<event>
 8    1  0.1090774E+005  0.1043930E+01  0.7957747E-01            NaN
         13   -1    0    0    0    0  0.00000000000E+00  0.00000000000E+00  0.74505805969E-08  0.10566000000E+00  0.10566000000E+00 0.  1.
     999900   -1    0    0    0    0 -0.00000000000E+00 -0.00000000000E+00 -0.74505805969E-08  0.93827000000E+00  0.93827000000E+00 0.  1.
     999902    2    1    2    0    0  0.18439698823E-01  0.14236007238E-01  0.80314913161E-02  0.10192887491E+01  0.10189908551E+01 0.  0.
     999903    2    3    3    0    0 -0.66963234769E-01  0.10023107995E+00 -0.42717431044E-01  0.12953357672E+00  0.20586995531E-01 0.  0.
         14    1    1    2    0    0 -0.18439698823E-01 -0.14236007238E-01 -0.80314913161E-02  0.24641250933E-01  0.00000000000E+00 0. -1.
     999901    1    3    3    0    0  0.85402933593E-01 -0.85995072708E-01  0.50748922360E-01  0.88975517235E+00  0.88000000000E+00 0. -1.
        -11    1    4    4    0    0 -0.87145455467E-02  0.17186784940E-01  0.47699583279E-03  0.19282570542E-01  0.51100000000E-03 0. -1.
         11    1    4    4    0    0 -0.58248689223E-01  0.83044295006E-01 -0.43194426877E-01  0.11025100618E+00  0.51100000000E-03 0.  1.
</event>
<event>
 8    1  0.1090774E+005  0.1043930E+01  0.7957747E-01            NaN
         13   -1    0    0    0    0  0.00000000000E+00  0.00000000000E+00  0.74505805969E-08  0.10566000000E+00  0.10566000000E+00 0. -1.
     999900   -1    0    0    0    0 -0.00000000000E+00 -0.00000000000E+00 -0.74505805969E-08  0.93827000000E+00  0.93827000000E+00 0.  1.
     999902    2    1    2    0    0 -0.23368380523E-01  0.44356516500E-02  0.58204013555E-03  0.10201372493E+01  0.10198597514E+01 0.  0.
     999903    2    3    3    0    0  0.84103862357E-01  0.30467502723E-02 -0.95067979532E-01  0.12845281058E+00  0.19479770632E-01 0.  0.
         14    1    1    2    0    0  0.23368380523E-01 -0.44356516500E-02 -0.58204013555E-03  0.23792750672E-01  0.00000000000E+00 0.  1.
     999901    1    3    3    0    0 -0.10747224288E+00  0.13889013777E-02  0.95650019668E-01  0.89168443874E+00  0.88000000000E+00 0. -1.
        -11    1    4    4    0    0  0.73279272470E-01  0.78521772087E-02 -0.87436958358E-01  0.11435467314E+00  0.51100000000E-03 0. -1.
         11    1    4    4    0    0  0.10824589887E-01 -0.48054269364E-02 -0.76310211738E-02  0.14098137445E-01  0.51100000000E-03 0.  1.
</event>
<event>
 8    1  0.1090774E+005  0.1043930E+01  0.7957747E-01            NaN
         13   -1    0    0    0    0  0.00000000000E+00  0.00000000000E+00  0.74505805969E-08  0.10566000000E+00  0.10566000000E+00 0.  1.
     999900   -1    0    0    0    0 -0.00000000000E+00 -0.00000000000E+00 -0.74505805969E-08  0.93827000000E+00  0.93827000000E+00 0. -1.
     999902    2    1    2    0    0 -0.87817854586E-02  0.21755834038E-01 -0.34886259507E-02  0.10202106707E+01  0.10199349029E+01 0.  0.
     999903    2    3    3    0    0  0.96576952013E-01 -0.79766155221E-01 -0.16984798977E-01  0.12802833254E+00  0.20322976129E-01 0.  0.
         14    1    1    2    0    0  0.87817854586E-02 -0.21755834038E-01  0.34886259507E-02  0.23719329281E-01  0.00000000000E+00 0.  1.
     999901    1    3    3    0    0 -0.10535873747E+00  0.10152198926E+00  0.13496173026E-01  0.89218233817E+00  0.88000000000E+00 0.  1.
        -11    1    4    4    0    0  0.42773135463E-01 -0.32699240883E-01  0.26048389691E-02  0.53905730482E-01  0.51100000000E-03 0. -1.
         11    1    4    4    0    0  0.53803816550E-01 -0.47066914338E-01 -0.19589637946E-01  0.74122602062E-01  0.51100000000E-03 0.  1.
</event>
<event>
 8    1  0.1090774E+005  0.1043930E+01  0.7957747E-01            NaN
         13   -1    0    0    0    0  0.00000000000E+00  0.00000000000E+00  0.74505805969E-08  0.10566000000E+00  0.10566000000E+00 0.  1.
     999900   -1    0    0    0    0 -0.00000000000E+00 -0.00000000000E+00 -0.74505805969E-08  0.93827000000E+00  0.93827000000E+00 0. -1.
     999902    2    1    2    0    0  0.21548313815E-01  0.79957604289E-02 -0.62145834874E-02  0.10201206938E+01  0.10198428050E+01 0.  0.
     999903    2    3    3    0    0  0.10120246799E+00  0.17912967534E-01  0.80790080011E-01  0.13219448813E+00  0.19634961944E-01 0.  0.
         14    1    1    2    0    0 -0.21548313815E-01 -0.79957604289E-02  0.62145834874E-02  0.23809306186E-01  0.00000000000E+00 0. -1.
     999901    1    3    3    0    0 -0.79654154173E-01 -0.99172071047E-02 -0.87004663498E-01  0.88792620569E+00  0.88000000000E+00 0. -1.
        -11    1    4    4    0    0  0.32169888056E-01 -0.23313848555E-02  0.19571073536E-01  0.37730956697E-01  0.51100000000E-03 0. -1.
         11    1    4    4    0    0  0.69032579932E-01  0.20244352389E-01  0.61219006475E-01  0.94463531432E-01  0.51100000000E-03 0.  1.
</event>
<event>
 8    1  0.1090774E+005  0.1043930E+01  0.7957747E-01            NaN
         13   -1    0    0    0    0  0.00000000000E+00  0.00000000000E+00  0.74505805969E-08  0.10566000000E+00  0.10566000000E+00 0. -1.
     999900   -1    0    0    0    0 -0.00000000000E+00 -0.00000000000E+00 -0.74505805969E-08  0.93827000000E+00  0.93827000000E+00 0.  1.
     999902    2    1    2    0    0  0.19461030932E-01 -0.13276586695E-01 -0.23408945789E-02  0.10202555567E+01  0.10199808438E+01 0.  0.
     999903    2    3    3    0    0  0.10941576078E-01  0.11397264877E+00  0.56059143480E-01  0.12914640877E+00  0.20656344671E-01 0.  0.
         14    1    1    2    0    0 -0.19461030932E-01  0.13276586695E-01  0.23408945789E-02  0.23674443322E-01  0.00000000000E+00 0. -1.
     999901    1    3    3    0    0  0.85194548540E-02 -0.12724923547E+00 -0.58400038059E-01  0.89110914791E+00  0.88000000000E+00 0.  1.
        -11    1    4    4    0    0 -0.42326444690E-02  0.58355678750E-01  0.24628672476E-01  0.63483329706E-01  0.51100000000E-03 0.  1.
         11    1    4    4    0    0  0.15174220547E-01  0.55616970024E-01  0.31430471004E-01  0.65663079065E-01  0.51100000000E-03 0. -1.
</event>
<event>
 8    1  0.1090774E+005  0.1043930E+01  0.7957747E-01            NaN
         13   -1    0    0    0    0  0.00000000000E+00  0.00000000000E+00  0.74505805969E-08  0.10566000000E+00  0.10566000000E+00 0. -1.
     999900   -1    0    0    0    0 -0.00000000000E+00 -0.00000000000E+00 -0.74505805969E-08  0.93827000000E+00  0.93827000000E+00 0. -1.
     999902    2    1    2    0    0 -0.14818992900E-01  0.41909255605E-02  0.18153053316E-01  0.10201245436E+01  0.10198467457E+01 0.  0.
     999903    2    3    3    0    0  0.58138510491E-01 -0.11307101705E+00 -0.72306111121E-02  0.12899184258E+00  0.20529793405E-01 0.  0.
         14    1    1    2    0    0  0.14818992900E-01 -0.41909255605E-02 -0.18153053316E-01  0.23805456356E-01  0.00000000000E+00 0.  1.
     999901    1    3    3    0    0 -0.72957503390E-01  0.11726194261E+00  0.25383664428E-01  0.89113270106E+00  0.88000000000E+00 0. -1.
        -11    1    4    4    0    0  0.79307839517E-02 -0.16361101913E-01 -0.83607007049E-02  0.20018627005E-01  0.51100000000E-03 0.  1.
         11    1    4    4    0    0  0.50207726539E-01 -0.96709915134E-01  0.11300895928E-02  0.10897321558E+00  0.51100000000E-03 0. -1.
</event>
<event>
 8    1  0.1090774E+005  0.1043930E+01  0.7957747E-01            NaN
         13   -1    0    0    0    0  0.00000000000E+00  0.00000000000E+00  0.74505805969E-08  0.10566000000E+00  0.10566000000E+00 0. -1.
     999900   -1    0    0    0    0 -0.00000000000E+00 -0.00000000000E+00 -0.74505805969E-08  0.93827000000E+00  0.93827000000E+00 0.  1.
     999902    2    1    2    0    0 -0.21199128041E-01  0.11328289785E-01  0.19687422066E-02  0.10198134263E+01  0.10195282318E+01 0.  0.
     999903    2    3    3    0    0 -0.61042250473E-01  0.73577370270E-01 -0.89015835772E-01  0.13204058611E+00  0.19264257133E-01 0.  0.
         14    1    1    2    0    0  0.21199128041E-01 -0.11328289785E-01 -0.19687422066E-02  0.24116573659E-01  0.00000000000E+00 0.  1.
     999901    1    3    3    0    0  0.39843122432E-01 -0.62249080485E-01  0.90984577978E-01  0.88777284023E+00  0.88000000000E+00 0. -1.
        -11    1    4    4    0    0 -0.23511550014E-01  0.39910004287E-01 -0.34331654878E-01  0.57658694695E-01  0.51100000000E-03 0. -1.
         11    1    4    4    0    0 -0.37530700459E-01  0.33667365984E-01 -0.54684180894E-01  0.74381891413E-01  0.51100000000E-03 0.  1.
</event>
<event>
 8    1  0.1090774E+005  0.1043930E+01  0.7957747E-01            NaN
         13   -1    0    0    0    0  0.00000000000E+00  0.00000000000E+00  0.74505805969E-08  0.10566000000E+00  0.10566000000E+00 0. -1.
     999900   -1    0    0    0    0 -0.00000000000E+00 -0.00000000000E+00 -0.74505805969E-08  0.93827000000E+00  0.93827000000E+00 0. -1.
     999902    2    1    2    0    0 -0.85952619252E-02  0.15418318636E-01  0.15304305559E-01  0.10205671054E+01  0.10202996578E+01 0.  0.
     999903    2    3    3    0    0 -0.46575484943E-01 -0.40928358926E-01 -0.11115815300E+00  0.12893366115E+00  0.20575413436E-01 0.  0.
         14    1    1    2    0    0  0.85952619252E-02 -0.15418318636E-01 -0.15304305559E-01  0.23362894636E-01  0.00000000000E+00 0.  1.
     999901    1    3    3    0    0  0.37980223018E-01  0.56346677562E-01  0.12646245856E+00  0.89163344421E+00  0.88000000000E+00 0.  1.
        -11    1    4    4    0    0 -0.10739187475E-01 -0.13336731589E-01 -0.15418762001E-01  0.23047730903E-01  0.51100000000E-03 0.  1.
         11    1    4    4    0    0 -0.35836297468E-01 -0.27591627336E-01 -0.95739390997E-01  0.10588593025E+00  0.51100000000E-03 0. -1.
</event>
<event>
 8    1  0.1090774E+005  0.1043930E+01  0.7957747E-01            NaN
         13   -1    0    0    0    0  0.00000000000E+00  0.00000000000E+00  0.74505805969E-08  0.10566000000E+00  0.10566000000E+00 0.  1.
     999900   -1    0    0    0    0 -0.00000000000E+00 -0.00000000000E+00 -0.74505805969E-08  0.93827000000E+00  0.93827000000E+00 0. -1.
     999902    2    1    2    0    0 -0.19334649047E-01 -0.11071307767E-01  0.86030751152E-02  0.10200466290E+01  0.10197669880E+01 0.  0.
     999903    2    3    3    0    0 -0.90758148689E-01  0.58557417583E-01  0.73361034928E-01  0.13204715317E+00  0.19712851321E-01 0.  0.
         14    1    1    2    0    0  0.19334649047E-01  0.11071307767E-01 -0.86030751152E-02  0.23883371012E-01  0.00000000000E+00 0.  1.
     999901    1    3    3    0    0  0.71423499642E-01 -0.69628725350E-01 -0.64757959813E-01  0.88799947582E+00  0.88000000000E+00 0. -1.
        -11    1    4    4    0    0 -0.51237388635E-01  0.27653571155E-01  0.28870629775E-01  0.64990494508E-01  0.51100000000E-03 0. -1.
         11    1    4    4    0    0 -0.39520760054E-01  0.30903846428E-01  0.44490405153E-01  0.67056658662E-01  0.51100000000E-03 0.  1.
</event>
<event>
 8    1  0.1090774E+005  0.1043930E+01  0.7957747E-01            NaN
         13   -1    0    0    0    0  0.00000000000E+00  0.00000000000E+00  0.74505805969E-08  0.10566000000E+00  0.10566000000E+00 0.  1.
     999900   -1    0    0    0    0 -0.00000000000E+00 -0.00000000000E+00 -0.74505805969E-08  0.93827000000E+00  0.93827000000E+00 0. -1.
     999902    2    1    2    0    0  0.19204212345E-01 -0.86571374427E-03  0.14009025275E-01  0.10201433647E+01  0.10198660110E+01 0.  0.
     999903    2    3    3    0    0 -0.11930829104E+00  0.10443895843E-01 -0.39201488502E-01  0.12764967860E+00  0.20350441672E-01 0.  0.
         14    1    1    2    0    0 -0.19204212345E-01  0.86571374427E-03 -0.14009025275E-01  0.23786635349E-01  0.00000000000E+00 0. -1.
     999901    1    3    3    0    0  0.13851250338E+00 -0.11309609587E-01  0.53210513776E-01  0.89249368605E+00  0.88000000000E+00 0.  1.
        -11    1    4    4    0    0 -0.60022313405E-01  0.92239201881E-02 -0.99925592459E-02  0.61545683613E-01  0.51100000000E-03 0.  1.
         11    1    4    4    0    0 -0.59285977630E-01  0.12199756548E-02 -0.29208929256E-01  0.66103994988E-01  0.51100000000E-03 0. -1.
</event>
<event>
 8    1  0.1090774E+005  0.1043930E+01  0.7957747E-01            NaN
         13   -1    0    0    0    0  0.00000000000E+00  0.00000000000E+00  0.74505805969E-08  0.10566000000E+00  0.10566000000E+00 0.  1.
     999900   -1    0    0    0    0 -0.00000000000E+00 -0.00000000000E+00 -0.74505805969E-08  0.93827000000E+00  0.93827000000E+00 0. -1.
     999902    2    1    2    0    0  0.79241106492E-02  0.19851373038E-01  0.11034867568E-01  0.10198751285E+01  0.10195914088E+01 0.  0.
     999903    2    3    3    0    0 -0.60483935844E-02  0.95386115424E-01  0.90265276135E-01  0.13298269656E+00  0.20037051348E-01 0.  0.
         14    1    1    2    0    0 -0.79241106492E-02 -0.19851373038E-01 -0.11034867568E-01  0.24054871510E-01  0.00000000000E+00 0. -1.
     999901    1    3    3    0    0  0.13972504234E-01 -0.75534742386E-01 -0.79230408567E-01  0.88689243193E+00  0.88000000000E+00 0. -1.
        -11    1    4    4    0    0  0.39660416544E-03  0.62461375368E-01  0.69850950975E-01  0.93706975091E-01  0.51100000000E-03 0. -1.
         11    1    4    4    0    0 -0.64449977498E-02  0.32924740056E-01  0.20414325161E-01  0.39275721464E-01  0.51100000000E-03 0.  1.
</event>
<event>
 8    1  0.1090774E+005  0.1043930E+01  0.7957747E-01            NaN
         13   -1    0    0    0    0  0.00000000000E+00  0.00000000000E+00  0.74505805969E-08  0.10566000000E+00  0.10566000000E+00 0. -1.
     999900   -1    0    0    0    0 -0.00000000000E+00 -0.00000000000E+00 -0.74505805969E-08  0.93827000000E+00  0.93827000000E+00 0.  1.
     999902    2    1    2    0    0 -0.20597864374E-01 -0.15031986784E-01 -0.17668291043E-02  0.10183692033E+01  0.10180483681E+01 0.  0.
     999903    2    3    3    0    0 -0.71416260931E-01 -0.60864090224E-01 -0.88176267817E-01  0.13149284086E+00  0.26656953825E-01 0.  0.
         14    1    1    2    0    0  0.20597864374E-01  0.15031986784E-01  0.17668291043E-02  0.25560796712E-01  0.00000000000E+00 0.  1.
     999901    1    3    3    0    0  0.50818396557E-01  0.45832103440E-01  0.86409438713E-01  0.88687636243E+00  0.88000000000E+00 0.  1.
        -11    1    4    4    0    0 -0.37571514008E-01 -0.44985066019E-01 -0.42153859462E-01  0.72197533324E-01  0.51100000000E-03 0.  1.
         11    1    4    4    0    0 -0.33844746923E-01 -0.15879024205E-01 -0.46022408355E-01  0.59295307536E-01  0.51100000000E-03 0. -1.
</event>
<event>
 8    1  0.1090774E+005  0.1043930E+01  0.7957747E-01            NaN
         13   -1    0    0    0    0  0.00000000000E+00  0.00000000000E+00  0.74505805969E-08  0.10566000000E+00  0.10566000000E+00 0. -1.
     999900   -1    0    0    0    0 -0.00000000000E+00 -0.00000000000E+00 -0.74505805969E-08  0.93827000000E+00  0.93827000000E+00 0. -1.
     999902    2    1    2    0    0 -0.21706311583E-02  0.22253442083E-01 -0.68753617570E-02  0.10205377380E+01  0.10202696098E+01 0.  0.
     999903    2    3    3    0    0 -0.48249325350E-01 -0.26784999974E-01 -0.11734900151E+00  0.13108147712E+00  0.19134572604E-01 0.  0.
         14    1    1    2    0    0  0.21706311583E-02 -0.22253442083E-01  0.68753617570E-02  0.23392262042E-01  0.00000000000E+00 0.  1.
     999901    1    3    3    0    0  0.46078694191E-01  0.49038442057E-01  0.11047363975E+00  0.88945626083E+00  0.88000000000E+00 0.  1.
        -11    1    4    4    0    0 -0.22015004519E-01 -0.38908309741E-02 -0.33381407012E-01  0.40179328575E-01  0.51100000000E-03 0.  1.
         11    1    4    4    0    0 -0.26234320830E-01 -0.22894169000E-01 -0.83967594499E-01  0.90902148547E-01  0.51100000000E-03 0. -1.
</event>
<event>
 8    1  0.1090774E+005  0.1043930E+01  0.7957747E-01            NaN
         13   -1    0    0    0    0  0.00000000000E+00  0.00000000000E+00  0.74505805969E-08  0.10566000000E+00  0.10566000000E+00 0.  1.
     999900   -1    0    0    0    0 -0.00000000000E+00 -0.00000000000E+00 -0.74505805969E-08  0.93827000000E+00  0.93827000000E+00 0.  1.
     999902    2    1    2    0    0 -0.15988412462E-01  0.14610109257E-01 -0.85984029362E-02  0.10206272714E+01  0.10203612155E+01 0.  0.
     999903    2    3    3    0    0  0.38398003433E-01  0.41496028048E-01 -0.11735317931E+00  0.13185939609E+00  0.20464716741E-01 0.  0.
         14    1    1    2    0    0  0.15988412462E-01 -0.14610109257E-01  0.85984029362E-02  0.23302728565E-01  0.00000000000E+00 0.  1.
     999901    1    3    3    0    0 -0.54386415895E-01 -0.26885918791E-01  0.10875477637E+00  0.88876787535E+00  0.88000000000E+00 0. -1.
        -11    1    4    4    0    0  0.36761626808E-01  0.28836820247E-01 -0.83631807652E-01  0.95799372543E-01  0.51100000000E-03 0.  1.
         11    1    4    4    0    0  0.16363766255E-02  0.12659207802E-01 -0.33721371658E-01  0.36060023546E-01  0.51100000000E-03 0. -1.
</event>
<event>
 8    1  0.1090774E+005  0.1043930E+01  0.7957747E-01            NaN
         13   -1    0    0    0    0  0.00000000000E+00  0.00000000000E+00  0.74505805969E-08  0.10566000000E+00  0.10566000000E+00 0.  1.
     999900   -1    0    0    0    0 -0.00000000000E+00 -0.00000000000E+00 -0.74505805969E-08  0.93827000000E+00  0.93827000000E+00 0. -1.
     999902    2    1    2    0    0 -0.14836605192E-02 -0.16320801755E-01  0.17010829567E-01  0.10203092858E+01  0.10200358329E+01 0.  0.
     999903    2    3    3    0    0 -0.23720544179E-01 -0.72961949076E-02 -0.12439863888E+00  0.12869694832E+00  0.21725203674E-01 0.  0.
         14    1    1    2    0    0  0.14836605192E-02  0.16320801755E-01 -0.17010829567E-01  0.23620714236E-01  0.00000000000E+00 0. -1.
     999901    1    3    3    0    0  0.22236883660E-01 -0.90246068471E-02  0.14140946845E+00  0.89161233745E+00  0.88000000000E+00 0.  1.
        -11    1    4    4    0    0 -0.20176552769E-02  0.31418459829E-02 -0.56977127855E-01  0.57101631751E-01  0.51100000000E-03 0.  1.
         11    1    4    4    0    0 -0.21702888903E-01 -0.10438040890E-01 -0.67421511024E-01  0.71595316565E-01  0.51100000000E-03 0. -1.
</event>
<event>
 8    1  0.1090774E+005  0.1043930E+01  0.7957747E-01            NaN
         13   -1    0    0    0    0  0.00000000000E+00  0.00000000000E+00  0.74505805969E-08  0.10566000000E+00  0.10566000000E+00 0. -1.
     999900   -1    0    0    0    0 -0.00000000000E+00 -0.00000000000E+00 -0.74505805969E-08  0.93827000000E+00  0.93827000000E+00 0. -1.
     999902    2    1    2    0    0  0.95738066029E-02 -0.20638910446E-01 -0.26353616284E-02  0.10210265608E+01  0.10207696460E+01 0.  0.
     999903    2    3    3    0    0  0.10010192647E+00  0.32250787423E-01 -0.76803773776E-01  0.13170456398E+00  0.19666304575E-01 0.  0.
         14    1    1    2    0    0 -0.95738066029E-02  0.20638910446E-01  0.26353616284E-02  0.22903439222E-01  0.00000000000E+00 0. -1.
     999901    1    3    3    0    0 -0.90528119862E-01 -0.52889697870E-01  0.74168412148E-01  0.88932199680E+00  0.88000000000E+00 0.  1.
        -11    1    4    4    0    0  0.39042961319E-01  0.13177268903E-01 -0.18581103642E-01  0.45205218480E-01  0.51100000000E-03 0. -1.
         11    1    4    4    0    0  0.61058965147E-01  0.19073518520E-01 -0.58222670134E-01  0.86499345501E-01  0.51100000000E-03 0.  1.
</event>
<event>
 8    1  0.1090774E+005  0.1043930E+01  0.7957747E-01            NaN
         13   -1    0    0    0    0  0.00000000000E+00  0.00000000000E+00  0.74505805969E-08  0.10566000000E+00  0.10566000000E+00 0. -1.
     999900   -1    0    0    0    0 -0.00000000000E+00 -0.00000000000E+00 -0.74505805969E-08  0.93827000000E+00  0.93827000000E+00 0.  1.
     999902    2    1    2    0    0  0.17639348693E-01  0.14067326642E-01  0.74790885848E-02  0.10201608379E+01  0.10198838964E+01 0.  0.
     999903    2    3    3    0    0 -0.56951669282E-01 -0.10647313097E+00  0.38373032472E-01  0.12828177790E+00  0.20092403250E-01 0.  0.
         14    1    1    2    0    0 -0.17639348693E-01 -0.14067326642E-01 -0.74790885848E-02  0.23769162106E-01  0.00000000000E+00 0.  1.
     999901    1    3    3    0    0  0.74591017975E-01  0.12054045761E+00 -0.30893943887E-01  0.89187905999E+00  0.88000000000E+00 0.  1.
        -11    1    4    4    0    0 -0.54442640362E-01 -0.86161193318E-01  0.31234473904E-01  0.10660021484E+00  0.51100000000E-03 0. -1.
         11    1    4    4    0    0 -0.25090289200E-02 -0.20311937650E-01  0.71385585675E-02  0.21681563059E-01  0.51100000000E-03 0.  1.
</event>
<event>
 8    1  0.1090774E+005  0.1043930E+01  0.7957747E-01            NaN
         13   -1    0    0    0    0  0.00000000000E+00  0.00000000000E+00  0.74505805969E-08  0.10566000000E+00  0.10566000000E+00 0. -1.
     999900   -1    0    0    0    0 -0.00000000000E+00 -0.00000000000E+00 -0.74505805969E-08  0.93827000000E+00  0.93827000000E+00 0.  1.
     999902    2    1    2    0    0  0.22022766482E-01 -0.58972329633E-02 -0.67908704774E-02  0.10201414414E+01  0.10198640423E+01 0.  0.
     999903    2    3    3    0    0  0.87188090165E-01  0.51565820158E-01 -0.83825848658E-01  0.13251375492E+00  0.16502286619E-01 0.  0.
         14    1    1    2    0    0 -0.22022766482E-01  0.58972329633E-02  0.67908704774E-02  0.23788558636E-01  0.00000000000E+00 0.  1.
     999901    1    3    3    0    0 -0.65165323683E-01 -0.57463053121E-01  0.77034978181E-01  0.88762768645E+00  0.88000000000E+00 0. -1.
        -11    1    4    4    0    0  0.51249115915E-01  0.25424513455E-01 -0.56122438101E-01  0.80142790979E-01  0.51100000000E-03 0.  1.
         11    1    4    4    0    0  0.35938974250E-01  0.26141306702E-01 -0.27703410557E-01  0.52370963937E-01  0.51100000000E-03 0. -1.
</event>
<event>
 8    1  0.1090774E+005  0.1043930E+01  0.7957747E-01            NaN
         13   -1    0    0    0    0  0.00000000000E+00  0.00000000000E+00  0.74505805969E-08  0.10566000000E+00  0.10566000000E+00 0.  1.
     999900   -1    0    0    0    0 -0.00000000000E+00 -0.00000000000E+00 -0.74505805969E-08  0.93827000000E+00  0.93827000000E+00 0. -1.
     999902    2    1    2    0    0  0.10108722132E-01  0.10951378881E-01 -0.14198398950E-01  0.10233456978E+01  0.10231386533E+01 0.  0.
     999903    2    3    3    0    0  0.77210071964E-01  0.78631697400E-01 -0.77085573530E-01  0.13596865656E+00  0.20023757701E-01 0.  0.
         14    1    1    2    0    0 -0.10108722132E-01 -0.10951378881E-01  0.14198398950E-01  0.20584302157E-01  0.00000000000E+00 0.  1.
     999901    1    3    3    0    0 -0.67101349832E-01 -0.67680318518E-01  0.62887174580E-01  0.88737704128E+00  0.88000000000E+00 0.  1.
        -11    1    4    4    0    0  0.32694363095E-01  0.46791023112E-01 -0.35409384081E-01  0.67174450679E-01  0.51100000000E-03 0. -1.
         11    1    4    4    0    0  0.44515708869E-01  0.31840674288E-01 -0.41676189450E-01  0.68794205884E-01  0.51100000000E-03 0.  1.
</event>
<event>
 8    1  0.1090774E+005  0.1043930E+01  0.7957747E-01            NaN
         13   -1    0    0    0    0  0.00000000000E+00  0.00000000000E+00  0.74505805969E-08  0.10566000000E+00  0.10566000000E+00 0. -1.
     999900   -1    0    0    0    0 -0.00000000000E+00 -0.00000000000E+00 -0.74505805969E-08  0.93827000000E+00  0.93827000000E+00 0. -1.
     999902    2    1    2    0    0 -0.25399791394E-01 -0.13156326563E-03  0.29066711383E-04  0.10185298512E+01  0.10182130869E+01 0.  0.
     999903    2    3    3    0    0  0.76529972356E-01 -0.25093565822E-01 -0.95800197240E-01  0.12712869232E+00  0.22304773148E-01 0.  0.
         14    1    1    2    0    0  0.25399791394E-01  0.13156326563E-03 -0.29066711383E-04  0.25400148752E-01  0.00000000000E+00 0.  1.
     999901    1    3    3    0    0 -0.10192976375E+00  0.24962002556E-01  0.95829263952E-01  0.89140115893E+00  0.88000000000E+00 0. -1.
        -11    1    4    4    0    0  0.27954718647E-01 -0.18444510706E-01 -0.29263415261E-01  0.44477801919E-01  0.51100000000E-03 0. -1.
         11    1    4    4    0    0  0.48575253709E-01 -0.66490551154E-02 -0.66536781979E-01  0.82650890400E-01  0.51100000000E-03 0.  1.
</event>
<event>
 8    1  0.1090774E+005  0.1043930E+01  0.7957747E-01            NaN
         13   -1    0    0    0    0  0.00000000000E+00  0.00000000000E+00  0.74505805969E-08  0.10566000000E+00  0.10566000000E+00 0. -1.
     999900   -1    0    0    0    0 -0.00000000000E+00 -0.00000000000E+00 -0.74505805969E-08  0.93827000000E+00  0.93827000000E+00 0.  1.
     999902    2    1    2    0    0 -0.28843778609E-02  0.16794234734E-02  0.21213536923E-01  0.10224554977E+01  0.10222299597E+01 0.  0.
     999903    2    3    3    0    0 -0.12042327613E+00  0.33623747613E-01 -0.37414391809E-01  0.13213360848E+00  0.20667170545E-01 0.  0.
         14    1    1    2    0    0  0.28843778609E-02 -0.16794234734E-02 -0.21213536923E-01  0.21474502267E-01  0.00000000000E+00 0.  1.
     999901    1    3    3    0    0  0.11753889827E+00 -0.31944324140E-01  0.58627928732E-01  0.89032188925E+00  0.88000000000E+00 0. -1.
        -11    1    4    4    0    0 -0.60485314725E-01  0.12801447859E-01 -0.85228206981E-02  0.62411937627E-01  0.51100000000E-03 0. -1.
         11    1    4    4    0    0 -0.59937961406E-01  0.20822299755E-01 -0.28891571111E-01  0.69721670855E-01  0.51100000000E-03 0.  1.
</event>
<event>
 8    1  0.1090774E+005  0.1043930E+01  0.7957747E-01            NaN
         13   -1    0    0    0    0  0.00000000000E+00  0.00000000000E+00  0.74505805969E-08  0.10566000000E+00  0.10566000000E+00 0. -1.
     999900   -1    0    0    0    0 -0.00000000000E+00 -0.00000000000E+00 -0.74505805969E-08  0.93827000000E+00  0.93827000000E+00 0.  1.
     999902    2    1    2    0    0 -0.14386421666E-01 -0.22202158905E-02  0.16630291421E-01  0.10218287539E+01  0.10215897108E+01 0.  0.
     999903    2    3    3    0    0 -0.46831331327E-01 -0.12130177299E+00  0.21149996027E-01  0.13320424537E+00  0.19716869173E-01 0.  0.
         14    1    1    2    0    0  0.14386421666E-01  0.22202158905E-02 -0.16630291421E-01  0.22101246112E-01  0.00000000000E+00 0.  1.
     999901    1    3    3    0    0  0.32444909661E-01  0.11908155710E+00 -0.45197046061E-02  0.88862450851E+00  0.88000000000E+00 0.  1.
        -11    1    4    4    0    0 -0.32457258006E-01 -0.72182844656E-01  0.40797230683E-02  0.79251131987E-01  0.51100000000E-03 0. -1.
         11    1    4    4    0    0 -0.14374073321E-01 -0.49118928330E-01  0.17070272959E-01  0.53953113386E-01  0.51100000000E-03 0.  1.
</event>
<event>
 8    1  0.1090774E+005  0.1043930E+01  0.7957747E-01            NaN
         13   -1    0    0    0    0  0.00000000000E+00  0.00000000000E+00  0.74505805969E-08  0.10566000000E+00  0.10566000000E+00 0.  1.
     999900   -1    0    0    0    0 -0.00000000000E+00 -0.00000000000E+00 -0.74505805969E-08  0.93827000000E+00  0.93827000000E+00 0. -1.
     999902    2    1    2    0    0  0.35292112716E-03  0.22266182647E-01 -0.80379440890E-02  0.10202547811E+01  0.10199800500E+01 0.  0.
     999903    2    3    3    0    0  0.12394681157E+00  0.21864219781E-01 -0.32260596391E-01  0.13128776926E+00  0.18838154707E-01 0.  0.
         14    1    1    2    0    0 -0.35292112716E-03 -0.22266182647E-01  0.80379440890E-02  0.23675218862E-01  0.00000000000E+00 0. -1.
     999901    1    3    3    0    0 -0.12359389044E+00  0.40196286641E-03  0.24222652302E-01  0.88896701188E+00  0.88000000000E+00 0. -1.
        -11    1    4    4    0    0  0.34676994009E-01  0.14397621467E-01 -0.68465610551E-02  0.38169646798E-01  0.51100000000E-03 0. -1.
         11    1    4    4    0    0  0.89269817557E-01  0.74665983133E-02 -0.25414035336E-01  0.93118122458E-01  0.51100000000E-03 0.  1.
</event>
<event>
 8    1  0.1090774E+005  0.1043930E+01  0.7957747E-01            NaN
         13   -1    0    0    0    0  0.00000000000E+00  0.00000000000E+00  0.74505805969E-08  0.10566000000E+00  0.10566000000E+00 0. -1.
     999900   -1    0    0    0    0 -0.00000000000E+00 -0.00000000000E+00 -0.74505805969E-08  0.93827000000E+00  0.93827000000E+00 0.  1.
     999902    2    1    2    0    0 -0.45384505200E-02  0.60206498069E-02  0.22695276611E-01  0.10200151231E+01  0.10197347351E+01 0.  0.
     999903    2    3    3    0    0  0.89245068493E-01 -0.51783645691E-01  0.78879324198E-01  0.13136821221E+00  0.19734010767E-01 0.  0.
         14    1    1    2    0    0  0.45384505200E-02 -0.60206498069E-02 -0.22695276611E-01  0.23914876911E-01  0.00000000000E+00 0.  1.
     999901    1    3    3    0    0 -0.93783519013E-01  0.57804295498E-01 -0.56184047587E-01  0.88864691088E+00  0.88000000000E+00 0.  1.
        -11    1    4    4    0    0  0.36374837055E-01 -0.12823616465E-01  0.37166938155E-01  0.53565066254E-01  0.51100000000E-03 0. -1.
         11    1    4    4    0    0  0.52870231439E-01 -0.38960029226E-01  0.41712386043E-01  0.77803145953E-01  0.51100000000E-03 0.  1.
</event>
<event>
 8    1  0.1090774E+005  0.1043930E+01  0.7957747E-01            NaN
         13   -1    0    0    0    0  0.00000000000E+00  0.00000000000E+00  0.74505805969E-08  0.10566000000E+00  0.10566000000E+00 0.  1.
     999900   -1    0    0    0    0 -0.00000000000E+00 -0.00000000000E+00 -0.74505805969E-08  0.93827000000E+00  0.93827000000E+00 0. -1.
     999902    2    1    2    0    0  0.12466676562E-01 -0.19607630753E-01 -0.28090750698E-02  0.10205255536E+01  0.10202571428E+01 0.  0.
     999903    2    3    3    0    0 -0.69166526794E-01 -0.45777728054E-01 -0.10086674498E+00  0.13093904263E+00  0.95563501060E-02 0.  0.
         14    1    1    2    0    0 -0.12466676562E-01  0.19607630753E-01  0.28090750698E-02  0.23404446394E-01  0.00000000000E+00 0.  1.
     999901    1    3    3    0    0  0.81633203356E-01  0.26170097301E-01  0.98057669910E-01  0.88958651098E+00  0.88000000000E+00 0.  1.
        -11    1    4    4    0    0 -0.28384570994E-01 -0.23570849047E-01 -0.48633296762E-01  0.61046928426E-01  0.51100000000E-03 0. -1.
         11    1    4    4    0    0 -0.40781955800E-01 -0.22206879008E-01 -0.52233448218E-01  0.69892114204E-01  0.51100000000E-03 0.  1.
</event>
<event>
 8    1  0.1090774E+005  0.1043930E+01  0.7957747E-01            NaN
         13   -1    0    0    0    0  0.00000000000E+00  0.00000000000E+00  0.74505805969E-08  0.10566000000E+00  0.10566000000E+00 0. -1.
     999900   -1    0    0    0    0 -0.00000000000E+00 -0.00000000000E+00 -0.74505805969E-08  0.93827000000E+00  0.93827000000E+00 0. -1.
     999902    2    1    2    0    0  0.11114103229E-01 -0.16669903048E-01  0.12453053094E-01  0.10203400129E+01  0.10200672794E+01 0.  0.
     999903    2    3    3    0    0 -0.11568765710E+00  0.15355961399E-01 -0.49667388941E-01  0.12850858731E+00  0.20692219124E-01 0.  0.
         14    1    1    2    0    0 -0.11114103229E-01  0.16669903048E-01 -0.12453053094E-01  0.23589987062E-01  0.00000000000E+00 0.  1.
     999901    1    3    3    0    0  0.12680176033E+00 -0.32025864447E-01  0.62120442035E-01  0.89183142563E+00  0.88000000000E+00 0. -1.
        -11    1    4    4    0    0 -0.82510361929E-01  0.12404802060E-01 -0.25151419985E-01  0.87147541491E-01  0.51100000000E-03 0.  1.
         11    1    4    4    0    0 -0.33177295174E-01  0.29511593387E-02 -0.24515968956E-01  0.41361045820E-01  0.51100000000E-03 0. -1.
</event>
<event>
 8    1  0.1090774E+005  0.1043930E+01  0.7957747E-01            NaN
         13   -1    0    0    0    0  0.00000000000E+00  0.00000000000E+00  0.74505805969E-08  0.10566000000E+00  0.10566000000E+00 0. -1.
     999900   -1    0    0    0    0 -0.00000000000E+00 -0.00000000000E+00 -0.74505805969E-08  0.93827000000E+00  0.93827000000E+00 0. -1.
     999902    2    1    2    0    0 -0.31623555717E-01  0.55090821590E-02  0.46056756871E-02  0.10115014399E+01  0.10109814792E+01 0.  0.
     999903    2    3    3    0    0  0.67784643912E-01  0.59688294725E-01 -0.77413327616E-01  0.12046580978E+00  0.19019399437E-01 0.  0.
         14    1    1    2    0    0  0.31623555717E-01 -0.55090821590E-02 -0.46056756871E-02  0.32428560112E-01  0.00000000000E+00 0. -1.
     999901    1    3    3    0    0 -0.99408199628E-01 -0.54179212566E-01  0.82019003303E-01  0.89103563011E+00  0.88000000000E+00 0. -1.
        -11    1    4    4    0    0  0.30847573377E-01  0.38504954978E-01 -0.46943887901E-01  0.68104288216E-01  0.51100000000E-03 0. -1.
         11    1    4    4    0    0  0.36937070535E-01  0.21183339746E-01 -0.30469439714E-01  0.52361521559E-01  0.51100000000E-03 0.  1.
</event>
<event>
 8    1  0.1090774E+005  0.1043930E+01  0.7957747E-01            NaN
         13   -1    0    0    0    0  0.00000000000E+00  0.00000000000E+00  0.74505805969E-08  0.10566000000E+00  0.10566000000E+00 0.  1.
     999900   -1    0    0    0    0 -0.00000000000E+00 -0.00000000000E+00 -0.74505805969E-08  0.93827000000E+00  0.93827000000E+00 0. -1.
     999902    2    1    2    0    0 -0.20485277080E-01  0.51828547266E-02  0.11360857115E-01  0.10199388009E+01  0.10196565990E+01 0.  0.
     999903    2    3    3    0    0 -0.17514417875E-01  0.10057462975E+00 -0.78523832750E-01  0.13022667092E+00  0.19260906683E-01 0.  0.
         14    1    1    2    0    0  0.20485277080E-01 -0.51828547266E-02 -0.11360857115E-01  0.23991199106E-01  0.00000000000E+00 0.  1.
     999901    1    3    3    0    0 -0.29708592052E-02 -0.95391775027E-01  0.89884689864E-01  0.88971212997E+00  0.88000000000E+00 0.  1.
        -11    1    4    4    0    0 -0.16946075554E-01  0.51286509521E-01 -0.47895540782E-01  0.72192239772E-01  0.51100000000E-03 0.  1.
         11    1    4    4    0    0 -0.56834232077E-03  0.49288120233E-01 -0.30628291968E-01  0.58034431150E-01  0.51100000000E-03 0. -1.
</event>
<event>
 8    1  0.1090774E+005  0.1043930E+01  0.7957747E-01            NaN
         13   -1    0    0    0    0  0.00000000000E+00  0.00000000000E+00  0.74505805969E-08  0.10566000000E+00  0.10566000000E+00 0. -1.
     999900   -1    0    0    0    0 -0.00000000000E+00 -0.00000000000E+00 -0.74505805969E-08  0.93827000000E+00  0.93827000000E+00 0.  1.
     999902    2    1    2    0    0  0.95625084674E-02  0.16990135704E-01  0.11469493762E-01  0.10213101953E+01  0.10210596747E+01 0.  0.
     999903    2    3    3    0    0  0.31411593771E-01 -0.11594738529E+00 -0.44377433983E-01  0.12930759080E+00  0.17905641945E-01 0.  0.
         14    1    1    2    0    0 -0.95625084674E-02 -0.16990135704E-01 -0.11469493762E-01  0.22619804743E-01  0.00000000000E+00 0.  1.
     999901    1    3    3    0    0 -0.21849085304E-01  0.13293752099E+00  0.55846927745E-01  0.89200260446E+00  0.88000000000E+00 0. -1.
        -11    1    4    4    0    0  0.13368769531E-01 -0.21696468615E-01 -0.94933329249E-02  0.27200096326E-01  0.51100000000E-03 0. -1.
         11    1    4    4    0    0  0.18042824240E-01 -0.94250916675E-01 -0.34884101058E-01  0.10210749448E+00  0.51100000000E-03 0.  1.
</event>
<event>
 8    1  0.1090774E+005  0.1043930E+01  0.7957747E-01            NaN
         13   -1    0    0    0    0  0.00000000000E+00  0.00000000000E+00  0.74505805969E-08  0.10566000000E+00  0.10566000000E+00 0. -1.
     999900   -1    0    0    0    0 -0.00000000000E+00 -0.00000000000E+00 -0.74505805969E-08  0.93827000000E+00  0.93827000000E+00 0. -1.
     999902    2    1    2    0    0  0.11660334856E-01  0.11182101083E-01 -0.16741146968E-01  0.10206648158E+01  0.10203996263E+01 0.  0.
     999903    2    3    3    0    0  0.11265042277E+00 -0.33566471877E-01  0.53819526285E-01  0.13095686302E+00  0.20888580097E-01 0.  0.
         14    1    1    2    0    0 -0.11660334856E-01 -0.11182101083E-01  0.16741146968E-01  0.23265184190E-01  0.00000000000E+00 0. -1.
     999901    1    3    3    0    0 -0.10099008792E+00  0.44748572961E-01 -0.70560673253E-01  0.88970795279E+00  0.88000000000E+00 0. -1.
        -11    1    4    4    0    0  0.59413641485E-01 -0.69681523524E-02  0.28870379523E-01  0.66425114802E-01  0.51100000000E-03 0.  1.
         11    1    4    4    0    0  0.53236781288E-01 -0.26598319525E-01  0.24949146761E-01  0.64531748222E-01  0.51100000000E-03 0. -1.
</event>
<event>
 8    1  0.1090774E+005  0.1043930E+01  0.7957747E-01            NaN
         13   -1    0    0    0    0  0.00000000000E+00  0.00000000000E+00  0.74505805969E-08  0.10566000000E+00  0.10566000000E+00 0.  1.
     999900   -1    0    0    0    0 -0.00000000000E+00 -0.00000000000E+00 -0.74505805969E-08  0.93827000000E+00  0.93827000000E+00 0.  1.
     999902    2    1    2    0    0  0.12920865245E-01 -0.21796916028E-01 -0.24876149459E-02  0.10184693925E+01  0.10181510992E+01 0.  0.
     999903    2    3    3    0    0  0.10831848098E+00  0.52368611198E-01  0.42908676740E-01  0.12905269947E+00  0.18386950284E-01 0.  0.
         14    1    1    2    0    0 -0.12920865245E-01  0.21796916028E-01  0.24876149459E-02  0.25460607517E-01  0.00000000000E+00 0. -1.
     999901    1    3    3    0    0 -0.95397615731E-01 -0.74165527226E-01 -0.45396291686E-01  0.88941669302E+00  0.88000000000E+00 0.  1.
        -11    1    4    4    0    0  0.28024088751E-01  0.49819213147E-02  0.10600689579E-01  0.30377702857E-01  0.51100000000E-03 0. -1.
         11    1    4    4    0    0  0.80294392224E-01  0.47386689883E-01  0.32307987161E-01  0.98674996611E-01  0.51100000000E-03 0.  1.
</event>
<event>
 8    1  0.1090774E+005  0.1043930E+01  0.7957747E-01            NaN
         13   -1    0    0    0    0  0.00000000000E+00  0.00000000000E+00  0.74505805969E-08  0.10566000000E+00  0.10566000000E+00 0. -1.
     999900   -1    0    0    0    0 -0.00000000000E+00 -0.00000000000E+00 -0.74505805969E-08  0.93827000000E+00  0.93827000000E+00 0.  1.
     999902    2    1    2    0    0 -0.41714392144E-02 -0.21139538112E-01 -0.95531451300E-02  0.10203600285E+01  0.10200877629E+01 0.  0.
     999903    2    3    3    0    0  0.11413474318E+00 -0.17281051864E-01  0.56323231001E-01  0.12999440825E+00  0.20021625102E-01 0.  0.
         14    1    1    2    0    0  0.41714392144E-02  0.21139538112E-01  0.95531451300E-02  0.23569971544E-01  0.00000000000E+00 0.  1.
     999901    1    3    3    0    0 -0.11830618240E+00 -0.38584862480E-02 -0.65876376131E-01  0.89036562020E+00  0.88000000000E+00 0. -1.
        -11    1    4    4    0    0  0.85641271207E-01 -0.13849479004E-01  0.32331020331E-01  0.92583969451E-01  0.51100000000E-03 0. -1.
         11    1    4    4    0    0  0.28493471975E-01 -0.34315728594E-02  0.23992210670E-01  0.37410438801E-01  0.51100000000E-03 0.  1.
</event>
<event>
 8    1  0.1090774E+005  0.1043930E+01  0.7957747E-01            NaN
         13   -1    0    0    0    0  0.00000000000E+00  0.00000000000E+00  0.74505805969E-08  0.10566000000E+00  0.10566000000E+00 0. -1.
     999900   -1    0    0    0    0 -0.00000000000E+00 -0.00000000000E+00 -0.74505805969E-08  0.93827000000E+00  0.93827000000E+00 0. -1.
     999902    2    1    2    0    0  0.23081855529E-01 -0.52637944440E-02 -0.81666590836E-03  0.10202414684E+01  0.10199664246E+01 0.  0.
     999903    2    3    3    0    0  0.24719843738E-01  0.11718259862E+00  0.47557965667E-01  0.13044603844E+00  0.20287354489E-01 0.  0.
         14    1    1    2    0    0 -0.23081855529E-01  0.52637944440E-02  0.81666590836E-03  0.23688531610E-01  0.00000000000E+00 0. -1.
     999901    1    3    3    0    0 -0.16379882089E-02 -0.12244639307E+00 -0.48374631576E-01  0.88979542995E+00  0.88000000000E+00 0. -1.
        -11    1    4    4    0    0  0.14440666255E-01  0.33988287737E-01  0.81702602042E-02  0.37825266925E-01  0.51100000000E-03 0. -1.
         11    1    4    4    0    0  0.10279177483E-01  0.83194310885E-01  0.39387705463E-01  0.92620771515E-01  0.51100000000E-03 0.  1.
</event>
<event>
 8    1  0.1090774E+005  0.1043930E+01  0.7957747E-01            NaN
         13   -1    0    0    0    0  0.00000000000E+00  0.00000000000E+00  0.74505805969E-08  0.10566000000E+00  0.10566000000E+00 0.  1.
     999900   -1    0    0    0    0 -0.00000000000E+00 -0.00000000000E+00 -0.74505805969E-08  0.93827000000E+00  0.93827000000E+00 0. -1.
     999902    2    1    2    0    0 -0.13922748118E-02  0.21633041504E-01 -0.86362006839E-02  0.10205952432E+01  0.10203284469E+01 0.  0.
     999903    2    3    3    0    0 -0.97545744834E-01  0.85409015905E-01 -0.21673970929E-01  0.13296759142E+00  0.20018666759E-01 0.  0.
         14    1    1    2    0    0  0.13922748118E-02 -0.21633041504E-01  0.86362006839E-02  0.23334756825E-01  0.00000000000E+00 0. -1.
     999901    1    3    3    0    0  0.96153470023E-01 -0.63775974401E-01  0.13037770245E-01  0.88762765176E+00  0.88000000000E+00 0. -1.
        -11    1    4    4    0    0 -0.58871228539E-01  0.62839571331E-01 -0.99909796203E-02  0.86687450473E-01  0.51100000000E-03 0.  1.
         11    1    4    4    0    0 -0.38674516295E-01  0.22569444574E-01 -0.11682991309E-01  0.46280140946E-01  0.51100000000E-03 0. -1.
</event>
<event>
 8    1  0.1090774E+005  0.1043930E+01  0.7957747E-01            NaN
         13   -1    0    0    0    0  0.00000000000E+00  0.00000000000E+00  0.74505805969E-08  0.10566000000E+00  0.10566000000E+00 0. -1.
     999900   -1    0    0    0    0 -0.00000000000E+00 -0.00000000000E+00 -0.74505805969E-08  0.93827000000E+00  0.93827000000E+00 0.  1.
     999902    2    1    2    0    0  0.21218600802E-01  0.12979364154E-02 -0.61740987245E-02  0.10217933075E+01  0.10215534886E+01 0.  0.
     999903    2    3    3    0    0  0.11134839509E+00 -0.61175475417E-01  0.38183778449E-01  0.13387781139E+00  0.18010096139E-01 0.  0.
         14    1    1    2    0    0 -0.21218600802E-01 -0.12979364154E-02  0.61740987245E-02  0.22136692481E-01  0.00000000000E+00 0.  1.
     999901    1    3    3    0    0 -0.90129794290E-01  0.62473411832E-01 -0.44357877174E-01  0.88791549613E+00  0.88000000000E+00 0.  1.
        -11    1    4    4    0    0  0.15038558350E-01 -0.66591977401E-02 -0.97585801708E-03  0.16483827580E-01  0.51100000000E-03 0.  1.
         11    1    4    4    0    0  0.96309836741E-01 -0.54516277677E-01  0.39159636466E-01  0.11739398381E+00  0.51100000000E-03 0. -1.
</event>
<event>
 8    1  0.1090774E+005  0.1043930E+01  0.7957747E-01            NaN
         13   -1    0    0    0    0  0.00000000000E+00  0.00000000000E+00  0.74505805969E-08  0.10566000000E+00  0.10566000000E+00 0. -1.
     999900   -1    0    0    0    0 -0.00000000000E+00 -0.00000000000E+00 -0.74505805969E-08  0.93827000000E+00  0.93827000000E+00 0. -1.
     999902    2    1    2    0    0  0.21857469871E-01 -0.76049115189E-02  0.75775415953E-02  0.10195783511E+01  0.10192875017E+01 0.  0.
     999903    2    3    3    0    0  0.34734524161E-01  0.10257931262E+00 -0.67958891911E-01  0.12940301186E+00  0.19943067542E-01 0.  0.
         14    1    1    2    0    0 -0.21857469871E-01  0.76049115189E-02 -0.75775415953E-02  0.24351648918E-01  0.00000000000E+00 0.  1.
     999901    1    3    3    0    0 -0.12877054290E-01 -0.11018422413E+00  0.75536433506E-01  0.89017533922E+00  0.88000000000E+00 0. -1.
        -11    1    4    4    0    0  0.25938989164E-01  0.94889267774E-01 -0.59451241002E-01  0.11494135668E+00  0.51100000000E-03 0. -1.
         11    1    4    4    0    0  0.87955349968E-02  0.76900448415E-02 -0.85076509089E-02  0.14461655180E-01  0.51100000000E-03 0.  1.
</event>
<event>
 8    1  0.1090774E+005  0.1043930E+01  0.7957747E-01            NaN
         13   -1    0    0    0    0  0.00000000000E+00  0.00000000000E+00  0.74505805969E-08  0.10566000000E+00  0.10566000000E+00 0.  1.
     999900   -1    0    0    0    0 -0.00000000000E+00 -0.00000000000E+00 -0.74505805969E-08  0.93827000000E+00  0.93827000000E+00 0. -1.
     999902    2    1    2    0    0  0.11628514087E-01  0.17258240070E-01 -0.87438029102E-03  0.10231013243E+01  0.10228892834E+01 0.  0.
     999903    2    3    3    0    0  0.21102359939E-01 -0.45931577626E-01 -0.12110253604E+00  0.13263093387E+00  0.19238528114E-01 0.  0.
         14    1    1    2    0    0 -0.11628514087E-01 -0.17258240070E-01  0.87438029102E-03  0.20828675692E-01  0.00000000000E+00 0. -1.
     999901    1    3    3    0    0 -0.94738458527E-02  0.63189817696E-01  0.12022815575E+00  0.89047039044E+00  0.88000000000E+00 0.  1.
        -11    1    4    4    0    0  0.17060949631E-01 -0.41852124481E-01 -0.86959002933E-01  0.98004110312E-01  0.51100000000E-03 0.  1.
         11    1    4    4    0    0  0.40414103084E-02 -0.40794531448E-02 -0.34143533111E-01  0.34626823555E-01  0.51100000000E-03 0. -1.
</event>
<event>
 8    1  0.1090774E+005  0.1043930E+01  0.7957747E-01            NaN
         13   -1    0    0    0    0  0.00000000000E+00  0.00000000000E+00  0.74505805969E-08  0.10566000000E+00  0.10566000000E+00 0. -1.
     999900   -1    0    0    0    0 -0.00000000000E+00 -0.00000000000E+00 -0.74505805969E-08  0.93827000000E+00  0.93827000000E+00 0.  1.
     999902    2    1    2    0    0  0.21641090291E-01 -0.19534001787E-01 -0.40176252312E-02  0.10145011820E+01  0.10140742542E+01 0.  0.
     999903    2    3    3    0    0  0.64079215608E-01 -0.99673062013E-01  0.48560895062E-01  0.12828012368E+00  0.75342178960E-02 0.  0.
         14    1    1    2    0    0 -0.21641090291E-01  0.19534001787E-01  0.40176252312E-02  0.29428817973E-01  0.00000000000E+00 0. -1.
     999901    1    3    3    0    0 -0.42438125317E-01  0.80139060227E-01 -0.52578520293E-01  0.88622105834E+00  0.88000000000E+00 0.  1.
        -11    1    4    4    0    0  0.46741742741E-01 -0.66774030283E-01  0.31949635117E-01  0.87547712362E-01  0.51100000000E-03 0.  1.
         11    1    4    4    0    0  0.17337472867E-01 -0.32899031730E-01  0.16611259945E-01  0.40732411323E-01  0.51100000000E-03 0. -1.
</event>
<event>
 8    1  0.1090774E+005  0.1043930E+01  0.7957747E-01            NaN
         13   -1    0    0    0    0  0.00000000000E+00  0.00000000000E+00  0.74505805969E-08  0.10566000000E+00  0.10566000000E+00 0. -1.
     999900   -1    0    0    0    0 -0.00000000000E+00 -0.00000000000E+00 -0.74505805969E-08  0.93827000000E+00  0.93827000000E+00 0. -1.
     999902    2    1    2    0    0  0.12835057142E-01  0.45172307378E-02 -0.20831298940E-01  0.10190485394E+01  0.10187447367E+01 0.  0.
     999903    2    3    3    0    0 -0.48672343585E-01 -0.10146497021E+00  0.55766747163E-01  0.12726232740E+00  0.20533696127E-01 0.  0.
         14    1    1    2    0    0 -0.12835057142E-01 -0.45172307378E-02  0.20831298940E-01  0.24881460586E-01  0.00000000000E+00 0. -1.
     999901    1    3    3    0    0  0.61507400727E-01  0.10598220095E+00 -0.76598046103E-01  0.89178621201E+00  0.88000000000E+00 0. -1.
        -11    1    4    4    0    0 -0.27368593065E-01 -0.47142499512E-01  0.16604169371E-01  0.56986092234E-01  0.51100000000E-03 0. -1.
         11    1    4    4    0    0 -0.21303750520E-01 -0.54322470703E-01  0.39162577793E-01  0.70276235171E-01  0.51100000000E-03 0.  1.
</event>
<event>
 8    1  0.1090774E+005  0.1043930E+01  0.7957747E-01            NaN
         13   -1    0    0    0    0  0.00000000000E+00  0.00000000000E+00  0.74505805969E-08  0.10566000000E+00  0.10566000000E+00 0. -1.
     999900   -1    0    0    0    0 -0.00000000000E+00 -0.00000000000E+00 -0.74505805969E-08  0.93827000000E+00  0.93827000000E+00 0.  1.
     999902    2    1    2    0    0  0.10429988985E-01  0.12985828531E-01 -0.19306467759E-01  0.10184318410E+01  0.10181125963E+01 0.  0.
     999903    2    3    3    0    0  0.11993220676E+00 -0.38758274181E-01  0.19877956449E-01  0.12927290870E+00  0.20746414998E-01 0.  0.
         14    1    1    2    0    0 -0.10429988985E-01 -0.12985828531E-01  0.19306467759E-01  0.25498158957E-01  0.00000000000E+00 0. -1.
     999901    1    3    3    0    0 -0.10950221778E+00  0.51744102712E-01 -0.39184424208E-01  0.88915893234E+00  0.88000000000E+00 0.  1.
        -11    1    4    4    0    0  0.56767684734E-01 -0.13162741665E-01 -0.71058485574E-05  0.58275972491E-01  0.51100000000E-03 0. -1.
         11    1    4    4    0    0  0.63164522027E-01 -0.25595532516E-01  0.19885062298E-01  0.70996936210E-01  0.51100000000E-03 0.  1.
</event>
<event>
 8    1  0.1090774E+005  0.1043930E+01  0.7957747E-01            NaN
         13   -1    0    0    0    0  0.00000000000E+00  0.00000000000E+00  0.74505805969E-08  0.10566000000E+00  0.10566000000E+00 0.  1.
     999900   -1    0    0    0    0 -0.00000000000E+00 -0.00000000000E+00 -0.74505805969E-08  0.93827000000E+00  0.93827000000E+00 0. -1.
     999902    2    1    2    0    0 -0.64056114701E-02  0.18154181154E-01 -0.13351047148E-01  0.10205023110E+01  0.10202333606E+01 0.  0.
     999903    2    3    3    0    0 -0.65085401645E-01 -0.86260768306E-01  0.67074078175E-01  0.12875458870E+00  0.20044512800E-01 0.  0.
         14    1    1    2    0    0  0.64056114701E-02 -0.18154181154E-01  0.13351047148E-01  0.23427688995E-01  0.00000000000E+00 0.  1.
     999901    1    3    3    0    0  0.58679790175E-01  0.10441494946E+00 -0.80425125323E-01  0.89174772230E+00  0.88000000000E+00 0. -1.
        -11    1    4    4    0    0 -0.37848601457E-01 -0.55314446440E-01  0.52091987408E-01  0.84888402567E-01  0.51100000000E-03 0. -1.
         11    1    4    4    0    0 -0.27236800188E-01 -0.30946321866E-01  0.14982090767E-01  0.43866186137E-01  0.51100000000E-03 0.  1.
</event>
<event>
 8    1  0.1090774E+005  0.1043930E+01  0.7957747E-01            NaN
         13   -1    0    0    0    0  0.00000000000E+00  0.00000000000E+00  0.74505805969E-08  0.10566000000E+00  0.10566000000E+00 0.  1.
     999900   -1    0    0    0    0 -0.00000000000E+00 -0.00000000000E+00 -0.74505805969E-08  0.93827000000E+00  0.93827000000E+00 0. -1.
     999902    2    1    2    0    0  0.18666164921E-01 -0.13169164889E-01  0.44429444677E-02  0.10206578627E+01  0.10203925129E+01 0.  0.
     999903    2    3    3    0    0  0.50203356837E-01 -0.11948997647E+00 -0.22812414732E-01  0.13327882082E+00  0.21085689407E-01 0.  0.
         14    1    1    2    0    0 -0.18666164921E-01  0.13169164889E-01 -0.44429444677E-02  0.23272137252E-01  0.00000000000E+00 0.  1.
     999901    1    3    3    0    0 -0.31537191916E-01  0.10632081158E+00  0.27255359200E-01  0.88737904193E+00  0.88000000000E+00 0.  1.
        -11    1    4    4    0    0  0.16065892589E-01 -0.48877396181E-01 -0.18673878933E-01  0.54736529279E-01  0.51100000000E-03 0.  1.
         11    1    4    4    0    0  0.34137464248E-01 -0.70612580292E-01 -0.41385357990E-02  0.78542291540E-01  0.51100000000E-03 0. -1.
</event>
<event>
 8    1  0.1090774E+005  0.1043930E+01  0.7957747E-01            NaN
         13   -1    0    0    0    0  0.00000000000E+00  0.00000000000E+00  0.74505805969E-08  0.10566000000E+00  0.10566000000E+00 0. -1.
     999900   -1    0    0    0    0 -0.00000000000E+00 -0.00000000000E+00 -0.74505805969E-08  0.93827000000E+00  0.93827000000E+00 0.  1.
     999902    2    1    2    0    0 -0.94134188802E-02  0.28093597548E-02 -0.19403404165E-01  0.10221815046E+01  0.10219501120E+01 0.  0.
     999903    2    3    3    0    0 -0.60798635655E-01 -0.37057784229E-01 -0.11131877783E+00  0.13500718942E+00  0.27664371097E-01 0.  0.
         14    1    1    2    0    0  0.94134188802E-02 -0.28093597548E-02  0.19403404165E-01  0.21748495361E-01  0.00000000000E+00 0. -1.
     999901    1    3    3    0    0  0.51385216774E-01  0.39867143984E-01  0.91915373662E-01  0.88717431522E+00  0.88000000000E+00 0. -1.
        -11    1    4    4    0    0 -0.38729935135E-01 -0.34480810285E-01 -0.61428647882E-01  0.80390758518E-01  0.51100000000E-03 0. -1.
         11    1    4    4    0    0 -0.22068700519E-01 -0.25769739446E-02 -0.49890129945E-01  0.54616430900E-01  0.51100000000E-03 0.  1.
</event>
<event>
 8    1  0.1090774E+005  0.1043930E+01  0.7957747E-01            NaN
         13   -1    0    0    0    0  0.00000000000E+00  0.00000000000E+00  0.74505805969E-08  0.10566000000E+00  0.10566000000E+00 0. -1.
     999900   -1    0    0    0    0 -0.00000000000E+00 -0.00000000000E+00 -0.74505805969E-08  0.93827000000E+00  0.93827000000E+00 0.  1.
     999902    2    1    2    0    0 -0.82098142421E-03 -0.28442113683E-01 -0.21303607137E-03  0.10154752425E+01  0.10150764970E+01 0.  0.
     999903    2    3    3    0    0  0.96636338196E-01  0.74340436498E-01  0.13465674219E-01  0.12404420819E+00  0.18454236522E-01 0.  0.
         14    1    1    2    0    0  0.82098142421E-03  0.28442113683E-01  0.21303607137E-03  0.28454757522E-01  0.00000000000E+00 0.  1.
     999901    1    3    3    0    0 -0.97457319620E-01 -0.10278255018E+00 -0.13678710290E-01  0.89143103428E+00  0.88000000000E+00 0.  1.
        -11    1    4    4    0    0  0.59111826325E-01  0.55669111931E-01  0.12174787475E-01  0.82108127525E-01  0.51100000000E-03 0. -1.
         11    1    4    4    0    0  0.37524511871E-01  0.18671324567E-01  0.12908867439E-02  0.41936080669E-01  0.51100000000E-03 0.  1.
</event>
<event>
 8    1  0.1090774E+005  0.1043930E+01  0.7957747E-01            NaN
         13   -1    0    0    0    0  0.00000000000E+00  0.00000000000E+00  0.74505805969E-08  0.10566000000E+00  0.10566000000E+00 0. -1.
     999900   -1    0    0    0    0 -0.00000000000E+00 -0.00000000000E+00 -0.74505805969E-08  0.93827000000E+00  0.93827000000E+00 0.  1.
     999902    2    1    2    0    0  0.22825626062E-01  0.19047643654E-03  0.89925427630E-02  0.10193961191E+01  0.10191008470E+01 0.  0.
     999903    2    3    3    0    0  0.10447780636E+00 -0.53429845665E-02 -0.76976136046E-01  0.13142747581E+00  0.20092196815E-01 0.  0.
         14    1    1    2    0    0 -0.22825626062E-01 -0.19047643654E-03 -0.89925427630E-02  0.24533880894E-01  0.00000000000E+00 0.  1.
     999901    1    3    3    0    0 -0.81652180293E-01  0.55334610030E-02  0.85968678809E-01  0.88796864329E+00  0.88000000000E+00 0. -1.
        -11    1    4    4    0    0  0.24252013829E-01  0.67528956330E-02 -0.14782925570E-01  0.29198592151E-01  0.51100000000E-03 0. -1.
         11    1    4    4    0    0  0.80225792526E-01 -0.12095880199E-01 -0.62193210475E-01  0.10222888366E+00  0.51100000000E-03 0.  1.
</event>
<event>
 8    1  0.1090774E+005  0.1043930E+01  0.7957747E-01            NaN
         13   -1    0    0    0    0  0.00000000000E+00  0.00000000000E+00  0.74505805969E-08  0.10566000000E+00  0.10566000000E+00 0. -1.
     999900   -1    0    0    0    0 -0.00000000000E+00 -0.00000000000E+00 -0.74505805969E-08  0.93827000000E+00  0.93827000000E+00 0.  1.
     999902    2    1    2    0    0 -0.11410989467E-01  0.10622497100E-01 -0.17239704203E-01  0.10206866025E+01  0.10204219152E+01 0.  0.
     999903    2    3    3    0    0 -0.12651840614E+00  0.10011617585E-01 -0.33959884564E-01  0.13303258491E+00  0.20910650665E-01 0.  0.
         14    1    1    2    0    0  0.11410989467E-01 -0.10622497100E-01  0.17239704203E-01  0.23243397477E-01  0.00000000000E+00 0. -1.
     999901    1    3    3    0    0  0.11510741667E+00  0.61087951485E-03  0.16720180361E-01  0.88765401761E+00  0.88000000000E+00 0.  1.
        -11    1    4    4    0    0 -0.10577912141E+00  0.15802500775E-02 -0.32134056997E-01  0.11056481563E+00  0.51100000000E-03 0. -1.
         11    1    4    4    0    0 -0.20739284729E-01  0.84313675074E-02 -0.18258275672E-02  0.22467769280E-01  0.51100000000E-03 0.  1.
</event>
<event>
 7    1  0.1090774E+005  0.1043930E+01  0.7957747E-01            NaN
         13   -1    0    0    0    0  0.00000000000E+00  0.00000000000E+00  0.74505805969E-08  0.10566000000E+00  0.10566000000E+00 0. -1.
     999900   -1    0    0    0    0 -0.00000000000E+00 -0.00000000000E+00 -0.74505805969E-08  0.93827000000E+00  0.93827000000E+00 0. -1.
     999903    2    1    2    0    0 -0.11255000898E+00 -0.22694450372E-01 -0.17295348955E-01  0.11757857675E+00  0.18521609442E-01 0.  0.
         14    1    1    2    0    0  0.12844529682E-01 -0.27615575691E-01 -0.23327226383E-01  0.38363543296E-01  0.00000000000E+00 0.  1.
     999901    1    1    2    0    0  0.99705479293E-01  0.50310026063E-01  0.40622575337E-01  0.88798787996E+00  0.88000000000E+00 0. -1.
        -11    1    3    3    0    0 -0.69200546187E-01 -0.18499089676E-01 -0.28442477910E-02  0.71688791160E-01  0.51100000000E-03 0. -1.
         11    1    3    3    0    0 -0.43349462788E-01 -0.41953606955E-02 -0.14451101164E-01  0.45889785587E-01  0.51100000000E-03 0.  1.
</event>
<event>
 8    1  0.1090774E+005  0.1043930E+01  0.7957747E-01            NaN
         13   -1    0    0    0    0  0.00000000000E+00  0.00000000000E+00  0.74505805969E-08  0.10566000000E+00  0.10566000000E+00 0.  1.
     999900   -1    0    0    0    0 -0.00000000000E+00 -0.00000000000E+00 -0.74505805969E-08  0.93827000000E+00  0.93827000000E+00 0. -1.
     999902    2    1    2    0    0  0.23190927034E-01  0.14359309292E-02 -0.18603114479E-02  0.10206203077E+01  0.10203540909E+01 0.  0.
     999903    2    3    3    0    0  0.12141824020E+00 -0.37973479055E-01  0.35221978056E-01  0.13350317746E+00  0.19953357833E-01 0.  0.
         14    1    1    2    0    0 -0.23190927034E-01 -0.14359309292E-02  0.18603114479E-02  0.23309692255E-01  0.00000000000E+00 0. -1.
     999901    1    3    3    0    0 -0.98227313168E-01  0.39409409984E-01 -0.37082289504E-01  0.88711713028E+00  0.88000000000E+00 0. -1.
        -11    1    4    4    0    0  0.80413402554E-01 -0.28899467421E-01  0.32475862182E-01  0.91413550817E-01  0.51100000000E-03 0.  1.
         11    1    4    4    0    0  0.41004837648E-01 -0.90740116341E-02  0.27461158745E-02  0.42089626644E-01  0.51100000000E-03 0. -1.
</event>
<event>
 8    1  0.1090774E+005  0.1043930E+01  0.7957747E-01            NaN
         13   -1    0    0    0    0  0.00000000000E+00  0.00000000000E+00  0.74505805969E-08  0.10566000000E+00  0.10566000000E+00 0.  1.
     999900   -1    0    0    0    0 -0.00000000000E+00 -0.00000000000E+00 -0.74505805969E-08  0.93827000000E+00  0.93827000000E+00 0. -1.
     999902    2    1    2    0    0 -0.10257558293E-01  0.12035738247E-01 -0.17675973177E-01  0.10202125692E+01  0.10199368460E+01 0.  0.
     999903    2    3    3    0    0  0.90864128908E-01 -0.77091779648E-01 -0.46120926303E-01  0.12949464220E+00  0.21030694342E-01 0.  0.
         14    1    1    2    0    0  0.10257558293E-01 -0.12035738247E-01  0.17675973177E-01  0.23717430827E-01  0.00000000000E+00 0.  1.
     999901    1    3    3    0    0 -0.10112168720E+00  0.89127517894E-01  0.28444953126E-01  0.89071792697E+00  0.88000000000E+00 0.  1.
        -11    1    4    4    0    0  0.30535001833E-01 -0.36480726892E-01 -0.11490336463E-01  0.48944036660E-01  0.51100000000E-03 0. -1.
         11    1    4    4    0    0  0.60329127075E-01 -0.40611052756E-01 -0.34630589841E-01  0.80550605542E-01  0.51100000000E-03 0.  1.
</event>
<event>
 8    1  0.1090774E+005  0.1043930E+01  0.7957747E-01            NaN
         13   -1    0    0    0    0  0.00000000000E+00  0.00000000000E+00  0.74505805969E-08  0.10566000000E+00  0.10566000000E+00 0.  1.
     999900   -1    0    0    0    0 -0.00000000000E+00 -0.00000000000E+00 -0.74505805969E-08  0.93827000000E+00  0.93827000000E+00 0. -1.
     999902    2    1    2    0    0 -0.17162856789E-01  0.13616538944E-01 -0.98855608018E-02  0.10198946490E+01  0.10196113951E+01 0.  0.
     999903    2    3    3    0    0  0.11179774654E+00 -0.56842537871E-01  0.10658829350E-01  0.12747244471E+00  0.20144559403E-01 0.  0.
         14    1    1    2    0    0  0.17162856789E-01 -0.13616538944E-01  0.98855608018E-02  0.24035351013E-01  0.00000000000E+00 0. -1.
     999901    1    3    3    0    0 -0.12896060333E+00  0.70459076815E-01 -0.20544390152E-01  0.89242220428E+00  0.88000000000E+00 0. -1.
        -11    1    4    4    0    0  0.64318472737E-01 -0.42111506060E-01  0.13372570558E-02  0.76891444617E-01  0.51100000000E-03 0.  1.
         11    1    4    4    0    0  0.47479273807E-01 -0.14731031811E-01  0.93215722946E-02  0.50581000093E-01  0.51100000000E-03 0. -1.
</event>
<event>
 8    1  0.1090774E+005  0.1043930E+01  0.7957747E-01            NaN
         13   -1    0    0    0    0  0.00000000000E+00  0.00000000000E+00  0.74505805969E-08  0.10566000000E+00  0.10566000000E+00 0. -1.
     999900   -1    0    0    0    0 -0.00000000000E+00 -0.00000000000E+00 -0.74505805969E-08  0.93827000000E+00  0.93827000000E+00 0. -1.
     999902    2    1    2    0    0 -0.19895274468E-01 -0.46090736863E-02 -0.10650219258E-02  0.10234800665E+01  0.10232757433E+01 0.  0.
     999903    2    3    3    0    0 -0.11560081174E+00 -0.32793350971E-01  0.60073993768E-01  0.13573467366E+00  0.19392404813E-01 0.  0.
         14    1    1    2    0    0  0.19895274468E-01  0.46090736863E-02  0.10650219258E-02  0.20449933450E-01  0.00000000000E+00 0. -1.
     999901    1    3    3    0    0  0.95705537272E-01  0.28184277284E-01 -0.61139015694E-01  0.88774539289E+00  0.88000000000E+00 0.  1.
        -11    1    4    4    0    0 -0.93661739524E-01 -0.33790158836E-01  0.51982118666E-01  0.11232407608E+00  0.51100000000E-03 0. -1.
         11    1    4    4    0    0 -0.21939072216E-01  0.99680786572E-03  0.80918751018E-02  0.23410597585E-01  0.51100000000E-03 0.  1.
</event>
<event>
 8    1  0.1090774E+005  0.1043930E+01  0.7957747E-01            NaN
         13   -1    0    0    0    0  0.00000000000E+00  0.00000000000E+00  0.74505805969E-08  0.10566000000E+00  0.10566000000E+00 0.  1.
     999900   -1    0    0    0    0 -0.00000000000E+00 -0.00000000000E+00 -0.74505805969E-08  0.93827000000E+00  0.93827000000E+00 0.  1.
     999902    2    1    2    0    0  0.16551722398E-02  0.22552588214E-01  0.62443746352E-02  0.10204704381E+01  0.10202007469E+01 0.  0.
     999903    2    3    3    0    0 -0.81652171674E-01 -0.14389348946E-01  0.99229651436E-01  0.13089127806E+00  0.20294640792E-01 0.  0.
         14    1    1    2    0    0 -0.16551722398E-02 -0.22552588214E-01 -0.62443746352E-02  0.23459561907E-01  0.00000000000E+00 0. -1.
     999901    1    3    3    0    0  0.83307343914E-01  0.36941937160E-01 -0.92985276801E-01  0.88957916004E+00  0.88000000000E+00 0.  1.
        -11    1    4    4    0    0 -0.30080262127E-01 -0.30623593925E-02  0.22257072022E-01  0.37547817389E-01  0.51100000000E-03 0.  1.
         11    1    4    4    0    0 -0.51571909546E-01 -0.11326989554E-01  0.76972579414E-01  0.93343460667E-01  0.51100000000E-03 0. -1.
</event>
<event>
 8    1  0.1090774E+005  0.1043930E+01  0.7957747E-01            NaN
         13   -1    0    0    0    0  0.00000000000E+00  0.00000000000E+00  0.74505805969E-08  0.10566000000E+00  0.10566000000E+00 0.  1.
     999900   -1    0    0    0    0 -0.00000000000E+00 -0.00000000000E+00 -0.74505805969E-08  0.93827000000E+00  0.93827000000E+00 0.  1.
     999902    2    1    2    0    0 -0.11326465090E-01  0.15287370616E-02  0.20995928194E-01  0.10200248782E+01  0.10197447216E+01 0.  0.
     999903    2    3    3    0    0 -0.63092640564E-01 -0.92922938182E-01 -0.61554170490E-01  0.12962307300E+00  0.19946714396E-01 0.  0.
         14    1    1    2    0    0  0.11326465090E-01 -0.15287370616E-02 -0.20995928194E-01  0.23905121819E-01  0.00000000000E+00 0. -1.
     999901    1    3    3    0    0  0.51766175474E-01  0.94451675244E-01  0.82550098684E-01  0.89040180518E+00  0.88000000000E+00 0.  1.
        -11    1    4    4    0    0 -0.29137022935E-01 -0.32345184268E-01 -0.15142114316E-01  0.46094704662E-01  0.51100000000E-03 0.  1.
         11    1    4    4    0    0 -0.33955617629E-01 -0.60577753914E-01 -0.46412056174E-01  0.83528368337E-01  0.51100000000E-03 0. -1.
</event>
<event>
 8    1  0.1090774E+005  0.1043930E+01  0.7957747E-01            NaN
         13   -1    0    0    0    0  0.00000000000E+00  0.00000000000E+00  0.74505805969E-08  0.10566000000E+00  0.10566000000E+00 0. -1.
     999900   -1    0    0    0    0 -0.00000000000E+00 -0.00000000000E+00 -0.74505805969E-08  0.93827000000E+00  0.93827000000E+00 0. -1.
     999902    2    1    2    0    0 -0.14399983951E-01  0.72774520523E-02  0.17649975853E-01  0.10200167716E+01  0.10197364227E+01 0.  0.
     999903    2    3    3    0    0 -0.76606043007E-01 -0.44441947676E-01 -0.92240002288E-01  0.12949990066E+00  0.20455652263E-01 0.  0.
         14    1    1    2    0    0  0.14399983951E-01 -0.72774520523E-02 -0.17649975853E-01  0.23913228427E-01  0.00000000000E+00 0.  1.
     999901    1    3    3    0    0  0.62206059055E-01  0.51719399728E-01  0.10988997814E+00  0.89051687092E+00  0.88000000000E+00 0.  1.
        -11    1    4    4    0    0 -0.25376627338E-01 -0.25232561895E-01 -0.42425498876E-01  0.55505310293E-01  0.51100000000E-03 0.  1.
         11    1    4    4    0    0 -0.51229415668E-01 -0.19209385780E-01 -0.49814503412E-01  0.73994590363E-01  0.51100000000E-03 0. -1.
</event>
<event>
 8    1  0.1090774E+005  0.1043930E+01  0.7957747E-01            NaN
         13   -1    0    0    0    0  0.00000000000E+00  0.00000000000E+00  0.74505805969E-08  0.10566000000E+00  0.10566000000E+00 0. -1.
     999900   -1    0    0    0    0 -0.00000000000E+00 -0.00000000000E+00 -0.74505805969E-08  0.93827000000E+00  0.93827000000E+00 0.  1.
     999902    2    1    2    0    0 -0.40515231652E-02 -0.71824104384E-02 -0.23135845141E-01  0.10193684612E+01  0.10190725148E+01 0.  0.
     999903    2    3    3    0    0 -0.39778941032E-01 -0.80449605823E-01  0.89664784418E-01  0.12843158779E+00  0.20009896324E-01 0.  0.
         14    1    1    2    0    0  0.40515231652E-02  0.71824104384E-02  0.23135845141E-01  0.24561538837E-01  0.00000000000E+00 0. -1.
     999901    1    3    3    0    0  0.35727417866E-01  0.73267195385E-01 -0.11280062956E+00  0.89093687337E+00  0.88000000000E+00 0.  1.
        -11    1    4    4    0    0 -0.35746495930E-01 -0.55895116499E-01  0.57773451268E-01  0.87977888200E-01  0.51100000000E-03 0.  1.
         11    1    4    4    0    0 -0.40324451020E-02 -0.24554489324E-01  0.31891333150E-01  0.40453699590E-01  0.51100000000E-03 0. -1.
</event>
<event>
 8    1  0.1090774E+005  0.1043930E+01  0.7957747E-01            NaN
         13   -1    0    0    0    0  0.00000000000E+00  0.00000000000E+00  0.74505805969E-08  0.10566000000E+00  0.10566000000E+00 0. -1.
     999900   -1    0    0    0    0 -0.00000000000E+00 -0.00000000000E+00 -0.74505805969E-08  0.93827000000E+00  0.93827000000E+00 0.  1.
     999902    2    1    2    0    0  0.26310629801E-02  0.15536753987E-01 -0.17226675726E-01  0.10205832321E+01  0.10203161579E+01 0.  0.
     999903    2    3    3    0    0 -0.10848260912E+00 -0.55273180686E-01 -0.41995834195E-01  0.13042942165E+00  0.20605410837E-01 0.  0.
         14    1    1    2    0    0 -0.26310629801E-02 -0.15536753987E-01  0.17226675726E-01  0.23346767944E-01  0.00000000000E+00 0. -1.
     999901    1    3    3    0    0  0.11111367210E+00  0.70809934673E-01  0.24769158469E-01  0.89015381041E+00  0.88000000000E+00 0. -1.
        -11    1    4    4    0    0 -0.56550789721E-01 -0.36734701241E-01 -0.30906462422E-01  0.74181538362E-01  0.51100000000E-03 0.  1.
         11    1    4    4    0    0 -0.51931819402E-01 -0.18538479445E-01 -0.11089371773E-01  0.56247883283E-01  0.51100000000E-03 0. -1.
</event>
<event>
 8    1  0.1090774E+005  0.1043930E+01  0.7957747E-01            NaN
         13   -1    0    0    0    0  0.00000000000E+00  0.00000000000E+00  0.74505805969E-08  0.10566000000E+00  0.10566000000E+00 0. -1.
     999900   -1    0    0    0    0 -0.00000000000E+00 -0.00000000000E+00 -0.74505805969E-08  0.93827000000E+00  0.93827000000E+00 0. -1.
     999902    2    1    2    0    0 -0.20244608058E-01 -0.11915524420E-01  0.19155438983E-02  0.10203610971E+01  0.10200888565E+01 0.  0.
     999903    2    3    3    0    0 -0.26230930346E-01  0.11946741557E+00 -0.38263367835E-01  0.12968065047E+00  0.19810620857E-01 0.  0.
         14    1    1    2    0    0  0.20244608058E-01  0.11915524420E-01 -0.19155438983E-02  0.23568902945E-01  0.00000000000E+00 0. -1.
     999901    1    3    3    0    0  0.59863222878E-02 -0.13138293999E+00  0.40178911734E-01  0.89068044658E+00  0.88000000000E+00 0.  1.
        -11    1    4    4    0    0 -0.59057303029E-02  0.54926345076E-01 -0.25384784326E-01  0.60798268315E-01  0.51100000000E-03 0.  1.
         11    1    4    4    0    0 -0.20325200043E-01  0.64541070496E-01 -0.12878583509E-01  0.68882382157E-01  0.51100000000E-03 0. -1.
</event>
<event>
 8    1  0.1090774E+005  0.1043930E+01  0.7957747E-01            NaN
         13   -1    0    0    0    0  0.00000000000E+00  0.00000000000E+00  0.74505805969E-08  0.10566000000E+00  0.10566000000E+00 0. -1.
     999900   -1    0    0    0    0 -0.00000000000E+00 -0.00000000000E+00 -0.74505805969E-08  0.93827000000E+00  0.93827000000E+00 0. -1.
     999902    2    1    2    0    0  0.12181256172E-01 -0.19864696447E-01  0.13234704449E-02  0.10205903183E+01  0.10203234081E+01 0.  0.
     999903    2    3    3    0    0 -0.12325280376E+00  0.71568936131E-02 -0.32129556689E-01  0.12919161070E+00  0.20388455105E-01 0.  0.
         14    1    1    2    0    0 -0.12181256172E-01  0.19864696447E-01 -0.13234704449E-02  0.23339681679E-01  0.00000000000E+00 0.  1.
     999901    1    3    3    0    0  0.13543405993E+00 -0.27021590060E-01  0.33453027134E-01  0.89139870762E+00  0.88000000000E+00 0.  1.
        -11    1    4    4    0    0 -0.44293207072E-01 -0.41833761235E-02 -0.18853801416E-01  0.48323035680E-01  0.51100000000E-03 0. -1.
         11    1    4    4    0    0 -0.78959596690E-01  0.11340269737E-01 -0.13275755273E-01  0.80868575023E-01  0.51100000000E-03 0.  1.
</event>
<event>
 8    1  0.1090774E+005  0.1043930E+01  0.7957747E-01            NaN
         13   -1    0    0    0    0  0.00000000000E+00  0.00000000000E+00  0.74505805969E-08  0.10566000000E+00  0.10566000000E+00 0. -1.
     999900   -1    0    0    0    0 -0.00000000000E+00 -0.00000000000E+00 -0.74505805969E-08  0.93827000000E+00  0.93827000000E+00 0.  1.
     999902    2    1    2    0    0 -0.11279926825E-01  0.79137728782E-02  0.19117893637E-01  0.10203639565E+01  0.10200917828E+01 0.  0.
     999903    2    3    3    0    0  0.82772185215E-02  0.39478437348E-01 -0.12036324583E+00  0.12860513356E+00  0.20613346896E-01 0.  0.
         14    1    1    2    0    0  0.11279926825E-01 -0.79137728782E-02 -0.19117893637E-01  0.23566043526E-01  0.00000000000E+00 0.  1.
     999901    1    3    3    0    0 -0.19557145347E-01 -0.31564664470E-01  0.13948113946E+00  0.89175882291E+00  0.88000000000E+00 0. -1.
        -11    1    4    4    0    0  0.19682472333E-02  0.38476180575E-01 -0.96809944763E-01  0.10419557090E+00  0.51100000000E-03 0.  1.
         11    1    4    4    0    0  0.63089712882E-02  0.10022567726E-02 -0.23553301064E-01  0.24409562662E-01  0.51100000000E-03 0. -1.
</event>
<event>
 8    1  0.1090774E+005  0.1043930E+01  0.7957747E-01            NaN
         13   -1    0    0    0    0  0.00000000000E+00  0.00000000000E+00  0.74505805969E-08  0.10566000000E+00  0.10566000000E+00 0. -1.
     999900   -1    0    0    0    0 -0.00000000000E+00 -0.00000000000E+00 -0.74505805969E-08  0.93827000000E+00  0.93827000000E+00 0. -1.
     999902    2    1    2    0    0  0.43072904950E-02 -0.15860549006E-01  0.17042912348E-01  0.10202536272E+01  0.10199788690E+01 0.  0.
     999903    2    3    3    0    0  0.56844346820E-01 -0.14048995817E-01 -0.11325888721E+00  0.12910718417E+00  0.20308506196E-01 0.  0.
         14    1    1    2    0    0 -0.43072904950E-02  0.15860549006E-01 -0.17042912348E-01  0.23676372769E-01  0.00000000000E+00 0.  1.
     999901    1    3    3    0    0 -0.52537056325E-01 -0.18115531886E-02  0.13030179956E+00  0.89114644306E+00  0.88000000000E+00 0.  1.
        -11    1    4    4    0    0  0.56702334892E-01 -0.13969668342E-01 -0.99753924180E-01  0.11559157809E+00  0.51100000000E-03 0.  1.
         11    1    4    4    0    0  0.14201192791E-03 -0.79327475010E-04 -0.13504963029E-01  0.13515606078E-01  0.51100000000E-03 0. -1.
</event>
<event>
 8    1  0.1090774E+005  0.1043930E+01  0.7957747E-01            NaN
         13   -1    0    0    0    0  0.00000000000E+00  0.00000000000E+00  0.74505805969E-08  0.10566000000E+00  0.10566000000E+00 0. -1.
     999900   -1    0    0    0    0 -0.00000000000E+00 -0.00000000000E+00 -0.74505805969E-08  0.93827000000E+00  0.93827000000E+00 0. -1.
     999902    2    1    2    0    0 -0.12835301963E-02  0.12067416440E-01 -0.20009130529E-01  0.10205283912E+01  0.10202600463E+01 0.  0.
     999903    2    3    3    0    0  0.86287825467E-02  0.64260391381E-01  0.11017751561E+00  0.12936571055E+00  0.19812832462E-01 0.  0.
         14    1    1    2    0    0  0.12835301963E-02 -0.12067416440E-01  0.20009130529E-01  0.23401608787E-01  0.00000000000E+00 0. -1.
     999901    1    3    3    0    0 -0.99123127430E-02 -0.52192974940E-01 -0.13018664614E+00  0.89116268067E+00  0.88000000000E+00 0. -1.
        -11    1    4    4    0    0  0.14092913640E-01  0.30896531524E-01  0.56852691500E-01  0.66224584007E-01  0.51100000000E-03 0. -1.
         11    1    4    4    0    0 -0.54641310937E-02  0.33363859856E-01  0.53324824114E-01  0.63141126541E-01  0.51100000000E-03 0.  1.
</event>
<event>
 8    1  0.1090774E+005  0.1043930E+01  0.7957747E-01            NaN
         13   -1    0    0    0    0  0.00000000000E+00  0.00000000000E+00  0.74505805969E-08  0.10566000000E+00  0.10566000000E+00 0.  1.
     999900   -1    0    0    0    0 -0.00000000000E+00 -0.00000000000E+00 -0.74505805969E-08  0.93827000000E+00  0.93827000000E+00 0.  1.
     999902    2    1    2    0    0 -0.72273969914E-02 -0.24093935762E-01  0.42720273643E-02  0.10184152351E+01  0.10180955692E+01 0.  0.
     999903    2    3    3    0    0 -0.59121529692E-01 -0.14037595762E-01 -0.11225771102E+00  0.12916087845E+00  0.19706076989E-01 0.  0.
         14    1    1    2    0    0  0.72273969914E-02  0.24093935762E-01 -0.42720273643E-02  0.25514764854E-01  0.00000000000E+00 0. -1.
     999901    1    3    3    0    0  0.51894132700E-01 -0.10056340000E-01  0.11652973838E+00  0.88925435670E+00  0.88000000000E+00 0. -1.
        -11    1    4    4    0    0 -0.26447252361E-01 -0.14025034695E-02 -0.31677542336E-01  0.41293485961E-01  0.51100000000E-03 0.  1.
         11    1    4    4    0    0 -0.32674277331E-01 -0.12635092293E-01 -0.80580168681E-01  0.87867392484E-01  0.51100000000E-03 0. -1.
</event>
<event>
 8    1  0.1090774E+005  0.1043930E+01  0.7957747E-01            NaN
         13   -1    0    0    0    0  0.00000000000E+00  0.00000000000E+00  0.74505805969E-08  0.10566000000E+00  0.10566000000E+00 0.  1.
     999900   -1    0    0    0    0 -0.00000000000E+00 -0.00000000000E+00 -0.74505805969E-08  0.93827000000E+00  0.93827000000E+00 0.  1.
     999902    2    1    2    0    0  0.13030626236E-01 -0.19727110239E-01  0.35972601407E-02  0.10200156449E+01  0.10197352693E+01 0.  0.
     999903    2    3    3    0    0 -0.15968252234E-01 -0.10905663868E+00  0.70753160164E-01  0.13247375041E+00  0.19873332718E-01 0.  0.
         14    1    1    2    0    0 -0.13030626236E-01  0.19727110239E-01 -0.35972601407E-02  0.23914355082E-01  0.00000000000E+00 0.  1.
     999901    1    3    3    0    0  0.28998878469E-01  0.89329528443E-01 -0.67155900023E-01  0.88754189451E+00  0.88000000000E+00 0.  1.
        -11    1    4    4    0    0 -0.24902066674E-02 -0.39552481733E-01  0.36257498141E-01  0.53716545244E-01  0.51100000000E-03 0.  1.
         11    1    4    4    0    0 -0.13478045566E-01 -0.69504156950E-01  0.34495662023E-01  0.78757205162E-01  0.51100000000E-03 0. -1.
</event>
<event>
 8    1  0.1575935E+005  0.1043930E+01  0.7957747E-01            NaN
         13   -1    0    0    0    0  0.00000000000E+00  0.00000000000E+00  0.74505805969E-08  0.10566000000E+00  0.10566000000E+00 0. -1.
     999900   -1    0    0    0    0 -0.00000000000E+00 -0.00000000000E+00 -0.74505805969E-08  0.93827000000E+00  0.93827000000E+00 0. -1.
     999902    2    1    2    0    0 -0.20685004270E-01 -0.57992505088E-02  0.10634021809E-01  0.10199595363E+01  0.10196778279E+01 0.  0.
     999903    2    3    3    0    0  0.94948738608E-01 -0.29679862060E-01  0.80625738267E-01  0.12931915635E+00  0.18076984069E-01 0.  0.
         14    1    1    2    0    0  0.20685004270E-01  0.57992505088E-02 -0.10634021809E-01  0.23970463657E-01  0.00000000000E+00 0.  1.
     999901    1    3    3    0    0 -0.11563374288E+00  0.23880611551E-01 -0.69991716458E-01  0.89064037999E+00  0.88000000000E+00 0. -1.
        -11    1    4    4    0    0  0.39951267978E-01 -0.49670891831E-02  0.38967594550E-01  0.56031333502E-01  0.51100000000E-03 0. -1.
         11    1    4    4    0    0  0.54997470630E-01 -0.24712772877E-01  0.41658143718E-01  0.73287822849E-01  0.51100000000E-03 0.  1.
</event>
<event>
 8    1  0.1090774E+005  0.1043930E+01  0.7957747E-01            NaN
         13   -1    0    0    0    0  0.00000000000E+00  0.00000000000E+00  0.74505805969E-08  0.10566000000E+00  0.10566000000E+00 0. -1.
     999900   -1    0    0    0    0 -0.00000000000E+00 -0.00000000000E+00 -0.74505805969E-08  0.93827000000E+00  0.93827000000E+00 0.  1.
     999902    2    1    2    0    0  0.10904120932E-01 -0.43420595602E-02 -0.20146741816E-01  0.10206138138E+01  0.10203474469E+01 0.  0.
     999903    2    3    3    0    0 -0.46146820342E-01  0.47645813715E-01 -0.11286873216E+00  0.13238247208E+00  0.19649824962E-01 0.  0.
         14    1    1    2    0    0 -0.10904120932E-01  0.43420595602E-02  0.20146741816E-01  0.23316186231E-01  0.00000000000E+00 0. -1.
     999901    1    3    3    0    0  0.57050941274E-01 -0.51987873276E-01  0.92721990348E-01  0.88823134169E+00  0.88000000000E+00 0. -1.
        -11    1    4    4    0    0 -0.16525887699E-01  0.22010040406E-01 -0.64563135522E-01  0.70186939187E-01  0.51100000000E-03 0.  1.
         11    1    4    4    0    0 -0.29620932643E-01  0.25635773309E-01 -0.48305596642E-01  0.62195532892E-01  0.51100000000E-03 0. -1.
</event>
<event>
 8    1  0.1090774E+005  0.1043930E+01  0.7957747E-01            NaN
         13   -1    0    0    0    0  0.00000000000E+00  0.00000000000E+00  0.74505805969E-08  0.10566000000E+00  0.10566000000E+00 0.  1.
     999900   -1    0    0    0    0 -0.00000000000E+00 -0.00000000000E+00 -0.74505805969E-08  0.93827000000E+00  0.93827000000E+00 0. -1.
     999902    2    1    2    0    0 -0.17862610949E-01 -0.72876634920E-02  0.16461966303E-01  0.10185690212E+01  0.10182532454E+01 0.  0.
     999903    2    3    3    0    0  0.12072368002E+00  0.93188193923E-02 -0.30096651295E-01  0.12635288140E+00  0.19954821601E-01 0.  0.
         14    1    1    2    0    0  0.17862610949E-01  0.72876634920E-02 -0.16461966303E-01  0.25360978760E-01  0.00000000000E+00 0. -1.
     999901    1    3    3    0    0 -0.13858629097E+00 -0.16606482884E-01  0.46558617598E-01  0.89221613984E+00  0.88000000000E+00 0.  1.
        -11    1    4    4    0    0  0.52269959092E-01  0.10235460141E-01 -0.21143659059E-01  0.57308190577E-01  0.51100000000E-03 0.  1.
         11    1    4    4    0    0  0.68453720933E-01 -0.91664074899E-03 -0.89529922362E-02  0.69044690822E-01  0.51100000000E-03 0. -1.
</event>
<event>
 8    1  0.1090774E+005  0.1043930E+01  0.7957747E-01            NaN
         13   -1    0    0    0    0  0.00000000000E+00  0.00000000000E+00  0.74505805969E-08  0.10566000000E+00  0.10566000000E+00 0.  1.
     999900   -1    0    0    0    0 -0.00000000000E+00 -0.00000000000E+00 -0.74505805969E-08  0.93827000000E+00  0.93827000000E+00 0.  1.
     999902    2    1    2    0    0 -0.59687714245E-04 -0.23823246447E-01  0.52311128185E-02  0.10195391170E+01  0.10192473183E+01 0.  0.
     999903    2    3    3    0    0  0.22918235302E-02 -0.12927002407E+00  0.24343416321E-01  0.13303484024E+00  0.19740193028E-01 0.  0.
         14    1    1    2    0    0  0.59687714245E-04  0.23823246447E-01 -0.52311128185E-02  0.24390883035E-01  0.00000000000E+00 0.  1.
     999901    1    3    3    0    0 -0.23515112444E-02  0.10544677762E+00 -0.19112303502E-01  0.88650427673E+00  0.88000000000E+00 0. -1.
        -11    1    4    4    0    0 -0.62511375713E-02 -0.47401075368E-01  0.15411635250E-01  0.50236622987E-01  0.51100000000E-03 0.  1.
         11    1    4    4    0    0  0.85429611015E-02 -0.81868948699E-01  0.89317810705E-02  0.82798217249E-01  0.51100000000E-03 0. -1.
</event>
<event>
 8    1  0.1090774E+005  0.1043930E+01  0.7957747E-01            NaN
         13   -1    0    0    0    0  0.00000000000E+00  0.00000000000E+00  0.74505805969E-08  0.10566000000E+00  0.10566000000E+00 0.  1.
     999900   -1    0    0    0    0 -0.00000000000E+00 -0.00000000000E+00 -0.74505805969E-08  0.93827000000E+00  0.93827000000E+00 0.  1.
     999902    2    1    2    0    0  0.11423096924E-01  0.19260372876E-01 -0.65368429616E-02  0.10206023464E+01  0.10203357144E+01 0.  0.
     999903    2    3    3    0    0  0.22757919951E-01 -0.10716549893E+00 -0.65526358057E-01  0.12954020369E+00  0.22013488835E-01 0.  0.
         14    1    1    2    0    0 -0.11423096924E-01 -0.19260372876E-01  0.65368429616E-02  0.23327653602E-01  0.00000000000E+00 0.  1.
     999901    1    3    3    0    0 -0.11334823027E-01  0.12642587181E+00  0.58989515095E-01  0.89106214271E+00  0.88000000000E+00 0. -1.
        -11    1    4    4    0    0  0.35765105796E-02 -0.66717299029E-01 -0.35807941757E-01  0.75805403709E-01  0.51100000000E-03 0.  1.
         11    1    4    4    0    0  0.19181409371E-01 -0.40448199902E-01 -0.29718416299E-01  0.53734799982E-01  0.51100000000E-03 0. -1.
</event>
<event>
 8    1  0.1090774E+005  0.1043930E+01  0.7957747E-01            NaN
         13   -1    0    0    0    0  0.00000000000E+00  0.00000000000E+00  0.74505805969E-08  0.10566000000E+00  0.10566000000E+00 0.  1.
     999900   -1    0    0    0    0 -0.00000000000E+00 -0.00000000000E+00 -0.74505805969E-08  0.93827000000E+00  0.93827000000E+00 0.  1.
     999902    2    1    2    0    0  0.14416839549E-01 -0.41762331364E-02 -0.16571536915E-01  0.10215715112E+01  0.10213268088E+01 0.  0.
     999903    2    3    3    0    0 -0.42128296931E-01  0.54874696840E-02 -0.12450344505E+00  0.13312340556E+00  0.20391850190E-01 0.  0.
         14    1    1    2    0    0 -0.14416839549E-01  0.41762331364E-02  0.16571536915E-01  0.22358488802E-01  0.00000000000E+00 0.  1.
     999901    1    3    3    0    0  0.56545136480E-01 -0.96637028204E-02  0.10793190813E+00  0.88844810563E+00  0.88000000000E+00 0. -1.
        -11    1    4    4    0    0 -0.19314413380E-01  0.83562931169E-02 -0.36217072362E-01  0.41890472071E-01  0.51100000000E-03 0. -1.
         11    1    4    4    0    0 -0.22813883551E-01 -0.28688234329E-02 -0.88286372686E-01  0.91232933492E-01  0.51100000000E-03 0.  1.
</event>
<event>
 8    1  0.1090774E+005  0.1043930E+01  0.7957747E-01            NaN
         13   -1    0    0    0    0  0.00000000000E+00  0.00000000000E+00  0.74505805969E-08  0.10566000000E+00  0.10566000000E+00 0. -1.
     999900   -1    0    0    0    0 -0.00000000000E+00 -0.00000000000E+00 -0.74505805969E-08  0.93827000000E+00  0.93827000000E+00 0. -1.
     999902    2    1    2    0    0 -0.31120922430E-02  0.22630478016E-01 -0.56131948783E-02  0.10204069983E+01  0.10201358294E+01 0.  0.
     999903    2    3    3    0    0 -0.94456431529E-01 -0.61968059771E-01  0.59405540431E-01  0.12926832396E+00  0.20474947062E-01 0.  0.
         14    1    1    2    0    0  0.31120922430E-02 -0.22630478016E-01  0.56131948783E-02  0.23523001724E-01  0.00000000000E+00 0.  1.
     999901    1    3    3    0    0  0.91344339286E-01  0.84598537787E-01 -0.65018735309E-01  0.89113867431E+00  0.88000000000E+00 0. -1.
        -11    1    4    4    0    0 -0.70912713738E-01 -0.54419388817E-01  0.40477142248E-01  0.98126158665E-01  0.51100000000E-03 0. -1.
         11    1    4    4    0    0 -0.23543717792E-01 -0.75486709539E-02  0.18928398183E-01  0.31142165297E-01  0.51100000000E-03 0.  1.
</event>
<event>
 8    1  0.1090774E+005  0.1043930E+01  0.7957747E-01            NaN
         13   -1    0    0    0    0  0.00000000000E+00  0.00000000000E+00  0.74505805969E-08  0.10566000000E+00  0.10566000000E+00 0. -1.
     999900   -1    0    0    0    0 -0.00000000000E+00 -0.00000000000E+00 -0.74505805969E-08  0.93827000000E+00  0.93827000000E+00 0.  1.
     999902    2    1    2    0    0  0.18057650737E-01  0.10983644247E-01 -0.19503939397E-01  0.10151702566E+01  0.10147627934E+01 0.  0.
     999903    2    3    3    0    0 -0.11550449580E+00  0.40120791207E-01 -0.12546664098E-01  0.12458829851E+00  0.20343522493E-01 0.  0.
         14    1    1    2    0    0 -0.18057650737E-01 -0.10983644247E-01  0.19503939397E-01  0.28759743446E-01  0.00000000000E+00 0. -1.
     999901    1    3    3    0    0  0.13356214654E+00 -0.29137146961E-01 -0.69572752998E-02  0.89058195805E+00  0.88000000000E+00 0. -1.
        -11    1    4    4    0    0 -0.39428702963E-01  0.61761336239E-02 -0.10436802278E-01  0.41254759806E-01  0.51100000000E-03 0. -1.
         11    1    4    4    0    0 -0.76075792838E-01  0.33944657583E-01 -0.21098618193E-02  0.83333538700E-01  0.51100000000E-03 0.  1.
</event>
<event>
 7    1  0.1090774E+005  0.1043930E+01  0.7957747E-01            NaN
         13   -1    0    0    0    0  0.00000000000E+00  0.00000000000E+00  0.74505805969E-08  0.10566000000E+00  0.10566000000E+00 0. -1.
     999900   -1    0    0    0    0 -0.00000000000E+00 -0.00000000000E+00 -0.74505805969E-08  0.93827000000E+00  0.93827000000E+00 0.  1.
     999902    2    1    2    0    0 -0.51119792926E-03  0.16620413058E-01  0.17414503680E-01  0.10198517029E+01  0.10195674237E+01 0.  0.
         14    1    1    2    0    0  0.51119792926E-03 -0.16620413058E-01 -0.17414503680E-01  0.24078297115E-01  0.00000000000E+00 0.  1.
     999901    1    3    3    0    0  0.72042144020E-01 -0.72344374309E-01 -0.28886628595E-01  0.88637363246E+00  0.88000000000E+00 0. -1.
        -11    1    3    3    0    0 -0.32356681275E-01  0.76558674540E-01  0.30343528521E-01  0.88482632841E-01  0.51100000000E-03 0. -1.
         11    1    3    3    0    0 -0.40196660673E-01  0.12406112827E-01  0.15957603754E-01  0.44995437584E-01  0.51100000000E-03 0.  1.
</event>
<event>
 8    1  0.1090774E+005  0.1043930E+01  0.7957747E-01            NaN
         13   -1    0    0    0    0  0.00000000000E+00  0.00000000000E+00  0.74505805969E-08  0.10566000000E+00  0.10566000000E+00 0.  1.
     999900   -1    0    0    0    0 -0.00000000000E+00 -0.00000000000E+00 -0.74505805969E-08  0.93827000000E+00  0.93827000000E+00 0. -1.
     999902    2    1    2    0    0 -0.22518810874E-02  0.14753196732E-01 -0.18053841751E-01  0.10205063157E+01  0.10202374584E+01 0.  0.
     999903    2    3    3    0    0 -0.11931518999E+00 -0.47767869452E-01 -0.96246241911E-02  0.13051544291E+00  0.20585517563E-01 0.  0.
         14    1    1    2    0    0  0.22518810874E-02 -0.14753196732E-01  0.18053841751E-01  0.23423684258E-01  0.00000000000E+00 0.  1.
     999901    1    3    3    0    0  0.11706330890E+00  0.62521066184E-01 -0.84292175601E-02  0.88999087283E+00  0.88000000000E+00 0.  1.
        -11    1    4    4    0    0 -0.10638055991E+00 -0.46601683659E-01 -0.13573181293E-01  0.11693174427E+00  0.51100000000E-03 0. -1.
         11    1    4    4    0    0 -0.12934630085E-01 -0.11661857936E-02  0.39485571015E-02  0.13583698646E-01  0.51100000000E-03 0.  1.
</event>
<event>
 8    1  0.1090774E+005  0.1043930E+01  0.7957747E-01            NaN
         13   -1    0    0    0    0  0.00000000000E+00  0.00000000000E+00  0.74505805969E-08  0.10566000000E+00  0.10566000000E+00 0.  1.
     999900   -1    0    0    0    0 -0.00000000000E+00 -0.00000000000E+00 -0.74505805969E-08  0.93827000000E+00  0.93827000000E+00 0. -1.
     999902    2    1    2    0    0  0.22916771083E-01  0.55038064816E-02 -0.10504061189E-01  0.10181267912E+01  0.10177997629E+01 0.  0.
     999903    2    3    3    0    0 -0.92540741422E-01 -0.13645631486E-01 -0.83920809082E-01  0.12734783039E+00  0.20610085528E-01 0.  0.
         14    1    1    2    0    0 -0.22916771083E-01 -0.55038064816E-02  0.10504061189E-01  0.25803208795E-01  0.00000000000E+00 0. -1.
     999901    1    3    3    0    0  0.11545751250E+00  0.19149437968E-01  0.73416747893E-01  0.89077896082E+00  0.88000000000E+00 0.  1.
        -11    1    4    4    0    0 -0.62930011013E-01 -0.16507784337E-01 -0.48865560515E-01  0.81368282243E-01  0.51100000000E-03 0.  1.
         11    1    4    4    0    0 -0.29610730409E-01  0.28621528510E-02 -0.35055248566E-01  0.45979548142E-01  0.51100000000E-03 0. -1.
</event>
<event>
 8    1  0.1090774E+005  0.1043930E+01  0.7957747E-01            NaN
         13   -1    0    0    0    0  0.00000000000E+00  0.00000000000E+00  0.74505805969E-08  0.10566000000E+00  0.10566000000E+00 0.  1.
     999900   -1    0    0    0    0 -0.00000000000E+00 -0.00000000000E+00 -0.74505805969E-08  0.93827000000E+00  0.93827000000E+00 0.  1.
     999902    2    1    2    0    0 -0.14243526100E-01 -0.61568289091E-02 -0.18059312250E-01  0.10201198480E+01  0.10198419392E+01 0.  0.
     999903    2    3    3    0    0 -0.26353194224E-01 -0.80008332619E-01  0.96435110921E-01  0.12955280305E+00  0.19707207455E-01 0.  0.
         14    1    1    2    0    0  0.14243526100E-01  0.61568289091E-02  0.18059312250E-01  0.23810151972E-01  0.00000000000E+00 0.  1.
     999901    1    3    3    0    0  0.12109668124E-01  0.73851503710E-01 -0.11449442317E+00  0.89056704498E+00  0.88000000000E+00 0.  1.
        -11    1    4    4    0    0 -0.23467439961E-01 -0.52003641882E-01  0.53546231845E-01  0.78246786344E-01  0.51100000000E-03 0.  1.
         11    1    4    4    0    0 -0.28857542626E-02 -0.28004690737E-01  0.42888879076E-01  0.51306016707E-01  0.51100000000E-03 0. -1.
</event>
<event>
 8    1  0.1090774E+005  0.1043930E+01  0.7957747E-01            NaN
         13   -1    0    0    0    0  0.00000000000E+00  0.00000000000E+00  0.74505805969E-08  0.10566000000E+00  0.10566000000E+00 0.  1.
     999900   -1    0    0    0    0 -0.00000000000E+00 -0.00000000000E+00 -0.74505805969E-08  0.93827000000E+00  0.93827000000E+00 0.  1.
     999902    2    1    2    0    0  0.44193937025E-02  0.21878817808E-01  0.81709621516E-02  0.10201607271E+01  0.10198837830E+01 0.  0.
     999903    2    3    3    0    0  0.13006177997E-02 -0.77730036817E-01 -0.99844013872E-01  0.12797303068E+00  0.19095005771E-01 0.  0.
         14    1    1    2    0    0 -0.44193937025E-02 -0.21878817808E-01 -0.81709621516E-02  0.23769272851E-01  0.00000000000E+00 0. -1.
     999901    1    3    3    0    0  0.31187759027E-02  0.99608854626E-01  0.10801497602E+00  0.89218769647E+00  0.88000000000E+00 0. -1.
        -11    1    4    4    0    0 -0.81610864180E-02 -0.23530026007E-01 -0.27936847817E-01  0.37429854960E-01  0.51100000000E-03 0. -1.
         11    1    4    4    0    0  0.94617042177E-02 -0.54200010811E-01 -0.71907166055E-01  0.90543175721E-01  0.51100000000E-03 0.  1.
</event>
<event>
 8    1  0.1090774E+005  0.1043930E+01  0.7957747E-01            NaN
         13   -1    0    0    0    0  0.00000000000E+00  0.00000000000E+00  0.74505805969E-08  0.10566000000E+00  0.10566000000E+00 0. -1.
     999900   -1    0    0    0    0 -0.00000000000E+00 -0.00000000000E+00 -0.74505805969E-08  0.93827000000E+00  0.93827000000E+00 0.  1.
     999902    2    1    2    0    0  0.20970974775E-02 -0.15002682799E-01 -0.23618314144E-01  0.10158710786E+01  0.10154835032E+01 0.  0.
     999903    2    3    3    0    0  0.22270378596E-01 -0.98671045432E-01 -0.79054424667E-01  0.12993625110E+00  0.20047002762E-01 0.  0.
         14    1    1    2    0    0 -0.20970974775E-02  0.15002682799E-01  0.23618314144E-01  0.28058921433E-01  0.00000000000E+00 0. -1.
     999901    1    3    3    0    0 -0.20173281118E-01  0.83668362633E-01  0.55436110523E-01  0.88593482747E+00  0.88000000000E+00 0. -1.
        -11    1    4    4    0    0  0.13029362532E-01 -0.80523259388E-01 -0.70595210442E-01  0.10787819265E+00  0.51100000000E-03 0. -1.
         11    1    4    4    0    0  0.92410160639E-02 -0.18147786044E-01 -0.84592142254E-02  0.22058058448E-01  0.51100000000E-03 0.  1.
</event>
<event>
 8    1  0.1090774E+005  0.1043930E+01  0.7957747E-01            NaN
         13   -1    0    0    0    0  0.00000000000E+00  0.00000000000E+00  0.74505805969E-08  0.10566000000E+00  0.10566000000E+00 0. -1.
     999900   -1    0    0    0    0 -0.00000000000E+00 -0.00000000000E+00 -0.74505805969E-08  0.93827000000E+00  0.93827000000E+00 0. -1.
     999902    2    1    2    0    0 -0.10325612004E-01  0.12556456016E-01  0.17550005955E-01  0.10200075093E+01  0.10197269407E+01 0.  0.
     999903    2    3    3    0    0  0.94036330736E-01 -0.71555192235E-01  0.48522628187E-01  0.12931929913E+00  0.20150896908E-01 0.  0.
         14    1    1    2    0    0  0.10325612004E-01 -0.12556456016E-01 -0.17550005955E-01  0.23922490672E-01  0.00000000000E+00 0.  1.
     999901    1    3    3    0    0 -0.10436194274E+00  0.84111648251E-01 -0.30972622232E-01  0.89068821020E+00  0.88000000000E+00 0. -1.
        -11    1    4    4    0    0  0.16868160696E-01 -0.81493889069E-02  0.11473675735E-02  0.18775648009E-01  0.51100000000E-03 0. -1.
         11    1    4    4    0    0  0.77168170040E-01 -0.63405803328E-01  0.47375260614E-01  0.11054365112E+00  0.51100000000E-03 0.  1.
</event>
<event>
 8    1  0.1090774E+005  0.1043930E+01  0.7957747E-01            NaN
         13   -1    0    0    0    0  0.00000000000E+00  0.00000000000E+00  0.74505805969E-08  0.10566000000E+00  0.10566000000E+00 0.  1.
     999900   -1    0    0    0    0 -0.00000000000E+00 -0.00000000000E+00 -0.74505805969E-08  0.93827000000E+00  0.93827000000E+00 0. -1.
     999902    2    1    2    0    0  0.42997378493E-02 -0.21397099966E-01  0.56900604624E-02  0.10213756119E+01  0.10211265545E+01 0.  0.
     999903    2    3    3    0    0 -0.35813666999E-03  0.12624754660E+00 -0.14991592827E-01  0.12882400658E+00  0.20791958304E-01 0.  0.
         14    1    1    2    0    0 -0.42997378493E-02  0.21397099966E-01 -0.56900604624E-02  0.22554388056E-01  0.00000000000E+00 0. -1.
     999901    1    3    3    0    0  0.46578745193E-02 -0.14764464657E+00  0.20681653290E-01  0.89255160536E+00  0.88000000000E+00 0.  1.
        -11    1    4    4    0    0  0.69432400803E-02  0.79355344299E-01 -0.22869366786E-02  0.79692976177E-01  0.51100000000E-03 0. -1.
         11    1    4    4    0    0 -0.73013767503E-02  0.46892202306E-01 -0.12704656149E-01  0.49131030403E-01  0.51100000000E-03 0.  1.
</event>
<event>
 8    1  0.1090774E+005  0.1043930E+01  0.7957747E-01            NaN
         13   -1    0    0    0    0  0.00000000000E+00  0.00000000000E+00  0.74505805969E-08  0.10566000000E+00  0.10566000000E+00 0. -1.
     999900   -1    0    0    0    0 -0.00000000000E+00 -0.00000000000E+00 -0.74505805969E-08  0.93827000000E+00  0.93827000000E+00 0. -1.
     999902    2    1    2    0    0 -0.16888646879E-01  0.10343710257E-01  0.13176033380E-01  0.10201428902E+01  0.10198655254E+01 0.  0.
     999903    2    3    3    0    0 -0.59744357920E-01 -0.63338044145E-01 -0.94056721429E-01  0.12954507045E+00  0.18819200114E-01 0.  0.
         14    1    1    2    0    0  0.16888646879E-01 -0.10343710257E-01 -0.13176033380E-01  0.23787109764E-01  0.00000000000E+00 0.  1.
     999901    1    3    3    0    0  0.42855711041E-01  0.73681754402E-01  0.10723275481E+00  0.89059781978E+00  0.88000000000E+00 0.  1.
        -11    1    4    4    0    0 -0.26431007788E-01 -0.15968539599E-01 -0.37716647505E-01  0.48748323557E-01  0.51100000000E-03 0.  1.
         11    1    4    4    0    0 -0.33313350132E-01 -0.47369504546E-01 -0.56340073924E-01  0.80796746895E-01  0.51100000000E-03 0. -1.
</event>
<event>
 8    1  0.1090774E+005  0.1043930E+01  0.7957747E-01            NaN
         13   -1    0    0    0    0  0.00000000000E+00  0.00000000000E+00  0.74505805969E-08  0.10566000000E+00  0.10566000000E+00 0. -1.
     999900   -1    0    0    0    0 -0.00000000000E+00 -0.00000000000E+00 -0.74505805969E-08  0.93827000000E+00  0.93827000000E+00 0.  1.
     999902    2    1    2    0    0 -0.16726240063E-01  0.73840063448E-02 -0.14028365534E-01  0.10208847034E+01  0.10206245597E+01 0.  0.
     999903    2    3    3    0    0  0.11590563385E+00  0.11340426910E-01 -0.54322684459E-01  0.13002528722E+00  0.19821705975E-01 0.  0.
         14    1    1    2    0    0  0.16726240063E-01 -0.73840063448E-02  0.14028365534E-01  0.23045296611E-01  0.00000000000E+00 0. -1.
     999901    1    3    3    0    0 -0.13263187392E+00 -0.39564205650E-02  0.40294318925E-01  0.89085941617E+00  0.88000000000E+00 0. -1.
        -11    1    4    4    0    0  0.68184437379E-01 -0.26435759781E-03 -0.39118806050E-01  0.78611255514E-01  0.51100000000E-03 0. -1.
         11    1    4    4    0    0  0.47721196474E-01  0.11604784508E-01 -0.15203878410E-01  0.51414031705E-01  0.51100000000E-03 0.  1.
</event>
<event>
 8    1  0.1090774E+005  0.1043930E+01  0.7957747E-01            NaN
         13   -1    0    0    0    0  0.00000000000E+00  0.00000000000E+00  0.74505805969E-08  0.10566000000E+00  0.10566000000E+00 0. -1.
     999900   -1    0    0    0    0 -0.00000000000E+00 -0.00000000000E+00 -0.74505805969E-08  0.93827000000E+00  0.93827000000E+00 0. -1.
     999902    2    1    2    0    0  0.16667521062E-01  0.27858930424E-02  0.14431086104E-01  0.10217078555E+01  0.10214661611E+01 0.  0.
     999903    2    3    3    0    0 -0.61228490965E-01  0.86972904288E-02  0.11537925617E+00  0.13249850654E+00  0.20467303535E-01 0.  0.
         14    1    1    2    0    0 -0.16667521062E-01 -0.27858930424E-02 -0.14431086104E-01  0.22222144462E-01  0.00000000000E+00 0. -1.
     999901    1    3    3    0    0  0.77896012027E-01 -0.59113973864E-02 -0.10094817007E+00  0.88920934900E+00  0.88000000000E+00 0. -1.
        -11    1    4    4    0    0 -0.18787686866E-01  0.12414886782E-01  0.41056337122E-01  0.46829376789E-01  0.51100000000E-03 0. -1.
         11    1    4    4    0    0 -0.42440804099E-01 -0.37175963536E-02  0.74322919047E-01  0.85669129749E-01  0.51100000000E-03 0.  1.
</event>
<event>
 8    1  0.1090774E+005  0.1043930E+01  0.7957747E-01            NaN
         13   -1    0    0    0    0  0.00000000000E+00  0.00000000000E+00  0.74505805969E-08  0.10566000000E+00  0.10566000000E+00 0. -1.
     999900   -1    0    0    0    0 -0.00000000000E+00 -0.00000000000E+00 -0.74505805969E-08  0.93827000000E+00  0.93827000000E+00 0. -1.
     999902    2    1    2    0    0 -0.15242778922E-01  0.58577325519E-02 -0.17410442870E-01  0.10200599589E+01  0.10197806337E+01 0.  0.
     999903    2    3    3    0    0  0.10724727877E+00  0.14729579143E-01  0.64807506739E-01  0.12773585013E+00  0.19937280996E-01 0.  0.
         14    1    1    2    0    0  0.15242778922E-01 -0.58577325519E-02  0.17410442870E-01  0.23870041073E-01  0.00000000000E+00 0. -1.
     999901    1    3    3    0    0 -0.12249005770E+00 -0.88718465908E-02 -0.82217949609E-01  0.89232410879E+00  0.88000000000E+00 0.  1.
        -11    1    4    4    0    0  0.84483497078E-01  0.34578939060E-02  0.52229369089E-01  0.99386047438E-01  0.51100000000E-03 0. -1.
         11    1    4    4    0    0  0.22763781695E-01  0.11271685237E-01  0.12578137650E-01  0.28349802696E-01  0.51100000000E-03 0.  1.
</event>
<event>
 8    1  0.1090774E+005  0.1043930E+01  0.7957747E-01            NaN
         13   -1    0    0    0    0  0.00000000000E+00  0.00000000000E+00  0.74505805969E-08  0.10566000000E+00  0.10566000000E+00 0. -1.
     999900   -1    0    0    0    0 -0.00000000000E+00 -0.00000000000E+00 -0.74505805969E-08  0.93827000000E+00  0.93827000000E+00 0.  1.
     999902    2    1    2    0    0 -0.44661213832E-02  0.75130295375E-02 -0.22629289426E-01  0.10196714635E+01  0.10193828608E+01 0.  0.
     999903    2    3    3    0    0  0.53470682989E-02  0.17078544189E-01  0.12456915793E+00  0.12734014574E+00  0.19436301037E-01 0.  0.
         14    1    1    2    0    0  0.44661213832E-02 -0.75130295375E-02  0.22629289426E-01  0.24258536497E-01  0.00000000000E+00 0. -1.
     999901    1    3    3    0    0 -0.98131896821E-02 -0.95655146511E-02 -0.14719844736E+00  0.89233131777E+00  0.88000000000E+00 0.  1.
        -11    1    4    4    0    0  0.11228869567E-01  0.54423740914E-02  0.77332816077E-01  0.78334746511E-01  0.51100000000E-03 0. -1.
         11    1    4    4    0    0 -0.58818012682E-02  0.11636170097E-01  0.47236341853E-01  0.49005399226E-01  0.51100000000E-03 0.  1.
</event>
<event>
 8    1  0.1090774E+005  0.1043930E+01  0.7957747E-01            NaN
         13   -1    0    0    0    0  0.00000000000E+00  0.00000000000E+00  0.74505805969E-08  0.10566000000E+00  0.10566000000E+00 0. -1.
     999900   -1    0    0    0    0 -0.00000000000E+00 -0.00000000000E+00 -0.74505805969E-08  0.93827000000E+00  0.93827000000E+00 0.  1.
     999902    2    1    2    0    0 -0.84815206756E-02 -0.17189007813E-01 -0.13235329146E-01  0.10206368225E+01  0.10203709871E+01 0.  0.
     999903    2    3    3    0    0  0.11325593667E-02 -0.13118744954E+00  0.29549970346E-03  0.13312842329E+00  0.22619906277E-01 0.  0.
         14    1    1    2    0    0  0.84815206756E-02  0.17189007813E-01  0.13235329146E-01  0.23293177545E-01  0.00000000000E+00 0. -1.
     999901    1    3    3    0    0 -0.96140800424E-02  0.11399844173E+00 -0.13530828849E-01  0.88750839916E+00  0.88000000000E+00 0.  1.
        -11    1    4    4    0    0 -0.46305286702E-02 -0.54808779523E-01  0.10034806532E-01  0.55914243013E-01  0.51100000000E-03 0.  1.
         11    1    4    4    0    0  0.57630880370E-02 -0.76378670021E-01 -0.97393068289E-02  0.77214180281E-01  0.51100000000E-03 0. -1.
</event>
<event>
 8    1  0.1090774E+005  0.1043930E+01  0.7957747E-01            NaN
         13   -1    0    0    0    0  0.00000000000E+00  0.00000000000E+00  0.74505805969E-08  0.10566000000E+00  0.10566000000E+00 0.  1.
     999900   -1    0    0    0    0 -0.00000000000E+00 -0.00000000000E+00 -0.74505805969E-08  0.93827000000E+00  0.93827000000E+00 0.  1.
     999902    2    1    2    0    0  0.20305650643E-03  0.15635852749E-01 -0.18094990059E-01  0.10200145283E+01  0.10197341262E+01 0.  0.
     999903    2    3    3    0    0 -0.14209769140E-01 -0.19660225522E-03 -0.13035474578E+00  0.13262473289E+00  0.19874703428E-01 0.  0.
         14    1    1    2    0    0 -0.20305650643E-03 -0.15635852749E-01  0.18094990059E-01  0.23915471736E-01  0.00000000000E+00 0.  1.
     999901    1    3    3    0    0  0.14412825647E-01  0.15832455004E-01  0.11225975572E+00  0.88738979537E+00  0.88000000000E+00 0. -1.
        -11    1    4    4    0    0  0.40559173898E-03  0.42738536475E-02 -0.77012075776E-01  0.77133334337E-01  0.51100000000E-03 0. -1.
         11    1    4    4    0    0 -0.14615360879E-01 -0.44704559027E-02 -0.53342670003E-01  0.55491398555E-01  0.51100000000E-03 0.  1.
</event>
<event>
 8    1  0.1090774E+005  0.1043930E+01  0.7957747E-01            NaN
         13   -1    0    0    0    0  0.00000000000E+00  0.00000000000E+00  0.74505805969E-08  0.10566000000E+00  0.10566000000E+00 0. -1.
     999900   -1    0    0    0    0 -0.00000000000E+00 -0.00000000000E+00 -0.74505805969E-08  0.93827000000E+00  0.93827000000E+00 0.  1.
     999902    2    1    2    0    0 -0.16820493790E-01 -0.10143730042E-01  0.95208870804E-02  0.10221017715E+01  0.10218686607E+01 0.  0.
     999903    2    3    3    0    0  0.77408213837E-01  0.28367651275E-01  0.10038108235E+00  0.13158633031E+00  0.21020119500E-01 0.  0.
         14    1    1    2    0    0  0.16820493790E-01  0.10143730042E-01 -0.95208870804E-02  0.21828228542E-01  0.00000000000E+00 0. -1.
     999901    1    3    3    0    0 -0.94228707627E-01 -0.38511381317E-01 -0.90860195267E-01  0.89051544114E+00  0.88000000000E+00 0.  1.
        -11    1    4    4    0    0  0.42904315531E-01  0.13761447451E-01  0.70451074931E-01  0.83628779777E-01  0.51100000000E-03 0. -1.
         11    1    4    4    0    0  0.34503898306E-01  0.14606203824E-01  0.29930007417E-01  0.47957550536E-01  0.51100000000E-03 0.  1.
</event>
<event>
 8    1  0.1090774E+005  0.1043930E+01  0.7957747E-01            NaN
         13   -1    0    0    0    0  0.00000000000E+00  0.00000000000E+00  0.74505805969E-08  0.10566000000E+00  0.10566000000E+00 0. -1.
     999900   -1    0    0    0    0 -0.00000000000E+00 -0.00000000000E+00 -0.74505805969E-08  0.93827000000E+00  0.93827000000E+00 0. -1.
     999902    2    1    2    0    0  0.25095038613E-02 -0.57649212040E-02  0.24336672301E-01  0.10187942576E+01  0.10184841353E+01 0.  0.
     999903    2    3    3    0    0 -0.12463592166E+00  0.17143187733E-01  0.18727307279E-01  0.12934374992E+00  0.23475343484E-01 0.  0.
         14    1    1    2    0    0 -0.25095038613E-02  0.57649212040E-02 -0.24336672301E-01  0.25135742376E-01  0.00000000000E+00 0.  1.
     999901    1    3    3    0    0  0.12714542552E+00 -0.22908108937E-01  0.56093650223E-02  0.88945050771E+00  0.88000000000E+00 0. -1.
        -11    1    4    4    0    0 -0.84202438279E-01  0.22207256311E-01  0.98795489522E-02  0.87641767746E-01  0.51100000000E-03 0. -1.
         11    1    4    4    0    0 -0.40433483377E-01 -0.50640685781E-02  0.88477583266E-02  0.41701982171E-01  0.51100000000E-03 0.  1.
</event>
<event>
 8    1  0.1090774E+005  0.1043930E+01  0.7957747E-01            NaN
         13   -1    0    0    0    0  0.00000000000E+00  0.00000000000E+00  0.74505805969E-08  0.10566000000E+00  0.10566000000E+00 0.  1.
     999900   -1    0    0    0    0 -0.00000000000E+00 -0.00000000000E+00 -0.74505805969E-08  0.93827000000E+00  0.93827000000E+00 0.  1.
     999902    2    1    2    0    0  0.21345073673E-01  0.19551534141E-02  0.10064787296E-01  0.10202501618E+01  0.10199753222E+01 0.  0.
     999903    2    3    3    0    0  0.10310585160E+00 -0.13950304333E-01 -0.78509391041E-01  0.13189032845E+00  0.20147124707E-01 0.  0.
         14    1    1    2    0    0 -0.21345073673E-01 -0.19551534141E-02 -0.10064787296E-01  0.23679838224E-01  0.00000000000E+00 0.  1.
     999901    1    3    3    0    0 -0.81760777922E-01  0.15905457747E-01  0.88574178337E-01  0.88835983332E+00  0.88000000000E+00 0. -1.
        -11    1    4    4    0    0  0.78244768238E-01 -0.12260000845E-01 -0.48461874762E-01  0.92851310189E-01  0.51100000000E-03 0. -1.
         11    1    4    4    0    0  0.24861083357E-01 -0.16903034885E-02 -0.30047516279E-01  0.39039018265E-01  0.51100000000E-03 0.  1.
</event>
<event>
 8    1  0.1090774E+005  0.1043930E+01  0.7957747E-01            NaN
         13   -1    0    0    0    0  0.00000000000E+00  0.00000000000E+00  0.74505805969E-08  0.10566000000E+00  0.10566000000E+00 0. -1.
     999900   -1    0    0    0    0 -0.00000000000E+00 -0.00000000000E+00 -0.74505805969E-08  0.93827000000E+00  0.93827000000E+00 0.  1.
     999902    2    1    2    0    0  0.12627910686E-01  0.52912128718E-02 -0.16364252084E-01  0.10225934162E+01  0.10223707963E+01 0.  0.
     999903    2    3    3    0    0 -0.11185902526E+00  0.35527036195E-01  0.53837934047E-01  0.13055106902E+00  0.19246990531E-01 0.  0.
         14    1    1    2    0    0 -0.12627910686E-01 -0.52912128718E-02  0.16364252084E-01  0.21336583799E-01  0.00000000000E+00 0.  1.
     999901    1    3    3    0    0  0.12448693595E+00 -0.30235823323E-01 -0.70202186132E-01  0.89204234719E+00  0.88000000000E+00 0.  1.
        -11    1    4    4    0    0 -0.12130069559E-01 -0.18342850020E-02  0.35844398886E-02  0.12791110948E-01  0.51100000000E-03 0.  1.
         11    1    4    4    0    0 -0.99728955706E-01  0.37361321197E-01  0.50253494159E-01  0.11775995807E+00  0.51100000000E-03 0. -1.
</event>
<event>
 8    1  0.1090774E+005  0.1043930E+01  0.7957747E-01            NaN
         13   -1    0    0    0    0  0.00000000000E+00  0.00000000000E+00  0.74505805969E-08  0.10566000000E+00  0.10566000000E+00 0. -1.
     999900   -1    0    0    0    0 -0.00000000000E+00 -0.00000000000E+00 -0.74505805969E-08  0.93827000000E+00  0.93827000000E+00 0.  1.
     999902    2    1    2    0    0 -0.14434041311E-01  0.12721884577E-01  0.14296257160E-01  0.10199597921E+01  0.10196780898E+01 0.  0.
     999903    2    3    3    0    0 -0.11758335062E-01 -0.66753712529E-01 -0.10696120015E+00  0.12809270514E+00  0.19306118000E-01 0.  0.
         14    1    1    2    0    0  0.14434041311E-01 -0.12721884577E-01 -0.14296257160E-01  0.23970207854E-01  0.00000000000E+00 0.  1.
     999901    1    3    3    0    0 -0.26757062497E-02  0.79475597106E-01  0.12125745731E+00  0.89186708701E+00  0.88000000000E+00 0. -1.
        -11    1    4    4    0    0 -0.17065536573E-01 -0.47701386810E-01 -0.75275728673E-01  0.90737816209E-01  0.51100000000E-03 0. -1.
         11    1    4    4    0    0  0.53072015114E-02 -0.19052325719E-01 -0.31685471475E-01  0.37354888927E-01  0.51100000000E-03 0.  1.
</event>
<event>
 8    1  0.1090774E+005  0.1043930E+01  0.7957747E-01            NaN
         13   -1    0    0    0    0  0.00000000000E+00  0.00000000000E+00  0.74505805969E-08  0.10566000000E+00  0.10566000000E+00 0.  1.
     999900   -1    0    0    0    0 -0.00000000000E+00 -0.00000000000E+00 -0.74505805969E-08  0.93827000000E+00  0.93827000000E+00 0.  1.
     999902    2    1    2    0    0 -0.20482393711E-02 -0.19363317195E-01  0.11614214860E-01  0.10212579175E+01  0.10210062246E+01 0.  0.
     999903    2    3    3    0    0  0.99711036762E-01 -0.77577361663E-01 -0.33737725068E-01  0.13232562330E+00  0.20280497855E-01 0.  0.
         14    1    1    2    0    0  0.20482393711E-02  0.19363317195E-01 -0.11614214860E-01  0.22672082483E-01  0.00000000000E+00 0. -1.
     999901    1    3    3    0    0 -0.10175927613E+00  0.58214044469E-01  0.45351939928E-01  0.88893229422E+00  0.88000000000E+00 0. -1.
        -11    1    4    4    0    0  0.57939937828E-01 -0.56796624813E-01 -0.18240333260E-01  0.83161673048E-01  0.51100000000E-03 0. -1.
         11    1    4    4    0    0  0.41771098935E-01 -0.20780736850E-01 -0.15497391808E-01  0.49163950249E-01  0.51100000000E-03 0.  1.
</event>
<event>
 8    1  0.1090774E+005  0.1043930E+01  0.7957747E-01            NaN
         13   -1    0    0    0    0  0.00000000000E+00  0.00000000000E+00  0.74505805969E-08  0.10566000000E+00  0.10566000000E+00 0. -1.
     999900   -1    0    0    0    0 -0.00000000000E+00 -0.00000000000E+00 -0.74505805969E-08  0.93827000000E+00  0.93827000000E+00 0. -1.
     999902    2    1    2    0    0  0.14758848800E-01  0.64030936049E-02  0.20851491657E-01  0.10175935627E+01  0.10172526977E+01 0.  0.
     999903    2    3    3    0    0  0.28979293653E-01 -0.23314124274E-01 -0.11863239114E+00  0.12599887471E+00  0.20462755153E-01 0.  0.
         14    1    1    2    0    0 -0.14758848800E-01 -0.64030936049E-02 -0.20851491657E-01  0.26336437305E-01  0.00000000000E+00 0.  1.
     999901    1    3    3    0    0 -0.14220444854E-01  0.29717217879E-01  0.13948388280E+00  0.89159468799E+00  0.88000000000E+00 0.  1.
        -11    1    4    4    0    0  0.28988959079E-02 -0.14526607137E-01 -0.45797131276E-01  0.48135893744E-01  0.51100000000E-03 0.  1.
         11    1    4    4    0    0  0.26080397745E-01 -0.87875171375E-02 -0.72835259863E-01  0.77862980962E-01  0.51100000000E-03 0. -1.
</event>
<event>
 8    1  0.1090774E+005  0.1043930E+01  0.7957747E-01            NaN
         13   -1    0    0    0    0  0.00000000000E+00  0.00000000000E+00  0.74505805969E-08  0.10566000000E+00  0.10566000000E+00 0. -1.
     999900   -1    0    0    0    0 -0.00000000000E+00 -0.00000000000E+00 -0.74505805969E-08  0.93827000000E+00  0.93827000000E+00 0. -1.
     999902    2    1    2    0    0  0.45910223069E-02 -0.24105761164E-01 -0.70745886780E-03  0.10193807494E+01  0.10190851027E+01 0.  0.
     999903    2    3    3    0    0 -0.12104758988E+00  0.36987060456E-01 -0.72776830615E-02  0.12833610317E+00  0.19915547937E-01 0.  0.
         14    1    1    2    0    0 -0.45910223069E-02  0.24105761164E-01  0.70745886780E-03  0.24549250603E-01  0.00000000000E+00 0.  1.
     999901    1    3    3    0    0  0.12563861218E+00 -0.61092821620E-01  0.65702241937E-02  0.89104464623E+00  0.88000000000E+00 0.  1.
        -11    1    4    4    0    0 -0.87603445224E-01  0.32936544936E-01 -0.11833721137E-01  0.94337043013E-01  0.51100000000E-03 0. -1.
         11    1    4    4    0    0 -0.33444144653E-01  0.40505155197E-02  0.45560380758E-02  0.33999060156E-01  0.51100000000E-03 0.  1.
</event>
<event>
 8    1  0.1090774E+005  0.1043930E+01  0.7957747E-01            NaN
         13   -1    0    0    0    0  0.00000000000E+00  0.00000000000E+00  0.74505805969E-08  0.10566000000E+00  0.10566000000E+00 0. -1.
     999900   -1    0    0    0    0 -0.00000000000E+00 -0.00000000000E+00 -0.74505805969E-08  0.93827000000E+00  0.93827000000E+00 0. -1.
     999902    2    1    2    0    0  0.21330916755E-01 -0.86612247780E-02  0.41747584291E-02  0.10205322772E+01  0.10202640224E+01 0.  0.
     999903    2    3    3    0    0 -0.72312327868E-01 -0.40059742815E-01  0.98206333813E-01  0.13002856504E+00  0.20714438680E-01 0.  0.
         14    1    1    2    0    0 -0.21330916755E-01  0.86612247780E-02 -0.41747584291E-02  0.23397722799E-01  0.00000000000E+00 0.  1.
     999901    1    3    3    0    0  0.93643244623E-01  0.31398518037E-01 -0.94031575384E-01  0.89050371216E+00  0.88000000000E+00 0. -1.
        -11    1    4    4    0    0 -0.41820498321E-01 -0.32803701246E-01  0.69724097986E-01  0.87674100259E-01  0.51100000000E-03 0. -1.
         11    1    4    4    0    0 -0.30491829547E-01 -0.72560415691E-02  0.28482235828E-01  0.42354464784E-01  0.51100000000E-03 0.  1.
</event>
<event>
 8    1  0.1258784E+005  0.1043930E+01  0.7957747E-01            NaN
         13   -1    0    0    0    0  0.00000000000E+00  0.00000000000E+00  0.74505805969E-08  0.10566000000E+00  0.10566000000E+00 0. -1.
     999900   -1    0    0    0    0 -0.00000000000E+00 -0.00000000000E+00 -0.74505805969E-08  0.93827000000E+00  0.93827000000E+00 0.  1.
     999902    2    1    2    0    0 -0.95758647788E-02 -0.11957211192E-01  0.19362936775E-01  0.10192400140E+01  0.10189409261E+01 0.  0.
     999903    2    3    3    0    0 -0.44402169764E-01 -0.44680909122E-01 -0.11097524311E+00  0.12835744431E+00  0.13863354816E-01 0.  0.
         14    1    1    2    0    0  0.95758647788E-02  0.11957211192E-01 -0.19362936775E-01  0.24689985952E-01  0.00000000000E+00 0.  1.
     999901    1    3    3    0    0  0.34826304985E-01  0.32723697930E-01  0.13033817989E+00  0.89088256974E+00  0.88000000000E+00 0. -1.
        -11    1    4    4    0    0 -0.22464235794E-01 -0.27540344002E-01 -0.50224968532E-01  0.61529838473E-01  0.51100000000E-03 0.  1.
         11    1    4    4    0    0 -0.21937933970E-01 -0.17140565120E-01 -0.60750274580E-01  0.66827605838E-01  0.51100000000E-03 0. -1.
</event>
<event>
 8    1  0.1090774E+005  0.1043930E+01  0.7957747E-01            NaN
         13   -1    0    0    0    0  0.00000000000E+00  0.00000000000E+00  0.74505805969E-08  0.10566000000E+00  0.10566000000E+00 0.  1.
     999900   -1    0    0    0    0 -0.00000000000E+00 -0.00000000000E+00 -0.74505805969E-08  0.93827000000E+00  0.93827000000E+00 0. -1.
     999902    2    1    2    0    0  0.16593724812E-01 -0.15453416908E-01  0.59634352787E-02  0.10204838413E+01  0.10202144618E+01 0.  0.
     999903    2    3    3    0    0  0.12379733535E+00 -0.30609792029E-01 -0.31913621040E-01  0.13303975787E+00  0.20453810400E-01 0.  0.
         14    1    1    2    0    0 -0.16593724812E-01  0.15453416908E-01 -0.59634352787E-02  0.23446158696E-01  0.00000000000E+00 0. -1.
     999901    1    3    3    0    0 -0.10720361054E+00  0.15156375121E-01  0.37877056319E-01  0.88744408343E+00  0.88000000000E+00 0.  1.
        -11    1    4    4    0    0  0.37098952848E-01 -0.40943859131E-02 -0.17541074542E-01  0.41243747593E-01  0.51100000000E-03 0. -1.
         11    1    4    4    0    0  0.86698382501E-01 -0.26515406116E-01 -0.14372546498E-01  0.91796010281E-01  0.51100000000E-03 0.  1.
</event>
<event>
 8    1  0.1090774E+005  0.1043930E+01  0.7957747E-01            NaN
         13   -1    0    0    0    0  0.00000000000E+00  0.00000000000E+00  0.74505805969E-08  0.10566000000E+00  0.10566000000E+00 0. -1.
     999900   -1    0    0    0    0 -0.00000000000E+00 -0.00000000000E+00 -0.74505805969E-08  0.93827000000E+00  0.93827000000E+00 0. -1.
     999902    2    1    2    0    0  0.58890144983E-02  0.21760504687E-01 -0.55969880914E-02  0.10207022939E+01  0.10204379679E+01 0.  0.
     999903    2    3    3    0    0  0.76767591566E-01 -0.16130041227E-01  0.10243298548E+00  0.13046078656E+00  0.19340604209E-01 0.  0.
         14    1    1    2    0    0 -0.58890144983E-02 -0.21760504687E-01  0.55969880914E-02  0.23227706122E-01  0.00000000000E+00 0. -1.
     999901    1    3    3    0    0 -0.70878577068E-01  0.37890545913E-01 -0.10802997357E+00  0.89024150732E+00  0.88000000000E+00 0. -1.
        -11    1    4    4    0    0  0.31337668505E-01  0.21579125704E-02  0.33800541195E-01  0.46145896460E-01  0.51100000000E-03 0.  1.
         11    1    4    4    0    0  0.45429923062E-01 -0.18287953797E-01  0.68632444286E-01  0.84314890103E-01  0.51100000000E-03 0. -1.
</event>
<event>
 8    1  0.1090774E+005  0.1043930E+01  0.7957747E-01            NaN
         13   -1    0    0    0    0  0.00000000000E+00  0.00000000000E+00  0.74505805969E-08  0.10566000000E+00  0.10566000000E+00 0. -1.
     999900   -1    0    0    0    0 -0.00000000000E+00 -0.00000000000E+00 -0.74505805969E-08  0.93827000000E+00  0.93827000000E+00 0.  1.
     999902    2    1    2    0    0 -0.30999992514E-02 -0.37794469004E-02  0.24182134369E-01  0.10192587650E+01  0.10189601367E+01 0.  0.
     999903    2    3    3    0    0 -0.17419681389E-01 -0.10484536506E+00  0.75481855633E-01  0.13187438688E+00  0.19933577515E-01 0.  0.
         14    1    1    2    0    0  0.30999992514E-02  0.37794469004E-02 -0.24182134369E-01  0.24671235009E-01  0.00000000000E+00 0.  1.
     999901    1    3    3    0    0  0.14319682137E-01  0.10106591815E+00 -0.51299721265E-01  0.88738437811E+00  0.88000000000E+00 0.  1.
        -11    1    4    4    0    0 -0.12207392696E-01 -0.78285558548E-01  0.45053303356E-01  0.91146642165E-01  0.51100000000E-03 0. -1.
         11    1    4    4    0    0 -0.52122886923E-02 -0.26559806507E-01  0.30428552277E-01  0.40727744718E-01  0.51100000000E-03 0.  1.
</event>
<event>
 8    1  0.1090774E+005  0.1043930E+01  0.7957747E-01            NaN
         13   -1    0    0    0    0  0.00000000000E+00  0.00000000000E+00  0.74505805969E-08  0.10566000000E+00  0.10566000000E+00 0.  1.
     999900   -1    0    0    0    0 -0.00000000000E+00 -0.00000000000E+00 -0.74505805969E-08  0.93827000000E+00  0.93827000000E+00 0.  1.
     999902    2    1    2    0    0  0.14270892037E-01 -0.84637024664E-02  0.19112141313E-01  0.10186205835E+01  0.10183061065E+01 0.  0.
     999903    2    3    3    0    0  0.76454821889E-01  0.82151775974E-01  0.64271688828E-01  0.13063556627E+00  0.18453918370E-01 0.  0.
         14    1    1    2    0    0 -0.14270892037E-01  0.84637024664E-02 -0.19112141313E-01  0.25309416519E-01  0.00000000000E+00 0. -1.
     999901    1    3    3    0    0 -0.62183929853E-01 -0.90615478441E-01 -0.45159547515E-01  0.88798501721E+00  0.88000000000E+00 0. -1.
        -11    1    4    4    0    0  0.64251350199E-01  0.72004290291E-01  0.47577203248E-01  0.10759509846E+00  0.51100000000E-03 0.  1.
         11    1    4    4    0    0  0.12203471690E-01  0.10147485683E-01  0.16694485579E-01  0.23040467807E-01  0.51100000000E-03 0. -1.
</event>
<event>
 8    1  0.1090774E+005  0.1043930E+01  0.7957747E-01            NaN
         13   -1    0    0    0    0  0.00000000000E+00  0.00000000000E+00  0.74505805969E-08  0.10566000000E+00  0.10566000000E+00 0.  1.
     999900   -1    0    0    0    0 -0.00000000000E+00 -0.00000000000E+00 -0.74505805969E-08  0.93827000000E+00  0.93827000000E+00 0. -1.
     999902    2    1    2    0    0  0.22901024707E-01 -0.31532389957E-02  0.10592620622E-02  0.10207886542E+01  0.10205263126E+01 0.  0.
     999903    2    3    3    0    0 -0.10883419996E+00  0.63816819922E-01  0.93827232530E-02  0.12842749514E+00  0.22093357075E-01 0.  0.
         14    1    1    2    0    0 -0.22901024707E-01  0.31532389957E-02 -0.10592620622E-02  0.23141345788E-01  0.00000000000E+00 0. -1.
     999901    1    3    3    0    0  0.13173522467E+00 -0.66970058918E-01 -0.83234611909E-02  0.89236115907E+00  0.88000000000E+00 0.  1.
        -11    1    4    4    0    0 -0.65047979848E-01  0.34983050771E-01  0.16025338690E-01  0.75578608910E-01  0.51100000000E-03 0.  1.
         11    1    4    4    0    0 -0.43786220112E-01  0.28833769151E-01 -0.66426154371E-02  0.52848886232E-01  0.51100000000E-03 0. -1.
</event>
<event>
 8    1  0.1090774E+005  0.1043930E+01  0.7957747E-01            NaN
         13   -1    0    0    0    0  0.00000000000E+00  0.00000000000E+00  0.74505805969E-08  0.10566000000E+00  0.10566000000E+00 0.  1.
     999900   -1    0    0    0    0 -0.00000000000E+00 -0.00000000000E+00 -0.74505805969E-08  0.93827000000E+00  0.93827000000E+00 0. -1.
     999902    2    1    2    0    0  0.13299341766E-01  0.71827026985E-02  0.19213396300E-01  0.10194837670E+01  0.10191906264E+01 0.  0.
     999903    2    3    3    0    0 -0.32470154277E-01 -0.60966491827E-01  0.10955345604E+00  0.13105791988E+00  0.20074725065E-01 0.  0.
         14    1    1    2    0    0 -0.13299341766E-01 -0.71827026985E-02 -0.19213396300E-01  0.24446232979E-01  0.00000000000E+00 0. -1.
     999901    1    3    3    0    0  0.45769496043E-01  0.68149194525E-01 -0.90340059744E-01  0.88842584715E+00  0.88000000000E+00 0.  1.
        -11    1    4    4    0    0 -0.38811934077E-02 -0.27347472170E-01  0.37832946452E-01  0.46845926766E-01  0.51100000000E-03 0.  1.
         11    1    4    4    0    0 -0.28588960869E-01 -0.33619019657E-01  0.71720509592E-01  0.84211993109E-01  0.51100000000E-03 0. -1.
</event>
<event>
 8    1  0.1090774E+005  0.1043930E+01  0.7957747E-01            NaN
         13   -1    0    0    0    0  0.00000000000E+00  0.00000000000E+00  0.74505805969E-08  0.10566000000E+00  0.10566000000E+00 0.  1.
     999900   -1    0    0    0    0 -0.00000000000E+00 -0.00000000000E+00 -0.74505805969E-08  0.93827000000E+00  0.93827000000E+00 0.  1.
     999902    2    1    2    0    0 -0.86238514809E-02  0.27550984618E-01  0.30160038654E-02  0.10149037387E+01  0.10144885780E+01 0.  0.
     999903    2    3    3    0    0 -0.90377368217E-01 -0.82907500366E-01  0.16579278149E-02  0.12423738207E+00  0.19759961428E-01 0.  0.
         14    1    1    2    0    0  0.86238514809E-02 -0.27550984618E-01 -0.30160038654E-02  0.29026261335E-01  0.00000000000E+00 0. -1.
     999901    1    3    3    0    0  0.81753516736E-01  0.11045848498E+00  0.13580760505E-02  0.89066635660E+00  0.88000000000E+00 0.  1.
        -11    1    4    4    0    0 -0.54992434180E-01 -0.43007480198E-01  0.90358865761E-02  0.70396871644E-01  0.51100000000E-03 0.  1.
         11    1    4    4    0    0 -0.35384934037E-01 -0.39900020169E-01 -0.73779587612E-02  0.53840510424E-01  0.51100000000E-03 0. -1.
</event>
<event>
 8    1  0.1090774E+005  0.1043930E+01  0.7957747E-01            NaN
         13   -1    0    0    0    0  0.00000000000E+00  0.00000000000E+00  0.74505805969E-08  0.10566000000E+00  0.10566000000E+00 0. -1.
     999900   -1    0    0    0    0 -0.00000000000E+00 -0.00000000000E+00 -0.74505805969E-08  0.93827000000E+00  0.93827000000E+00 0.  1.
     999902    2    1    2    0    0 -0.18571185039E-01 -0.11866706016E-01  0.89918302303E-02  0.10201274658E+01  0.10198497369E+01 0.  0.
     999903    2    3    3    0    0 -0.77495382122E-01  0.30904839021E-01  0.10058623028E+00  0.13238256986E+00  0.21140287520E-01 0.  0.
         14    1    1    2    0    0  0.18571185039E-01  0.11866706016E-01 -0.89918302303E-02  0.23802534241E-01  0.00000000000E+00 0.  1.
     999901    1    3    3    0    0  0.58924197083E-01 -0.42771545038E-01 -0.91594400051E-01  0.88774489589E+00  0.88000000000E+00 0. -1.
        -11    1    4    4    0    0 -0.48941661927E-01  0.16306245685E-01  0.76511101423E-01  0.92278869100E-01  0.51100000000E-03 0.  1.
         11    1    4    4    0    0 -0.28553720196E-01  0.14598593336E-01  0.24075128858E-01  0.40103700764E-01  0.51100000000E-03 0. -1.
</event>
<event>
 8    1  0.1090774E+005  0.1043930E+01  0.7957747E-01            NaN
         13   -1    0    0    0    0  0.00000000000E+00  0.00000000000E+00  0.74505805969E-08  0.10566000000E+00  0.10566000000E+00 0.  1.
     999900   -1    0    0    0    0 -0.00000000000E+00 -0.00000000000E+00 -0.74505805969E-08  0.93827000000E+00  0.93827000000E+00 0.  1.
     999902    2    1    2    0    0 -0.18774329423E-01  0.75307330935E-02  0.19775002137E-01  0.10156415201E+01  0.10152474867E+01 0.  0.
     999903    2    3    3    0    0 -0.14558910327E-01  0.70999707981E-01  0.10511998431E+00  0.12922748223E+00  0.19915086227E-01 0.  0.
         14    1    1    2    0    0  0.18774329423E-01 -0.75307330935E-02 -0.19775002137E-01  0.28288479912E-01  0.00000000000E+00 0.  1.
     999901    1    3    3    0    0 -0.42154190961E-02 -0.63468974888E-01 -0.85344982169E-01  0.88641403786E+00  0.88000000000E+00 0.  1.
        -11    1    4    4    0    0 -0.13865427188E-01  0.31946398386E-01  0.61464067227E-01  0.70646409123E-01  0.51100000000E-03 0. -1.
         11    1    4    4    0    0 -0.69348313877E-03  0.39053309595E-01  0.43655917080E-01  0.58581073106E-01  0.51100000000E-03 0.  1.
</event>
<event>
 8    1  0.1090774E+005  0.1043930E+01  0.7957747E-01            NaN
         13   -1    0    0    0    0  0.00000000000E+00  0.00000000000E+00  0.74505805969E-08  0.10566000000E+00  0.10566000000E+00 0. -1.
     999900   -1    0    0    0    0 -0.00000000000E+00 -0.00000000000E+00 -0.74505805969E-08  0.93827000000E+00  0.93827000000E+00 0. -1.
     999902    2    1    2    0    0  0.12352251072E-03  0.40322665763E-02  0.23375989018E-01  0.10202084635E+01  0.10199326437E+01 0.  0.
     999903    2    3    3    0    0 -0.76705229950E-01 -0.88487753860E-02  0.10636272100E+00  0.13287798609E+00  0.19532988517E-01 0.  0.
         14    1    1    2    0    0 -0.12352251072E-03 -0.40322665763E-02 -0.23375989018E-01  0.23721536505E-01  0.00000000000E+00 0.  1.
     999901    1    3    3    0    0  0.76828752461E-01  0.12881041962E-01 -0.82986731986E-01  0.88733047741E+00  0.88000000000E+00 0. -1.
        -11    1    4    4    0    0 -0.44055252773E-01  0.45669151758E-02  0.56853238008E-01  0.72071310548E-01  0.51100000000E-03 0. -1.
         11    1    4    4    0    0 -0.32649977176E-01 -0.13415690562E-01  0.49509482996E-01  0.60806675542E-01  0.51100000000E-03 0.  1.
</event>
<event>
 8    1  0.1090774E+005  0.1043930E+01  0.7957747E-01            NaN
         13   -1    0    0    0    0  0.00000000000E+00  0.00000000000E+00  0.74505805969E-08  0.10566000000E+00  0.10566000000E+00 0. -1.
     999900   -1    0    0    0    0 -0.00000000000E+00 -0.00000000000E+00 -0.74505805969E-08  0.93827000000E+00  0.93827000000E+00 0. -1.
     999902    2    1    2    0    0 -0.28716814962E-02  0.13618114348E-01  0.20053691950E-01  0.10195199579E+01  0.10192276951E+01 0.  0.
     999903    2    3    3    0    0  0.74761972461E-01  0.10029587385E+00 -0.30499231069E-01  0.13042175399E+00  0.20760924376E-01 0.  0.
         14    1    1    2    0    0  0.28716814962E-02 -0.13618114348E-01 -0.20053691950E-01  0.24410042070E-01  0.00000000000E+00 0.  1.
     999901    1    3    3    0    0 -0.77633653958E-01 -0.86677759503E-01  0.50552923020E-01  0.88909820394E+00  0.88000000000E+00 0.  1.
        -11    1    4    4    0    0  0.20530628490E-01  0.37926495320E-01 -0.26754038452E-02  0.43212783528E-01  0.51100000000E-03 0. -1.
         11    1    4    4    0    0  0.54231343971E-01  0.62369378530E-01 -0.27823827224E-01  0.87208970465E-01  0.51100000000E-03 0.  1.
</event>
<event>
 8    1  0.1090774E+005  0.1043930E+01  0.7957747E-01            NaN
         13   -1    0    0    0    0  0.00000000000E+00  0.00000000000E+00  0.74505805969E-08  0.10566000000E+00  0.10566000000E+00 0. -1.
     999900   -1    0    0    0    0 -0.00000000000E+00 -0.00000000000E+00 -0.74505805969E-08  0.93827000000E+00  0.93827000000E+00 0. -1.
     999902    2    1    2    0    0 -0.11319332510E-01  0.14866310599E-01 -0.14157086051E-01  0.10204873558E+01  0.10202180580E+01 0.  0.
     999903    2    3    3    0    0 -0.48010566718E-01 -0.38014572459E-01  0.11198505790E+00  0.12916559860E+00  0.19823633227E-01 0.  0.
         14    1    1    2    0    0  0.11319332510E-01 -0.14866310599E-01  0.14157086051E-01  0.23442644150E-01  0.00000000000E+00 0. -1.
     999901    1    3    3    0    0  0.36691234208E-01  0.52880883058E-01 -0.12614214395E+00  0.89132175725E+00  0.88000000000E+00 0. -1.
        -11    1    4    4    0    0 -0.29140425547E-01 -0.34342998716E-01  0.81595756859E-01  0.93202653504E-01  0.51100000000E-03 0. -1.
         11    1    4    4    0    0 -0.18870141170E-01 -0.36715737432E-02  0.30389301040E-01  0.35962945099E-01  0.51100000000E-03 0.  1.
</event>
<event>
 8    1  0.1090774E+005  0.1043930E+01  0.7957747E-01            NaN
         13   -1    0    0    0    0  0.00000000000E+00  0.00000000000E+00  0.74505805969E-08  0.10566000000E+00  0.10566000000E+00 0. -1.
     999900   -1    0    0    0    0 -0.00000000000E+00 -0.00000000000E+00 -0.74505805969E-08  0.93827000000E+00  0.93827000000E+00 0. -1.
     999902    2    1    2    0    0  0.19879429672E-01 -0.12394482167E-01  0.49892424122E-02  0.10199778090E+01  0.10196965350E+01 0.  0.
     999903    2    3    3    0    0  0.34803211071E-01  0.10454305344E+00 -0.64626435371E-01  0.12939179461E+00  0.20619089256E-01 0.  0.
         14    1    1    2    0    0 -0.19879429672E-01  0.12394482167E-01 -0.49892424122E-02  0.23952190967E-01  0.00000000000E+00 0. -1.
     999901    1    3    3    0    0 -0.14923781399E-01 -0.11693753560E+00  0.69615677783E-01  0.89058601442E+00  0.88000000000E+00 0.  1.
        -11    1    4    4    0    0  0.94030537861E-02  0.51823536127E-01 -0.22457004926E-01  0.57259711041E-01  0.51100000000E-03 0.  1.
         11    1    4    4    0    0  0.25400157285E-01  0.52719517311E-01 -0.42169430445E-01  0.72132083574E-01  0.51100000000E-03 0. -1.
</event>
<event>
 8    1  0.1090774E+005  0.1043930E+01  0.7957747E-01            NaN
         13   -1    0    0    0    0  0.00000000000E+00  0.00000000000E+00  0.74505805969E-08  0.10566000000E+00  0.10566000000E+00 0. -1.
     999900   -1    0    0    0    0 -0.00000000000E+00 -0.00000000000E+00 -0.74505805969E-08  0.93827000000E+00  0.93827000000E+00 0. -1.
     999902    2    1    2    0    0  0.20736399727E-01  0.82745399144E-02  0.24427919810E-01  0.10108363518E+01  0.10102944821E+01 0.  0.
     999903    2    3    3    0    0  0.72346046542E-01 -0.27530533017E-01 -0.90576709274E-01  0.12113324200E+00  0.21845854432E-01 0.  0.
         14    1    1    2    0    0 -0.20736399727E-01 -0.82745399144E-02 -0.24427919810E-01  0.33093648192E-01  0.00000000000E+00 0.  1.
     999901    1    3    3    0    0 -0.51609646815E-01  0.35805072932E-01  0.11500462908E+00  0.88970310981E+00  0.88000000000E+00 0.  1.
        -11    1    4    4    0    0  0.38515366085E-01 -0.19151361094E-01 -0.34664661713E-01  0.55245886264E-01  0.51100000000E-03 0.  1.
         11    1    4    4    0    0  0.33830680457E-01 -0.83791719232E-02 -0.55912047561E-01  0.65887355736E-01  0.51100000000E-03 0. -1.
</event>
<event>
 8    1  0.1090774E+005  0.1043930E+01  0.7957747E-01            NaN
         13   -1    0    0    0    0  0.00000000000E+00  0.00000000000E+00  0.74505805969E-08  0.10566000000E+00  0.10566000000E+00 0.  1.
     999900   -1    0    0    0    0 -0.00000000000E+00 -0.00000000000E+00 -0.74505805969E-08  0.93827000000E+00  0.93827000000E+00 0.  1.
     999902    2    1    2    0    0 -0.14118592869E-01  0.59682795646E-02  0.18391369256E-01  0.10199884568E+01  0.10197074358E+01 0.  0.
     999903    2    3    3    0    0  0.64468333991E-01 -0.12919437606E-01 -0.10714354726E+00  0.12741259665E+00  0.20764202607E-01 0.  0.
         14    1    1    2    0    0  0.14118592869E-01 -0.59682795646E-02 -0.18391369256E-01  0.23941543156E-01  0.00000000000E+00 0. -1.
     999901    1    3    3    0    0 -0.78586926860E-01  0.18887717170E-01  0.12553491652E+00  0.89257586019E+00  0.88000000000E+00 0.  1.
        -11    1    4    4    0    0  0.45936949963E-01 -0.13833702983E-01 -0.90735252718E-01  0.10263879343E+00  0.51100000000E-03 0. -1.
         11    1    4    4    0    0  0.18531384028E-01  0.91426537706E-03 -0.16408294545E-01  0.24773803221E-01  0.51100000000E-03 0.  1.
</event>
<event>
 8    1  0.1090774E+005  0.1043930E+01  0.7957747E-01            NaN
         13   -1    0    0    0    0  0.00000000000E+00  0.00000000000E+00  0.74505805969E-08  0.10566000000E+00  0.10566000000E+00 0.  1.
     999900   -1    0    0    0    0 -0.00000000000E+00 -0.00000000000E+00 -0.74505805969E-08  0.93827000000E+00  0.93827000000E+00 0. -1.
     999902    2    1    2    0    0  0.31056212661E-01  0.11896442330E-01  0.63131828331E-03  0.10106672243E+01  0.10101197088E+01 0.  0.
     999903    2    3    3    0    0 -0.12193727372E-01  0.10234380636E+00  0.59546174021E-01  0.12301738162E+00  0.31057811438E-01 0.  0.
         14    1    1    2    0    0 -0.31056212661E-01 -0.11896442330E-01 -0.63131828331E-03  0.33262775707E-01  0.00000000000E+00 0. -1.
     999901    1    3    3    0    0  0.43249940033E-01 -0.90447364035E-01 -0.58914855738E-01  0.88764984267E+00  0.88000000000E+00 0. -1.
        -11    1    4    4    0    0 -0.19653395583E-01  0.79706042401E-01  0.54811764480E-01  0.98711193892E-01  0.51100000000E-03 0. -1.
         11    1    4    4    0    0  0.74596682114E-02  0.22637763963E-01  0.47344095410E-02  0.24306187726E-01  0.51100000000E-03 0.  1.
</event>
<event>
 8    1  0.1090774E+005  0.1043930E+01  0.7957747E-01            NaN
         13   -1    0    0    0    0  0.00000000000E+00  0.00000000000E+00  0.74505805969E-08  0.10566000000E+00  0.10566000000E+00 0. -1.
     999900   -1    0    0    0    0 -0.00000000000E+00 -0.00000000000E+00 -0.74505805969E-08  0.93827000000E+00  0.93827000000E+00 0.  1.
     999902    2    1    2    0    0 -0.55242907409E-02 -0.21701387175E-01 -0.83378347766E-02  0.10200346556E+01  0.10197547309E+01 0.  0.
     999903    2    3    3    0    0  0.19398393947E-01  0.25318083737E-01  0.12313694175E+00  0.12867749505E+00  0.19439348185E-01 0.  0.
         14    1    1    2    0    0  0.55242907409E-02  0.21701387175E-01  0.83378347766E-02  0.23895344364E-01  0.00000000000E+00 0.  1.
     999901    1    3    3    0    0 -0.24922684688E-01 -0.47019470912E-01 -0.13147477653E+00  0.89135716058E+00  0.88000000000E+00 0.  1.
        -11    1    4    4    0    0 -0.36014980531E-02  0.68304245586E-02  0.29596475785E-01  0.30591469199E-01  0.51100000000E-03 0. -1.
         11    1    4    4    0    0  0.22999892000E-01  0.18487659179E-01  0.93540465966E-01  0.98086025855E-01  0.51100000000E-03 0.  1.
</event>
<event>
 8    1  0.1090774E+005  0.1043930E+01  0.7957747E-01            NaN
         13   -1    0    0    0    0  0.00000000000E+00  0.00000000000E+00  0.74505805969E-08  0.10566000000E+00  0.10566000000E+00 0. -1.
     999900   -1    0    0    0    0 -0.00000000000E+00 -0.00000000000E+00 -0.74505805969E-08  0.93827000000E+00  0.93827000000E+00 0.  1.
     999902    2    1    2    0    0  0.73026498762E-02 -0.17968182218E-01 -0.13909350328E-01  0.10200625683E+01  0.10197833049E+01 0.  0.
     999903    2    3    3    0    0  0.35886719659E-01 -0.33193775223E-01  0.11839480202E+00  0.12958333980E+00  0.19617070311E-01 0.  0.
         14    1    1    2    0    0 -0.73026498762E-02  0.17968182218E-01  0.13909350328E-01  0.23867431658E-01  0.00000000000E+00 0. -1.
     999901    1    3    3    0    0 -0.28584069783E-01  0.15225593005E-01 -0.13230415235E+00  0.89047922854E+00  0.88000000000E+00 0.  1.
        -11    1    4    4    0    0  0.16920380399E-01 -0.13853092390E-01  0.29987112245E-01  0.37117320262E-01  0.51100000000E-03 0.  1.
         11    1    4    4    0    0  0.18966339259E-01 -0.19340682833E-01  0.88407689777E-01  0.92466019542E-01  0.51100000000E-03 0. -1.
</event>
<event>
 8    1  0.1090774E+005  0.1043930E+01  0.7957747E-01            NaN
         13   -1    0    0    0    0  0.00000000000E+00  0.00000000000E+00  0.74505805969E-08  0.10566000000E+00  0.10566000000E+00 0.  1.
     999900   -1    0    0    0    0 -0.00000000000E+00 -0.00000000000E+00 -0.74505805969E-08  0.93827000000E+00  0.93827000000E+00 0. -1.
     999902    2    1    2    0    0 -0.20466157739E-01  0.83305578039E-02 -0.52654174900E-02  0.10212146654E+01  0.10209620004E+01 0.  0.
     999903    2    3    3    0    0 -0.84996484874E-02 -0.12055289162E+00 -0.45184746280E-01  0.13085086687E+00  0.21795512401E-01 0.  0.
         14    1    1    2    0    0  0.20466157739E-01 -0.83305578039E-02  0.52654174900E-02  0.22715334628E-01  0.00000000000E+00 0.  1.
     999901    1    3    3    0    0 -0.11966509251E-01  0.12888344942E+00  0.39919328790E-01  0.89036379851E+00  0.88000000000E+00 0. -1.
        -11    1    4    4    0    0 -0.99106858992E-02 -0.67822806578E-01 -0.35590456866E-01  0.77234037367E-01  0.51100000000E-03 0. -1.
         11    1    4    4    0    0  0.14110374118E-02 -0.52730085043E-01 -0.95942894135E-02  0.53616829499E-01  0.51100000000E-03 0.  1.
</event>
<event>
 8    1  0.1090774E+005  0.1043930E+01  0.7957747E-01            NaN
         13   -1    0    0    0    0  0.00000000000E+00  0.00000000000E+00  0.74505805969E-08  0.10566000000E+00  0.10566000000E+00 0.  1.
     999900   -1    0    0    0    0 -0.00000000000E+00 -0.00000000000E+00 -0.74505805969E-08  0.93827000000E+00  0.93827000000E+00 0. -1.
     999902    2    1    2    0    0 -0.16132058323E-01 -0.42523133843E-02 -0.16787571263E-01  0.10202625535E+01  0.10199880049E+01 0.  0.
     999903    2    3    3    0    0 -0.61180466912E-01 -0.90320776719E-01  0.68941821356E-01  0.13077580922E+00  0.21176527246E-01 0.  0.
         14    1    1    2    0    0  0.16132058323E-01  0.42523133843E-02  0.16787571263E-01  0.23667446498E-01  0.00000000000E+00 0.  1.
     999901    1    3    3    0    0  0.45048408589E-01  0.86068463334E-01 -0.85729392619E-01  0.88948674428E+00  0.88000000000E+00 0.  1.
        -11    1    4    4    0    0 -0.54181440533E-01 -0.82135962427E-01  0.53674649017E-01  0.11208556504E+00  0.51100000000E-03 0.  1.
         11    1    4    4    0    0 -0.69990263789E-02 -0.81848142915E-02  0.15267172339E-01  0.18690244179E-01  0.51100000000E-03 0. -1.
</event>
<event>
 8    1  0.1090774E+005  0.1043930E+01  0.7957747E-01            NaN
         13   -1    0    0    0    0  0.00000000000E+00  0.00000000000E+00  0.74505805969E-08  0.10566000000E+00  0.10566000000E+00 0.  1.
     999900   -1    0    0    0    0 -0.00000000000E+00 -0.00000000000E+00 -0.74505805969E-08  0.93827000000E+00  0.93827000000E+00 0. -1.
     999902    2    1    2    0    0  0.19587110025E-01 -0.37501073859E-03 -0.18737595324E-02  0.10242498962E+01  0.10240608104E+01 0.  0.
     999903    2    3    3    0    0  0.64384183710E-01  0.11956543797E-01 -0.11687720905E+00  0.13555161303E+00  0.20631910911E-01 0.  0.
         14    1    1    2    0    0 -0.19587110025E-01  0.37501073859E-03  0.18737595324E-02  0.19680103836E-01  0.00000000000E+00 0. -1.
     999901    1    3    3    0    0 -0.44797073685E-01 -0.12331554536E-01  0.11500344952E+00  0.88869828314E+00  0.88000000000E+00 0.  1.
        -11    1    4    4    0    0  0.30896900860E-01  0.76473089520E-02 -0.76858738250E-01  0.83190303421E-01  0.51100000000E-03 0. -1.
         11    1    4    4    0    0  0.33487282851E-01  0.43092348452E-02 -0.40018470799E-01  0.52361309607E-01  0.51100000000E-03 0.  1.
</event>
<event>
 8    1  0.1090774E+005  0.1043930E+01  0.7957747E-01            NaN
         13   -1    0    0    0    0  0.00000000000E+00  0.00000000000E+00  0.74505805969E-08  0.10566000000E+00  0.10566000000E+00 0.  1.
     999900   -1    0    0    0    0 -0.00000000000E+00 -0.00000000000E+00 -0.74505805969E-08  0.93827000000E+00  0.93827000000E+00 0. -1.
     999902    2    1    2    0    0 -0.25894960982E-01  0.66110782617E-02 -0.56299819454E-03  0.10171985143E+01  0.10168472084E+01 0.  0.
     999903    2    3    3    0    0  0.59121067274E-01 -0.27902020758E-01 -0.10619619730E+00  0.12614450259E+00  0.18999469838E-01 0.  0.
         14    1    1    2    0    0  0.25894960982E-01 -0.66110782617E-02  0.56299819454E-03  0.26731485686E-01  0.00000000000E+00 0.  1.
     999901    1    3    3    0    0 -0.85016028256E-01  0.34513099019E-01  0.10563319910E+00  0.89105401173E+00  0.88000000000E+00 0.  1.
        -11    1    4    4    0    0  0.24210105680E-01 -0.14378281081E-01 -0.62816673239E-01  0.68840829031E-01  0.51100000000E-03 0. -1.
         11    1    4    4    0    0  0.34910961595E-01 -0.13523739677E-01 -0.43379524058E-01  0.57303673554E-01  0.51100000000E-03 0.  1.
</event>
<event>
 8    1  0.1090774E+005  0.1043930E+01  0.7957747E-01            NaN
         13   -1    0    0    0    0  0.00000000000E+00  0.00000000000E+00  0.74505805969E-08  0.10566000000E+00  0.10566000000E+00 0.  1.
     999900   -1    0    0    0    0 -0.00000000000E+00 -0.00000000000E+00 -0.74505805969E-08  0.93827000000E+00  0.93827000000E+00 0.  1.
     999902    2    1    2    0    0 -0.27305572383E-02  0.20809081684E-01  0.10593160302E-01  0.10204206642E+01  0.10201498141E+01 0.  0.
     999903    2    3    3    0    0 -0.10855989203E+00 -0.11811832721E-01  0.71203724035E-01  0.13141132086E+00  0.16558846085E-01 0.  0.
         14    1    1    2    0    0  0.27305572383E-02 -0.20809081684E-01 -0.10593160302E-01  0.23509335774E-01  0.00000000000E+00 0.  1.
     999901    1    3    3    0    0  0.10582933479E+00  0.32620914405E-01 -0.60610563733E-01  0.88900934337E+00  0.88000000000E+00 0. -1.
        -11    1    4    4    0    0 -0.99538823906E-01 -0.62134037079E-02  0.62772182423E-01  0.11784393008E+00  0.51100000000E-03 0.  1.
         11    1    4    4    0    0 -0.90210681228E-02 -0.55984290132E-02  0.84315416117E-02  0.13567390775E-01  0.51100000000E-03 0. -1.
</event>
<event>
 8    1  0.1090774E+005  0.1043930E+01  0.7957747E-01            NaN
         13   -1    0    0    0    0  0.00000000000E+00  0.00000000000E+00  0.74505805969E-08  0.10566000000E+00  0.10566000000E+00 0.  1.
     999900   -1    0    0    0    0 -0.00000000000E+00 -0.00000000000E+00 -0.74505805969E-08  0.93827000000E+00  0.93827000000E+00 0.  1.
     999902    2    1    2    0    0  0.84609050257E-02 -0.98995923762E-03  0.21336470782E-01  0.10209558424E+01  0.10206973205E+01 0.  0.
     999903    2    3    3    0    0 -0.79759393405E-01 -0.10137704169E+00 -0.55329588911E-02  0.13046027606E+00  0.18719096581E-01 0.  0.
         14    1    1    2    0    0 -0.84609050257E-02  0.98995923762E-03 -0.21336470782E-01  0.22974157625E-01  0.00000000000E+00 0. -1.
     999901    1    3    3    0    0  0.88220298430E-01  0.10038708245E+00  0.26869429673E-01  0.89049556632E+00  0.88000000000E+00 0.  1.
        -11    1    4    4    0    0 -0.42013473023E-01 -0.64267637748E-01 -0.95387772652E-02  0.77373836468E-01  0.51100000000E-03 0.  1.
         11    1    4    4    0    0 -0.37745920382E-01 -0.37109403943E-01  0.40058183742E-02  0.53086439590E-01  0.51100000000E-03 0. -1.
</event>
<event>
 8    1  0.1090774E+005  0.1043930E+01  0.7957747E-01            NaN
         13   -1    0    0    0    0  0.00000000000E+00  0.00000000000E+00  0.74505805969E-08  0.10566000000E+00  0.10566000000E+00 0.  1.
     999900   -1    0    0    0    0 -0.00000000000E+00 -0.00000000000E+00 -0.74505805969E-08  0.93827000000E+00  0.93827000000E+00 0. -1.
     999902    2    1    2    0    0  0.25040715972E-01 -0.67177750329E-02  0.65727257901E-02  0.10171836604E+01  0.10168319587E+01 0.  0.
     999903    2    3    3    0    0  0.96003680723E-01 -0.13709795214E-01  0.85644417097E-01  0.13076560830E+00  0.18974006904E-01 0.  0.
         14    1    1    2    0    0 -0.25040715972E-01  0.67177750329E-02 -0.65727257901E-02  0.26746339602E-01  0.00000000000E+00 0. -1.
     999901    1    3    3    0    0 -0.70962964750E-01  0.69920201810E-02 -0.79071691307E-01  0.88641805209E+00  0.88000000000E+00 0. -1.
        -11    1    4    4    0    0  0.44283143698E-01 -0.61950237436E-02  0.27113371846E-01  0.52295039810E-01  0.51100000000E-03 0. -1.
         11    1    4    4    0    0  0.51720537025E-01 -0.75147714704E-02  0.58531045251E-01  0.78470568493E-01  0.51100000000E-03 0.  1.
</event>
<event>
 7    1  0.1090774E+005  0.1043930E+01  0.7957747E-01            NaN
         13   -1    0    0    0    0  0.00000000000E+00  0.00000000000E+00  0.74505805969E-08  0.10566000000E+00  0.10566000000E+00 0.  1.
     999900   -1    0    0    0    0 -0.00000000000E+00 -0.00000000000E+00 -0.74505805969E-08  0.93827000000E+00  0.93827000000E+00 0. -1.
     999902    2    1    2    0    0 -0.10474279628E-01  0.20291506688E-01 -0.54101282972E-02  0.10204624636E+01  0.10201925869E+01 0.  0.
         14    1    1    2    0    0  0.10474279628E-01 -0.20291506688E-01  0.54101282972E-02  0.23467536419E-01  0.00000000000E+00 0. -1.
     999901    1    3    3    0    0  0.10256188666E+00  0.25860311094E-01  0.53496477822E-01  0.88794682804E+00  0.88000000000E+00 0.  1.
        -11    1    3    3    0    0 -0.39298807388E-01 -0.13702739462E-01 -0.35554475085E-01  0.54740690080E-01  0.51100000000E-03 0. -1.
         11    1    3    3    0    0 -0.73737358898E-01  0.81339350566E-02 -0.23352131034E-01  0.77774945462E-01  0.51100000000E-03 0.  1.
</event>
<event>
 8    1  0.1090774E+005  0.1043930E+01  0.7957747E-01            NaN
         13   -1    0    0    0    0  0.00000000000E+00  0.00000000000E+00  0.74505805969E-08  0.10566000000E+00  0.10566000000E+00 0.  1.
     999900   -1    0    0    0    0 -0.00000000000E+00 -0.00000000000E+00 -0.74505805969E-08  0.93827000000E+00  0.93827000000E+00 0. -1.
     999902    2    1    2    0    0  0.22560822409E-01 -0.40719727295E-02 -0.92647709570E-02  0.10192033413E+01  0.10189033532E+01 0.  0.
     999903    2    3    3    0    0  0.55321038322E-01  0.11624776693E+00 -0.30679888019E-02  0.13039038482E+00  0.20451877699E-01 0.  0.
         14    1    1    2    0    0 -0.22560822409E-01  0.40719727295E-02  0.92647709570E-02  0.24726658702E-01  0.00000000000E+00 0.  1.
     999901    1    3    3    0    0 -0.32760215912E-01 -0.12031973966E+00 -0.61967821551E-02  0.88881295648E+00  0.88000000000E+00 0. -1.
        -11    1    4    4    0    0  0.53781009194E-01  0.10052366402E+00  0.12115291143E-02  0.11401373997E+00  0.51100000000E-03 0.  1.
         11    1    4    4    0    0  0.15400291276E-02  0.15724102906E-01 -0.42795179162E-02  0.16376644849E-01  0.51100000000E-03 0. -1.
</event>
<event>
 8    1  0.1090774E+005  0.1043930E+01  0.7957747E-01            NaN
         13   -1    0    0    0    0  0.00000000000E+00  0.00000000000E+00  0.74505805969E-08  0.10566000000E+00  0.10566000000E+00 0. -1.
     999900   -1    0    0    0    0 -0.00000000000E+00 -0.00000000000E+00 -0.74505805969E-08  0.93827000000E+00  0.93827000000E+00 0.  1.
     999902    2    1    2    0    0  0.35131008164E-02 -0.24139215152E-01  0.30838643626E-02  0.10193423241E+01  0.10190457399E+01 0.  0.
     999903    2    3    3    0    0  0.44263105163E-01 -0.12016199262E+00 -0.29062728923E-01  0.13259865197E+00  0.18429143819E-01 0.  0.
         14    1    1    2    0    0 -0.35131008164E-02  0.24139215152E-01 -0.30838643626E-02  0.24587675874E-01  0.00000000000E+00 0.  1.
     999901    1    3    3    0    0 -0.40750004346E-01  0.96022777472E-01  0.32146593285E-01  0.88674367216E+00  0.88000000000E+00 0.  1.
        -11    1    4    4    0    0 -0.12977664570E-02 -0.98516580704E-02 -0.34522185143E-02  0.10531775642E-01  0.51100000000E-03 0. -1.
         11    1    4    4    0    0  0.45560871619E-01 -0.11031033455E+00 -0.25610510408E-01  0.12206687633E+00  0.51100000000E-03 0.  1.
</event>
<event>
 8    1  0.1090774E+005  0.1043930E+01  0.7957747E-01            NaN
         13   -1    0    0    0    0  0.00000000000E+00  0.00000000000E+00  0.74505805969E-08  0.10566000000E+00  0.10566000000E+00 0. -1.
     999900   -1    0    0    0    0 -0.00000000000E+00 -0.00000000000E+00 -0.74505805969E-08  0.93827000000E+00  0.93827000000E+00 0. -1.
     999902    2    1    2    0    0  0.24144854862E-01  0.10646445486E-01  0.14069129707E-01  0.10140257991E+01  0.10135847572E+01 0.  0.
     999903    2    3    3    0    0  0.12569508823E+00 -0.40082157074E-02 -0.10113442671E-01  0.12773464733E+00  0.19963401716E-01 0.  0.
         14    1    1    2    0    0 -0.24144854862E-01 -0.10646445486E-01 -0.14069129707E-01  0.29904200851E-01  0.00000000000E+00 0.  1.
     999901    1    3    3    0    0 -0.10155023336E+00  0.14654661194E-01  0.24182572378E-01  0.88629115182E+00  0.88000000000E+00 0. -1.
        -11    1    4    4    0    0  0.73029444927E-01 -0.87757540679E-02 -0.13324829537E-01  0.74753768393E-01  0.51100000000E-03 0.  1.
         11    1    4    4    0    0  0.52665643298E-01  0.47675383605E-02  0.32113868658E-02  0.52980878934E-01  0.51100000000E-03 0. -1.
</event>
<event>
 8    1  0.1090774E+005  0.1043930E+01  0.7957747E-01            NaN
         13   -1    0    0    0    0  0.00000000000E+00  0.00000000000E+00  0.74505805969E-08  0.10566000000E+00  0.10566000000E+00 0.  1.
     999900   -1    0    0    0    0 -0.00000000000E+00 -0.00000000000E+00 -0.74505805969E-08  0.93827000000E+00  0.93827000000E+00 0. -1.
     999902    2    1    2    0    0 -0.12136893692E-01 -0.20410695737E-02  0.20371293213E-01  0.10201295853E+01  0.10198519064E+01 0.  0.
     999903    2    3    3    0    0  0.84025425832E-01  0.72470313936E-01  0.65837960600E-01  0.13059804801E+00  0.20223612407E-01 0.  0.
         14    1    1    2    0    0  0.12136893692E-01  0.20410695737E-02 -0.20371293213E-01  0.23800414716E-01  0.00000000000E+00 0. -1.
     999901    1    3    3    0    0 -0.96162319523E-01 -0.74511383509E-01 -0.45466667387E-01  0.88953153728E+00  0.88000000000E+00 0. -1.
        -11    1    4    4    0    0  0.24375226663E-01  0.14654545759E-01  0.25703132663E-01  0.38338225520E-01  0.51100000000E-03 0.  1.
         11    1    4    4    0    0  0.59650199168E-01  0.57815768176E-01  0.40134827938E-01  0.92259822486E-01  0.51100000000E-03 0. -1.
</event>
<event>
 8    1  0.1090774E+005  0.1043930E+01  0.7957747E-01            NaN
         13   -1    0    0    0    0  0.00000000000E+00  0.00000000000E+00  0.74505805969E-08  0.10566000000E+00  0.10566000000E+00 0. -1.
     999900   -1    0    0    0    0 -0.00000000000E+00 -0.00000000000E+00 -0.74505805969E-08  0.93827000000E+00  0.93827000000E+00 0. -1.
     999902    2    1    2    0    0  0.21366069555E-01 -0.98122507692E-02 -0.24465975668E-02  0.10202915772E+01  0.10200177094E+01 0.  0.
     999903    2    3    3    0    0 -0.41404507422E-01 -0.10920708597E-01 -0.12115635253E+00  0.13010430479E+00  0.20363527576E-01 0.  0.
         14    1    1    2    0    0 -0.21366069555E-01  0.98122507692E-02  0.24465975668E-02  0.23638422812E-01  0.00000000000E+00 0.  1.
     999901    1    3    3    0    0  0.62770576977E-01  0.11084578280E-02  0.11870975497E+00  0.89018727240E+00  0.88000000000E+00 0.  1.
        -11    1    4    4    0    0 -0.16764372996E-01  0.31118945597E-02 -0.28604693719E-01  0.33304920259E-01  0.51100000000E-03 0.  1.
         11    1    4    4    0    0 -0.24640134426E-01 -0.14032603157E-01 -0.92551658813E-01  0.96799384533E-01  0.51100000000E-03 0. -1.
</event>
<event>
 8    1  0.1090774E+005  0.1043930E+01  0.7957747E-01            NaN
         13   -1    0    0    0    0  0.00000000000E+00  0.00000000000E+00  0.74505805969E-08  0.10566000000E+00  0.10566000000E+00 0.  1.
     999900   -1    0    0    0    0 -0.00000000000E+00 -0.00000000000E+00 -0.74505805969E-08  0.93827000000E+00  0.93827000000E+00 0.  1.
     999902    2    1    2    0    0  0.12135101290E-02 -0.21817142486E-01 -0.82123629463E-02  0.10205868379E+01  0.10203198471E+01 0.  0.
     999903    2    3    3    0    0  0.10259346737E+00 -0.72638834417E-01 -0.37664592898E-01  0.13282100503E+00  0.20517748581E-01 0.  0.
         14    1    1    2    0    0 -0.12135101290E-02  0.21817142486E-01  0.82123629463E-02  0.23343162131E-01  0.00000000000E+00 0.  1.
     999901    1    3    3    0    0 -0.10137995724E+00  0.50821691931E-01  0.29452229952E-01  0.88776583284E+00  0.88000000000E+00 0.  1.
        -11    1    4    4    0    0  0.35132442450E-01 -0.23025129288E-01 -0.27706230062E-02  0.42099674157E-01  0.51100000000E-03 0.  1.
         11    1    4    4    0    0  0.67461024923E-01 -0.49613705129E-01 -0.34893969892E-01  0.90721330877E-01  0.51100000000E-03 0. -1.
</event>
<event>
 8    1  0.1090774E+005  0.1043930E+01  0.7957747E-01            NaN
         13   -1    0    0    0    0  0.00000000000E+00  0.00000000000E+00  0.74505805969E-08  0.10566000000E+00  0.10566000000E+00 0.  1.
     999900   -1    0    0    0    0 -0.00000000000E+00 -0.00000000000E+00 -0.74505805969E-08  0.93827000000E+00  0.93827000000E+00 0.  1.
     999902    2    1    2    0    0 -0.15696670484E-02  0.13824398464E-01  0.18577618507E-01  0.10207199643E+01  0.10204560450E+01 0.  0.
     999903    2    3    3    0    0 -0.57796946645E-01  0.31893776983E-01 -0.10966063358E+00  0.12946631988E+00  0.19451821834E-01 0.  0.
         14    1    1    2    0    0  0.15696670484E-02 -0.13824398464E-01 -0.18577618507E-01  0.23210035694E-01  0.00000000000E+00 0. -1.
     999901    1    3    3    0    0  0.56227279597E-01 -0.18069378519E-01  0.12823825209E+00  0.89125364443E+00  0.88000000000E+00 0. -1.
        -11    1    4    4    0    0 -0.79910658233E-02  0.38798358371E-02 -0.30916089816E-01  0.32171042719E-01  0.51100000000E-03 0.  1.
         11    1    4    4    0    0 -0.49805880822E-01  0.28013941146E-01 -0.78744543767E-01  0.97295277157E-01  0.51100000000E-03 0. -1.
</event>
<event>
 8    1  0.1090774E+005  0.1043930E+01  0.7957747E-01            NaN
         13   -1    0    0    0    0  0.00000000000E+00  0.00000000000E+00  0.74505805969E-08  0.10566000000E+00  0.10566000000E+00 0.  1.
     999900   -1    0    0    0    0 -0.00000000000E+00 -0.00000000000E+00 -0.74505805969E-08  0.93827000000E+00  0.93827000000E+00 0. -1.
     999902    2    1    2    0    0  0.19126903721E-01  0.13358746163E-01 -0.55391089474E-02  0.10199513371E+01  0.10196694336E+01 0.  0.
     999903    2    3    3    0    0  0.10073840860E+00 -0.24811184686E-03  0.82431390221E-01  0.13170340269E+00  0.20063989164E-01 0.  0.
         14    1    1    2    0    0 -0.19126903721E-01 -0.13358746163E-01  0.55391089474E-02  0.23978662867E-01  0.00000000000E+00 0.  1.
     999901    1    3    3    0    0 -0.81611504875E-01  0.13606858009E-01 -0.87970499169E-01  0.88824793444E+00  0.88000000000E+00 0. -1.
        -11    1    4    4    0    0  0.43083304461E-01 -0.10006468796E-01  0.34740420976E-01  0.56244630959E-01  0.51100000000E-03 0. -1.
         11    1    4    4    0    0  0.57655104134E-01  0.97583569491E-02  0.47690969245E-01  0.75458771734E-01  0.51100000000E-03 0.  1.
</event>
<event>
 8    1  0.1090774E+005  0.1043930E+01  0.7957747E-01            NaN
         13   -1    0    0    0    0  0.00000000000E+00  0.00000000000E+00  0.74505805969E-08  0.10566000000E+00  0.10566000000E+00 0. -1.
     999900   -1    0    0    0    0 -0.00000000000E+00 -0.00000000000E+00 -0.74505805969E-08  0.93827000000E+00  0.93827000000E+00 0.  1.
     999902    2    1    2    0    0  0.18003400936E-01 -0.15544788696E-01  0.15653286254E-02  0.10200927780E+01  0.10198142294E+01 0.  0.
     999903    2    3    3    0    0 -0.46957233515E-01 -0.78959154793E-01 -0.90553699070E-01  0.13063947333E+00  0.20668083400E-01 0.  0.
         14    1    1    2    0    0 -0.18003400936E-01  0.15544788696E-01 -0.15653286254E-02  0.23837222040E-01  0.00000000000E+00 0.  1.
     999901    1    3    3    0    0  0.64960634451E-01  0.63414366098E-01  0.92119027695E-01  0.88945330463E+00  0.88000000000E+00 0. -1.
        -11    1    4    4    0    0 -0.71924686027E-02 -0.14069511462E-01 -0.60804712870E-02  0.16938595262E-01  0.51100000000E-03 0.  1.
         11    1    4    4    0    0 -0.39764764912E-01 -0.64889643332E-01 -0.84473227783E-01  0.11370087807E+00  0.51100000000E-03 0. -1.
</event>
<event>
 8    1  0.1090774E+005  0.1043930E+01  0.7957747E-01            NaN
         13   -1    0    0    0    0  0.00000000000E+00  0.00000000000E+00  0.74505805969E-08  0.10566000000E+00  0.10566000000E+00 0. -1.
     999900   -1    0    0    0    0 -0.00000000000E+00 -0.00000000000E+00 -0.74505805969E-08  0.93827000000E+00  0.93827000000E+00 0. -1.
     999902    2    1    2    0    0 -0.74331484554E-02  0.18529351645E-01  0.13872313233E-01  0.10196188988E+01  0.10193290289E+01 0.  0.
     999903    2    3    3    0    0  0.55240303378E-01 -0.11282580624E+00  0.10299827729E-01  0.12765763183E+00  0.20229454829E-01 0.  0.
         14    1    1    2    0    0  0.74331484554E-02 -0.18529351645E-01 -0.13872313233E-01  0.24311101225E-01  0.00000000000E+00 0.  1.
     999901    1    3    3    0    0 -0.62673451833E-01  0.13135515789E+00  0.35724855042E-02  0.89196126694E+00  0.88000000000E+00 0. -1.
        -11    1    4    4    0    0  0.22676861379E-01 -0.48967858325E-01  0.14409249245E-01  0.55856770187E-01  0.51100000000E-03 0.  1.
         11    1    4    4    0    0  0.32563441998E-01 -0.63857947919E-01 -0.41094215154E-02  0.71800861648E-01  0.51100000000E-03 0. -1.
</event>
<event>
 8    1  0.1090774E+005  0.1043930E+01  0.7957747E-01            NaN
         13   -1    0    0    0    0  0.00000000000E+00  0.00000000000E+00  0.74505805969E-08  0.10566000000E+00  0.10566000000E+00 0. -1.
     999900   -1    0    0    0    0 -0.00000000000E+00 -0.00000000000E+00 -0.74505805969E-08  0.93827000000E+00  0.93827000000E+00 0. -1.
     999902    2    1    2    0    0 -0.71241990023E-02 -0.22393631674E-01 -0.38288055275E-02  0.10201205753E+01  0.10198426837E+01 0.  0.
     999903    2    3    3    0    0 -0.96383166118E-01 -0.26702008802E-01 -0.84084249941E-01  0.13196143325E+00  0.18464744550E-01 0.  0.
         14    1    1    2    0    0  0.71241990023E-02  0.22393631674E-01  0.38288055275E-02  0.23809424662E-01  0.00000000000E+00 0.  1.
     999901    1    3    3    0    0  0.89258967116E-01  0.43083771283E-02  0.80255444413E-01  0.88815914209E+00  0.88000000000E+00 0.  1.
        -11    1    4    4    0    0 -0.64092571620E-01 -0.22787964354E-01 -0.47285950152E-01  0.82845466134E-01  0.51100000000E-03 0.  1.
         11    1    4    4    0    0 -0.32290594498E-01 -0.39140444475E-02 -0.36798299788E-01  0.49115967112E-01  0.51100000000E-03 0. -1.
</event>
<event>
 8    1  0.1090774E+005  0.1043930E+01  0.7957747E-01            NaN
         13   -1    0    0    0    0  0.00000000000E+00  0.00000000000E+00  0.74505805969E-08  0.10566000000E+00  0.10566000000E+00 0. -1.
     999900   -1    0    0    0    0 -0.00000000000E+00 -0.00000000000E+00 -0.74505805969E-08  0.93827000000E+00  0.93827000000E+00 0.  1.
     999902    2    1    2    0    0 -0.13733710682E-01  0.20894554083E-01 -0.33614534557E-02  0.10187011164E+01  0.10183886625E+01 0.  0.
     999903    2    3    3    0    0 -0.59032882554E-01 -0.23738653315E-01 -0.11139897325E+00  0.12981628477E+00  0.19852749627E-01 0.  0.
         14    1    1    2    0    0  0.13733710682E-01 -0.20894554083E-01  0.33614534557E-02  0.25228883621E-01  0.00000000000E+00 0. -1.
     999901    1    3    3    0    0  0.45299171872E-01  0.44633207399E-01  0.10803751979E+00  0.88888483161E+00  0.88000000000E+00 0. -1.
        -11    1    4    4    0    0 -0.30113318317E-01 -0.25329994605E-02 -0.42632629275E-01  0.52259259717E-01  0.51100000000E-03 0.  1.
         11    1    4    4    0    0 -0.28919564237E-01 -0.21205653855E-01 -0.68766343973E-01  0.77557025056E-01  0.51100000000E-03 0. -1.
</event>
<event>
 8    1  0.1090774E+005  0.1043930E+01  0.7957747E-01            NaN
         13   -1    0    0    0    0  0.00000000000E+00  0.00000000000E+00  0.74505805969E-08  0.10566000000E+00  0.10566000000E+00 0. -1.
     999900   -1    0    0    0    0 -0.00000000000E+00 -0.00000000000E+00 -0.74505805969E-08  0.93827000000E+00  0.93827000000E+00 0.  1.
     999902    2    1    2    0    0 -0.98724221601E-02 -0.20047104753E-01  0.87407396720E-02  0.10199351743E+01  0.10196528861E+01 0.  0.
     999903    2    3    3    0    0  0.60768291634E-01 -0.10802134067E+00  0.41224526642E-01  0.13213746481E+00  0.19986312883E-01 0.  0.
         14    1    1    2    0    0  0.98724221601E-02  0.20047104753E-01 -0.87407396720E-02  0.23994825657E-01  0.00000000000E+00 0.  1.
     999901    1    3    3    0    0 -0.70640713794E-01  0.87974235915E-01 -0.32483786970E-01  0.88779770953E+00  0.88000000000E+00 0.  1.
        -11    1    4    4    0    0  0.54833056264E-01 -0.82702567682E-01  0.28885874656E-01  0.10334908629E+00  0.51100000000E-03 0.  1.
         11    1    4    4    0    0  0.59352353693E-02 -0.25318772987E-01  0.12338651986E-01  0.28788378528E-01  0.51100000000E-03 0. -1.
</event>
<event>
 8    1  0.1090774E+005  0.1043930E+01  0.7957747E-01            NaN
         13   -1    0    0    0    0  0.00000000000E+00  0.00000000000E+00  0.74505805969E-08  0.10566000000E+00  0.10566000000E+00 0. -1.
     999900   -1    0    0    0    0 -0.00000000000E+00 -0.00000000000E+00 -0.74505805969E-08  0.93827000000E+00  0.93827000000E+00 0.  1.
     999902    2    1    2    0    0  0.11312551912E-01 -0.17811752767E-01  0.59718649641E-02  0.10220006694E+01  0.10217653707E+01 0.  0.
     999903    2    3    3    0    0  0.34201328637E-01 -0.90742967343E-01 -0.89819436122E-01  0.13350822067E+00  0.18785549757E-01 0.  0.
         14    1    1    2    0    0 -0.11312551912E-01  0.17811752767E-01 -0.59718649641E-02  0.21929330554E-01  0.00000000000E+00 0.  1.
     999901    1    3    3    0    0 -0.22888776725E-01  0.72931214576E-01  0.95791301086E-01  0.88849244877E+00  0.88000000000E+00 0. -1.
        -11    1    4    4    0    0  0.40689852832E-02 -0.69523495740E-02 -0.15692376329E-01  0.17646631454E-01  0.51100000000E-03 0. -1.
         11    1    4    4    0    0  0.30132343353E-01 -0.83790617769E-01 -0.74127059793E-01  0.11586158922E+00  0.51100000000E-03 0.  1.
</event>
<event>
 8    1  0.1090774E+005  0.1043930E+01  0.7957747E-01            NaN
         13   -1    0    0    0    0  0.00000000000E+00  0.00000000000E+00  0.74505805969E-08  0.10566000000E+00  0.10566000000E+00 0. -1.
     999900   -1    0    0    0    0 -0.00000000000E+00 -0.00000000000E+00 -0.74505805969E-08  0.93827000000E+00  0.93827000000E+00 0. -1.
     999902    2    1    2    0    0  0.19355017543E-01 -0.57188588545E-02 -0.11412942690E-01  0.10207442865E+01  0.10204809264E+01 0.  0.
     999903    2    3    3    0    0  0.39007775396E-01  0.11603634515E+00  0.40994224745E-01  0.13059987584E+00  0.19742369890E-01 0.  0.
         14    1    1    2    0    0 -0.19355017543E-01  0.57188588545E-02  0.11412942690E-01  0.23185713522E-01  0.00000000000E+00 0. -1.
     999901    1    3    3    0    0 -0.19652757853E-01 -0.12175520401E+00 -0.52407167434E-01  0.89014441064E+00  0.88000000000E+00 0. -1.
        -11    1    4    4    0    0  0.24405466550E-01  0.88573658958E-01  0.23189561664E-01  0.94757251701E-01  0.51100000000E-03 0. -1.
         11    1    4    4    0    0  0.14602308846E-01  0.27462686195E-01  0.17804663081E-01  0.35842624138E-01  0.51100000000E-03 0.  1.
</event>
<event>
 8    1  0.1090774E+005  0.1043930E+01  0.7957747E-01            NaN
         13   -1    0    0    0    0  0.00000000000E+00  0.00000000000E+00  0.74505805969E-08  0.10566000000E+00  0.10566000000E+00 0. -1.
     999900   -1    0    0    0    0 -0.00000000000E+00 -0.00000000000E+00 -0.74505805969E-08  0.93827000000E+00  0.93827000000E+00 0. -1.
     999902    2    1    2    0    0  0.24295919390E-01  0.42940947892E-03  0.24117394150E-02  0.10195108973E+01  0.10192184148E+01 0.  0.
     999903    2    3    3    0    0  0.23272618546E-01  0.72285716181E-01  0.10453312272E+00  0.13069530734E+00  0.19678670657E-01 0.  0.
         14    1    1    2    0    0 -0.24295919390E-01 -0.42940947892E-03 -0.24117394150E-02  0.24419102738E-01  0.00000000000E+00 0.  1.
     999901    1    3    3    0    0  0.10233008441E-02 -0.71856306702E-01 -0.10212138330E+00  0.88881558992E+00  0.88000000000E+00 0. -1.
        -11    1    4    4    0    0  0.15902422984E-01  0.19650210352E-01  0.32608582917E-01  0.41262557173E-01  0.51100000000E-03 0. -1.
         11    1    4    4    0    0  0.73701955619E-02  0.52635505829E-01  0.71924539799E-01  0.89432750169E-01  0.51100000000E-03 0.  1.
</event>
<event>
 8    1  0.1090774E+005  0.1043930E+01  0.7957747E-01            NaN
         13   -1    0    0    0    0  0.00000000000E+00  0.00000000000E+00  0.74505805969E-08  0.10566000000E+00  0.10566000000E+00 0.  1.
     999900   -1    0    0    0    0 -0.00000000000E+00 -0.00000000000E+00 -0.74505805969E-08  0.93827000000E+00  0.93827000000E+00 0. -1.
     999902    2    1    2    0    0  0.25007896929E-01 -0.26077249052E-03  0.75841127546E-02  0.10177960819E+01  0.10174605066E+01 0.  0.
     999903    2    3    3    0    0  0.88534809744E-01  0.36190831989E-01  0.87693195614E-01  0.13112711698E+00  0.18868900193E-01 0.  0.
         14    1    1    2    0    0 -0.25007896929E-01  0.26077249052E-03 -0.75841127546E-02  0.26133918140E-01  0.00000000000E+00 0. -1.
     999901    1    3    3    0    0 -0.63526912816E-01 -0.36451604480E-01 -0.80109082859E-01  0.88666896488E+00  0.88000000000E+00 0. -1.
        -11    1    4    4    0    0  0.72257169506E-01  0.22713691113E-01  0.74299129914E-01  0.10610198931E+00  0.51100000000E-03 0.  1.
         11    1    4    4    0    0  0.16277640239E-01  0.13477140876E-01  0.13394065701E-01  0.25025127671E-01  0.51100000000E-03 0. -1.
</event>
<event>
 8    1  0.1090774E+005  0.1043930E+01  0.7957747E-01            NaN
         13   -1    0    0    0    0  0.00000000000E+00  0.00000000000E+00  0.74505805969E-08  0.10566000000E+00  0.10566000000E+00 0. -1.
     999900   -1    0    0    0    0 -0.00000000000E+00 -0.00000000000E+00 -0.74505805969E-08  0.93827000000E+00  0.93827000000E+00 0.  1.
     999902    2    1    2    0    0  0.13548385748E-01 -0.15649597796E-01 -0.93959914591E-02  0.10211977911E+01  0.10209447464E+01 0.  0.
     999903    2    3    3    0    0 -0.11504651031E+00  0.28016458685E-01 -0.49538854268E-01  0.12987583957E+00  0.19824584013E-01 0.  0.
         14    1    1    2    0    0 -0.13548385748E-01  0.15649597796E-01  0.93959914591E-02  0.22732208935E-01  0.00000000000E+00 0. -1.
     999901    1    3    3    0    0  0.12859489605E+00 -0.43666056481E-01  0.40142862809E-01  0.89132195149E+00  0.88000000000E+00 0.  1.
        -11    1    4    4    0    0 -0.55702110552E-02 -0.69217474906E-04 -0.73480367026E-02  0.92350856326E-02  0.51100000000E-03 0.  1.
         11    1    4    4    0    0 -0.10947629925E+00  0.28085676159E-01 -0.42190817566E-01  0.12064075394E+00  0.51100000000E-03 0. -1.
</event>
<event>
 8    1  0.1090774E+005  0.1043930E+01  0.7957747E-01            NaN
         13   -1    0    0    0    0  0.00000000000E+00  0.00000000000E+00  0.74505805969E-08  0.10566000000E+00  0.10566000000E+00 0.  1.
     999900   -1    0    0    0    0 -0.00000000000E+00 -0.00000000000E+00 -0.74505805969E-08  0.93827000000E+00  0.93827000000E+00 0.  1.
     999902    2    1    2    0    0 -0.18156520472E-01 -0.77730859962E-02 -0.12869687773E-01  0.10203565199E+01  0.10200841724E+01 0.  0.
     999903    2    3    3    0    0 -0.59191949299E-01 -0.67865059623E-01 -0.96500986263E-01  0.13340153466E+00  0.19343627417E-01 0.  0.
         14    1    1    2    0    0  0.18156520472E-01  0.77730859962E-02  0.12869687773E-01  0.23573480119E-01  0.00000000000E+00 0.  1.
     999901    1    3    3    0    0  0.41035428827E-01  0.60091973627E-01  0.83631298490E-01  0.88695498522E+00  0.88000000000E+00 0.  1.
        -11    1    4    4    0    0 -0.43835607395E-01 -0.44597076840E-01 -0.54296939911E-01  0.82818346657E-01  0.51100000000E-03 0.  1.
         11    1    4    4    0    0 -0.15356341904E-01 -0.23267982782E-01 -0.42204046352E-01  0.50583188007E-01  0.51100000000E-03 0. -1.
</event>
<event>
 8    1  0.1090774E+005  0.1043930E+01  0.7957747E-01            NaN
         13   -1    0    0    0    0  0.00000000000E+00  0.00000000000E+00  0.74505805969E-08  0.10566000000E+00  0.10566000000E+00 0. -1.
     999900   -1    0    0    0    0 -0.00000000000E+00 -0.00000000000E+00 -0.74505805969E-08  0.93827000000E+00  0.93827000000E+00 0.  1.
     999902    2    1    2    0    0 -0.56055856414E-02 -0.77821077875E-02  0.21902545205E-01  0.10200196408E+01  0.10197393600E+01 0.  0.
     999903    2    3    3    0    0 -0.27248203797E-01  0.79314947986E-01 -0.94182557503E-01  0.12787052144E+00  0.21146879971E-01 0.  0.
         14    1    1    2    0    0  0.56055856414E-02  0.77821077875E-02 -0.21902545205E-01  0.23910359229E-01  0.00000000000E+00 0.  1.
     999901    1    3    3    0    0  0.21642618155E-01 -0.87097055774E-01  0.11608510271E+00  0.89214911933E+00  0.88000000000E+00 0.  1.
        -11    1    4    4    0    0 -0.15664592924E-01  0.37460286254E-01 -0.60705379644E-01  0.73034627106E-01  0.51100000000E-03 0.  1.
         11    1    4    4    0    0 -0.11583610873E-01  0.41854661732E-01 -0.33477177858E-01  0.54835894339E-01  0.51100000000E-03 0. -1.
</event>
<event>
 8    1  0.1090774E+005  0.1043930E+01  0.7957747E-01            NaN
         13   -1    0    0    0    0  0.00000000000E+00  0.00000000000E+00  0.74505805969E-08  0.10566000000E+00  0.10566000000E+00 0.  1.
     999900   -1    0    0    0    0 -0.00000000000E+00 -0.00000000000E+00 -0.74505805969E-08  0.93827000000E+00  0.93827000000E+00 0.  1.
     999902    2    1    2    0    0  0.76334337820E-03  0.21997317948E-01 -0.10418377799E-01  0.10195782591E+01  0.10192874075E+01 0.  0.
     999903    2    3    3    0    0 -0.78608687875E-01  0.41383207706E-01 -0.95260442265E-01  0.13173035095E+00  0.19658021537E-01 0.  0.
         14    1    1    2    0    0 -0.76334337820E-03 -0.21997317948E-01  0.10418377799E-01  0.24351740923E-01  0.00000000000E+00 0.  1.
     999901    1    3    3    0    0  0.79372031253E-01 -0.19385889758E-01  0.84842064466E-01  0.88784790813E+00  0.88000000000E+00 0.  1.
        -11    1    4    4    0    0 -0.36698925431E-01  0.17208852585E-01 -0.57512382283E-01  0.70362567975E-01  0.51100000000E-03 0. -1.
         11    1    4    4    0    0 -0.41909762443E-01  0.24174355121E-01 -0.37748059982E-01  0.61367782972E-01  0.51100000000E-03 0.  1.
</event>
<event>
 8    1  0.1090774E+005  0.1043930E+01  0.7957747E-01            NaN
         13   -1    0    0    0    0  0.00000000000E+00  0.00000000000E+00  0.74505805969E-08  0.10566000000E+00  0.10566000000E+00 0.  1.
     999900   -1    0    0    0    0 -0.00000000000E+00 -0.00000000000E+00 -0.74505805969E-08  0.93827000000E+00  0.93827000000E+00 0.  1.
     999902    2    1    2    0    0 -0.10115231798E-01 -0.21080715246E-01 -0.23702973480E-02  0.10204282388E+01  0.10201575652E+01 0.  0.
     999903    2    3    3    0    0  0.53313764451E-01  0.10216669797E+00 -0.52805572708E-01  0.12815200387E+00  0.18817968367E-01 0.  0.
         14    1    1    2    0    0  0.10115231798E-01  0.21080715246E-01  0.23702973480E-02  0.23501761193E-01  0.00000000000E+00 0.  1.
     999901    1    3    3    0    0 -0.63428996249E-01 -0.12324741322E+00  0.50435275360E-01  0.89227623494E+00  0.88000000000E+00 0. -1.
        -11    1    4    4    0    0  0.15932259698E-01  0.32321039427E-01 -0.72299917696E-02  0.36756229277E-01  0.51100000000E-03 0. -1.
         11    1    4    4    0    0  0.37381504753E-01  0.69845658543E-01 -0.45575580938E-01  0.91395774595E-01  0.51100000000E-03 0.  1.
</event>
<event>
 8    1  0.1090774E+005  0.1043930E+01  0.7957747E-01            NaN
         13   -1    0    0    0    0  0.00000000000E+00  0.00000000000E+00  0.74505805969E-08  0.10566000000E+00  0.10566000000E+00 0. -1.
     999900   -1    0    0    0    0 -0.00000000000E+00 -0.00000000000E+00 -0.74505805969E-08  0.93827000000E+00  0.93827000000E+00 0. -1.
     999902    2    1    2    0    0 -0.16359133974E-01 -0.14778697815E-01  0.74993922033E-02  0.10206432644E+01  0.10203775777E+01 0.  0.
     999903    2    3    3    0    0  0.10903662364E+00 -0.41539180388E-01  0.53906928288E-01  0.13014122682E+00  0.20403264381E-01 0.  0.
         14    1    1    2    0    0  0.16359133974E-01  0.14778697815E-01 -0.74993922033E-02  0.23286735643E-01  0.00000000000E+00 0.  1.
     999901    1    3    3    0    0 -0.12539575762E+00  0.26760482573E-01 -0.46407536085E-01  0.89050203754E+00  0.88000000000E+00 0. -1.
        -11    1    4    4    0    0  0.71461637170E-01 -0.37117688180E-01  0.38972712207E-01  0.89462963178E-01  0.51100000000E-03 0.  1.
         11    1    4    4    0    0  0.37574986473E-01 -0.44214922086E-02  0.14934216081E-01  0.40678263639E-01  0.51100000000E-03 0. -1.
</event>
<event>
 8    1  0.1090774E+005  0.1043930E+01  0.7957747E-01            NaN
         13   -1    0    0    0    0  0.00000000000E+00  0.00000000000E+00  0.74505805969E-08  0.10566000000E+00  0.10566000000E+00 0. -1.
     999900   -1    0    0    0    0 -0.00000000000E+00 -0.00000000000E+00 -0.74505805969E-08  0.93827000000E+00  0.93827000000E+00 0.  1.
     999902    2    1    2    0    0 -0.93753423371E-02 -0.92450200548E-02 -0.20391679197E-01  0.10196568045E+01  0.10193678487E+01 0.  0.
     999903    2    3    3    0    0 -0.10522503454E-01 -0.10458516500E+00  0.73367116950E-01  0.12955469177E+00  0.18785752411E-01 0.  0.
         14    1    1    2    0    0  0.93753423371E-02  0.92450200548E-02  0.20391679197E-01  0.24273195509E-01  0.00000000000E+00 0. -1.
     999901    1    3    3    0    0  0.11471611172E-02  0.95340144942E-01 -0.93758796147E-01  0.89010211272E+00  0.88000000000E+00 0.  1.
        -11    1    4    4    0    0  0.82912082696E-03 -0.70759026283E-01  0.43898110795E-01  0.83275641662E-01  0.51100000000E-03 0. -1.
         11    1    4    4    0    0 -0.11351624281E-01 -0.33826138714E-01  0.29469006155E-01  0.46279050108E-01  0.51100000000E-03 0.  1.
</event>
<event>
 8    1  0.1090774E+005  0.1043930E+01  0.7957747E-01            NaN
         13   -1    0    0    0    0  0.00000000000E+00  0.00000000000E+00  0.74505805969E-08  0.10566000000E+00  0.10566000000E+00 0.  1.
     999900   -1    0    0    0    0 -0.00000000000E+00 -0.00000000000E+00 -0.74505805969E-08  0.93827000000E+00  0.93827000000E+00 0. -1.
     999902    2    1    2    0    0 -0.10905511206E-02 -0.23291082208E-01 -0.17105649155E-02  0.10205507390E+01  0.10202829123E+01 0.  0.
     999903    2    3    3    0    0 -0.74121232104E-01 -0.15258615594E-02 -0.10619362860E+00  0.13109926996E+00  0.20338301963E-01 0.  0.
         14    1    1    2    0    0  0.10905511206E-02  0.23291082208E-01  0.17105649155E-02  0.23379260992E-01  0.00000000000E+00 0. -1.
     999901    1    3    3    0    0  0.73030680983E-01 -0.21765220649E-01  0.10448306368E+00  0.88945146905E+00  0.88000000000E+00 0.  1.
        -11    1    4    4    0    0 -0.20493167169E-01  0.74915113289E-02 -0.22998306948E-01  0.31706085946E-01  0.51100000000E-03 0. -1.
         11    1    4    4    0    0 -0.53628064935E-01 -0.90173728884E-02 -0.83195321653E-01  0.99393184014E-01  0.51100000000E-03 0.  1.
</event>
<event>
 8    1  0.1090774E+005  0.1043930E+01  0.7957747E-01            NaN
         13   -1    0    0    0    0  0.00000000000E+00  0.00000000000E+00  0.74505805969E-08  0.10566000000E+00  0.10566000000E+00 0. -1.
     999900   -1    0    0    0    0 -0.00000000000E+00 -0.00000000000E+00 -0.74505805969E-08  0.93827000000E+00  0.93827000000E+00 0. -1.
     999902    2    1    2    0    0  0.98077031428E-04 -0.11527058318E-01 -0.20476409565E-01  0.10204317864E+01  0.10201611955E+01 0.  0.
     999903    2    3    3    0    0 -0.28499551545E-01  0.11959827494E+00 -0.37906850397E-01  0.13008606837E+00  0.19221968433E-01 0.  0.
         14    1    1    2    0    0 -0.98077031428E-04  0.11527058318E-01  0.20476409565E-01  0.23498213576E-01  0.00000000000E+00 0. -1.
     999901    1    3    3    0    0  0.28597628576E-01 -0.13112533326E+00  0.17430440832E-01  0.89034571805E+00  0.88000000000E+00 0.  1.
        -11    1    4    4    0    0 -0.19288819743E-02  0.34295766102E-01 -0.42720132238E-02  0.34618367613E-01  0.51100000000E-03 0.  1.
         11    1    4    4    0    0 -0.26570669571E-01  0.85302508840E-01 -0.33634837173E-01  0.95467700761E-01  0.51100000000E-03 0. -1.
</event>
<event>
 8    1  0.1090774E+005  0.1043930E+01  0.7957747E-01            NaN
         13   -1    0    0    0    0  0.00000000000E+00  0.00000000000E+00  0.74505805969E-08  0.10566000000E+00  0.10566000000E+00 0.  1.
     999900   -1    0    0    0    0 -0.00000000000E+00 -0.00000000000E+00 -0.74505805969E-08  0.93827000000E+00  0.93827000000E+00 0. -1.
     999902    2    1    2    0    0 -0.22942873687E-02  0.25932713305E-02  0.23657654519E-01  0.10200203068E+01  0.10197400418E+01 0.  0.
     999903    2    3    3    0    0 -0.78070870308E-02  0.10813689311E+00 -0.67178744065E-01  0.12905392229E+00  0.19682300255E-01 0.  0.
         14    1    1    2    0    0  0.22942873687E-02 -0.25932713305E-02 -0.23657654519E-01  0.23909693182E-01  0.00000000000E+00 0. -1.
     999901    1    3    3    0    0  0.55127996622E-02 -0.10554362178E+00  0.90836398584E-01  0.89096638453E+00  0.88000000000E+00 0.  1.
        -11    1    4    4    0    0 -0.22934938168E-02  0.32066199659E-01 -0.30900433552E-01  0.44593712439E-01  0.51100000000E-03 0. -1.
         11    1    4    4    0    0 -0.55135932141E-02  0.76070693453E-01 -0.36278310514E-01  0.84460209846E-01  0.51100000000E-03 0.  1.
</event>
<event>
 8    1  0.1090774E+005  0.1043930E+01  0.7957747E-01            NaN
         13   -1    0    0    0    0  0.00000000000E+00  0.00000000000E+00  0.74505805969E-08  0.10566000000E+00  0.10566000000E+00 0. -1.
     999900   -1    0    0    0    0 -0.00000000000E+00 -0.00000000000E+00 -0.74505805969E-08  0.93827000000E+00  0.93827000000E+00 0.  1.
     999902    2    1    2    0    0  0.76645260127E-02 -0.22283982123E-01  0.45174565612E-02  0.10199356625E+01  0.10196533859E+01 0.  0.
     999903    2    3    3    0    0  0.56325733667E-01 -0.11901507992E+00  0.93564359404E-02  0.13328565594E+00  0.18448459677E-01 0.  0.
         14    1    1    2    0    0 -0.76645260127E-02  0.22283982123E-01 -0.45174565612E-02  0.23994337499E-01  0.00000000000E+00 0. -1.
     999901    1    3    3    0    0 -0.48661207654E-01  0.96731097798E-01 -0.48389793793E-02  0.88665000656E+00  0.88000000000E+00 0.  1.
        -11    1    4    4    0    0  0.19121298835E-01 -0.53075217500E-01  0.11345118016E-01  0.57546290981E-01  0.51100000000E-03 0.  1.
         11    1    4    4    0    0  0.37204434832E-01 -0.65939862420E-01 -0.19886820754E-02  0.75739364960E-01  0.51100000000E-03 0. -1.
</event>
<event>
 8    1  0.1090774E+005  0.1043930E+01  0.7957747E-01            NaN
         13   -1    0    0    0    0  0.00000000000E+00  0.00000000000E+00  0.74505805969E-08  0.10566000000E+00  0.10566000000E+00 0. -1.
     999900   -1    0    0    0    0 -0.00000000000E+00 -0.00000000000E+00 -0.74505805969E-08  0.93827000000E+00  0.93827000000E+00 0. -1.
     999902    2    1    2    0    0 -0.15523692879E-01  0.15148463456E-01  0.11291578854E-01  0.10194767642E+01  0.10191834536E+01 0.  0.
     999903    2    3    3    0    0  0.10713842771E+00  0.29347195567E-01  0.63082061784E-01  0.12934764219E+00  0.20287075702E-01 0.  0.
         14    1    1    2    0    0  0.15523692879E-01 -0.15148463456E-01 -0.11291578854E-01  0.24453235751E-01  0.00000000000E+00 0.  1.
     999901    1    3    3    0    0 -0.12266212059E+00 -0.14198732111E-01 -0.51790482930E-01  0.89012912206E+00  0.88000000000E+00 0. -1.
        -11    1    4    4    0    0  0.19082522104E-01  0.64594209870E-02  0.31457296469E-02  0.20396654269E-01  0.51100000000E-03 0.  1.
         11    1    4    4    0    0  0.88055905606E-01  0.22887774580E-01  0.59936332137E-01  0.10895098792E+00  0.51100000000E-03 0. -1.
</event>
<event>
 8    1  0.1090774E+005  0.1043930E+01  0.7957747E-01            NaN
         13   -1    0    0    0    0  0.00000000000E+00  0.00000000000E+00  0.74505805969E-08  0.10566000000E+00  0.10566000000E+00 0.  1.
     999900   -1    0    0    0    0 -0.00000000000E+00 -0.00000000000E+00 -0.74505805969E-08  0.93827000000E+00  0.93827000000E+00 0. -1.
     999902    2    1    2    0    0  0.20166477151E-01  0.81324789122E-02 -0.10548585803E-01  0.10197619079E+01  0.10194754789E+01 0.  0.
     999903    2    3    3    0    0 -0.58880326276E-01  0.97846562234E-01  0.56475233351E-01  0.12915020450E+00  0.21200961688E-01 0.  0.
         14    1    1    2    0    0 -0.20166477151E-01 -0.81324789122E-02  0.10548585803E-01  0.24168092113E-01  0.00000000000E+00 0. -1.
     999901    1    3    3    0    0  0.79046803427E-01 -0.89714083322E-01 -0.67023819154E-01  0.89061170339E+00  0.88000000000E+00 0. -1.
        -11    1    4    4    0    0 -0.47382142337E-01  0.80948723726E-01  0.36747997154E-01  0.10073946447E+00  0.51100000000E-03 0.  1.
         11    1    4    4    0    0 -0.11498183939E-01  0.16897838509E-01  0.19727236197E-01  0.28410740031E-01  0.51100000000E-03 0. -1.
</event>
<event>
 8    1  0.1090774E+005  0.1043930E+01  0.7957747E-01            NaN
         13   -1    0    0    0    0  0.00000000000E+00  0.00000000000E+00  0.74505805969E-08  0.10566000000E+00  0.10566000000E+00 0.  1.
     999900   -1    0    0    0    0 -0.00000000000E+00 -0.00000000000E+00 -0.74505805969E-08  0.93827000000E+00  0.93827000000E+00 0.  1.
     999902    2    1    2    0    0  0.13457734049E-02 -0.23562823523E-01  0.25388444398E-02  0.10201926141E+01  0.10199164213E+01 0.  0.
     999903    2    3    3    0    0 -0.19070719813E-01  0.11007239318E+00 -0.58715146086E-01  0.12776488274E+00  0.19919156264E-01 0.  0.
         14    1    1    2    0    0 -0.13457734049E-02  0.23562823523E-01 -0.25388444398E-02  0.23737385904E-01  0.00000000000E+00 0. -1.
     999901    1    3    3    0    0  0.20416493218E-01 -0.13363521671E+00  0.61253990526E-01  0.89242773136E+00  0.88000000000E+00 0. -1.
        -11    1    4    4    0    0 -0.96740498027E-02  0.33873092247E-01 -0.28268474857E-01  0.45170138474E-01  0.51100000000E-03 0.  1.
         11    1    4    4    0    0 -0.93966700103E-02  0.76199300936E-01 -0.30446671228E-01  0.82594744266E-01  0.51100000000E-03 0. -1.
</event>
<event>
 8    1  0.1090774E+005  0.1043930E+01  0.7957747E-01            NaN
         13   -1    0    0    0    0  0.00000000000E+00  0.00000000000E+00  0.74505805969E-08  0.10566000000E+00  0.10566000000E+00 0. -1.
     999900   -1    0    0    0    0 -0.00000000000E+00 -0.00000000000E+00 -0.74505805969E-08  0.93827000000E+00  0.93827000000E+00 0.  1.
     999902    2    1    2    0    0 -0.10275266400E-01  0.23305033511E-01  0.26220455040E-03  0.10184589490E+01  0.10181403913E+01 0.  0.
     999903    2    3    3    0    0 -0.69608048923E-02  0.76774531452E-01 -0.10372008973E+00  0.13071895872E+00  0.19667426654E-01 0.  0.
         14    1    1    2    0    0  0.10275266400E-01 -0.23305033511E-01 -0.26220455040E-03  0.25471050975E-01  0.00000000000E+00 0.  1.
     999901    1    3    3    0    0 -0.33144615080E-02 -0.53469497941E-01  0.10398229428E+00  0.88773999031E+00  0.88000000000E+00 0. -1.
        -11    1    4    4    0    0 -0.81446007817E-02  0.36826473613E-01 -0.64510457698E-01  0.74728735799E-01  0.51100000000E-03 0. -1.
         11    1    4    4    0    0  0.11837958894E-02  0.39948057839E-01 -0.39209632028E-01  0.55990222920E-01  0.51100000000E-03 0.  1.
</event>
<event>
 8    1  0.1090774E+005  0.1043930E+01  0.7957747E-01            NaN
         13   -1    0    0    0    0  0.00000000000E+00  0.00000000000E+00  0.74505805969E-08  0.10566000000E+00  0.10566000000E+00 0.  1.
     999900   -1    0    0    0    0 -0.00000000000E+00 -0.00000000000E+00 -0.74505805969E-08  0.93827000000E+00  0.93827000000E+00 0. -1.
     999902    2    1    2    0    0  0.42296684770E-02 -0.14014111825E-01 -0.17477914097E-01  0.10211316907E+01  0.10208771556E+01 0.  0.
     999903    2    3    3    0    0  0.28452708703E-01  0.12504374289E+00 -0.42576340430E-02  0.12978517086E+00  0.19508174101E-01 0.  0.
         14    1    1    2    0    0 -0.42296684770E-02  0.14014111825E-01  0.17477914097E-01  0.22798309298E-01  0.00000000000E+00 0.  1.
     999901    1    3    3    0    0 -0.24223040226E-01 -0.13905785472E+00 -0.13220280054E-01  0.89134651985E+00  0.88000000000E+00 0.  1.
        -11    1    4    4    0    0  0.20563797182E-01  0.11498710483E+00 -0.22315296554E-02  0.11683383447E+00  0.51100000000E-03 0.  1.
         11    1    4    4    0    0  0.78889115209E-02  0.10056638065E-01 -0.20261043876E-02  0.12951336385E-01  0.51100000000E-03 0. -1.
</event>
<event>
 8    1  0.1090774E+005  0.1043930E+01  0.7957747E-01            NaN
         13   -1    0    0    0    0  0.00000000000E+00  0.00000000000E+00  0.74505805969E-08  0.10566000000E+00  0.10566000000E+00 0. -1.
     999900   -1    0    0    0    0 -0.00000000000E+00 -0.00000000000E+00 -0.74505805969E-08  0.93827000000E+00  0.93827000000E+00 0. -1.
     999902    2    1    2    0    0 -0.22594235437E-01 -0.64661191014E-02  0.13354801317E-02  0.10203908055E+01  0.10201192588E+01 0.  0.
     999903    2    3    3    0    0 -0.11585204280E+00  0.45090170385E-01 -0.42604046189E-01  0.13287418503E+00  0.19637337110E-01 0.  0.
         14    1    1    2    0    0  0.22594235437E-01  0.64661191014E-02 -0.13354801317E-02  0.23539194514E-01  0.00000000000E+00 0.  1.
     999901    1    3    3    0    0  0.93257807361E-01 -0.51556289487E-01  0.43939526321E-01  0.88751662046E+00  0.88000000000E+00 0.  1.
        -11    1    4    4    0    0 -0.22541413518E-01  0.21686204565E-02 -0.12358040067E-01  0.25803110537E-01  0.51100000000E-03 0.  1.
         11    1    4    4    0    0 -0.93310629280E-01  0.42921549929E-01 -0.30246006122E-01  0.10707107449E+00  0.51100000000E-03 0. -1.
</event>
<event>
 8    1  0.1090774E+005  0.1043930E+01  0.7957747E-01            NaN
         13   -1    0    0    0    0  0.00000000000E+00  0.00000000000E+00  0.74505805969E-08  0.10566000000E+00  0.10566000000E+00 0. -1.
     999900   -1    0    0    0    0 -0.00000000000E+00 -0.00000000000E+00 -0.74505805969E-08  0.93827000000E+00  0.93827000000E+00 0.  1.
     999902    2    1    2    0    0 -0.15401357189E-01 -0.37778754052E-02  0.17230145913E-01  0.10205130815E+01  0.10202443812E+01 0.  0.
     999903    2    3    3    0    0  0.72575710153E-01  0.59596306862E-01 -0.84611599064E-01  0.12802891220E+00  0.20330424663E-01 0.  0.
         14    1    1    2    0    0  0.15401357189E-01  0.37778754052E-02 -0.17230145913E-01  0.23416918543E-01  0.00000000000E+00 0.  1.
     999901    1    3    3    0    0 -0.87977067342E-01 -0.63374182267E-01  0.10184174498E+00  0.89248416926E+00  0.88000000000E+00 0. -1.
        -11    1    4    4    0    0  0.63594131257E-01  0.43423137998E-01 -0.62381076609E-01  0.99103190079E-01  0.51100000000E-03 0. -1.
         11    1    4    4    0    0  0.89815788961E-02  0.16173168864E-01 -0.22230522455E-01  0.28925722121E-01  0.51100000000E-03 0.  1.
</event>
<event>
 8    1  0.1090774E+005  0.1043930E+01  0.7957747E-01            NaN
         13   -1    0    0    0    0  0.00000000000E+00  0.00000000000E+00  0.74505805969E-08  0.10566000000E+00  0.10566000000E+00 0.  1.
     999900   -1    0    0    0    0 -0.00000000000E+00 -0.00000000000E+00 -0.74505805969E-08  0.93827000000E+00  0.93827000000E+00 0.  1.
     999902    2    1    2    0    0  0.18956163085E-01  0.13311366209E-01 -0.48263456650E-02  0.10202694378E+01  0.10199950508E+01 0.  0.
     999903    2    3    3    0    0  0.67285269798E-01 -0.10356385006E+00 -0.38042543173E-01  0.13060723537E+00  0.18927130464E-01 0.  0.
         14    1    1    2    0    0 -0.18956163085E-01 -0.13311366209E-01  0.48263456650E-02  0.23660562160E-01  0.00000000000E+00 0.  1.
     999901    1    3    3    0    0 -0.48329106713E-01  0.11687521627E+00  0.33216197508E-01  0.88966220247E+00  0.88000000000E+00 0.  1.
        -11    1    4    4    0    0  0.52255002250E-02 -0.16177923107E-01 -0.10333027987E-01  0.19901347619E-01  0.51100000000E-03 0.  1.
         11    1    4    4    0    0  0.62059769573E-01 -0.87385926954E-01 -0.27709515186E-01  0.11070588775E+00  0.51100000000E-03 0. -1.
</event>
<event>
 8    1  0.1090774E+005  0.1043930E+01  0.7957747E-01            NaN
         13   -1    0    0    0    0  0.00000000000E+00  0.00000000000E+00  0.74505805969E-08  0.10566000000E+00  0.10566000000E+00 0.  1.
     999900   -1    0    0    0    0 -0.00000000000E+00 -0.00000000000E+00 -0.74505805969E-08  0.93827000000E+00  0.93827000000E+00 0.  1.
     999902    2    1    2    0    0 -0.17784029808E-01  0.47250590750E-02 -0.14847310237E-01  0.10202859623E+01  0.10200119628E+01 0.  0.
     999903    2    3    3    0    0  0.66269428296E-01  0.80497086215E-01  0.73553547971E-01  0.12864640748E+00  0.16381566535E-01 0.  0.
         14    1    1    2    0    0  0.17784029808E-01 -0.47250590750E-02  0.14847310237E-01  0.23644037742E-01  0.00000000000E+00 0.  1.
     999901    1    3    3    0    0 -0.84053458104E-01 -0.75772027140E-01 -0.88400858208E-01  0.89163955478E+00  0.88000000000E+00 0.  1.
        -11    1    4    4    0    0  0.56004918097E-01  0.65861029580E-01  0.53025957728E-01  0.10142109930E+00  0.51100000000E-03 0. -1.
         11    1    4    4    0    0  0.10264510198E-01  0.14636056635E-01  0.20527590242E-01  0.27225308182E-01  0.51100000000E-03 0.  1.
</event>
<event>
 8    1  0.1090774E+005  0.1043930E+01  0.7957747E-01            NaN
         13   -1    0    0    0    0  0.00000000000E+00  0.00000000000E+00  0.74505805969E-08  0.10566000000E+00  0.10566000000E+00 0.  1.
     999900   -1    0    0    0    0 -0.00000000000E+00 -0.00000000000E+00 -0.74505805969E-08  0.93827000000E+00  0.93827000000E+00 0. -1.
     999902    2    1    2    0    0  0.87503663428E-02 -0.36807127804E-02 -0.20037269440E-01  0.10217577488E+01  0.10215171504E+01 0.  0.
     999903    2    3    3    0    0  0.64546656195E-01  0.88056655803E-01  0.69110730665E-01  0.13076036568E+00  0.20043320175E-01 0.  0.
         14    1    1    2    0    0 -0.87503663428E-02  0.36807127804E-02  0.20037269440E-01  0.22172251223E-01  0.00000000000E+00 0.  1.
     999901    1    3    3    0    0 -0.55796289852E-01 -0.91737368583E-01 -0.89148000105E-01  0.89099738309E+00  0.88000000000E+00 0. -1.
        -11    1    4    4    0    0  0.42759990397E-01  0.45660116591E-01  0.31506811999E-01  0.70044295622E-01  0.51100000000E-03 0. -1.
         11    1    4    4    0    0  0.21786665798E-01  0.42396539212E-01  0.37603918666E-01  0.60716070062E-01  0.51100000000E-03 0.  1.
</event>
<event>
 8    1  0.1090774E+005  0.1043930E+01  0.7957747E-01            NaN
         13   -1    0    0    0    0  0.00000000000E+00  0.00000000000E+00  0.74505805969E-08  0.10566000000E+00  0.10566000000E+00 0.  1.
     999900   -1    0    0    0    0 -0.00000000000E+00 -0.00000000000E+00 -0.74505805969E-08  0.93827000000E+00  0.93827000000E+00 0. -1.
     999902    2    1    2    0    0  0.23798996204E-01 -0.38227621378E-02 -0.20406690398E-02  0.10197397114E+01  0.10194527498E+01 0.  0.
     999903    2    3    3    0    0 -0.89134729938E-02 -0.79307359544E-01  0.10053684422E+00  0.12996997925E+00  0.20382129015E-01 0.  0.
         14    1    1    2    0    0 -0.23798996204E-01  0.38227621378E-02  0.20406690398E-02  0.24190288564E-01  0.00000000000E+00 0. -1.
     999901    1    3    3    0    0  0.32712469198E-01  0.75484597406E-01 -0.10257751325E+00  0.88976973218E+00  0.88000000000E+00 0. -1.
        -11    1    4    4    0    0 -0.15289768745E-01 -0.58220095328E-01  0.70214607593E-01  0.92486262595E-01  0.51100000000E-03 0.  1.
         11    1    4    4    0    0  0.63762957515E-02 -0.21087264216E-01  0.30322236622E-01  0.37483716656E-01  0.51100000000E-03 0. -1.
</event>
<event>
 8    1  0.1090774E+005  0.1043930E+01  0.7957747E-01            NaN
         13   -1    0    0    0    0  0.00000000000E+00  0.00000000000E+00  0.74505805969E-08  0.10566000000E+00  0.10566000000E+00 0. -1.
     999900   -1    0    0    0    0 -0.00000000000E+00 -0.00000000000E+00 -0.74505805969E-08  0.93827000000E+00  0.93827000000E+00 0.  1.
     999902    2    1    2    0    0  0.16965112660E-01  0.17580551756E-01  0.18190673676E-02  0.10194310234E+01  0.10191366011E+01 0.  0.
     999903    2    3    3    0    0 -0.30985056358E-01 -0.11299744070E+00 -0.45497760784E-01  0.12724902794E+00  0.19843728308E-01 0.  0.
         14    1    1    2    0    0 -0.16965112660E-01 -0.17580551756E-01 -0.18190673676E-02  0.24498976585E-01  0.00000000000E+00 0. -1.
     999901    1    3    3    0    0  0.47950169018E-01  0.13057799246E+00  0.47316828152E-01  0.89218199547E+00  0.88000000000E+00 0.  1.
        -11    1    4    4    0    0 -0.23460820815E-01 -0.50299972986E-01 -0.17763860109E-01  0.58277896691E-01  0.51100000000E-03 0.  1.
         11    1    4    4    0    0 -0.75242355436E-02 -0.62697467714E-01 -0.27733900675E-01  0.68971131250E-01  0.51100000000E-03 0. -1.
</event>
<event>
 8    1  0.1090774E+005  0.1043930E+01  0.7957747E-01            NaN
         13   -1    0    0    0    0  0.00000000000E+00  0.00000000000E+00  0.74505805969E-08  0.10566000000E+00  0.10566000000E+00 0.  1.
     999900   -1    0    0    0    0 -0.00000000000E+00 -0.00000000000E+00 -0.74505805969E-08  0.93827000000E+00  0.93827000000E+00 0. -1.
     999902    2    1    2    0    0  0.15738280783E-01  0.15201899944E-01  0.88197253202E-02  0.10203380777E+01  0.10200652989E+01 0.  0.
     999903    2    3    3    0    0  0.47078394293E-01  0.74842587609E-01 -0.95395032951E-01  0.13163119114E+00  0.20218062245E-01 0.  0.
         14    1    1    2    0    0 -0.15738280783E-01 -0.15201899944E-01 -0.88197253202E-02  0.23591922318E-01  0.00000000000E+00 0. -1.
     999901    1    3    3    0    0 -0.31340113509E-01 -0.59640687665E-01  0.10421475827E+00  0.88870688654E+00  0.88000000000E+00 0.  1.
        -11    1    4    4    0    0  0.19869535277E-01  0.15753302391E-01 -0.31565866384E-01  0.40492345078E-01  0.51100000000E-03 0. -1.
         11    1    4    4    0    0  0.27208859015E-01  0.59089285217E-01 -0.63829166567E-01  0.91138846065E-01  0.51100000000E-03 0.  1.
</event>
<event>
 8    1  0.1090774E+005  0.1043930E+01  0.7957747E-01            NaN
         13   -1    0    0    0    0  0.00000000000E+00  0.00000000000E+00  0.74505805969E-08  0.10566000000E+00  0.10566000000E+00 0.  1.
     999900   -1    0    0    0    0 -0.00000000000E+00 -0.00000000000E+00 -0.74505805969E-08  0.93827000000E+00  0.93827000000E+00 0. -1.
     999902    2    1    2    0    0 -0.18390813492E-01 -0.20545025102E-02 -0.21195106733E-01  0.10157932704E+01  0.10154035123E+01 0.  0.
     999903    2    3    3    0    0 -0.75658773920E-01 -0.45174713124E-01 -0.92409883681E-01  0.13001083873E+00  0.24458675520E-01 0.  0.
         14    1    1    2    0    0  0.18390813492E-01  0.20545025102E-02  0.21195106733E-01  0.28136729570E-01  0.00000000000E+00 0.  1.
     999901    1    3    3    0    0  0.57267960427E-01  0.43120210614E-01  0.71214776947E-01  0.88578243170E+00  0.88000000000E+00 0. -1.
        -11    1    4    4    0    0 -0.41461457203E-01 -0.21120478791E-01 -0.31738994092E-01  0.56327186373E-01  0.51100000000E-03 0. -1.
         11    1    4    4    0    0 -0.34197316717E-01 -0.24054234333E-01 -0.60670889588E-01  0.73683652355E-01  0.51100000000E-03 0.  1.
</event>
<event>
 8    1  0.1090774E+005  0.1043930E+01  0.7957747E-01            NaN
         13   -1    0    0    0    0  0.00000000000E+00  0.00000000000E+00  0.74505805969E-08  0.10566000000E+00  0.10566000000E+00 0.  1.
     999900   -1    0    0    0    0 -0.00000000000E+00 -0.00000000000E+00 -0.74505805969E-08  0.93827000000E+00  0.93827000000E+00 0. -1.
     999902    2    1    2    0    0 -0.14593268610E-01  0.17006733703E-01 -0.60489945530E-02  0.10207183043E+01  0.10204543469E+01 0.  0.
     999903    2    3    3    0    0  0.12358128676E+00 -0.16084615079E-01  0.26262166202E-01  0.12873665867E+00  0.18771697638E-01 0.  0.
         14    1    1    2    0    0  0.14593268610E-01 -0.17006733703E-01  0.60489945530E-02  0.23211695653E-01  0.00000000000E+00 0. -1.
     999901    1    3    3    0    0 -0.13817455537E+00  0.33091348783E-01 -0.32311160755E-01  0.89198164568E+00  0.88000000000E+00 0. -1.
        -11    1    4    4    0    0  0.48842766995E-01 -0.38377269197E-02  0.13741937717E-02  0.49015238091E-01  0.51100000000E-03 0. -1.
         11    1    4    4    0    0  0.74738519766E-01 -0.12246888160E-01  0.24887972430E-01  0.79721420579E-01  0.51100000000E-03 0.  1.
</event>
<event>
 8    1  0.1090774E+005  0.1043930E+01  0.7957747E-01            NaN
         13   -1    0    0    0    0  0.00000000000E+00  0.00000000000E+00  0.74505805969E-08  0.10566000000E+00  0.10566000000E+00 0. -1.
     999900   -1    0    0    0    0 -0.00000000000E+00 -0.00000000000E+00 -0.74505805969E-08  0.93827000000E+00  0.93827000000E+00 0. -1.
     999902    2    1    2    0    0 -0.98460617285E-02 -0.19467491549E-01 -0.83945994301E-02  0.10205548538E+01  0.10202871224E+01 0.  0.
     999903    2    3    3    0    0 -0.73383104925E-01  0.49389541219E-01 -0.95199501909E-01  0.13133421872E+00  0.19008549967E-01 0.  0.
         14    1    1    2    0    0  0.98460617285E-02  0.19467491549E-01  0.83945994301E-02  0.23375146168E-01  0.00000000000E+00 0. -1.
     999901    1    3    3    0    0  0.63537043197E-01 -0.68857032769E-01  0.86804902479E-01  0.88922063512E+00  0.88000000000E+00 0.  1.
        -11    1    4    4    0    0 -0.32931140419E-01  0.14938906465E-01 -0.28429909149E-01  0.46001649871E-01  0.51100000000E-03 0. -1.
         11    1    4    4    0    0 -0.40451964506E-01  0.34450634754E-01 -0.66769592760E-01  0.85332568845E-01  0.51100000000E-03 0.  1.
</event>
<event>
 8    1  0.1090774E+005  0.1043930E+01  0.7957747E-01            NaN
         13   -1    0    0    0    0  0.00000000000E+00  0.00000000000E+00  0.74505805969E-08  0.10566000000E+00  0.10566000000E+00 0.  1.
     999900   -1    0    0    0    0 -0.00000000000E+00 -0.00000000000E+00 -0.74505805969E-08  0.93827000000E+00  0.93827000000E+00 0.  1.
     999902    2    1    2    0    0  0.27004506662E-02  0.66868181756E-02 -0.21424686590E-01  0.10213241785E+01  0.10210739711E+01 0.  0.
     999903    2    3    3    0    0 -0.10566202530E+00 -0.46965737603E-01  0.55402879766E-01  0.12973935476E+00  0.19813555678E-01 0.  0.
         14    1    1    2    0    0 -0.27004506662E-02 -0.66868181756E-02  0.21424686590E-01  0.22605821520E-01  0.00000000000E+00 0.  1.
     999901    1    3    3    0    0  0.10836247596E+00  0.53652555778E-01 -0.76827566356E-01  0.89158482372E+00  0.88000000000E+00 0.  1.
        -11    1    4    4    0    0 -0.33928315286E-01 -0.59874548333E-02  0.20165622638E-01  0.39923597670E-01  0.51100000000E-03 0.  1.
         11    1    4    4    0    0 -0.71733710009E-01 -0.40978282769E-01  0.35237257128E-01  0.89815757088E-01  0.51100000000E-03 0. -1.
</event>
<event>
 7    1  0.1090774E+005  0.1043930E+01  0.7957747E-01            NaN
         13   -1    0    0    0    0  0.00000000000E+00  0.00000000000E+00  0.74505805969E-08  0.10566000000E+00  0.10566000000E+00 0.  1.
     999900   -1    0    0    0    0 -0.00000000000E+00 -0.00000000000E+00 -0.74505805969E-08  0.93827000000E+00  0.93827000000E+00 0.  1.
     999903    2    1    2    0    0  0.86397366636E-01 -0.57409492415E-01  0.31728720136E-01  0.11023491657E+00  0.19613015268E-01 0.  0.
         14    1    1    2    0    0 -0.10906521543E-01  0.17884299249E-02  0.44106495381E-01  0.45470139967E-01  0.00000000000E+00 0.  1.
     999901    1    1    2    0    0 -0.75490845092E-01  0.55621062490E-01 -0.75835215517E-01  0.88822494347E+00  0.88000000000E+00 0.  1.
        -11    1    3    3    0    0  0.45190603012E-01 -0.24997660543E-01  0.65060259376E-02  0.52054424670E-01  0.51100000000E-03 0.  1.
         11    1    3    3    0    0  0.41206763624E-01 -0.32411831872E-01  0.25222694199E-01  0.58180491896E-01  0.51100000000E-03 0. -1.
</event>
<event>
 8    1  0.1090774E+005  0.1043930E+01  0.7957747E-01            NaN
         13   -1    0    0    0    0  0.00000000000E+00  0.00000000000E+00  0.74505805969E-08  0.10566000000E+00  0.10566000000E+00 0.  1.
     999900   -1    0    0    0    0 -0.00000000000E+00 -0.00000000000E+00 -0.74505805969E-08  0.93827000000E+00  0.93827000000E+00 0.  1.
     999902    2    1    2    0    0 -0.16226885282E-01  0.80465916065E-02  0.14898698854E-01  0.10204772673E+01  0.10202077350E+01 0.  0.
     999903    2    3    3    0    0 -0.54552419148E-01 -0.42459087387E-01 -0.10788450488E+00  0.12969368795E+00  0.20066035100E-01 0.  0.
         14    1    1    2    0    0  0.16226885282E-01 -0.80465916065E-02 -0.14898698854E-01  0.23452732676E-01  0.00000000000E+00 0. -1.
     999901    1    3    3    0    0  0.38325533867E-01  0.50505678994E-01  0.12278320374E+00  0.89078357937E+00  0.88000000000E+00 0. -1.
        -11    1    4    4    0    0 -0.43118555610E-01 -0.29537175344E-01 -0.64617518993E-01  0.83110405166E-01  0.51100000000E-03 0. -1.
         11    1    4    4    0    0 -0.11433863539E-01 -0.12921912043E-01 -0.43266985889E-01  0.46583282787E-01  0.51100000000E-03 0.  1.
</event>
<event>
 8    1  0.1090774E+005  0.1043930E+01  0.7957747E-01            NaN
         13   -1    0    0    0    0  0.00000000000E+00  0.00000000000E+00  0.74505805969E-08  0.10566000000E+00  0.10566000000E+00 0. -1.
     999900   -1    0    0    0    0 -0.00000000000E+00 -0.00000000000E+00 -0.74505805969E-08  0.93827000000E+00  0.93827000000E+00 0.  1.
     999902    2    1    2    0    0  0.11504012761E-01 -0.19494212187E-01 -0.79474816058E-02  0.10199398128E+01  0.10196576350E+01 0.  0.
     999903    2    3    3    0    0  0.50200732477E-02  0.52459118963E-01 -0.11743423473E+00  0.13021700627E+00  0.19710630068E-01 0.  0.
         14    1    1    2    0    0 -0.11504012761E-01  0.19494212187E-01  0.79474816058E-02  0.23990187208E-01  0.00000000000E+00 0. -1.
     999901    1    3    3    0    0  0.64839395135E-02 -0.71953331150E-01  0.10948675312E+00  0.88972280652E+00  0.88000000000E+00 0. -1.
        -11    1    4    4    0    0  0.94830649961E-03  0.18788834489E-01 -0.65797939858E-01  0.68436463945E-01  0.51100000000E-03 0. -1.
         11    1    4    4    0    0  0.40717667481E-02  0.33670284474E-01 -0.51636294872E-01  0.61780542326E-01  0.51100000000E-03 0.  1.
</event>
<event>
 8    1  0.1090774E+005  0.1043930E+01  0.7957747E-01            NaN
         13   -1    0    0    0    0  0.00000000000E+00  0.00000000000E+00  0.74505805969E-08  0.10566000000E+00  0.10566000000E+00 0. -1.
     999900   -1    0    0    0    0 -0.00000000000E+00 -0.00000000000E+00 -0.74505805969E-08  0.93827000000E+00  0.93827000000E+00 0. -1.
     999902    2    1    2    0    0  0.18976418603E-02  0.21699987499E-01 -0.23647998284E-02  0.10220192086E+01  0.10217843118E+01 0.  0.
     999903    2    3    3    0    0  0.24987239351E-01  0.13004747577E+00  0.16595815964E-01  0.13487107401E+00  0.19444212856E-01 0.  0.
         14    1    1    2    0    0 -0.18976418603E-02 -0.21699987499E-01  0.23647998284E-02  0.21910791412E-01  0.00000000000E+00 0. -1.
     999901    1    3    3    0    0 -0.23089597490E-01 -0.10834748827E+00 -0.18960615792E-01  0.88714813457E+00  0.88000000000E+00 0. -1.
        -11    1    4    4    0    0  0.64369240685E-02  0.77297722206E-01  0.47563043920E-02  0.77712646346E-01  0.51100000000E-03 0. -1.
         11    1    4    4    0    0  0.18550315282E-01  0.52749753565E-01  0.11839511572E-01  0.57158427668E-01  0.51100000000E-03 0.  1.
</event>
<event>
 8    1  0.1090774E+005  0.1043930E+01  0.7957747E-01            NaN
         13   -1    0    0    0    0  0.00000000000E+00  0.00000000000E+00  0.74505805969E-08  0.10566000000E+00  0.10566000000E+00 0.  1.
     999900   -1    0    0    0    0 -0.00000000000E+00 -0.00000000000E+00 -0.74505805969E-08  0.93827000000E+00  0.93827000000E+00 0. -1.
     999902    2    1    2    0    0 -0.51599994723E-02 -0.14035168182E-01 -0.19848008846E-01  0.10190793462E+01  0.10187763046E+01 0.  0.
     999903    2    3    3    0    0 -0.61446486796E-01  0.45450463735E-01  0.99631550780E-01  0.12723739032E+00  0.20530274975E-01 0.  0.
         14    1    1    2    0    0  0.51599994723E-02  0.14035168182E-01  0.19848008846E-01  0.24850653826E-01  0.00000000000E+00 0.  1.
     999901    1    3    3    0    0  0.56286487323E-01 -0.59485631916E-01 -0.11947955963E+00  0.89184195586E+00  0.88000000000E+00 0. -1.
        -11    1    4    4    0    0 -0.20434582771E-01  0.24547498305E-01  0.30396075000E-01  0.44094606727E-01  0.51100000000E-03 0. -1.
         11    1    4    4    0    0 -0.41011904025E-01  0.20902965430E-01  0.69235475779E-01  0.83142783589E-01  0.51100000000E-03 0.  1.
</event>
<event>
 8    1  0.1090774E+005  0.1043930E+01  0.7957747E-01            NaN
         13   -1    0    0    0    0  0.00000000000E+00  0.00000000000E+00  0.74505805969E-08  0.10566000000E+00  0.10566000000E+00 0. -1.
     999900   -1    0    0    0    0 -0.00000000000E+00 -0.00000000000E+00 -0.74505805969E-08  0.93827000000E+00  0.93827000000E+00 0. -1.
     999902    2    1    2    0    0 -0.70472004644E-02 -0.13992171230E-01 -0.17670966844E-01  0.10203141799E+01  0.10200408417E+01 0.  0.
     999903    2    3    3    0    0 -0.53578335963E-01  0.11062039424E+00 -0.37778674283E-01  0.13009074842E+00  0.19719657377E-01 0.  0.
         14    1    1    2    0    0  0.70472004644E-02  0.13992171230E-01  0.17670966844E-01  0.23615820106E-01  0.00000000000E+00 0. -1.
     999901    1    3    3    0    0  0.46531135499E-01 -0.12461256547E+00  0.20107707439E-01  0.89022343147E+00  0.88000000000E+00 0. -1.
        -11    1    4    4    0    0 -0.82813392116E-03  0.14727183010E-01 -0.17258746971E-02  0.14859861698E-01  0.51100000000E-03 0.  1.
         11    1    4    4    0    0 -0.52750202042E-01  0.95893211233E-01 -0.36052799586E-01  0.11523088672E+00  0.51100000000E-03 0. -1.
</event>
<event>
 8    1  0.1090774E+005  0.1043930E+01  0.7957747E-01            NaN
         13   -1    0    0    0    0  0.00000000000E+00  0.00000000000E+00  0.74505805969E-08  0.10566000000E+00  0.10566000000E+00 0.  1.
     999900   -1    0    0    0    0 -0.00000000000E+00 -0.00000000000E+00 -0.74505805969E-08  0.93827000000E+00  0.93827000000E+00 0. -1.
     999902    2    1    2    0    0 -0.14302096963E-01  0.19784890981E-01  0.37901959449E-02  0.10192245861E+01  0.10189251197E+01 0.  0.
     999903    2    3    3    0    0 -0.12714389820E+00  0.10217076250E-01  0.27009296267E-01  0.13166391677E+00  0.18328267741E-01 0.  0.
         14    1    1    2    0    0  0.14302096963E-01 -0.19784890981E-01 -0.37901959449E-02  0.24705413860E-01  0.00000000000E+00 0. -1.
     999901    1    3    3    0    0  0.11284180124E+00  0.95678147313E-02 -0.23219100323E-01  0.88756066937E+00  0.88000000000E+00 0.  1.
        -11    1    4    4    0    0 -0.33086627876E-01  0.10782559261E-01  0.74495916046E-02  0.35591376266E-01  0.51100000000E-03 0.  1.
         11    1    4    4    0    0 -0.94057270326E-01 -0.56548301128E-03  0.19559704663E-01  0.96072540509E-01  0.51100000000E-03 0. -1.
</event>
<event>
 8    1  0.1090774E+005  0.1043930E+01  0.7957747E-01            NaN
         13   -1    0    0    0    0  0.00000000000E+00  0.00000000000E+00  0.74505805969E-08  0.10566000000E+00  0.10566000000E+00 0. -1.
     999900   -1    0    0    0    0 -0.00000000000E+00 -0.00000000000E+00 -0.74505805969E-08  0.93827000000E+00  0.93827000000E+00 0. -1.
     999902    2    1    2    0    0 -0.21350328514E-01  0.98274658659E-02 -0.63449331939E-03  0.10204179139E+01  0.10201469996E+01 0.  0.
     999903    2    3    3    0    0  0.10316239951E+00  0.43404462197E-01 -0.60803901068E-01  0.12898581226E+00  0.20342009941E-01 0.  0.
         14    1    1    2    0    0  0.21350328514E-01 -0.98274658659E-02  0.63449331939E-03  0.23512086142E-01  0.00000000000E+00 0. -1.
     999901    1    3    3    0    0 -0.12451272803E+00 -0.33576996331E-01  0.60169407748E-01  0.89143210159E+00  0.88000000000E+00 0. -1.
        -11    1    4    4    0    0  0.40674552879E-01  0.10918892859E-01 -0.13837012989E-01  0.44332443229E-01  0.51100000000E-03 0.  1.
         11    1    4    4    0    0  0.62487846633E-01  0.32485569339E-01 -0.46966888079E-01  0.84653369035E-01  0.51100000000E-03 0. -1.
</event>
<event>
 8    1  0.1090774E+005  0.1043930E+01  0.7957747E-01            NaN
         13   -1    0    0    0    0  0.00000000000E+00  0.00000000000E+00  0.74505805969E-08  0.10566000000E+00  0.10566000000E+00 0. -1.
     999900   -1    0    0    0    0 -0.00000000000E+00 -0.00000000000E+00 -0.74505805969E-08  0.93827000000E+00  0.93827000000E+00 0. -1.
     999902    2    1    2    0    0  0.34300349947E-02  0.23761324844E-01  0.53460724534E-04  0.10199223230E+01  0.10196397287E+01 0.  0.
     999903    2    3    3    0    0 -0.75205532609E-01  0.15174100142E-01  0.10344899725E+00  0.13034493460E+00  0.20049476168E-01 0.  0.
         14    1    1    2    0    0 -0.34300349947E-02 -0.23761324844E-01 -0.53460724534E-04  0.24007677031E-01  0.00000000000E+00 0. -1.
     999901    1    3    3    0    0  0.78635567603E-01  0.85872247018E-02 -0.10339553652E+00  0.88957738837E+00  0.88000000000E+00 0. -1.
        -11    1    4    4    0    0 -0.86331821641E-02  0.89274502219E-02  0.15939003952E-01  0.20212475596E-01  0.51100000000E-03 0. -1.
         11    1    4    4    0    0 -0.66572350444E-01  0.62466499200E-02  0.87509993296E-01  0.11013245901E+00  0.51100000000E-03 0.  1.
</event>
<event>
 8    1  0.1090774E+005  0.1043930E+01  0.7957747E-01            NaN
         13   -1    0    0    0    0  0.00000000000E+00  0.00000000000E+00  0.74505805969E-08  0.10566000000E+00  0.10566000000E+00 0. -1.
     999900   -1    0    0    0    0 -0.00000000000E+00 -0.00000000000E+00 -0.74505805969E-08  0.93827000000E+00  0.93827000000E+00 0. -1.
     999902    2    1    2    0    0  0.13216249707E-01  0.64534091493E-02  0.34859194415E-02  0.10288148625E+01  0.10287038223E+01 0.  0.
     999903    2    3    3    0    0 -0.12348649406E+00  0.52333903058E-01  0.19010246208E-01  0.13694398366E+00  0.20112522878E-01 0.  0.
         14    1    1    2    0    0 -0.13216249707E-01 -0.64534091493E-02 -0.34859194415E-02  0.15115137456E-01  0.00000000000E+00 0.  1.
     999901    1    3    3    0    0  0.13670274377E+00 -0.45880493909E-01 -0.15524326767E-01  0.89187087888E+00  0.88000000000E+00 0.  1.
        -11    1    4    4    0    0 -0.85278787907E-01  0.36427013429E-01  0.36833978046E-02  0.92807475532E-01  0.51100000000E-03 0. -1.
         11    1    4    4    0    0 -0.38207706151E-01  0.15906889629E-01  0.15326848403E-01  0.44136508131E-01  0.51100000000E-03 0.  1.
</event>
<event>
 8    1  0.1090774E+005  0.1043930E+01  0.7957747E-01            NaN
         13   -1    0    0    0    0  0.00000000000E+00  0.00000000000E+00  0.74505805969E-08  0.10566000000E+00  0.10566000000E+00 0.  1.
     999900   -1    0    0    0    0 -0.00000000000E+00 -0.00000000000E+00 -0.74505805969E-08  0.93827000000E+00  0.93827000000E+00 0.  1.
     999902    2    1    2    0    0 -0.19655889539E-01 -0.62163669194E-02 -0.12448085174E-01  0.10198478067E+01  0.10195634344E+01 0.  0.
     999903    2    3    3    0    0 -0.11429699788E+00  0.45169473809E-01 -0.46025479599E-01  0.13264721749E+00  0.19309439361E-01 0.  0.
         14    1    1    2    0    0  0.19655889539E-01  0.62163669194E-02  0.12448085174E-01  0.24082193334E-01  0.00000000000E+00 0. -1.
     999901    1    3    3    0    0  0.94641108337E-01 -0.51385840728E-01  0.33577394425E-01  0.88720058917E+00  0.88000000000E+00 0.  1.
        -11    1    4    4    0    0 -0.99709848281E-01  0.42919153579E-01 -0.34476144837E-01  0.11389896080E+00  0.51100000000E-03 0. -1.
         11    1    4    4    0    0 -0.14587149595E-01  0.22503202301E-02 -0.11549334762E-01  0.18748256689E-01  0.51100000000E-03 0.  1.
</event>
<event>
 8    1  0.1090774E+005  0.1043930E+01  0.7957747E-01            NaN
         13   -1    0    0    0    0  0.00000000000E+00  0.00000000000E+00  0.74505805969E-08  0.10566000000E+00  0.10566000000E+00 0.  1.
     999900   -1    0    0    0    0 -0.00000000000E+00 -0.00000000000E+00 -0.74505805969E-08  0.93827000000E+00  0.93827000000E+00 0. -1.
     999902    2    1    2    0    0 -0.90465028550E-02 -0.17655444100E-01  0.12310189247E-01  0.10205827372E+01  0.10203156516E+01 0.  0.
     999903    2    3    3    0    0  0.36413560044E-01  0.57306836163E-01  0.10996699190E+00  0.13085086081E+00  0.20474072421E-01 0.  0.
         14    1    1    2    0    0  0.90465028550E-02  0.17655444100E-01 -0.12310189247E-01  0.23347262785E-01  0.00000000000E+00 0. -1.
     999901    1    3    3    0    0 -0.45460062899E-01 -0.74962280263E-01 -0.97656802654E-01  0.88973187640E+00  0.88000000000E+00 0. -1.
        -11    1    4    4    0    0  0.26204795903E-01  0.48431180079E-01  0.72705397551E-01  0.91206394986E-01  0.51100000000E-03 0. -1.
         11    1    4    4    0    0  0.10208764141E-01  0.88756560840E-02  0.37261594350E-01  0.39644465827E-01  0.51100000000E-03 0.  1.
</event>
<event>
 8    1  0.1090774E+005  0.1043930E+01  0.7957747E-01            NaN
         13   -1    0    0    0    0  0.00000000000E+00  0.00000000000E+00  0.74505805969E-08  0.10566000000E+00  0.10566000000E+00 0.  1.
     999900   -1    0    0    0    0 -0.00000000000E+00 -0.00000000000E+00 -0.74505805969E-08  0.93827000000E+00  0.93827000000E+00 0. -1.
     999902    2    1    2    0    0 -0.15815870717E-01  0.16936494881E-01 -0.17547184168E-02  0.10206906871E+01  0.10204260939E+01 0.  0.
     999903    2    3    3    0    0  0.85900416242E-02 -0.50118917133E-01 -0.11803435149E+00  0.13017789672E+00  0.20699806588E-01 0.  0.
         14    1    1    2    0    0  0.15815870717E-01 -0.16936494881E-01  0.17547184168E-02  0.23239312858E-01  0.00000000000E+00 0. -1.
     999901    1    3    3    0    0 -0.24405912341E-01  0.67055412015E-01  0.11627963307E+00  0.89051279042E+00  0.88000000000E+00 0.  1.
        -11    1    4    4    0    0  0.67244655590E-02 -0.11801221769E-01 -0.52574853941E-01  0.54303440592E-01  0.51100000000E-03 0.  1.
         11    1    4    4    0    0  0.18655760652E-02 -0.38317695364E-01 -0.65459497550E-01  0.75874456127E-01  0.51100000000E-03 0. -1.
</event>
<event>
 8    1  0.1090774E+005  0.1043930E+01  0.7957747E-01            NaN
         13   -1    0    0    0    0  0.00000000000E+00  0.00000000000E+00  0.74505805969E-08  0.10566000000E+00  0.10566000000E+00 0.  1.
     999900   -1    0    0    0    0 -0.00000000000E+00 -0.00000000000E+00 -0.74505805969E-08  0.93827000000E+00  0.93827000000E+00 0.  1.
     999902    2    1    2    0    0  0.15139810025E-01  0.18037016923E-01 -0.49157252223E-02  0.10198735626E+01  0.10195898055E+01 0.  0.
     999903    2    3    3    0    0  0.36522192903E-01 -0.11548327076E+00 -0.38276407286E-01  0.12892024807E+00  0.22024772600E-01 0.  0.
         14    1    1    2    0    0 -0.15139810025E-01 -0.18037016923E-01  0.49157252223E-02  0.24056437424E-01  0.00000000000E+00 0. -1.
     999901    1    3    3    0    0 -0.21382382878E-01  0.13352028768E+00  0.33360682063E-01  0.89095331451E+00  0.88000000000E+00 0.  1.
        -11    1    4    4    0    0 -0.18410722769E-02 -0.21400766110E-01 -0.58846505726E-02  0.22277176001E-01  0.51100000000E-03 0. -1.
         11    1    4    4    0    0  0.38363265180E-01 -0.94082504649E-01 -0.32391756713E-01  0.10664307207E+00  0.51100000000E-03 0.  1.
</event>
<event>
 8    1  0.1090774E+005  0.1043930E+01  0.7957747E-01            NaN
         13   -1    0    0    0    0  0.00000000000E+00  0.00000000000E+00  0.74505805969E-08  0.10566000000E+00  0.10566000000E+00 0.  1.
     999900   -1    0    0    0    0 -0.00000000000E+00 -0.00000000000E+00 -0.74505805969E-08  0.93827000000E+00  0.93827000000E+00 0. -1.
     999902    2    1    2    0    0  0.21144342161E-01 -0.39309689447E-02 -0.89620140749E-02  0.10206307850E+01  0.10203648102E+01 0.  0.
     999903    2    3    3    0    0 -0.48251883444E-01  0.40748797974E-01  0.11037160320E+00  0.12874927388E+00  0.20143880993E-01 0.  0.
         14    1    1    2    0    0 -0.21144342161E-01  0.39309689447E-02  0.89620140749E-02  0.23299214977E-01  0.00000000000E+00 0. -1.
     999901    1    3    3    0    0  0.69396225605E-01 -0.44679766918E-01 -0.11933361727E+00  0.89188151114E+00  0.88000000000E+00 0. -1.
        -11    1    4    4    0    0 -0.37890658971E-01  0.21362521361E-01  0.82325701282E-01  0.93111984023E-01  0.51100000000E-03 0.  1.
         11    1    4    4    0    0 -0.10361224473E-01  0.19386276612E-01  0.28045901914E-01  0.35637289861E-01  0.51100000000E-03 0. -1.
</event>
<event>
 8    1  0.1090774E+005  0.1043930E+01  0.7957747E-01            NaN
         13   -1    0    0    0    0  0.00000000000E+00  0.00000000000E+00  0.74505805969E-08  0.10566000000E+00  0.10566000000E+00 0. -1.
     999900   -1    0    0    0    0 -0.00000000000E+00 -0.00000000000E+00 -0.74505805969E-08  0.93827000000E+00  0.93827000000E+00 0. -1.
     999902    2    1    2    0    0 -0.16769881032E-01 -0.14506680658E-01  0.70405224507E-02  0.10206653992E+01  0.10204002232E+01 0.  0.
     999903    2    3    3    0    0  0.50474071083E-01 -0.23621713310E-01 -0.11529052245E+00  0.12961561527E+00  0.20067036734E-01 0.  0.
         14    1    1    2    0    0  0.16769881032E-01  0.14506680658E-01 -0.70405224507E-02  0.23264600790E-01  0.00000000000E+00 0. -1.
     999901    1    3    3    0    0 -0.67243952115E-01  0.91150326518E-02  0.12233104490E+00  0.89104978394E+00  0.88000000000E+00 0.  1.
        -11    1    4    4    0    0  0.31272390530E-01 -0.12153091882E-01 -0.46961683213E-01  0.57717595783E-01  0.51100000000E-03 0. -1.
         11    1    4    4    0    0  0.19201680553E-01 -0.11468621427E-01 -0.68328839237E-01  0.71898019486E-01  0.51100000000E-03 0.  1.
</event>
<event>
 8    1  0.1090774E+005  0.1043930E+01  0.7957747E-01            NaN
         13   -1    0    0    0    0  0.00000000000E+00  0.00000000000E+00  0.74505805969E-08  0.10566000000E+00  0.10566000000E+00 0.  1.
     999900   -1    0    0    0    0 -0.00000000000E+00 -0.00000000000E+00 -0.74505805969E-08  0.93827000000E+00  0.93827000000E+00 0.  1.
     999902    2    1    2    0    0  0.21729076683E-01  0.73518803352E-02 -0.43664890362E-02  0.10205790012E+01  0.10203118291E+01 0.  0.
     999903    2    3    3    0    0 -0.90260529556E-01  0.16940436017E-01 -0.88672907932E-01  0.12943300612E+00  0.21355957079E-01 0.  0.
         14    1    1    2    0    0 -0.21729076683E-01 -0.73518803352E-02  0.43664890362E-02  0.23350998790E-01  0.00000000000E+00 0. -1.
     999901    1    3    3    0    0  0.11198960624E+00 -0.95885556821E-02  0.84306418896E-01  0.89114599509E+00  0.88000000000E+00 0. -1.
        -11    1    4    4    0    0 -0.46419207628E-01 -0.13677554610E-02 -0.49255781507E-01  0.67697907831E-01  0.51100000000E-03 0. -1.
         11    1    4    4    0    0 -0.43841321928E-01  0.18308191478E-01 -0.39417126426E-01  0.61735098285E-01  0.51100000000E-03 0.  1.
</event>
<event>
 8    1  0.1090774E+005  0.1043930E+01  0.7957747E-01            NaN
         13   -1    0    0    0    0  0.00000000000E+00  0.00000000000E+00  0.74505805969E-08  0.10566000000E+00  0.10566000000E+00 0. -1.
     999900   -1    0    0    0    0 -0.00000000000E+00 -0.00000000000E+00 -0.74505805969E-08  0.93827000000E+00  0.93827000000E+00 0.  1.
     999902    2    1    2    0    0  0.51504297445E-02  0.19763334182E-01 -0.93119835440E-02  0.10214838569E+01  0.10212372107E+01 0.  0.
     999903    2    3    3    0    0  0.43040736317E-01  0.86053472590E-01  0.89241153256E-01  0.13269660528E+00  0.19664701674E-01 0.  0.
         14    1    1    2    0    0 -0.51504297445E-02 -0.19763334182E-01  0.93119835440E-02  0.22446143144E-01  0.00000000000E+00 0. -1.
     999901    1    3    3    0    0 -0.37890306572E-01 -0.66290138409E-01 -0.98553136800E-01  0.88878725157E+00  0.88000000000E+00 0.  1.
        -11    1    4    4    0    0  0.59907160079E-03  0.12461488045E-01  0.63733587561E-02  0.14018858510E-01  0.51100000000E-03 0. -1.
         11    1    4    4    0    0  0.42441664716E-01  0.73591984545E-01  0.82867794500E-01  0.11867774677E+00  0.51100000000E-03 0.  1.
</event>
<event>
 8    1  0.1090774E+005  0.1043930E+01  0.7957747E-01            NaN
         13   -1    0    0    0    0  0.00000000000E+00  0.00000000000E+00  0.74505805969E-08  0.10566000000E+00  0.10566000000E+00 0. -1.
     999900   -1    0    0    0    0 -0.00000000000E+00 -0.00000000000E+00 -0.74505805969E-08  0.93827000000E+00  0.93827000000E+00 0. -1.
     999902    2    1    2    0    0 -0.15529242146E-01  0.38348739724E-02 -0.14789514657E-01  0.10221448362E+01  0.10219126541E+01 0.  0.
     999903    2    3    3    0    0 -0.84627242100E-01  0.48936093361E-01 -0.90984409186E-01  0.13500656309E+00  0.19801465166E-01 0.  0.
         14    1    1    2    0    0  0.15529242146E-01 -0.38348739724E-02  0.14789514657E-01  0.21785163846E-01  0.00000000000E+00 0.  1.
     999901    1    3    3    0    0  0.69097999954E-01 -0.45101219388E-01  0.76194894528E-01  0.88713827307E+00  0.88000000000E+00 0.  1.
        -11    1    4    4    0    0 -0.64785121889E-01  0.44869918769E-01 -0.65672609483E-01  0.10258447439E+00  0.51100000000E-03 0. -1.
         11    1    4    4    0    0 -0.19842120211E-01  0.40661745918E-02 -0.25311799703E-01  0.32422088697E-01  0.51100000000E-03 0.  1.
</event>
<event>
 8    1  0.1090774E+005  0.1043930E+01  0.7957747E-01            NaN
         13   -1    0    0    0    0  0.00000000000E+00  0.00000000000E+00  0.74505805969E-08  0.10566000000E+00  0.10566000000E+00 0.  1.
     999900   -1    0    0    0    0 -0.00000000000E+00 -0.00000000000E+00 -0.74505805969E-08  0.93827000000E+00  0.93827000000E+00 0.  1.
     999902    2    1    2    0    0  0.24125242708E-01 -0.34336155842E-02  0.10279285514E-02  0.10195399674E+01  0.10192481894E+01 0.  0.
     999903    2    3    3    0    0  0.55656377923E-01  0.63101887173E-01  0.98558835494E-01  0.13109556094E+00  0.19817201505E-01 0.  0.
         14    1    1    2    0    0 -0.24125242708E-01  0.34336155842E-02 -0.10279285514E-02  0.24390032571E-01  0.00000000000E+00 0. -1.
     999901    1    3    3    0    0 -0.31531135215E-01 -0.66535502757E-01 -0.97530906942E-01  0.88844440649E+00  0.88000000000E+00 0.  1.
        -11    1    4    4    0    0  0.21661010927E-01  0.34177669011E-01  0.58408401896E-01  0.71057124811E-01  0.51100000000E-03 0.  1.
         11    1    4    4    0    0  0.33995366996E-01  0.28924218163E-01  0.40150433598E-01  0.60038436127E-01  0.51100000000E-03 0. -1.
</event>
<event>
 8    1  0.1090774E+005  0.1043930E+01  0.7957747E-01            NaN
         13   -1    0    0    0    0  0.00000000000E+00  0.00000000000E+00  0.74505805969E-08  0.10566000000E+00  0.10566000000E+00 0. -1.
     999900   -1    0    0    0    0 -0.00000000000E+00 -0.00000000000E+00 -0.74505805969E-08  0.93827000000E+00  0.93827000000E+00 0. -1.
     999902    2    1    2    0    0 -0.53678769053E-02  0.13361900620E-01 -0.18251956595E-01  0.10206815934E+01  0.10204167907E+01 0.  0.
     999903    2    3    3    0    0  0.94395036851E-01  0.80099751205E-01  0.37833242424E-01  0.13076467074E+00  0.18483824164E-01 0.  0.
         14    1    1    2    0    0  0.53678769053E-02 -0.13361900620E-01  0.18251956595E-01  0.23248406616E-01  0.00000000000E+00 0. -1.
     999901    1    3    3    0    0 -0.99762913757E-01 -0.66737850585E-01 -0.56085199019E-01  0.88991692265E+00  0.88000000000E+00 0. -1.
        -11    1    4    4    0    0  0.81917342694E-01  0.76684345268E-01  0.34527861797E-01  0.11740261583E+00  0.51100000000E-03 0. -1.
         11    1    4    4    0    0  0.12477694157E-01  0.34154059371E-02  0.33053806268E-02  0.13362054905E-01  0.51100000000E-03 0.  1.
</event>
<event>
 8    1  0.1090774E+005  0.1043930E+01  0.7957747E-01            NaN
         13   -1    0    0    0    0  0.00000000000E+00  0.00000000000E+00  0.74505805969E-08  0.10566000000E+00  0.10566000000E+00 0. -1.
     999900   -1    0    0    0    0 -0.00000000000E+00 -0.00000000000E+00 -0.74505805969E-08  0.93827000000E+00  0.93827000000E+00 0.  1.
     999902    2    1    2    0    0 -0.18797212530E-01  0.19369631791E-01  0.17666113578E-02  0.10168811784E+01  0.10165213683E+01 0.  0.
     999903    2    3    3    0    0 -0.76391039187E-01 -0.55033834609E-01  0.84025955581E-01  0.12805075340E+00  0.21732933881E-01 0.  0.
         14    1    1    2    0    0  0.18797212530E-01 -0.19369631791E-01 -0.17666113578E-02  0.27048821607E-01  0.00000000000E+00 0.  1.
     999901    1    3    3    0    0  0.57593826657E-01  0.74403466401E-01 -0.82259344223E-01  0.88883042499E+00  0.88000000000E+00 0.  1.
        -11    1    4    4    0    0 -0.60793160261E-01 -0.52910855874E-01  0.73741958023E-01  0.10924058082E+00  0.51100000000E-03 0. -1.
         11    1    4    4    0    0 -0.15597878926E-01 -0.21229787351E-02  0.10283997557E-01  0.18810172579E-01  0.51100000000E-03 0.  1.
</event>
<event>
 8    1  0.1090774E+005  0.1043930E+01  0.7957747E-01            NaN
         13   -1    0    0    0    0  0.00000000000E+00  0.00000000000E+00  0.74505805969E-08  0.10566000000E+00  0.10566000000E+00 0. -1.
     999900   -1    0    0    0    0 -0.00000000000E+00 -0.00000000000E+00 -0.74505805969E-08  0.93827000000E+00  0.93827000000E+00 0. -1.
     999902    2    1    2    0    0  0.13222649993E-01 -0.18617023870E-01 -0.46714372253E-02  0.10206221821E+01  0.10203560085E+01 0.  0.
     999903    2    3    3    0    0 -0.62443450877E-01  0.17497895067E-01 -0.11123338412E+00  0.13023738059E+00  0.19584398665E-01 0.  0.
         14    1    1    2    0    0 -0.13222649993E-01  0.18617023870E-01  0.46714372253E-02  0.23307817924E-01  0.00000000000E+00 0. -1.
     999901    1    3    3    0    0  0.75666100870E-01 -0.36114918937E-01  0.10656194689E+00  0.89038480149E+00  0.88000000000E+00 0.  1.
        -11    1    4    4    0    0 -0.57451215012E-01  0.21427370488E-01 -0.10213835794E+00  0.11913135438E+00  0.51100000000E-03 0.  1.
         11    1    4    4    0    0 -0.49922358658E-02 -0.39294754201E-02 -0.90950261800E-02  0.11106026212E-01  0.51100000000E-03 0. -1.
</event>
<event>
 8    1  0.1090774E+005  0.1043930E+01  0.7957747E-01            NaN
         13   -1    0    0    0    0  0.00000000000E+00  0.00000000000E+00  0.74505805969E-08  0.10566000000E+00  0.10566000000E+00 0. -1.
     999900   -1    0    0    0    0 -0.00000000000E+00 -0.00000000000E+00 -0.74505805969E-08  0.93827000000E+00  0.93827000000E+00 0.  1.
     999902    2    1    2    0    0 -0.19958375949E-02 -0.20257317538E-01 -0.12888405848E-01  0.10198374018E+01  0.10195527808E+01 0.  0.
     999903    2    3    3    0    0 -0.79158944998E-01 -0.10369825569E+00 -0.87042272085E-02  0.13251894566E+00  0.21587973047E-01 0.  0.
         14    1    1    2    0    0  0.19958375949E-02  0.20257317538E-01  0.12888405848E-01  0.24092598175E-01  0.00000000000E+00 0. -1.
     999901    1    3    3    0    0  0.77163107403E-01  0.83440938154E-01 -0.41841786396E-02  0.88731845617E+00  0.88000000000E+00 0. -1.
        -11    1    4    4    0    0 -0.41234518043E-01 -0.62960454094E-01 -0.14188086610E-01  0.76588949468E-01  0.51100000000E-03 0. -1.
         11    1    4    4    0    0 -0.37924426955E-01 -0.40737801598E-01  0.54838594011E-02  0.55929996190E-01  0.51100000000E-03 0.  1.
</event>
<event>
 8    1  0.1090774E+005  0.1043930E+01  0.7957747E-01            NaN
         13   -1    0    0    0    0  0.00000000000E+00  0.00000000000E+00  0.74505805969E-08  0.10566000000E+00  0.10566000000E+00 0. -1.
     999900   -1    0    0    0    0 -0.00000000000E+00 -0.00000000000E+00 -0.74505805969E-08  0.93827000000E+00  0.93827000000E+00 0. -1.
     999902    2    1    2    0    0  0.20904353657E-01 -0.11281192143E-01 -0.30050970296E-02  0.10199865686E+01  0.10197055027E+01 0.  0.
     999903    2    3    3    0    0  0.22990669734E-01  0.10274432743E+00  0.72488059935E-01  0.12942192269E+00  0.20261972441E-01 0.  0.
         14    1    1    2    0    0 -0.20904353657E-01  0.11281192143E-01  0.30050970296E-02  0.23943431378E-01  0.00000000000E+00 0.  1.
     999901    1    3    3    0    0 -0.20863160767E-02 -0.11402551957E+00 -0.75493156964E-01  0.89056464593E+00  0.88000000000E+00 0.  1.
        -11    1    4    4    0    0  0.19350150670E-01  0.98935843866E-01  0.63975725724E-01  0.11939800725E+00  0.51100000000E-03 0. -1.
         11    1    4    4    0    0  0.36405190646E-02  0.38084835617E-02  0.85123342109E-02  0.10023915443E-01  0.51100000000E-03 0.  1.
</event>
<event>
 8    1  0.1090774E+005  0.1043930E+01  0.7957747E-01            NaN
         13   -1    0    0    0    0  0.00000000000E+00  0.00000000000E+00  0.74505805969E-08  0.10566000000E+00  0.10566000000E+00 0.  1.
     999900   -1    0    0    0    0 -0.00000000000E+00 -0.00000000000E+00 -0.74505805969E-08  0.93827000000E+00  0.93827000000E+00 0. -1.
     999902    2    1    2    0    0 -0.20890645437E-01 -0.13338709321E-01 -0.31627747822E-02  0.10189431359E+01  0.10186367217E+01 0.  0.
     999903    2    3    3    0    0  0.12323593637E+00 -0.20435591760E-01 -0.12496707340E-01  0.12714161111E+00  0.20102541073E-01 0.  0.
         14    1    1    2    0    0  0.20890645437E-01  0.13338709321E-01  0.31627747822E-02  0.24986864098E-01  0.00000000000E+00 0.  1.
     999901    1    3    3    0    0 -0.14412658181E+00  0.70968824389E-02  0.93339325578E-02  0.89180152479E+00  0.88000000000E+00 0. -1.
        -11    1    4    4    0    0  0.41193184534E-01 -0.59539728251E-02  0.52669528741E-02  0.41956288659E-01  0.51100000000E-03 0.  1.
         11    1    4    4    0    0  0.82042751836E-01 -0.14481618935E-01 -0.17763660214E-01  0.85185322451E-01  0.51100000000E-03 0. -1.
</event>
<event>
 8    1  0.1090774E+005  0.1043930E+01  0.7957747E-01            NaN
         13   -1    0    0    0    0  0.00000000000E+00  0.00000000000E+00  0.74505805969E-08  0.10566000000E+00  0.10566000000E+00 0. -1.
     999900   -1    0    0    0    0 -0.00000000000E+00 -0.00000000000E+00 -0.74505805969E-08  0.93827000000E+00  0.93827000000E+00 0. -1.
     999902    2    1    2    0    0  0.58524904438E-02  0.26063647662E-01  0.19645775090E-01  0.10107709612E+01  0.10102269122E+01 0.  0.
     999903    2    3    3    0    0 -0.11450545071E+00  0.19836919899E-01  0.33327348908E-01  0.12245120370E+00  0.19457221518E-01 0.  0.
         14    1    1    2    0    0 -0.58524904438E-02 -0.26063647662E-01 -0.19645775090E-01  0.33159038779E-01  0.00000000000E+00 0.  1.
     999901    1    3    3    0    0  0.12035794115E+00  0.62267277628E-02 -0.13681573818E-01  0.88831975752E+00  0.88000000000E+00 0.  1.
        -11    1    4    4    0    0 -0.35400287468E-01  0.14134185532E-01  0.61621965042E-02  0.38615920813E-01  0.51100000000E-03 0. -1.
         11    1    4    4    0    0 -0.79105163242E-01  0.57027343672E-02  0.27165152404E-01  0.83835282888E-01  0.51100000000E-03 0.  1.
</event>
<event>
 8    1  0.1090774E+005  0.1043930E+01  0.7957747E-01            NaN
         13   -1    0    0    0    0  0.00000000000E+00  0.00000000000E+00  0.74505805969E-08  0.10566000000E+00  0.10566000000E+00 0.  1.
     999900   -1    0    0    0    0 -0.00000000000E+00 -0.00000000000E+00 -0.74505805969E-08  0.93827000000E+00  0.93827000000E+00 0. -1.
     999902    2    1    2    0    0 -0.16615631398E-02 -0.81247256497E-02 -0.21549438704E-01  0.10208399531E+01  0.10205787865E+01 0.  0.
     999903    2    3    3    0    0 -0.12051402918E+00 -0.16132606804E-01  0.42613854191E-01  0.13049902791E+00  0.20740382960E-01 0.  0.
         14    1    1    2    0    0  0.16615631398E-02  0.81247256497E-02  0.21549438704E-01  0.23090046934E-01  0.00000000000E+00 0.  1.
     999901    1    3    3    0    0  0.11885246604E+00  0.80078811542E-02 -0.64163292894E-01  0.89034092515E+00  0.88000000000E+00 0. -1.
        -11    1    4    4    0    0 -0.68597023406E-02 -0.74206838206E-03 -0.23507861256E-02  0.73070854719E-02  0.51100000000E-03 0.  1.
         11    1    4    4    0    0 -0.11365432684E+00 -0.15390538422E-01  0.44964640316E-01  0.12319194244E+00  0.51100000000E-03 0. -1.
</event>
<event>
 8    1  0.1090774E+005  0.1043930E+01  0.7957747E-01            NaN
         13   -1    0    0    0    0  0.00000000000E+00  0.00000000000E+00  0.74505805969E-08  0.10566000000E+00  0.10566000000E+00 0. -1.
     999900   -1    0    0    0    0 -0.00000000000E+00 -0.00000000000E+00 -0.74505805969E-08  0.93827000000E+00  0.93827000000E+00 0.  1.
     999902    2    1    2    0    0 -0.22745566983E-01  0.62997085681E-02  0.90837717004E-03  0.10203106796E+01  0.10200372595E+01 0.  0.
     999903    2    3    3    0    0 -0.99884974433E-01  0.15822317599E-01 -0.83668740413E-01  0.13284549323E+00  0.20496660638E-01 0.  0.
         14    1    1    2    0    0  0.22745566983E-01 -0.62997085681E-02 -0.90837717004E-03  0.23619320365E-01  0.00000000000E+00 0. -1.
     999901    1    3    3    0    0  0.77139407450E-01 -0.95226090309E-02  0.84577117583E-01  0.88746518641E+00  0.88000000000E+00 0. -1.
        -11    1    4    4    0    0 -0.59599109805E-01 -0.65389998845E-03 -0.50467041060E-01  0.78100351018E-01  0.51100000000E-03 0. -1.
         11    1    4    4    0    0 -0.40285864627E-01  0.16476217588E-01 -0.33201699354E-01  0.54745142211E-01  0.51100000000E-03 0.  1.
</event>
<event>
 8    1  0.1090774E+005  0.1043930E+01  0.7957747E-01            NaN
         13   -1    0    0    0    0  0.00000000000E+00  0.00000000000E+00  0.74505805969E-08  0.10566000000E+00  0.10566000000E+00 0.  1.
     999900   -1    0    0    0    0 -0.00000000000E+00 -0.00000000000E+00 -0.74505805969E-08  0.93827000000E+00  0.93827000000E+00 0.  1.
     999902    2    1    2    0    0  0.16585909745E-01  0.16122708862E-01 -0.22446724229E-02  0.10206905358E+01  0.10204259391E+01 0.  0.
     999903    2    3    3    0    0  0.76649360086E-01 -0.84445658482E-01  0.60438797130E-01  0.13071815871E+00  0.20692877547E-01 0.  0.
         14    1    1    2    0    0 -0.16585909745E-01 -0.16122708862E-01  0.22446724229E-02  0.23239464224E-01  0.00000000000E+00 0. -1.
     999901    1    3    3    0    0 -0.60063450341E-01  0.10056836734E+00 -0.62683469553E-01  0.88997237706E+00  0.88000000000E+00 0.  1.
        -11    1    4    4    0    0  0.39419979588E-02 -0.14323673922E-01  0.67966138866E-02  0.16345092959E-01  0.51100000000E-03 0.  1.
         11    1    4    4    0    0  0.72707362127E-01 -0.70121984561E-01  0.53642183244E-01  0.11437306576E+00  0.51100000000E-03 0. -1.
</event>
<event>
 8    1  0.1090774E+005  0.1043930E+01  0.7957747E-01            NaN
         13   -1    0    0    0    0  0.00000000000E+00  0.00000000000E+00  0.74505805969E-08  0.10566000000E+00  0.10566000000E+00 0. -1.
     999900   -1    0    0    0    0 -0.00000000000E+00 -0.00000000000E+00 -0.74505805969E-08  0.93827000000E+00  0.93827000000E+00 0. -1.
     999902    2    1    2    0    0  0.94391243466E-02 -0.20107465886E-01 -0.92661306502E-02  0.10198620040E+01  0.10195779709E+01 0.  0.
     999903    2    3    3    0    0  0.66545443164E-01  0.10186350141E+00 -0.38294795074E-01  0.12914279358E+00  0.20171784195E-01 0.  0.
         14    1    1    2    0    0 -0.94391243466E-02  0.20107465886E-01  0.92661306502E-02  0.24067995970E-01  0.00000000000E+00 0. -1.
     999901    1    3    3    0    0 -0.57106318817E-01 -0.12197096730E+00  0.29028664424E-01  0.89071921045E+00  0.88000000000E+00 0. -1.
        -11    1    4    4    0    0  0.27096556479E-01  0.48989157689E-01 -0.27206601422E-01  0.62246455530E-01  0.51100000000E-03 0.  1.
         11    1    4    4    0    0  0.39448886685E-01  0.52874343721E-01 -0.11088193652E-01  0.66896338046E-01  0.51100000000E-03 0. -1.
</event>
<event>
 8    1  0.1090774E+005  0.1043930E+01  0.7957747E-01            NaN
         13   -1    0    0    0    0  0.00000000000E+00  0.00000000000E+00  0.74505805969E-08  0.10566000000E+00  0.10566000000E+00 0.  1.
     999900   -1    0    0    0    0 -0.00000000000E+00 -0.00000000000E+00 -0.74505805969E-08  0.93827000000E+00  0.93827000000E+00 0. -1.
     999902    2    1    2    0    0  0.19710701621E-01 -0.12394147795E-01 -0.57361128076E-02  0.10199502242E+01  0.10196682942E+01 0.  0.
     999903    2    3    3    0    0 -0.62997574922E-01 -0.10826099488E+00 -0.19567175694E-01  0.13078071859E+00  0.32118289671E-01 0.  0.
         14    1    1    2    0    0 -0.19710701621E-01  0.12394147795E-01  0.57361128076E-02  0.23979775815E-01  0.00000000000E+00 0. -1.
     999901    1    3    3    0    0  0.82708276544E-01  0.95866847087E-01  0.13831062886E-01  0.88916950559E+00  0.88000000000E+00 0.  1.
        -11    1    4    4    0    0 -0.35861878412E-01 -0.76517851759E-01  0.35808561939E-03  0.84507072529E-01  0.51100000000E-03 0.  1.
         11    1    4    4    0    0 -0.27135696511E-01 -0.31743143123E-01 -0.19925261313E-01  0.46273646062E-01  0.51100000000E-03 0. -1.
</event>
<event>
 8    1  0.1090774E+005  0.1043930E+01  0.7957747E-01            NaN
         13   -1    0    0    0    0  0.00000000000E+00  0.00000000000E+00  0.74505805969E-08  0.10566000000E+00  0.10566000000E+00 0. -1.
     999900   -1    0    0    0    0 -0.00000000000E+00 -0.00000000000E+00 -0.74505805969E-08  0.93827000000E+00  0.93827000000E+00 0. -1.
     999902    2    1    2    0    0 -0.12731219377E-01  0.15949654151E-01 -0.12009159044E-01  0.10202509942E+01  0.10199761742E+01 0.  0.
     999903    2    3    3    0    0 -0.98103289164E-02  0.11441851410E+00 -0.64492711733E-01  0.13320016631E+00  0.19878015884E-01 0.  0.
         14    1    1    2    0    0  0.12731219377E-01 -0.15949654151E-01  0.12009159044E-01  0.23679005792E-01  0.00000000000E+00 0. -1.
     999901    1    3    3    0    0 -0.29208904608E-02 -0.98468859946E-01  0.52483552689E-01  0.88705082790E+00  0.88000000000E+00 0.  1.
        -11    1    4    4    0    0  0.51635430913E-02  0.55737345864E-01 -0.30425693316E-01  0.63712619127E-01  0.51100000000E-03 0. -1.
         11    1    4    4    0    0 -0.14973872008E-01  0.58681168233E-01 -0.34067018417E-01  0.69487547179E-01  0.51100000000E-03 0.  1.
</event>
<event>
 8    1  0.1090774E+005  0.1043930E+01  0.7957747E-01            NaN
         13   -1    0    0    0    0  0.00000000000E+00  0.00000000000E+00  0.74505805969E-08  0.10566000000E+00  0.10566000000E+00 0.  1.
     999900   -1    0    0    0    0 -0.00000000000E+00 -0.00000000000E+00 -0.74505805969E-08  0.93827000000E+00  0.93827000000E+00 0. -1.
     999902    2    1    2    0    0 -0.20560356142E-01 -0.11507398008E-01 -0.15376008628E-02  0.10203182938E+01  0.10200450519E+01 0.  0.
     999903    2    3    3    0    0 -0.47443002288E-01 -0.11030886684E-01  0.12051825702E+00  0.13148729964E+00  0.19792442121E-01 0.  0.
         14    1    1    2    0    0  0.20560356142E-01  0.11507398008E-01  0.15376008628E-02  0.23611706207E-01  0.00000000000E+00 0.  1.
     999901    1    3    3    0    0  0.26882646147E-01 -0.47651132417E-03 -0.12205585788E+00  0.88883099415E+00  0.88000000000E+00 0. -1.
        -11    1    4    4    0    0 -0.34586927665E-01 -0.94412776192E-02  0.10659045836E+00  0.11245968266E+00  0.51100000000E-03 0.  1.
         11    1    4    4    0    0 -0.12856074623E-01 -0.15896090649E-02  0.13927798654E-01  0.19027616982E-01  0.51100000000E-03 0. -1.
</event>
<event>
 8    1  0.1090774E+005  0.1043930E+01  0.7957747E-01            NaN
         13   -1    0    0    0    0  0.00000000000E+00  0.00000000000E+00  0.74505805969E-08  0.10566000000E+00  0.10566000000E+00 0.  1.
     999900   -1    0    0    0    0 -0.00000000000E+00 -0.00000000000E+00 -0.74505805969E-08  0.93827000000E+00  0.93827000000E+00 0.  1.
     999902    2    1    2    0    0  0.27681082107E-02 -0.33563443874E-02  0.23517189770E-01  0.10200137778E+01  0.10197333579E+01 0.  0.
     999903    2    3    3    0    0 -0.11543277986E+00 -0.54939570811E-01 -0.12609846982E-01  0.12988039340E+00  0.19152682375E-01 0.  0.
         14    1    1    2    0    0 -0.27681082107E-02  0.33563443874E-02 -0.23517189770E-01  0.23916222223E-01  0.00000000000E+00 0. -1.
     999901    1    3    3    0    0  0.11820088807E+00  0.51583226424E-01  0.36127036752E-01  0.89013338437E+00  0.88000000000E+00 0. -1.
        -11    1    4    4    0    0 -0.22205603230E-01 -0.10126310061E-01 -0.10078451657E-01  0.26409605811E-01  0.51100000000E-03 0. -1.
         11    1    4    4    0    0 -0.93227176633E-01 -0.44813260750E-01 -0.25313953249E-02  0.10347078759E+00  0.51100000000E-03 0.  1.
</event>
<event>
 8    1  0.1090774E+005  0.1043930E+01  0.7957747E-01            NaN
         13   -1    0    0    0    0  0.00000000000E+00  0.00000000000E+00  0.74505805969E-08  0.10566000000E+00  0.10566000000E+00 0. -1.
     999900   -1    0    0    0    0 -0.00000000000E+00 -0.00000000000E+00 -0.74505805969E-08  0.93827000000E+00  0.93827000000E+00 0. -1.
     999902    2    1    2    0    0 -0.80126906753E-02  0.38382216949E-02 -0.20505435799E-01  0.10215825604E+01  0.10213381026E+01 0.  0.
     999903    2    3    3    0    0  0.10758196699E+00  0.48271964028E-01 -0.56991611488E-01  0.13216268021E+00  0.17744523846E-01 0.  0.
         14    1    1    2    0    0  0.80126906753E-02 -0.38382216949E-02  0.20505435799E-01  0.22347439561E-01  0.00000000000E+00 0. -1.
     999901    1    3    3    0    0 -0.11559465767E+00 -0.44433742333E-01  0.36486175689E-01  0.88941988023E+00  0.88000000000E+00 0.  1.
        -11    1    4    4    0    0  0.90714361403E-01  0.35015713810E-01 -0.41651702120E-01  0.10578431353E+00  0.51100000000E-03 0. -1.
         11    1    4    4    0    0  0.16867605587E-01  0.13256250218E-01 -0.15339909368E-01  0.26378366676E-01  0.51100000000E-03 0.  1.
</event>
<event>
 8    1  0.1090774E+005  0.1043930E+01  0.7957747E-01            NaN
         13   -1    0    0    0    0  0.00000000000E+00  0.00000000000E+00  0.74505805969E-08  0.10566000000E+00  0.10566000000E+00 0. -1.
     999900   -1    0    0    0    0 -0.00000000000E+00 -0.00000000000E+00 -0.74505805969E-08  0.93827000000E+00  0.93827000000E+00 0.  1.
     999902    2    1    2    0    0  0.86812432642E-02 -0.16720386743E-01  0.14243899966E-01  0.10203117019E+01  0.10200383057E+01 0.  0.
     999903    2    3    3    0    0 -0.22542612012E-01 -0.12895667746E+00  0.11011057840E-01  0.13262799398E+00  0.18191959038E-01 0.  0.
         14    1    1    2    0    0 -0.86812432642E-02  0.16720386743E-01 -0.14243899966E-01  0.23618298070E-01  0.00000000000E+00 0. -1.
     999901    1    3    3    0    0  0.31223855276E-01  0.11223629072E+00  0.32328421262E-02  0.88768370795E+00  0.88000000000E+00 0.  1.
        -11    1    4    4    0    0 -0.89947199412E-02 -0.93507578012E-01  0.11715250928E-01  0.94668264787E-01  0.51100000000E-03 0.  1.
         11    1    4    4    0    0 -0.13547892071E-01 -0.35449099451E-01 -0.70419308773E-03  0.37959729192E-01  0.51100000000E-03 0. -1.
</event>
<event>
 8    1  0.1090774E+005  0.1043930E+01  0.7957747E-01            NaN
         13   -1    0    0    0    0  0.00000000000E+00  0.00000000000E+00  0.74505805969E-08  0.10566000000E+00  0.10566000000E+00 0. -1.
     999900   -1    0    0    0    0 -0.00000000000E+00 -0.00000000000E+00 -0.74505805969E-08  0.93827000000E+00  0.93827000000E+00 0.  1.
     999902    2    1    2    0    0 -0.19383318313E-01  0.37749888724E-02  0.12920220995E-01  0.10203313627E+01  0.10200584268E+01 0.  0.
     999903    2    3    3    0    0 -0.12788186872E+00 -0.64185815311E-02  0.32007146621E-01  0.13340399534E+00  0.19421585987E-01 0.  0.
         14    1    1    2    0    0  0.19383318313E-01 -0.37749888724E-02 -0.12920220995E-01  0.23598637257E-01  0.00000000000E+00 0. -1.
     999901    1    3    3    0    0  0.10849855040E+00  0.10193570403E-01 -0.19086925626E-01  0.88692736740E+00  0.88000000000E+00 0.  1.
        -11    1    4    4    0    0 -0.62898869179E-01 -0.11392756097E-01  0.21139382379E-01  0.67329022300E-01  0.51100000000E-03 0. -1.
         11    1    4    4    0    0 -0.64982999539E-01  0.49741745657E-02  0.10867764242E-01  0.66074973041E-01  0.51100000000E-03 0.  1.
</event>
<event>
 8    1  0.1090774E+005  0.1043930E+01  0.7957747E-01            NaN
         13   -1    0    0    0    0  0.00000000000E+00  0.00000000000E+00  0.74505805969E-08  0.10566000000E+00  0.10566000000E+00 0.  1.
     999900   -1    0    0    0    0 -0.00000000000E+00 -0.00000000000E+00 -0.74505805969E-08  0.93827000000E+00  0.93827000000E+00 0. -1.
     999902    2    1    2    0    0  0.18249717576E-01 -0.56865044139E-02  0.14089487444E-01  0.10201833754E+01  0.10199069650E+01 0.  0.
     999903    2    3    3    0    0 -0.63387058192E-01  0.24673509406E-01  0.11040112804E+00  0.13065415962E+00  0.15981212110E-01 0.  0.
         14    1    1    2    0    0 -0.18249717576E-01  0.56865044139E-02 -0.14089487444E-01  0.23746624613E-01  0.00000000000E+00 0. -1.
     999901    1    3    3    0    0  0.81636775769E-01 -0.30360013820E-01 -0.96311640593E-01  0.88952921577E+00  0.88000000000E+00 0. -1.
        -11    1    4    4    0    0 -0.22306147798E-01  0.10926589174E-02  0.31309359748E-01  0.38461607636E-01  0.51100000000E-03 0. -1.
         11    1    4    4    0    0 -0.41080910394E-01  0.23580850489E-01  0.79091768289E-01  0.92192551980E-01  0.51100000000E-03 0.  1.
</event>
<event>
 8    1  0.1090774E+005  0.1043930E+01  0.7957747E-01            NaN
         13   -1    0    0    0    0  0.00000000000E+00  0.00000000000E+00  0.74505805969E-08  0.10566000000E+00  0.10566000000E+00 0.  1.
     999900   -1    0    0    0    0 -0.00000000000E+00 -0.00000000000E+00 -0.74505805969E-08  0.93827000000E+00  0.93827000000E+00 0. -1.
     999902    2    1    2    0    0 -0.18934316194E-01  0.14777977173E-01  0.60684125034E-03  0.10199036562E+01  0.10196206171E+01 0.  0.
     999903    2    3    3    0    0  0.11770550491E+00  0.14472130389E-01  0.44603067909E-01  0.12827245319E+00  0.20009001393E-01 0.  0.
         14    1    1    2    0    0  0.18934316194E-01 -0.14777977173E-01 -0.60684125034E-03  0.24026343778E-01  0.00000000000E+00 0. -1.
     999901    1    3    3    0    0 -0.13663982111E+00  0.30584678382E-03 -0.43996226659E-01  0.89163120303E+00  0.88000000000E+00 0. -1.
        -11    1    4    4    0    0  0.12983957518E-01 -0.21491463759E-02  0.10642875083E-01  0.16933218654E-01  0.51100000000E-03 0.  1.
         11    1    4    4    0    0  0.10472154739E+00  0.16621276765E-01  0.33960192827E-01  0.11133923454E+00  0.51100000000E-03 0. -1.
</event>
<event>
 8    1  0.1090774E+005  0.1043930E+01  0.7957747E-01            NaN
         13   -1    0    0    0    0  0.00000000000E+00  0.00000000000E+00  0.74505805969E-08  0.10566000000E+00  0.10566000000E+00 0.  1.
     999900   -1    0    0    0    0 -0.00000000000E+00 -0.00000000000E+00 -0.74505805969E-08  0.93827000000E+00  0.93827000000E+00 0. -1.
     999902    2    1    2    0    0 -0.23278655567E-01 -0.21614706840E-02  0.66089397739E-04  0.10205511179E+01  0.10202832999E+01 0.  0.
     999903    2    3    3    0    0  0.96428009442E-01 -0.76003262106E-01  0.33209313526E-01  0.12876595929E+00  0.20073786664E-01 0.  0.
         14    1    1    2    0    0  0.23278655567E-01  0.21614706840E-02 -0.66089397739E-04  0.23378882102E-01  0.00000000000E+00 0. -1.
     999901    1    3    3    0    0 -0.11970666501E+00  0.73841791422E-01 -0.33143224128E-01  0.89178515861E+00  0.88000000000E+00 0.  1.
        -11    1    4    4    0    0  0.65872737935E-01 -0.56078004674E-01  0.32077332707E-01  0.92266877079E-01  0.51100000000E-03 0.  1.
         11    1    4    4    0    0  0.30555271508E-01 -0.19925257432E-01  0.11319808188E-02  0.36499082211E-01  0.51100000000E-03 0. -1.
</event>
<event>
 8    1  0.1090774E+005  0.1043930E+01  0.7957747E-01            NaN
         13   -1    0    0    0    0  0.00000000000E+00  0.00000000000E+00  0.74505805969E-08  0.10566000000E+00  0.10566000000E+00 0. -1.
     999900   -1    0    0    0    0 -0.00000000000E+00 -0.00000000000E+00 -0.74505805969E-08  0.93827000000E+00  0.93827000000E+00 0.  1.
     999902    2    1    2    0    0  0.22524931426E-01  0.50411862132E-02 -0.66185396716E-02  0.10199176873E+01  0.10196349826E+01 0.  0.
     999903    2    3    3    0    0  0.98040705035E-01  0.60754940943E-01  0.61448547235E-01  0.13231429453E+00  0.20688303119E-01 0.  0.
         14    1    1    2    0    0 -0.22524931426E-01 -0.50411862132E-02  0.66185396716E-02  0.24012312707E-01  0.00000000000E+00 0.  1.
     999901    1    3    3    0    0 -0.75515773609E-01 -0.55713754730E-01 -0.68067086907E-01  0.88760339277E+00  0.88000000000E+00 0.  1.
        -11    1    4    4    0    0  0.46341996562E-01  0.19483148895E-01  0.34002014167E-01  0.60692436305E-01  0.51100000000E-03 0.  1.
         11    1    4    4    0    0  0.51698708473E-01  0.41271792048E-01  0.27446533069E-01  0.71621858222E-01  0.51100000000E-03 0. -1.
</event>
<event>
 8    1  0.1090774E+005  0.1043930E+01  0.7957747E-01            NaN
         13   -1    0    0    0    0  0.00000000000E+00  0.00000000000E+00  0.74505805969E-08  0.10566000000E+00  0.10566000000E+00 0. -1.
     999900   -1    0    0    0    0 -0.00000000000E+00 -0.00000000000E+00 -0.74505805969E-08  0.93827000000E+00  0.93827000000E+00 0.  1.
     999902    2    1    2    0    0 -0.25573906530E-01 -0.22528140436E-02  0.40628646600E-02  0.10179375639E+01  0.10176056590E+01 0.  0.
     999903    2    3    3    0    0  0.39498246906E-01 -0.11722140729E+00  0.25858007411E-01  0.12780993773E+00  0.19125213698E-01 0.  0.
         14    1    1    2    0    0  0.25573906530E-01  0.22528140436E-02 -0.40628646600E-02  0.25992436122E-01  0.00000000000E+00 0. -1.
     999901    1    3    3    0    0 -0.65072153436E-01  0.11496859325E+00 -0.21795142751E-01  0.89012762615E+00  0.88000000000E+00 0. -1.
        -11    1    4    4    0    0  0.19497031774E-01 -0.30773305565E-01  0.74089342571E-02  0.37179080290E-01  0.51100000000E-03 0. -1.
         11    1    4    4    0    0  0.20001215132E-01 -0.86448101726E-01  0.18449073154E-01  0.90630857439E-01  0.51100000000E-03 0.  1.
</event>
<event>
 8    1  0.1090774E+005  0.1043930E+01  0.7957747E-01            NaN
         13   -1    0    0    0    0  0.00000000000E+00  0.00000000000E+00  0.74505805969E-08  0.10566000000E+00  0.10566000000E+00 0. -1.
     999900   -1    0    0    0    0 -0.00000000000E+00 -0.00000000000E+00 -0.74505805969E-08  0.93827000000E+00  0.93827000000E+00 0. -1.
     999902    2    1    2    0    0  0.10407202993E-01  0.22296635881E-01 -0.14393339448E-02  0.10192820482E+01  0.10189839902E+01 0.  0.
     999903    2    3    3    0    0  0.50090520518E-02 -0.13738888849E-01  0.12680187159E+00  0.12924075372E+00  0.20263516831E-01 0.  0.
         14    1    1    2    0    0 -0.10407202993E-01 -0.22296635881E-01  0.14393339448E-02  0.24647951800E-01  0.00000000000E+00 0.  1.
     999901    1    3    3    0    0  0.53981509412E-02  0.36035524730E-01 -0.12824120554E+00  0.89004129448E+00  0.88000000000E+00 0. -1.
        -11    1    4    4    0    0 -0.89044142046E-03 -0.17267809646E-01  0.74232961681E-01  0.76221806964E-01  0.51100000000E-03 0. -1.
         11    1    4    4    0    0  0.58994934722E-02  0.35289207969E-02  0.52568909911E-01  0.53018946759E-01  0.51100000000E-03 0.  1.
</event>
<event>
 8    1  0.1090774E+005  0.1043930E+01  0.7957747E-01            NaN
         13   -1    0    0    0    0  0.00000000000E+00  0.00000000000E+00  0.74505805969E-08  0.10566000000E+00  0.10566000000E+00 0.  1.
     999900   -1    0    0    0    0 -0.00000000000E+00 -0.00000000000E+00 -0.74505805969E-08  0.93827000000E+00  0.93827000000E+00 0. -1.
     999902    2    1    2    0    0  0.45919187982E-02  0.18658058736E-01 -0.13124753595E-01  0.10206605344E+01  0.10203952462E+01 0.  0.
     999903    2    3    3    0    0 -0.97417647954E-01  0.31790237304E-01  0.77470942504E-01  0.13005063886E+00  0.20263376175E-01 0.  0.
         14    1    1    2    0    0 -0.45919187982E-02 -0.18658058736E-01  0.13124753595E-01  0.23269465636E-01  0.00000000000E+00 0.  1.
     999901    1    3    3    0    0  0.10200956675E+00 -0.13132178568E-01 -0.90595696099E-01  0.89060989551E+00  0.88000000000E+00 0. -1.
        -11    1    4    4    0    0 -0.48334779098E-01  0.24416346019E-01  0.33068649286E-01  0.63452387741E-01  0.51100000000E-03 0. -1.
         11    1    4    4    0    0 -0.49082868856E-01  0.73738912852E-02  0.44402293218E-01  0.66598251117E-01  0.51100000000E-03 0.  1.
</event>
<event>
 8    1  0.1090774E+005  0.1043930E+01  0.7957747E-01            NaN
         13   -1    0    0    0    0  0.00000000000E+00  0.00000000000E+00  0.74505805969E-08  0.10566000000E+00  0.10566000000E+00 0. -1.
     999900   -1    0    0    0    0 -0.00000000000E+00 -0.00000000000E+00 -0.74505805969E-08  0.93827000000E+00  0.93827000000E+00 0.  1.
     999902    2    1    2    0    0  0.10231114956E-01 -0.93698803057E-02 -0.16123226508E-01  0.10226596262E+01  0.10224384002E+01 0.  0.
     999903    2    3    3    0    0 -0.68392754635E-02 -0.11784986719E+00 -0.61655365321E-01  0.13466611186E+00  0.19955217969E-01 0.  0.
         14    1    1    2    0    0 -0.10231114956E-01  0.93698803057E-02  0.16123226508E-01  0.21270373838E-01  0.00000000000E+00 0. -1.
     999901    1    3    3    0    0  0.17070390419E-01  0.10847998688E+00  0.45532138813E-01  0.88799351431E+00  0.88000000000E+00 0. -1.
        -11    1    4    4    0    0  0.22827011726E-02 -0.78339940525E-01 -0.47854436125E-01  0.91829544177E-01  0.51100000000E-03 0.  1.
         11    1    4    4    0    0 -0.91219766361E-02 -0.39509926666E-01 -0.13800929196E-01  0.42836567679E-01  0.51100000000E-03 0. -1.
</event>
<event>
 8    1  0.1090774E+005  0.1043930E+01  0.7957747E-01            NaN
         13   -1    0    0    0    0  0.00000000000E+00  0.00000000000E+00  0.74505805969E-08  0.10566000000E+00  0.10566000000E+00 0. -1.
     999900   -1    0    0    0    0 -0.00000000000E+00 -0.00000000000E+00 -0.74505805969E-08  0.93827000000E+00  0.93827000000E+00 0. -1.
     999902    2    1    2    0    0 -0.37230402066E-02 -0.13952482013E-02 -0.23001909937E-01  0.10205870009E+01  0.10203200139E+01 0.  0.
     999903    2    3    3    0    0 -0.32711821835E-01  0.12466292404E+00  0.58453202075E-02  0.13066387224E+00  0.20687479849E-01 0.  0.
         14    1    1    2    0    0  0.37230402066E-02  0.13952482013E-02  0.23001909937E-01  0.23342999093E-01  0.00000000000E+00 0. -1.
     999901    1    3    3    0    0  0.28988781628E-01 -0.12605817224E+00 -0.28847230144E-01  0.88992312867E+00  0.88000000000E+00 0.  1.
        -11    1    4    4    0    0 -0.64331708436E-02  0.52000629689E-01 -0.49958202698E-02  0.52637159083E-01  0.51100000000E-03 0.  1.
         11    1    4    4    0    0 -0.26278650991E-01  0.72662294351E-01  0.10841140477E-01  0.78026713157E-01  0.51100000000E-03 0. -1.
</event>
<event>
 8    1  0.1090774E+005  0.1043930E+01  0.7957747E-01            NaN
         13   -1    0    0    0    0  0.00000000000E+00  0.00000000000E+00  0.74505805969E-08  0.10566000000E+00  0.10566000000E+00 0.  1.
     999900   -1    0    0    0    0 -0.00000000000E+00 -0.00000000000E+00 -0.74505805969E-08  0.93827000000E+00  0.93827000000E+00 0.  1.
     999902    2    1    2    0    0  0.49472390962E-02  0.67206146609E-02 -0.22268702942E-01  0.10201489789E+01  0.10198717577E+01 0.  0.
     999903    2    3    3    0    0  0.45427916262E-01 -0.18283666018E-02  0.11804781988E+00  0.12807247043E+00  0.20005784239E-01 0.  0.
         14    1    1    2    0    0 -0.49472390962E-02 -0.67206146609E-02  0.22268702942E-01  0.23781021147E-01  0.00000000000E+00 0.  1.
     999901    1    3    3    0    0 -0.40480677166E-01  0.85489812627E-02 -0.14031652282E+00  0.89207650842E+00  0.88000000000E+00 0.  1.
        -11    1    4    4    0    0  0.21427216587E-01 -0.50491064133E-02  0.33227342817E-01  0.39861466580E-01  0.51100000000E-03 0.  1.
         11    1    4    4    0    0  0.24000699675E-01  0.32207398115E-02  0.84820477063E-01  0.88211003849E-01  0.51100000000E-03 0. -1.
</event>
<event>
 8    1  0.1090774E+005  0.1043930E+01  0.7957747E-01            NaN
         13   -1    0    0    0    0  0.00000000000E+00  0.00000000000E+00  0.74505805969E-08  0.10566000000E+00  0.10566000000E+00 0. -1.
     999900   -1    0    0    0    0 -0.00000000000E+00 -0.00000000000E+00 -0.74505805969E-08  0.93827000000E+00  0.93827000000E+00 0.  1.
     999902    2    1    2    0    0 -0.38913477721E-02  0.12060128069E-01  0.18808041273E-01  0.10212511179E+01  0.10209992723E+01 0.  0.
     999903    2    3    3    0    0 -0.79491021100E-01 -0.35959824389E-01  0.98436486858E-01  0.13312842605E+00  0.20530574082E-01 0.  0.
         14    1    1    2    0    0  0.38913477721E-02 -0.12060128069E-01 -0.18808041273E-01  0.22678882094E-01  0.00000000000E+00 0.  1.
     999901    1    3    3    0    0  0.75599673328E-01  0.48019952458E-01 -0.79628445585E-01  0.88812269185E+00  0.88000000000E+00 0. -1.
        -11    1    4    4    0    0 -0.30781349145E-01 -0.25100301506E-01  0.43691095670E-01  0.59048196863E-01  0.51100000000E-03 0. -1.
         11    1    4    4    0    0 -0.48709671955E-01 -0.10859522883E-01  0.54745391189E-01  0.74080229188E-01  0.51100000000E-03 0.  1.
</event>
<event>
 8    1  0.1090774E+005  0.1043930E+01  0.7957747E-01            NaN
         13   -1    0    0    0    0  0.00000000000E+00  0.00000000000E+00  0.74505805969E-08  0.10566000000E+00  0.10566000000E+00 0. -1.
     999900   -1    0    0    0    0 -0.00000000000E+00 -0.00000000000E+00 -0.74505805969E-08  0.93827000000E+00  0.93827000000E+00 0.  1.
     999902    2    1    2    0    0 -0.11016236064E-01  0.34693681114E-02 -0.19835862094E-01  0.10209766691E+01  0.10207186211E+01 0.  0.
     999903    2    3    3    0    0  0.10733690908E-02 -0.11294566403E+00  0.60375390848E-01  0.12961116423E+00  0.19899520827E-01 0.  0.
         14    1    1    2    0    0  0.11016236064E-01 -0.34693681114E-02  0.19835862094E-01  0.22953330851E-01  0.00000000000E+00 0. -1.
     999901    1    3    3    0    0 -0.12089605155E-01  0.11641503214E+00 -0.80211252943E-01  0.89136550492E+00  0.88000000000E+00 0. -1.
        -11    1    4    4    0    0 -0.28131772696E-03 -0.76414393331E-01  0.30056151208E-01  0.82114992506E-01  0.51100000000E-03 0.  1.
         11    1    4    4    0    0  0.13546868177E-02 -0.36531270697E-01  0.30319239640E-01  0.47496171724E-01  0.51100000000E-03 0. -1.
</event>
<event>
 8    1  0.1090774E+005  0.1043930E+01  0.7957747E-01            NaN
         13   -1    0    0    0    0  0.00000000000E+00  0.00000000000E+00  0.74505805969E-08  0.10566000000E+00  0.10566000000E+00 0.  1.
     999900   -1    0    0    0    0 -0.00000000000E+00 -0.00000000000E+00 -0.74505805969E-08  0.93827000000E+00  0.93827000000E+00 0.  1.
     999902    2    1    2    0    0  0.18431059179E-01 -0.12532028317E-01  0.79414158955E-02  0.10202694471E+01  0.10199950603E+01 0.  0.
     999903    2    3    3    0    0 -0.10892877382E+00  0.47533975612E-01 -0.42134405808E-01  0.12766873022E+00  0.19975983603E-01 0.  0.
         14    1    1    2    0    0 -0.18431059179E-01  0.12532028317E-01 -0.79414158955E-02  0.23660552881E-01  0.00000000000E+00 0. -1.
     999901    1    3    3    0    0  0.12735983299E+00 -0.60066003929E-01  0.50075821703E-01  0.89260071690E+00  0.88000000000E+00 0.  1.
        -11    1    4    4    0    0 -0.54743706805E-01  0.33868350311E-01 -0.18400310323E-01  0.66953499748E-01  0.51100000000E-03 0.  1.
         11    1    4    4    0    0 -0.54185067011E-01  0.13665625300E-01 -0.23734095485E-01  0.60715230472E-01  0.51100000000E-03 0. -1.
</event>
<event>
 8    1  0.1090774E+005  0.1043930E+01  0.7957747E-01            NaN
         13   -1    0    0    0    0  0.00000000000E+00  0.00000000000E+00  0.74505805969E-08  0.10566000000E+00  0.10566000000E+00 0.  1.
     999900   -1    0    0    0    0 -0.00000000000E+00 -0.00000000000E+00 -0.74505805969E-08  0.93827000000E+00  0.93827000000E+00 0. -1.
     999902    2    1    2    0    0  0.84804458664E-02 -0.11238603492E-01 -0.19454606256E-01  0.10199152988E+01  0.10196325371E+01 0.  0.
     999903    2    3    3    0    0 -0.95926955800E-01  0.45538850226E-01  0.67983615264E-01  0.12763169623E+00  0.19806822318E-01 0.  0.
         14    1    1    2    0    0 -0.84804458664E-02  0.11238603492E-01  0.19454606256E-01  0.24014701228E-01  0.00000000000E+00 0.  1.
     999901    1    3    3    0    0  0.10440740167E+00 -0.56777453718E-01 -0.87438221520E-01  0.89228360254E+00  0.88000000000E+00 0. -1.
        -11    1    4    4    0    0 -0.70094513204E-01  0.39309226619E-01  0.42962076552E-01  0.91128794688E-01  0.51100000000E-03 0. -1.
         11    1    4    4    0    0 -0.25832442596E-01  0.62296236073E-02  0.25021538712E-01  0.36502901546E-01  0.51100000000E-03 0.  1.
</event>
<event>
 8    1  0.1090774E+005  0.1043930E+01  0.7957747E-01            NaN
         13   -1    0    0    0    0  0.00000000000E+00  0.00000000000E+00  0.74505805969E-08  0.10566000000E+00  0.10566000000E+00 0. -1.
     999900   -1    0    0    0    0 -0.00000000000E+00 -0.00000000000E+00 -0.74505805969E-08  0.93827000000E+00  0.93827000000E+00 0. -1.
     999902    2    1    2    0    0  0.97337583656E-02  0.31100440835E-02 -0.29774465082E-01  0.10124508450E+01  0.10119613513E+01 0.  0.
     999903    2    3    3    0    0  0.10031760220E+00 -0.70391202467E-01 -0.10592141133E-01  0.12454554178E+00  0.19515527840E-01 0.  0.
         14    1    1    2    0    0 -0.97337583656E-02 -0.31100440835E-02  0.29774465082E-01  0.31479154961E-01  0.00000000000E+00 0. -1.
     999901    1    3    3    0    0 -0.90583843835E-01  0.73501246550E-01 -0.19182323949E-01  0.88790530326E+00  0.88000000000E+00 0. -1.
        -11    1    4    4    0    0  0.83014282108E-01 -0.51727670250E-01 -0.14189610820E-01  0.98836881171E-01  0.51100000000E-03 0. -1.
         11    1    4    4    0    0  0.17303320093E-01 -0.18663532217E-01  0.35974696873E-02  0.25708660607E-01  0.51100000000E-03 0.  1.
</event>
<event>
 8    1  0.1090774E+005  0.1043930E+01  0.7957747E-01            NaN
         13   -1    0    0    0    0  0.00000000000E+00  0.00000000000E+00  0.74505805969E-08  0.10566000000E+00  0.10566000000E+00 0.  1.
     999900   -1    0    0    0    0 -0.00000000000E+00 -0.00000000000E+00 -0.74505805969E-08  0.93827000000E+00  0.93827000000E+00 0. -1.
     999902    2    1    2    0    0 -0.35077811139E-03  0.69702744850E-02 -0.19960083689E-01  0.10227849601E+01  0.10225663606E+01 0.  0.
     999903    2    3    3    0    0  0.57885075772E-01  0.66973931910E-01  0.95089136361E-01  0.13136576767E+00  0.19463594485E-01 0.  0.
         14    1    1    2    0    0  0.35077811139E-03 -0.69702744850E-02  0.19960083689E-01  0.21145039904E-01  0.00000000000E+00 0.  1.
     999901    1    3    3    0    0 -0.58235853883E-01 -0.60003657425E-01 -0.11504922005E+00  0.89141919242E+00  0.88000000000E+00 0. -1.
        -11    1    4    4    0    0  0.37469471393E-01  0.55079262747E-01  0.75323403081E-01  0.10055626606E+00  0.51100000000E-03 0.  1.
         11    1    4    4    0    0  0.20415604379E-01  0.11894669163E-01  0.19765733280E-01  0.30809501614E-01  0.51100000000E-03 0. -1.
</event>
<event>
 8    1  0.1090774E+005  0.1043930E+01  0.7957747E-01            NaN
         13   -1    0    0    0    0  0.00000000000E+00  0.00000000000E+00  0.74505805969E-08  0.10566000000E+00  0.10566000000E+00 0.  1.
     999900   -1    0    0    0    0 -0.00000000000E+00 -0.00000000000E+00 -0.74505805969E-08  0.93827000000E+00  0.93827000000E+00 0. -1.
     999902    2    1    2    0    0 -0.93679111697E-02  0.67483746140E-02 -0.23292319245E-01  0.10179332607E+01  0.10176012445E+01 0.  0.
     999903    2    3    3    0    0  0.11157722378E+00  0.55327604759E-01 -0.23274477074E-01  0.12833353744E+00  0.20424858217E-01 0.  0.
         14    1    1    2    0    0  0.93679111697E-02 -0.67483746140E-02  0.23292319245E-01  0.25996739323E-01  0.00000000000E+00 0.  1.
     999901    1    3    3    0    0 -0.12094513495E+00 -0.48579230145E-01 -0.17842170431E-04  0.88959972324E+00  0.88000000000E+00 0. -1.
        -11    1    4    4    0    0  0.95128665229E-01  0.50830318354E-01 -0.13575929970E-01  0.10870948076E+00  0.51100000000E-03 0.  1.
         11    1    4    4    0    0  0.16448558552E-01  0.44972864053E-02 -0.96985471041E-02  0.19624056675E-01  0.51100000000E-03 0. -1.
</event>
<event>
 8    1  0.1090774E+005  0.1043930E+01  0.7957747E-01            NaN
         13   -1    0    0    0    0  0.00000000000E+00  0.00000000000E+00  0.74505805969E-08  0.10566000000E+00  0.10566000000E+00 0. -1.
     999900   -1    0    0    0    0 -0.00000000000E+00 -0.00000000000E+00 -0.74505805969E-08  0.93827000000E+00  0.93827000000E+00 0. -1.
     999902    2    1    2    0    0  0.72513786387E-02 -0.22283899612E-01 -0.24095374805E-02  0.10203723994E+01  0.10201004230E+01 0.  0.
     999903    2    3    3    0    0  0.12997588887E+00 -0.45097066191E-02 -0.44941461853E-02  0.13167584101E+00  0.20106233194E-01 0.  0.
         14    1    1    2    0    0 -0.72513786387E-02  0.22283899612E-01  0.24095374805E-02  0.23557600577E-01  0.00000000000E+00 0. -1.
     999901    1    3    3    0    0 -0.12272451023E+00 -0.17774192993E-01  0.20846087049E-02  0.88869655842E+00  0.88000000000E+00 0. -1.
        -11    1    4    4    0    0  0.99973155977E-01  0.14284670945E-02  0.35470523606E-02  0.10004756437E+00  0.51100000000E-03 0.  1.
         11    1    4    4    0    0  0.30002732894E-01 -0.59381737136E-02 -0.80411985459E-02  0.31628276640E-01  0.51100000000E-03 0. -1.
</event>
<event>
 8    1  0.1090774E+005  0.1043930E+01  0.7957747E-01            NaN
         13   -1    0    0    0    0  0.00000000000E+00  0.00000000000E+00  0.74505805969E-08  0.10566000000E+00  0.10566000000E+00 0. -1.
     999900   -1    0    0    0    0 -0.00000000000E+00 -0.00000000000E+00 -0.74505805969E-08  0.93827000000E+00  0.93827000000E+00 0.  1.
     999902    2    1    2    0    0 -0.16815054356E-01  0.14030795331E-01 -0.12163333412E-01  0.10188789332E+01  0.10185709226E+01 0.  0.
     999903    2    3    3    0    0  0.53280462510E-01 -0.10797476316E+00  0.33594982598E-01  0.12652667016E+00  0.19570851823E-01 0.  0.
         14    1    1    2    0    0  0.16815054356E-01 -0.14030795331E-01  0.12163333412E-01  0.25051066849E-01  0.00000000000E+00 0. -1.
     999901    1    3    3    0    0 -0.70095516866E-01  0.12200555849E+00 -0.45758316010E-01  0.89235226299E+00  0.88000000000E+00 0. -1.
        -11    1    4    4    0    0  0.34099360179E-01 -0.47157908752E-01  0.17057281191E-01  0.60645252783E-01  0.51100000000E-03 0. -1.
         11    1    4    4    0    0  0.19181102331E-01 -0.60816854404E-01  0.16537701407E-01  0.65881417373E-01  0.51100000000E-03 0.  1.
</event>
<event>
 8    1  0.1090774E+005  0.1043930E+01  0.7957747E-01            NaN
         13   -1    0    0    0    0  0.00000000000E+00  0.00000000000E+00  0.74505805969E-08  0.10566000000E+00  0.10566000000E+00 0. -1.
     999900   -1    0    0    0    0 -0.00000000000E+00 -0.00000000000E+00 -0.74505805969E-08  0.93827000000E+00  0.93827000000E+00 0.  1.
     999902    2    1    2    0    0  0.17593988358E-01  0.16065404622E-01 -0.13882534318E-02  0.10200642735E+01  0.10197850505E+01 0.  0.
     999903    2    3    3    0    0 -0.51684059937E-01 -0.87830238558E-01  0.74768065408E-01  0.12799166576E+00  0.20154653119E-01 0.  0.
         14    1    1    2    0    0 -0.17593988358E-01 -0.16065404622E-01  0.13882534318E-02  0.23865726462E-01  0.00000000000E+00 0. -1.
     999901    1    3    3    0    0  0.69278048295E-01  0.10389564318E+00 -0.76156318840E-01  0.89207260778E+00  0.88000000000E+00 0. -1.
        -11    1    4    4    0    0 -0.22274057937E-01 -0.47065327210E-01  0.27042894478E-01  0.58675871916E-01  0.51100000000E-03 0. -1.
         11    1    4    4    0    0 -0.29410002001E-01 -0.40764911348E-01  0.47725170931E-01  0.69315793844E-01  0.51100000000E-03 0.  1.
</event>
<event>
 8    1  0.1090774E+005  0.1043930E+01  0.7957747E-01            NaN
         13   -1    0    0    0    0  0.00000000000E+00  0.00000000000E+00  0.74505805969E-08  0.10566000000E+00  0.10566000000E+00 0.  1.
     999900   -1    0    0    0    0 -0.00000000000E+00 -0.00000000000E+00 -0.74505805969E-08  0.93827000000E+00  0.93827000000E+00 0. -1.
     999902    2    1    2    0    0 -0.13556794291E-01 -0.14177745808E-01  0.14600026732E-01  0.10194768626E+01  0.10191835544E+01 0.  0.
     999903    2    3    3    0    0 -0.83868160281E-01  0.52830495806E-01 -0.80187719936E-01  0.12907329706E+00  0.20122524411E-01 0.  0.
         14    1    1    2    0    0  0.13556794291E-01  0.14177745808E-01 -0.14600026732E-01  0.24453137390E-01  0.00000000000E+00 0. -1.
     999901    1    3    3    0    0  0.70311365989E-01 -0.67008241614E-01  0.94787746667E-01  0.89040356555E+00  0.88000000000E+00 0.  1.
        -11    1    4    4    0    0 -0.19108631859E-01  0.41380446376E-02 -0.21247190059E-01  0.28878494270E-01  0.51100000000E-03 0.  1.
         11    1    4    4    0    0 -0.64759528422E-01  0.48692451169E-01 -0.58940529877E-01  0.10019480279E+00  0.51100000000E-03 0. -1.
</event>
<event>
 8    1  0.1090774E+005  0.1043930E+01  0.7957747E-01            NaN
         13   -1    0    0    0    0  0.00000000000E+00  0.00000000000E+00  0.74505805969E-08  0.10566000000E+00  0.10566000000E+00 0.  1.
     999900   -1    0    0    0    0 -0.00000000000E+00 -0.00000000000E+00 -0.74505805969E-08  0.93827000000E+00  0.93827000000E+00 0.  1.
     999902    2    1    2    0    0  0.69574444523E-02  0.17566331037E-01 -0.14759171404E-01  0.10199546969E+01  0.10196728733E+01 0.  0.
     999903    2    3    3    0    0 -0.10460266123E+00  0.67760380163E-01  0.31743944527E-01  0.13027630580E+00  0.20761791406E-01 0.  0.
         14    1    1    2    0    0 -0.69574444523E-02 -0.17566331037E-01  0.14759171404E-01  0.23975303125E-01  0.00000000000E+00 0.  1.
     999901    1    3    3    0    0  0.11156010569E+00 -0.50194049126E-01 -0.46503115931E-01  0.88967839107E+00  0.88000000000E+00 0.  1.
        -11    1    4    4    0    0 -0.87968741537E-01  0.51304978881E-01  0.32387105372E-01  0.10686386696E+00  0.51100000000E-03 0.  1.
         11    1    4    4    0    0 -0.16633919698E-01  0.16455401282E-01 -0.64316084530E-03  0.23412438846E-01  0.51100000000E-03 0. -1.
</event>
<event>
 8    1  0.1090774E+005  0.1043930E+01  0.7957747E-01            NaN
         13   -1    0    0    0    0  0.00000000000E+00  0.00000000000E+00  0.74505805969E-08  0.10566000000E+00  0.10566000000E+00 0.  1.
     999900   -1    0    0    0    0 -0.00000000000E+00 -0.00000000000E+00 -0.74505805969E-08  0.93827000000E+00  0.93827000000E+00 0. -1.
     999902    2    1    2    0    0  0.47728087688E-02 -0.15205298587E-01  0.44088629678E-02  0.10273946173E+01  0.10272615445E+01 0.  0.
     999903    2    3    3    0    0  0.98877517362E-01 -0.95307315308E-01 -0.74769985640E-03  0.13874473156E+00  0.19730526877E-01 0.  0.
         14    1    1    2    0    0 -0.47728087688E-02  0.15205298587E-01 -0.44088629678E-02  0.16535382709E-01  0.00000000000E+00 0.  1.
     999901    1    3    3    0    0 -0.94104708593E-01  0.80102016722E-01  0.51565628242E-02  0.88864988573E+00  0.88000000000E+00 0.  1.
        -11    1    4    4    0    0  0.23920247499E-01 -0.34294520537E-01 -0.42439650940E-02  0.42030521529E-01  0.51100000000E-03 0.  1.
         11    1    4    4    0    0  0.74957269863E-01 -0.61012794771E-01  0.34962652376E-02  0.96714210035E-01  0.51100000000E-03 0. -1.
</event>
<event>
 8    1  0.1090774E+005  0.1043930E+01  0.7957747E-01            NaN
         13   -1    0    0    0    0  0.00000000000E+00  0.00000000000E+00  0.74505805969E-08  0.10566000000E+00  0.10566000000E+00 0. -1.
     999900   -1    0    0    0    0 -0.00000000000E+00 -0.00000000000E+00 -0.74505805969E-08  0.93827000000E+00  0.93827000000E+00 0.  1.
     999902    2    1    2    0    0 -0.12291487158E-01 -0.41739899360E-02 -0.19889707072E-01  0.10201791412E+01  0.10199026310E+01 0.  0.
     999903    2    3    3    0    0  0.11038939097E+00  0.58298376383E-01  0.22767468226E-01  0.12845439157E+00  0.19941283230E-01 0.  0.
         14    1    1    2    0    0  0.12291487158E-01  0.41739899360E-02  0.19889707072E-01  0.23750858847E-01  0.00000000000E+00 0. -1.
     999901    1    3    3    0    0 -0.12268087813E+00 -0.62472366319E-01 -0.42657175297E-01  0.89172474958E+00  0.88000000000E+00 0.  1.
        -11    1    4    4    0    0  0.56890785794E-01  0.31927077293E-01  0.19158318736E-02  0.65267383168E-01  0.51100000000E-03 0. -1.
         11    1    4    4    0    0  0.53498605177E-01  0.26371299090E-01  0.20851636352E-01  0.63187008404E-01  0.51100000000E-03 0.  1.
</event>
<event>
 8    1  0.1090774E+005  0.1043930E+01  0.7957747E-01            NaN
         13   -1    0    0    0    0  0.00000000000E+00  0.00000000000E+00  0.74505805969E-08  0.10566000000E+00  0.10566000000E+00 0. -1.
     999900   -1    0    0    0    0 -0.00000000000E+00 -0.00000000000E+00 -0.74505805969E-08  0.93827000000E+00  0.93827000000E+00 0. -1.
     999902    2    1    2    0    0 -0.18511112142E-02  0.19976061209E-01  0.13826060597E-01  0.10195654851E+01  0.10192743246E+01 0.  0.
     999903    2    3    3    0    0 -0.75897732182E-01  0.79274070851E-01 -0.68168563095E-01  0.13067726135E+00  0.19615034541E-01 0.  0.
         14    1    1    2    0    0  0.18511112142E-02 -0.19976061209E-01 -0.13826060597E-01  0.24364514889E-01  0.00000000000E+00 0.  1.
     999901    1    3    3    0    0  0.74046620968E-01 -0.59298009642E-01  0.81994623693E-01  0.88888822376E+00  0.88000000000E+00 0.  1.
        -11    1    4    4    0    0 -0.37847209882E-01  0.53422921910E-01 -0.40945489569E-01  0.77221850006E-01  0.51100000000E-03 0.  1.
         11    1    4    4    0    0 -0.38050522300E-01  0.25851148941E-01 -0.27223073526E-01  0.53455411345E-01  0.51100000000E-03 0. -1.
</event>
<event>
 8    1  0.1090774E+005  0.1043930E+01  0.7957747E-01            NaN
         13   -1    0    0    0    0  0.00000000000E+00  0.00000000000E+00  0.74505805969E-08  0.10566000000E+00  0.10566000000E+00 0.  1.
     999900   -1    0    0    0    0 -0.00000000000E+00 -0.00000000000E+00 -0.74505805969E-08  0.93827000000E+00  0.93827000000E+00 0. -1.
     999902    2    1    2    0    0  0.10343957281E-01  0.60182097440E-02 -0.21659419669E-01  0.10191843587E+01  0.10188839043E+01 0.  0.
     999903    2    3    3    0    0 -0.10378676525E+00  0.14838441162E-01  0.69209845122E-01  0.12713007699E+00  0.19498252151E-01 0.  0.
         14    1    1    2    0    0 -0.10343957281E-01 -0.60182097440E-02  0.21659419669E-01  0.24745641256E-01  0.00000000000E+00 0.  1.
     999901    1    3    3    0    0  0.11413072253E+00 -0.88202314181E-02 -0.90869264791E-01  0.89205428175E+00  0.88000000000E+00 0. -1.
        -11    1    4    4    0    0 -0.95148637836E-01  0.93421964905E-02  0.57497022594E-01  0.11156481814E+00  0.51100000000E-03 0. -1.
         11    1    4    4    0    0 -0.86381274145E-02  0.54962446716E-02  0.11712822528E-01  0.15565258857E-01  0.51100000000E-03 0.  1.
</event>
<event>
 8    1  0.1090774E+005  0.1043930E+01  0.7957747E-01            NaN
         13   -1    0    0    0    0  0.00000000000E+00  0.00000000000E+00  0.74505805969E-08  0.10566000000E+00  0.10566000000E+00 0.  1.
     999900   -1    0    0    0    0 -0.00000000000E+00 -0.00000000000E+00 -0.74505805969E-08  0.93827000000E+00  0.93827000000E+00 0.  1.
     999902    2    1    2    0    0 -0.21604146235E-01  0.98676121599E-02  0.13757212409E-02  0.10201392137E+01  0.10198617621E+01 0.  0.
     999903    2    3    3    0    0  0.92022582080E-01  0.24878461344E-01 -0.84437655041E-01  0.12856740249E+00  0.17685189915E-01 0.  0.
         14    1    1    2    0    0  0.21604146235E-01 -0.98676121599E-02 -0.13757212409E-02  0.23790786310E-01  0.00000000000E+00 0. -1.
     999901    1    3    3    0    0 -0.11362672832E+00 -0.15010849184E-01  0.85813376282E-01  0.89157181120E+00  0.88000000000E+00 0. -1.
        -11    1    4    4    0    0  0.72163652960E-01  0.21591052969E-01 -0.56648824951E-01  0.94250288415E-01  0.51100000000E-03 0. -1.
         11    1    4    4    0    0  0.19858929119E-01  0.32874083748E-02 -0.27788830090E-01  0.34317114074E-01  0.51100000000E-03 0.  1.
</event>
<event>
 8    1  0.1090774E+005  0.1043930E+01  0.7957747E-01            NaN
         13   -1    0    0    0    0  0.00000000000E+00  0.00000000000E+00  0.74505805969E-08  0.10566000000E+00  0.10566000000E+00 0.  1.
     999900   -1    0    0    0    0 -0.00000000000E+00 -0.00000000000E+00 -0.74505805969E-08  0.93827000000E+00  0.93827000000E+00 0.  1.
     999902    2    1    2    0    0  0.18847922502E-01 -0.65027869311E-02 -0.98789685135E-02  0.10216786081E+01  0.10214362701E+01 0.  0.
     999903    2    3    3    0    0  0.30358808419E-01 -0.10376333920E+00 -0.76826144570E-01  0.13371800097E+00  0.17022323054E-01 0.  0.
         14    1    1    2    0    0 -0.18847922502E-01  0.65027869311E-02  0.98789685135E-02  0.22251391853E-01  0.00000000000E+00 0.  1.
     999901    1    3    3    0    0 -0.11510885917E-01  0.97260552270E-01  0.66947176056E-01  0.88796060718E+00  0.88000000000E+00 0. -1.
        -11    1    4    4    0    0  0.57452298981E-02 -0.36793244623E-01 -0.34440252295E-01  0.50726153172E-01  0.51100000000E-03 0. -1.
         11    1    4    4    0    0  0.24613578521E-01 -0.66970094578E-01 -0.42385892275E-01  0.82991847795E-01  0.51100000000E-03 0.  1.
</event>
<event>
 8    1  0.1090774E+005  0.1043930E+01  0.7957747E-01            NaN
         13   -1    0    0    0    0  0.00000000000E+00  0.00000000000E+00  0.74505805969E-08  0.10566000000E+00  0.10566000000E+00 0. -1.
     999900   -1    0    0    0    0 -0.00000000000E+00 -0.00000000000E+00 -0.74505805969E-08  0.93827000000E+00  0.93827000000E+00 0. -1.
     999902    2    1    2    0    0  0.12385293352E-02  0.10845751217E-01 -0.21239636289E-01  0.10200493295E+01  0.10197697525E+01 0.  0.
     999903    2    3    3    0    0  0.10245306802E+00  0.61500055267E-01  0.47504179644E-01  0.13014149517E+00  0.20031818107E-01 0.  0.
         14    1    1    2    0    0 -0.12385293352E-02 -0.10845751217E-01  0.21239636289E-01  0.23880670511E-01  0.00000000000E+00 0. -1.
     999901    1    3    3    0    0 -0.10121453868E+00 -0.50654304049E-01 -0.68743815932E-01  0.88990783432E+00  0.88000000000E+00 0.  1.
        -11    1    4    4    0    0  0.88684879551E-01  0.53299176341E-01  0.33231939920E-01  0.10867581613E+00  0.51100000000E-03 0. -1.
         11    1    4    4    0    0  0.13768188467E-01  0.82008789254E-02  0.14272239724E-01  0.21465679037E-01  0.51100000000E-03 0.  1.
</event>
<event>
 8    1  0.1090774E+005  0.1043930E+01  0.7957747E-01            NaN
         13   -1    0    0    0    0  0.00000000000E+00  0.00000000000E+00  0.74505805969E-08  0.10566000000E+00  0.10566000000E+00 0. -1.
     999900   -1    0    0    0    0 -0.00000000000E+00 -0.00000000000E+00 -0.74505805969E-08  0.93827000000E+00  0.93827000000E+00 0. -1.
     999902    2    1    2    0    0 -0.19781461621E-01  0.11879503753E-01 -0.38664799186E-02  0.10205338785E+01  0.10202656608E+01 0.  0.
     999903    2    3    3    0    0  0.53019030506E-01 -0.10958989055E+00 -0.36824953026E-01  0.12860283502E+00  0.19017105578E-01 0.  0.
         14    1    1    2    0    0  0.19781461621E-01 -0.11879503753E-01  0.38664799186E-02  0.23396121479E-01  0.00000000000E+00 0.  1.
     999901    1    3    3    0    0 -0.72800492127E-01  0.12146939430E+00  0.32958473107E-01  0.89193104350E+00  0.88000000000E+00 0.  1.
        -11    1    4    4    0    0  0.49469304086E-01 -0.85775833481E-01 -0.31805884307E-01  0.10400279349E+00  0.51100000000E-03 0.  1.
         11    1    4    4    0    0  0.35497264197E-02 -0.23814057067E-01 -0.50190687189E-02  0.24600041533E-01  0.51100000000E-03 0. -1.
</event>
<event>
 7    1  0.1090774E+005  0.1043930E+01  0.7957747E-01            NaN
         13   -1    0    0    0    0  0.00000000000E+00  0.00000000000E+00  0.74505805969E-08  0.10566000000E+00  0.10566000000E+00 0.  1.
     999900   -1    0    0    0    0 -0.00000000000E+00 -0.00000000000E+00 -0.74505805969E-08  0.93827000000E+00  0.93827000000E+00 0. -1.
     999903    2    1    2    0    0  0.93750083162E-01  0.14242733891E-01  0.20602921102E-01  0.99050081758E-01  0.19862144314E-01 0.  0.
         14    1    1    2    0    0  0.28102802562E-01 -0.39213789383E-01 -0.28623859781E-01  0.56096471711E-01  0.00000000000E+00 0.  1.
     999901    1    1    2    0    0 -0.12185288572E+00  0.24971055493E-01  0.80209386786E-02  0.88878344653E+00  0.88000000000E+00 0. -1.
        -11    1    3    3    0    0  0.61262471050E-01  0.37898918451E-02  0.51929668647E-02  0.61600987534E-01  0.51100000000E-03 0. -1.
         11    1    3    3    0    0  0.32487612112E-01  0.10452842046E-01  0.15409954237E-01  0.37449094224E-01  0.51100000000E-03 0.  1.
</event>
<event>
 8    1  0.1090774E+005  0.1043930E+01  0.7957747E-01            NaN
         13   -1    0    0    0    0  0.00000000000E+00  0.00000000000E+00  0.74505805969E-08  0.10566000000E+00  0.10566000000E+00 0. -1.
     999900   -1    0    0    0    0 -0.00000000000E+00 -0.00000000000E+00 -0.74505805969E-08  0.93827000000E+00  0.93827000000E+00 0.  1.
     999902    2    1    2    0    0 -0.25494933598E-02  0.26722964598E-02  0.23796652468E-01  0.10198484354E+01  0.10195640781E+01 0.  0.
     999903    2    3    3    0    0  0.68847246118E-01 -0.45945179765E-01  0.10128723442E+00  0.13223030597E+00  0.19360968952E-01 0.  0.
         14    1    1    2    0    0  0.25494933598E-02 -0.26722964598E-02 -0.23796652468E-01  0.24081564597E-01  0.00000000000E+00 0.  1.
     999901    1    3    3    0    0 -0.71396739477E-01  0.48617476225E-01 -0.77490581955E-01  0.88761812943E+00  0.88000000000E+00 0.  1.
        -11    1    4    4    0    0  0.17175508787E-01 -0.47049090108E-02  0.30859576663E-01  0.35632974387E-01  0.51100000000E-03 0. -1.
         11    1    4    4    0    0  0.51671737331E-01 -0.41240270755E-01  0.70427657760E-01  0.96597331585E-01  0.51100000000E-03 0.  1.
</event>
<event>
 8    1  0.1090774E+005  0.1043930E+01  0.7957747E-01            NaN
         13   -1    0    0    0    0  0.00000000000E+00  0.00000000000E+00  0.74505805969E-08  0.10566000000E+00  0.10566000000E+00 0.  1.
     999900   -1    0    0    0    0 -0.00000000000E+00 -0.00000000000E+00 -0.74505805969E-08  0.93827000000E+00  0.93827000000E+00 0. -1.
     999902    2    1    2    0    0  0.24449149559E-04 -0.74700223622E-03  0.24191653722E-01  0.10197268035E+01  0.10194395318E+01 0.  0.
     999903    2    3    3    0    0 -0.11983448797E+00  0.11291100812E-01  0.48568389044E-01  0.13118569251E+00  0.19052664892E-01 0.  0.
         14    1    1    2    0    0 -0.24449149559E-04  0.74700223622E-03 -0.24191653722E-01  0.24203196481E-01  0.00000000000E+00 0. -1.
     999901    1    3    3    0    0  0.11985893712E+00 -0.12038103049E-01 -0.24376735322E-01  0.88854111101E+00  0.88000000000E+00 0. -1.
        -11    1    4    4    0    0 -0.43427785527E-01  0.95432850515E-02  0.25930055782E-01  0.51475001303E-01  0.51100000000E-03 0. -1.
         11    1    4    4    0    0 -0.76406702444E-01  0.17478157610E-02  0.22638333262E-01  0.79710691204E-01  0.51100000000E-03 0.  1.
</event>
<event>
 8    1  0.1090774E+005  0.1043930E+01  0.7957747E-01            NaN
         13   -1    0    0    0    0  0.00000000000E+00  0.00000000000E+00  0.74505805969E-08  0.10566000000E+00  0.10566000000E+00 0.  1.
     999900   -1    0    0    0    0 -0.00000000000E+00 -0.00000000000E+00 -0.74505805969E-08  0.93827000000E+00  0.93827000000E+00 0. -1.
     999902    2    1    2    0    0 -0.25147159097E-02 -0.17941815585E-01 -0.15163346631E-01  0.10203045979E+01  0.10200310353E+01 0.  0.
     999903    2    3    3    0    0  0.10906647397E-01  0.21712852588E-01 -0.12825222137E+00  0.13208068510E+00  0.20156194246E-01 0.  0.
         14    1    1    2    0    0  0.25147159097E-02  0.17941815585E-01  0.15163346631E-01  0.23625402084E-01  0.00000000000E+00 0.  1.
     999901    1    3    3    0    0 -0.13421363307E-01 -0.39654668173E-01  0.11308887474E+00  0.88822391281E+00  0.88000000000E+00 0.  1.
        -11    1    4    4    0    0 -0.17254057088E-02  0.16659123538E-01 -0.52325402154E-01  0.54942808934E-01  0.51100000000E-03 0.  1.
         11    1    4    4    0    0  0.12632053106E-01  0.50537290495E-02 -0.75926819215E-01  0.77137876170E-01  0.51100000000E-03 0. -1.
</event>
<event>
 8    1  0.1090774E+005  0.1043930E+01  0.7957747E-01            NaN
         13   -1    0    0    0    0  0.00000000000E+00  0.00000000000E+00  0.74505805969E-08  0.10566000000E+00  0.10566000000E+00 0.  1.
     999900   -1    0    0    0    0 -0.00000000000E+00 -0.00000000000E+00 -0.74505805969E-08  0.93827000000E+00  0.93827000000E+00 0.  1.
     999902    2    1    2    0    0  0.14510341668E-01  0.21054857266E-02 -0.19079253300E-01  0.10198675606E+01  0.10195836602E+01 0.  0.
     999903    2    3    3    0    0 -0.87851112097E-01 -0.50876523790E-01  0.74477879431E-01  0.12743386687E+00  0.19651903993E-01 0.  0.
         14    1    1    2    0    0 -0.14510341668E-01 -0.21054857266E-02  0.19079253300E-01  0.24062439443E-01  0.00000000000E+00 0.  1.
     999901    1    3    3    0    0  0.10236145376E+00  0.52982009516E-01 -0.93557132731E-01  0.89243369369E+00  0.88000000000E+00 0.  1.
        -11    1    4    4    0    0 -0.47943925574E-01 -0.17453269360E-01  0.41896207853E-01  0.66021132710E-01  0.51100000000E-03 0.  1.
         11    1    4    4    0    0 -0.39907186522E-01 -0.33423254430E-01  0.32581671578E-01  0.61412734157E-01  0.51100000000E-03 0. -1.
</event>
<event>
 8    1  0.1090774E+005  0.1043930E+01  0.7957747E-01            NaN
         13   -1    0    0    0    0  0.00000000000E+00  0.00000000000E+00  0.74505805969E-08  0.10566000000E+00  0.10566000000E+00 0. -1.
     999900   -1    0    0    0    0 -0.00000000000E+00 -0.00000000000E+00 -0.74505805969E-08  0.93827000000E+00  0.93827000000E+00 0.  1.
     999902    2    1    2    0    0  0.36281934013E-02  0.23623360837E-01 -0.22102009867E-02  0.10199276678E+01  0.10196452008E+01 0.  0.
     999903    2    3    3    0    0 -0.78309259986E-01 -0.92671161422E-01 -0.35184786630E-01  0.12789320347E+00  0.19960408950E-01 0.  0.
         14    1    1    2    0    0 -0.36281934013E-02 -0.23623360837E-01  0.22102009867E-02  0.24002332241E-01  0.00000000000E+00 0.  1.
     999901    1    3    3    0    0  0.81937453387E-01  0.11629452226E+00  0.32974585644E-01  0.89203446429E+00  0.88000000000E+00 0. -1.
        -11    1    4    4    0    0 -0.25943963993E-01 -0.20651581074E-01 -0.33712387144E-02  0.33334718237E-01  0.51100000000E-03 0. -1.
         11    1    4    4    0    0 -0.52365295993E-01 -0.72019580349E-01 -0.31813547916E-01  0.94558485236E-01  0.51100000000E-03 0.  1.
</event>
<event>
 8    1  0.1090774E+005  0.1043930E+01  0.7957747E-01            NaN
         13   -1    0    0    0    0  0.00000000000E+00  0.00000000000E+00  0.74505805969E-08  0.10566000000E+00  0.10566000000E+00 0.  1.
     999900   -1    0    0    0    0 -0.00000000000E+00 -0.00000000000E+00 -0.74505805969E-08  0.93827000000E+00  0.93827000000E+00 0.  1.
     999902    2    1    2    0    0  0.76919388504E-02  0.21651593658E-01 -0.60201033423E-02  0.10201771249E+01  0.10199005673E+01 0.  0.
     999903    2    3    3    0    0  0.83770152127E-01 -0.28651044000E-01  0.92946285390E-01  0.12994535958E+00  0.20210487339E-01 0.  0.
         14    1    1    2    0    0 -0.76919388504E-02 -0.21651593658E-01  0.60201033423E-02  0.23752875099E-01  0.00000000000E+00 0.  1.
     999901    1    3    3    0    0 -0.76078213277E-01  0.50302637658E-01 -0.98966388732E-01  0.89023176532E+00  0.88000000000E+00 0.  1.
        -11    1    4    4    0    0  0.12704231369E-01 -0.11806286243E-01  0.13153208627E-01  0.21772779054E-01  0.51100000000E-03 0. -1.
         11    1    4    4    0    0  0.71065920758E-01 -0.16844757757E-01  0.79793076763E-01  0.10817258052E+00  0.51100000000E-03 0.  1.
</event>
<event>
 8    1  0.1090774E+005  0.1043930E+01  0.7957747E-01            NaN
         13   -1    0    0    0    0  0.00000000000E+00  0.00000000000E+00  0.74505805969E-08  0.10566000000E+00  0.10566000000E+00 0. -1.
     999900   -1    0    0    0    0 -0.00000000000E+00 -0.00000000000E+00 -0.74505805969E-08  0.93827000000E+00  0.93827000000E+00 0. -1.
     999902    2    1    2    0    0  0.36281355891E-02 -0.19974091210E-01 -0.31321927686E-01  0.10066045282E+01  0.10059122653E+01 0.  0.
     999903    2    3    3    0    0 -0.35996900892E-01  0.25042877096E-01 -0.11098964264E+00  0.12097276744E+00  0.19818857687E-01 0.  0.
         14    1    1    2    0    0 -0.36281355891E-02  0.19974091210E-01  0.31321927686E-01  0.37325471751E-01  0.00000000000E+00 0. -1.
     999901    1    3    3    0    0  0.39625036481E-01 -0.45016968305E-01  0.79667714959E-01  0.88563176081E+00  0.88000000000E+00 0.  1.
        -11    1    4    4    0    0 -0.32950380056E-01  0.13286556634E-01 -0.75121331200E-01  0.83100756046E-01  0.51100000000E-03 0.  1.
         11    1    4    4    0    0 -0.30465208361E-02  0.11756320461E-01 -0.35868311444E-01  0.37872011392E-01  0.51100000000E-03 0. -1.
</event>
<event>
 8    1  0.1090774E+005  0.1043930E+01  0.7957747E-01            NaN
         13   -1    0    0    0    0  0.00000000000E+00  0.00000000000E+00  0.74505805969E-08  0.10566000000E+00  0.10566000000E+00 0.  1.
     999900   -1    0    0    0    0 -0.00000000000E+00 -0.00000000000E+00 -0.74505805969E-08  0.93827000000E+00  0.93827000000E+00 0.  1.
     999902    2    1    2    0    0 -0.54215453067E-02  0.20009580967E-01 -0.10609101750E-01  0.10206420305E+01  0.10203763153E+01 0.  0.
     999903    2    3    3    0    0  0.85617884065E-01 -0.87391735107E-01  0.30693161756E-01  0.12849344569E+00  0.24510364524E-01 0.  0.
         14    1    1    2    0    0  0.54215453067E-02 -0.20009580967E-01  0.10609101750E-01  0.23287969511E-01  0.00000000000E+00 0.  1.
     999901    1    3    3    0    0 -0.91039429372E-01  0.10740131607E+00 -0.41302263506E-01  0.89214858480E+00  0.88000000000E+00 0.  1.
        -11    1    4    4    0    0  0.20255522970E-01 -0.37196966086E-01  0.10809324396E-01  0.43715021579E-01  0.51100000000E-03 0. -1.
         11    1    4    4    0    0  0.65362361095E-01 -0.50194769021E-01  0.19883837360E-01  0.84778424108E-01  0.51100000000E-03 0.  1.
</event>
<event>
 8    1  0.1090774E+005  0.1043930E+01  0.7957747E-01            NaN
         13   -1    0    0    0    0  0.00000000000E+00  0.00000000000E+00  0.74505805969E-08  0.10566000000E+00  0.10566000000E+00 0. -1.
     999900   -1    0    0    0    0 -0.00000000000E+00 -0.00000000000E+00 -0.74505805969E-08  0.93827000000E+00  0.93827000000E+00 0.  1.
     999902    2    1    2    0    0 -0.23174673564E-02  0.66897247118E-02 -0.22838869924E-01  0.10200189764E+01  0.10197386798E+01 0.  0.
     999903    2    3    3    0    0  0.10321558838E+00  0.62220796146E-01  0.42940877282E-01  0.12954275496E+00  0.20310619467E-01 0.  0.
         14    1    1    2    0    0  0.23174673564E-02 -0.66897247118E-02  0.22838869924E-01  0.23911023630E-01  0.00000000000E+00 0. -1.
     999901    1    3    3    0    0 -0.10553305574E+00 -0.55531071434E-01 -0.65779747206E-01  0.89047622141E+00  0.88000000000E+00 0.  1.
        -11    1    4    4    0    0  0.34902863135E-01  0.28158451399E-01  0.24112400446E-01  0.50919320660E-01  0.51100000000E-03 0.  1.
         11    1    4    4    0    0  0.68312725249E-01  0.34062344747E-01  0.18828476836E-01  0.78623434303E-01  0.51100000000E-03 0. -1.
</event>
<event>
 8    1  0.1090774E+005  0.1043930E+01  0.7957747E-01            NaN
         13   -1    0    0    0    0  0.00000000000E+00  0.00000000000E+00  0.74505805969E-08  0.10566000000E+00  0.10566000000E+00 0.  1.
     999900   -1    0    0    0    0 -0.00000000000E+00 -0.00000000000E+00 -0.74505805969E-08  0.93827000000E+00  0.93827000000E+00 0.  1.
     999902    2    1    2    0    0  0.89564608563E-02  0.18117696642E-03  0.19981922022E-01  0.10220318671E+01  0.10217972446E+01 0.  0.
     999903    2    3    3    0    0 -0.64025839696E-01 -0.10769364652E+00 -0.31700285367E-01  0.13094576336E+00  0.21086849032E-01 0.  0.
         14    1    1    2    0    0 -0.89564608563E-02 -0.18117696642E-03 -0.19981922022E-01  0.21898132886E-01  0.00000000000E+00 0. -1.
     999901    1    3    3    0    0  0.72982300552E-01  0.10787482348E+00  0.51682207390E-01  0.89108610375E+00  0.88000000000E+00 0.  1.
        -11    1    4    4    0    0 -0.37212960699E-01 -0.76934131354E-01 -0.14608899981E-01  0.86702630242E-01  0.51100000000E-03 0.  1.
         11    1    4    4    0    0 -0.26812878996E-01 -0.30759515162E-01 -0.17091385387E-01  0.44243133122E-01  0.51100000000E-03 0. -1.
</event>
<event>
 8    1  0.1090774E+005  0.1043930E+01  0.7957747E-01            NaN
         13   -1    0    0    0    0  0.00000000000E+00  0.00000000000E+00  0.74505805969E-08  0.10566000000E+00  0.10566000000E+00 0. -1.
     999900   -1    0    0    0    0 -0.00000000000E+00 -0.00000000000E+00 -0.74505805969E-08  0.93827000000E+00  0.93827000000E+00 0.  1.
     999902    2    1    2    0    0  0.17874958386E-01 -0.17847615075E-01 -0.18043780990E-02  0.10186059545E+01  0.10182911093E+01 0.  0.
     999903    2    3    3    0    0 -0.79691924581E-01 -0.82638917622E-01  0.53742062898E-01  0.12911024530E+00  0.24520452042E-01 0.  0.
         14    1    1    2    0    0 -0.17874958386E-01  0.17847615075E-01  0.18043780990E-02  0.25324045520E-01  0.00000000000E+00 0.  1.
     999901    1    3    3    0    0  0.97566882967E-01  0.64791302547E-01 -0.55546440997E-01  0.88949570918E+00  0.88000000000E+00 0.  1.
        -11    1    4    4    0    0 -0.27710670319E-01 -0.14547261494E-01  0.19339850064E-01  0.36793953145E-01  0.51100000000E-03 0. -1.
         11    1    4    4    0    0 -0.51981254263E-01 -0.68091656128E-01  0.34402212833E-01  0.92316292158E-01  0.51100000000E-03 0.  1.
</event>
<event>
 8    1  0.1090774E+005  0.1043930E+01  0.7957747E-01            NaN
         13   -1    0    0    0    0  0.00000000000E+00  0.00000000000E+00  0.74505805969E-08  0.10566000000E+00  0.10566000000E+00 0. -1.
     999900   -1    0    0    0    0 -0.00000000000E+00 -0.00000000000E+00 -0.74505805969E-08  0.93827000000E+00  0.93827000000E+00 0.  1.
     999902    2    1    2    0    0 -0.85477028230E-02  0.20935507634E-01  0.63238093572E-02  0.10204491723E+01  0.10201789863E+01 0.  0.
     999903    2    3    3    0    0  0.96400600709E-01  0.86923042131E-01 -0.88156850651E-02  0.13163102140E+00  0.20007958956E-01 0.  0.
         14    1    1    2    0    0  0.85477028230E-02 -0.20935507634E-01 -0.63238093572E-02  0.23480827673E-01  0.00000000000E+00 0. -1.
     999901    1    3    3    0    0 -0.10494830353E+00 -0.65987534497E-01  0.15139494422E-01  0.88881815093E+00  0.88000000000E+00 0. -1.
        -11    1    4    4    0    0  0.27745667750E-01  0.37895671866E-01 -0.33598254319E-02  0.47089845753E-01  0.51100000000E-03 0.  1.
         11    1    4    4    0    0  0.68654932959E-01  0.49027370265E-01 -0.54558596332E-02  0.84541175648E-01  0.51100000000E-03 0. -1.
</event>
<event>
 8    1  0.1090774E+005  0.1043930E+01  0.7957747E-01            NaN
         13   -1    0    0    0    0  0.00000000000E+00  0.00000000000E+00  0.74505805969E-08  0.10566000000E+00  0.10566000000E+00 0.  1.
     999900   -1    0    0    0    0 -0.00000000000E+00 -0.00000000000E+00 -0.74505805969E-08  0.93827000000E+00  0.93827000000E+00 0.  1.
     999902    2    1    2    0    0  0.32882343440E-02  0.20209097381E-01  0.32747829210E-02  0.10231949016E+01  0.10229847811E+01 0.  0.
     999903    2    3    3    0    0 -0.10633548009E+00 -0.99353701551E-03  0.77182130179E-01  0.13306614326E+00  0.21007042148E-01 0.  0.
         14    1    1    2    0    0 -0.32882343440E-02 -0.20209097381E-01 -0.32747829210E-02  0.20735098390E-01  0.00000000000E+00 0.  1.
     999901    1    3    3    0    0  0.10962371444E+00  0.21202634396E-01 -0.73907347258E-01  0.89012875836E+00  0.88000000000E+00 0. -1.
        -11    1    4    4    0    0 -0.24838812327E-01  0.58037231660E-02  0.26846328685E-01  0.37035608342E-01  0.51100000000E-03 0.  1.
         11    1    4    4    0    0 -0.81496667764E-01 -0.67972601815E-02  0.50335801494E-01  0.96030534913E-01  0.51100000000E-03 0. -1.
</event>
<event>
 8    1  0.1090774E+005  0.1043930E+01  0.7957747E-01            NaN
         13   -1    0    0    0    0  0.00000000000E+00  0.00000000000E+00  0.74505805969E-08  0.10566000000E+00  0.10566000000E+00 0.  1.
     999900   -1    0    0    0    0 -0.00000000000E+00 -0.00000000000E+00 -0.74505805969E-08  0.93827000000E+00  0.93827000000E+00 0.  1.
     999902    2    1    2    0    0 -0.21796152522E-01  0.65520321153E-02 -0.11703390075E-01  0.10183376041E+01  0.10180159651E+01 0.  0.
     999903    2    3    3    0    0 -0.12289771906E+00 -0.30733932288E-02  0.40302345278E-01  0.13097140455E+00  0.20394476656E-01 0.  0.
         14    1    1    2    0    0  0.21796152522E-01 -0.65520321153E-02  0.11703390075E-01  0.25592395919E-01  0.00000000000E+00 0. -1.
     999901    1    3    3    0    0  0.10110156654E+00  0.96254253441E-02 -0.52005735353E-01  0.88736619954E+00  0.88000000000E+00 0.  1.
        -11    1    4    4    0    0 -0.63571643697E-01  0.67549668251E-02  0.26893389700E-01  0.69357760847E-01  0.51100000000E-03 0.  1.
         11    1    4    4    0    0 -0.59326075361E-01 -0.98283600539E-02  0.13408955578E-01  0.61613643698E-01  0.51100000000E-03 0. -1.
</event>
<event>
 8    1  0.1090774E+005  0.1043930E+01  0.7957747E-01            NaN
         13   -1    0    0    0    0  0.00000000000E+00  0.00000000000E+00  0.74505805969E-08  0.10566000000E+00  0.10566000000E+00 0. -1.
     999900   -1    0    0    0    0 -0.00000000000E+00 -0.00000000000E+00 -0.74505805969E-08  0.93827000000E+00  0.93827000000E+00 0. -1.
     999902    2    1    2    0    0 -0.18271757315E-01  0.64827280160E-03 -0.70152276565E-02  0.10243470791E+01  0.10241598740E+01 0.  0.
     999903    2    3    3    0    0  0.35057543354E-01  0.37621616582E-01 -0.12260348969E+00  0.13441916695E+00  0.19811092315E-01 0.  0.
         14    1    1    2    0    0  0.18271757315E-01 -0.64827280160E-03  0.70152276565E-02  0.19582920928E-01  0.00000000000E+00 0. -1.
     999901    1    3    3    0    0 -0.53329300670E-01 -0.36973343781E-01  0.11558826203E+00  0.88992791213E+00  0.88000000000E+00 0.  1.
        -11    1    4    4    0    0  0.28977982775E-01  0.17889429285E-01 -0.68313413860E-01  0.76333078021E-01  0.51100000000E-03 0.  1.
         11    1    4    4    0    0  0.60795605790E-02  0.19732187297E-01 -0.54290075827E-01  0.58086088925E-01  0.51100000000E-03 0. -1.
</event>
<event>
 8    1  0.1090774E+005  0.1043930E+01  0.7957747E-01            NaN
         13   -1    0    0    0    0  0.00000000000E+00  0.00000000000E+00  0.74505805969E-08  0.10566000000E+00  0.10566000000E+00 0. -1.
     999900   -1    0    0    0    0 -0.00000000000E+00 -0.00000000000E+00 -0.74505805969E-08  0.93827000000E+00  0.93827000000E+00 0. -1.
     999902    2    1    2    0    0 -0.69720733184E-02  0.13626214374E-01 -0.19034749284E-01  0.10195044968E+01  0.10192118592E+01 0.  0.
     999903    2    3    3    0    0  0.56781711532E-01  0.11610717516E+00 -0.10909680090E-01  0.13122925281E+00  0.19926283763E-01 0.  0.
         14    1    1    2    0    0  0.69720733184E-02 -0.13626214374E-01  0.19034749284E-01  0.24425503164E-01  0.00000000000E+00 0. -1.
     999901    1    3    3    0    0 -0.63753784850E-01 -0.10248096079E+00 -0.81250691933E-02  0.88827524403E+00  0.88000000000E+00 0. -1.
        -11    1    4    4    0    0  0.50733790424E-01  0.84626507734E-01 -0.97014795974E-02  0.99146069662E-01  0.51100000000E-03 0.  1.
         11    1    4    4    0    0  0.60479211078E-02  0.31480667425E-01 -0.12082004929E-02  0.32083183145E-01  0.51100000000E-03 0. -1.
</event>
<event>
 8    1  0.1090774E+005  0.1043930E+01  0.7957747E-01            NaN
         13   -1    0    0    0    0  0.00000000000E+00  0.00000000000E+00  0.74505805969E-08  0.10566000000E+00  0.10566000000E+00 0. -1.
     999900   -1    0    0    0    0 -0.00000000000E+00 -0.00000000000E+00 -0.74505805969E-08  0.93827000000E+00  0.93827000000E+00 0.  1.
     999902    2    1    2    0    0  0.18710322425E-01 -0.58338474497E-02 -0.10037756257E-01  0.10219103158E+01  0.10216730529E+01 0.  0.
     999903    2    3    3    0    0  0.15519682208E-01  0.95139659521E-01  0.85337270766E-01  0.13101064408E+00  0.24267750863E-01 0.  0.
         14    1    1    2    0    0 -0.18710322425E-01  0.58338474497E-02  0.10037756257E-01  0.22019684193E-01  0.00000000000E+00 0. -1.
     999901    1    3    3    0    0  0.31906402170E-02 -0.10097350697E+00 -0.95375027023E-01  0.89089967172E+00  0.88000000000E+00 0.  1.
        -11    1    4    4    0    0  0.21660938206E-01  0.76453857433E-01  0.64449912367E-01  0.10231539906E+00  0.51100000000E-03 0. -1.
         11    1    4    4    0    0 -0.61412559985E-02  0.18685802088E-01  0.20887358400E-01  0.28695245021E-01  0.51100000000E-03 0.  1.
</event>
<event>
 8    1  0.1090774E+005  0.1043930E+01  0.7957747E-01            NaN
         13   -1    0    0    0    0  0.00000000000E+00  0.00000000000E+00  0.74505805969E-08  0.10566000000E+00  0.10566000000E+00 0.  1.
     999900   -1    0    0    0    0 -0.00000000000E+00 -0.00000000000E+00 -0.74505805969E-08  0.93827000000E+00  0.93827000000E+00 0.  1.
     999902    2    1    2    0    0 -0.23254608811E-01 -0.45541150575E-02  0.12574818948E-02  0.10202003128E+01  0.10199243012E+01 0.  0.
     999903    2    3    3    0    0  0.41596248174E-01  0.62358391238E-01  0.10355017316E+00  0.12938792409E+00  0.19994492213E-01 0.  0.
         14    1    1    2    0    0  0.23254608811E-01  0.45541150575E-02 -0.12574818948E-02  0.23729687221E-01  0.00000000000E+00 0.  1.
     999901    1    3    3    0    0 -0.64850856985E-01 -0.66912506295E-01 -0.10229269127E+00  0.89081238869E+00  0.88000000000E+00 0.  1.
        -11    1    4    4    0    0  0.36249793994E-01  0.46031458165E-01  0.67056345479E-01  0.89049184698E-01  0.51100000000E-03 0. -1.
         11    1    4    4    0    0  0.53464541803E-02  0.16326933073E-01  0.36493827685E-01  0.40338739395E-01  0.51100000000E-03 0.  1.
</event>
<event>
 8    1  0.1090774E+005  0.1043930E+01  0.7957747E-01            NaN
         13   -1    0    0    0    0  0.00000000000E+00  0.00000000000E+00  0.74505805969E-08  0.10566000000E+00  0.10566000000E+00 0. -1.
     999900   -1    0    0    0    0 -0.00000000000E+00 -0.00000000000E+00 -0.74505805969E-08  0.93827000000E+00  0.93827000000E+00 0. -1.
     999902    2    1    2    0    0 -0.20684680404E-01  0.78322509185E-02 -0.91481201624E-02  0.10199949157E+01  0.10197140481E+01 0.  0.
     999903    2    3    3    0    0  0.81721077311E-01 -0.58609381793E-01  0.76126618411E-01  0.12748541390E+00  0.18543856526E-01 0.  0.
         14    1    1    2    0    0  0.20684680404E-01 -0.78322509185E-02  0.91481201624E-02  0.23935084299E-01  0.00000000000E+00 0. -1.
     999901    1    3    3    0    0 -0.10240575772E+00  0.66441632712E-01 -0.85274738573E-01  0.89250950180E+00  0.88000000000E+00 0. -1.
        -11    1    4    4    0    0  0.40519517866E-01 -0.24063753479E-01  0.45969264761E-01  0.65835628525E-01  0.51100000000E-03 0.  1.
         11    1    4    4    0    0  0.41201559445E-01 -0.34545628314E-01  0.30157353650E-01  0.61649785373E-01  0.51100000000E-03 0. -1.
</event>
<event>
 8    1  0.1090774E+005  0.1043930E+01  0.7957747E-01            NaN
         13   -1    0    0    0    0  0.00000000000E+00  0.00000000000E+00  0.74505805969E-08  0.10566000000E+00  0.10566000000E+00 0. -1.
     999900   -1    0    0    0    0 -0.00000000000E+00 -0.00000000000E+00 -0.74505805969E-08  0.93827000000E+00  0.93827000000E+00 0.  1.
     999902    2    1    2    0    0  0.12487589339E-02  0.17402723665E-01  0.84331712351E-02  0.10245513373E+01  0.10243680541E+01 0.  0.
     999903    2    3    3    0    0 -0.17331925496E-01 -0.11044287267E+00  0.69325699012E-01  0.13303709837E+00  0.19869404461E-01 0.  0.
         14    1    1    2    0    0 -0.12487589339E-02 -0.17402723665E-01 -0.84331712351E-02  0.19378662671E-01  0.00000000000E+00 0.  1.
     999901    1    3    3    0    0  0.18580684430E-01  0.12784559633E+00 -0.60892527777E-01  0.89151423896E+00  0.88000000000E+00 0.  1.
        -11    1    4    4    0    0 -0.14051441335E-01 -0.38114674766E-01  0.31090855297E-01  0.51157343952E-01  0.51100000000E-03 0. -1.
         11    1    4    4    0    0 -0.32804841616E-02 -0.72328197901E-01  0.38234843716E-01  0.81879754414E-01  0.51100000000E-03 0.  1.
</event>
<event>
 8    1  0.1090774E+005  0.1043930E+01  0.7957747E-01            NaN
         13   -1    0    0    0    0  0.00000000000E+00  0.00000000000E+00  0.74505805969E-08  0.10566000000E+00  0.10566000000E+00 0. -1.
     999900   -1    0    0    0    0 -0.00000000000E+00 -0.00000000000E+00 -0.74505805969E-08  0.93827000000E+00  0.93827000000E+00 0.  1.
     999902    2    1    2    0    0  0.78853506520E-02  0.21807940806E-01  0.56266706464E-02  0.10200673836E+01  0.10197882342E+01 0.  0.
     999903    2    3    3    0    0 -0.55651563632E-01  0.11442600989E+00 -0.29465736030E-01  0.13223489763E+00  0.20674387015E-01 0.  0.
         14    1    1    2    0    0 -0.78853506520E-02 -0.21807940806E-01 -0.56266706464E-02  0.23862616363E-01  0.00000000000E+00 0. -1.
     999901    1    3    3    0    0  0.63536914284E-01 -0.92618069083E-01  0.35092406676E-01  0.88783248600E+00  0.88000000000E+00 0. -1.
        -11    1    4    4    0    0 -0.22406845148E-01  0.68002540945E-01 -0.12659842196E-01  0.72711381570E-01  0.51100000000E-03 0. -1.
         11    1    4    4    0    0 -0.33244718485E-01  0.46423468944E-01 -0.16805893834E-01  0.59523516063E-01  0.51100000000E-03 0.  1.
</event>
<event>
 8    1  0.1090774E+005  0.1043930E+01  0.7957747E-01            NaN
         13   -1    0    0    0    0  0.00000000000E+00  0.00000000000E+00  0.74505805969E-08  0.10566000000E+00  0.10566000000E+00 0.  1.
     999900   -1    0    0    0    0 -0.00000000000E+00 -0.00000000000E+00 -0.74505805969E-08  0.93827000000E+00  0.93827000000E+00 0.  1.
     999902    2    1    2    0    0  0.11101759150E-01  0.17582869680E-01 -0.15749529185E-01  0.10178444862E+01  0.10175101690E+01 0.  0.
     999903    2    3    3    0    0 -0.83153134442E-01  0.84504840769E-01  0.44706505255E-01  0.12822801415E+00  0.19703809788E-01 0.  0.
         14    1    1    2    0    0 -0.11101759150E-01 -0.17582869680E-01  0.15749529185E-01  0.26085513833E-01  0.00000000000E+00 0.  1.
     999901    1    3    3    0    0  0.94254893592E-01 -0.66921971089E-01 -0.60456034440E-01  0.88961647202E+00  0.88000000000E+00 0.  1.
        -11    1    4    4    0    0 -0.60353160332E-01  0.53379521214E-01  0.37915112377E-01  0.89048829945E-01  0.51100000000E-03 0. -1.
         11    1    4    4    0    0 -0.22799974110E-01  0.31125319556E-01  0.67913928782E-02  0.39179184206E-01  0.51100000000E-03 0.  1.
</event>
<event>
 8    1  0.1090774E+005  0.1043930E+01  0.7957747E-01            NaN
         13   -1    0    0    0    0  0.00000000000E+00  0.00000000000E+00  0.74505805969E-08  0.10566000000E+00  0.10566000000E+00 0.  1.
     999900   -1    0    0    0    0 -0.00000000000E+00 -0.00000000000E+00 -0.74505805969E-08  0.93827000000E+00  0.93827000000E+00 0.  1.
     999902    2    1    2    0    0 -0.17338234362E-01 -0.36105369922E-02 -0.15429103235E-01  0.10204415438E+01  0.10201711801E+01 0.  0.
     999903    2    3    3    0    0 -0.31806848164E-01 -0.32070815106E-01  0.11977306603E+00  0.12954370746E+00  0.19894019839E-01 0.  0.
         14    1    1    2    0    0  0.17338234362E-01  0.36105369922E-02  0.15429103235E-01  0.23488456203E-01  0.00000000000E+00 0.  1.
     999901    1    3    3    0    0  0.14468613803E-01  0.28460278114E-01 -0.13520216926E+00  0.89089783634E+00  0.88000000000E+00 0.  1.
        -11    1    4    4    0    0 -0.28735728272E-01 -0.15827096956E-01  0.78653289056E-01  0.85222298007E-01  0.51100000000E-03 0.  1.
         11    1    4    4    0    0 -0.30711198922E-02 -0.16243718150E-01  0.41119776972E-01  0.44321409454E-01  0.51100000000E-03 0. -1.
</event>
<event>
 8    1  0.1090774E+005  0.1043930E+01  0.7957747E-01            NaN
         13   -1    0    0    0    0  0.00000000000E+00  0.00000000000E+00  0.74505805969E-08  0.10566000000E+00  0.10566000000E+00 0.  1.
     999900   -1    0    0    0    0 -0.00000000000E+00 -0.00000000000E+00 -0.74505805969E-08  0.93827000000E+00  0.93827000000E+00 0.  1.
     999902    2    1    2    0    0 -0.21479072622E-01  0.72188718027E-02  0.81815487233E-02  0.10198384992E+01  0.10195539044E+01 0.  0.
     999903    2    3    3    0    0  0.86978988811E-01 -0.85257670719E-02 -0.91084892888E-01  0.12750175158E+00  0.17950090372E-01 0.  0.
         14    1    1    2    0    0  0.21479072622E-01 -0.72188718027E-02 -0.81815487233E-02  0.24091500790E-01  0.00000000000E+00 0.  1.
     999901    1    3    3    0    0 -0.10845806143E+00  0.15744638875E-01  0.99266441611E-01  0.89233674763E+00  0.88000000000E+00 0. -1.
        -11    1    4    4    0    0  0.50645718434E-01  0.17225476043E-02 -0.60446780751E-01  0.78879847807E-01  0.51100000000E-03 0. -1.
         11    1    4    4    0    0  0.36333270377E-01 -0.10248314676E-01 -0.30638112137E-01  0.48621903771E-01  0.51100000000E-03 0.  1.
</event>
<event>
 8    1  0.1090774E+005  0.1043930E+01  0.7957747E-01            NaN
         13   -1    0    0    0    0  0.00000000000E+00  0.00000000000E+00  0.74505805969E-08  0.10566000000E+00  0.10566000000E+00 0. -1.
     999900   -1    0    0    0    0 -0.00000000000E+00 -0.00000000000E+00 -0.74505805969E-08  0.93827000000E+00  0.93827000000E+00 0.  1.
     999902    2    1    2    0    0 -0.22419764911E-01 -0.30124004376E-02  0.61221681276E-02  0.10204949545E+01  0.10202258332E+01 0.  0.
     999903    2    3    3    0    0  0.12209000957E+00  0.29725071575E-01  0.13051027875E-01  0.12808091041E+00  0.21091229587E-01 0.  0.
         14    1    1    2    0    0  0.22419764911E-01  0.30124004376E-02 -0.61221681276E-02  0.23435045501E-01  0.00000000000E+00 0.  1.
     999901    1    3    3    0    0 -0.14450977448E+00 -0.32737472012E-01 -0.69288597471E-02  0.89241404409E+00  0.88000000000E+00 0.  1.
        -11    1    4    4    0    0  0.82083278897E-01  0.19432974933E-01  0.18649350033E-01  0.86390766677E-01  0.51100000000E-03 0. -1.
         11    1    4    4    0    0  0.40006730672E-01  0.10292096641E-01 -0.55983221583E-02  0.41690143731E-01  0.51100000000E-03 0.  1.
</event>
<event>
 8    1  0.1090774E+005  0.1043930E+01  0.7957747E-01            NaN
         13   -1    0    0    0    0  0.00000000000E+00  0.00000000000E+00  0.74505805969E-08  0.10566000000E+00  0.10566000000E+00 0.  1.
     999900   -1    0    0    0    0 -0.00000000000E+00 -0.00000000000E+00 -0.74505805969E-08  0.93827000000E+00  0.93827000000E+00 0.  1.
     999902    2    1    2    0    0 -0.15348628556E-01  0.18192886977E-01  0.34220863086E-02  0.10198827089E+01  0.10195991701E+01 0.  0.
     999903    2    3    3    0    0  0.99114790496E-01  0.77040537369E-01  0.28055023084E-01  0.13017955512E+00  0.20016147403E-01 0.  0.
         14    1    1    2    0    0  0.15348628556E-01 -0.18192886977E-01 -0.34220863086E-02  0.24047291112E-01  0.00000000000E+00 0. -1.
     999901    1    3    3    0    0 -0.11446341905E+00 -0.58847650392E-01 -0.24632936775E-01  0.88970315377E+00  0.88000000000E+00 0.  1.
        -11    1    4    4    0    0  0.15719583042E-01  0.39748734604E-02  0.27837804108E-02  0.16459509848E-01  0.51100000000E-03 0.  1.
         11    1    4    4    0    0  0.83395207454E-01  0.73065663909E-01  0.25271242673E-01  0.11372004527E+00  0.51100000000E-03 0. -1.
</event>
<event>
 8    1  0.1090774E+005  0.1043930E+01  0.7957747E-01            NaN
         13   -1    0    0    0    0  0.00000000000E+00  0.00000000000E+00  0.74505805969E-08  0.10566000000E+00  0.10566000000E+00 0.  1.
     999900   -1    0    0    0    0 -0.00000000000E+00 -0.00000000000E+00 -0.74505805969E-08  0.93827000000E+00  0.93827000000E+00 0.  1.
     999902    2    1    2    0    0  0.13480255329E-02  0.19630609939E-01  0.13113275404E-01  0.10202839430E+01  0.10200098962E+01 0.  0.
     999903    2    3    3    0    0  0.94298855312E-01 -0.58801667409E-01  0.65175924735E-01  0.13039518685E+00  0.20126931824E-01 0.  0.
         14    1    1    2    0    0 -0.13480255329E-02 -0.19630609939E-01 -0.13113275404E-01  0.23646056991E-01  0.00000000000E+00 0. -1.
     999901    1    3    3    0    0 -0.92950829779E-01  0.78432277348E-01 -0.52062649331E-01  0.88988875616E+00  0.88000000000E+00 0.  1.
        -11    1    4    4    0    0  0.47905313724E-01 -0.32652288473E-01  0.45198501313E-01  0.73513649531E-01  0.51100000000E-03 0. -1.
         11    1    4    4    0    0  0.46393541588E-01 -0.26149378936E-01  0.19977423422E-01  0.56881537316E-01  0.51100000000E-03 0.  1.
</event>
<event>
 8    1  0.1090774E+005  0.1043930E+01  0.7957747E-01            NaN
         13   -1    0    0    0    0  0.00000000000E+00  0.00000000000E+00  0.74505805969E-08  0.10566000000E+00  0.10566000000E+00 0. -1.
     999900   -1    0    0    0    0 -0.00000000000E+00 -0.00000000000E+00 -0.74505805969E-08  0.93827000000E+00  0.93827000000E+00 0.  1.
     999902    2    1    2    0    0  0.80091481057E-02 -0.14051994788E-01  0.18786314912E-01  0.10191402715E+01  0.10188387323E+01 0.  0.
     999903    2    3    3    0    0 -0.60070464617E-01  0.90723946128E-01 -0.61663007763E-01  0.12668023039E+00  0.20155870748E-01 0.  0.
         14    1    1    2    0    0 -0.80091481057E-02  0.14051994788E-01 -0.18786314912E-01  0.24789728495E-01  0.00000000000E+00 0.  1.
     999901    1    3    3    0    0  0.68079612723E-01 -0.10477594092E+00  0.80449322675E-01  0.89246004111E+00  0.88000000000E+00 0. -1.
        -11    1    4    4    0    0 -0.96752203767E-02  0.29354282690E-01 -0.12924623403E-01  0.33505086370E-01  0.51100000000E-03 0. -1.
         11    1    4    4    0    0 -0.50395244240E-01  0.61369663438E-01 -0.48738384360E-01  0.93175144022E-01  0.51100000000E-03 0.  1.
</event>
<event>
 8    1  0.1090774E+005  0.1043930E+01  0.7957747E-01            NaN
         13   -1    0    0    0    0  0.00000000000E+00  0.00000000000E+00  0.74505805969E-08  0.10566000000E+00  0.10566000000E+00 0.  1.
     999900   -1    0    0    0    0 -0.00000000000E+00 -0.00000000000E+00 -0.74505805969E-08  0.93827000000E+00  0.93827000000E+00 0. -1.
     999902    2    1    2    0    0  0.19766940739E-01  0.52156792245E-02 -0.68830077489E-02  0.10223589302E+01  0.10221313375E+01 0.  0.
     999903    2    3    3    0    0  0.13143521692E+00  0.22284501126E-01 -0.10146565262E-01  0.13513190211E+00  0.19643394430E-01 0.  0.
         14    1    1    2    0    0 -0.19766940739E-01 -0.52156792245E-02  0.68830077489E-02  0.21571069784E-01  0.00000000000E+00 0.  1.
     999901    1    3    3    0    0 -0.11166827618E+00 -0.17068821902E-01  0.32635575129E-02  0.88722702810E+00  0.88000000000E+00 0.  1.
        -11    1    4    4    0    0  0.62105658151E-01  0.19973567697E-01 -0.79959563354E-02  0.65728628615E-01  0.51100000000E-03 0.  1.
         11    1    4    4    0    0  0.69329558771E-01  0.23109334295E-02 -0.21506089264E-02  0.69403273500E-01  0.51100000000E-03 0. -1.
</event>
<event>
 8    1  0.1090774E+005  0.1043930E+01  0.7957747E-01            NaN
         13   -1    0    0    0    0  0.00000000000E+00  0.00000000000E+00  0.74505805969E-08  0.10566000000E+00  0.10566000000E+00 0.  1.
     999900   -1    0    0    0    0 -0.00000000000E+00 -0.00000000000E+00 -0.74505805969E-08  0.93827000000E+00  0.93827000000E+00 0.  1.
     999902    2    1    2    0    0  0.11456121132E-01 -0.13550301245E-01 -0.14521661518E-01  0.10210011529E+01  0.10207436614E+01 0.  0.
     999903    2    3    3    0    0 -0.98291248862E-01  0.58434039116E-01  0.54932639142E-01  0.12856060568E+00  0.20845334234E-01 0.  0.
         14    1    1    2    0    0 -0.11456121132E-01  0.13550301245E-01  0.14521661518E-01  0.22928847081E-01  0.00000000000E+00 0.  1.
     999901    1    3    3    0    0  0.10974736999E+00 -0.71984340361E-01 -0.69454300660E-01  0.89244054724E+00  0.88000000000E+00 0.  1.
        -11    1    4    4    0    0 -0.29735480923E-01  0.83270058594E-02  0.98374391497E-02  0.32412562107E-01  0.51100000000E-03 0. -1.
         11    1    4    4    0    0 -0.68555767938E-01  0.50107033257E-01  0.45095199992E-01  0.96148043572E-01  0.51100000000E-03 0.  1.
</event>
<event>
 8    1  0.1090774E+005  0.1043930E+01  0.7957747E-01            NaN
         13   -1    0    0    0    0  0.00000000000E+00  0.00000000000E+00  0.74505805969E-08  0.10566000000E+00  0.10566000000E+00 0.  1.
     999900   -1    0    0    0    0 -0.00000000000E+00 -0.00000000000E+00 -0.74505805969E-08  0.93827000000E+00  0.93827000000E+00 0.  1.
     999902    2    1    2    0    0  0.16840293366E-01 -0.26069238150E-02  0.11349216870E-01  0.10234557172E+01  0.10232509022E+01 0.  0.
     999903    2    3    3    0    0 -0.94354736376E-01  0.69242415393E-01 -0.55446370732E-01  0.13104980468E+00  0.20060481385E-01 0.  0.
         14    1    1    2    0    0 -0.16840293366E-01  0.26069238150E-02 -0.11349216870E-01  0.20474282796E-01  0.00000000000E+00 0. -1.
     999901    1    3    3    0    0  0.11119502974E+00 -0.71849339208E-01  0.66795587602E-01  0.89240591252E+00  0.88000000000E+00 0. -1.
        -11    1    4    4    0    0 -0.39534800976E-01  0.38007899359E-01 -0.33396748409E-01  0.64212185972E-01  0.51100000000E-03 0.  1.
         11    1    4    4    0    0 -0.54819935400E-01  0.31234516034E-01 -0.22049622323E-01  0.66837618709E-01  0.51100000000E-03 0. -1.
</event>
<event>
 8    1  0.1090774E+005  0.1043930E+01  0.7957747E-01            NaN
         13   -1    0    0    0    0  0.00000000000E+00  0.00000000000E+00  0.74505805969E-08  0.10566000000E+00  0.10566000000E+00 0. -1.
     999900   -1    0    0    0    0 -0.00000000000E+00 -0.00000000000E+00 -0.74505805969E-08  0.93827000000E+00  0.93827000000E+00 0. -1.
     999902    2    1    2    0    0  0.18447523509E-01 -0.15070363996E-01  0.10964080642E-01  0.10177071462E+01  0.10173692533E+01 0.  0.
     999903    2    3    3    0    0  0.18902783137E-01 -0.73318545090E-01  0.10484653864E+00  0.13079848478E+00  0.19558187338E-01 0.  0.
         14    1    1    2    0    0 -0.18447523509E-01  0.15070363996E-01 -0.10964080642E-01  0.26222853752E-01  0.00000000000E+00 0.  1.
     999901    1    3    3    0    0 -0.45525962821E-03  0.58248181093E-01 -0.93882458000E-01  0.88690866147E+00  0.88000000000E+00 0. -1.
        -11    1    4    4    0    0  0.13848228431E-01 -0.21258473918E-01  0.27436369932E-01  0.37372605743E-01  0.51100000000E-03 0.  1.
         11    1    4    4    0    0  0.50545547063E-02 -0.52060071172E-01  0.77410168709E-01  0.93425879039E-01  0.51100000000E-03 0. -1.
</event>
<event>
 8    1  0.1090774E+005  0.1043930E+01  0.7957747E-01            NaN
         13   -1    0    0    0    0  0.00000000000E+00  0.00000000000E+00  0.74505805969E-08  0.10566000000E+00  0.10566000000E+00 0. -1.
     999900   -1    0    0    0    0 -0.00000000000E+00 -0.00000000000E+00 -0.74505805969E-08  0.93827000000E+00  0.93827000000E+00 0. -1.
     999902    2    1    2    0    0 -0.82387980929E-02  0.12529396418E-01  0.17655097610E-01  0.10207661048E+01  0.10205032458E+01 0.  0.
     999903    2    3    3    0    0  0.61339302417E-01 -0.11084016926E+00 -0.13411544486E-01  0.12889935577E+00  0.19675397028E-01 0.  0.
         14    1    1    2    0    0  0.82387980929E-02 -0.12529396418E-01 -0.17655097610E-01  0.23163895187E-01  0.00000000000E+00 0.  1.
     999901    1    3    3    0    0 -0.69578100510E-01  0.12336956568E+00  0.31066642095E-01  0.89186674905E+00  0.88000000000E+00 0.  1.
        -11    1    4    4    0    0  0.34150849320E-01 -0.68937961457E-01 -0.17094174433E-01  0.78811134745E-01  0.51100000000E-03 0. -1.
         11    1    4    4    0    0  0.27188453097E-01 -0.41902207804E-01  0.36826299473E-02  0.50088221020E-01  0.51100000000E-03 0.  1.
</event>
<event>
 8    1  0.1090774E+005  0.1043930E+01  0.7957747E-01            NaN
         13   -1    0    0    0    0  0.00000000000E+00  0.00000000000E+00  0.74505805969E-08  0.10566000000E+00  0.10566000000E+00 0.  1.
     999900   -1    0    0    0    0 -0.00000000000E+00 -0.00000000000E+00 -0.74505805969E-08  0.93827000000E+00  0.93827000000E+00 0. -1.
     999902    2    1    2    0    0  0.28424998082E-02 -0.22743760592E-01 -0.69002895092E-02  0.10199931571E+01  0.10197122477E+01 0.  0.
     999903    2    3    3    0    0 -0.75869911104E-02  0.11489940328E+00  0.50482756167E-01  0.12738617264E+00  0.20476645281E-01 0.  0.
         14    1    1    2    0    0 -0.28424998082E-02  0.22743760592E-01  0.69002895092E-02  0.23936842864E-01  0.00000000000E+00 0.  1.
     999901    1    3    3    0    0  0.10429490919E-01 -0.13764316387E+00 -0.57383045676E-01  0.89260698450E+00  0.88000000000E+00 0. -1.
        -11    1    4    4    0    0 -0.33362465866E-02  0.42485164484E-01  0.29633228897E-01  0.51908661304E-01  0.51100000000E-03 0.  1.
         11    1    4    4    0    0 -0.42507445238E-02  0.72414238793E-01  0.20849527270E-01  0.75477511335E-01  0.51100000000E-03 0. -1.
</event>
<event>
 8    1  0.1090774E+005  0.1043930E+01  0.7957747E-01            NaN
         13   -1    0    0    0    0  0.00000000000E+00  0.00000000000E+00  0.74505805969E-08  0.10566000000E+00  0.10566000000E+00 0.  1.
     999900   -1    0    0    0    0 -0.00000000000E+00 -0.00000000000E+00 -0.74505805969E-08  0.93827000000E+00  0.93827000000E+00 0.  1.
     999902    2    1    2    0    0  0.16213932424E-01 -0.13773296411E-01  0.10640801317E-01  0.10201429878E+01  0.10198656252E+01 0.  0.
     999903    2    3    3    0    0 -0.99319325603E-01  0.33771788697E-01  0.72795350707E-01  0.12914823085E+00  0.19371120192E-01 0.  0.
         14    1    1    2    0    0 -0.16213932424E-01  0.13773296411E-01 -0.10640801317E-01  0.23787012240E-01  0.00000000000E+00 0. -1.
     999901    1    3    3    0    0  0.11553325803E+00 -0.47545085108E-01 -0.62154549389E-01  0.89099475691E+00  0.88000000000E+00 0. -1.
        -11    1    4    4    0    0 -0.79893131038E-01  0.20070842773E-01  0.50956375813E-01  0.96863638552E-01  0.51100000000E-03 0. -1.
         11    1    4    4    0    0 -0.19426194565E-01  0.13700945924E-01  0.21838974894E-01  0.32284592299E-01  0.51100000000E-03 0.  1.
</event>
<event>
 8    1  0.1090774E+005  0.1043930E+01  0.7957747E-01            NaN
         13   -1    0    0    0    0  0.00000000000E+00  0.00000000000E+00  0.74505805969E-08  0.10566000000E+00  0.10566000000E+00 0. -1.
     999900   -1    0    0    0    0 -0.00000000000E+00 -0.00000000000E+00 -0.74505805969E-08  0.93827000000E+00  0.93827000000E+00 0.  1.
     999902    2    1    2    0    0 -0.31114939912E-02  0.12639387815E-01 -0.81627395876E-02  0.10285655658E+01  0.10284508046E+01 0.  0.
     999903    2    3    3    0    0 -0.44258833205E-01  0.69736045110E-01 -0.11101590517E+00  0.13978443111E+00  0.19829162232E-01 0.  0.
         14    1    1    2    0    0  0.31114939912E-02 -0.12639387815E-01  0.81627395876E-02  0.15364434150E-01  0.00000000000E+00 0. -1.
     999901    1    3    3    0    0  0.41147339213E-01 -0.57096657296E-01  0.10285316559E+00  0.88878113474E+00  0.88000000000E+00 0. -1.
        -11    1    4    4    0    0 -0.26092571863E-01  0.24487061518E-01 -0.40430735477E-01  0.53993925403E-01  0.51100000000E-03 0. -1.
         11    1    4    4    0    0 -0.18166261342E-01  0.45248983592E-01 -0.70585169697E-01  0.85790505707E-01  0.51100000000E-03 0.  1.
</event>
<event>
 8    1  0.1090774E+005  0.1043930E+01  0.7957747E-01            NaN
         13   -1    0    0    0    0  0.00000000000E+00  0.00000000000E+00  0.74505805969E-08  0.10566000000E+00  0.10566000000E+00 0.  1.
     999900   -1    0    0    0    0 -0.00000000000E+00 -0.00000000000E+00 -0.74505805969E-08  0.93827000000E+00  0.93827000000E+00 0.  1.
     999902    2    1    2    0    0  0.14016281067E-01 -0.14807977775E-02  0.18882191552E-01  0.10203676136E+01  0.10200955253E+01 0.  0.
     999903    2    3    3    0    0 -0.11774168170E+00  0.48628430408E-01  0.46065828135E-03  0.12895836501E+00  0.20055419382E-01 0.  0.
         14    1    1    2    0    0 -0.14016281067E-01  0.14807977775E-02 -0.18882191552E-01  0.23562386442E-01  0.00000000000E+00 0. -1.
     999901    1    3    3    0    0  0.13175796277E+00 -0.50109228186E-01  0.18421533271E-01  0.89140924854E+00  0.88000000000E+00 0. -1.
        -11    1    4    4    0    0 -0.41429128881E-01  0.15286957194E-01 -0.92298707671E-02  0.45116686663E-01  0.51100000000E-03 0.  1.
         11    1    4    4    0    0 -0.76312552823E-01  0.33341473214E-01  0.96905290484E-02  0.83841678351E-01  0.51100000000E-03 0. -1.
</event>
<event>
 8    1  0.1090774E+005  0.1043930E+01  0.7957747E-01            NaN
         13   -1    0    0    0    0  0.00000000000E+00  0.00000000000E+00  0.74505805969E-08  0.10566000000E+00  0.10566000000E+00 0.  1.
     999900   -1    0    0    0    0 -0.00000000000E+00 -0.00000000000E+00 -0.74505805969E-08  0.93827000000E+00  0.93827000000E+00 0. -1.
     999902    2    1    2    0    0 -0.97227678753E-02  0.13640726159E-01 -0.17004422677E-01  0.10200605212E+01  0.10197812094E+01 0.  0.
     999903    2    3    3    0    0  0.11634206082E+00 -0.92274853822E-02  0.49585492503E-01  0.12829288731E+00  0.19486463643E-01 0.  0.
         14    1    1    2    0    0  0.97227678753E-02 -0.13640726159E-01  0.17004422677E-01  0.23869478752E-01  0.00000000000E+00 0.  1.
     999901    1    3    3    0    0 -0.12606482870E+00  0.22868211541E-01 -0.66589915180E-01  0.89176763394E+00  0.88000000000E+00 0. -1.
        -11    1    4    4    0    0  0.64393298426E-01 -0.14010071655E-01  0.31806151992E-01  0.73175620363E-01  0.51100000000E-03 0.  1.
         11    1    4    4    0    0  0.51948762395E-01  0.47825862731E-02  0.17779340511E-01  0.55117266949E-01  0.51100000000E-03 0. -1.
</event>
<event>
 8    1  0.1090774E+005  0.1043930E+01  0.7957747E-01            NaN
         13   -1    0    0    0    0  0.00000000000E+00  0.00000000000E+00  0.74505805969E-08  0.10566000000E+00  0.10566000000E+00 0. -1.
     999900   -1    0    0    0    0 -0.00000000000E+00 -0.00000000000E+00 -0.74505805969E-08  0.93827000000E+00  0.93827000000E+00 0. -1.
     999902    2    1    2    0    0 -0.18370299555E-02  0.15136724628E-01  0.18363274190E-01  0.10200615072E+01  0.10197822186E+01 0.  0.
     999903    2    3    3    0    0  0.12007296566E-01  0.35169067441E-01 -0.12162303758E+00  0.12866421772E+00  0.19526371269E-01 0.  0.
         14    1    1    2    0    0  0.18370299555E-02 -0.15136724628E-01 -0.18363274190E-01  0.23868492841E-01  0.00000000000E+00 0.  1.
     999901    1    3    3    0    0 -0.13844326521E-01 -0.20032342813E-01  0.13998631177E+00  0.89139728944E+00  0.88000000000E+00 0.  1.
        -11    1    4    4    0    0  0.16341234633E-01  0.25704978316E-01 -0.10191025762E+00  0.10636608289E+00  0.51100000000E-03 0.  1.
         11    1    4    4    0    0 -0.43339380673E-02  0.94640891249E-02 -0.19712779965E-01  0.22298134834E-01  0.51100000000E-03 0. -1.
</event>
<event>
 8    1  0.1090774E+005  0.1043930E+01  0.7957747E-01            NaN
         13   -1    0    0    0    0  0.00000000000E+00  0.00000000000E+00  0.74505805969E-08  0.10566000000E+00  0.10566000000E+00 0. -1.
     999900   -1    0    0    0    0 -0.00000000000E+00 -0.00000000000E+00 -0.74505805969E-08  0.93827000000E+00  0.93827000000E+00 0. -1.
     999902    2    1    2    0    0  0.21105268063E-01 -0.19037455017E-02  0.12507852141E-01  0.10193230304E+01  0.10190259748E+01 0.  0.
     999903    2    3    3    0    0 -0.80636484414E-01 -0.96051215871E-01 -0.16996521381E-01  0.12798379172E+00  0.19049685461E-01 0.  0.
         14    1    1    2    0    0 -0.21105268063E-01  0.19037455017E-02 -0.12507852141E-01  0.24606969584E-01  0.00000000000E+00 0.  1.
     999901    1    3    3    0    0  0.10174175248E+00  0.94147470369E-01  0.29504373522E-01  0.89133923869E+00  0.88000000000E+00 0.  1.
        -11    1    4    4    0    0 -0.89944625956E-02 -0.19279309493E-01  0.16040119542E-02  0.21340714778E-01  0.51100000000E-03 0. -1.
         11    1    4    4    0    0 -0.71642021818E-01 -0.76771906378E-01 -0.18600533336E-01  0.10664307695E+00  0.51100000000E-03 0.  1.
</event>
<event>
 8    1  0.1090774E+005  0.1043930E+01  0.7957747E-01            NaN
         13   -1    0    0    0    0  0.00000000000E+00  0.00000000000E+00  0.74505805969E-08  0.10566000000E+00  0.10566000000E+00 0. -1.
     999900   -1    0    0    0    0 -0.00000000000E+00 -0.00000000000E+00 -0.74505805969E-08  0.93827000000E+00  0.93827000000E+00 0.  1.
     999902    2    1    2    0    0  0.21680722251E-01 -0.33359829294E-02 -0.83670598696E-02  0.10204525600E+01  0.10201824528E+01 0.  0.
     999903    2    3    3    0    0  0.17103950774E-01  0.10225684563E+00  0.76201309568E-01  0.13010285261E+00  0.19264087527E-01 0.  0.
         14    1    1    2    0    0 -0.21680722251E-01  0.33359829294E-02  0.83670598696E-02  0.23477440029E-01  0.00000000000E+00 0.  1.
     999901    1    3    3    0    0  0.45767714776E-02 -0.10559282856E+00 -0.84568369438E-01  0.89034970736E+00  0.88000000000E+00 0.  1.
        -11    1    4    4    0    0  0.20189351606E-01  0.65336495860E-01  0.48454244303E-01  0.83812543939E-01  0.51100000000E-03 0. -1.
         11    1    4    4    0    0 -0.30854008327E-02  0.36920349771E-01  0.27747065265E-01  0.46290308676E-01  0.51100000000E-03 0.  1.
</event>
<event>
 8    1  0.1090774E+005  0.1043930E+01  0.7957747E-01            NaN
         13   -1    0    0    0    0  0.00000000000E+00  0.00000000000E+00  0.74505805969E-08  0.10566000000E+00  0.10566000000E+00 0. -1.
     999900   -1    0    0    0    0 -0.00000000000E+00 -0.00000000000E+00 -0.74505805969E-08  0.93827000000E+00  0.93827000000E+00 0. -1.
     999902    2    1    2    0    0 -0.22564243970E-01  0.86494569679E-02 -0.10096001093E-01  0.10177405470E+01  0.10174035254E+01 0.  0.
     999903    2    3    3    0    0 -0.13045491811E-01  0.10874069162E+00 -0.67371903570E-01  0.13016554118E+00  0.20232939759E-01 0.  0.
         14    1    1    2    0    0  0.22564243970E-01 -0.86494569679E-02  0.10096001093E-01  0.26189453027E-01  0.00000000000E+00 0.  1.
     999901    1    3    3    0    0 -0.95187521586E-02 -0.10009123465E+00  0.57275902477E-01  0.88757500579E+00  0.88000000000E+00 0.  1.
        -11    1    4    4    0    0  0.45336007427E-02  0.18438978071E-01 -0.15739604678E-01  0.24668719553E-01  0.51100000000E-03 0. -1.
         11    1    4    4    0    0 -0.17579092554E-01  0.90301713546E-01 -0.51632298892E-01  0.10549682163E+00  0.51100000000E-03 0.  1.
</event>
<event>
 8    1  0.1090774E+005  0.1043930E+01  0.7957747E-01            NaN
         13   -1    0    0    0    0  0.00000000000E+00  0.00000000000E+00  0.74505805969E-08  0.10566000000E+00  0.10566000000E+00 0. -1.
     999900   -1    0    0    0    0 -0.00000000000E+00 -0.00000000000E+00 -0.74505805969E-08  0.93827000000E+00  0.93827000000E+00 0. -1.
     999902    2    1    2    0    0  0.13517575944E-01 -0.11671107039E-01 -0.14765356236E-01  0.10207577031E+01  0.10204946512E+01 0.  0.
     999903    2    3    3    0    0 -0.26600415607E-02 -0.11721075047E+00  0.55758164930E-01  0.13150301591E+00  0.20943600273E-01 0.  0.
         14    1    1    2    0    0 -0.13517575944E-01  0.11671107039E-01  0.14765356236E-01  0.23172296901E-01  0.00000000000E+00 0. -1.
     999901    1    3    3    0    0  0.16177617504E-01  0.10553964343E+00 -0.70523521166E-01  0.88925468718E+00  0.88000000000E+00 0. -1.
        -11    1    4    4    0    0  0.63121919020E-02 -0.18851003031E-01  0.13717954624E-01  0.24158797195E-01  0.51100000000E-03 0.  1.
         11    1    4    4    0    0 -0.89722334626E-02 -0.98359747435E-01  0.42040210306E-01  0.10734421872E+00  0.51100000000E-03 0. -1.
</event>
<event>
 8    1  0.1090774E+005  0.1043930E+01  0.7957747E-01            NaN
         13   -1    0    0    0    0  0.00000000000E+00  0.00000000000E+00  0.74505805969E-08  0.10566000000E+00  0.10566000000E+00 0.  1.
     999900   -1    0    0    0    0 -0.00000000000E+00 -0.00000000000E+00 -0.74505805969E-08  0.93827000000E+00  0.93827000000E+00 0. -1.
     999902    2    1    2    0    0 -0.10820220040E-01  0.13590396123E-01  0.16853578555E-01  0.10197262991E+01  0.10194390153E+01 0.  0.
     999903    2    3    3    0    0  0.49664813018E-01  0.11534053716E+00  0.35040928373E-01  0.13161464499E+00  0.18014298445E-01 0.  0.
         14    1    1    2    0    0  0.10820220040E-01 -0.13590396123E-01 -0.16853578555E-01  0.24203700928E-01  0.00000000000E+00 0. -1.
     999901    1    3    3    0    0 -0.60485033058E-01 -0.10175014104E+00 -0.18187349817E-01  0.88811165408E+00  0.88000000000E+00 0.  1.
        -11    1    4    4    0    0  0.33218128321E-01  0.74402615219E-01  0.31471789226E-01  0.87349458148E-01  0.51100000000E-03 0. -1.
         11    1    4    4    0    0  0.16446684697E-01  0.40937921946E-01  0.35691391470E-02  0.44265186840E-01  0.51100000000E-03 0.  1.
</event>
<event>
 8    1  0.1090774E+005  0.1043930E+01  0.7957747E-01            NaN
         13   -1    0    0    0    0  0.00000000000E+00  0.00000000000E+00  0.74505805969E-08  0.10566000000E+00  0.10566000000E+00 0. -1.
     999900   -1    0    0    0    0 -0.00000000000E+00 -0.00000000000E+00 -0.74505805969E-08  0.93827000000E+00  0.93827000000E+00 0.  1.
     999902    2    1    2    0    0  0.20341995493E-01 -0.13760211651E-01  0.96817679720E-03  0.10193520104E+01  0.10190556627E+01 0.  0.
     999903    2    3    3    0    0  0.75749319482E-01  0.90727600291E-01  0.50457136962E-01  0.13006193875E+00  0.20018201339E-01 0.  0.
         14    1    1    2    0    0 -0.20341995493E-01  0.13760211651E-01 -0.96817679720E-03  0.24577989577E-01  0.00000000000E+00 0.  1.
     999901    1    3    3    0    0 -0.55407323989E-01 -0.10448781194E+00 -0.49488960164E-01  0.88929007167E+00  0.88000000000E+00 0.  1.
        -11    1    4    4    0    0  0.32571585853E-01  0.53645372186E-01  0.22741630512E-01  0.66754603146E-01  0.51100000000E-03 0. -1.
         11    1    4    4    0    0  0.43177733630E-01  0.37082228105E-01  0.27715506450E-01  0.63307335605E-01  0.51100000000E-03 0.  1.
</event>
<event>
 8    1  0.1090774E+005  0.1043930E+01  0.7957747E-01            NaN
         13   -1    0    0    0    0  0.00000000000E+00  0.00000000000E+00  0.74505805969E-08  0.10566000000E+00  0.10566000000E+00 0. -1.
     999900   -1    0    0    0    0 -0.00000000000E+00 -0.00000000000E+00 -0.74505805969E-08  0.93827000000E+00  0.93827000000E+00 0.  1.
     999902    2    1    2    0    0 -0.12844511118E-01 -0.58728258007E-03 -0.18616624784E-01  0.10213046804E+01  0.10210540364E+01 0.  0.
     999903    2    3    3    0    0 -0.97818843672E-01  0.58323056247E-01  0.62444873869E-01  0.13155076403E+00  0.20883873595E-01 0.  0.
         14    1    1    2    0    0  0.12844511118E-01  0.58728258007E-03  0.18616624784E-01  0.22625319557E-01  0.00000000000E+00 0. -1.
     999901    1    3    3    0    0  0.84974332553E-01 -0.58910338827E-01 -0.81061498653E-01  0.88975391642E+00  0.88000000000E+00 0.  1.
        -11    1    4    4    0    0 -0.29270486636E-01  0.27616834060E-01  0.27232417516E-01  0.48593380168E-01  0.51100000000E-03 0.  1.
         11    1    4    4    0    0 -0.68548357036E-01  0.30706222187E-01  0.35212456353E-01  0.82957383859E-01  0.51100000000E-03 0. -1.
</event>
<event>
 8    1  0.1090774E+005  0.1043930E+01  0.7957747E-01            NaN
         13   -1    0    0    0    0  0.00000000000E+00  0.00000000000E+00  0.74505805969E-08  0.10566000000E+00  0.10566000000E+00 0.  1.
     999900   -1    0    0    0    0 -0.00000000000E+00 -0.00000000000E+00 -0.74505805969E-08  0.93827000000E+00  0.93827000000E+00 0. -1.
     999902    2    1    2    0    0  0.20831654551E-01  0.72150226883E-02  0.41669698030E-02  0.10214939125E+01  0.10212474897E+01 0.  0.
     999903    2    3    3    0    0 -0.11511703990E+00  0.24306404246E-01 -0.49644486322E-01  0.12926645517E+00  0.20062583277E-01 0.  0.
         14    1    1    2    0    0 -0.20831654551E-01 -0.72150226883E-02 -0.41669698030E-02  0.22436087472E-01  0.00000000000E+00 0.  1.
     999901    1    3    3    0    0  0.13594869445E+00 -0.17091381557E-01  0.53811456125E-01  0.89222745735E+00  0.88000000000E+00 0.  1.
        -11    1    4    4    0    0 -0.10694846551E+00  0.22867339534E-01 -0.39800821154E-01  0.11638408816E+00  0.51100000000E-03 0. -1.
         11    1    4    4    0    0 -0.81685743959E-02  0.14390647114E-02 -0.98436651683E-02  0.12882367013E-01  0.51100000000E-03 0.  1.
</event>
<event>
 8    1  0.1090774E+005  0.1043930E+01  0.7957747E-01            NaN
         13   -1    0    0    0    0  0.00000000000E+00  0.00000000000E+00  0.74505805969E-08  0.10566000000E+00  0.10566000000E+00 0. -1.
     999900   -1    0    0    0    0 -0.00000000000E+00 -0.00000000000E+00 -0.74505805969E-08  0.93827000000E+00  0.93827000000E+00 0.  1.
     999902    2    1    2    0    0 -0.77137529199E-02  0.21825786175E-01  0.46447840217E-02  0.10203198127E+01  0.10200466064E+01 0.  0.
     999903    2    3    3    0    0 -0.83126758344E-01 -0.71545810578E-01 -0.65686037804E-01  0.12939231790E+00  0.19971364648E-01 0.  0.
         14    1    1    2    0    0  0.77137529199E-02 -0.21825786175E-01 -0.46447840217E-02  0.23610187311E-01  0.00000000000E+00 0.  1.
     999901    1    3    3    0    0  0.75413005424E-01  0.93371596752E-01  0.70330821826E-01  0.89092749479E+00  0.88000000000E+00 0. -1.
        -11    1    4    4    0    0 -0.45849815044E-01 -0.41860105727E-01 -0.25746486306E-01  0.67213217965E-01  0.51100000000E-03 0. -1.
         11    1    4    4    0    0 -0.37276943299E-01 -0.29685704851E-01 -0.39939551498E-01  0.62179099938E-01  0.51100000000E-03 0.  1.
</event>
<event>
 8    1  0.1090774E+005  0.1043930E+01  0.7957747E-01            NaN
         13   -1    0    0    0    0  0.00000000000E+00  0.00000000000E+00  0.74505805969E-08  0.10566000000E+00  0.10566000000E+00 0. -1.
     999900   -1    0    0    0    0 -0.00000000000E+00 -0.00000000000E+00 -0.74505805969E-08  0.93827000000E+00  0.93827000000E+00 0.  1.
     999902    2    1    2    0    0  0.13948366426E-01  0.17533854417E-01  0.28371214353E-02  0.10213458853E+01  0.10210961636E+01 0.  0.
     999903    2    3    3    0    0 -0.34931364009E-01  0.12691879771E+00  0.46673150574E-02  0.13322559874E+00  0.19967346535E-01 0.  0.
         14    1    1    2    0    0 -0.13948366426E-01 -0.17533854417E-01 -0.28371214353E-02  0.22584114654E-01  0.00000000000E+00 0.  1.
     999901    1    3    3    0    0  0.48879730435E-01 -0.10938494329E+00 -0.18301936222E-02  0.88812028660E+00  0.88000000000E+00 0.  1.
        -11    1    4    4    0    0 -0.29191892894E-01  0.71969701043E-01 -0.11071808032E-02  0.77674265038E-01  0.51100000000E-03 0. -1.
         11    1    4    4    0    0 -0.57394711144E-02  0.54949096665E-01  0.57744958607E-02  0.55551333705E-01  0.51100000000E-03 0.  1.
</event>
<event>
 8    1  0.1090774E+005  0.1043930E+01  0.7957747E-01            NaN
         13   -1    0    0    0    0  0.00000000000E+00  0.00000000000E+00  0.74505805969E-08  0.10566000000E+00  0.10566000000E+00 0.  1.
     999900   -1    0    0    0    0 -0.00000000000E+00 -0.00000000000E+00 -0.74505805969E-08  0.93827000000E+00  0.93827000000E+00 0. -1.
     999902    2    1    2    0    0 -0.18889007562E-01 -0.83422581978E-02 -0.11785252724E-01  0.10201543810E+01  0.10198772872E+01 0.  0.
     999903    2    3    3    0    0  0.18304670421E-01  0.11278326274E+00 -0.58534646422E-01  0.12985091174E+00  0.19489205624E-01 0.  0.
         14    1    1    2    0    0  0.18889007562E-01  0.83422581978E-02  0.11785252724E-01  0.23775619031E-01  0.00000000000E+00 0. -1.
     999901    1    3    3    0    0 -0.37193677983E-01 -0.12112552094E+00  0.46749393698E-01  0.89030346923E+00  0.88000000000E+00 0.  1.
        -11    1    4    4    0    0  0.12336846423E-01  0.75516259016E-01 -0.49190224583E-01  0.90966161131E-01  0.51100000000E-03 0. -1.
         11    1    4    4    0    0  0.59678239979E-02  0.37267003722E-01 -0.93444218397E-02  0.38884750613E-01  0.51100000000E-03 0.  1.
</event>
<event>
 8    1  0.1090774E+005  0.1043930E+01  0.7957747E-01            NaN
         13   -1    0    0    0    0  0.00000000000E+00  0.00000000000E+00  0.74505805969E-08  0.10566000000E+00  0.10566000000E+00 0. -1.
     999900   -1    0    0    0    0 -0.00000000000E+00 -0.00000000000E+00 -0.74505805969E-08  0.93827000000E+00  0.93827000000E+00 0.  1.
     999902    2    1    2    0    0  0.78056741182E-03 -0.79858237445E-03  0.21530622282E-01  0.10223704380E+01  0.10221430906E+01 0.  0.
     999903    2    3    3    0    0  0.18799790211E-02  0.12061757438E+00  0.53515229166E-01  0.13345755871E+00  0.19872258413E-01 0.  0.
         14    1    1    2    0    0 -0.78056741182E-03  0.79858237445E-03 -0.21530622282E-01  0.21559562035E-01  0.00000000000E+00 0.  1.
     999901    1    3    3    0    0 -0.10994116093E-02 -0.12141615675E+00 -0.31984606884E-01  0.88891287925E+00  0.88000000000E+00 0. -1.
        -11    1    4    4    0    0  0.79115092296E-02  0.31483197784E-01  0.92796042413E-02  0.33766194586E-01  0.51100000000E-03 0. -1.
         11    1    4    4    0    0 -0.60315302084E-02  0.89134376594E-01  0.44235624925E-01  0.99691364124E-01  0.51100000000E-03 0.  1.
</event>
<event>
 8    1  0.1090774E+005  0.1043930E+01  0.7957747E-01            NaN
         13   -1    0    0    0    0  0.00000000000E+00  0.00000000000E+00  0.74505805969E-08  0.10566000000E+00  0.10566000000E+00 0. -1.
     999900   -1    0    0    0    0 -0.00000000000E+00 -0.00000000000E+00 -0.74505805969E-08  0.93827000000E+00  0.93827000000E+00 0. -1.
     999902    2    1    2    0    0 -0.14085937024E-01 -0.17310278971E-01 -0.78780866198E-02  0.10202630689E+01  0.10199885323E+01 0.  0.
     999903    2    3    3    0    0  0.61377583738E-01 -0.11449842883E+00  0.55213796859E-02  0.13160125180E+00  0.20280676797E-01 0.  0.
         14    1    1    2    0    0  0.14085937024E-01  0.17310278971E-01  0.78780866198E-02  0.23666931121E-01  0.00000000000E+00 0. -1.
     999901    1    3    3    0    0 -0.75463520762E-01  0.97188149858E-01 -0.13399466306E-01  0.88866181708E+00  0.88000000000E+00 0.  1.
        -11    1    4    4    0    0  0.33962372843E-01 -0.58931771452E-01  0.12793483894E-01  0.69212215733E-01  0.51100000000E-03 0. -1.
         11    1    4    4    0    0  0.27415210895E-01 -0.55566657377E-01 -0.72721042076E-02  0.62389036065E-01  0.51100000000E-03 0.  1.
</event>
<event>
 8    1  0.1090774E+005  0.1043930E+01  0.7957747E-01            NaN
         13   -1    0    0    0    0  0.00000000000E+00  0.00000000000E+00  0.74505805969E-08  0.10566000000E+00  0.10566000000E+00 0. -1.
     999900   -1    0    0    0    0 -0.00000000000E+00 -0.00000000000E+00 -0.74505805969E-08  0.93827000000E+00  0.93827000000E+00 0. -1.
     999902    2    1    2    0    0  0.96382068403E-02 -0.20855255360E-01  0.60434007453E-02  0.10201737503E+01  0.10198971131E+01 0.  0.
     999903    2    3    3    0    0 -0.96876499017E-01 -0.78940488671E-01  0.36047266130E-01  0.13134333406E+00  0.18303256369E-01 0.  0.
         14    1    1    2    0    0 -0.96382068403E-02  0.20855255360E-01 -0.60434007453E-02  0.23756249700E-01  0.00000000000E+00 0.  1.
     999901    1    3    3    0    0  0.10651470586E+00  0.58085233311E-01 -0.30003865385E-01  0.88883041624E+00  0.88000000000E+00 0. -1.
        -11    1    4    4    0    0 -0.57435532011E-01 -0.53142584053E-01  0.14775536176E-01  0.79633863196E-01  0.51100000000E-03 0.  1.
         11    1    4    4    0    0 -0.39440967005E-01 -0.25797904618E-01  0.21271729954E-01  0.51709470866E-01  0.51100000000E-03 0. -1.
</event>
<event>
 8    1  0.1090774E+005  0.1043930E+01  0.7957747E-01            NaN
         13   -1    0    0    0    0  0.00000000000E+00  0.00000000000E+00  0.74505805969E-08  0.10566000000E+00  0.10566000000E+00 0.  1.
     999900   -1    0    0    0    0 -0.00000000000E+00 -0.00000000000E+00 -0.74505805969E-08  0.93827000000E+00  0.93827000000E+00 0. -1.
     999902    2    1    2    0    0  0.15139123757E-01 -0.15516969501E-01 -0.80744375721E-02  0.10207963459E+01  0.10205341806E+01 0.  0.
     999903    2    3    3    0    0  0.23745900444E-01 -0.12468553517E+00 -0.35109246281E-01  0.13359696964E+00  0.22475334304E-01 0.  0.
         14    1    1    2    0    0 -0.15139123757E-01  0.15516969501E-01  0.80744375721E-02  0.23133654115E-01  0.00000000000E+00 0.  1.
     999901    1    3    3    0    0 -0.86067766868E-02  0.10916856567E+00  0.27034808709E-01  0.88719937625E+00  0.88000000000E+00 0.  1.
        -11    1    4    4    0    0  0.10220545891E-01 -0.33614202110E-01 -0.19581230197E-01  0.40225114528E-01  0.51100000000E-03 0. -1.
         11    1    4    4    0    0  0.13525354553E-01 -0.91071333062E-01 -0.15528016085E-01  0.93371855107E-01  0.51100000000E-03 0.  1.
</event>
<event>
 8    1  0.1090774E+005  0.1043930E+01  0.7957747E-01            NaN
         13   -1    0    0    0    0  0.00000000000E+00  0.00000000000E+00  0.74505805969E-08  0.10566000000E+00  0.10566000000E+00 0. -1.
     999900   -1    0    0    0    0 -0.00000000000E+00 -0.00000000000E+00 -0.74505805969E-08  0.93827000000E+00  0.93827000000E+00 0. -1.
     999902    2    1    2    0    0 -0.15566791507E-01  0.11441068167E-01  0.12677425350E-01  0.10208228550E+01  0.10205612971E+01 0.  0.
     999903    2    3    3    0    0  0.20571739628E-01  0.11948005118E+00 -0.46790138629E-01  0.13148894328E+00  0.20033622513E-01 0.  0.
         14    1    1    2    0    0  0.15566791507E-01 -0.11441068167E-01 -0.12677425350E-01  0.23107145045E-01  0.00000000000E+00 0.  1.
     999901    1    3    3    0    0 -0.36138531134E-01 -0.10803898302E+00  0.59467563979E-01  0.88933391167E+00  0.88000000000E+00 0.  1.
        -11    1    4    4    0    0  0.51566254426E-02  0.75220158780E-01 -0.22417616309E-01  0.78660496533E-01  0.51100000000E-03 0.  1.
         11    1    4    4    0    0  0.15415114185E-01  0.44259892402E-01 -0.24372522320E-01  0.52828446750E-01  0.51100000000E-03 0. -1.
</event>
<event>
 8    1  0.1090774E+005  0.1043930E+01  0.7957747E-01            NaN
         13   -1    0    0    0    0  0.00000000000E+00  0.00000000000E+00  0.74505805969E-08  0.10566000000E+00  0.10566000000E+00 0.  1.
     999900   -1    0    0    0    0 -0.00000000000E+00 -0.00000000000E+00 -0.74505805969E-08  0.93827000000E+00  0.93827000000E+00 0.  1.
     999902    2    1    2    0    0 -0.20469162933E-01 -0.10984369543E-02  0.13572293664E-01  0.10193454449E+01  0.10190489368E+01 0.  0.
     999903    2    3    3    0    0 -0.12715993325E+00  0.25521965562E-01  0.18223123114E-01  0.13248965248E+00  0.20010158673E-01 0.  0.
         14    1    1    2    0    0  0.20469162933E-01  0.10984369543E-02 -0.13572293664E-01  0.24584555115E-01  0.00000000000E+00 0. -1.
     999901    1    3    3    0    0  0.10669077031E+00 -0.26620402517E-01 -0.46508294505E-02  0.88685579240E+00  0.88000000000E+00 0.  1.
        -11    1    4    4    0    0 -0.73546901353E-01  0.24005204355E-01  0.14582465433E-01  0.78729320801E-01  0.51100000000E-03 0.  1.
         11    1    4    4    0    0 -0.53613031893E-01  0.15167612072E-02  0.36406576815E-02  0.53760331683E-01  0.51100000000E-03 0. -1.
</event>
<event>
 8    1  0.1090774E+005  0.1043930E+01  0.7957747E-01            NaN
         13   -1    0    0    0    0  0.00000000000E+00  0.00000000000E+00  0.74505805969E-08  0.10566000000E+00  0.10566000000E+00 0.  1.
     999900   -1    0    0    0    0 -0.00000000000E+00 -0.00000000000E+00 -0.74505805969E-08  0.93827000000E+00  0.93827000000E+00 0. -1.
     999902    2    1    2    0    0 -0.97690585250E-02 -0.59658675868E-02 -0.20426732548E-01  0.10205146742E+01  0.10202460109E+01 0.  0.
     999903    2    3    3    0    0 -0.11500176080E+00  0.34717444275E-01  0.47072670935E-01  0.13074772550E+00  0.21176058467E-01 0.  0.
         14    1    1    2    0    0  0.97690585250E-02  0.59658675868E-02  0.20426732548E-01  0.23415325817E-01  0.00000000000E+00 0.  1.
     999901    1    3    3    0    0  0.10523270227E+00 -0.40683311862E-01 -0.67499403483E-01  0.88976694868E+00  0.88000000000E+00 0. -1.
        -11    1    4    4    0    0 -0.77077054780E-01  0.14817440199E-01  0.23893287884E-01  0.82046201829E-01  0.51100000000E-03 0. -1.
         11    1    4    4    0    0 -0.37924706016E-01  0.19900004076E-01  0.23179383051E-01  0.48701523675E-01  0.51100000000E-03 0.  1.
</event>
<event>
 8    1  0.1090774E+005  0.1043930E+01  0.7957747E-01            NaN
         13   -1    0    0    0    0  0.00000000000E+00  0.00000000000E+00  0.74505805969E-08  0.10566000000E+00  0.10566000000E+00 0.  1.
     999900   -1    0    0    0    0 -0.00000000000E+00 -0.00000000000E+00 -0.74505805969E-08  0.93827000000E+00  0.93827000000E+00 0.  1.
     999902    2    1    2    0    0  0.30192573996E-02 -0.22933335677E-01 -0.24443268007E-02  0.10206699799E+01  0.10204049095E+01 0.  0.
     999903    2    3    3    0    0 -0.70612663841E-01  0.11829962492E-01 -0.10742433914E+00  0.13069753669E+00  0.20390221928E-01 0.  0.
         14    1    1    2    0    0 -0.30192573996E-02  0.22933335677E-01  0.24443268007E-02  0.23260020078E-01  0.00000000000E+00 0.  1.
     999901    1    3    3    0    0  0.73631921241E-01 -0.34763298169E-01  0.10498001234E+00  0.88997244323E+00  0.88000000000E+00 0. -1.
        -11    1    4    4    0    0 -0.11731139337E-01 -0.29191243906E-02 -0.29753762529E-01  0.32119906958E-01  0.51100000000E-03 0. -1.
         11    1    4    4    0    0 -0.58881524504E-01  0.14749086882E-01 -0.77670576607E-01  0.98577629730E-01  0.51100000000E-03 0.  1.
</event>
<event>
 8    1  0.1090774E+005  0.1043930E+01  0.7957747E-01            NaN
         13   -1    0    0    0    0  0.00000000000E+00  0.00000000000E+00  0.74505805969E-08  0.10566000000E+00  0.10566000000E+00 0.  1.
     999900   -1    0    0    0    0 -0.00000000000E+00 -0.00000000000E+00 -0.74505805969E-08  0.93827000000E+00  0.93827000000E+00 0.  1.
     999902    2    1    2    0    0  0.18155233753E-01  0.50487872698E-02  0.14264992998E-01  0.10202954323E+01  0.10200216549E+01 0.  0.
     999903    2    3    3    0    0 -0.11985906776E+00  0.33636284315E-01 -0.23526963444E-01  0.12827893896E+00  0.20109013538E-01 0.  0.
         14    1    1    2    0    0 -0.18155233753E-01 -0.50487872698E-02 -0.14264992998E-01  0.23634567708E-01  0.00000000000E+00 0.  1.
     999901    1    3    3    0    0  0.13801430151E+00 -0.28587497045E-01  0.37791956443E-01  0.89201649333E+00  0.88000000000E+00 0.  1.
        -11    1    4    4    0    0 -0.11448232563E+00  0.29946047656E-01 -0.26219524328E-01  0.12120516998E+00  0.51100000000E-03 0. -1.
         11    1    4    4    0    0 -0.53767421205E-02  0.36902366591E-02  0.26925608838E-02  0.70737689772E-02  0.51100000000E-03 0.  1.
</event>
<event>
 7    1  0.1090774E+005  0.1043930E+01  0.7957747E-01            NaN
         13   -1    0    0    0    0  0.00000000000E+00  0.00000000000E+00  0.74505805969E-08  0.10566000000E+00  0.10566000000E+00 0. -1.
     999900   -1    0    0    0    0 -0.00000000000E+00 -0.00000000000E+00 -0.74505805969E-08  0.93827000000E+00  0.93827000000E+00 0.  1.
     999903    2    1    2    0    0  0.92926783219E-02 -0.37498089323E-01  0.48470168784E-01  0.65287469686E-01  0.20509409128E-01 0.  0.
         14    1    1    2    0    0 -0.18334199318E-01  0.68405407960E-01 -0.67518116610E-01  0.97847528192E-01  0.00000000000E+00 0.  1.
     999901    1    1    2    0    0  0.90415209957E-02 -0.30907318637E-01  0.19047947826E-01  0.88079500212E+00  0.88000000000E+00 0. -1.
        -11    1    3    3    0    0 -0.42034825038E-03 -0.26996101735E-01  0.20629006396E-01  0.33982101575E-01  0.51100000000E-03 0. -1.
         11    1    3    3    0    0  0.97130265722E-02 -0.10501987588E-01  0.27841162387E-01  0.31305368111E-01  0.51100000000E-03 0.  1.
</event>
<event>
 7    1  0.1090774E+005  0.1043930E+01  0.7957747E-01            NaN
         13   -1    0    0    0    0  0.00000000000E+00  0.00000000000E+00  0.74505805969E-08  0.10566000000E+00  0.10566000000E+00 0.  1.
     999900   -1    0    0    0    0 -0.00000000000E+00 -0.00000000000E+00 -0.74505805969E-08  0.93827000000E+00  0.93827000000E+00 0.  1.
     999903    2    1    2    0    0  0.57432405904E-01 -0.25742652656E-01  0.86530907625E-01  0.10876905917E+00  0.19543409240E-01 0.  0.
         14    1    1    2    0    0  0.41482080118E-02 -0.22762941504E-01 -0.45119600638E-01  0.50706385173E-01  0.00000000000E+00 0. -1.
     999901    1    1    2    0    0 -0.61580613916E-01  0.48505594160E-01 -0.41411306987E-01  0.88445455566E+00  0.88000000000E+00 0. -1.
        -11    1    3    3    0    0  0.28031335762E-01 -0.21515246319E-01  0.38218467007E-01  0.52053568083E-01  0.51100000000E-03 0. -1.
         11    1    3    3    0    0  0.29401070142E-01 -0.42274063367E-02  0.48312440618E-01  0.56715491088E-01  0.51100000000E-03 0.  1.
</event>
<event>
 8    1  0.1090774E+005  0.1043930E+01  0.7957747E-01            NaN
         13   -1    0    0    0    0  0.00000000000E+00  0.00000000000E+00  0.74505805969E-08  0.10566000000E+00  0.10566000000E+00 0.  1.
     999900   -1    0    0    0    0 -0.00000000000E+00 -0.00000000000E+00 -0.74505805969E-08  0.93827000000E+00  0.93827000000E+00 0. -1.
     999902    2    1    2    0    0 -0.23121916837E-01 -0.28341566059E-02 -0.62069961560E-02  0.10198222775E+01  0.10195372948E+01 0.  0.
     999903    2    3    3    0    0 -0.95283095506E-02 -0.19532291078E-01 -0.12751592114E+00  0.13123943437E+00  0.22162579100E-01 0.  0.
         14    1    1    2    0    0  0.23121916837E-01  0.28341566059E-02  0.62069961560E-02  0.24107722480E-01  0.00000000000E+00 0. -1.
     999901    1    3    3    0    0 -0.13593607286E-01  0.16698134472E-01  0.12130892499E+00  0.88858284315E+00  0.88000000000E+00 0.  1.
        -11    1    4    4    0    0 -0.64486293944E-02 -0.59721799432E-03 -0.75796750753E-01  0.76074634643E-01  0.51100000000E-03 0. -1.
         11    1    4    4    0    0 -0.30796801562E-02 -0.18935073084E-01 -0.51719170389E-01  0.55164799730E-01  0.51100000000E-03 0.  1.
</event>
<event>
 8    1  0.1090774E+005  0.1043930E+01  0.7957747E-01            NaN
         13   -1    0    0    0    0  0.00000000000E+00  0.00000000000E+00  0.74505805969E-08  0.10566000000E+00  0.10566000000E+00 0. -1.
     999900   -1    0    0    0    0 -0.00000000000E+00 -0.00000000000E+00 -0.74505805969E-08  0.93827000000E+00  0.93827000000E+00 0.  1.
     999902    2    1    2    0    0  0.19590660275E-01 -0.19340333583E-02 -0.13102637071E-01  0.10202823034E+01  0.10200082182E+01 0.  0.
     999903    2    3    3    0    0 -0.81337842271E-01  0.61196580425E-01  0.74958201969E-01  0.12791088502E+00  0.19534493136E-01 0.  0.
         14    1    1    2    0    0 -0.19590660275E-01  0.19340333583E-02  0.13102637071E-01  0.23647696575E-01  0.00000000000E+00 0. -1.
     999901    1    3    3    0    0  0.10092850255E+00 -0.63130613783E-01 -0.88060839040E-01  0.89237141841E+00  0.88000000000E+00 0.  1.
        -11    1    4    4    0    0 -0.71696037002E-02  0.11031534014E-01  0.43090245798E-02  0.13853763884E-01  0.51100000000E-03 0.  1.
         11    1    4    4    0    0 -0.74168238570E-01  0.50165046410E-01  0.70649177389E-01  0.11405712113E+00  0.51100000000E-03 0. -1.
</event>
<event>
 8    1  0.1090774E+005  0.1043930E+01  0.7957747E-01            NaN
         13   -1    0    0    0    0  0.00000000000E+00  0.00000000000E+00  0.74505805969E-08  0.10566000000E+00  0.10566000000E+00 0. -1.
     999900   -1    0    0    0    0 -0.00000000000E+00 -0.00000000000E+00 -0.74505805969E-08  0.93827000000E+00  0.93827000000E+00 0.  1.
     999902    2    1    2    0    0 -0.22482944703E-01 -0.16932528160E-02 -0.33251922301E-02  0.10211395017E+01  0.10208851430E+01 0.  0.
     999903    2    3    3    0    0 -0.32992899336E-01 -0.11107820336E+00 -0.60877510286E-01  0.13243944218E+00  0.20180087125E-01 0.  0.
         14    1    1    2    0    0  0.22482944703E-01  0.16932528160E-02  0.33251922301E-02  0.22790498261E-01  0.00000000000E+00 0. -1.
     999901    1    3    3    0    0  0.10509954633E-01  0.10938495055E+00  0.57552318056E-01  0.88870005956E+00  0.88000000000E+00 0. -1.
        -11    1    4    4    0    0 -0.10092214220E-01 -0.32484670064E-01 -0.28591747020E-01  0.44439348507E-01  0.51100000000E-03 0.  1.
         11    1    4    4    0    0 -0.22900685116E-01 -0.78593533299E-01 -0.32285763266E-01  0.88000093670E-01  0.51100000000E-03 0. -1.
</event>
<event>
 8    1  0.1090774E+005  0.1043930E+01  0.7957747E-01            NaN
         13   -1    0    0    0    0  0.00000000000E+00  0.00000000000E+00  0.74505805969E-08  0.10566000000E+00  0.10566000000E+00 0.  1.
     999900   -1    0    0    0    0 -0.00000000000E+00 -0.00000000000E+00 -0.74505805969E-08  0.93827000000E+00  0.93827000000E+00 0.  1.
     999902    2    1    2    0    0 -0.24738619653E-02  0.13660524213E-01 -0.20234751467E-01  0.10193907441E+01  0.10190953410E+01 0.  0.
     999903    2    3    3    0    0  0.58406078791E-01 -0.10633314510E+00 -0.39157981827E-01  0.12896223121E+00  0.19491068480E-01 0.  0.
         14    1    1    2    0    0  0.24738619653E-02 -0.13660524213E-01  0.20234751467E-01  0.24539255933E-01  0.00000000000E+00 0.  1.
     999901    1    3    3    0    0 -0.60879940756E-01  0.11999366932E+00  0.18923230359E-01  0.89042851286E+00  0.88000000000E+00 0. -1.
        -11    1    4    4    0    0  0.47946867649E-01 -0.98207270344E-01 -0.37790737977E-01  0.11563723909E+00  0.51100000000E-03 0. -1.
         11    1    4    4    0    0  0.10459211143E-01 -0.81258747589E-02 -0.13672438498E-02  0.13324992123E-01  0.51100000000E-03 0.  1.
</event>
<event>
 8    1  0.1090774E+005  0.1043930E+01  0.7957747E-01            NaN
         13   -1    0    0    0    0  0.00000000000E+00  0.00000000000E+00  0.74505805969E-08  0.10566000000E+00  0.10566000000E+00 0.  1.
     999900   -1    0    0    0    0 -0.00000000000E+00 -0.00000000000E+00 -0.74505805969E-08  0.93827000000E+00  0.93827000000E+00 0.  1.
     999902    2    1    2    0    0 -0.18023217914E-01 -0.59722734564E-02 -0.27401654033E-01  0.10105930074E+01  0.10100430048E+01 0.  0.
     999903    2    3    3    0    0  0.10384559641E+00 -0.10901003099E-01  0.52676375501E-01  0.11857911112E+00  0.19582269934E-01 0.  0.
         14    1    1    2    0    0  0.18023217914E-01  0.59722734564E-02  0.27401654033E-01  0.33336992635E-01  0.00000000000E+00 0.  1.
     999901    1    3    3    0    0 -0.12186881432E+00  0.49287296429E-02 -0.80078029534E-01  0.89201389625E+00  0.88000000000E+00 0.  1.
        -11    1    4    4    0    0  0.48780752324E-01 -0.14689659481E-01  0.27750865267E-01  0.58014821701E-01  0.51100000000E-03 0.  1.
         11    1    4    4    0    0  0.55064844086E-01  0.37886563813E-02  0.24925510234E-01  0.60564289419E-01  0.51100000000E-03 0. -1.
</event>
<event>
 8    1  0.1090774E+005  0.1043930E+01  0.7957747E-01            NaN
         13   -1    0    0    0    0  0.00000000000E+00  0.00000000000E+00  0.74505805969E-08  0.10566000000E+00  0.10566000000E+00 0. -1.
     999900   -1    0    0    0    0 -0.00000000000E+00 -0.00000000000E+00 -0.74505805969E-08  0.93827000000E+00  0.93827000000E+00 0.  1.
     999902    2    1    2    0    0  0.24316404060E-02 -0.17001733565E-01  0.15604741652E-01  0.10207248329E+01  0.10204610255E+01 0.  0.
     999903    2    3    3    0    0 -0.62031678210E-01  0.52992391544E-01 -0.97196283098E-01  0.12843633234E+00  0.19815432234E-01 0.  0.
         14    1    1    2    0    0 -0.24316404060E-02  0.17001733565E-01 -0.15604741652E-01  0.23205167125E-01  0.00000000000E+00 0.  1.
     999901    1    3    3    0    0  0.64463318616E-01 -0.69994125108E-01  0.11280102475E+00  0.89228850053E+00  0.88000000000E+00 0. -1.
        -11    1    4    4    0    0 -0.12651246479E-01  0.32638408050E-02 -0.22400468303E-01  0.25937401479E-01  0.51100000000E-03 0. -1.
         11    1    4    4    0    0 -0.49380431732E-01  0.49728550739E-01 -0.74795814795E-01  0.10249893086E+00  0.51100000000E-03 0.  1.
</event>
<event>
 8    1  0.1090774E+005  0.1043930E+01  0.7957747E-01            NaN
         13   -1    0    0    0    0  0.00000000000E+00  0.00000000000E+00  0.74505805969E-08  0.10566000000E+00  0.10566000000E+00 0.  1.
     999900   -1    0    0    0    0 -0.00000000000E+00 -0.00000000000E+00 -0.74505805969E-08  0.93827000000E+00  0.93827000000E+00 0.  1.
     999902    2    1    2    0    0  0.20736570844E-01  0.75834904096E-02 -0.63686616975E-02  0.10209501273E+01  0.10206914754E+01 0.  0.
     999903    2    3    3    0    0  0.11673783389E+00 -0.58653257471E-01 -0.17412392027E-01  0.13318579301E+00  0.19166053032E-01 0.  0.
         14    1    1    2    0    0 -0.20736570844E-01 -0.75834904096E-02  0.63686616975E-02  0.22979872693E-01  0.00000000000E+00 0.  1.
     999901    1    3    3    0    0 -0.96001263048E-01  0.66236747880E-01  0.11043730330E-01  0.88776433430E+00  0.88000000000E+00 0.  1.
        -11    1    4    4    0    0  0.34556733576E-01 -0.12514765034E-01 -0.12446287894E-01  0.38806679614E-01  0.51100000000E-03 0. -1.
         11    1    4    4    0    0  0.82181100316E-01 -0.46138492437E-01 -0.49661041337E-02  0.94379113393E-01  0.51100000000E-03 0.  1.
</event>
<event>
 8    1  0.1090774E+005  0.1043930E+01  0.7957747E-01            NaN
         13   -1    0    0    0    0  0.00000000000E+00  0.00000000000E+00  0.74505805969E-08  0.10566000000E+00  0.10566000000E+00 0. -1.
     999900   -1    0    0    0    0 -0.00000000000E+00 -0.00000000000E+00 -0.74505805969E-08  0.93827000000E+00  0.93827000000E+00 0. -1.
     999902    2    1    2    0    0 -0.50086423250E-02 -0.30345524462E-01 -0.68207835578E-02  0.10124266598E+01  0.10119364017E+01 0.  0.
     999903    2    3    3    0    0 -0.71003150491E-01  0.30621597764E-01 -0.94305412459E-01  0.12353643861E+00  0.19713224422E-01 0.  0.
         14    1    1    2    0    0  0.50086423250E-02  0.30345524462E-01  0.68207835578E-02  0.31503340159E-01  0.00000000000E+00 0. -1.
     999901    1    3    3    0    0  0.65994508166E-01 -0.60967122226E-01  0.87484628901E-01  0.88889022123E+00  0.88000000000E+00 0. -1.
        -11    1    4    4    0    0 -0.60254515822E-01  0.18510568166E-01 -0.68711019763E-01  0.93245445833E-01  0.51100000000E-03 0. -1.
         11    1    4    4    0    0 -0.10748634669E-01  0.12111029598E-01 -0.25594392695E-01  0.30290992780E-01  0.51100000000E-03 0.  1.
</event>
<event>
 8    1  0.1090774E+005  0.1043930E+01  0.7957747E-01            NaN
         13   -1    0    0    0    0  0.00000000000E+00  0.00000000000E+00  0.74505805969E-08  0.10566000000E+00  0.10566000000E+00 0.  1.
     999900   -1    0    0    0    0 -0.00000000000E+00 -0.00000000000E+00 -0.74505805969E-08  0.93827000000E+00  0.93827000000E+00 0. -1.
     999902    2    1    2    0    0 -0.22750609275E-01 -0.42703980816E-02 -0.38461936727E-02  0.10204647123E+01  0.10201948879E+01 0.  0.
     999903    2    3    3    0    0  0.12570663351E+00  0.62023496374E-02  0.88806377142E-02  0.12787790775E+00  0.20815059792E-01 0.  0.
         14    1    1    2    0    0  0.22750609275E-01  0.42703980816E-02  0.38461936727E-02  0.23465287724E-01  0.00000000000E+00 0.  1.
     999901    1    3    3    0    0 -0.14845724279E+00 -0.10472747719E-01 -0.12726831387E-01  0.89258680453E+00  0.88000000000E+00 0. -1.
        -11    1    4    4    0    0  0.11084275919E+00  0.70352592969E-03  0.27586088635E-02  0.11088049088E+00  0.51100000000E-03 0.  1.
         11    1    4    4    0    0  0.14863874321E-01  0.54988237077E-02  0.61220288507E-02  0.16997416870E-01  0.51100000000E-03 0. -1.
</event>
<event>
 8    1  0.1090774E+005  0.1043930E+01  0.7957747E-01            NaN
         13   -1    0    0    0    0  0.00000000000E+00  0.00000000000E+00  0.74505805969E-08  0.10566000000E+00  0.10566000000E+00 0. -1.
     999900   -1    0    0    0    0 -0.00000000000E+00 -0.00000000000E+00 -0.74505805969E-08  0.93827000000E+00  0.93827000000E+00 0. -1.
     999902    2    1    2    0    0  0.15382475897E-01  0.16238841120E-01  0.73719426584E-02  0.10203786505E+01  0.10201068200E+01 0.  0.
     999903    2    3    3    0    0  0.23385321196E-01 -0.91264407251E-01 -0.84560831247E-01  0.12904670958E+00  0.25029059015E-01 0.  0.
         14    1    1    2    0    0 -0.15382475897E-01 -0.16238841120E-01 -0.73719426584E-02  0.23551349519E-01  0.00000000000E+00 0.  1.
     999901    1    3    3    0    0 -0.80028452990E-02  0.10750324837E+00  0.91932773905E-01  0.89133194090E+00  0.88000000000E+00 0.  1.
        -11    1    4    4    0    0 -0.29131478003E-02 -0.35148258299E-01 -0.26434347706E-01  0.44078592890E-01  0.51100000000E-03 0.  1.
         11    1    4    4    0    0  0.26298468996E-01 -0.56116148952E-01 -0.58126483541E-01  0.84968116695E-01  0.51100000000E-03 0. -1.
</event>
<event>
 8    1  0.1090774E+005  0.1043930E+01  0.7957747E-01            NaN
         13   -1    0    0    0    0  0.00000000000E+00  0.00000000000E+00  0.74505805969E-08  0.10566000000E+00  0.10566000000E+00 0.  1.
     999900   -1    0    0    0    0 -0.00000000000E+00 -0.00000000000E+00 -0.74505805969E-08  0.93827000000E+00  0.93827000000E+00 0.  1.
     999902    2    1    2    0    0 -0.17594291203E-01 -0.79210334448E-02 -0.13193267464E-01  0.10205555661E+01  0.10202878512E+01 0.  0.
     999903    2    3    3    0    0  0.31041254658E-01 -0.11248122384E+00 -0.52048256843E-01  0.13218179345E+00  0.33873592532E-01 0.  0.
         14    1    1    2    0    0  0.17594291203E-01  0.79210334448E-02  0.13193267464E-01  0.23374433900E-01  0.00000000000E+00 0.  1.
     999901    1    3    3    0    0 -0.48635545861E-01  0.10456019040E+00  0.38854989379E-01  0.88837377265E+00  0.88000000000E+00 0. -1.
        -11    1    4    4    0    0 -0.46732608802E-02 -0.43408340127E-01 -0.16431774577E-01  0.46651770562E-01  0.51100000000E-03 0.  1.
         11    1    4    4    0    0  0.35714515538E-01 -0.69072883715E-01 -0.35616482267E-01  0.85530022886E-01  0.51100000000E-03 0. -1.
</event>
<event>
 8    1  0.1090774E+005  0.1043930E+01  0.7957747E-01            NaN
         13   -1    0    0    0    0  0.00000000000E+00  0.00000000000E+00  0.74505805969E-08  0.10566000000E+00  0.10566000000E+00 0.  1.
     999900   -1    0    0    0    0 -0.00000000000E+00 -0.00000000000E+00 -0.74505805969E-08  0.93827000000E+00  0.93827000000E+00 0. -1.
     999902    2    1    2    0    0 -0.12368608130E-01 -0.18934984583E-01  0.61895939469E-02  0.10204816060E+01  0.10202121745E+01 0.  0.
     999903    2    3    3    0    0 -0.45539076947E-01 -0.10080576332E+00  0.72125460149E-01  0.13360470199E+00  0.20310710044E-01 0.  0.
         14    1    1    2    0    0  0.12368608130E-01  0.18934984583E-01 -0.61895939469E-02  0.23448394006E-01  0.00000000000E+00 0.  1.
     999901    1    3    3    0    0  0.33170468817E-01  0.81870778740E-01 -0.65935866202E-01  0.88687690401E+00  0.88000000000E+00 0.  1.
        -11    1    4    4    0    0 -0.31125371779E-01 -0.53776593075E-01  0.30763380791E-01  0.69335109792E-01  0.51100000000E-03 0. -1.
         11    1    4    4    0    0 -0.14413705168E-01 -0.47029170249E-01  0.41362079358E-01  0.64269592193E-01  0.51100000000E-03 0.  1.
</event>
<event>
 8    1  0.1090774E+005  0.1043930E+01  0.7957747E-01            NaN
         13   -1    0    0    0    0  0.00000000000E+00  0.00000000000E+00  0.74505805969E-08  0.10566000000E+00  0.10566000000E+00 0. -1.
     999900   -1    0    0    0    0 -0.00000000000E+00 -0.00000000000E+00 -0.74505805969E-08  0.93827000000E+00  0.93827000000E+00 0. -1.
     999902    2    1    2    0    0 -0.14202470761E-01  0.18700993940E-01 -0.55546563834E-02  0.10197992819E+01  0.10195137487E+01 0.  0.
     999903    2    3    3    0    0 -0.27771042849E-01  0.10564712148E-01  0.12500999618E+00  0.13002547144E+00  0.19906785632E-01 0.  0.
         14    1    1    2    0    0  0.14202470761E-01 -0.18700993940E-01  0.55546563834E-02  0.24130718132E-01  0.00000000000E+00 0. -1.
     999901    1    3    3    0    0  0.13568572089E-01  0.81362817919E-02 -0.13056465256E+00  0.88977381043E+00  0.88000000000E+00 0. -1.
        -11    1    4    4    0    0 -0.18668512622E-01 -0.32099017985E-02  0.58375078301E-01  0.61373672863E-01  0.51100000000E-03 0. -1.
         11    1    4    4    0    0 -0.91025302277E-02  0.13774613946E-01  0.66634917877E-01  0.68651798574E-01  0.51100000000E-03 0.  1.
</event>
<event>
 8    1  0.1090774E+005  0.1043930E+01  0.7957747E-01            NaN
         13   -1    0    0    0    0  0.00000000000E+00  0.00000000000E+00  0.74505805969E-08  0.10566000000E+00  0.10566000000E+00 0.  1.
     999900   -1    0    0    0    0 -0.00000000000E+00 -0.00000000000E+00 -0.74505805969E-08  0.93827000000E+00  0.93827000000E+00 0.  1.
     999902    2    1    2    0    0  0.83486643468E-02 -0.16607388079E-01 -0.13552601987E-01  0.10209261187E+01  0.10206669198E+01 0.  0.
     999903    2    3    3    0    0 -0.46794660226E-02  0.12100004195E+00  0.36175481813E-01  0.12874989209E+00  0.24595968673E-01 0.  0.
         14    1    1    2    0    0 -0.83486643468E-02  0.16607388079E-01  0.13552601987E-01  0.23003881320E-01  0.00000000000E+00 0.  1.
     999901    1    3    3    0    0  0.13028130369E-01 -0.13760743002E+00 -0.49728083800E-01  0.89217622659E+00  0.88000000000E+00 0. -1.
        -11    1    4    4    0    0 -0.10189398282E-01  0.25928934741E-01  0.12952555964E-01  0.30727240702E-01  0.51100000000E-03 0.  1.
         11    1    4    4    0    0  0.55099322591E-02  0.95071107205E-01  0.23222925849E-01  0.98022651385E-01  0.51100000000E-03 0. -1.
</event>
<event>
 8    1  0.1090774E+005  0.1043930E+01  0.7957747E-01            NaN
         13   -1    0    0    0    0  0.00000000000E+00  0.00000000000E+00  0.74505805969E-08  0.10566000000E+00  0.10566000000E+00 0.  1.
     999900   -1    0    0    0    0 -0.00000000000E+00 -0.00000000000E+00 -0.74505805969E-08  0.93827000000E+00  0.93827000000E+00 0. -1.
     999902    2    1    2    0    0  0.10227466368E-02  0.22726270807E-01 -0.61837084981E-02  0.10203552753E+01  0.10200828986E+01 0.  0.
     999903    2    3    3    0    0 -0.28868161033E-01 -0.11173641689E+00 -0.52146282147E-01  0.12845492269E+00  0.21518244393E-01 0.  0.
         14    1    1    2    0    0 -0.10227466368E-02 -0.22726270807E-01  0.61837084981E-02  0.23574724734E-01  0.00000000000E+00 0.  1.
     999901    1    3    3    0    0  0.29890907670E-01  0.13446268770E+00  0.45962573649E-01  0.89190035257E+00  0.88000000000E+00 0.  1.
        -11    1    4    4    0    0 -0.25785517927E-01 -0.63764444926E-01 -0.24605762844E-01  0.73051365885E-01  0.51100000000E-03 0.  1.
         11    1    4    4    0    0 -0.30826431052E-02 -0.47971971963E-01 -0.27540519303E-01  0.55403556808E-01  0.51100000000E-03 0. -1.
</event>
<event>
 8    1  0.1090774E+005  0.1043930E+01  0.7957747E-01            NaN
         13   -1    0    0    0    0  0.00000000000E+00  0.00000000000E+00  0.74505805969E-08  0.10566000000E+00  0.10566000000E+00 0. -1.
     999900   -1    0    0    0    0 -0.00000000000E+00 -0.00000000000E+00 -0.74505805969E-08  0.93827000000E+00  0.93827000000E+00 0.  1.
     999902    2    1    2    0    0 -0.23953013492E-02  0.17872975426E-01 -0.16822110556E-01  0.10192690162E+01  0.10189706390E+01 0.  0.
     999903    2    3    3    0    0  0.87658557369E-01 -0.68193774896E-01 -0.62963949468E-01  0.12929921205E+00  0.20479592006E-01 0.  0.
         14    1    1    2    0    0  0.23953013492E-02 -0.17872975426E-01  0.16822110556E-01  0.24660983814E-01  0.00000000000E+00 0.  1.
     999901    1    3    3    0    0 -0.90053858719E-01  0.86066750322E-01  0.46141838912E-01  0.88996980414E+00  0.88000000000E+00 0. -1.
        -11    1    4    4    0    0  0.65457564898E-01 -0.44216998097E-01 -0.35473183318E-01  0.86593553910E-01  0.51100000000E-03 0.  1.
         11    1    4    4    0    0  0.22200992471E-01 -0.23976776799E-01 -0.27490766150E-01  0.42705658136E-01  0.51100000000E-03 0. -1.
</event>
<event>
 8    1  0.1090774E+005  0.1043930E+01  0.7957747E-01            NaN
         13   -1    0    0    0    0  0.00000000000E+00  0.00000000000E+00  0.74505805969E-08  0.10566000000E+00  0.10566000000E+00 0. -1.
     999900   -1    0    0    0    0 -0.00000000000E+00 -0.00000000000E+00 -0.74505805969E-08  0.93827000000E+00  0.93827000000E+00 0.  1.
     999902    2    1    2    0    0 -0.21272209001E-01 -0.10855440704E-01 -0.14289743114E-02  0.10200053383E+01  0.10197247181E+01 0.  0.
     999903    2    3    3    0    0  0.71179477088E-01  0.31144524210E-01  0.10022731337E+00  0.12835220390E+00  0.19805922182E-01 0.  0.
         14    1    1    2    0    0  0.21272209001E-01  0.10855440704E-01  0.14289743114E-02  0.23924661675E-01  0.00000000000E+00 0.  1.
     999901    1    3    3    0    0 -0.92451686089E-01 -0.41999964915E-01 -0.10165628768E+00  0.89165313443E+00  0.88000000000E+00 0.  1.
        -11    1    4    4    0    0  0.52877880260E-01  0.31147187906E-01  0.82892893278E-01  0.10313927677E+00  0.51100000000E-03 0.  1.
         11    1    4    4    0    0  0.18301596828E-01 -0.26636956019E-05  0.17334420088E-01  0.25212927128E-01  0.51100000000E-03 0. -1.
</event>
<event>
 8    1  0.1090774E+005  0.1043930E+01  0.7957747E-01            NaN
         13   -1    0    0    0    0  0.00000000000E+00  0.00000000000E+00  0.74505805969E-08  0.10566000000E+00  0.10566000000E+00 0. -1.
     999900   -1    0    0    0    0 -0.00000000000E+00 -0.00000000000E+00 -0.74505805969E-08  0.93827000000E+00  0.93827000000E+00 0.  1.
     999902    2    1    2    0    0  0.84494740427E-02  0.14018226520E-01 -0.15516987513E-01  0.10213760383E+01  0.10211269904E+01 0.  0.
     999903    2    3    3    0    0  0.49203553703E-01  0.12256643154E+00 -0.74484158723E-02  0.13373381891E+00  0.19640152279E-01 0.  0.
         14    1    1    2    0    0 -0.84494740427E-02 -0.14018226520E-01  0.15516987513E-01  0.22553961688E-01  0.00000000000E+00 0. -1.
     999901    1    3    3    0    0 -0.40754079661E-01 -0.10854820503E+00 -0.80685716405E-02  0.88764221941E+00  0.88000000000E+00 0.  1.
        -11    1    4    4    0    0  0.50452221804E-01  0.11800192401E+00 -0.51276530310E-02  0.12843844714E+00  0.51100000000E-03 0. -1.
         11    1    4    4    0    0 -0.12486681004E-02  0.45645075301E-02 -0.23207628412E-02  0.52953717700E-02  0.51100000000E-03 0.  1.
</event>
<event>
 8    1  0.1090774E+005  0.1043930E+01  0.7957747E-01            NaN
         13   -1    0    0    0    0  0.00000000000E+00  0.00000000000E+00  0.74505805969E-08  0.10566000000E+00  0.10566000000E+00 0.  1.
     999900   -1    0    0    0    0 -0.00000000000E+00 -0.00000000000E+00 -0.74505805969E-08  0.93827000000E+00  0.93827000000E+00 0. -1.
     999902    2    1    2    0    0  0.22170121328E-01  0.74915428087E-02 -0.76999426905E-02  0.10192941194E+01  0.10189963569E+01 0.  0.
     999903    2    3    3    0    0  0.39311437105E-01  0.12121010782E+00 -0.26794078445E-01  0.13160592939E+00  0.19102844994E-01 0.  0.
         14    1    1    2    0    0 -0.22170121328E-01 -0.74915428087E-02  0.76999426905E-02  0.24635880557E-01  0.00000000000E+00 0. -1.
     999901    1    3    3    0    0 -0.17141315777E-01 -0.11371856501E+00  0.19094135755E-01  0.88768819005E+00  0.88000000000E+00 0.  1.
        -11    1    4    4    0    0  0.18276142319E-01  0.77614418657E-01 -0.23294195068E-01  0.83071631779E-01  0.51100000000E-03 0.  1.
         11    1    4    4    0    0  0.21035294786E-01  0.43595689162E-01 -0.34998833776E-02  0.48534297615E-01  0.51100000000E-03 0. -1.
</event>
<event>
 8    1  0.1090774E+005  0.1043930E+01  0.7957747E-01            NaN
         13   -1    0    0    0    0  0.00000000000E+00  0.00000000000E+00  0.74505805969E-08  0.10566000000E+00  0.10566000000E+00 0. -1.
     999900   -1    0    0    0    0 -0.00000000000E+00 -0.00000000000E+00 -0.74505805969E-08  0.93827000000E+00  0.93827000000E+00 0. -1.
     999902    2    1    2    0    0 -0.17587579786E-01 -0.96187953685E-03 -0.15860247142E-01  0.10202277720E+01  0.10199524063E+01 0.  0.
     999903    2    3    3    0    0 -0.10349992885E+00 -0.62061359473E-01  0.48497382433E-01  0.13160187617E+00  0.20080092094E-01 0.  0.
         14    1    1    2    0    0  0.17587579786E-01  0.96187953685E-03  0.15860247142E-01  0.23702228046E-01  0.00000000000E+00 0. -1.
     999901    1    3    3    0    0  0.85912349059E-01  0.61099479936E-01 -0.64357629575E-01  0.88862589578E+00  0.88000000000E+00 0. -1.
        -11    1    4    4    0    0 -0.76726500877E-01 -0.35299613422E-01  0.34654083466E-01  0.91291759028E-01  0.51100000000E-03 0.  1.
         11    1    4    4    0    0 -0.26773427968E-01 -0.26761746051E-01  0.13843298967E-01  0.40310117144E-01  0.51100000000E-03 0. -1.
</event>
<event>
 8    1  0.1090774E+005  0.1043930E+01  0.7957747E-01            NaN
         13   -1    0    0    0    0  0.00000000000E+00  0.00000000000E+00  0.74505805969E-08  0.10566000000E+00  0.10566000000E+00 0.  1.
     999900   -1    0    0    0    0 -0.00000000000E+00 -0.00000000000E+00 -0.74505805969E-08  0.93827000000E+00  0.93827000000E+00 0. -1.
     999902    2    1    2    0    0 -0.43003263177E-02 -0.23787169044E-01 -0.21569700701E-01  0.10115328673E+01  0.10110139304E+01 0.  0.
     999903    2    3    3    0    0  0.33463673503E-01 -0.59127345075E-01 -0.10507431538E+00  0.12606797903E+00  0.15383861827E-01 0.  0.
         14    1    1    2    0    0  0.43003263177E-02  0.23787169044E-01  0.21569700701E-01  0.32397132681E-01  0.00000000000E+00 0.  1.
     999901    1    3    3    0    0 -0.37763999821E-01  0.35340176030E-01  0.83504614674E-01  0.88546488829E+00  0.88000000000E+00 0.  1.
        -11    1    4    4    0    0  0.27100759866E-01 -0.36567097490E-01 -0.60584691414E-01  0.75778425419E-01  0.51100000000E-03 0. -1.
         11    1    4    4    0    0  0.63629136372E-02 -0.22560247585E-01 -0.44489623961E-01  0.50289553610E-01  0.51100000000E-03 0.  1.
</event>
<event>
 8    1  0.1090774E+005  0.1043930E+01  0.7957747E-01            NaN
         13   -1    0    0    0    0  0.00000000000E+00  0.00000000000E+00  0.74505805969E-08  0.10566000000E+00  0.10566000000E+00 0.  1.
     999900   -1    0    0    0    0 -0.00000000000E+00 -0.00000000000E+00 -0.74505805969E-08  0.93827000000E+00  0.93827000000E+00 0. -1.
     999902    2    1    2    0    0  0.50497490024E-02 -0.15879340405E-01  0.15222510437E-01  0.10213605906E+01  0.10211111976E+01 0.  0.
     999903    2    3    3    0    0 -0.21155142307E-01  0.91814950196E-01 -0.85277473836E-01  0.12873244664E+00  0.20549212818E-01 0.  0.
         14    1    1    2    0    0 -0.50497490024E-02  0.15879340405E-01 -0.15222510437E-01  0.22569409401E-01  0.00000000000E+00 0. -1.
     999901    1    3    3    0    0  0.26204891309E-01 -0.10769429060E+00  0.10049998427E+00  0.89262814396E+00  0.88000000000E+00 0.  1.
        -11    1    4    4    0    0 -0.10716245695E-01  0.15084424415E-01 -0.21823141966E-01  0.28616226655E-01  0.51100000000E-03 0. -1.
         11    1    4    4    0    0 -0.10438896612E-01  0.76730525781E-01 -0.63454331870E-01  0.10011621998E+00  0.51100000000E-03 0.  1.
</event>
<event>
 8    1  0.1090774E+005  0.1043930E+01  0.7957747E-01            NaN
         13   -1    0    0    0    0  0.00000000000E+00  0.00000000000E+00  0.74505805969E-08  0.10566000000E+00  0.10566000000E+00 0. -1.
     999900   -1    0    0    0    0 -0.00000000000E+00 -0.00000000000E+00 -0.74505805969E-08  0.93827000000E+00  0.93827000000E+00 0. -1.
     999902    2    1    2    0    0 -0.37296060884E-02  0.13813242347E-01  0.19180787231E-01  0.10200005574E+01  0.10197198237E+01 0.  0.
     999903    2    3    3    0    0  0.65997672502E-01 -0.87378462287E-01  0.67639372282E-01  0.13014108030E+00  0.19259482133E-01 0.  0.
         14    1    1    2    0    0  0.37296060884E-02 -0.13813242347E-01 -0.19180787231E-01  0.23929442628E-01  0.00000000000E+00 0.  1.
     999901    1    3    3    0    0 -0.69727278591E-01  0.10119170463E+00 -0.48458585052E-01  0.88985947707E+00  0.88000000000E+00 0. -1.
        -11    1    4    4    0    0  0.11692914156E-01 -0.55024198506E-02  0.79765475699E-02  0.15194976071E-01  0.51100000000E-03 0.  1.
         11    1    4    4    0    0  0.54304758346E-01 -0.81876042436E-01  0.59662824712E-01  0.11494610423E+00  0.51100000000E-03 0. -1.
</event>
<event>
 8    1  0.1090774E+005  0.1043930E+01  0.7957747E-01            NaN
         13   -1    0    0    0    0  0.00000000000E+00  0.00000000000E+00  0.74505805969E-08  0.10566000000E+00  0.10566000000E+00 0.  1.
     999900   -1    0    0    0    0 -0.00000000000E+00 -0.00000000000E+00 -0.74505805969E-08  0.93827000000E+00  0.93827000000E+00 0.  1.
     999902    2    1    2    0    0  0.16385833042E-01 -0.13831728791E-01  0.80872121771E-02  0.10210124249E+01  0.10207551894E+01 0.  0.
     999903    2    3    3    0    0 -0.99638355243E-01  0.78285680918E-01  0.46609486301E-02  0.12862295351E+00  0.21579852991E-01 0.  0.
         14    1    1    2    0    0 -0.16385833042E-01  0.13831728791E-01 -0.80872121771E-02  0.22917575060E-01  0.00000000000E+00 0. -1.
     999901    1    3    3    0    0  0.11602418828E+00 -0.92117409709E-01  0.34262635470E-02  0.89238947143E+00  0.88000000000E+00 0.  1.
        -11    1    4    4    0    0 -0.83519237740E-01  0.59232355195E-01  0.10672279198E-01  0.10294704289E+00  0.51100000000E-03 0.  1.
         11    1    4    4    0    0 -0.16119117503E-01  0.19053325723E-01 -0.60113305676E-02  0.25675910624E-01  0.51100000000E-03 0. -1.
</event>
<event>
 8    1  0.1090774E+005  0.1043930E+01  0.7957747E-01            NaN
         13   -1    0    0    0    0  0.00000000000E+00  0.00000000000E+00  0.74505805969E-08  0.10566000000E+00  0.10566000000E+00 0. -1.
     999900   -1    0    0    0    0 -0.00000000000E+00 -0.00000000000E+00 -0.74505805969E-08  0.93827000000E+00  0.93827000000E+00 0.  1.
     999902    2    1    2    0    0 -0.14476596704E-01  0.34092522256E-02  0.12112713980E-01  0.10247489496E+01  0.10245694203E+01 0.  0.
     999903    2    3    3    0    0 -0.13360439062E+00  0.14729353104E-01  0.14565150971E-01  0.13664670867E+00  0.19826556243E-01 0.  0.
         14    1    1    2    0    0  0.14476596704E-01 -0.34092522256E-02 -0.12112713980E-01  0.19181050358E-01  0.00000000000E+00 0.  1.
     999901    1    3    3    0    0  0.11912779392E+00 -0.11320100879E-01 -0.24524369910E-02  0.88810224097E+00  0.88000000000E+00 0. -1.
        -11    1    4    4    0    0 -0.97625025989E-01  0.18810167257E-01  0.14202243303E-01  0.10043123482E+00  0.51100000000E-03 0. -1.
         11    1    4    4    0    0 -0.35979364631E-01 -0.40808141533E-02  0.36290766773E-03  0.36215473852E-01  0.51100000000E-03 0.  1.
</event>
<event>
 8    1  0.1090774E+005  0.1043930E+01  0.7957747E-01            NaN
         13   -1    0    0    0    0  0.00000000000E+00  0.00000000000E+00  0.74505805969E-08  0.10566000000E+00  0.10566000000E+00 0. -1.
     999900   -1    0    0    0    0 -0.00000000000E+00 -0.00000000000E+00 -0.74505805969E-08  0.93827000000E+00  0.93827000000E+00 0. -1.
     999902    2    1    2    0    0  0.18706735654E-01  0.26862023936E-01 -0.49411584471E-02  0.10108252370E+01  0.10102829972E+01 0.  0.
     999903    2    3    3    0    0  0.44729192179E-01 -0.81727802631E-01 -0.74829694821E-01  0.12102001885E+00  0.19137068180E-01 0.  0.
         14    1    1    2    0    0 -0.18706735654E-01 -0.26862023936E-01  0.49411584471E-02  0.33104763034E-01  0.00000000000E+00 0. -1.
     999901    1    3    3    0    0 -0.26022456525E-01  0.10858982657E+00  0.69888536374E-01  0.88980521812E+00  0.88000000000E+00 0. -1.
        -11    1    4    4    0    0  0.28396722064E-01 -0.67396031452E-01 -0.61208867218E-01  0.95369730138E-01  0.51100000000E-03 0.  1.
         11    1    4    4    0    0  0.16332470116E-01 -0.14331771178E-01 -0.13620827602E-01  0.25650288707E-01  0.51100000000E-03 0. -1.
</event>
<event>
 8    1  0.1090774E+005  0.1043930E+01  0.7957747E-01            NaN
         13   -1    0    0    0    0  0.00000000000E+00  0.00000000000E+00  0.74505805969E-08  0.10566000000E+00  0.10566000000E+00 0.  1.
     999900   -1    0    0    0    0 -0.00000000000E+00 -0.00000000000E+00 -0.74505805969E-08  0.93827000000E+00  0.93827000000E+00 0. -1.
     999902    2    1    2    0    0  0.14129882079E-02 -0.21138506371E-01  0.10738943402E-01  0.10201779918E+01  0.10199014546E+01 0.  0.
     999903    2    3    3    0    0  0.46193766951E-01 -0.23909933309E-01 -0.11719874580E+00  0.12979546095E+00  0.20143650410E-01 0.  0.
         14    1    1    2    0    0 -0.14129882079E-02  0.21138506371E-01 -0.10738943402E-01  0.23752008181E-01  0.00000000000E+00 0.  1.
     999901    1    3    3    0    0 -0.44780778743E-01  0.27714269383E-02  0.12793768920E+00  0.89038253087E+00  0.88000000000E+00 0.  1.
        -11    1    4    4    0    0  0.14542624435E-01 -0.15109917832E-01 -0.63158435468E-01  0.66551082892E-01  0.51100000000E-03 0. -1.
         11    1    4    4    0    0  0.31651142516E-01 -0.88000154772E-02 -0.54040310329E-01  0.63244378062E-01  0.51100000000E-03 0.  1.
</event>
<event>
 8    1  0.1090774E+005  0.1043930E+01  0.7957747E-01            NaN
         13   -1    0    0    0    0  0.00000000000E+00  0.00000000000E+00  0.74505805969E-08  0.10566000000E+00  0.10566000000E+00 0.  1.
     999900   -1    0    0    0    0 -0.00000000000E+00 -0.00000000000E+00 -0.74505805969E-08  0.93827000000E+00  0.93827000000E+00 0. -1.
     999902    2    1    2    0    0  0.15797025153E-01 -0.82553821649E-02 -0.15730312812E-01  0.10201573249E+01  0.10198803006E+01 0.  0.
     999903    2    3    3    0    0 -0.96003654834E-01 -0.18369045467E-01 -0.84246727265E-01  0.13038422056E+00  0.18665753206E-01 0.  0.
         14    1    1    2    0    0 -0.15797025153E-01  0.82553821649E-02  0.15730312812E-01  0.23772675061E-01  0.00000000000E+00 0.  1.
     999901    1    3    3    0    0  0.11180067999E+00  0.10113663302E-01  0.68516414453E-01  0.88977310438E+00  0.88000000000E+00 0.  1.
        -11    1    4    4    0    0 -0.22366402932E-01 -0.96950239823E-02 -0.13358645860E-01  0.27802230313E-01  0.51100000000E-03 0.  1.
         11    1    4    4    0    0 -0.73637251902E-01 -0.86740214849E-02 -0.70888081405E-01  0.10258199025E+00  0.51100000000E-03 0. -1.
</event>
<event>
 8    1  0.1090774E+005  0.1043930E+01  0.7957747E-01            NaN
         13   -1    0    0    0    0  0.00000000000E+00  0.00000000000E+00  0.74505805969E-08  0.10566000000E+00  0.10566000000E+00 0. -1.
     999900   -1    0    0    0    0 -0.00000000000E+00 -0.00000000000E+00 -0.74505805969E-08  0.93827000000E+00  0.93827000000E+00 0.  1.
     999902    2    1    2    0    0 -0.33085385533E-02  0.21729409791E-01  0.63372460560E-02  0.10210548090E+01  0.10207985348E+01 0.  0.
     999903    2    3    3    0    0 -0.12402465243E-01  0.10663563765E+00 -0.76082018579E-01  0.13308819799E+00  0.19975348059E-01 0.  0.
         14    1    1    2    0    0  0.33085385533E-02 -0.21729409791E-01 -0.63372460560E-02  0.22875191033E-01  0.00000000000E+00 0.  1.
     999901    1    3    3    0    0  0.90939266902E-02 -0.84906227863E-01  0.82419264635E-01  0.88796661098E+00  0.88000000000E+00 0.  1.
        -11    1    4    4    0    0 -0.26621698958E-02  0.89003572377E-01 -0.61716679237E-01  0.10834174016E+00  0.51100000000E-03 0.  1.
         11    1    4    4    0    0 -0.97402953476E-02  0.17632065278E-01 -0.14365339342E-01  0.24746457824E-01  0.51100000000E-03 0. -1.
</event>
<event>
 8    1  0.1090774E+005  0.1043930E+01  0.7957747E-01            NaN
         13   -1    0    0    0    0  0.00000000000E+00  0.00000000000E+00  0.74505805969E-08  0.10566000000E+00  0.10566000000E+00 0.  1.
     999900   -1    0    0    0    0 -0.00000000000E+00 -0.00000000000E+00 -0.74505805969E-08  0.93827000000E+00  0.93827000000E+00 0. -1.
     999902    2    1    2    0    0 -0.18762245137E-01 -0.11414368444E-01 -0.85027553255E-02  0.10203799151E+01  0.10201081142E+01 0.  0.
     999903    2    3    3    0    0  0.12601445328E-01 -0.10595652625E+00  0.73211653532E-01  0.13099858785E+00  0.20374050344E-01 0.  0.
         14    1    1    2    0    0  0.18762245137E-01  0.11414368444E-01  0.85027553255E-02  0.23550084876E-01  0.00000000000E+00 0.  1.
     999901    1    3    3    0    0 -0.31363690464E-01  0.94542157807E-01 -0.81714408857E-01  0.88938132727E+00  0.88000000000E+00 0. -1.
        -11    1    4    4    0    0  0.42977888729E-02 -0.59435832742E-01  0.28965119544E-01  0.66259553833E-01  0.51100000000E-03 0.  1.
         11    1    4    4    0    0  0.83036564549E-02 -0.46520693509E-01  0.44246533988E-01  0.64739034021E-01  0.51100000000E-03 0. -1.
</event>
<event>
 8    1  0.1090774E+005  0.1043930E+01  0.7957747E-01            NaN
         13   -1    0    0    0    0  0.00000000000E+00  0.00000000000E+00  0.74505805969E-08  0.10566000000E+00  0.10566000000E+00 0.  1.
     999900   -1    0    0    0    0 -0.00000000000E+00 -0.00000000000E+00 -0.74505805969E-08  0.93827000000E+00  0.93827000000E+00 0.  1.
     999902    2    1    2    0    0 -0.20805302394E-01 -0.11961481019E-01  0.23019822799E-02  0.10198211477E+01  0.10195361379E+01 0.  0.
     999903    2    3    3    0    0  0.68810139314E-01 -0.36861167106E-01 -0.10054918898E+00  0.12896241302E+00  0.20678096024E-01 0.  0.
         14    1    1    2    0    0  0.20805302394E-01  0.11961481019E-01 -0.23019822799E-02  0.24108852281E-01  0.00000000000E+00 0.  1.
     999901    1    3    3    0    0 -0.89615441709E-01  0.24899686087E-01  0.10285117126E+00  0.89085873470E+00  0.88000000000E+00 0. -1.
        -11    1    4    4    0    0  0.44651926190E-01 -0.12347473736E-01 -0.58167711861E-01  0.74363959310E-01  0.51100000000E-03 0. -1.
         11    1    4    4    0    0  0.24158213125E-01 -0.24513693370E-01 -0.42381477116E-01  0.54598453710E-01  0.51100000000E-03 0.  1.
</event>
<event>
 8    1  0.1090774E+005  0.1043930E+01  0.7957747E-01            NaN
         13   -1    0    0    0    0  0.00000000000E+00  0.00000000000E+00  0.74505805969E-08  0.10566000000E+00  0.10566000000E+00 0.  1.
     999900   -1    0    0    0    0 -0.00000000000E+00 -0.00000000000E+00 -0.74505805969E-08  0.93827000000E+00  0.93827000000E+00 0. -1.
     999902    2    1    2    0    0 -0.32790510383E-02  0.15811824127E-01 -0.17213526331E-01  0.10203276390E+01  0.10200546159E+01 0.  0.
     999903    2    3    3    0    0  0.11541400963E+00 -0.23169453322E-01  0.49318052151E-01  0.12901734867E+00  0.18867665553E-01 0.  0.
         14    1    1    2    0    0  0.32790510383E-02 -0.15811824127E-01  0.17213526331E-01  0.23602361041E-01  0.00000000000E+00 0.  1.
     999901    1    3    3    0    0 -0.11869306067E+00  0.38981277449E-01 -0.66531578482E-01  0.89131029029E+00  0.88000000000E+00 0. -1.
        -11    1    4    4    0    0  0.46103088019E-01 -0.87874503926E-02  0.98120267905E-02  0.47950505733E-01  0.51100000000E-03 0.  1.
         11    1    4    4    0    0  0.69310921611E-01 -0.14382002930E-01  0.39506025360E-01  0.81066842936E-01  0.51100000000E-03 0. -1.
</event>
<event>
 8    1  0.1090774E+005  0.1043930E+01  0.7957747E-01            NaN
         13   -1    0    0    0    0  0.00000000000E+00  0.00000000000E+00  0.74505805969E-08  0.10566000000E+00  0.10566000000E+00 0. -1.
     999900   -1    0    0    0    0 -0.00000000000E+00 -0.00000000000E+00 -0.74505805969E-08  0.93827000000E+00  0.93827000000E+00 0.  1.
     999902    2    1    2    0    0 -0.75706019206E-02  0.23182249660E-01 -0.68945003518E-02  0.10185870553E+01  0.10182717340E+01 0.  0.
     999903    2    3    3    0    0  0.85611052135E-01  0.47526227549E-01 -0.83142540790E-01  0.13005499980E+00  0.20337805484E-01 0.  0.
         14    1    1    2    0    0  0.75706019206E-02 -0.23182249660E-01  0.68945003518E-02  0.25342944735E-01  0.00000000000E+00 0. -1.
     999901    1    3    3    0    0 -0.93181654056E-01 -0.24343977889E-01  0.76248040439E-01  0.88853205546E+00  0.88000000000E+00 0. -1.
        -11    1    4    4    0    0  0.88060299950E-02  0.10472084742E-01 -0.55969229739E-02  0.14791801475E-01  0.51100000000E-03 0. -1.
         11    1    4    4    0    0  0.76805022140E-01  0.37054142807E-01 -0.77545617817E-01  0.11526319833E+00  0.51100000000E-03 0.  1.
</event>
<event>
 8    1  0.1090774E+005  0.1043930E+01  0.7957747E-01            NaN
         13   -1    0    0    0    0  0.00000000000E+00  0.00000000000E+00  0.74505805969E-08  0.10566000000E+00  0.10566000000E+00 0.  1.
     999900   -1    0    0    0    0 -0.00000000000E+00 -0.00000000000E+00 -0.74505805969E-08  0.93827000000E+00  0.93827000000E+00 0. -1.
     999902    2    1    2    0    0 -0.57669432568E-03 -0.22990581865E-01 -0.74128037012E-02  0.10197670306E+01  0.10194807245E+01 0.  0.
     999903    2    3    3    0    0 -0.77620056217E-01  0.99821588706E-01  0.13011695192E-03  0.12787275184E+00  0.19031579931E-01 0.  0.
         14    1    1    2    0    0  0.57669432568E-03  0.22990581865E-01  0.74128037012E-02  0.24162969386E-01  0.00000000000E+00 0. -1.
     999901    1    3    3    0    0  0.77043361891E-01 -0.12281217057E+00 -0.75429206531E-02  0.89189427877E+00  0.88000000000E+00 0.  1.
        -11    1    4    4    0    0 -0.57530041183E-01  0.75533965148E-01 -0.80944646776E-02  0.95293583252E-01  0.51100000000E-03 0. -1.
         11    1    4    4    0    0 -0.20090015034E-01  0.24287623558E-01  0.82245816296E-02  0.32579168592E-01  0.51100000000E-03 0.  1.
</event>
<event>
 8    1  0.1090774E+005  0.1043930E+01  0.7957747E-01            NaN
         13   -1    0    0    0    0  0.00000000000E+00  0.00000000000E+00  0.74505805969E-08  0.10566000000E+00  0.10566000000E+00 0. -1.
     999900   -1    0    0    0    0 -0.00000000000E+00 -0.00000000000E+00 -0.74505805969E-08  0.93827000000E+00  0.93827000000E+00 0. -1.
     999902    2    1    2    0    0  0.12773232946E-01 -0.27824489266E-02 -0.19220559161E-01  0.10206850565E+01  0.10204203336E+01 0.  0.
     999903    2    3    3    0    0  0.28694968172E-01  0.34161591154E-01 -0.12429457184E+00  0.13352164888E+00  0.19709759611E-01 0.  0.
         14    1    1    2    0    0 -0.12773232946E-01  0.27824489266E-02  0.19220559161E-01  0.23244943458E-01  0.00000000000E+00 0. -1.
     999901    1    3    3    0    0 -0.15921735225E-01 -0.36944040081E-01  0.10507401268E+00  0.88716340766E+00  0.88000000000E+00 0.  1.
        -11    1    4    4    0    0  0.20759668839E-01  0.14519338373E-01 -0.47241479113E-01  0.53607774687E-01  0.51100000000E-03 0.  1.
         11    1    4    4    0    0  0.79352993325E-02  0.19642252781E-01 -0.77053092723E-01  0.79913874196E-01  0.51100000000E-03 0. -1.
</event>
<event>
 8    1  0.1090774E+005  0.1043930E+01  0.7957747E-01            NaN
         13   -1    0    0    0    0  0.00000000000E+00  0.00000000000E+00  0.74505805969E-08  0.10566000000E+00  0.10566000000E+00 0. -1.
     999900   -1    0    0    0    0 -0.00000000000E+00 -0.00000000000E+00 -0.74505805969E-08  0.93827000000E+00  0.93827000000E+00 0.  1.
     999902    2    1    2    0    0 -0.10713948489E-01  0.18091774789E-01 -0.11291561794E-01  0.10200636979E+01  0.10197844613E+01 0.  0.
     999903    2    3    3    0    0  0.30107997131E-01  0.74322792351E-01  0.10046905850E+00  0.13027788390E+00  0.21164270913E-01 0.  0.
         14    1    1    2    0    0  0.10713948489E-01 -0.18091774789E-01  0.11291561794E-01  0.23866302080E-01  0.00000000000E+00 0. -1.
     999901    1    3    3    0    0 -0.40821945620E-01 -0.56231017561E-01 -0.11176062030E+00  0.88978581402E+00  0.88000000000E+00 0.  1.
        -11    1    4    4    0    0  0.32865764833E-01  0.70254339941E-01  0.97194946920E-01  0.12435010899E+00  0.51100000000E-03 0.  1.
         11    1    4    4    0    0 -0.27577677026E-02  0.40684524097E-02  0.32741115827E-02  0.59277749087E-02  0.51100000000E-03 0. -1.
</event>
<event>
 8    1  0.1090774E+005  0.1043930E+01  0.7957747E-01            NaN
         13   -1    0    0    0    0  0.00000000000E+00  0.00000000000E+00  0.74505805969E-08  0.10566000000E+00  0.10566000000E+00 0. -1.
     999900   -1    0    0    0    0 -0.00000000000E+00 -0.00000000000E+00 -0.74505805969E-08  0.93827000000E+00  0.93827000000E+00 0. -1.
     999902    2    1    2    0    0 -0.10837164329E-01  0.21722402184E-01  0.61304319496E-02  0.10188922468E+01  0.10185845677E+01 0.  0.
     999903    2    3    3    0    0  0.12302574941E+00  0.24353503300E-01 -0.19801703951E-01  0.12838751466E+00  0.19047789891E-01 0.  0.
         14    1    1    2    0    0  0.10837164329E-01 -0.21722402184E-01 -0.61304319496E-02  0.25037753158E-01  0.00000000000E+00 0.  1.
     999901    1    3    3    0    0 -0.13386291374E+00 -0.26311011165E-02  0.25932135901E-01  0.89050473218E+00  0.88000000000E+00 0. -1.
        -11    1    4    4    0    0  0.42186474653E-01  0.13198253634E-01 -0.14838680339E-01  0.46629819835E-01  0.51100000000E-03 0.  1.
         11    1    4    4    0    0  0.80839274759E-01  0.11155249666E-01 -0.49630236124E-02  0.81757694824E-01  0.51100000000E-03 0. -1.
</event>
<event>
 8    1  0.1090774E+005  0.1043930E+01  0.7957747E-01            NaN
         13   -1    0    0    0    0  0.00000000000E+00  0.00000000000E+00  0.74505805969E-08  0.10566000000E+00  0.10566000000E+00 0.  1.
     999900   -1    0    0    0    0 -0.00000000000E+00 -0.00000000000E+00 -0.74505805969E-08  0.93827000000E+00  0.93827000000E+00 0. -1.
     999902    2    1    2    0    0 -0.98125148930E-02 -0.17807191575E-01 -0.13121179373E-01  0.10197319243E+01  0.10194447756E+01 0.  0.
     999903    2    3    3    0    0  0.69897735671E-01  0.70184241551E-01  0.77024180208E-01  0.12719486499E+00  0.20839580848E-01 0.  0.
         14    1    1    2    0    0  0.98125148930E-02  0.17807191575E-01  0.13121179373E-01  0.24198075718E-01  0.00000000000E+00 0.  1.
     999901    1    3    3    0    0 -0.79710250564E-01 -0.87991433127E-01 -0.90145359581E-01  0.89253705929E+00  0.88000000000E+00 0. -1.
        -11    1    4    4    0    0  0.24194922471E-01  0.35451124831E-01  0.41390351991E-01  0.59628842720E-01  0.51100000000E-03 0. -1.
         11    1    4    4    0    0  0.45702813200E-01  0.34733116720E-01  0.35633828217E-01  0.67566022274E-01  0.51100000000E-03 0.  1.
</event>
<event>
 8    1  0.1090774E+005  0.1043930E+01  0.7957747E-01            NaN
         13   -1    0    0    0    0  0.00000000000E+00  0.00000000000E+00  0.74505805969E-08  0.10566000000E+00  0.10566000000E+00 0.  1.
     999900   -1    0    0    0    0 -0.00000000000E+00 -0.00000000000E+00 -0.74505805969E-08  0.93827000000E+00  0.93827000000E+00 0.  1.
     999902    2    1    2    0    0  0.10786256269E-01 -0.16486861407E-01 -0.14956781545E-01  0.10191940901E+01  0.10188938748E+01 0.  0.
     999903    2    3    3    0    0  0.88185017452E-01 -0.46958961016E-01  0.81054773518E-01  0.13007242477E+00  0.19162934365E-01 0.  0.
         14    1    1    2    0    0 -0.10786256269E-01  0.16486861407E-01  0.14956781545E-01  0.24735909879E-01  0.00000000000E+00 0.  1.
     999901    1    3    3    0    0 -0.77398761183E-01  0.30472099609E-01 -0.96011555063E-01  0.88912166535E+00  0.88000000000E+00 0.  1.
        -11    1    4    4    0    0  0.58033535880E-01 -0.37136048915E-01  0.46243609914E-01  0.82980178324E-01  0.51100000000E-03 0.  1.
         11    1    4    4    0    0  0.30151481571E-01 -0.98229121004E-02  0.34811163604E-01  0.47092246448E-01  0.51100000000E-03 0. -1.
</event>
<event>
 8    1  0.1090774E+005  0.1043930E+01  0.7957747E-01            NaN
         13   -1    0    0    0    0  0.00000000000E+00  0.00000000000E+00  0.74505805969E-08  0.10566000000E+00  0.10566000000E+00 0.  1.
     999900   -1    0    0    0    0 -0.00000000000E+00 -0.00000000000E+00 -0.74505805969E-08  0.93827000000E+00  0.93827000000E+00 0. -1.
     999902    2    1    2    0    0 -0.17680127352E-02 -0.32722711175E-02  0.22373215196E-01  0.10212497358E+01  0.10209978592E+01 0.  0.
     999903    2    3    3    0    0  0.67110743172E-01 -0.73270911215E-01 -0.81075096137E-01  0.12976465696E+00  0.19829692433E-01 0.  0.
         14    1    1    2    0    0  0.17680127352E-02  0.32722711175E-02 -0.22373215196E-01  0.22680264229E-01  0.00000000000E+00 0. -1.
     999901    1    3    3    0    0 -0.68878755907E-01  0.69998640097E-01  0.10344831133E+00  0.89148507881E+00  0.88000000000E+00 0.  1.
        -11    1    4    4    0    0  0.27792331956E-01 -0.16719779982E-01 -0.26452251550E-01  0.41856271827E-01  0.51100000000E-03 0.  1.
         11    1    4    4    0    0  0.39318411216E-01 -0.56551131232E-01 -0.54622844588E-01  0.87908385130E-01  0.51100000000E-03 0. -1.
</event>
<event>
 8    1  0.1090774E+005  0.1043930E+01  0.7957747E-01            NaN
         13   -1    0    0    0    0  0.00000000000E+00  0.00000000000E+00  0.74505805969E-08  0.10566000000E+00  0.10566000000E+00 0.  1.
     999900   -1    0    0    0    0 -0.00000000000E+00 -0.00000000000E+00 -0.74505805969E-08  0.93827000000E+00  0.93827000000E+00 0.  1.
     999902    2    1    2    0    0 -0.59386802317E-02  0.14914059312E-01 -0.17478513899E-01  0.10201982589E+01  0.10199221989E+01 0.  0.
     999903    2    3    3    0    0 -0.30761678195E-01  0.12576151631E+00 -0.21643607800E-01  0.13288732807E+00  0.20696771996E-01 0.  0.
         14    1    1    2    0    0  0.59386802317E-02 -0.14914059312E-01  0.17478513899E-01  0.23731741111E-01  0.00000000000E+00 0.  1.
     999901    1    3    3    0    0  0.24822997963E-01 -0.11084745700E+00  0.41650939008E-02  0.88731093082E+00  0.88000000000E+00 0. -1.
        -11    1    4    4    0    0 -0.91945559334E-02  0.42253693428E-01 -0.17146635651E-01  0.46520777103E-01  0.51100000000E-03 0. -1.
         11    1    4    4    0    0 -0.21567122261E-01  0.83507822885E-01 -0.44969721489E-02  0.86366550963E-01  0.51100000000E-03 0.  1.
</event>
<event>
 8    1  0.1090774E+005  0.1043930E+01  0.7957747E-01            NaN
         13   -1    0    0    0    0  0.00000000000E+00  0.00000000000E+00  0.74505805969E-08  0.10566000000E+00  0.10566000000E+00 0. -1.
     999900   -1    0    0    0    0 -0.00000000000E+00 -0.00000000000E+00 -0.74505805969E-08  0.93827000000E+00  0.93827000000E+00 0.  1.
     999902    2    1    2    0    0  0.67818671591E-03  0.18810771884E-01  0.14571519565E-01  0.10201259193E+01  0.10198481539E+01 0.  0.
     999903    2    3    3    0    0 -0.28414612821E-02  0.77776192575E-01 -0.10267491477E+00  0.13038661189E+00  0.20032982894E-01 0.  0.
         14    1    1    2    0    0 -0.67818671591E-03 -0.18810771884E-01 -0.14571519565E-01  0.23804080712E-01  0.00000000000E+00 0.  1.
     999901    1    3    3    0    0  0.35196479981E-02 -0.58965420691E-01  0.11724643434E+00  0.88973930740E+00  0.88000000000E+00 0. -1.
        -11    1    4    4    0    0  0.15102376746E-02  0.38426361347E-01 -0.35108895921E-01  0.52074578807E-01  0.51100000000E-03 0.  1.
         11    1    4    4    0    0 -0.43516989568E-02  0.39349831229E-01 -0.67566018852E-01  0.78312033086E-01  0.51100000000E-03 0. -1.
</event>
<event>
 8    1  0.1090774E+005  0.1043930E+01  0.7957747E-01            NaN
         13   -1    0    0    0    0  0.00000000000E+00  0.00000000000E+00  0.74505805969E-08  0.10566000000E+00  0.10566000000E+00 0.  1.
     999900   -1    0    0    0    0 -0.00000000000E+00 -0.00000000000E+00 -0.74505805969E-08  0.93827000000E+00  0.93827000000E+00 0. -1.
     999902    2    1    2    0    0  0.15586364295E-01  0.26600042589E-01  0.61027334773E-02  0.10125016629E+01  0.10120137731E+01 0.  0.
     999903    2    3    3    0    0 -0.42648709958E-01  0.11403431537E+00  0.25743213123E-01  0.12603574455E+00  0.19988955461E-01 0.  0.
         14    1    1    2    0    0 -0.15586364295E-01 -0.26600042589E-01 -0.61027334773E-02  0.31428337111E-01  0.00000000000E+00 0.  1.
     999901    1    3    3    0    0  0.58235074254E-01 -0.87434272780E-01 -0.19640479645E-01  0.88646591834E+00  0.88000000000E+00 0. -1.
        -11    1    4    4    0    0 -0.15144471868E-01  0.57897062615E-01  0.20665928529E-01  0.63314821413E-01  0.51100000000E-03 0.  1.
         11    1    4    4    0    0 -0.27504238091E-01  0.56137252754E-01  0.50772845934E-02  0.62720923140E-01  0.51100000000E-03 0. -1.
</event>
<event>
 8    1  0.1090774E+005  0.1043930E+01  0.7957747E-01            NaN
         13   -1    0    0    0    0  0.00000000000E+00  0.00000000000E+00  0.74505805969E-08  0.10566000000E+00  0.10566000000E+00 0. -1.
     999900   -1    0    0    0    0 -0.00000000000E+00 -0.00000000000E+00 -0.74505805969E-08  0.93827000000E+00  0.93827000000E+00 0.  1.
     999902    2    1    2    0    0 -0.11324784470E-01 -0.10034012064E-01  0.18301838614E-01  0.10201836437E+01  0.10199072396E+01 0.  0.
     999903    2    3    3    0    0  0.10748602526E-01 -0.67792661010E-01  0.11212142179E+00  0.13303911762E+00  0.20416078228E-01 0.  0.
         14    1    1    2    0    0  0.11324784470E-01  0.10034012064E-01 -0.18301838614E-01  0.23746356311E-01  0.00000000000E+00 0.  1.
     999901    1    3    3    0    0 -0.22073386996E-01  0.57758648947E-01 -0.93819583177E-01  0.88714452607E+00  0.88000000000E+00 0.  1.
        -11    1    4    4    0    0  0.76540188696E-02 -0.10814230312E-01  0.32319727952E-01  0.34933615873E-01  0.51100000000E-03 0.  1.
         11    1    4    4    0    0  0.30945836569E-02 -0.56978430699E-01  0.79801693839E-01  0.98105501749E-01  0.51100000000E-03 0. -1.
</event>
<event>
 8    1  0.1090774E+005  0.1043930E+01  0.7957747E-01            NaN
         13   -1    0    0    0    0  0.00000000000E+00  0.00000000000E+00  0.74505805969E-08  0.10566000000E+00  0.10566000000E+00 0. -1.
     999900   -1    0    0    0    0 -0.00000000000E+00 -0.00000000000E+00 -0.74505805969E-08  0.93827000000E+00  0.93827000000E+00 0.  1.
     999902    2    1    2    0    0  0.21066634352E-01 -0.12794328644E-01 -0.47736778240E-02  0.10188245040E+01  0.10185151369E+01 0.  0.
     999903    2    3    3    0    0 -0.12441002527E+00  0.80989563158E-02  0.91236597183E-02  0.12652795923E+00  0.19561079199E-01 0.  0.
         14    1    1    2    0    0 -0.21066634352E-01  0.12794328644E-01  0.47736778240E-02  0.25105495978E-01  0.00000000000E+00 0.  1.
     999901    1    3    3    0    0  0.14547665962E+00 -0.20893284960E-01 -0.13897337542E-01  0.89229654479E+00  0.88000000000E+00 0. -1.
        -11    1    4    4    0    0 -0.25069959213E-01 -0.37775137091E-02  0.75818078554E-02  0.26467289172E-01  0.51100000000E-03 0.  1.
         11    1    4    4    0    0 -0.99340066059E-01  0.11876470025E-01  0.15418518629E-02  0.10006067006E+00  0.51100000000E-03 0. -1.
</event>
<event>
 8    1  0.1090774E+005  0.1043930E+01  0.7957747E-01            NaN
         13   -1    0    0    0    0  0.00000000000E+00  0.00000000000E+00  0.74505805969E-08  0.10566000000E+00  0.10566000000E+00 0. -1.
     999900   -1    0    0    0    0 -0.00000000000E+00 -0.00000000000E+00 -0.74505805969E-08  0.93827000000E+00  0.93827000000E+00 0.  1.
     999902    2    1    2    0    0 -0.87801526722E-02 -0.30671365559E-02 -0.31998979882E-01  0.10106068381E+01  0.10100572994E+01 0.  0.
     999903    2    3    3    0    0 -0.76802829982E-01 -0.82339012294E-02 -0.96708388197E-01  0.12559774907E+00  0.21349716652E-01 0.  0.
         14    1    1    2    0    0  0.87801526722E-02  0.30671365559E-02  0.31998979882E-01  0.33323161931E-01  0.00000000000E+00 0. -1.
     999901    1    3    3    0    0  0.68022677310E-01  0.51667646735E-02  0.64709408315E-01  0.88500908900E+00  0.88000000000E+00 0. -1.
        -11    1    4    4    0    0 -0.33584366361E-01 -0.98484751300E-02 -0.30024738650E-01  0.46115595824E-01  0.51100000000E-03 0.  1.
         11    1    4    4    0    0 -0.43218463621E-01  0.16145739006E-02 -0.66683649547E-01  0.79482153246E-01  0.51100000000E-03 0. -1.
</event>
<event>
 8    1  0.1090774E+005  0.1043930E+01  0.7957747E-01            NaN
         13   -1    0    0    0    0  0.00000000000E+00  0.00000000000E+00  0.74505805969E-08  0.10566000000E+00  0.10566000000E+00 0. -1.
     999900   -1    0    0    0    0 -0.00000000000E+00 -0.00000000000E+00 -0.74505805969E-08  0.93827000000E+00  0.93827000000E+00 0. -1.
     999902    2    1    2    0    0  0.25878197764E-01 -0.14503718711E-01 -0.50923901138E-02  0.10138306410E+01  0.10133837364E+01 0.  0.
     999903    2    3    3    0    0  0.54648603516E-01  0.31411295692E-01  0.10639301706E+00  0.12514345147E+00  0.19190362240E-01 0.  0.
         14    1    1    2    0    0 -0.25878197764E-01  0.14503718711E-01  0.50923901138E-02  0.30099359014E-01  0.00000000000E+00 0. -1.
     999901    1    3    3    0    0 -0.28770405751E-01 -0.45915014403E-01 -0.11148540718E+00  0.88868718952E+00  0.88000000000E+00 0. -1.
        -11    1    4    4    0    0  0.47429527807E-01  0.19841659013E-01  0.91406873648E-01  0.10487482640E+00  0.51100000000E-03 0. -1.
         11    1    4    4    0    0  0.72190757089E-02  0.11569636679E-01  0.14986143415E-01  0.20268625075E-01  0.51100000000E-03 0.  1.
</event>
<event>
 8    1  0.1090774E+005  0.1043930E+01  0.7957747E-01            NaN
         13   -1    0    0    0    0  0.00000000000E+00  0.00000000000E+00  0.74505805969E-08  0.10566000000E+00  0.10566000000E+00 0.  1.
     999900   -1    0    0    0    0 -0.00000000000E+00 -0.00000000000E+00 -0.74505805969E-08  0.93827000000E+00  0.93827000000E+00 0. -1.
     999902    2    1    2    0    0  0.21616831932E-01  0.55519898387E-02  0.11257138410E-02  0.10215832050E+01  0.10213387614E+01 0.  0.
     999903    2    3    3    0    0 -0.99589837219E-02 -0.47827064348E-01 -0.11999317521E+00  0.13112481698E+00  0.20217469902E-01 0.  0.
         14    1    1    2    0    0 -0.21616831932E-01 -0.55519898387E-02 -0.11257138410E-02  0.22346794974E-01  0.00000000000E+00 0. -1.
     999901    1    3    3    0    0  0.31575815654E-01  0.53379054186E-01  0.12111888905E+00  0.89045838805E+00  0.88000000000E+00 0.  1.
        -11    1    4    4    0    0  0.22595822687E-02 -0.32029655545E-01 -0.84485045297E-01  0.90382457071E-01  0.51100000000E-03 0. -1.
         11    1    4    4    0    0 -0.12218565991E-01 -0.15797408803E-01 -0.35508129915E-01  0.40742359907E-01  0.51100000000E-03 0.  1.
</event>
<event>
 8    1  0.1090774E+005  0.1043930E+01  0.7957747E-01            NaN
         13   -1    0    0    0    0  0.00000000000E+00  0.00000000000E+00  0.74505805969E-08  0.10566000000E+00  0.10566000000E+00 0.  1.
     999900   -1    0    0    0    0 -0.00000000000E+00 -0.00000000000E+00 -0.74505805969E-08  0.93827000000E+00  0.93827000000E+00 0. -1.
     999902    2    1    2    0    0 -0.10924087843E-01  0.16569121839E-01  0.12176514579E-01  0.10206461214E+01  0.10203805007E+01 0.  0.
     999903    2    3    3    0    0 -0.11252994560E+00 -0.35448604672E-01  0.56098441646E-01  0.13218749557E+00  0.20171925995E-01 0.  0.
         14    1    1    2    0    0  0.10924087843E-01 -0.16569121839E-01 -0.12176514579E-01  0.23283878565E-01  0.00000000000E+00 0. -1.
     999901    1    3    3    0    0  0.10160585776E+00  0.52017726511E-01 -0.43921927067E-01  0.88845862587E+00  0.88000000000E+00 0.  1.
        -11    1    4    4    0    0 -0.39046075693E-01 -0.68690734956E-02  0.10145933119E-01  0.40926535128E-01  0.51100000000E-03 0.  1.
         11    1    4    4    0    0 -0.73483869910E-01 -0.28579531176E-01  0.45952508527E-01  0.91260960439E-01  0.51100000000E-03 0. -1.
</event>
<event>
 8    1  0.1090774E+005  0.1043930E+01  0.7957747E-01            NaN
         13   -1    0    0    0    0  0.00000000000E+00  0.00000000000E+00  0.74505805969E-08  0.10566000000E+00  0.10566000000E+00 0.  1.
     999900   -1    0    0    0    0 -0.00000000000E+00 -0.00000000000E+00 -0.74505805969E-08  0.93827000000E+00  0.93827000000E+00 0. -1.
     999902    2    1    2    0    0 -0.10977377212E-01 -0.16416644768E-01  0.11843545002E-01  0.10209022213E+01  0.10206424774E+01 0.  0.
     999903    2    3    3    0    0  0.42875312030E-02 -0.36823241865E-01  0.12606986488E+00  0.13315389048E+00  0.21494502873E-01 0.  0.
         14    1    1    2    0    0  0.10977377212E-01  0.16416644768E-01 -0.11843545002E-01  0.23027778749E-01  0.00000000000E+00 0. -1.
     999901    1    3    3    0    0 -0.15264908415E-01  0.20406597097E-01 -0.11422631988E+00  0.88774833077E+00  0.88000000000E+00 0. -1.
        -11    1    4    4    0    0 -0.83553321813E-02 -0.12781206337E-01  0.54491844355E-01  0.56593224272E-01  0.51100000000E-03 0.  1.
         11    1    4    4    0    0  0.12642863384E-01 -0.24042035528E-01  0.71578020526E-01  0.76560666208E-01  0.51100000000E-03 0. -1.
</event>
<event>
 8    1  0.1090774E+005  0.1043930E+01  0.7957747E-01            NaN
         13   -1    0    0    0    0  0.00000000000E+00  0.00000000000E+00  0.74505805969E-08  0.10566000000E+00  0.10566000000E+00 0. -1.
     999900   -1    0    0    0    0 -0.00000000000E+00 -0.00000000000E+00 -0.74505805969E-08  0.93827000000E+00  0.93827000000E+00 0.  1.
     999902    2    1    2    0    0 -0.17013216396E-01 -0.11952617168E-01 -0.12344997514E-01  0.10197491490E+01  0.10194624139E+01 0.  0.
     999903    2    3    3    0    0 -0.18407208906E-01  0.54876917203E-01 -0.11606956929E+00  0.13113960787E+00  0.19368801057E-01 0.  0.
         14    1    1    2    0    0  0.17013216396E-01  0.11952617168E-01  0.12344997514E-01  0.24180850956E-01  0.00000000000E+00 0. -1.
     999901    1    3    3    0    0  0.13939925097E-02 -0.66829534372E-01  0.10372457178E+00  0.88860954118E+00  0.88000000000E+00 0. -1.
        -11    1    4    4    0    0 -0.15156306791E-01  0.29273612721E-01 -0.47053123362E-01  0.57453594983E-01  0.51100000000E-03 0. -1.
         11    1    4    4    0    0 -0.32509021149E-02  0.25603304482E-01 -0.69016445931E-01  0.73686012885E-01  0.51100000000E-03 0.  1.
</event>
<event>
 8    1  0.1090774E+005  0.1043930E+01  0.7957747E-01            NaN
         13   -1    0    0    0    0  0.00000000000E+00  0.00000000000E+00  0.74505805969E-08  0.10566000000E+00  0.10566000000E+00 0.  1.
     999900   -1    0    0    0    0 -0.00000000000E+00 -0.00000000000E+00 -0.74505805969E-08  0.93827000000E+00  0.93827000000E+00 0.  1.
     999902    2    1    2    0    0  0.72947265471E-02  0.10704371583E-01  0.19714641025E-01  0.10203405177E+01  0.10200677959E+01 0.  0.
     999903    2    3    3    0    0 -0.62979852534E-01 -0.96257471644E-01 -0.52910424654E-01  0.12812207325E+00  0.19590557558E-01 0.  0.
         14    1    1    2    0    0 -0.72947265471E-02 -0.10704371583E-01 -0.19714641025E-01  0.23589482341E-01  0.00000000000E+00 0. -1.
     999901    1    3    3    0    0  0.70274579081E-01  0.10696184323E+00  0.72625065679E-01  0.89221844440E+00  0.88000000000E+00 0. -1.
        -11    1    4    4    0    0 -0.57116066133E-01 -0.94159625138E-01 -0.52064208915E-01  0.12181634943E+00  0.51100000000E-03 0.  1.
         11    1    4    4    0    0 -0.58637864004E-02 -0.20978465058E-02 -0.84621573884E-03  0.63057238275E-02  0.51100000000E-03 0. -1.
</event>
<event>
 8    1  0.1090774E+005  0.1043930E+01  0.7957747E-01            NaN
         13   -1    0    0    0    0  0.00000000000E+00  0.00000000000E+00  0.74505805969E-08  0.10566000000E+00  0.10566000000E+00 0. -1.
     999900   -1    0    0    0    0 -0.00000000000E+00 -0.00000000000E+00 -0.74505805969E-08  0.93827000000E+00  0.93827000000E+00 0. -1.
     999902    2    1    2    0    0  0.22311784059E-02  0.13734189167E-01 -0.33434872510E-01  0.10077154061E+01  0.10070644681E+01 0.  0.
     999903    2    3    3    0    0  0.95656100781E-01 -0.85811443361E-02  0.64075613489E-01  0.11713442435E+00  0.19775324765E-01 0.  0.
         14    1    1    2    0    0 -0.22311784059E-02 -0.13734189167E-01  0.33434872510E-01  0.36214593867E-01  0.00000000000E+00 0. -1.
     999901    1    3    3    0    0 -0.93424922375E-01  0.22315333503E-01 -0.97510485999E-01  0.89058098178E+00  0.88000000000E+00 0. -1.
        -11    1    4    4    0    0  0.22027617098E-01  0.31043723527E-02  0.72759901524E-02  0.23410557371E-01  0.51100000000E-03 0.  1.
         11    1    4    4    0    0  0.73628483683E-01 -0.11685516689E-01  0.56799623336E-01  0.93723866981E-01  0.51100000000E-03 0. -1.
</event>
<event>
 8    1  0.1090774E+005  0.1043930E+01  0.7957747E-01            NaN
         13   -1    0    0    0    0  0.00000000000E+00  0.00000000000E+00  0.74505805969E-08  0.10566000000E+00  0.10566000000E+00 0.  1.
     999900   -1    0    0    0    0 -0.00000000000E+00 -0.00000000000E+00 -0.74505805969E-08  0.93827000000E+00  0.93827000000E+00 0.  1.
     999902    2    1    2    0    0 -0.18363932061E-01  0.16651691966E-01 -0.48493455088E-02  0.10186707641E+01  0.10183575485E+01 0.  0.
     999903    2    3    3    0    0 -0.97747015908E-01 -0.81083069604E-01 -0.16260200567E-01  0.12963535129E+00  0.20297460119E-01 0.  0.
         14    1    1    2    0    0  0.18363932061E-01 -0.16651691966E-01  0.48493455088E-02  0.25259235894E-01  0.00000000000E+00 0. -1.
     999901    1    3    3    0    0  0.79383083847E-01  0.97734761570E-01  0.11410855058E-01  0.88903541281E+00  0.88000000000E+00 0. -1.
        -11    1    4    4    0    0 -0.57864964631E-01 -0.44369649065E-01  0.40781194707E-03  0.72920829133E-01  0.51100000000E-03 0.  1.
         11    1    4    4    0    0 -0.39882051278E-01 -0.36713420539E-01 -0.16668012514E-01  0.56714522161E-01  0.51100000000E-03 0. -1.
</event>
<event>
 8    1  0.1090774E+005  0.1043930E+01  0.7957747E-01            NaN
         13   -1    0    0    0    0  0.00000000000E+00  0.00000000000E+00  0.74505805969E-08  0.10566000000E+00  0.10566000000E+00 0. -1.
     999900   -1    0    0    0    0 -0.00000000000E+00 -0.00000000000E+00 -0.74505805969E-08  0.93827000000E+00  0.93827000000E+00 0.  1.
     999902    2    1    2    0    0 -0.39922795583E-02  0.10769499196E-01 -0.20940476567E-01  0.10200464498E+01  0.10197668047E+01 0.  0.
     999903    2    3    3    0    0  0.64303636454E-01 -0.44845301329E-01 -0.10397728561E+00  0.13176020666E+00  0.20085253868E-01 0.  0.
         14    1    1    2    0    0  0.39922795583E-02 -0.10769499196E-01  0.20940476567E-01  0.23883550152E-01  0.00000000000E+00 0. -1.
     999901    1    3    3    0    0 -0.68295916012E-01  0.55614800524E-01  0.83036809047E-01  0.88828624319E+00  0.88000000000E+00 0.  1.
        -11    1    4    4    0    0  0.23139625611E-01 -0.27429747105E-01 -0.52344448753E-01  0.63466808143E-01  0.51100000000E-03 0.  1.
         11    1    4    4    0    0  0.41164010843E-01 -0.17415554224E-01 -0.51632836861E-01  0.68293398516E-01  0.51100000000E-03 0. -1.
</event>
<event>
 8    1  0.1090774E+005  0.1043930E+01  0.7957747E-01            NaN
         13   -1    0    0    0    0  0.00000000000E+00  0.00000000000E+00  0.74505805969E-08  0.10566000000E+00  0.10566000000E+00 0.  1.
     999900   -1    0    0    0    0 -0.00000000000E+00 -0.00000000000E+00 -0.74505805969E-08  0.93827000000E+00  0.93827000000E+00 0. -1.
     999902    2    1    2    0    0 -0.42234442113E-03  0.63329870475E-02 -0.22921969420E-01  0.10201455138E+01  0.10198682109E+01 0.  0.
     999903    2    3    3    0    0  0.30833874999E-02  0.59275606568E-01 -0.11785845234E+00  0.13345044399E+00  0.19882188015E-01 0.  0.
         14    1    1    2    0    0  0.42234442113E-03 -0.63329870475E-02  0.22921969420E-01  0.23784486159E-01  0.00000000000E+00 0.  1.
     999901    1    3    3    0    0 -0.35057319210E-02 -0.52942619520E-01  0.94936482916E-01  0.88669506986E+00  0.88000000000E+00 0.  1.
        -11    1    4    4    0    0  0.85659513360E-03  0.27710799680E-01 -0.34343088374E-01  0.44139902743E-01  0.51100000000E-03 0.  1.
         11    1    4    4    0    0  0.22267923663E-02  0.31564806887E-01 -0.83515363963E-01  0.89310541242E-01  0.51100000000E-03 0. -1.
</event>
<event>
 8    1  0.1090774E+005  0.1043930E+01  0.7957747E-01            NaN
         13   -1    0    0    0    0  0.00000000000E+00  0.00000000000E+00  0.74505805969E-08  0.10566000000E+00  0.10566000000E+00 0.  1.
     999900   -1    0    0    0    0 -0.00000000000E+00 -0.00000000000E+00 -0.74505805969E-08  0.93827000000E+00  0.93827000000E+00 0.  1.
     999902    2    1    2    0    0  0.94307214557E-02 -0.91560528936E-02  0.19343041302E-01  0.10205435711E+01  0.10202755782E+01 0.  0.
     999903    2    3    3    0    0 -0.86376027045E-01 -0.13822227151E-01 -0.91845517723E-01  0.12837564858E+00  0.19820091110E-01 0.  0.
         14    1    1    2    0    0 -0.94307214557E-02  0.91560528936E-02 -0.19343041302E-01  0.23386428940E-01  0.00000000000E+00 0. -1.
     999901    1    3    3    0    0  0.95806748500E-01  0.46661742570E-02  0.11118855902E+00  0.89216792248E+00  0.88000000000E+00 0. -1.
        -11    1    4    4    0    0 -0.47202805690E-01 -0.17431499794E-01 -0.49932478478E-01  0.70890588783E-01  0.51100000000E-03 0.  1.
         11    1    4    4    0    0 -0.39173221355E-01  0.36092726434E-02 -0.41913039245E-01  0.57485059799E-01  0.51100000000E-03 0. -1.
</event>
<event>
 8    1  0.1090774E+005  0.1043930E+01  0.7957747E-01            NaN
         13   -1    0    0    0    0  0.00000000000E+00  0.00000000000E+00  0.74505805969E-08  0.10566000000E+00  0.10566000000E+00 0. -1.
     999900   -1    0    0    0    0 -0.00000000000E+00 -0.00000000000E+00 -0.74505805969E-08  0.93827000000E+00  0.93827000000E+00 0. -1.
     999902    2    1    2    0    0 -0.40171004764E-02  0.24373515815E-01 -0.64749554833E-02  0.10183931557E+01  0.10180729292E+01 0.  0.
     999903    2    3    3    0    0 -0.42855688442E-01 -0.59918492091E-01 -0.10330403814E+00  0.12823055831E+00  0.18561143828E-01 0.  0.
         14    1    1    2    0    0  0.40171004764E-02 -0.24373515815E-01  0.64749554833E-02  0.25536844322E-01  0.00000000000E+00 0.  1.
     999901    1    3    3    0    0  0.38838587965E-01  0.84292007906E-01  0.96829082661E-01  0.89016259737E+00  0.88000000000E+00 0.  1.
        -11    1    4    4    0    0 -0.92240692939E-02 -0.25388376379E-01 -0.28769554194E-01  0.39466460179E-01  0.51100000000E-03 0.  1.
         11    1    4    4    0    0 -0.33631619148E-01 -0.34530115712E-01 -0.74534483950E-01  0.88764098127E-01  0.51100000000E-03 0. -1.
</event>
<event>
 8    1  0.1090774E+005  0.1043930E+01  0.7957747E-01            NaN
         13   -1    0    0    0    0  0.00000000000E+00  0.00000000000E+00  0.74505805969E-08  0.10566000000E+00  0.10566000000E+00 0.  1.
     999900   -1    0    0    0    0 -0.00000000000E+00 -0.00000000000E+00 -0.74505805969E-08  0.93827000000E+00  0.93827000000E+00 0. -1.
     999902    2    1    2    0    0 -0.14107917105E-01 -0.19337958455E-01 -0.12814300773E-02  0.10199585164E+01  0.10196767837E+01 0.  0.
     999903    2    3    3    0    0  0.52514818969E-01  0.10771603967E+00 -0.40340422851E-01  0.12748615700E+00  0.16273263260E-01 0.  0.
         14    1    1    2    0    0  0.14107917105E-01  0.19337958455E-01  0.12814300773E-02  0.23971483586E-01  0.00000000000E+00 0.  1.
     999901    1    3    3    0    0 -0.66622736074E-01 -0.12705399813E+00  0.39058992774E-01  0.89247235941E+00  0.88000000000E+00 0. -1.
        -11    1    4    4    0    0  0.96494141873E-02  0.27878516379E-01 -0.16405832905E-01  0.33759966587E-01  0.51100000000E-03 0. -1.
         11    1    4    4    0    0  0.42865404782E-01  0.79837523292E-01 -0.23934589947E-01  0.93726190414E-01  0.51100000000E-03 0.  1.
</event>
<event>
 8    1  0.1090774E+005  0.1043930E+01  0.7957747E-01            NaN
         13   -1    0    0    0    0  0.00000000000E+00  0.00000000000E+00  0.74505805969E-08  0.10566000000E+00  0.10566000000E+00 0. -1.
     999900   -1    0    0    0    0 -0.00000000000E+00 -0.00000000000E+00 -0.74505805969E-08  0.93827000000E+00  0.93827000000E+00 0. -1.
     999902    2    1    2    0    0 -0.15917453372E-01 -0.17167313502E-02  0.18197985211E-01  0.10196920307E+01  0.10194039231E+01 0.  0.
     999903    2    3    3    0    0  0.10578672989E+00  0.42319947978E-01 -0.53203142824E-01  0.12736403138E+00  0.20228985771E-01 0.  0.
         14    1    1    2    0    0  0.15917453372E-01  0.17167313502E-02 -0.18197985211E-01  0.24237969265E-01  0.00000000000E+00 0.  1.
     999901    1    3    3    0    0 -0.12170418326E+00 -0.44036679328E-01  0.71401128035E-01  0.89232799936E+00  0.88000000000E+00 0.  1.
        -11    1    4    4    0    0  0.75337239830E-01  0.28213279961E-01 -0.27252124351E-01  0.84938967936E-01  0.51100000000E-03 0.  1.
         11    1    4    4    0    0  0.30449490060E-01  0.14106668016E-01 -0.25951018473E-01  0.42425063444E-01  0.51100000000E-03 0. -1.
</event>
<event>
 8    1  0.1090774E+005  0.1043930E+01  0.7957747E-01            NaN
         13   -1    0    0    0    0  0.00000000000E+00  0.00000000000E+00  0.74505805969E-08  0.10566000000E+00  0.10566000000E+00 0.  1.
     999900   -1    0    0    0    0 -0.00000000000E+00 -0.00000000000E+00 -0.74505805969E-08  0.93827000000E+00  0.93827000000E+00 0.  1.
     999902    2    1    2    0    0  0.19064532913E-01 -0.60116477473E-02 -0.11328930278E-01  0.10209530336E+01  0.10206944478E+01 0.  0.
     999903    2    3    3    0    0 -0.48036097775E-01 -0.11059996553E+00 -0.48711345888E-01  0.13143706643E+00  0.19054871992E-01 0.  0.
         14    1    1    2    0    0 -0.19064532913E-01  0.60116477473E-02  0.11328930278E-01  0.22976966403E-01  0.00000000000E+00 0.  1.
     999901    1    3    3    0    0  0.67100630688E-01  0.10458831779E+00  0.37382415610E-01  0.88951596717E+00  0.88000000000E+00 0. -1.
        -11    1    4    4    0    0 -0.37146049476E-01 -0.65197125393E-01 -0.25187410301E-01  0.79152769439E-01  0.51100000000E-03 0.  1.
         11    1    4    4    0    0 -0.10890048299E-01 -0.45402840142E-01 -0.23523935588E-01  0.52284296987E-01  0.51100000000E-03 0. -1.
</event>
<event>
 8    1  0.1090774E+005  0.1043930E+01  0.7957747E-01            NaN
         13   -1    0    0    0    0  0.00000000000E+00  0.00000000000E+00  0.74505805969E-08  0.10566000000E+00  0.10566000000E+00 0. -1.
     999900   -1    0    0    0    0 -0.00000000000E+00 -0.00000000000E+00 -0.74505805969E-08  0.93827000000E+00  0.93827000000E+00 0.  1.
     999902    2    1    2    0    0 -0.83029174793E-03  0.14870461819E-01 -0.17844837036E-01  0.10206865444E+01  0.10204218558E+01 0.  0.
     999903    2    3    3    0    0  0.74007377474E-01  0.10655712535E+00 -0.19420698445E-01  0.13276222086E+00  0.20423782148E-01 0.  0.
         14    1    1    2    0    0  0.83029174793E-03 -0.14870461819E-01  0.17844837036E-01  0.23243455594E-01  0.00000000000E+00 0. -1.
     999901    1    3    3    0    0 -0.74837669222E-01 -0.91686663527E-01  0.15758614084E-02  0.88792432354E+00  0.88000000000E+00 0. -1.
        -11    1    4    4    0    0  0.53760315328E-01  0.79619084924E-01 -0.52879294279E-02  0.96216388972E-01  0.51100000000E-03 0.  1.
         11    1    4    4    0    0  0.20247062146E-01  0.26938040423E-01 -0.14132769017E-01  0.36545831889E-01  0.51100000000E-03 0. -1.
</event>
<event>
 8    1  0.1090774E+005  0.1043930E+01  0.7957747E-01            NaN
         13   -1    0    0    0    0  0.00000000000E+00  0.00000000000E+00  0.74505805969E-08  0.10566000000E+00  0.10566000000E+00 0. -1.
     999900   -1    0    0    0    0 -0.00000000000E+00 -0.00000000000E+00 -0.74505805969E-08  0.93827000000E+00  0.93827000000E+00 0. -1.
     999902    2    1    2    0    0  0.10341201926E-01 -0.14015549943E-01 -0.15708311280E-01  0.10204752107E+01  0.10202056305E+01 0.  0.
     999903    2    3    3    0    0  0.96272543556E-01  0.50876936272E-01 -0.72009438655E-01  0.13212559080E+00  0.20370252877E-01 0.  0.
         14    1    1    2    0    0 -0.10341201926E-01  0.14015549943E-01  0.15708311280E-01  0.23454789293E-01  0.00000000000E+00 0. -1.
     999901    1    3    3    0    0 -0.85931341630E-01 -0.64892486215E-01  0.56301127375E-01  0.88834961990E+00  0.88000000000E+00 0.  1.
        -11    1    4    4    0    0  0.30124137668E-01  0.24497116791E-01 -0.18302387924E-01  0.42927973700E-01  0.51100000000E-03 0. -1.
         11    1    4    4    0    0  0.66148405889E-01  0.26379819480E-01 -0.53707050731E-01  0.89197617102E-01  0.51100000000E-03 0.  1.
</event>
<event>
 8    1  0.1090774E+005  0.1043930E+01  0.7957747E-01            NaN
         13   -1    0    0    0    0  0.00000000000E+00  0.00000000000E+00  0.74505805969E-08  0.10566000000E+00  0.10566000000E+00 0.  1.
     999900   -1    0    0    0    0 -0.00000000000E+00 -0.00000000000E+00 -0.74505805969E-08  0.93827000000E+00  0.93827000000E+00 0. -1.
     999902    2    1    2    0    0 -0.13467728579E-01 -0.66583040160E-02  0.19445379858E-01  0.10193569350E+01  0.10190607074E+01 0.  0.
     999903    2    3    3    0    0  0.10493671775E+00  0.66326069218E-01 -0.21293851826E-01  0.12750155623E+00  0.19807991475E-01 0.  0.
         14    1    1    2    0    0  0.13467728579E-01  0.66583040160E-02 -0.19445379858E-01  0.24573064996E-01  0.00000000000E+00 0. -1.
     999901    1    3    3    0    0 -0.11840444633E+00 -0.72984373234E-01  0.40739231684E-01  0.89185537877E+00  0.88000000000E+00 0.  1.
        -11    1    4    4    0    0  0.23534347736E-01  0.57609571634E-02 -0.48376743239E-02  0.24712716659E-01  0.51100000000E-03 0.  1.
         11    1    4    4    0    0  0.81402370012E-01  0.60565112055E-01 -0.16456177502E-01  0.10278883957E+00  0.51100000000E-03 0. -1.
</event>
<event>
 8    1  0.1090774E+005  0.1043930E+01  0.7957747E-01            NaN
         13   -1    0    0    0    0  0.00000000000E+00  0.00000000000E+00  0.74505805969E-08  0.10566000000E+00  0.10566000000E+00 0.  1.
     999900   -1    0    0    0    0 -0.00000000000E+00 -0.00000000000E+00 -0.74505805969E-08  0.93827000000E+00  0.93827000000E+00 0. -1.
     999902    2    1    2    0    0 -0.20848140336E-01  0.12168383616E-01 -0.28618585896E-02  0.10196214675E+01  0.10193316596E+01 0.  0.
     999903    2    3    3    0    0 -0.92215480236E-02 -0.12466927151E+00 -0.24126816582E-01  0.12871635479E+00  0.18929672561E-01 0.  0.
         14    1    1    2    0    0  0.20848140336E-01 -0.12168383616E-01  0.28618585896E-02  0.24308532450E-01  0.00000000000E+00 0. -1.
     999901    1    3    3    0    0 -0.11626592312E-01  0.13683765513E+00  0.21264957992E-01  0.89090511276E+00  0.88000000000E+00 0. -1.
        -11    1    4    4    0    0 -0.13466741927E-01 -0.79394834297E-01 -0.20483825775E-01  0.83094771740E-01  0.51100000000E-03 0. -1.
         11    1    4    4    0    0  0.42451939035E-02 -0.45274437217E-01 -0.36429908068E-02  0.45621583046E-01  0.51100000000E-03 0.  1.
</event>
<event>
 8    1  0.1090774E+005  0.1043930E+01  0.7957747E-01            NaN
         13   -1    0    0    0    0  0.00000000000E+00  0.00000000000E+00  0.74505805969E-08  0.10566000000E+00  0.10566000000E+00 0. -1.
     999900   -1    0    0    0    0 -0.00000000000E+00 -0.00000000000E+00 -0.74505805969E-08  0.93827000000E+00  0.93827000000E+00 0. -1.
     999902    2    1    2    0    0  0.18803779010E-01  0.11303620412E-01  0.14166413378E-02  0.10219445318E+01  0.10217080137E+01 0.  0.
     999903    2    3    3    0    0  0.15829277382E-01 -0.34280359280E-01  0.12495047050E+00  0.13214266969E+00  0.20575617131E-01 0.  0.
         14    1    1    2    0    0 -0.18803779010E-01 -0.11303620412E-01 -0.14166413378E-02  0.21985468205E-01  0.00000000000E+00 0.  1.
     999901    1    3    3    0    0  0.29745016278E-02  0.45583979693E-01 -0.12353382916E+00  0.88980186211E+00  0.88000000000E+00 0. -1.
        -11    1    4    4    0    0  0.12701542461E-01 -0.34350874792E-01  0.91744905331E-01  0.98786135439E-01  0.51100000000E-03 0.  1.
         11    1    4    4    0    0  0.31277349214E-02  0.70515511126E-04  0.33205565165E-01  0.33356534249E-01  0.51100000000E-03 0. -1.
</event>
<event>
 8    1  0.1090774E+005  0.1043930E+01  0.7957747E-01            NaN
         13   -1    0    0    0    0  0.00000000000E+00  0.00000000000E+00  0.74505805969E-08  0.10566000000E+00  0.10566000000E+00 0.  1.
     999900   -1    0    0    0    0 -0.00000000000E+00 -0.00000000000E+00 -0.74505805969E-08  0.93827000000E+00  0.93827000000E+00 0.  1.
     999902    2    1    2    0    0 -0.11005730439E-01  0.73417036463E-02  0.22936942188E-01  0.10174511399E+01  0.10171065294E+01 0.  0.
     999903    2    3    3    0    0 -0.93731090540E-01  0.16024245492E-01  0.88008340052E-01  0.13113677211E+00  0.20226005638E-01 0.  0.
         14    1    1    2    0    0  0.11005730439E-01 -0.73417036463E-02 -0.22936942188E-01  0.26478860094E-01  0.00000000000E+00 0. -1.
     999901    1    3    3    0    0  0.82725360101E-01 -0.86825418455E-02 -0.65071397863E-01  0.88631436779E+00  0.88000000000E+00 0. -1.
        -11    1    4    4    0    0 -0.12321793050E-01  0.89307896077E-02  0.17569749145E-01  0.23249576190E-01  0.51100000000E-03 0. -1.
         11    1    4    4    0    0 -0.81409297490E-01  0.70934558842E-02  0.70438590907E-01  0.10788719592E+00  0.51100000000E-03 0.  1.
</event>
<event>
 8    1  0.1090774E+005  0.1043930E+01  0.7957747E-01            NaN
         13   -1    0    0    0    0  0.00000000000E+00  0.00000000000E+00  0.74505805969E-08  0.10566000000E+00  0.10566000000E+00 0. -1.
     999900   -1    0    0    0    0 -0.00000000000E+00 -0.00000000000E+00 -0.74505805969E-08  0.93827000000E+00  0.93827000000E+00 0.  1.
     999902    2    1    2    0    0  0.42466085364E-02  0.25864590036E-02  0.23268252125E-01  0.10201364082E+01  0.10198588904E+01 0.  0.
     999903    2    3    3    0    0 -0.80690250579E-01  0.35749106553E-01  0.96430239071E-01  0.13240519461E+00  0.21057763296E-01 0.  0.
         14    1    1    2    0    0 -0.42466085364E-02 -0.25864590036E-02 -0.23268252125E-01  0.23793591809E-01  0.00000000000E+00 0.  1.
     999901    1    3    3    0    0  0.84936859115E-01 -0.33162647549E-01 -0.73161986947E-01  0.88773121358E+00  0.88000000000E+00 0.  1.
        -11    1    4    4    0    0 -0.20071354133E-01  0.13873610549E-01  0.39408587721E-01  0.46353362700E-01  0.51100000000E-03 0.  1.
         11    1    4    4    0    0 -0.60618896446E-01  0.21875496004E-01  0.57021651350E-01  0.86051831912E-01  0.51100000000E-03 0. -1.
</event>
<event>
 8    1  0.1090774E+005  0.1043930E+01  0.7957747E-01            NaN
         13   -1    0    0    0    0  0.00000000000E+00  0.00000000000E+00  0.74505805969E-08  0.10566000000E+00  0.10566000000E+00 0.  1.
     999900   -1    0    0    0    0 -0.00000000000E+00 -0.00000000000E+00 -0.74505805969E-08  0.93827000000E+00  0.93827000000E+00 0.  1.
     999902    2    1    2    0    0  0.12575645313E-01 -0.14728657278E-01  0.15087267740E-01  0.10193799318E+01  0.10190842652E+01 0.  0.
     999903    2    3    3    0    0 -0.10674592668E+00  0.46998046596E-01 -0.46230532882E-01  0.12707522142E+00  0.20182677765E-01 0.  0.
         14    1    1    2    0    0 -0.12575645313E-01  0.14728657278E-01 -0.15087267740E-01  0.24550068190E-01  0.00000000000E+00 0.  1.
     999901    1    3    3    0    0  0.11932157199E+00 -0.61726703874E-01  0.61317800622E-01  0.89230471039E+00  0.88000000000E+00 0. -1.
        -11    1    4    4    0    0 -0.83121738048E-01  0.39869210818E-01 -0.44402280649E-01  0.10232595446E+00  0.51100000000E-03 0.  1.
         11    1    4    4    0    0 -0.23624188631E-01  0.71288357778E-02 -0.18282522332E-02  0.24749266964E-01  0.51100000000E-03 0. -1.
</event>
<event>
 8    1  0.1090774E+005  0.1043930E+01  0.7957747E-01            NaN
         13   -1    0    0    0    0  0.00000000000E+00  0.00000000000E+00  0.74505805969E-08  0.10566000000E+00  0.10566000000E+00 0. -1.
     999900   -1    0    0    0    0 -0.00000000000E+00 -0.00000000000E+00 -0.74505805969E-08  0.93827000000E+00  0.93827000000E+00 0.  1.
     999902    2    1    2    0    0  0.92632953073E-02  0.14369049149E-01 -0.14950935677E-01  0.10212185780E+01  0.10209660010E+01 0.  0.
     999903    2    3    3    0    0  0.66810366324E-01 -0.11025042519E+00 -0.36473471555E-03  0.13045798385E+00  0.20009278242E-01 0.  0.
         14    1    1    2    0    0 -0.92632953073E-02 -0.14369049149E-01  0.14950935677E-01  0.22711422039E-01  0.00000000000E+00 0. -1.
     999901    1    3    3    0    0 -0.57547071016E-01  0.12461947434E+00 -0.14586200962E-01  0.89076059411E+00  0.88000000000E+00 0. -1.
        -11    1    4    4    0    0  0.36085185548E-01 -0.66272664307E-01 -0.94255239932E-02  0.76048065550E-01  0.51100000000E-03 0.  1.
         11    1    4    4    0    0  0.30725180776E-01 -0.43977760881E-01  0.90607892777E-02  0.54409918298E-01  0.51100000000E-03 0. -1.
</event>
<event>
 8    1  0.1090774E+005  0.1043930E+01  0.7957747E-01            NaN
         13   -1    0    0    0    0  0.00000000000E+00  0.00000000000E+00  0.74505805969E-08  0.10566000000E+00  0.10566000000E+00 0.  1.
     999900   -1    0    0    0    0 -0.00000000000E+00 -0.00000000000E+00 -0.74505805969E-08  0.93827000000E+00  0.93827000000E+00 0.  1.
     999902    2    1    2    0    0  0.37679134298E-02 -0.11756044709E-01 -0.19591134672E-01  0.10207736981E+01  0.10205110134E+01 0.  0.
     999903    2    3    3    0    0 -0.12736543042E+00  0.10067822554E-01 -0.20459557569E-01  0.13078887286E+00  0.19074114671E-01 0.  0.
         14    1    1    2    0    0 -0.37679134298E-02  0.11756044709E-01  0.19591134672E-01  0.23156301875E-01  0.00000000000E+00 0.  1.
     999901    1    3    3    0    0  0.13113334385E+00 -0.21823867263E-01  0.86842289694E-03  0.88998482527E+00  0.88000000000E+00 0. -1.
        -11    1    4    4    0    0 -0.17610807342E-01  0.78805739737E-02 -0.12277643131E-02  0.19339402979E-01  0.51100000000E-03 0. -1.
         11    1    4    4    0    0 -0.10975462308E+00  0.21872485802E-02 -0.19231793256E-01  0.11144946988E+00  0.51100000000E-03 0.  1.
</event>
<event>
 8    1  0.1090774E+005  0.1043930E+01  0.7957747E-01            NaN
         13   -1    0    0    0    0  0.00000000000E+00  0.00000000000E+00  0.74505805969E-08  0.10566000000E+00  0.10566000000E+00 0. -1.
     999900   -1    0    0    0    0 -0.00000000000E+00 -0.00000000000E+00 -0.74505805969E-08  0.93827000000E+00  0.93827000000E+00 0.  1.
     999902    2    1    2    0    0  0.69087468069E-02  0.20561026085E-01 -0.10454842807E-01  0.10198511646E+01  0.10195668726E+01 0.  0.
     999903    2    3    3    0    0  0.44438587880E-01 -0.23911922726E-01  0.11689796801E+00  0.12878154298E+00  0.19312761272E-01 0.  0.
         14    1    1    2    0    0 -0.69087468069E-02 -0.20561026085E-01  0.10454842807E-01  0.24078835400E-01  0.00000000000E+00 0.  1.
     999901    1    3    3    0    0 -0.37529841073E-01  0.44472948812E-01 -0.12735281081E+00  0.89106962162E+00  0.88000000000E+00 0.  1.
        -11    1    4    4    0    0  0.28373306674E-01 -0.21446382725E-01  0.61495379309E-01  0.71041781094E-01  0.51100000000E-03 0.  1.
         11    1    4    4    0    0  0.16065281206E-01 -0.24655400013E-02  0.55402588696E-01  0.57739761889E-01  0.51100000000E-03 0. -1.
</event>
<event>
 8    1  0.1090774E+005  0.1043930E+01  0.7957747E-01            NaN
         13   -1    0    0    0    0  0.00000000000E+00  0.00000000000E+00  0.74505805969E-08  0.10566000000E+00  0.10566000000E+00 0. -1.
     999900   -1    0    0    0    0 -0.00000000000E+00 -0.00000000000E+00 -0.74505805969E-08  0.93827000000E+00  0.93827000000E+00 0. -1.
     999902    2    1    2    0    0 -0.23338658754E-01 -0.21610369475E-02 -0.20487625289E-02  0.10204021335E+01  0.10201308512E+01 0.  0.
     999903    2    3    3    0    0 -0.76081105688E-01  0.10325130335E+00 -0.25543632515E-01  0.13223236590E+00  0.19589669345E-01 0.  0.
         14    1    1    2    0    0  0.23338658754E-01  0.21610369475E-02  0.20487625289E-02  0.23527866478E-01  0.00000000000E+00 0.  1.
     999901    1    3    3    0    0  0.52742446934E-01 -0.10541234029E+00  0.23494869986E-01  0.88816976762E+00  0.88000000000E+00 0.  1.
        -11    1    4    4    0    0 -0.18406139754E-01  0.29795028802E-01  0.13230325831E-02  0.35050552894E-01  0.51100000000E-03 0.  1.
         11    1    4    4    0    0 -0.57674965933E-01  0.73456274544E-01 -0.26866665098E-01  0.97181813009E-01  0.51100000000E-03 0. -1.
</event>
<event>
 8    1  0.1090774E+005  0.1043930E+01  0.7957747E-01            NaN
         13   -1    0    0    0    0  0.00000000000E+00  0.00000000000E+00  0.74505805969E-08  0.10566000000E+00  0.10566000000E+00 0.  1.
     999900   -1    0    0    0    0 -0.00000000000E+00 -0.00000000000E+00 -0.74505805969E-08  0.93827000000E+00  0.93827000000E+00 0. -1.
     999902    2    1    2    0    0 -0.70906261439E-02  0.21584541507E-01  0.74361709537E-02  0.10200246439E+01  0.10197444818E+01 0.  0.
     999903    2    3    3    0    0  0.74660694053E-01 -0.13566814812E-01  0.10372489168E+00  0.13031097427E+00  0.21536461184E-01 0.  0.
         14    1    1    2    0    0  0.70906261439E-02 -0.21584541507E-01 -0.74361709537E-02  0.23905356086E-01  0.00000000000E+00 0. -1.
     999901    1    3    3    0    0 -0.81751320197E-01  0.35151356319E-01 -0.96288720731E-01  0.88971366964E+00  0.88000000000E+00 0.  1.
        -11    1    4    4    0    0  0.50418937658E-01 -0.14537472329E-01  0.83977951484E-01  0.99025071738E-01  0.51100000000E-03 0.  1.
         11    1    4    4    0    0  0.24241756395E-01  0.97065751669E-03  0.19746940201E-01  0.31285902535E-01  0.51100000000E-03 0. -1.
</event>
<event>
 8    1  0.1090774E+005  0.1043930E+01  0.7957747E-01            NaN
         13   -1    0    0    0    0  0.00000000000E+00  0.00000000000E+00  0.74505805969E-08  0.10566000000E+00  0.10566000000E+00 0.  1.
     999900   -1    0    0    0    0 -0.00000000000E+00 -0.00000000000E+00 -0.74505805969E-08  0.93827000000E+00  0.93827000000E+00 0. -1.
     999902    2    1    2    0    0 -0.61659697148E-02  0.53119661649E-02 -0.23574046897E-01  0.10189906365E+01  0.10186854006E+01 0.  0.
     999903    2    3    3    0    0 -0.52645704292E-01  0.10920696269E+00 -0.46615642837E-01  0.13136151842E+00  0.19623951838E-01 0.  0.
         14    1    1    2    0    0  0.61659697148E-02 -0.53119661649E-02  0.23574046897E-01  0.24939363548E-01  0.00000000000E+00 0.  1.
     999901    1    3    3    0    0  0.46479734578E-01 -0.10389499652E+00  0.23041595940E-01  0.88762911803E+00  0.88000000000E+00 0.  1.
        -11    1    4    4    0    0 -0.17105243670E-01  0.23787583897E-01 -0.18539461850E-01  0.34675802447E-01  0.51100000000E-03 0. -1.
         11    1    4    4    0    0 -0.35540460623E-01  0.85419378790E-01 -0.28076180987E-01  0.96685715977E-01  0.51100000000E-03 0.  1.
</event>
<event>
 8    1  0.1090774E+005  0.1043930E+01  0.7957747E-01            NaN
         13   -1    0    0    0    0  0.00000000000E+00  0.00000000000E+00  0.74505805969E-08  0.10566000000E+00  0.10566000000E+00 0. -1.
     999900   -1    0    0    0    0 -0.00000000000E+00 -0.00000000000E+00 -0.74505805969E-08  0.93827000000E+00  0.93827000000E+00 0.  1.
     999902    2    1    2    0    0 -0.97274001462E-02 -0.12072156760E-01 -0.17193999155E-01  0.10207784798E+01  0.10205159048E+01 0.  0.
     999903    2    3    3    0    0  0.75850872952E-01  0.94891038388E-02 -0.10563991518E+00  0.13195273258E+00  0.20207274371E-01 0.  0.
         14    1    1    2    0    0  0.97274001462E-02  0.12072156760E-01  0.17193999155E-01  0.23151520239E-01  0.00000000000E+00 0. -1.
     999901    1    3    3    0    0 -0.85578273098E-01 -0.21561260599E-01  0.88445916025E-01  0.88882574718E+00  0.88000000000E+00 0. -1.
        -11    1    4    4    0    0  0.14693524766E-01  0.37774057324E-02 -0.96372094521E-02  0.17980694957E-01  0.51100000000E-03 0. -1.
         11    1    4    4    0    0  0.61157348186E-01  0.57116981064E-02 -0.96002705728E-01  0.11397203763E+00  0.51100000000E-03 0.  1.
</event>
<event>
 8    1  0.1090774E+005  0.1043930E+01  0.7957747E-01            NaN
         13   -1    0    0    0    0  0.00000000000E+00  0.00000000000E+00  0.74505805969E-08  0.10566000000E+00  0.10566000000E+00 0.  1.
     999900   -1    0    0    0    0 -0.00000000000E+00 -0.00000000000E+00 -0.74505805969E-08  0.93827000000E+00  0.93827000000E+00 0.  1.
     999902    2    1    2    0    0 -0.17696391722E-01 -0.14534421179E-01  0.72985247836E-02  0.10198950225E+01  0.10196117775E+01 0.  0.
     999903    2    3    3    0    0  0.12585026774E+00 -0.54719662960E-02 -0.10505831192E-01  0.12804034454E+00  0.20389336288E-01 0.  0.
         14    1    1    2    0    0  0.17696391722E-01  0.14534421179E-01 -0.72985247836E-02  0.24034977491E-01  0.00000000000E+00 0. -1.
     999901    1    3    3    0    0 -0.14354665946E+00 -0.90624548830E-02  0.17804355975E-01  0.89185467797E+00  0.88000000000E+00 0. -1.
        -11    1    4    4    0    0  0.73889302686E-01  0.60069827359E-02 -0.21020798126E-02  0.74164632767E-01  0.51100000000E-03 0.  1.
         11    1    4    4    0    0  0.51960965055E-01 -0.11478949032E-01 -0.84037513790E-02  0.53875711768E-01  0.51100000000E-03 0. -1.
</event>
<event>
 8    1  0.1090774E+005  0.1043930E+01  0.7957747E-01            NaN
         13   -1    0    0    0    0  0.00000000000E+00  0.00000000000E+00  0.74505805969E-08  0.10566000000E+00  0.10566000000E+00 0. -1.
     999900   -1    0    0    0    0 -0.00000000000E+00 -0.00000000000E+00 -0.74505805969E-08  0.93827000000E+00  0.93827000000E+00 0. -1.
     999902    2    1    2    0    0  0.26277647781E-01  0.10063040935E-03 -0.84132427861E-02  0.10163381977E+01  0.10159635941E+01 0.  0.
     999903    2    3    3    0    0  0.13812083609E-02  0.12558304318E+00  0.44604611412E-02  0.12699495640E+00  0.18297944339E-01 0.  0.
         14    1    1    2    0    0 -0.26277647781E-01 -0.10063040935E-03  0.84132427861E-02  0.27591802289E-01  0.00000000000E+00 0. -1.
     999901    1    3    3    0    0  0.24896439420E-01 -0.12548241277E+00 -0.12873703927E-01  0.88934324131E+00  0.88000000000E+00 0.  1.
        -11    1    4    4    0    0 -0.62784435954E-02  0.24407925932E-01  0.40321217511E-02  0.25528118401E-01  0.51100000000E-03 0.  1.
         11    1    4    4    0    0  0.76596519563E-02  0.10117511725E+00  0.42833939014E-03  0.10146683800E+00  0.51100000000E-03 0. -1.
</event>
<event>
 8    1  0.1090774E+005  0.1043930E+01  0.7957747E-01            NaN
         13   -1    0    0    0    0  0.00000000000E+00  0.00000000000E+00  0.74505805969E-08  0.10566000000E+00  0.10566000000E+00 0. -1.
     999900   -1    0    0    0    0 -0.00000000000E+00 -0.00000000000E+00 -0.74505805969E-08  0.93827000000E+00  0.93827000000E+00 0.  1.
     999902    2    1    2    0    0  0.15674208591E-01  0.60649302585E-02  0.16400815248E-01  0.10204470075E+01  0.10201767711E+01 0.  0.
     999903    2    3    3    0    0  0.10877260535E-01 -0.10573124807E+00 -0.70645590573E-01  0.12910056930E+00  0.19461395433E-01 0.  0.
         14    1    1    2    0    0 -0.15674208591E-01 -0.60649302585E-02 -0.16400815248E-01  0.23482992458E-01  0.00000000000E+00 0.  1.
     999901    1    3    3    0    0  0.47969480559E-02  0.11179617832E+00  0.87046405820E-01  0.89134643824E+00  0.88000000000E+00 0. -1.
        -11    1    4    4    0    0 -0.26416964622E-02 -0.65236969000E-01 -0.44968110368E-01  0.79279459859E-01  0.51100000000E-03 0.  1.
         11    1    4    4    0    0  0.13518956997E-01 -0.40494279066E-01 -0.25677480204E-01  0.49821109442E-01  0.51100000000E-03 0. -1.
</event>
<event>
 8    1  0.1090774E+005  0.1043930E+01  0.7957747E-01            NaN
         13   -1    0    0    0    0  0.00000000000E+00  0.00000000000E+00  0.74505805969E-08  0.10566000000E+00  0.10566000000E+00 0.  1.
     999900   -1    0    0    0    0 -0.00000000000E+00 -0.00000000000E+00 -0.74505805969E-08  0.93827000000E+00  0.93827000000E+00 0.  1.
     999902    2    1    2    0    0  0.76053068872E-02  0.21753119557E-01  0.37373871227E-02  0.10205846157E+01  0.10203175736E+01 0.  0.
     999903    2    3    3    0    0  0.12784782432E+00 -0.20041192134E-01 -0.98970617169E-02  0.13132035487E+00  0.20009203056E-01 0.  0.
         14    1    1    2    0    0 -0.76053068872E-02 -0.21753119557E-01 -0.37373871227E-02  0.23345384251E-01  0.00000000000E+00 0. -1.
     999901    1    3    3    0    0 -0.12024251743E+00  0.41794311691E-01  0.13634448840E-01  0.88926426088E+00  0.88000000000E+00 0. -1.
        -11    1    4    4    0    0  0.28642868408E-01  0.38452628445E-02 -0.24110610243E-02  0.29004728809E-01  0.51100000000E-03 0.  1.
         11    1    4    4    0    0  0.99204955909E-01 -0.23886454979E-01 -0.74860006926E-02  0.10231562606E+00  0.51100000000E-03 0. -1.
</event>
<event>
 8    1  0.1090774E+005  0.1043930E+01  0.7957747E-01            NaN
         13   -1    0    0    0    0  0.00000000000E+00  0.00000000000E+00  0.74505805969E-08  0.10566000000E+00  0.10566000000E+00 0.  1.
     999900   -1    0    0    0    0 -0.00000000000E+00 -0.00000000000E+00 -0.74505805969E-08  0.93827000000E+00  0.93827000000E+00 0. -1.
     999902    2    1    2    0    0 -0.17635214274E-01 -0.13428558054E-01 -0.62372624671E-02  0.10209032678E+01  0.10206435478E+01 0.  0.
     999903    2    3    3    0    0  0.10490908586E+00 -0.36401695913E-01  0.63730295483E-01  0.12936508591E+00  0.18514187225E-01 0.  0.
         14    1    1    2    0    0  0.17635214274E-01  0.13428558054E-01  0.62372624671E-02  0.23026732225E-01  0.00000000000E+00 0.  1.
     999901    1    3    3    0    0 -0.12254430013E+00  0.22973137859E-01 -0.69967557950E-01  0.89153818187E+00  0.88000000000E+00 0. -1.
        -11    1    4    4    0    0  0.29130038809E-01 -0.54469958267E-02  0.93099527948E-02  0.31067109080E-01  0.51100000000E-03 0. -1.
         11    1    4    4    0    0  0.75779047051E-01 -0.30954700086E-01  0.54420342688E-01  0.98297976829E-01  0.51100000000E-03 0.  1.
</event>
<event>
 8    1  0.1090774E+005  0.1043930E+01  0.7957747E-01            NaN
         13   -1    0    0    0    0  0.00000000000E+00  0.00000000000E+00  0.74505805969E-08  0.10566000000E+00  0.10566000000E+00 0. -1.
     999900   -1    0    0    0    0 -0.00000000000E+00 -0.00000000000E+00 -0.74505805969E-08  0.93827000000E+00  0.93827000000E+00 0.  1.
     999902    2    1    2    0    0  0.17027852549E-01  0.14926238670E-01 -0.84100389255E-02  0.10197748946E+01  0.10194887770E+01 0.  0.
     999903    2    3    3    0    0 -0.13399019761E-01 -0.12406367792E+00 -0.21880515931E-01  0.12824506040E+00  0.19917545802E-01 0.  0.
         14    1    1    2    0    0 -0.17027852549E-01 -0.14926238670E-01  0.84100389255E-02  0.24155105423E-01  0.00000000000E+00 0.  1.
     999901    1    3    3    0    0  0.30426872310E-01  0.13898991659E+00  0.13470477005E-01  0.89152983417E+00  0.88000000000E+00 0.  1.
        -11    1    4    4    0    0 -0.20500609966E-02 -0.95345636948E-01 -0.14194569747E-01  0.96419604679E-01  0.51100000000E-03 0.  1.
         11    1    4    4    0    0 -0.11348958765E-01 -0.28718040971E-01 -0.76859461840E-02  0.31825455724E-01  0.51100000000E-03 0. -1.
</event>
<event>
 8    1  0.1090774E+005  0.1043930E+01  0.7957747E-01            NaN
         13   -1    0    0    0    0  0.00000000000E+00  0.00000000000E+00  0.74505805969E-08  0.10566000000E+00  0.10566000000E+00 0. -1.
     999900   -1    0    0    0    0 -0.00000000000E+00 -0.00000000000E+00 -0.74505805969E-08  0.93827000000E+00  0.93827000000E+00 0.  1.
     999902    2    1    2    0    0 -0.25396662951E-02 -0.85531120948E-02  0.21581431119E-01  0.10205769745E+01  0.10203097554E+01 0.  0.
     999903    2    3    3    0    0  0.37635312876E-01 -0.12462029142E+00  0.28626317491E-02  0.13184978771E+00  0.20725299776E-01 0.  0.
         14    1    1    2    0    0  0.25396662951E-02  0.85531120948E-02 -0.21581431119E-01  0.23353025512E-01  0.00000000000E+00 0. -1.
     999901    1    3    3    0    0 -0.40174979171E-01  0.11606717932E+00  0.18718799370E-01  0.88872718678E+00  0.88000000000E+00 0. -1.
        -11    1    4    4    0    0  0.85008377077E-02 -0.35783896228E-01 -0.82538581512E-02  0.37697994196E-01  0.51100000000E-03 0. -1.
         11    1    4    4    0    0  0.29134475168E-01 -0.88836395189E-01  0.11116489900E-01  0.94151793515E-01  0.51100000000E-03 0.  1.
</event>
<event>
 8    1  0.1090774E+005  0.1043930E+01  0.7957747E-01            NaN
         13   -1    0    0    0    0  0.00000000000E+00  0.00000000000E+00  0.74505805969E-08  0.10566000000E+00  0.10566000000E+00 0. -1.
     999900   -1    0    0    0    0 -0.00000000000E+00 -0.00000000000E+00 -0.74505805969E-08  0.93827000000E+00  0.93827000000E+00 0.  1.
     999902    2    1    2    0    0 -0.13650906025E-01  0.17275084303E-01  0.58899256610E-03  0.10219044992E+01  0.10216671096E+01 0.  0.
     999903    2    3    3    0    0  0.46068806892E-01 -0.95567856411E-01 -0.70779485162E-01  0.12983195003E+00  0.24311511294E-01 0.  0.
         14    1    1    2    0    0  0.13650906025E-01 -0.17275084303E-01 -0.58899256610E-03  0.22025500794E-01  0.00000000000E+00 0.  1.
     999901    1    3    3    0    0 -0.59719712917E-01  0.11284294071E+00  0.71368477728E-01  0.89207254918E+00  0.88000000000E+00 0. -1.
        -11    1    4    4    0    0  0.18550904794E-01 -0.19108397337E-01 -0.25157123103E-01  0.36638898473E-01  0.51100000000E-03 0. -1.
         11    1    4    4    0    0  0.27517902098E-01 -0.76459459074E-01 -0.45622362059E-01  0.93193051558E-01  0.51100000000E-03 0.  1.
</event>
<event>
 8    1  0.1090774E+005  0.1043930E+01  0.7957747E-01            NaN
         13   -1    0    0    0    0  0.00000000000E+00  0.00000000000E+00  0.74505805969E-08  0.10566000000E+00  0.10566000000E+00 0. -1.
     999900   -1    0    0    0    0 -0.00000000000E+00 -0.00000000000E+00 -0.74505805969E-08  0.93827000000E+00  0.93827000000E+00 0.  1.
     999902    2    1    2    0    0  0.71604480744E-03 -0.22420657850E-01  0.79273351511E-02  0.10201383783E+01  0.10198609070E+01 0.  0.
     999903    2    3    3    0    0 -0.37883362319E-01 -0.99722729046E-01 -0.75136523024E-01  0.13201387751E+00  0.20059783992E-01 0.  0.
         14    1    1    2    0    0 -0.71604480744E-03  0.22420657850E-01 -0.79273351511E-02  0.23791621660E-01  0.00000000000E+00 0. -1.
     999901    1    3    3    0    0  0.38599407127E-01  0.77302071196E-01  0.83063858175E-01  0.88812450083E+00  0.88000000000E+00 0. -1.
        -11    1    4    4    0    0 -0.99996469614E-02 -0.11636751519E-01 -0.16729891232E-01  0.22705887054E-01  0.51100000000E-03 0. -1.
         11    1    4    4    0    0 -0.27883715358E-01 -0.88085977527E-01 -0.58406631792E-01  0.10930799045E+00  0.51100000000E-03 0.  1.
</event>
<event>
 8    1  0.1090774E+005  0.1043930E+01  0.7957747E-01            NaN
         13   -1    0    0    0    0  0.00000000000E+00  0.00000000000E+00  0.74505805969E-08  0.10566000000E+00  0.10566000000E+00 0. -1.
     999900   -1    0    0    0    0 -0.00000000000E+00 -0.00000000000E+00 -0.74505805969E-08  0.93827000000E+00  0.93827000000E+00 0. -1.
     999902    2    1    2    0    0 -0.19350261389E-02  0.29068960343E-02  0.20996652189E-01  0.10226449401E+01  0.10224234053E+01 0.  0.
     999903    2    3    3    0    0 -0.11064094268E+00 -0.56992057827E-01  0.46079237871E-01  0.13358138949E+00  0.15204558616E-01 0.  0.
         14    1    1    2    0    0  0.19350261389E-02 -0.29068960343E-02 -0.20996652189E-01  0.21285059874E-01  0.00000000000E+00 0.  1.
     999901    1    3    3    0    0  0.10870591654E+00  0.59898953861E-01 -0.25082585682E-01  0.88906355064E+00  0.88000000000E+00 0.  1.
        -11    1    4    4    0    0 -0.42020783793E-01 -0.25794536646E-01  0.11418612539E-01  0.50613735534E-01  0.51100000000E-03 0. -1.
         11    1    4    4    0    0 -0.68620158887E-01 -0.31197521180E-01  0.34660625332E-01  0.82967653956E-01  0.51100000000E-03 0.  1.
</event>
<event>
 8    1  0.1090774E+005  0.1043930E+01  0.7957747E-01            NaN
         13   -1    0    0    0    0  0.00000000000E+00  0.00000000000E+00  0.74505805969E-08  0.10566000000E+00  0.10566000000E+00 0.  1.
     999900   -1    0    0    0    0 -0.00000000000E+00 -0.00000000000E+00 -0.74505805969E-08  0.93827000000E+00  0.93827000000E+00 0. -1.
     999902    2    1    2    0    0  0.23191139362E-01  0.44312723367E-02 -0.22800920231E-02  0.10202094617E+01  0.10199336654E+01 0.  0.
     999903    2    3    3    0    0 -0.92646890034E-01  0.79006549801E-01  0.36852172104E-01  0.12863150368E+00  0.19039432917E-01 0.  0.
         14    1    1    2    0    0 -0.23191139362E-01 -0.44312723367E-02  0.22800920231E-02  0.23720538338E-01  0.00000000000E+00 0.  1.
     999901    1    3    3    0    0  0.11583802940E+00 -0.74575277464E-01 -0.39132264127E-01  0.89157795798E+00  0.88000000000E+00 0. -1.
        -11    1    4    4    0    0 -0.65739669334E-01  0.54801969041E-01  0.16691439115E-01  0.87199915113E-01  0.51100000000E-03 0.  1.
         11    1    4    4    0    0 -0.26907220700E-01  0.24204580759E-01  0.20160732989E-01  0.41431588567E-01  0.51100000000E-03 0. -1.
</event>
<event>
 8    1  0.1090774E+005  0.1043930E+01  0.7957747E-01            NaN
         13   -1    0    0    0    0  0.00000000000E+00  0.00000000000E+00  0.74505805969E-08  0.10566000000E+00  0.10566000000E+00 0. -1.
     999900   -1    0    0    0    0 -0.00000000000E+00 -0.00000000000E+00 -0.74505805969E-08  0.93827000000E+00  0.93827000000E+00 0.  1.
     999902    2    1    2    0    0  0.56492360571E-02 -0.16595873765E-01  0.28766939336E-01  0.10102421136E+01  0.10096802733E+01 0.  0.
     999903    2    3    3    0    0  0.46700118334E-01  0.10378585689E+00 -0.29256951343E-01  0.11920692464E+00  0.20047856148E-01 0.  0.
         14    1    1    2    0    0 -0.56492360571E-02  0.16595873765E-01 -0.28766939336E-01  0.33687886440E-01  0.00000000000E+00 0.  1.
     999901    1    3    3    0    0 -0.41050882277E-01 -0.12038173066E+00  0.58023890679E-01  0.89103518892E+00  0.88000000000E+00 0. -1.
        -11    1    4    4    0    0  0.32897955585E-01  0.53155802770E-01 -0.10021928389E-01  0.63312834556E-01  0.51100000000E-03 0.  1.
         11    1    4    4    0    0  0.13802162749E-01  0.50630054121E-01 -0.19235022954E-01  0.55894090080E-01  0.51100000000E-03 0. -1.
</event>
<event>
 8    1  0.1090774E+005  0.1043930E+01  0.7957747E-01            NaN
         13   -1    0    0    0    0  0.00000000000E+00  0.00000000000E+00  0.74505805969E-08  0.10566000000E+00  0.10566000000E+00 0. -1.
     999900   -1    0    0    0    0 -0.00000000000E+00 -0.00000000000E+00 -0.74505805969E-08  0.93827000000E+00  0.93827000000E+00 0. -1.
     999902    2    1    2    0    0 -0.86753201124E-02  0.49355493251E-02 -0.21521157788E-01  0.10202069931E+01  0.10199311387E+01 0.  0.
     999903    2    3    3    0    0 -0.92143885174E-01 -0.90433175732E-01  0.48209678988E-02  0.13073743053E+00  0.20009476778E-01 0.  0.
         14    1    1    2    0    0  0.86753201124E-02 -0.49355493251E-02  0.21521157788E-01  0.23723006950E-01  0.00000000000E+00 0. -1.
     999901    1    3    3    0    0  0.83468565062E-01  0.95368725057E-01 -0.26342125687E-01  0.88946956252E+00  0.88000000000E+00 0. -1.
        -11    1    4    4    0    0 -0.41361684789E-01 -0.28881313547E-01  0.68557195035E-02  0.50913468274E-01  0.51100000000E-03 0. -1.
         11    1    4    4    0    0 -0.50782200385E-01 -0.61551862185E-01 -0.20347516047E-02  0.79823962251E-01  0.51100000000E-03 0.  1.
</event>
<event>
 8    1  0.1090774E+005  0.1043930E+01  0.7957747E-01            NaN
         13   -1    0    0    0    0  0.00000000000E+00  0.00000000000E+00  0.74505805969E-08  0.10566000000E+00  0.10566000000E+00 0. -1.
     999900   -1    0    0    0    0 -0.00000000000E+00 -0.00000000000E+00 -0.74505805969E-08  0.93827000000E+00  0.93827000000E+00 0.  1.
     999902    2    1    2    0    0 -0.10990813870E-01  0.14451852985E-01 -0.98300677692E-02  0.10232833471E+01  0.10230750335E+01 0.  0.
     999903    2    3    3    0    0  0.12379200711E+00  0.18057802042E-01  0.36211709196E-01  0.13182428637E+00  0.20391403994E-01 0.  0.
         14    1    1    2    0    0  0.10990813870E-01 -0.14451852985E-01  0.98300677692E-02  0.20646652915E-01  0.00000000000E+00 0. -1.
     999901    1    3    3    0    0 -0.13478282098E+00 -0.36059490568E-02 -0.46041776965E-01  0.89145906071E+00  0.88000000000E+00 0. -1.
        -11    1    4    4    0    0  0.37066999617E-01  0.14691902503E-01  0.91592104023E-02  0.40914138338E-01  0.51100000000E-03 0.  1.
         11    1    4    4    0    0  0.86725007490E-01  0.33658995392E-02  0.27052498794E-01  0.90910148035E-01  0.51100000000E-03 0. -1.
</event>
<event>
 8    1  0.1090774E+005  0.1043930E+01  0.7957747E-01            NaN
         13   -1    0    0    0    0  0.00000000000E+00  0.00000000000E+00  0.74505805969E-08  0.10566000000E+00  0.10566000000E+00 0.  1.
     999900   -1    0    0    0    0 -0.00000000000E+00 -0.00000000000E+00 -0.74505805969E-08  0.93827000000E+00  0.93827000000E+00 0. -1.
     999902    2    1    2    0    0  0.43410173266E-02  0.17971828396E-01 -0.13569042887E-01  0.10209964008E+01  0.10207388013E+01 0.  0.
     999903    2    3    3    0    0 -0.34306223668E-01 -0.92319958069E-01  0.79785542318E-01  0.12837499955E+00  0.20359668599E-01 0.  0.
         14    1    1    2    0    0 -0.43410173266E-02 -0.17971828396E-01  0.13569042887E-01  0.22933599199E-01  0.00000000000E+00 0.  1.
     999901    1    3    3    0    0  0.38647240995E-01  0.11029178647E+00 -0.93354585206E-01  0.89262140125E+00  0.88000000000E+00 0. -1.
        -11    1    4    4    0    0 -0.18755571302E-01 -0.58372091269E-01  0.37117696866E-01  0.71673265836E-01  0.51100000000E-03 0.  1.
         11    1    4    4    0    0 -0.15550652366E-01 -0.33947866800E-01  0.42667845452E-01  0.56701733711E-01  0.51100000000E-03 0. -1.
</event>
<event>
 8    1  0.1090774E+005  0.1043930E+01  0.7957747E-01            NaN
         13   -1    0    0    0    0  0.00000000000E+00  0.00000000000E+00  0.74505805969E-08  0.10566000000E+00  0.10566000000E+00 0. -1.
     999900   -1    0    0    0    0 -0.00000000000E+00 -0.00000000000E+00 -0.74505805969E-08  0.93827000000E+00  0.93827000000E+00 0. -1.
     999902    2    1    2    0    0 -0.46966994906E-02 -0.29768444500E-02  0.23293930597E-01  0.10199815597E+01  0.10197003748E+01 0.  0.
     999903    2    3    3    0    0 -0.10902585303E+00  0.69157543935E-01  0.14269810602E-01  0.13084187609E+00  0.15702437176E-01 0.  0.
         14    1    1    2    0    0  0.46966994906E-02  0.29768444500E-02 -0.23293930597E-01  0.23948440276E-01  0.00000000000E+00 0.  1.
     999901    1    3    3    0    0  0.10432915354E+00 -0.72134388385E-01  0.90241199953E-02  0.88913968363E+00  0.88000000000E+00 0. -1.
        -11    1    4    4    0    0 -0.69223353206E-01  0.36800979570E-01  0.13404453388E-01  0.79536942473E-01  0.51100000000E-03 0. -1.
         11    1    4    4    0    0 -0.39802499822E-01  0.32356564365E-01  0.86535721404E-03  0.51304933620E-01  0.51100000000E-03 0.  1.
</event>
<event>
 8    1  0.1090774E+005  0.1043930E+01  0.7957747E-01            NaN
         13   -1    0    0    0    0  0.00000000000E+00  0.00000000000E+00  0.74505805969E-08  0.10566000000E+00  0.10566000000E+00 0. -1.
     999900   -1    0    0    0    0 -0.00000000000E+00 -0.00000000000E+00 -0.74505805969E-08  0.93827000000E+00  0.93827000000E+00 0. -1.
     999902    2    1    2    0    0 -0.47826224950E-02  0.34407776704E-01 -0.28381591747E-02  0.10090756786E+01  0.10084735501E+01 0.  0.
     999903    2    3    3    0    0  0.24051940134E-02 -0.11450686798E+00 -0.75945164789E-02  0.11652323806E+00  0.20059425542E-01 0.  0.
         14    1    1    2    0    0  0.47826224950E-02 -0.34407776704E-01  0.28381591747E-02  0.34854321441E-01  0.00000000000E+00 0.  1.
     999901    1    3    3    0    0 -0.71878165084E-02  0.14891464469E+00  0.47563573043E-02  0.89255244050E+00  0.88000000000E+00 0. -1.
        -11    1    4    4    0    0  0.56489232058E-02 -0.11004032630E+00 -0.47413333758E-02  0.11028837250E+00  0.51100000000E-03 0.  1.
         11    1    4    4    0    0 -0.32437291924E-02 -0.44665416829E-02 -0.28531831031E-02  0.62348655558E-02  0.51100000000E-03 0. -1.
</event>
<event>
 8    1  0.1090774E+005  0.1043930E+01  0.7957747E-01            NaN
         13   -1    0    0    0    0  0.00000000000E+00  0.00000000000E+00  0.74505805969E-08  0.10566000000E+00  0.10566000000E+00 0. -1.
     999900   -1    0    0    0    0 -0.00000000000E+00 -0.00000000000E+00 -0.74505805969E-08  0.93827000000E+00  0.93827000000E+00 0. -1.
     999902    2    1    2    0    0 -0.22804249303E-01  0.68619490108E-02  0.99534398799E-03  0.10200949242E+01  0.10198164264E+01 0.  0.
     999903    2    3    3    0    0 -0.60106331508E-01  0.11518173928E+00  0.16132372656E-01  0.13253999519E+00  0.20663802368E-01 0.  0.
         14    1    1    2    0    0  0.22804249303E-01 -0.68619490108E-02 -0.99534398799E-03  0.23835075837E-01  0.00000000000E+00 0. -1.
     999901    1    3    3    0    0  0.37302082205E-01 -0.10831979027E+00 -0.15137028668E-01  0.88755492897E+00  0.88000000000E+00 0. -1.
        -11    1    4    4    0    0 -0.39249803433E-01  0.64625043314E-01  0.33830448043E-03  0.75612954339E-01  0.51100000000E-03 0. -1.
         11    1    4    4    0    0 -0.20856528075E-01  0.50556695963E-01  0.15794068176E-01  0.56927040856E-01  0.51100000000E-03 0.  1.
</event>
<event>
 8    1  0.1090774E+005  0.1043930E+01  0.7957747E-01            NaN
         13   -1    0    0    0    0  0.00000000000E+00  0.00000000000E+00  0.74505805969E-08  0.10566000000E+00  0.10566000000E+00 0. -1.
     999900   -1    0    0    0    0 -0.00000000000E+00 -0.00000000000E+00 -0.74505805969E-08  0.93827000000E+00  0.93827000000E+00 0. -1.
     999902    2    1    2    0    0 -0.40939922750E-02  0.22073999430E-02 -0.22786651078E-01  0.10206734987E+01  0.10204085094E+01 0.  0.
     999903    2    3    3    0    0  0.89777179064E-01 -0.61746102609E-01  0.65938324472E-01  0.12894822225E+00  0.20180642198E-01 0.  0.
         14    1    1    2    0    0  0.40939922750E-02 -0.22073999430E-02  0.22786651078E-01  0.23256501341E-01  0.00000000000E+00 0. -1.
     999901    1    3    3    0    0 -0.93871171339E-01  0.63953502552E-01 -0.88724975550E-01  0.89172527641E+00  0.88000000000E+00 0. -1.
        -11    1    4    4    0    0  0.83868746888E-01 -0.51396398323E-01  0.62469093456E-01  0.11652555610E+00  0.51100000000E-03 0.  1.
         11    1    4    4    0    0  0.59084321761E-02 -0.10349704286E-01  0.34692310167E-02  0.12422666156E-01  0.51100000000E-03 0. -1.
</event>
<event>
 8    1  0.1090774E+005  0.1043930E+01  0.7957747E-01            NaN
         13   -1    0    0    0    0  0.00000000000E+00  0.00000000000E+00  0.74505805969E-08  0.10566000000E+00  0.10566000000E+00 0.  1.
     999900   -1    0    0    0    0 -0.00000000000E+00 -0.00000000000E+00 -0.74505805969E-08  0.93827000000E+00  0.93827000000E+00 0.  1.
     999902    2    1    2    0    0  0.64960538023E-02  0.23162994431E-01 -0.39846019797E-03  0.10198700375E+01  0.10195861962E+01 0.  0.
     999903    2    3    3    0    0  0.12139881208E-01  0.17460039223E-01 -0.12677121470E+00  0.13080623236E+00  0.24230143658E-01 0.  0.
         14    1    1    2    0    0 -0.64960538023E-02 -0.23162994431E-01  0.39846019797E-03  0.24059962522E-01  0.00000000000E+00 0. -1.
     999901    1    3    3    0    0 -0.56438274058E-02  0.57029552081E-02  0.12637275451E+00  0.88906380512E+00  0.88000000000E+00 0. -1.
        -11    1    4    4    0    0  0.13242262962E-01  0.15382880788E-01 -0.49564617385E-01  0.53562141175E-01  0.51100000000E-03 0. -1.
         11    1    4    4    0    0 -0.11023817541E-02  0.20771584349E-02 -0.77206597319E-01  0.77244091187E-01  0.51100000000E-03 0.  1.
</event>
<event>
 8    1  0.1090774E+005  0.1043930E+01  0.7957747E-01            NaN
         13   -1    0    0    0    0  0.00000000000E+00  0.00000000000E+00  0.74505805969E-08  0.10566000000E+00  0.10566000000E+00 0. -1.
     999900   -1    0    0    0    0 -0.00000000000E+00 -0.00000000000E+00 -0.74505805969E-08  0.93827000000E+00  0.93827000000E+00 0. -1.
     999902    2    1    2    0    0 -0.13274842636E-02 -0.22826851285E-01 -0.94116628215E-02  0.10192033595E+01  0.10189033719E+01 0.  0.
     999903    2    3    3    0    0 -0.85090639279E-01 -0.31473982048E-01 -0.92584166211E-01  0.13127954275E+00  0.20771665136E-01 0.  0.
         14    1    1    2    0    0  0.13274842636E-02  0.22826851285E-01  0.94116628215E-02  0.24726640514E-01  0.00000000000E+00 0. -1.
     999901    1    3    3    0    0  0.83763155015E-01  0.86471307634E-02  0.83172503389E-01  0.88792381674E+00  0.88000000000E+00 0.  1.
        -11    1    4    4    0    0 -0.35146667078E-01 -0.18063546008E-01 -0.27481744713E-01  0.48136133149E-01  0.51100000000E-03 0. -1.
         11    1    4    4    0    0 -0.49943972201E-01 -0.13410436041E-01 -0.65102421498E-01  0.83143409600E-01  0.51100000000E-03 0.  1.
</event>
<event>
 8    1  0.1090774E+005  0.1043930E+01  0.7957747E-01            NaN
         13   -1    0    0    0    0  0.00000000000E+00  0.00000000000E+00  0.74505805969E-08  0.10566000000E+00  0.10566000000E+00 0. -1.
     999900   -1    0    0    0    0 -0.00000000000E+00 -0.00000000000E+00 -0.74505805969E-08  0.93827000000E+00  0.93827000000E+00 0.  1.
     999902    2    1    2    0    0 -0.14218720431E-01 -0.12828882624E-02 -0.19940573679E-01  0.10194056388E+01  0.10191105986E+01 0.  0.
     999903    2    3    3    0    0 -0.32287558588E-01  0.32893039672E-02  0.12200510430E+00  0.12783625657E+00  0.20088729630E-01 0.  0.
         14    1    1    2    0    0  0.14218720431E-01  0.12828882624E-02  0.19940573679E-01  0.24524361187E-01  0.00000000000E+00 0. -1.
     999901    1    3    3    0    0  0.18068838157E-01 -0.45721922296E-02 -0.14194567798E+00  0.89156938224E+00  0.88000000000E+00 0.  1.
        -11    1    4    4    0    0 -0.19428942382E-01  0.99846155340E-02  0.53084901603E-01  0.57405960044E-01  0.51100000000E-03 0. -1.
         11    1    4    4    0    0 -0.12858616206E-01 -0.66953115668E-02  0.68920202699E-01  0.70430296527E-01  0.51100000000E-03 0.  1.
</event>
<event>
 8    1  0.1090774E+005  0.1043930E+01  0.7957747E-01            NaN
         13   -1    0    0    0    0  0.00000000000E+00  0.00000000000E+00  0.74505805969E-08  0.10566000000E+00  0.10566000000E+00 0. -1.
     999900   -1    0    0    0    0 -0.00000000000E+00 -0.00000000000E+00 -0.74505805969E-08  0.93827000000E+00  0.93827000000E+00 0. -1.
     999902    2    1    2    0    0  0.13845808838E-01 -0.15850028279E-01  0.96576648658E-02  0.10207740006E+01  0.10205113228E+01 0.  0.
     999903    2    3    3    0    0 -0.96161898063E-02  0.45924370006E-01  0.12101100637E+00  0.13129881355E+00  0.19854367530E-01 0.  0.
         14    1    1    2    0    0 -0.13845808838E-01  0.15850028279E-01 -0.96576648658E-02  0.23155999427E-01  0.00000000000E+00 0.  1.
     999901    1    3    3    0    0  0.23461998644E-01 -0.61774398285E-01 -0.11135334151E+00  0.88947518702E+00  0.88000000000E+00 0. -1.
        -11    1    4    4    0    0 -0.52870550196E-03  0.39942464171E-01  0.98439922934E-01  0.10623727934E+00  0.51100000000E-03 0. -1.
         11    1    4    4    0    0 -0.90874843044E-02  0.59819058343E-02  0.22571083437E-01  0.25061534209E-01  0.51100000000E-03 0.  1.
</event>
<event>
 8    1  0.1090774E+005  0.1043930E+01  0.7957747E-01            NaN
         13   -1    0    0    0    0  0.00000000000E+00  0.00000000000E+00  0.74505805969E-08  0.10566000000E+00  0.10566000000E+00 0. -1.
     999900   -1    0    0    0    0 -0.00000000000E+00 -0.00000000000E+00 -0.74505805969E-08  0.93827000000E+00  0.93827000000E+00 0. -1.
     999902    2    1    2    0    0 -0.26417544400E-02 -0.13544653951E-01  0.18360080294E-01  0.10209619991E+01  0.10207036174E+01 0.  0.
     999903    2    3    3    0    0  0.24048167656E-01  0.97142512270E-01 -0.78002009845E-01  0.12840967395E+00  0.19742055770E-01 0.  0.
         14    1    1    2    0    0  0.26417544400E-02  0.13544653951E-01 -0.18360080294E-01  0.22968000905E-01  0.00000000000E+00 0.  1.
     999901    1    3    3    0    0 -0.26689922096E-01 -0.11068716622E+00  0.96362090139E-01  0.89255232515E+00  0.88000000000E+00 0.  1.
        -11    1    4    4    0    0 -0.22986447236E-02  0.11787111870E-01 -0.48991122201E-02  0.12980069158E-01  0.51100000000E-03 0. -1.
         11    1    4    4    0    0  0.26346812380E-01  0.85355400400E-01 -0.73102897625E-01  0.11542960479E+00  0.51100000000E-03 0.  1.
</event>
<event>
 8    1  0.1090774E+005  0.1043930E+01  0.7957747E-01            NaN
         13   -1    0    0    0    0  0.00000000000E+00  0.00000000000E+00  0.74505805969E-08  0.10566000000E+00  0.10566000000E+00 0.  1.
     999900   -1    0    0    0    0 -0.00000000000E+00 -0.00000000000E+00 -0.74505805969E-08  0.93827000000E+00  0.93827000000E+00 0. -1.
     999902    2    1    2    0    0  0.11405587474E-01  0.18562612220E-01 -0.10354607401E-01  0.10198078962E+01  0.10195225693E+01 0.  0.
     999903    2    3    3    0    0 -0.73655415238E-01 -0.86372817615E-01 -0.56544740351E-01  0.12830335497E+00  0.19469448365E-01 0.  0.
         14    1    1    2    0    0 -0.11405587474E-01 -0.18562612220E-01  0.10354607401E-01  0.24122103815E-01  0.00000000000E+00 0.  1.
     999901    1    3    3    0    0  0.85061002712E-01  0.10493542984E+00  0.46190132950E-01  0.89150454121E+00  0.88000000000E+00 0.  1.
        -11    1    4    4    0    0 -0.39148021042E-01 -0.33628495227E-01 -0.31591048547E-01  0.60511971642E-01  0.51100000000E-03 0.  1.
         11    1    4    4    0    0 -0.34507394196E-01 -0.52744322389E-01 -0.24953691803E-01  0.67791383332E-01  0.51100000000E-03 0. -1.
</event>
<event>
 8    1  0.1090774E+005  0.1043930E+01  0.7957747E-01            NaN
         13   -1    0    0    0    0  0.00000000000E+00  0.00000000000E+00  0.74505805969E-08  0.10566000000E+00  0.10566000000E+00 0. -1.
     999900   -1    0    0    0    0 -0.00000000000E+00 -0.00000000000E+00 -0.74505805969E-08  0.93827000000E+00  0.93827000000E+00 0. -1.
     999902    2    1    2    0    0 -0.74727504620E-02  0.61663628373E-02 -0.21685921019E-01  0.10201782590E+01  0.10199017281E+01 0.  0.
     999903    2    3    3    0    0  0.10823382332E+00  0.26927843091E-01  0.61625675679E-01  0.12846088650E+00  0.16272867392E-01 0.  0.
         14    1    1    2    0    0  0.74727504620E-02 -0.61663628373E-02  0.21685921019E-01  0.23751741001E-01  0.00000000000E+00 0. -1.
     999901    1    3    3    0    0 -0.11570657378E+00 -0.20761480254E-01 -0.83311596698E-01  0.89171737250E+00  0.88000000000E+00 0. -1.
        -11    1    4    4    0    0  0.55572248009E-01  0.22139876880E-01  0.31832824730E-01  0.67764583289E-01  0.51100000000E-03 0. -1.
         11    1    4    4    0    0  0.52661575309E-01  0.47879662112E-02  0.29792850948E-01  0.60696303208E-01  0.51100000000E-03 0.  1.
</event>
<event>
 8    1  0.1090774E+005  0.1043930E+01  0.7957747E-01            NaN
         13   -1    0    0    0    0  0.00000000000E+00  0.00000000000E+00  0.74505805969E-08  0.10566000000E+00  0.10566000000E+00 0. -1.
     999900   -1    0    0    0    0 -0.00000000000E+00 -0.00000000000E+00 -0.74505805969E-08  0.93827000000E+00  0.93827000000E+00 0.  1.
     999902    2    1    2    0    0  0.17424197482E-02  0.16383536866E-01 -0.17174158953E-01  0.10201306714E+01  0.10198530182E+01 0.  0.
     999903    2    3    3    0    0  0.87989429985E-01 -0.87886057743E-01 -0.30836296285E-01  0.12968283511E+00  0.20016533619E-01 0.  0.
         14    1    1    2    0    0 -0.17424197482E-02 -0.16383536866E-01  0.17174158953E-01  0.23799328615E-01  0.00000000000E+00 0. -1.
     999901    1    3    3    0    0 -0.86247010236E-01  0.10426959461E+00  0.13662137332E-01  0.89044783628E+00  0.88000000000E+00 0. -1.
        -11    1    4    4    0    0  0.35624577083E-02 -0.31040149435E-02 -0.56989550034E-02  0.74205945060E-02  0.51100000000E-03 0.  1.
         11    1    4    4    0    0  0.84426972276E-01 -0.84782042800E-01 -0.25137341282E-01  0.12226224060E+00  0.51100000000E-03 0. -1.
</event>
<event>
 8    1  0.1090774E+005  0.1043930E+01  0.7957747E-01            NaN
         13   -1    0    0    0    0  0.00000000000E+00  0.00000000000E+00  0.74505805969E-08  0.10566000000E+00  0.10566000000E+00 0.  1.
     999900   -1    0    0    0    0 -0.00000000000E+00 -0.00000000000E+00 -0.74505805969E-08  0.93827000000E+00  0.93827000000E+00 0. -1.
     999902    2    1    2    0    0  0.11747255314E-01 -0.54796462207E-02  0.19952736660E-01  0.10201363826E+01  0.10198588642E+01 0.  0.
     999903    2    3    3    0    0  0.10628321170E+00  0.18451750668E-01  0.75255606323E-01  0.13302412012E+00  0.19885222106E-01 0.  0.
         14    1    1    2    0    0 -0.11747255314E-01  0.54796462207E-02 -0.19952736660E-01  0.23793617428E-01  0.00000000000E+00 0. -1.
     999901    1    3    3    0    0 -0.94535956384E-01 -0.23931396889E-01 -0.55302869663E-01  0.88711226246E+00  0.88000000000E+00 0. -1.
        -11    1    4    4    0    0  0.26627719625E-01 -0.11946803842E-02  0.11115565679E-01  0.28883899235E-01  0.51100000000E-03 0. -1.
         11    1    4    4    0    0  0.79655492073E-01  0.19646431052E-01  0.64140040643E-01  0.10414022088E+00  0.51100000000E-03 0.  1.
</event>
<event>
 8    1  0.1090774E+005  0.1043930E+01  0.7957747E-01            NaN
         13   -1    0    0    0    0  0.00000000000E+00  0.00000000000E+00  0.74505805969E-08  0.10566000000E+00  0.10566000000E+00 0.  1.
     999900   -1    0    0    0    0 -0.00000000000E+00 -0.00000000000E+00 -0.74505805969E-08  0.93827000000E+00  0.93827000000E+00 0.  1.
     999902    2    1    2    0    0  0.34437849309E-02  0.21147502481E-01  0.11467915284E-01  0.10196279508E+01  0.10193382993E+01 0.  0.
     999903    2    3    3    0    0  0.92529331231E-01  0.45500839932E-02  0.90973451580E-01  0.13140903678E+00  0.20243163134E-01 0.  0.
         14    1    1    2    0    0 -0.34437849309E-02 -0.21147502481E-01 -0.11467915284E-01  0.24302049230E-01  0.00000000000E+00 0.  1.
     999901    1    3    3    0    0 -0.89085546300E-01  0.16597418488E-01 -0.79505536296E-01  0.88821891399E+00  0.88000000000E+00 0. -1.
        -11    1    4    4    0    0  0.42723218790E-01  0.12109529772E-01  0.44498387261E-01  0.62867175258E-01  0.51100000000E-03 0. -1.
         11    1    4    4    0    0  0.49806112442E-01 -0.75594457791E-02  0.46475064319E-01  0.68541861526E-01  0.51100000000E-03 0.  1.
</event>
<event>
 8    1  0.1090774E+005  0.1043930E+01  0.7957747E-01            NaN
         13   -1    0    0    0    0  0.00000000000E+00  0.00000000000E+00  0.74505805969E-08  0.10566000000E+00  0.10566000000E+00 0. -1.
     999900   -1    0    0    0    0 -0.00000000000E+00 -0.00000000000E+00 -0.74505805969E-08  0.93827000000E+00  0.93827000000E+00 0. -1.
     999902    2    1    2    0    0 -0.15453236935E-01 -0.12201695590E-02  0.19615418474E-01  0.10189288803E+01  0.10186221120E+01 0.  0.
     999903    2    3    3    0    0 -0.72830061688E-01  0.10451232161E+00  0.21293002656E-01  0.13074293466E+00  0.20329282974E-01 0.  0.
         14    1    1    2    0    0  0.15453236935E-01  0.12201695590E-02 -0.19615418474E-01  0.25001119724E-01  0.00000000000E+00 0.  1.
     999901    1    3    3    0    0  0.57376824754E-01 -0.10573249117E+00 -0.16775841817E-02  0.88818594562E+00  0.88000000000E+00 0. -1.
        -11    1    4    4    0    0 -0.71636770520E-01  0.94376546048E-01  0.21953636034E-01  0.12050303976E+00  0.51100000000E-03 0. -1.
         11    1    4    4    0    0 -0.11932911681E-02  0.10135775564E-01 -0.66063337812E-03  0.10239894900E-01  0.51100000000E-03 0. -1.
</event>
<event>
 8    1  0.1090774E+005  0.1043930E+01  0.7957747E-01            NaN
         13   -1    0    0    0    0  0.00000000000E+00  0.00000000000E+00  0.74505805969E-08  0.10566000000E+00  0.10566000000E+00 0.  1.
     999900   -1    0    0    0    0 -0.00000000000E+00 -0.00000000000E+00 -0.74505805969E-08  0.93827000000E+00  0.93827000000E+00 0.  1.
     999902    2    1    2    0    0  0.11212360751E-01  0.86194019898E-02 -0.19092261597E-01  0.10201702530E+01  0.10198935334E+01 0.  0.
     999903    2    3    3    0    0  0.10178857468E+00 -0.55985177992E-01 -0.60020987642E-01  0.13222151411E+00  0.19615191722E-01 0.  0.
         14    1    1    2    0    0 -0.11212360751E-01 -0.86194019898E-02  0.19092261597E-01  0.23759746993E-01  0.00000000000E+00 0.  1.
     999901    1    3    3    0    0 -0.90576213932E-01  0.64604579982E-01  0.40928726045E-01  0.88794873889E+00  0.88000000000E+00 0. -1.
        -11    1    4    4    0    0  0.53774328849E-01 -0.27518654594E-01 -0.41959091193E-01  0.73551215140E-01  0.51100000000E-03 0.  1.
         11    1    4    4    0    0  0.48014245834E-01 -0.28466523398E-01 -0.18061896450E-01  0.58670298975E-01  0.51100000000E-03 0. -1.
</event>
<event>
 8    1  0.1090774E+005  0.1043930E+01  0.7957747E-01            NaN
         13   -1    0    0    0    0  0.00000000000E+00  0.00000000000E+00  0.74505805969E-08  0.10566000000E+00  0.10566000000E+00 0. -1.
     999900   -1    0    0    0    0 -0.00000000000E+00 -0.00000000000E+00 -0.74505805969E-08  0.93827000000E+00  0.93827000000E+00 0. -1.
     999902    2    1    2    0    0  0.43211203466E-02 -0.18891281783E-02  0.22189789661E-01  0.10212445939E+01  0.10209926018E+01 0.  0.
     999903    2    3    3    0    0 -0.96116467706E-01 -0.41033432734E-01 -0.73748545664E-01  0.12949118072E+00  0.20174239267E-01 0.  0.
         14    1    1    2    0    0 -0.43211203466E-02  0.18891281783E-02 -0.22189789661E-01  0.22685406135E-01  0.00000000000E+00 0.  1.
     999901    1    3    3    0    0  0.10043758805E+00  0.39144304556E-01  0.95938335325E-01  0.89175341315E+00  0.88000000000E+00 0.  1.
        -11    1    4    4    0    0 -0.37368833992E-01 -0.23820797878E-01 -0.39366136880E-01  0.59277432631E-01  0.51100000000E-03 0.  1.
         11    1    4    4    0    0 -0.58747633714E-01 -0.17212634857E-01 -0.34382408784E-01  0.70213748087E-01  0.51100000000E-03 0. -1.
</event>
<event>
 8    1  0.1090774E+005  0.1043930E+01  0.7957747E-01            NaN
         13   -1    0    0    0    0  0.00000000000E+00  0.00000000000E+00  0.74505805969E-08  0.10566000000E+00  0.10566000000E+00 0. -1.
     999900   -1    0    0    0    0 -0.00000000000E+00 -0.00000000000E+00 -0.74505805969E-08  0.93827000000E+00  0.93827000000E+00 0.  1.
     999902    2    1    2    0    0  0.14840731260E-02  0.19102317103E-01 -0.14098751553E-01  0.10201418562E+01  0.10198644669E+01 0.  0.
     999903    2    3    3    0    0  0.67364271653E-01  0.69585021104E-01  0.85854508286E-01  0.13060301041E+00  0.17496556144E-01 0.  0.
         14    1    1    2    0    0 -0.14840731260E-02 -0.19102317103E-01  0.14098751553E-01  0.23788143835E-01  0.00000000000E+00 0. -1.
     999901    1    3    3    0    0 -0.65880198527E-01 -0.50482704001E-01 -0.99953259839E-01  0.88953884576E+00  0.88000000000E+00 0.  1.
        -11    1    4    4    0    0  0.18304067901E-01  0.30275580290E-01  0.27299254065E-01  0.44689596744E-01  0.51100000000E-03 0.  1.
         11    1    4    4    0    0  0.49060203752E-01  0.39309440814E-01  0.58555254221E-01  0.85913413663E-01  0.51100000000E-03 0. -1.
</event>
<event>
 8    1  0.1090774E+005  0.1043930E+01  0.7957747E-01            NaN
         13   -1    0    0    0    0  0.00000000000E+00  0.00000000000E+00  0.74505805969E-08  0.10566000000E+00  0.10566000000E+00 0.  1.
     999900   -1    0    0    0    0 -0.00000000000E+00 -0.00000000000E+00 -0.74505805969E-08  0.93827000000E+00  0.93827000000E+00 0. -1.
     999902    2    1    2    0    0 -0.14627152896E-01  0.17702061462E-01  0.71713752357E-02  0.10198728762E+01  0.10195891027E+01 0.  0.
     999903    2    3    3    0    0  0.60771176486E-01  0.19913318054E-01  0.11192070738E+00  0.13045608960E+00  0.20071632899E-01 0.  0.
         14    1    1    2    0    0  0.14627152896E-01 -0.17702061462E-01 -0.71713752357E-02  0.24057123781E-01  0.00000000000E+00 0.  1.
     999901    1    3    3    0    0 -0.75398329382E-01 -0.22112565925E-02 -0.10474933214E+00  0.88941678662E+00  0.88000000000E+00 0. -1.
        -11    1    4    4    0    0  0.55170252848E-01  0.19860817799E-01  0.87054229337E-01  0.10496146364E+00  0.51100000000E-03 0.  1.
         11    1    4    4    0    0  0.56009236383E-02  0.52500254993E-04  0.24866478040E-01  0.25494625963E-01  0.51100000000E-03 0. -1.
</event>
<event>
 8    1  0.1090774E+005  0.1043930E+01  0.7957747E-01            NaN
         13   -1    0    0    0    0  0.00000000000E+00  0.00000000000E+00  0.74505805969E-08  0.10566000000E+00  0.10566000000E+00 0. -1.
     999900   -1    0    0    0    0 -0.00000000000E+00 -0.00000000000E+00 -0.74505805969E-08  0.93827000000E+00  0.93827000000E+00 0. -1.
     999902    2    1    2    0    0  0.22417223455E-01 -0.63788194610E-02 -0.67335517000E-02  0.10196697040E+01  0.10193810589E+01 0.  0.
     999903    2    3    3    0    0  0.21834234900E-01 -0.80472625635E-01 -0.99852475180E-01  0.13165992592E+00  0.20279102651E-01 0.  0.
         14    1    1    2    0    0 -0.22417223455E-01  0.63788194610E-02  0.67335517000E-02  0.24260296034E-01  0.00000000000E+00 0.  1.
     999901    1    3    3    0    0  0.58298855530E-03  0.74093806174E-01  0.93118923480E-01  0.88800977804E+00  0.88000000000E+00 0.  1.
        -11    1    4    4    0    0  0.16174909724E-01 -0.27343699391E-01 -0.29850975892E-01  0.43596415949E-01  0.51100000000E-03 0. -1.
         11    1    4    4    0    0  0.56593251759E-02 -0.53128926244E-01 -0.70001499289E-01  0.88063509974E-01  0.51100000000E-03 0.  1.
</event>
<event>
 8    1  0.1090774E+005  0.1043930E+01  0.7957747E-01            NaN
         13   -1    0    0    0    0  0.00000000000E+00  0.00000000000E+00  0.74505805969E-08  0.10566000000E+00  0.10566000000E+00 0.  1.
     999900   -1    0    0    0    0 -0.00000000000E+00 -0.00000000000E+00 -0.74505805969E-08  0.93827000000E+00  0.93827000000E+00 0.  1.
     999902    2    1    2    0    0 -0.50905576503E-02  0.62339831303E-02  0.23363194089E-01  0.10192193715E+01  0.10189197771E+01 0.  0.
     999903    2    3    3    0    0 -0.76005928478E-01  0.64276344254E-01  0.84874515150E-01  0.13232504402E+00  0.19947038811E-01 0.  0.
         14    1    1    2    0    0  0.50905576503E-02 -0.62339831303E-02 -0.23363194089E-01  0.24710628501E-01  0.00000000000E+00 0. -1.
     999901    1    3    3    0    0  0.70915370827E-01 -0.58042361124E-01 -0.61511321061E-01  0.88689432748E+00  0.88000000000E+00 0.  1.
        -11    1    4    4    0    0 -0.10265772384E-01  0.15509751429E-01  0.23727284171E-01  0.30152671642E-01  0.51100000000E-03 0. -1.
         11    1    4    4    0    0 -0.65740156094E-01  0.48766592825E-01  0.61147230979E-01  0.10217237237E+00  0.51100000000E-03 0.  1.
</event>
<event>
 8    1  0.1090774E+005  0.1043930E+01  0.7957747E-01            NaN
         13   -1    0    0    0    0  0.00000000000E+00  0.00000000000E+00  0.74505805969E-08  0.10566000000E+00  0.10566000000E+00 0. -1.
     999900   -1    0    0    0    0 -0.00000000000E+00 -0.00000000000E+00 -0.74505805969E-08  0.93827000000E+00  0.93827000000E+00 0.  1.
     999902    2    1    2    0    0  0.68167603045E-02  0.20398221142E-01  0.60214652897E-02  0.10215958627E+01  0.10213516989E+01 0.  0.
     999903    2    3    3    0    0  0.75720512247E-01  0.48667960418E-01 -0.95400874996E-01  0.13264513494E+00  0.19779750432E-01 0.  0.
         14    1    1    2    0    0 -0.68167603045E-02 -0.20398221142E-01 -0.60214652897E-02  0.22334137348E-01  0.00000000000E+00 0. -1.
     999901    1    3    3    0    0 -0.68903751943E-01 -0.28269739276E-01  0.10142234029E+00  0.88895072771E+00  0.88000000000E+00 0. -1.
        -11    1    4    4    0    0  0.38985298572E-01  0.36162301710E-01 -0.59141127615E-01  0.79533009916E-01  0.51100000000E-03 0. -1.
         11    1    4    4    0    0  0.36735213676E-01  0.12505658708E-01 -0.36259747381E-01  0.53112125025E-01  0.51100000000E-03 0.  1.
</event>
<event>
 8    1  0.1090774E+005  0.1043930E+01  0.7957747E-01            NaN
         13   -1    0    0    0    0  0.00000000000E+00  0.00000000000E+00  0.74505805969E-08  0.10566000000E+00  0.10566000000E+00 0.  1.
     999900   -1    0    0    0    0 -0.00000000000E+00 -0.00000000000E+00 -0.74505805969E-08  0.93827000000E+00  0.93827000000E+00 0.  1.
     999902    2    1    2    0    0  0.85572235537E-02 -0.36697974569E-02  0.22092772447E-01  0.10199553450E+01  0.10196735368E+01 0.  0.
     999903    2    3    3    0    0 -0.12645273545E+00  0.14246362287E-01 -0.84763977031E-02  0.12895413738E+00  0.19080542136E-01 0.  0.
         14    1    1    2    0    0 -0.85572235537E-02  0.36697974569E-02 -0.22092772447E-01  0.23974655007E-01  0.00000000000E+00 0. -1.
     999901    1    3    3    0    0  0.13500995900E+00 -0.17916159744E-01  0.30569170150E-01  0.89100120762E+00  0.88000000000E+00 0. -1.
        -11    1    4    4    0    0 -0.70133206965E-01  0.89814734836E-02 -0.14126923081E-01  0.72105233249E-01  0.51100000000E-03 0.  1.
         11    1    4    4    0    0 -0.56319528482E-01  0.52648888039E-02  0.56505253778E-02  0.56848904129E-01  0.51100000000E-03 0. -1.
</event>
<event>
 8    1  0.1090774E+005  0.1043930E+01  0.7957747E-01            NaN
         13   -1    0    0    0    0  0.00000000000E+00  0.00000000000E+00  0.74505805969E-08  0.10566000000E+00  0.10566000000E+00 0.  1.
     999900   -1    0    0    0    0 -0.00000000000E+00 -0.00000000000E+00 -0.74505805969E-08  0.93827000000E+00  0.93827000000E+00 0. -1.
     999902    2    1    2    0    0 -0.11617175438E-01  0.19647663240E-01 -0.48114885440E-02  0.10206031944E+01  0.10203365820E+01 0.  0.
     999903    2    3    3    0    0  0.63859297948E-02 -0.38158245043E-01  0.12132894648E+00  0.12954929922E+00  0.23779737391E-01 0.  0.
         14    1    1    2    0    0  0.11617175438E-01 -0.19647663240E-01  0.48114885440E-02  0.23326805567E-01  0.00000000000E+00 0.  1.
     999901    1    3    3    0    0 -0.18003105233E-01  0.57805908283E-01 -0.12614043502E+00  0.89105389522E+00  0.88000000000E+00 0. -1.
        -11    1    4    4    0    0 -0.27740761673E-02 -0.22308495978E-01  0.37347482396E-01  0.43594266294E-01  0.51100000000E-03 0. -1.
         11    1    4    4    0    0  0.91600059621E-02 -0.15849749065E-01  0.83981464082E-01  0.85955032924E-01  0.51100000000E-03 0.  1.
</event>
<event>
 8    1  0.1090774E+005  0.1043930E+01  0.7957747E-01            NaN
         13   -1    0    0    0    0  0.00000000000E+00  0.00000000000E+00  0.74505805969E-08  0.10566000000E+00  0.10566000000E+00 0. -1.
     999900   -1    0    0    0    0 -0.00000000000E+00 -0.00000000000E+00 -0.74505805969E-08  0.93827000000E+00  0.93827000000E+00 0. -1.
     999902    2    1    2    0    0 -0.18809345788E-01 -0.12971801892E-01 -0.46506224981E-02  0.10206128942E+01  0.10203465060E+01 0.  0.
     999903    2    3    3    0    0  0.41339563510E-01 -0.10166652862E+00 -0.69943636409E-01  0.13171029914E+00  0.20259518058E-01 0.  0.
         14    1    1    2    0    0  0.18809345788E-01  0.12971801892E-01  0.46506224981E-02  0.23317105800E-01  0.00000000000E+00 0. -1.
     999901    1    3    3    0    0 -0.60148909297E-01  0.88694726731E-01  0.65293013911E-01  0.88890259506E+00  0.88000000000E+00 0.  1.
        -11    1    4    4    0    0  0.23524438513E-01 -0.40472166834E-01 -0.38636483656E-01  0.60699542716E-01  0.51100000000E-03 0. -1.
         11    1    4    4    0    0  0.17815124996E-01 -0.61194361789E-01 -0.31307152752E-01  0.71010756423E-01  0.51100000000E-03 0.  1.
</event>
<event>
 8    1  0.1090774E+005  0.1043930E+01  0.7957747E-01            NaN
         13   -1    0    0    0    0  0.00000000000E+00  0.00000000000E+00  0.74505805969E-08  0.10566000000E+00  0.10566000000E+00 0. -1.
     999900   -1    0    0    0    0 -0.00000000000E+00 -0.00000000000E+00 -0.74505805969E-08  0.93827000000E+00  0.93827000000E+00 0. -1.
     999902    2    1    2    0    0 -0.19808617409E-01 -0.10673711604E-01 -0.65781843279E-02  0.10204868357E+01  0.10202175258E+01 0.  0.
     999903    2    3    3    0    0 -0.95493628601E-01  0.54337736587E-01  0.69670692470E-01  0.13157255383E+00  0.19639470728E-01 0.  0.
         14    1    1    2    0    0  0.19808617409E-01  0.10673711604E-01  0.65781843279E-02  0.23443164294E-01  0.00000000000E+00 0. -1.
     999901    1    3    3    0    0  0.75685011192E-01 -0.65011448191E-01 -0.76248876798E-01  0.88891428188E+00  0.88000000000E+00 0. -1.
        -11    1    4    4    0    0 -0.18881198925E-01  0.10743656831E-01  0.51442502324E-02  0.22330478419E-01  0.51100000000E-03 0.  1.
         11    1    4    4    0    0 -0.76612429676E-01  0.43594079755E-01  0.64526442238E-01  0.10924207541E+00  0.51100000000E-03 0. -1.
</event>
<event>
 8    1  0.1090774E+005  0.1043930E+01  0.7957747E-01            NaN
         13   -1    0    0    0    0  0.00000000000E+00  0.00000000000E+00  0.74505805969E-08  0.10566000000E+00  0.10566000000E+00 0. -1.
     999900   -1    0    0    0    0 -0.00000000000E+00 -0.00000000000E+00 -0.74505805969E-08  0.93827000000E+00  0.93827000000E+00 0.  1.
     999902    2    1    2    0    0  0.15732882299E-01  0.16552380748E-01 -0.19065375152E-03  0.10210927225E+01  0.10208373067E+01 0.  0.
     999903    2    3    3    0    0  0.12623221605E+00 -0.34842176222E-01 -0.25685894908E-02  0.13269126044E+00  0.21256136354E-01 0.  0.
         14    1    1    2    0    0 -0.15732882299E-01 -0.16552380748E-01  0.19065375152E-03  0.22837277480E-01  0.00000000000E+00 0.  1.
     999901    1    3    3    0    0 -0.11049933375E+00  0.51394556971E-01  0.23779357393E-02  0.88840146208E+00  0.88000000000E+00 0.  1.
        -11    1    4    4    0    0  0.65764650594E-01 -0.14075001528E-01  0.85436414286E-02  0.67796385344E-01  0.51100000000E-03 0.  1.
         11    1    4    4    0    0  0.60467565455E-01 -0.20767174695E-01 -0.11112230919E-01  0.64894875097E-01  0.51100000000E-03 0. -1.
</event>
<event>
 8    1  0.1090774E+005  0.1043930E+01  0.7957747E-01            NaN
         13   -1    0    0    0    0  0.00000000000E+00  0.00000000000E+00  0.74505805969E-08  0.10566000000E+00  0.10566000000E+00 0.  1.
     999900   -1    0    0    0    0 -0.00000000000E+00 -0.00000000000E+00 -0.74505805969E-08  0.93827000000E+00  0.93827000000E+00 0.  1.
     999902    2    1    2    0    0  0.15717417467E-01 -0.13341920583E-01  0.11315679796E-01  0.10204121628E+01  0.10201411144E+01 0.  0.
     999903    2    3    3    0    0  0.79752224855E-01  0.97812681480E-01 -0.25776544742E-01  0.13033821350E+00  0.19896773939E-01 0.  0.
         14    1    1    2    0    0 -0.15717417467E-01  0.13341920583E-01 -0.11315679796E-01  0.23517837186E-01  0.00000000000E+00 0. -1.
     999901    1    3    3    0    0 -0.64034807388E-01 -0.11115460206E+00  0.37092224538E-01  0.89007394931E+00  0.88000000000E+00 0. -1.
        -11    1    4    4    0    0  0.96655692283E-02  0.15490141930E-01 -0.10715618118E-01  0.21176716416E-01  0.51100000000E-03 0.  1.
         11    1    4    4    0    0  0.70086655627E-01  0.82322539550E-01 -0.15060926624E-01  0.10916149709E+00  0.51100000000E-03 0. -1.
</event>
<event>
 8    1  0.1090774E+005  0.1043930E+01  0.7957747E-01            NaN
         13   -1    0    0    0    0  0.00000000000E+00  0.00000000000E+00  0.74505805969E-08  0.10566000000E+00  0.10566000000E+00 0.  1.
     999900   -1    0    0    0    0 -0.00000000000E+00 -0.00000000000E+00 -0.74505805969E-08  0.93827000000E+00  0.93827000000E+00 0. -1.
     999902    2    1    2    0    0 -0.15070158909E-01  0.14124615051E-01  0.11890707175E-01  0.10200971790E+01  0.10198187345E+01 0.  0.
     999903    2    3    3    0    0 -0.21247704190E-01 -0.21809004097E-01 -0.12397293206E+00  0.12892474029E+00  0.18033390759E-01 0.  0.
         14    1    1    2    0    0  0.15070158909E-01 -0.14124615051E-01 -0.11890707175E-01  0.23832821004E-01  0.00000000000E+00 0. -1.
     999901    1    3    3    0    0  0.61775452809E-02  0.35933619148E-01  0.13586363923E+00  0.89117243871E+00  0.88000000000E+00 0.  1.
        -11    1    4    4    0    0 -0.93473894707E-02 -0.14846684629E-01 -0.97552251947E-01  0.99118619418E-01  0.51100000000E-03 0.  1.
         11    1    4    4    0    0 -0.11900314720E-01 -0.69623194678E-02 -0.26420680109E-01  0.29806120868E-01  0.51100000000E-03 0. -1.
</event>
<event>
 8    1  0.1090774E+005  0.1043930E+01  0.7957747E-01            NaN
         13   -1    0    0    0    0  0.00000000000E+00  0.00000000000E+00  0.74505805969E-08  0.10566000000E+00  0.10566000000E+00 0.  1.
     999900   -1    0    0    0    0 -0.00000000000E+00 -0.00000000000E+00 -0.74505805969E-08  0.93827000000E+00  0.93827000000E+00 0. -1.
     999902    2    1    2    0    0 -0.11390603330E-01 -0.11561464892E-01 -0.17461105192E-01  0.10200908828E+01  0.10198122894E+01 0.  0.
     999903    2    3    3    0    0 -0.67874986338E-01  0.21656212814E-01  0.10579643038E+00  0.12908789755E+00  0.19869456207E-01 0.  0.
         14    1    1    2    0    0  0.11390603330E-01  0.11561464892E-01  0.17461105192E-01  0.23839117206E-01  0.00000000000E+00 0.  1.
     999901    1    3    3    0    0  0.56484383009E-01 -0.33217677706E-01 -0.12325753557E+00  0.89100298524E+00  0.88000000000E+00 0. -1.
        -11    1    4    4    0    0 -0.48202016078E-01  0.85859345183E-02  0.59036782622E-01  0.76699122869E-01  0.51100000000E-03 0. -1.
         11    1    4    4    0    0 -0.19672970261E-01  0.13070278296E-01  0.46759647755E-01  0.52388774683E-01  0.51100000000E-03 0.  1.
</event>
<event>
 8    1  0.1090774E+005  0.1043930E+01  0.7957747E-01            NaN
         13   -1    0    0    0    0  0.00000000000E+00  0.00000000000E+00  0.74505805969E-08  0.10566000000E+00  0.10566000000E+00 0.  1.
     999900   -1    0    0    0    0 -0.00000000000E+00 -0.00000000000E+00 -0.74505805969E-08  0.93827000000E+00  0.93827000000E+00 0.  1.
     999902    2    1    2    0    0  0.12231403715E-01  0.19998146975E-01 -0.26716106963E-02  0.10203361317E+01  0.10200633073E+01 0.  0.
     999903    2    3    3    0    0 -0.10467043020E+00 -0.43609958873E-01  0.56477594168E-01  0.12836603220E+00  0.20745893794E-01 0.  0.
         14    1    1    2    0    0 -0.12231403715E-01 -0.19998146975E-01  0.26716106963E-02  0.23593868334E-01  0.00000000000E+00 0.  1.
     999901    1    3    3    0    0  0.11690183391E+00  0.63608105848E-01 -0.59149204865E-01  0.89197009946E+00  0.88000000000E+00 0.  1.
        -11    1    4    4    0    0 -0.26984060980E-01 -0.46201580072E-02  0.66629230056E-02  0.28180508707E-01  0.51100000000E-03 0.  1.
         11    1    4    4    0    0 -0.77686369218E-01 -0.38989800866E-01  0.49814671163E-01  0.10018552349E+00  0.51100000000E-03 0. -1.
</event>
<event>
 8    1  0.1090774E+005  0.1043930E+01  0.7957747E-01            NaN
         13   -1    0    0    0    0  0.00000000000E+00  0.00000000000E+00  0.74505805969E-08  0.10566000000E+00  0.10566000000E+00 0. -1.
     999900   -1    0    0    0    0 -0.00000000000E+00 -0.00000000000E+00 -0.74505805969E-08  0.93827000000E+00  0.93827000000E+00 0. -1.
     999902    2    1    2    0    0  0.10125904362E-01  0.12394320396E-01 -0.17773644034E-01  0.10200123174E+01  0.10197318629E+01 0.  0.
     999903    2    3    3    0    0 -0.87892756061E-01  0.73513076971E-01 -0.61126823443E-01  0.13140517231E+00  0.20038006680E-01 0.  0.
         14    1    1    2    0    0 -0.10125904362E-01 -0.12394320396E-01  0.17773644034E-01  0.23917682569E-01  0.00000000000E+00 0. -1.
     999901    1    3    3    0    0  0.98018660423E-01 -0.61118756575E-01  0.43353179409E-01  0.88860714512E+00  0.88000000000E+00 0.  1.
        -11    1    4    4    0    0 -0.46607905154E-01  0.31869075889E-01 -0.39469428518E-01  0.68891448884E-01  0.51100000000E-03 0.  1.
         11    1    4    4    0    0 -0.41284850907E-01  0.41644001082E-01 -0.21657394925E-01  0.62513723425E-01  0.51100000000E-03 0. -1.
</event>
<event>
 8    1  0.1090774E+005  0.1043930E+01  0.7957747E-01            NaN
         13   -1    0    0    0    0  0.00000000000E+00  0.00000000000E+00  0.74505805969E-08  0.10566000000E+00  0.10566000000E+00 0.  1.
     999900   -1    0    0    0    0 -0.00000000000E+00 -0.00000000000E+00 -0.74505805969E-08  0.93827000000E+00  0.93827000000E+00 0.  1.
     999902    2    1    2    0    0  0.22116521209E-02  0.21983492645E-01  0.90821511962E-02  0.10200417011E+01  0.10197619434E+01 0.  0.
     999903    2    3    3    0    0  0.77312565472E-02 -0.85541269543E-01  0.94610119594E-01  0.12936382785E+00  0.20170376889E-01 0.  0.
         14    1    1    2    0    0 -0.22116521209E-02 -0.21983492645E-01 -0.90821511962E-02  0.23888298900E-01  0.00000000000E+00 0. -1.
     999901    1    3    3    0    0 -0.55196044264E-02  0.10752476219E+00 -0.85527968398E-01  0.89067787325E+00  0.88000000000E+00 0.  1.
        -11    1    4    4    0    0  0.14355447183E-01 -0.52810207532E-01  0.61702315042E-01  0.82476867580E-01  0.51100000000E-03 0. -1.
         11    1    4    4    0    0 -0.66241906359E-02 -0.32731062012E-01  0.32907804552E-01  0.46886960271E-01  0.51100000000E-03 0.  1.
</event>
<event>
 8    1  0.1090774E+005  0.1043930E+01  0.7957747E-01            NaN
         13   -1    0    0    0    0  0.00000000000E+00  0.00000000000E+00  0.74505805969E-08  0.10566000000E+00  0.10566000000E+00 0.  1.
     999900   -1    0    0    0    0 -0.00000000000E+00 -0.00000000000E+00 -0.74505805969E-08  0.93827000000E+00  0.93827000000E+00 0.  1.
     999902    2    1    2    0    0  0.35360375016E-02 -0.21866256375E-01  0.59620265278E-02  0.10209913320E+01  0.10207336173E+01 0.  0.
     999903    2    3    3    0    0 -0.36604748756E-01  0.60648698970E-01  0.10770779868E+00  0.13038917463E+00  0.19549799113E-01 0.  0.
         14    1    1    2    0    0 -0.35360375016E-02  0.21866256375E-01 -0.59620265278E-02  0.22938667995E-01  0.00000000000E+00 0. -1.
     999901    1    3    3    0    0  0.40140786258E-01 -0.82514955346E-01 -0.10174577215E+00  0.89060215738E+00  0.88000000000E+00 0.  1.
        -11    1    4    4    0    0 -0.22694693390E-01  0.52258727394E-01  0.79044300579E-01  0.97438628233E-01  0.51100000000E-03 0. -1.
         11    1    4    4    0    0 -0.13910055366E-01  0.83899715765E-02  0.28663498099E-01  0.32950546393E-01  0.51100000000E-03 0.  1.
</event>
<event>
 8    1  0.1090774E+005  0.1043930E+01  0.7957747E-01            NaN
         13   -1    0    0    0    0  0.00000000000E+00  0.00000000000E+00  0.74505805969E-08  0.10566000000E+00  0.10566000000E+00 0.  1.
     999900   -1    0    0    0    0 -0.00000000000E+00 -0.00000000000E+00 -0.74505805969E-08  0.93827000000E+00  0.93827000000E+00 0.  1.
     999902    2    1    2    0    0 -0.10197037565E-01  0.11179326482E-01 -0.17874536147E-01  0.10205108634E+01  0.10202421117E+01 0.  0.
     999903    2    3    3    0    0 -0.81452186677E-01  0.58409156499E-01 -0.86331855466E-01  0.13372207364E+00  0.19552888069E-01 0.  0.
         14    1    1    2    0    0  0.10197037565E-01 -0.11179326482E-01  0.17874536147E-01  0.23419136580E-01  0.00000000000E+00 0.  1.
     999901    1    3    3    0    0  0.71255149113E-01 -0.47229830017E-01  0.68457319318E-01  0.88678878978E+00  0.88000000000E+00 0. -1.
        -11    1    4    4    0    0 -0.20090154404E-01  0.11176742064E-01 -0.10293625614E-01  0.25194319129E-01  0.51100000000E-03 0. -1.
         11    1    4    4    0    0 -0.61362032274E-01  0.47232414435E-01 -0.76038229852E-01  0.10852775451E+00  0.51100000000E-03 0.  1.
</event>
<event>
 8    1  0.1090774E+005  0.1043930E+01  0.7957747E-01            NaN
         13   -1    0    0    0    0  0.00000000000E+00  0.00000000000E+00  0.74505805969E-08  0.10566000000E+00  0.10566000000E+00 0. -1.
     999900   -1    0    0    0    0 -0.00000000000E+00 -0.00000000000E+00 -0.74505805969E-08  0.93827000000E+00  0.93827000000E+00 0. -1.
     999902    2    1    2    0    0  0.71530527225E-02  0.10306590111E-01 -0.20789004337E-01  0.10196488414E+01  0.10193596937E+01 0.  0.
     999903    2    3    3    0    0 -0.38806779682E-01  0.20441952997E-02 -0.12490182081E+00  0.13228192069E+00  0.19695096271E-01 0.  0.
         14    1    1    2    0    0 -0.71530527225E-02 -0.10306590111E-01  0.20789004337E-01  0.24281158627E-01  0.00000000000E+00 0. -1.
     999901    1    3    3    0    0  0.45959832404E-01  0.82623948115E-02  0.10411281647E+00  0.88736692068E+00  0.88000000000E+00 0.  1.
        -11    1    4    4    0    0 -0.23200156008E-02  0.33927998419E-02 -0.35047577602E-01  0.35291463273E-01  0.51100000000E-03 0.  1.
         11    1    4    4    0    0 -0.36486764081E-01 -0.13486045422E-02 -0.89854243207E-01  0.96990457421E-01  0.51100000000E-03 0. -1.
</event>
<event>
 8    1  0.1090774E+005  0.1043930E+01  0.7957747E-01            NaN
         13   -1    0    0    0    0  0.00000000000E+00  0.00000000000E+00  0.74505805969E-08  0.10566000000E+00  0.10566000000E+00 0.  1.
     999900   -1    0    0    0    0 -0.00000000000E+00 -0.00000000000E+00 -0.74505805969E-08  0.93827000000E+00  0.93827000000E+00 0.  1.
     999902    2    1    2    0    0 -0.12225903241E-01 -0.16390780659E-01  0.12863736038E-01  0.10197720592E+01  0.10194858736E+01 0.  0.
     999903    2    3    3    0    0 -0.78263445299E-02 -0.85258222459E-01  0.99551735519E-01  0.13282398294E+00  0.20036123229E-01 0.  0.
         14    1    1    2    0    0  0.12225903241E-01  0.16390780659E-01 -0.12863736038E-01  0.24157940838E-01  0.00000000000E+00 0. -1.
     999901    1    3    3    0    0 -0.43995587112E-02  0.68867441801E-01 -0.86687999482E-01  0.88694807622E+00  0.88000000000E+00 0.  1.
        -11    1    4    4    0    0  0.67739044956E-03 -0.38941225342E-01  0.58885265348E-01  0.70601795198E-01  0.51100000000E-03 0.  1.
         11    1    4    4    0    0 -0.85037349795E-02 -0.46316997117E-01  0.40666470171E-01  0.62222187744E-01  0.51100000000E-03 0. -1.
</event>
<event>
 8    1  0.1090774E+005  0.1043930E+01  0.7957747E-01            NaN
         13   -1    0    0    0    0  0.00000000000E+00  0.00000000000E+00  0.74505805969E-08  0.10566000000E+00  0.10566000000E+00 0. -1.
     999900   -1    0    0    0    0 -0.00000000000E+00 -0.00000000000E+00 -0.74505805969E-08  0.93827000000E+00  0.93827000000E+00 0. -1.
     999902    2    1    2    0    0  0.81952699578E-02  0.19887959566E-01  0.98599080981E-02  0.10202675578E+01  0.10199931266E+01 0.  0.
     999903    2    3    3    0    0  0.98595191961E-01  0.27531612247E-01 -0.79381884524E-01  0.13111365157E+00  0.20255974122E-01 0.  0.
         14    1    1    2    0    0 -0.81952699578E-02 -0.19887959566E-01 -0.98599080981E-02  0.23662442247E-01  0.00000000000E+00 0.  1.
     999901    1    3    3    0    0 -0.90399922004E-01 -0.76436526809E-02  0.89241792622E-01  0.88915390618E+00  0.88000000000E+00 0.  1.
        -11    1    4    4    0    0  0.70059145436E-01  0.13624209592E-01 -0.63867770991E-01  0.95777117510E-01  0.51100000000E-03 0.  1.
         11    1    4    4    0    0  0.28536046526E-01  0.13907402654E-01 -0.15514113533E-01  0.35336534063E-01  0.51100000000E-03 0. -1.
</event>
<event>
 8    1  0.1090774E+005  0.1043930E+01  0.7957747E-01            NaN
         13   -1    0    0    0    0  0.00000000000E+00  0.00000000000E+00  0.74505805969E-08  0.10566000000E+00  0.10566000000E+00 0. -1.
     999900   -1    0    0    0    0 -0.00000000000E+00 -0.00000000000E+00 -0.74505805969E-08  0.93827000000E+00  0.93827000000E+00 0.  1.
     999902    2    1    2    0    0 -0.17168612549E-01 -0.43323735253E-02 -0.14825321352E-01  0.10208362591E+01  0.10205750080E+01 0.  0.
     999903    2    3    3    0    0 -0.40643905278E-01 -0.82730732841E-01 -0.94166627869E-01  0.13348489966E+00  0.21320493451E-01 0.  0.
         14    1    1    2    0    0  0.17168612549E-01  0.43323735253E-02  0.14825321352E-01  0.23093740936E-01  0.00000000000E+00 0. -1.
     999901    1    3    3    0    0  0.23475292729E-01  0.78398359316E-01  0.79341306517E-01  0.88735135940E+00  0.88000000000E+00 0. -1.
        -11    1    4    4    0    0 -0.39665910959E-01 -0.72506943559E-01 -0.90516812574E-01  0.12257322642E+00  0.51100000000E-03 0.  1.
         11    1    4    4    0    0 -0.97799431952E-03 -0.10223789282E-01 -0.36498152950E-02  0.10911673238E-01  0.51100000000E-03 0. -1.
</event>
<event>
 8    1  0.1090774E+005  0.1043930E+01  0.7957747E-01            NaN
         13   -1    0    0    0    0  0.00000000000E+00  0.00000000000E+00  0.74505805969E-08  0.10566000000E+00  0.10566000000E+00 0. -1.
     999900   -1    0    0    0    0 -0.00000000000E+00 -0.00000000000E+00 -0.74505805969E-08  0.93827000000E+00  0.93827000000E+00 0. -1.
     999902    2    1    2    0    0  0.82341345705E-02 -0.15628520421E-01 -0.15819718983E-01  0.10202168152E+01  0.10199411919E+01 0.  0.
     999903    2    3    3    0    0 -0.96824659102E-01  0.21773555587E-01  0.78797079640E-01  0.12814697269E+00  0.19067367821E-01 0.  0.
         14    1    1    2    0    0 -0.82341345705E-02  0.15628520421E-01  0.15819718983E-01  0.23713184758E-01  0.00000000000E+00 0. -1.
     999901    1    3    3    0    0  0.10505879367E+00 -0.37402076008E-01 -0.94616798623E-01  0.89206984256E+00  0.88000000000E+00 0. -1.
        -11    1    4    4    0    0 -0.24949152388E-01  0.14307123868E-01  0.21063182599E-01  0.35652107658E-01  0.51100000000E-03 0.  1.
         11    1    4    4    0    0 -0.71875506714E-01  0.74664317194E-02  0.57733897040E-01  0.92494865027E-01  0.51100000000E-03 0. -1.
</event>
<event>
 8    1  0.1090774E+005  0.1043930E+01  0.7957747E-01            NaN
         13   -1    0    0    0    0  0.00000000000E+00  0.00000000000E+00  0.74505805969E-08  0.10566000000E+00  0.10566000000E+00 0.  1.
     999900   -1    0    0    0    0 -0.00000000000E+00 -0.00000000000E+00 -0.74505805969E-08  0.93827000000E+00  0.93827000000E+00 0. -1.
     999902    2    1    2    0    0 -0.10279998494E-01 -0.96315419146E-02  0.12147275960E-01  0.10253288903E+01  0.10251601494E+01 0.  0.
     999903    2    3    3    0    0  0.11679600208E+00 -0.60605635946E-01  0.20706572477E-01  0.13469993853E+00  0.20024037699E-01 0.  0.
         14    1    1    2    0    0  0.10279998494E-01  0.96315419146E-02 -0.12147275960E-01  0.18601109696E-01  0.00000000000E+00 0. -1.
     999901    1    3    3    0    0 -0.12707600057E+00  0.50974094031E-01 -0.85592965171E-02  0.89062895178E+00  0.88000000000E+00 0. -1.
        -11    1    4    4    0    0  0.93098874513E-01 -0.52367671607E-01  0.23739409929E-01  0.10942391955E+00  0.51100000000E-03 0.  1.
         11    1    4    4    0    0  0.23697127566E-01 -0.82379643385E-02 -0.30328374524E-02  0.25276018977E-01  0.51100000000E-03 0. -1.
</event>
<event>
 8    1  0.1090774E+005  0.1043930E+01  0.7957747E-01            NaN
         13   -1    0    0    0    0  0.00000000000E+00  0.00000000000E+00  0.74505805969E-08  0.10566000000E+00  0.10566000000E+00 0.  1.
     999900   -1    0    0    0    0 -0.00000000000E+00 -0.00000000000E+00 -0.74505805969E-08  0.93827000000E+00  0.93827000000E+00 0. -1.
     999902    2    1    2    0    0 -0.81021057392E-02 -0.21751148736E-01 -0.45543304899E-02  0.10202762790E+01  0.10200020525E+01 0.  0.
     999903    2    3    3    0    0 -0.48329267658E-01 -0.80673073377E-01  0.90338783056E-01  0.13230402680E+00  0.22347190052E-01 0.  0.
         14    1    1    2    0    0  0.81021057392E-02  0.21751148736E-01  0.45543304899E-02  0.23653720954E-01  0.00000000000E+00 0. -1.
     999901    1    3    3    0    0  0.40227161919E-01  0.58921924641E-01 -0.94893113546E-01  0.88797225225E+00  0.88000000000E+00 0. -1.
        -11    1    4    4    0    0 -0.31901205625E-01 -0.65407186811E-01  0.78100615474E-01  0.10675089819E+00  0.51100000000E-03 0.  1.
         11    1    4    4    0    0 -0.16428062033E-01 -0.15265886566E-01  0.12238167582E-01  0.25553128606E-01  0.51100000000E-03 0. -1.
</event>
<event>
 8    1  0.1090774E+005  0.1043930E+01  0.7957747E-01            NaN
         13   -1    0    0    0    0  0.00000000000E+00  0.00000000000E+00  0.74505805969E-08  0.10566000000E+00  0.10566000000E+00 0. -1.
     999900   -1    0    0    0    0 -0.00000000000E+00 -0.00000000000E+00 -0.74505805969E-08  0.93827000000E+00  0.93827000000E+00 0.  1.
     999902    2    1    2    0    0  0.12455719616E-01 -0.87535310736E-02 -0.20327297958E-01  0.10185337739E+01  0.10182171086E+01 0.  0.
     999903    2    3    3    0    0  0.39760643284E-01  0.99301079477E-01 -0.71025652175E-01  0.13005660434E+00  0.20699370203E-01 0.  0.
         14    1    1    2    0    0 -0.12455719616E-01  0.87535310736E-02  0.20327297958E-01  0.25396226091E-01  0.00000000000E+00 0. -1.
     999901    1    3    3    0    0 -0.27304923669E-01 -0.10805461055E+00  0.50698354216E-01  0.88847716956E+00  0.88000000000E+00 0.  1.
        -11    1    4    4    0    0  0.26396482786E-01  0.38418356726E-01 -0.30452350914E-01  0.55680797715E-01  0.51100000000E-03 0. -1.
         11    1    4    4    0    0  0.13364160498E-01  0.60882722751E-01 -0.40573301261E-01  0.74375806628E-01  0.51100000000E-03 0.  1.
</event>
<event>
 8    1  0.1090774E+005  0.1043930E+01  0.7957747E-01            NaN
         13   -1    0    0    0    0  0.00000000000E+00  0.00000000000E+00  0.74505805969E-08  0.10566000000E+00  0.10566000000E+00 0.  1.
     999900   -1    0    0    0    0 -0.00000000000E+00 -0.00000000000E+00 -0.74505805969E-08  0.93827000000E+00  0.93827000000E+00 0. -1.
     999902    2    1    2    0    0 -0.80026305837E-02  0.14554228885E-01  0.20534223612E-01  0.10175193579E+01  0.10171765441E+01 0.  0.
     999903    2    3    3    0    0  0.95122629437E-01 -0.69282680008E-01  0.45670226367E-01  0.12718500210E+00  0.15551553098E-01 0.  0.
         14    1    1    2    0    0  0.80026305837E-02 -0.14554228885E-01 -0.20534223612E-01  0.26410642060E-01  0.00000000000E+00 0. -1.
     999901    1    3    3    0    0 -0.10312526002E+00  0.83836908893E-01 -0.25136002755E-01  0.89033435584E+00  0.88000000000E+00 0. -1.
        -11    1    4    4    0    0  0.47857726506E-01 -0.25976336915E-01  0.17900636232E-01  0.57322124562E-01  0.51100000000E-03 0. -1.
         11    1    4    4    0    0  0.47264902931E-01 -0.43306343093E-01  0.27769590135E-01  0.69862877542E-01  0.51100000000E-03 0.  1.
</event>
<event>
 8    1  0.1090774E+005  0.1043930E+01  0.7957747E-01            NaN
         13   -1    0    0    0    0  0.00000000000E+00  0.00000000000E+00  0.74505805969E-08  0.10566000000E+00  0.10566000000E+00 0.  1.
     999900   -1    0    0    0    0 -0.00000000000E+00 -0.00000000000E+00 -0.74505805969E-08  0.93827000000E+00  0.93827000000E+00 0. -1.
     999902    2    1    2    0    0 -0.11371868396E-01 -0.34368801583E-02  0.19767088385E-01  0.10208677078E+01  0.10206071760E+01 0.  0.
     999903    2    3    3    0    0 -0.31138015983E-01 -0.91284964112E-01 -0.85007389484E-01  0.13008957742E+00  0.19862557062E-01 0.  0.
         14    1    1    2    0    0  0.11371868396E-01  0.34368801583E-02 -0.19767088385E-01  0.23062292151E-01  0.00000000000E+00 0. -1.
     999901    1    3    3    0    0  0.19766147587E-01  0.87848083954E-01  0.10477447787E+00  0.89077813043E+00  0.88000000000E+00 0. -1.
        -11    1    4    4    0    0 -0.13891016692E-01 -0.51288920568E-01 -0.34327679532E-01  0.63262662138E-01  0.51100000000E-03 0. -1.
         11    1    4    4    0    0 -0.17246999291E-01 -0.39996043545E-01 -0.50679709952E-01  0.66826915278E-01  0.51100000000E-03 0.  1.
</event>
<event>
 8    1  0.1090774E+005  0.1043930E+01  0.7957747E-01            NaN
         13   -1    0    0    0    0  0.00000000000E+00  0.00000000000E+00  0.74505805969E-08  0.10566000000E+00  0.10566000000E+00 0.  1.
     999900   -1    0    0    0    0 -0.00000000000E+00 -0.00000000000E+00 -0.74505805969E-08  0.93827000000E+00  0.93827000000E+00 0. -1.
     999902    2    1    2    0    0  0.13516688418E-01  0.16921529631E-01  0.95484120995E-02  0.10202612188E+01  0.10199866388E+01 0.  0.
     999903    2    3    3    0    0 -0.21053831922E-01  0.12881245672E+00  0.96210893787E-02  0.13250297144E+00  0.20701672261E-01 0.  0.
         14    1    1    2    0    0 -0.13516688418E-01 -0.16921529631E-01 -0.95484120995E-02  0.23668781221E-01  0.00000000000E+00 0. -1.
     999901    1    3    3    0    0  0.34570520340E-01 -0.11189092709E+00 -0.72677279294E-04  0.88775824734E+00  0.88000000000E+00 0. -1.
        -11    1    4    4    0    0 -0.25238391583E-02  0.48475574801E-01  0.12058419366E-01  0.50019173474E-01  0.51100000000E-03 0. -1.
         11    1    4    4    0    0 -0.18529992763E-01  0.80336881918E-01 -0.24373299868E-02  0.82483797964E-01  0.51100000000E-03 0.  1.
</event>
<event>
 8    1  0.1090774E+005  0.1043930E+01  0.7957747E-01            NaN
         13   -1    0    0    0    0  0.00000000000E+00  0.00000000000E+00  0.74505805969E-08  0.10566000000E+00  0.10566000000E+00 0.  1.
     999900   -1    0    0    0    0 -0.00000000000E+00 -0.00000000000E+00 -0.74505805969E-08  0.93827000000E+00  0.93827000000E+00 0.  1.
     999902    2    1    2    0    0  0.68882846933E-02 -0.19070523325E-01  0.16694040193E-01  0.10176654935E+01  0.10173265121E+01 0.  0.
     999903    2    3    3    0    0  0.46707344248E-01  0.74321788024E-01  0.91957391149E-01  0.12863666754E+00  0.19645006136E-01 0.  0.
         14    1    1    2    0    0 -0.68882846933E-02  0.19070523325E-01 -0.16694040193E-01  0.26264506542E-01  0.00000000000E+00 0. -1.
     999901    1    3    3    0    0 -0.39819059555E-01 -0.93392311349E-01 -0.75263350955E-01  0.88902882592E+00  0.88000000000E+00 0. -1.
        -11    1    4    4    0    0  0.20096843827E-01  0.30191113835E-01  0.24606024461E-01  0.43830400947E-01  0.51100000000E-03 0.  1.
         11    1    4    4    0    0  0.26610500421E-01  0.44130674189E-01  0.67351366688E-01  0.84806266589E-01  0.51100000000E-03 0. -1.
</event>
<event>
 8    1  0.1090774E+005  0.1043930E+01  0.7957747E-01            NaN
         13   -1    0    0    0    0  0.00000000000E+00  0.00000000000E+00  0.74505805969E-08  0.10566000000E+00  0.10566000000E+00 0. -1.
     999900   -1    0    0    0    0 -0.00000000000E+00 -0.00000000000E+00 -0.74505805969E-08  0.93827000000E+00  0.93827000000E+00 0. -1.
     999902    2    1    2    0    0 -0.20618555709E-01  0.22966958840E-02  0.17229413746E-01  0.10169623833E+01  0.10166047594E+01 0.  0.
     999903    2    3    3    0    0 -0.97381847479E-01  0.20724182916E-01 -0.78420908069E-01  0.12826605762E+00  0.19738965007E-01 0.  0.
         14    1    1    2    0    0  0.20618555709E-01 -0.22966958840E-02 -0.17229413746E-01  0.26967616682E-01  0.00000000000E+00 0.  1.
     999901    1    3    3    0    0  0.76763291770E-01 -0.18427487032E-01  0.95650321815E-01  0.88869632570E+00  0.88000000000E+00 0.  1.
        -11    1    4    4    0    0 -0.71853067408E-01  0.12581534300E-01 -0.46163751551E-01  0.86327929313E-01  0.51100000000E-03 0. -1.
         11    1    4    4    0    0 -0.25528780071E-01  0.81426486161E-02 -0.32257156518E-01  0.41938128309E-01  0.51100000000E-03 0.  1.
</event>
<event>
 8    1  0.1090774E+005  0.1043930E+01  0.7957747E-01            NaN
         13   -1    0    0    0    0  0.00000000000E+00  0.00000000000E+00  0.74505805969E-08  0.10566000000E+00  0.10566000000E+00 0. -1.
     999900   -1    0    0    0    0 -0.00000000000E+00 -0.00000000000E+00 -0.74505805969E-08  0.93827000000E+00  0.93827000000E+00 0. -1.
     999902    2    1    2    0    0  0.12326291811E-02  0.22600783653E-01 -0.46796624825E-02  0.10208169293E+01  0.10205552357E+01 0.  0.
     999903    2    3    3    0    0  0.11030726469E+00 -0.57500739081E-01 -0.34492155863E-01  0.12997333201E+00  0.15143664744E-01 0.  0.
         14    1    1    2    0    0 -0.12326291811E-02 -0.22600783653E-01  0.46796624825E-02  0.23113070704E-01  0.00000000000E+00 0. -1.
     999901    1    3    3    0    0 -0.10907463550E+00  0.80101522734E-01  0.29812493380E-01  0.89084359728E+00  0.88000000000E+00 0. -1.
        -11    1    4    4    0    0  0.86409332913E-01 -0.47235539597E-01 -0.21097774866E-01  0.10071318802E+00  0.51100000000E-03 0. -1.
         11    1    4    4    0    0  0.23897931773E-01 -0.10265199484E-01 -0.13394380997E-01  0.29260143997E-01  0.51100000000E-03 0.  1.
</event>
<event>
 8    1  0.1090774E+005  0.1043930E+01  0.7957747E-01            NaN
         13   -1    0    0    0    0  0.00000000000E+00  0.00000000000E+00  0.74505805969E-08  0.10566000000E+00  0.10566000000E+00 0. -1.
     999900   -1    0    0    0    0 -0.00000000000E+00 -0.00000000000E+00 -0.74505805969E-08  0.93827000000E+00  0.93827000000E+00 0. -1.
     999902    2    1    2    0    0  0.17167459766E-01 -0.11855253021E-01  0.10805363947E-01  0.10204347965E+01  0.10201642756E+01 0.  0.
     999903    2    3    3    0    0  0.87996965231E-02 -0.17618005222E-01 -0.12678290465E+00  0.12968580801E+00  0.18885844448E-01 0.  0.
         14    1    1    2    0    0 -0.17167459766E-01  0.11855253021E-01 -0.10805363947E-01  0.23495203533E-01  0.00000000000E+00 0.  1.
     999901    1    3    3    0    0  0.83677632429E-02  0.57627522008E-02  0.13758826860E+00  0.89074898845E+00  0.88000000000E+00 0.  1.
        -11    1    4    4    0    0  0.60555373036E-02 -0.11331257076E-01 -0.11712548123E+00  0.11782914068E+00  0.51100000000E-03 0.  1.
         11    1    4    4    0    0  0.27441592195E-02 -0.62867481458E-02 -0.96574234271E-02  0.11856667336E-01  0.51100000000E-03 0. -1.
</event>
<event>
 8    1  0.1090774E+005  0.1043930E+01  0.7957747E-01            NaN
         13   -1    0    0    0    0  0.00000000000E+00  0.00000000000E+00  0.74505805969E-08  0.10566000000E+00  0.10566000000E+00 0. -1.
     999900   -1    0    0    0    0 -0.00000000000E+00 -0.00000000000E+00 -0.74505805969E-08  0.93827000000E+00  0.93827000000E+00 0. -1.
     999902    2    1    2    0    0  0.10043463080E-01  0.71348889345E-02 -0.20277160379E-01  0.10202036218E+01  0.10199276881E+01 0.  0.
     999903    2    3    3    0    0 -0.12041533680E+00 -0.34598619758E-01 -0.26110736755E-01  0.12958854508E+00  0.20359337309E-01 0.  0.
         14    1    1    2    0    0 -0.10043463080E-01 -0.71348889345E-02  0.20277160379E-01  0.23726378227E-01  0.00000000000E+00 0. -1.
     999901    1    3    3    0    0  0.13045879989E+00  0.41733508692E-01  0.58335763765E-02  0.89061507669E+00  0.88000000000E+00 0.  1.
        -11    1    4    4    0    0 -0.96613778598E-01 -0.20547795647E-01 -0.25150747932E-01  0.10192769674E+00  0.51100000000E-03 0. -1.
         11    1    4    4    0    0 -0.23801558206E-01 -0.14050824111E-01 -0.95998882322E-03  0.27660848338E-01  0.51100000000E-03 0.  1.
</event>
<event>
 8    1  0.1090774E+005  0.1043930E+01  0.7957747E-01            NaN
         13   -1    0    0    0    0  0.00000000000E+00  0.00000000000E+00  0.74505805969E-08  0.10566000000E+00  0.10566000000E+00 0. -1.
     999900   -1    0    0    0    0 -0.00000000000E+00 -0.00000000000E+00 -0.74505805969E-08  0.93827000000E+00  0.93827000000E+00 0. -1.
     999902    2    1    2    0    0 -0.65013514031E-02  0.21536827556E-02  0.22713730206E-01  0.10202061837E+01  0.10199303103E+01 0.  0.
     999903    2    3    3    0    0 -0.12830236605E+00  0.18187642642E-01 -0.21093587828E-02  0.13132556136E+00  0.21205334071E-01 0.  0.
         14    1    1    2    0    0  0.65013514031E-02 -0.21536827556E-02 -0.22713730206E-01  0.23723816290E-01  0.00000000000E+00 0.  1.
     999901    1    3    3    0    0  0.12180101465E+00 -0.16033959886E-01  0.24823088989E-01  0.88888062235E+00  0.88000000000E+00 0.  1.
        -11    1    4    4    0    0 -0.81820953444E-01  0.19638180897E-01 -0.76335836774E-02  0.84491770559E-01  0.51100000000E-03 0.  1.
         11    1    4    4    0    0 -0.46481412608E-01 -0.14505382554E-02  0.55242248947E-02  0.46833790802E-01  0.51100000000E-03 0. -1.
</event>
<event>
 8    1  0.1090774E+005  0.1043930E+01  0.7957747E-01            NaN
         13   -1    0    0    0    0  0.00000000000E+00  0.00000000000E+00  0.74505805969E-08  0.10566000000E+00  0.10566000000E+00 0. -1.
     999900   -1    0    0    0    0 -0.00000000000E+00 -0.00000000000E+00 -0.74505805969E-08  0.93827000000E+00  0.93827000000E+00 0.  1.
     999902    2    1    2    0    0 -0.72081861203E-02  0.80974490939E-02  0.20452459973E-01  0.10207820034E+01  0.10205195092E+01 0.  0.
     999903    2    3    3    0    0  0.32379166336E-01  0.24907949204E-01 -0.11960233314E+00  0.12866928826E+00  0.24129884016E-01 0.  0.
         14    1    1    2    0    0  0.72081861203E-02 -0.80974490939E-02 -0.20452459973E-01  0.23147996628E-01  0.00000000000E+00 0. -1.
     999901    1    3    3    0    0 -0.39587352456E-01 -0.16810500110E-01  0.14005479311E+00  0.89211271511E+00  0.88000000000E+00 0. -1.
        -11    1    4    4    0    0  0.24549364081E-01  0.53216062165E-02 -0.50294196572E-01  0.56220619877E-01  0.51100000000E-03 0. -1.
         11    1    4    4    0    0  0.78298022551E-02  0.19586342988E-01 -0.69308136569E-01  0.72448668384E-01  0.51100000000E-03 0.  1.
</event>
<event>
 8    1  0.1090774E+005  0.1043930E+01  0.7957747E-01            NaN
         13   -1    0    0    0    0  0.00000000000E+00  0.00000000000E+00  0.74505805969E-08  0.10566000000E+00  0.10566000000E+00 0.  1.
     999900   -1    0    0    0    0 -0.00000000000E+00 -0.00000000000E+00 -0.74505805969E-08  0.93827000000E+00  0.93827000000E+00 0. -1.
     999902    2    1    2    0    0 -0.30098473487E-02  0.20472698018E-01  0.11674598387E-01  0.10201710692E+01  0.10198943689E+01 0.  0.
     999903    2    3    3    0    0 -0.64907521109E-01  0.34123618252E-01 -0.10578827615E+00  0.13010635440E+00  0.18949840777E-01 0.  0.
         14    1    1    2    0    0  0.30098473487E-02 -0.20472698018E-01 -0.11674598387E-01  0.23758930799E-01  0.00000000000E+00 0. -1.
     999901    1    3    3    0    0  0.61897673761E-01 -0.13650920234E-01  0.11746287454E+00  0.89006471480E+00  0.88000000000E+00 0.  1.
        -11    1    4    4    0    0 -0.17692421308E-01  0.59120056011E-02 -0.41476471817E-01  0.45481121549E-01  0.51100000000E-03 0. -1.
         11    1    4    4    0    0 -0.47215099802E-01  0.28211612651E-01 -0.64311804332E-01  0.84625232851E-01  0.51100000000E-03 0.  1.
</event>
<event>
 8    1  0.1090774E+005  0.1043930E+01  0.7957747E-01            NaN
         13   -1    0    0    0    0  0.00000000000E+00  0.00000000000E+00  0.74505805969E-08  0.10566000000E+00  0.10566000000E+00 0. -1.
     999900   -1    0    0    0    0 -0.00000000000E+00 -0.00000000000E+00 -0.74505805969E-08  0.93827000000E+00  0.93827000000E+00 0.  1.
     999902    2    1    2    0    0 -0.22372990288E-01  0.79403179222E-02 -0.24497742363E-02  0.10200636903E+01  0.10197844535E+01 0.  0.
     999903    2    3    3    0    0  0.12906962484E-01 -0.83001749462E-02  0.12746463503E+00  0.12967827805E+00  0.18268553039E-01 0.  0.
         14    1    1    2    0    0  0.22372990288E-01 -0.79403179222E-02  0.24497742363E-02  0.23866309663E-01  0.00000000000E+00 0.  1.
     999901    1    3    3    0    0 -0.35279952771E-01  0.16240492868E-01 -0.12991440927E+00  0.89038541229E+00  0.88000000000E+00 0.  1.
        -11    1    4    4    0    0  0.60139230519E-02  0.52471969724E-02  0.59346562691E-01  0.59883019052E-01  0.51100000000E-03 0. -1.
         11    1    4    4    0    0  0.68930394320E-02 -0.13547371919E-01  0.68118072340E-01  0.69795259000E-01  0.51100000000E-03 0.  1.
</event>
<event>
 8    1  0.1090774E+005  0.1043930E+01  0.7957747E-01            NaN
         13   -1    0    0    0    0  0.00000000000E+00  0.00000000000E+00  0.74505805969E-08  0.10566000000E+00  0.10566000000E+00 0.  1.
     999900   -1    0    0    0    0 -0.00000000000E+00 -0.00000000000E+00 -0.74505805969E-08  0.93827000000E+00  0.93827000000E+00 0. -1.
     999902    2    1    2    0    0  0.20469574080E-01  0.13141703238E-01 -0.23186071724E-02  0.10194947025E+01  0.10192018272E+01 0.  0.
     999903    2    3    3    0    0  0.84307571727E-01  0.69955267640E-01  0.71310458603E-01  0.13229443737E+00  0.20374752283E-01 0.  0.
         14    1    1    2    0    0 -0.20469574080E-01 -0.13141703238E-01  0.23186071724E-02  0.24435297548E-01  0.00000000000E+00 0.  1.
     999901    1    3    3    0    0 -0.63837997646E-01 -0.56813564402E-01 -0.73629065775E-01  0.88720026509E+00  0.88000000000E+00 0. -1.
        -11    1    4    4    0    0  0.22160822254E-01  0.28803826947E-01  0.17350260773E-01  0.40274745929E-01  0.51100000000E-03 0. -1.
         11    1    4    4    0    0  0.62146749473E-01  0.41151440693E-01  0.53960197830E-01  0.92019691436E-01  0.51100000000E-03 0.  1.
</event>
<event>
 8    1  0.1090774E+005  0.1043930E+01  0.7957747E-01            NaN
         13   -1    0    0    0    0  0.00000000000E+00  0.00000000000E+00  0.74505805969E-08  0.10566000000E+00  0.10566000000E+00 0. -1.
     999900   -1    0    0    0    0 -0.00000000000E+00 -0.00000000000E+00 -0.74505805969E-08  0.93827000000E+00  0.93827000000E+00 0. -1.
     999902    2    1    2    0    0 -0.20112535020E-01 -0.64409113031E-02 -0.11148315851E-01  0.10200493729E+01  0.10197697970E+01 0.  0.
     999903    2    3    3    0    0  0.95467609073E-01 -0.68493585658E-01 -0.50536969991E-01  0.12945363400E+00  0.19970537362E-01 0.  0.
         14    1    1    2    0    0  0.20112535020E-01  0.64409113031E-02  0.11148315851E-01  0.23880627078E-01  0.00000000000E+00 0. -1.
     999901    1    3    3    0    0 -0.11558014409E+00  0.62052674355E-01  0.39388654140E-01  0.89059573892E+00  0.88000000000E+00 0. -1.
        -11    1    4    4    0    0  0.86647382531E-01 -0.56749691324E-01 -0.49278659184E-01  0.11470372155E+00  0.51100000000E-03 0.  1.
         11    1    4    4    0    0  0.88202265420E-02 -0.11743894335E-01 -0.12583108069E-02  0.14749912457E-01  0.51100000000E-03 0. -1.
</event>
<event>
 8    1  0.1253959E+005  0.1043930E+01  0.7957747E-01            NaN
         13   -1    0    0    0    0  0.00000000000E+00  0.00000000000E+00  0.74505805969E-08  0.10566000000E+00  0.10566000000E+00 0. -1.
     999900   -1    0    0    0    0 -0.00000000000E+00 -0.00000000000E+00 -0.74505805969E-08  0.93827000000E+00  0.93827000000E+00 0. -1.
     999902    2    1    2    0    0  0.50960216683E-02 -0.23940653322E-01 -0.73433585050E-03  0.10194419709E+01  0.10191478149E+01 0.  0.
     999903    2    3    3    0    0 -0.55270775738E-01  0.49449350829E-01  0.10273103210E+00  0.12829926334E+00  0.20172730808E-01 0.  0.
         14    1    1    2    0    0 -0.50960216683E-02  0.23940653322E-01  0.73433585050E-03  0.24488029065E-01  0.00000000000E+00 0. -1.
     999901    1    3    3    0    0  0.60366797406E-01 -0.73390004151E-01 -0.10346536795E+00  0.89114270760E+00  0.88000000000E+00 0. -1.
        -11    1    4    4    0    0 -0.24740832847E-01  0.98234638231E-02  0.40251397973E-01  0.48260184534E-01  0.51100000000E-03 0.  1.
         11    1    4    4    0    0 -0.30529942890E-01  0.39625887006E-01  0.62479634129E-01  0.80039078804E-01  0.51100000000E-03 0. -1.
</event>
<event>
 8    1  0.1090774E+005  0.1043930E+01  0.7957747E-01            NaN
         13   -1    0    0    0    0  0.00000000000E+00  0.00000000000E+00  0.74505805969E-08  0.10566000000E+00  0.10566000000E+00 0.  1.
     999900   -1    0    0    0    0 -0.00000000000E+00 -0.00000000000E+00 -0.74505805969E-08  0.93827000000E+00  0.93827000000E+00 0.  1.
     999902    2    1    2    0    0  0.17346927825E-02  0.16587324174E-01  0.14315467307E-01  0.10219508943E+01  0.10217145146E+01 0.  0.
     999903    2    3    3    0    0 -0.10580328590E+00  0.52206064506E-02  0.78213101939E-01  0.13303215403E+00  0.18938707743E-01 0.  0.
         14    1    1    2    0    0 -0.17346927825E-02 -0.16587324174E-01 -0.14315467307E-01  0.21979105681E-01  0.00000000000E+00 0. -1.
     999901    1    3    3    0    0  0.10753797868E+00  0.11366717724E-01 -0.63897634632E-01  0.88891874029E+00  0.88000000000E+00 0.  1.
        -11    1    4    4    0    0 -0.37536503343E-01  0.83374978635E-02  0.36188264559E-01  0.52804872565E-01  0.51100000000E-03 0. -1.
         11    1    4    4    0    0 -0.68266782558E-01 -0.31168914129E-02  0.42024837380E-01  0.80227281462E-01  0.51100000000E-03 0.  1.
</event>
<event>
 8    1  0.1090774E+005  0.1043930E+01  0.7957747E-01            NaN
         13   -1    0    0    0    0  0.00000000000E+00  0.00000000000E+00  0.74505805969E-08  0.10566000000E+00  0.10566000000E+00 0.  1.
     999900   -1    0    0    0    0 -0.00000000000E+00 -0.00000000000E+00 -0.74505805969E-08  0.93827000000E+00  0.93827000000E+00 0. -1.
     999902    2    1    2    0    0  0.23291916375E-01 -0.49363029462E-02  0.73463464786E-03  0.10201094177E+01  0.10198312624E+01 0.  0.
     999903    2    3    3    0    0 -0.68409036870E-01 -0.29714519545E-01  0.10376728392E+00  0.12902089699E+00  0.17776210272E-01 0.  0.
         14    1    1    2    0    0 -0.23291916375E-01  0.49363029462E-02 -0.73463464786E-03  0.23820582345E-01  0.00000000000E+00 0. -1.
     999901    1    3    3    0    0  0.91700953244E-01  0.24778216599E-01 -0.10303264927E+00  0.89108852066E+00  0.88000000000E+00 0.  1.
        -11    1    4    4    0    0 -0.19550670488E-01 -0.15075424823E-01  0.24682110612E-01  0.34913677197E-01  0.51100000000E-03 0. -1.
         11    1    4    4    0    0 -0.48858366381E-01 -0.14639094722E-01  0.79085173305E-01  0.94107219795E-01  0.51100000000E-03 0.  1.
</event>
<event>
 8    1  0.1090774E+005  0.1043930E+01  0.7957747E-01            NaN
         13   -1    0    0    0    0  0.00000000000E+00  0.00000000000E+00  0.74505805969E-08  0.10566000000E+00  0.10566000000E+00 0.  1.
     999900   -1    0    0    0    0 -0.00000000000E+00 -0.00000000000E+00 -0.74505805969E-08  0.93827000000E+00  0.93827000000E+00 0.  1.
     999902    2    1    2    0    0  0.47659952630E-02  0.20264761075E-01  0.28055893141E-02  0.10229241298E+01  0.10227084280E+01 0.  0.
     999903    2    3    3    0    0  0.54821859727E-01  0.11844248721E+00 -0.30057709002E-01  0.13544204441E+00  0.20174797207E-01 0.  0.
         14    1    1    2    0    0 -0.47659952630E-02 -0.20264761075E-01 -0.28055893141E-02  0.21005870219E-01  0.00000000000E+00 0. -1.
     999901    1    3    3    0    0 -0.50055864464E-01 -0.98177726139E-01  0.32863298316E-01  0.88748208537E+00  0.88000000000E+00 0. -1.
        -11    1    4    4    0    0  0.40332481267E-01  0.63415866984E-01 -0.16630759672E-01  0.76974830423E-01  0.51100000000E-03 0. -1.
         11    1    4    4    0    0  0.14489378460E-01  0.55026620230E-01 -0.13426949330E-01  0.58467213987E-01  0.51100000000E-03 0.  1.
</event>
<event>
 8    1  0.1090774E+005  0.1043930E+01  0.7957747E-01            NaN
         13   -1    0    0    0    0  0.00000000000E+00  0.00000000000E+00  0.74505805969E-08  0.10566000000E+00  0.10566000000E+00 0.  1.
     999900   -1    0    0    0    0 -0.00000000000E+00 -0.00000000000E+00 -0.74505805969E-08  0.93827000000E+00  0.93827000000E+00 0. -1.
     999902    2    1    2    0    0 -0.18388646299E-01 -0.19230581315E-02 -0.15182920056E-01  0.10200059216E+01  0.10197253153E+01 0.  0.
     999903    2    3    3    0    0 -0.10985623865E+00  0.23829852413E-02  0.67687283169E-01  0.13138207935E+00  0.24609158476E-01 0.  0.
         14    1    1    2    0    0  0.18388646299E-01  0.19230581315E-02  0.15182920056E-01  0.23924078388E-01  0.00000000000E+00 0.  1.
     999901    1    3    3    0    0  0.91467592354E-01 -0.43060433729E-02 -0.82870203224E-01  0.88862384227E+00  0.88000000000E+00 0. -1.
        -11    1    4    4    0    0 -0.83278275887E-01 -0.63106169061E-02  0.42344818177E-01  0.93639948034E-01  0.51100000000E-03 0.  1.
         11    1    4    4    0    0 -0.26577962767E-01  0.86936021475E-02  0.25342464992E-01  0.37742131312E-01  0.51100000000E-03 0. -1.
</event>
<event>
 8    1  0.1090774E+005  0.1043930E+01  0.7957747E-01            NaN
         13   -1    0    0    0    0  0.00000000000E+00  0.00000000000E+00  0.74505805969E-08  0.10566000000E+00  0.10566000000E+00 0.  1.
     999900   -1    0    0    0    0 -0.00000000000E+00 -0.00000000000E+00 -0.74505805969E-08  0.93827000000E+00  0.93827000000E+00 0.  1.
     999902    2    1    2    0    0 -0.20890694284E-01 -0.23443544615E-02  0.11208121333E-01  0.10201069211E+01  0.10198287069E+01 0.  0.
     999903    2    3    3    0    0  0.65659829859E-02  0.79978237488E-01 -0.99020698687E-01  0.12899454262E+00  0.19871151292E-01 0.  0.
         14    1    1    2    0    0  0.20890694284E-01  0.23443544615E-02 -0.11208121333E-01  0.23823078923E-01  0.00000000000E+00 0. -1.
     999901    1    3    3    0    0 -0.27456677270E-01 -0.82322591949E-01  0.11022882002E+00  0.89111237845E+00  0.88000000000E+00 0. -1.
        -11    1    4    4    0    0  0.93246011188E-02  0.15273024064E-01 -0.20978959634E-01  0.27578820106E-01  0.51100000000E-03 0.  1.
         11    1    4    4    0    0 -0.27586181330E-02  0.64705213424E-01 -0.78041739053E-01  0.10141572252E+00  0.51100000000E-03 0. -1.
</event>
<event>
 8    1  0.1090774E+005  0.1043930E+01  0.7957747E-01            NaN
         13   -1    0    0    0    0  0.00000000000E+00  0.00000000000E+00  0.74505805969E-08  0.10566000000E+00  0.10566000000E+00 0.  1.
     999900   -1    0    0    0    0 -0.00000000000E+00 -0.00000000000E+00 -0.74505805969E-08  0.93827000000E+00  0.93827000000E+00 0.  1.
     999902    2    1    2    0    0  0.18183776214E-01 -0.72384610092E-02 -0.90681733449E-02  0.10223597241E+01  0.10221321483E+01 0.  0.
     999903    2    3    3    0    0  0.87266656594E-01  0.96943080342E-01 -0.20338244457E-01  0.13345407531E+00  0.19568235750E-01 0.  0.
         14    1    1    2    0    0 -0.18183776214E-01  0.72384610092E-02  0.90681733449E-02  0.21570275914E-01  0.00000000000E+00 0.  1.
     999901    1    3    3    0    0 -0.69082880380E-01 -0.10418154135E+00  0.11270071112E-01  0.88890564877E+00  0.88000000000E+00 0. -1.
        -11    1    4    4    0    0  0.23376102594E-01  0.29523162682E-01 -0.14599815018E-01  0.40391521719E-01  0.51100000000E-03 0.  1.
         11    1    4    4    0    0  0.63890554000E-01  0.67419917660E-01 -0.57384294392E-02  0.93062553593E-01  0.51100000000E-03 0. -1.
</event>
<event>
 8    1  0.1090774E+005  0.1043930E+01  0.7957747E-01            NaN
         13   -1    0    0    0    0  0.00000000000E+00  0.00000000000E+00  0.74505805969E-08  0.10566000000E+00  0.10566000000E+00 0. -1.
     999900   -1    0    0    0    0 -0.00000000000E+00 -0.00000000000E+00 -0.74505805969E-08  0.93827000000E+00  0.93827000000E+00 0.  1.
     999902    2    1    2    0    0 -0.18226538682E-01 -0.34261917812E-02 -0.18300183787E-01  0.10178753991E+01  0.10175418841E+01 0.  0.
     999903    2    3    3    0    0 -0.11803262774E+00 -0.36937604778E-01 -0.38565622024E-01  0.13136823148E+00  0.21776528233E-01 0.  0.
         14    1    1    2    0    0  0.18226538682E-01  0.34261917812E-02  0.18300183787E-01  0.26054600920E-01  0.00000000000E+00 0. -1.
     999901    1    3    3    0    0  0.99806089062E-01  0.33511412997E-01  0.20265438237E-01  0.88650716760E+00  0.88000000000E+00 0. -1.
        -11    1    4    4    0    0 -0.10011510767E+00 -0.25131154726E-01 -0.25809994638E-01  0.10640031328E+00  0.51100000000E-03 0. -1.
         11    1    4    4    0    0 -0.17917520076E-01 -0.11806450052E-01 -0.12755627386E-01  0.24967918205E-01  0.51100000000E-03 0.  1.
</event>
<event>
 8    1  0.1090774E+005  0.1043930E+01  0.7957747E-01            NaN
         13   -1    0    0    0    0  0.00000000000E+00  0.00000000000E+00  0.74505805969E-08  0.10566000000E+00  0.10566000000E+00 0.  1.
     999900   -1    0    0    0    0 -0.00000000000E+00 -0.00000000000E+00 -0.74505805969E-08  0.93827000000E+00  0.93827000000E+00 0.  1.
     999902    2    1    2    0    0 -0.10707217806E-01 -0.16057405491E-01 -0.12314081554E-01  0.10210363024E+01  0.10207796087E+01 0.  0.
     999903    2    3    3    0    0  0.68339805495E-01 -0.20621020237E-01 -0.10933951048E+00  0.13217006258E+00  0.20450951084E-01 0.  0.
         14    1    1    2    0    0  0.10707217806E-01  0.16057405491E-01  0.12314081554E-01  0.22893697577E-01  0.00000000000E+00 0. -1.
     999901    1    3    3    0    0 -0.79047023301E-01  0.45636147464E-02  0.97025428924E-01  0.88886623984E+00  0.88000000000E+00 0. -1.
        -11    1    4    4    0    0  0.43108566048E-01 -0.27167194583E-02 -0.67308936143E-01  0.79978015961E-01  0.51100000000E-03 0.  1.
         11    1    4    4    0    0  0.25231239448E-01 -0.17904300779E-01 -0.42030574335E-01  0.52192046620E-01  0.51100000000E-03 0. -1.
</event>
<event>
 8    1  0.1090774E+005  0.1043930E+01  0.7957747E-01            NaN
         13   -1    0    0    0    0  0.00000000000E+00  0.00000000000E+00  0.74505805969E-08  0.10566000000E+00  0.10566000000E+00 0. -1.
     999900   -1    0    0    0    0 -0.00000000000E+00 -0.00000000000E+00 -0.74505805969E-08  0.93827000000E+00  0.93827000000E+00 0.  1.
     999902    2    1    2    0    0  0.17578016906E-01 -0.65692721572E-02  0.13670792991E-01  0.10207129245E+01  0.10204488432E+01 0.  0.
     999903    2    3    3    0    0 -0.12294653697E-01  0.43130565062E-01  0.12311560427E+00  0.13203940907E+00  0.16295685914E-01 0.  0.
         14    1    1    2    0    0 -0.17578016906E-01  0.65692721572E-02 -0.13670792991E-01  0.23217075527E-01  0.00000000000E+00 0.  1.
     999901    1    3    3    0    0  0.29872670603E-01 -0.49699837219E-01 -0.10944481128E+00  0.88867351541E+00  0.88000000000E+00 0.  1.
        -11    1    4    4    0    0 -0.89385636228E-02  0.34253767588E-01  0.74260123013E-01  0.82268131767E-01  0.51100000000E-03 0. -1.
         11    1    4    4    0    0 -0.33560900742E-02  0.88767974741E-02  0.48855481259E-01  0.49771277299E-01  0.51100000000E-03 0.  1.
</event>
<event>
 8    1  0.1090774E+005  0.1043930E+01  0.7957747E-01            NaN
         13   -1    0    0    0    0  0.00000000000E+00  0.00000000000E+00  0.74505805969E-08  0.10566000000E+00  0.10566000000E+00 0. -1.
     999900   -1    0    0    0    0 -0.00000000000E+00 -0.00000000000E+00 -0.74505805969E-08  0.93827000000E+00  0.93827000000E+00 0. -1.
     999902    2    1    2    0    0  0.20044896820E-01  0.31426169344E-02 -0.12045612479E-01  0.10203340107E+01  0.10200611368E+01 0.  0.
     999903    2    3    3    0    0  0.63555770339E-01 -0.64759663767E-01 -0.94902998136E-01  0.13277034417E+00  0.19703685967E-01 0.  0.
         14    1    1    2    0    0 -0.20044896820E-01 -0.31426169344E-02  0.12045612479E-01  0.23595989272E-01  0.00000000000E+00 0. -1.
     999901    1    3    3    0    0 -0.43510873520E-01  0.67902280702E-01  0.82857385657E-01  0.88756366656E+00  0.88000000000E+00 0.  1.
        -11    1    4    4    0    0  0.53393998531E-01 -0.43982852644E-01 -0.77045479327E-01  0.10354553304E+00  0.51100000000E-03 0. -1.
         11    1    4    4    0    0  0.10161771808E-01 -0.20776811124E-01 -0.17857518809E-01  0.29224811134E-01  0.51100000000E-03 0.  1.
</event>
<event>
 8    1  0.1090774E+005  0.1043930E+01  0.7957747E-01            NaN
         13   -1    0    0    0    0  0.00000000000E+00  0.00000000000E+00  0.74505805969E-08  0.10566000000E+00  0.10566000000E+00 0.  1.
     999900   -1    0    0    0    0 -0.00000000000E+00 -0.00000000000E+00 -0.74505805969E-08  0.93827000000E+00  0.93827000000E+00 0. -1.
     999902    2    1    2    0    0  0.90033566464E-03  0.17172427742E-01 -0.44365904999E-02  0.10261708836E+01  0.10260172007E+01 0.  0.
     999903    2    3    3    0    0  0.10733045505E+00  0.43324200431E-01  0.69243998261E-01  0.13631689860E+00  0.19767463741E-01 0.  0.
         14    1    1    2    0    0 -0.90033566464E-03 -0.17172427742E-01  0.44365904999E-02  0.17759116367E-01  0.00000000000E+00 0. -1.
     999901    1    3    3    0    0 -0.10643011939E+00 -0.26151772689E-01 -0.73680588761E-01  0.88985398504E+00  0.88000000000E+00 0. -1.
        -11    1    4    4    0    0  0.31115645054E-01  0.15116349182E-01  0.10899273242E-01  0.36273167189E-01  0.51100000000E-03 0. -1.
         11    1    4    4    0    0  0.76214809997E-01  0.28207851249E-01  0.58344725019E-01  0.10004373141E+00  0.51100000000E-03 0.  1.
</event>
<event>
 8    1  0.1090774E+005  0.1043930E+01  0.7957747E-01            NaN
         13   -1    0    0    0    0  0.00000000000E+00  0.00000000000E+00  0.74505805969E-08  0.10566000000E+00  0.10566000000E+00 0.  1.
     999900   -1    0    0    0    0 -0.00000000000E+00 -0.00000000000E+00 -0.74505805969E-08  0.93827000000E+00  0.93827000000E+00 0. -1.
     999902    2    1    2    0    0 -0.13250103930E-01 -0.12658928122E-01 -0.11134725962E-01  0.10224871495E+01  0.10222622829E+01 0.  0.
     999903    2    3    3    0    0  0.22923771684E-01 -0.11759531454E-01 -0.12979677152E+00  0.13378582777E+00  0.19689081371E-01 0.  0.
         14    1    1    2    0    0  0.13250103930E-01  0.12658928122E-01  0.11134725962E-01  0.21442850501E-01  0.00000000000E+00 0.  1.
     999901    1    3    3    0    0 -0.36173875615E-01 -0.89939666829E-03  0.11866204556E+00  0.88870132173E+00  0.88000000000E+00 0.  1.
        -11    1    4    4    0    0  0.78892940055E-02  0.49940803807E-02 -0.50302322221E-01  0.51164113797E-01  0.51100000000E-03 0. -1.
         11    1    4    4    0    0  0.15034477679E-01 -0.16753611835E-01 -0.79494449301E-01  0.82621713970E-01  0.51100000000E-03 0.  1.
</event>
<event>
 8    1  0.1090774E+005  0.1043930E+01  0.7957747E-01            NaN
         13   -1    0    0    0    0  0.00000000000E+00  0.00000000000E+00  0.74505805969E-08  0.10566000000E+00  0.10566000000E+00 0.  1.
     999900   -1    0    0    0    0 -0.00000000000E+00 -0.00000000000E+00 -0.74505805969E-08  0.93827000000E+00  0.93827000000E+00 0.  1.
     999902    2    1    2    0    0 -0.17243758408E-01 -0.15954867606E-01  0.61304689728E-02  0.10196506332E+01  0.10193615286E+01 0.  0.
     999903    2    3    3    0    0  0.11416238428E+00 -0.56210957384E-01 -0.46343877011E-02  0.12891834496E+00  0.20142998892E-01 0.  0.
         14    1    1    2    0    0  0.17243758408E-01  0.15954867606E-01 -0.61304689728E-02  0.24279366841E-01  0.00000000000E+00 0. -1.
     999901    1    3    3    0    0 -0.13140614268E+00  0.40256089778E-01  0.10764856674E-01  0.89073228820E+00  0.88000000000E+00 0.  1.
        -11    1    4    4    0    0  0.79573247692E-01 -0.47622817944E-01  0.15131823865E-02  0.92749045165E-01  0.51100000000E-03 0. -1.
         11    1    4    4    0    0  0.34589136585E-01 -0.85881394403E-02 -0.61475700876E-02  0.36169299796E-01  0.51100000000E-03 0.  1.
</event>
<event>
 8    1  0.1090774E+005  0.1043930E+01  0.7957747E-01            NaN
         13   -1    0    0    0    0  0.00000000000E+00  0.00000000000E+00  0.74505805969E-08  0.10566000000E+00  0.10566000000E+00 0. -1.
     999900   -1    0    0    0    0 -0.00000000000E+00 -0.00000000000E+00 -0.74505805969E-08  0.93827000000E+00  0.93827000000E+00 0.  1.
     999902    2    1    2    0    0  0.71230133607E-02 -0.22924183104E-01  0.40277211242E-03  0.10199212992E+01  0.10196386805E+01 0.  0.
     999903    2    3    3    0    0  0.23750189861E-01  0.12337245730E+00  0.10072716080E-01  0.12763621142E+00  0.20117358639E-01 0.  0.
         14    1    1    2    0    0 -0.71230133607E-02  0.22924183104E-01 -0.40277211242E-03  0.24008700833E-01  0.00000000000E+00 0.  1.
     999901    1    3    3    0    0 -0.16627176500E-01 -0.14629664040E+00 -0.96699439681E-02  0.89228508774E+00  0.88000000000E+00 0. -1.
        -11    1    4    4    0    0  0.26470847633E-01  0.10380053429E+00  0.11911980759E-01  0.10778410411E+00  0.51100000000E-03 0. -1.
         11    1    4    4    0    0 -0.27206577720E-02  0.19571923011E-01 -0.18392646781E-02  0.19852107309E-01  0.51100000000E-03 0.  1.
</event>
<event>
 8    1  0.1090774E+005  0.1043930E+01  0.7957747E-01            NaN
         13   -1    0    0    0    0  0.00000000000E+00  0.00000000000E+00  0.74505805969E-08  0.10566000000E+00  0.10566000000E+00 0.  1.
     999900   -1    0    0    0    0 -0.00000000000E+00 -0.00000000000E+00 -0.74505805969E-08  0.93827000000E+00  0.93827000000E+00 0. -1.
     999902    2    1    2    0    0 -0.30631557831E-02  0.22043745692E-01 -0.36041274076E-02  0.10213845042E+01  0.10211356452E+01 0.  0.
     999903    2    3    3    0    0 -0.11175087652E-01 -0.85897219201E-01 -0.94964572647E-01  0.13005752361E+00  0.19836192629E-01 0.  0.
         14    1    1    2    0    0  0.30631557831E-02 -0.22043745692E-01  0.36041274076E-02  0.22545495822E-01  0.00000000000E+00 0. -1.
     999901    1    3    3    0    0  0.81119318691E-02  0.10794096489E+00  0.91360445239E-01  0.89132698057E+00  0.88000000000E+00 0.  1.
        -11    1    4    4    0    0 -0.39577653644E-02 -0.45608897672E-01 -0.35823397759E-01  0.58132713695E-01  0.51100000000E-03 0. -1.
         11    1    4    4    0    0 -0.72173222878E-02 -0.40288321529E-01 -0.59141174887E-01  0.71924809911E-01  0.51100000000E-03 0.  1.
</event>
<event>
 8    1  0.1090774E+005  0.1043930E+01  0.7957747E-01            NaN
         13   -1    0    0    0    0  0.00000000000E+00  0.00000000000E+00  0.74505805969E-08  0.10566000000E+00  0.10566000000E+00 0. -1.
     999900   -1    0    0    0    0 -0.00000000000E+00 -0.00000000000E+00 -0.74505805969E-08  0.93827000000E+00  0.93827000000E+00 0.  1.
     999902    2    1    2    0    0 -0.22859733390E-01 -0.22151704004E-02  0.56303012040E-02  0.10202831253E+01  0.10200090593E+01 0.  0.
     999903    2    3    3    0    0  0.81275092214E-01  0.57843753797E-01 -0.77392770576E-01  0.12823830205E+00  0.22447287283E-01 0.  0.
         14    1    1    2    0    0  0.22859733390E-01  0.22151704004E-02 -0.56303012040E-02  0.23646874681E-01  0.00000000000E+00 0.  1.
     999901    1    3    3    0    0 -0.10413482560E+00 -0.60058924198E-01  0.83023071780E-01  0.89204482327E+00  0.88000000000E+00 0. -1.
        -11    1    4    4    0    0  0.29100982593E-01  0.93801932497E-02 -0.17811885332E-01  0.35388975590E-01  0.51100000000E-03 0. -1.
         11    1    4    4    0    0  0.52174109622E-01  0.48463560548E-01 -0.59580885245E-01  0.92849326456E-01  0.51100000000E-03 0.  1.
</event>
<event>
 8    1  0.1090774E+005  0.1043930E+01  0.7957747E-01            NaN
         13   -1    0    0    0    0  0.00000000000E+00  0.00000000000E+00  0.74505805969E-08  0.10566000000E+00  0.10566000000E+00 0.  1.
     999900   -1    0    0    0    0 -0.00000000000E+00 -0.00000000000E+00 -0.74505805969E-08  0.93827000000E+00  0.93827000000E+00 0. -1.
     999902    2    1    2    0    0 -0.64947300616E-02  0.35259303748E-02 -0.22039706698E-01  0.10206843042E+01  0.10204195639E+01 0.  0.
     999903    2    3    3    0    0 -0.73973442409E-01 -0.77127224070E-01  0.70539163923E-01  0.12960116818E+00  0.20000256827E-01 0.  0.
         14    1    1    2    0    0  0.64947300616E-02 -0.35259303748E-02  0.22039706698E-01  0.23245695836E-01  0.00000000000E+00 0.  1.
     999901    1    3    3    0    0  0.67478712347E-01  0.80653154444E-01 -0.92578870621E-01  0.89108313598E+00  0.88000000000E+00 0. -1.
        -11    1    4    4    0    0 -0.19917634855E-01 -0.30804353037E-01  0.16511842489E-01  0.40230863869E-01  0.51100000000E-03 0.  1.
         11    1    4    4    0    0 -0.54055807555E-01 -0.46322871033E-01  0.54027321434E-01  0.89370304316E-01  0.51100000000E-03 0. -1.
</event>
<event>
 8    1  0.1090774E+005  0.1043930E+01  0.7957747E-01            NaN
         13   -1    0    0    0    0  0.00000000000E+00  0.00000000000E+00  0.74505805969E-08  0.10566000000E+00  0.10566000000E+00 0. -1.
     999900   -1    0    0    0    0 -0.00000000000E+00 -0.00000000000E+00 -0.74505805969E-08  0.93827000000E+00  0.93827000000E+00 0.  1.
     999902    2    1    2    0    0 -0.93393750223E-02 -0.21692560884E-01 -0.17371801422E-01  0.10146115654E+01  0.10141878810E+01 0.  0.
     999903    2    3    3    0    0  0.87909244901E-01 -0.87047038387E-02 -0.88042007559E-01  0.12634344340E+00  0.20185722341E-01 0.  0.
         14    1    1    2    0    0  0.93393750223E-02  0.21692560884E-01  0.17371801422E-01  0.29318434613E-01  0.00000000000E+00 0. -1.
     999901    1    3    3    0    0 -0.97248619923E-01 -0.12987857045E-01  0.70670206137E-01  0.88826812199E+00  0.88000000000E+00 0. -1.
        -11    1    4    4    0    0  0.25695647358E-02 -0.21202985172E-02 -0.98490870639E-02  0.10409801426E-01  0.51100000000E-03 0.  1.
         11    1    4    4    0    0  0.85339680165E-01 -0.65844053215E-02 -0.78192920495E-01  0.11593364197E+00  0.51100000000E-03 0. -1.
</event>
<event>
 8    1  0.1090774E+005  0.1043930E+01  0.7957747E-01            NaN
         13   -1    0    0    0    0  0.00000000000E+00  0.00000000000E+00  0.74505805969E-08  0.10566000000E+00  0.10566000000E+00 0. -1.
     999900   -1    0    0    0    0 -0.00000000000E+00 -0.00000000000E+00 -0.74505805969E-08  0.93827000000E+00  0.93827000000E+00 0. -1.
     999902    2    1    2    0    0 -0.54775411852E-02 -0.10367099306E-01 -0.20363227006E-01  0.10204323146E+01  0.10201617359E+01 0.  0.
     999903    2    3    3    0    0  0.56429121078E-01  0.29401901153E-01  0.10920853032E+00  0.12790620936E+00  0.19615753863E-01 0.  0.
         14    1    1    2    0    0  0.54775411852E-02  0.10367099306E-01  0.20363227006E-01  0.23497685408E-01  0.00000000000E+00 0. -1.
     999901    1    3    3    0    0 -0.61906662264E-01 -0.39769000459E-01 -0.12957175733E+00  0.89252610524E+00  0.88000000000E+00 0. -1.
        -11    1    4    4    0    0  0.37316057315E-01  0.13112383221E-01  0.51257496787E-01  0.64745770713E-01  0.51100000000E-03 0. -1.
         11    1    4    4    0    0  0.19113063763E-01  0.16289517932E-01  0.57951033535E-01  0.63160438643E-01  0.51100000000E-03 0.  1.
</event>
<event>
 8    1  0.1090774E+005  0.1043930E+01  0.7957747E-01            NaN
         13   -1    0    0    0    0  0.00000000000E+00  0.00000000000E+00  0.74505805969E-08  0.10566000000E+00  0.10566000000E+00 0. -1.
     999900   -1    0    0    0    0 -0.00000000000E+00 -0.00000000000E+00 -0.74505805969E-08  0.93827000000E+00  0.93827000000E+00 0. -1.
     999902    2    1    2    0    0 -0.13918898502E-01 -0.10638032641E-01  0.16862230318E-01  0.10196146081E+01  0.10193246346E+01 0.  0.
     999903    2    3    3    0    0 -0.11163174397E+00 -0.21724089723E-01 -0.61289265253E-01  0.13069483829E+00  0.19778381724E-01 0.  0.
         14    1    1    2    0    0  0.13918898502E-01  0.10638032641E-01 -0.16862230318E-01  0.24315391942E-01  0.00000000000E+00 0.  1.
     999901    1    3    3    0    0  0.97712845467E-01  0.11086057082E-01  0.78151495570E-01  0.88891976977E+00  0.88000000000E+00 0.  1.
        -11    1    4    4    0    0 -0.71832740863E-01 -0.64954228817E-02 -0.31539174143E-01  0.78721749249E-01  0.51100000000E-03 0.  1.
         11    1    4    4    0    0 -0.39799003107E-01 -0.15228666841E-01 -0.29750091110E-01  0.51973089038E-01  0.51100000000E-03 0. -1.
</event>
<event>
 8    1  0.1090774E+005  0.1043930E+01  0.7957747E-01            NaN
         13   -1    0    0    0    0  0.00000000000E+00  0.00000000000E+00  0.74505805969E-08  0.10566000000E+00  0.10566000000E+00 0.  1.
     999900   -1    0    0    0    0 -0.00000000000E+00 -0.00000000000E+00 -0.74505805969E-08  0.93827000000E+00  0.93827000000E+00 0.  1.
     999902    2    1    2    0    0 -0.31706579069E-02 -0.84336684466E-02 -0.21874185944E-01  0.10202728690E+01  0.10199985625E+01 0.  0.
     999903    2    3    3    0    0  0.91727501170E-01  0.88973130710E-01 -0.84791251406E-02  0.12972631058E+00  0.20660775239E-01 0.  0.
         14    1    1    2    0    0  0.31706579069E-02  0.84336684466E-02  0.21874185944E-01  0.23657130970E-01  0.00000000000E+00 0.  1.
     999901    1    3    3    0    0 -0.94898159077E-01 -0.97406799157E-01 -0.13395060804E-01  0.89054655845E+00  0.88000000000E+00 0. -1.
        -11    1    4    4    0    0  0.23923487961E-01  0.17248693980E-01  0.56028303159E-02  0.30025048689E-01  0.51100000000E-03 0. -1.
         11    1    4    4    0    0  0.67804013209E-01  0.71724436730E-01 -0.14081955457E-01  0.99701261887E-01  0.51100000000E-03 0.  1.
</event>
<event>
 8    1  0.1090774E+005  0.1043930E+01  0.7957747E-01            NaN
         13   -1    0    0    0    0  0.00000000000E+00  0.00000000000E+00  0.74505805969E-08  0.10566000000E+00  0.10566000000E+00 0.  1.
     999900   -1    0    0    0    0 -0.00000000000E+00 -0.00000000000E+00 -0.74505805969E-08  0.93827000000E+00  0.93827000000E+00 0.  1.
     999902    2    1    2    0    0  0.11440687497E-01 -0.20490946533E-01  0.10347742814E-02  0.10204387468E+01  0.10201683179E+01 0.  0.
     999903    2    3    3    0    0 -0.76593342865E-01  0.93897249461E-01 -0.36039471774E-01  0.12790911163E+00  0.19459282768E-01 0.  0.
         14    1    1    2    0    0 -0.11440687497E-01  0.20490946533E-01 -0.10347742813E-02  0.23491253224E-01  0.00000000000E+00 0.  1.
     999901    1    3    3    0    0  0.88034030362E-01 -0.11438819599E+00  0.37074246055E-01  0.89252963514E+00  0.88000000000E+00 0.  1.
        -11    1    4    4    0    0 -0.19835486067E-01  0.24730458211E-01 -0.71787061970E-03  0.31714642204E-01  0.51100000000E-03 0. -1.
         11    1    4    4    0    0 -0.56757856797E-01  0.69166791249E-01 -0.35321601154E-01  0.96194469431E-01  0.51100000000E-03 0.  1.
</event>
<event>
 8    1  0.1090774E+005  0.1043930E+01  0.7957747E-01            NaN
         13   -1    0    0    0    0  0.00000000000E+00  0.00000000000E+00  0.74505805969E-08  0.10566000000E+00  0.10566000000E+00 0. -1.
     999900   -1    0    0    0    0 -0.00000000000E+00 -0.00000000000E+00 -0.74505805969E-08  0.93827000000E+00  0.93827000000E+00 0. -1.
     999902    2    1    2    0    0  0.22662607620E-01  0.64106688949E-02  0.35654851080E-02  0.10201097745E+01  0.10198316277E+01 0.  0.
     999903    2    3    3    0    0 -0.24658900384E-01 -0.11336700797E+00 -0.53383895705E-01  0.12891437000E+00  0.17576535665E-01 0.  0.
         14    1    1    2    0    0 -0.22662607620E-01 -0.64106688949E-02 -0.35654851080E-02  0.23820225521E-01  0.00000000000E+00 0.  1.
     999901    1    3    3    0    0  0.47321508004E-01  0.11977767687E+00  0.56949380813E-01  0.89119540448E+00  0.88000000000E+00 0.  1.
        -11    1    4    4    0    0 -0.16219901647E-01 -0.46984974009E-01 -0.29828806331E-01  0.57971474022E-01  0.51100000000E-03 0. -1.
         11    1    4    4    0    0 -0.84389987364E-02 -0.66382033964E-01 -0.23555089374E-01  0.70942895975E-01  0.51100000000E-03 0.  1.
</event>
<event>
 8    1  0.1090774E+005  0.1043930E+01  0.7957747E-01            NaN
         13   -1    0    0    0    0  0.00000000000E+00  0.00000000000E+00  0.74505805969E-08  0.10566000000E+00  0.10566000000E+00 0. -1.
     999900   -1    0    0    0    0 -0.00000000000E+00 -0.00000000000E+00 -0.74505805969E-08  0.93827000000E+00  0.93827000000E+00 0.  1.
     999902    2    1    2    0    0 -0.12006928941E-01 -0.16899029133E-01 -0.12505078252E-01  0.10197200741E+01  0.10194326408E+01 0.  0.
     999903    2    3    3    0    0 -0.11264116563E+00  0.39210650620E-01  0.48483321377E-01  0.13011615629E+00  0.18816863671E-01 0.  0.
         14    1    1    2    0    0  0.12006928941E-01  0.16899029133E-01  0.12505078252E-01  0.24209925864E-01  0.00000000000E+00 0. -1.
     999901    1    3    3    0    0  0.10063423669E+00 -0.56109679754E-01 -0.60988399629E-01  0.88960391785E+00  0.88000000000E+00 0.  1.
        -11    1    4    4    0    0 -0.74441705546E-02 -0.20148522247E-02  0.24116932506E-02  0.80964615770E-02  0.51100000000E-03 0.  1.
         11    1    4    4    0    0 -0.10519699508E+00  0.41225502845E-01  0.46071628126E-01  0.12201969471E+00  0.51100000000E-03 0. -1.
</event>
<event>
 8    1  0.1090774E+005  0.1043930E+01  0.7957747E-01            NaN
         13   -1    0    0    0    0  0.00000000000E+00  0.00000000000E+00  0.74505805969E-08  0.10566000000E+00  0.10566000000E+00 0. -1.
     999900   -1    0    0    0    0 -0.00000000000E+00 -0.00000000000E+00 -0.74505805969E-08  0.93827000000E+00  0.93827000000E+00 0.  1.
     999902    2    1    2    0    0 -0.52887673592E-02  0.12616934682E-01 -0.18413287360E-01  0.10209907922E+01  0.10207330653E+01 0.  0.
     999903    2    3    3    0    0 -0.11117209644E+00 -0.17177788479E-01  0.62888525931E-01  0.13042412447E+00  0.20029331164E-01 0.  0.
         14    1    1    2    0    0  0.52887673592E-02 -0.12616934682E-01  0.18413287360E-01  0.22939207753E-01  0.00000000000E+00 0. -1.
     999901    1    3    3    0    0  0.10588332908E+00  0.29794723161E-01 -0.81301813290E-01  0.89056666777E+00  0.88000000000E+00 0.  1.
        -11    1    4    4    0    0 -0.15335814201E-01 -0.92424829505E-02  0.12625350542E-01  0.21915092645E-01  0.51100000000E-03 0.  1.
         11    1    4    4    0    0 -0.95836282239E-01 -0.79353055287E-02  0.50263175388E-01  0.10850903183E+00  0.51100000000E-03 0. -1.
</event>
<event>
 8    1  0.1090774E+005  0.1043930E+01  0.7957747E-01            NaN
         13   -1    0    0    0    0  0.00000000000E+00  0.00000000000E+00  0.74505805969E-08  0.10566000000E+00  0.10566000000E+00 0.  1.
     999900   -1    0    0    0    0 -0.00000000000E+00 -0.00000000000E+00 -0.74505805969E-08  0.93827000000E+00  0.93827000000E+00 0. -1.
     999902    2    1    2    0    0 -0.14573941107E-01 -0.11308655857E-01  0.13779434512E-01  0.10209048339E+01  0.10206451497E+01 0.  0.
     999903    2    3    3    0    0 -0.10328125575E+00  0.74559502195E-01 -0.24965722100E-01  0.13144234715E+00  0.20680091598E-01 0.  0.
         14    1    1    2    0    0  0.14573941107E-01  0.11308655857E-01 -0.13779434512E-01  0.23025166061E-01  0.00000000000E+00 0. -1.
     999901    1    3    3    0    0  0.88707314642E-01 -0.85868158052E-01  0.38745156612E-01  0.88946248679E+00  0.88000000000E+00 0.  1.
        -11    1    4    4    0    0 -0.62945212213E-01  0.38312259142E-01 -0.57782874775E-02  0.73916024435E-01  0.51100000000E-03 0.  1.
         11    1    4    4    0    0 -0.40336043536E-01  0.36247243053E-01 -0.19187434623E-01  0.57526322718E-01  0.51100000000E-03 0. -1.
</event>
<event>
 8    1  0.1090774E+005  0.1043930E+01  0.7957747E-01            NaN
         13   -1    0    0    0    0  0.00000000000E+00  0.00000000000E+00  0.74505805969E-08  0.10566000000E+00  0.10566000000E+00 0.  1.
     999900   -1    0    0    0    0 -0.00000000000E+00 -0.00000000000E+00 -0.74505805969E-08  0.93827000000E+00  0.93827000000E+00 0.  1.
     999902    2    1    2    0    0  0.12664548009E-02  0.24338502401E-01  0.42310169846E-03  0.10195548975E+01  0.10192634808E+01 0.  0.
     999903    2    3    3    0    0 -0.48091794350E-01 -0.13124651198E-01 -0.11765509314E+00  0.12950872750E+00  0.21088205327E-01 0.  0.
         14    1    1    2    0    0 -0.12664548009E-02 -0.24338502401E-01 -0.42310169846E-03  0.24375102501E-01  0.00000000000E+00 0. -1.
     999901    1    3    3    0    0  0.49358249151E-01  0.37463153599E-01  0.11807819484E+00  0.89004617000E+00  0.88000000000E+00 0. -1.
        -11    1    4    4    0    0 -0.43106324761E-01 -0.15434593422E-01 -0.86530996566E-01  0.97899215504E-01  0.51100000000E-03 0. -1.
         11    1    4    4    0    0 -0.49854695891E-02  0.23099422236E-02 -0.31124096572E-01  0.31609511994E-01  0.51100000000E-03 0.  1.
</event>
<event>
 8    1  0.1090774E+005  0.1043930E+01  0.7957747E-01            NaN
         13   -1    0    0    0    0  0.00000000000E+00  0.00000000000E+00  0.74505805969E-08  0.10566000000E+00  0.10566000000E+00 0.  1.
     999900   -1    0    0    0    0 -0.00000000000E+00 -0.00000000000E+00 -0.74505805969E-08  0.93827000000E+00  0.93827000000E+00 0.  1.
     999902    2    1    2    0    0  0.35806492769E-01  0.10413015960E-01 -0.65412995188E-02  0.10060707287E+01  0.10053581385E+01 0.  0.
     999903    2    3    3    0    0  0.63899213877E-01 -0.97084229538E-01  0.15297362536E-01  0.11881553093E+00  0.19356237502E-01 0.  0.
         14    1    1    2    0    0 -0.35806492769E-01 -0.10413015960E-01  0.65412995188E-02  0.37859271324E-01  0.00000000000E+00 0.  1.
     999901    1    3    3    0    0 -0.28092721108E-01  0.10749724550E+00 -0.21838662054E-01  0.88725519775E+00  0.88000000000E+00 0.  1.
        -11    1    4    4    0    0  0.13809621117E-01 -0.37506335184E-01  0.61610348473E-02  0.40443173537E-01  0.51100000000E-03 0. -1.
         11    1    4    4    0    0  0.50089592760E-01 -0.59577894353E-01  0.91363276884E-02  0.78372357392E-01  0.51100000000E-03 0.  1.
</event>
<event>
 8    1  0.1090774E+005  0.1043930E+01  0.7957747E-01            NaN
         13   -1    0    0    0    0  0.00000000000E+00  0.00000000000E+00  0.74505805969E-08  0.10566000000E+00  0.10566000000E+00 0.  1.
     999900   -1    0    0    0    0 -0.00000000000E+00 -0.00000000000E+00 -0.74505805969E-08  0.93827000000E+00  0.93827000000E+00 0. -1.
     999902    2    1    2    0    0 -0.23205490298E-01  0.36246991808E-02 -0.65617165361E-02  0.10195437467E+01  0.10192520602E+01 0.  0.
     999903    2    3    3    0    0 -0.79917464538E-01 -0.74739812665E-01  0.69005170671E-01  0.13102385435E+00  0.20801348351E-01 0.  0.
         14    1    1    2    0    0  0.23205490298E-01 -0.36246991808E-02  0.65617165361E-02  0.24386253259E-01  0.00000000000E+00 0. -1.
     999901    1    3    3    0    0  0.56711974240E-01  0.78364511845E-01 -0.75566887207E-01  0.88851989239E+00  0.88000000000E+00 0. -1.
        -11    1    4    4    0    0 -0.51458578972E-01 -0.36404612217E-01  0.32501934678E-01  0.70921914943E-01  0.51100000000E-03 0.  1.
         11    1    4    4    0    0 -0.28458885566E-01 -0.38335200448E-01  0.36503235993E-01  0.60101939403E-01  0.51100000000E-03 0. -1.
</event>
<event>
 8    1  0.1090774E+005  0.1043930E+01  0.7957747E-01            NaN
         13   -1    0    0    0    0  0.00000000000E+00  0.00000000000E+00  0.74505805969E-08  0.10566000000E+00  0.10566000000E+00 0. -1.
     999900   -1    0    0    0    0 -0.00000000000E+00 -0.00000000000E+00 -0.74505805969E-08  0.93827000000E+00  0.93827000000E+00 0. -1.
     999902    2    1    2    0    0 -0.62109793031E-02 -0.22206493804E-01  0.52196771526E-02  0.10202878838E+01  0.10200139294E+01 0.  0.
     999903    2    3    3    0    0 -0.91589386897E-02 -0.12726548072E+00 -0.32865722310E-01  0.13321597075E+00  0.19645620815E-01 0.  0.
         14    1    1    2    0    0  0.62109793031E-02  0.22206493804E-01 -0.52196771526E-02  0.23642116245E-01  0.00000000000E+00 0. -1.
     999901    1    3    3    0    0  0.29479593865E-02  0.10505898692E+00  0.38085399463E-01  0.88707191301E+00  0.88000000000E+00 0.  1.
        -11    1    4    4    0    0 -0.10420678772E-01 -0.42388690298E-01 -0.53514958129E-02  0.43980577983E-01  0.51100000000E-03 0.  1.
         11    1    4    4    0    0  0.12617400820E-02 -0.84876790425E-01 -0.27514226497E-01  0.89235392764E-01  0.51100000000E-03 0. -1.
</event>
<event>
 8    1  0.1090774E+005  0.1043930E+01  0.7957747E-01            NaN
         13   -1    0    0    0    0  0.00000000000E+00  0.00000000000E+00  0.74505805969E-08  0.10566000000E+00  0.10566000000E+00 0. -1.
     999900   -1    0    0    0    0 -0.00000000000E+00 -0.00000000000E+00 -0.74505805969E-08  0.93827000000E+00  0.93827000000E+00 0. -1.
     999902    2    1    2    0    0 -0.16697657987E-01 -0.15306944479E-01 -0.36191326644E-02  0.10209906789E+01  0.10207329494E+01 0.  0.
     999903    2    3    3    0    0 -0.11164101673E+00 -0.71192768979E-02  0.68987499059E-01  0.13287300525E+00  0.19533555163E-01 0.  0.
         14    1    1    2    0    0  0.16697657987E-01  0.15306944479E-01  0.36191326644E-02  0.22939321105E-01  0.00000000000E+00 0. -1.
     999901    1    3    3    0    0  0.94943358745E-01 -0.81876675812E-02 -0.72606631723E-01  0.88811767364E+00  0.88000000000E+00 0. -1.
        -11    1    4    4    0    0 -0.62022532822E-01 -0.94559360004E-02  0.47762171993E-01  0.78852365201E-01  0.51100000000E-03 0.  1.
         11    1    4    4    0    0 -0.49618483909E-01  0.23366591025E-02  0.21225327066E-01  0.54020640049E-01  0.51100000000E-03 0. -1.
</event>
<event>
 8    1  0.1090774E+005  0.1043930E+01  0.7957747E-01            NaN
         13   -1    0    0    0    0  0.00000000000E+00  0.00000000000E+00  0.74505805969E-08  0.10566000000E+00  0.10566000000E+00 0.  1.
     999900   -1    0    0    0    0 -0.00000000000E+00 -0.00000000000E+00 -0.74505805969E-08  0.93827000000E+00  0.93827000000E+00 0.  1.
     999902    2    1    2    0    0  0.15865530551E-01  0.11309827393E-01 -0.13182006768E-01  0.10204057028E+01  0.10201345038E+01 0.  0.
     999903    2    3    3    0    0  0.41790205041E-01 -0.42251695073E-01 -0.11493423759E+00  0.13254623088E+00  0.28757562068E-01 0.  0.
         14    1    1    2    0    0 -0.15865530551E-01 -0.11309827393E-01  0.13182006768E-01  0.23524297179E-01  0.00000000000E+00 0.  1.
     999901    1    3    3    0    0 -0.25924674489E-01  0.53561522466E-01  0.10175223082E+00  0.88785947194E+00  0.88000000000E+00 0. -1.
        -11    1    4    4    0    0  0.29271774970E-01 -0.43022044876E-01 -0.80102953710E-01  0.95522130783E-01  0.51100000000E-03 0. -1.
         11    1    4    4    0    0  0.12518430071E-01  0.77034980287E-03 -0.34831283881E-01  0.37024100098E-01  0.51100000000E-03 0.  1.
</event>
<event>
 8    1  0.1090774E+005  0.1043930E+01  0.7957747E-01            NaN
         13   -1    0    0    0    0  0.00000000000E+00  0.00000000000E+00  0.74505805969E-08  0.10566000000E+00  0.10566000000E+00 0. -1.
     999900   -1    0    0    0    0 -0.00000000000E+00 -0.00000000000E+00 -0.74505805969E-08  0.93827000000E+00  0.93827000000E+00 0.  1.
     999902    2    1    2    0    0  0.11807358009E-01  0.14189569065E-01 -0.11470768531E-01  0.10221967052E+01  0.10219656393E+01 0.  0.
     999903    2    3    3    0    0 -0.85315215945E-01 -0.11961713142E-02 -0.99065354277E-01  0.13239766784E+00  0.20858598580E-01 0.  0.
         14    1    1    2    0    0 -0.11807358009E-01 -0.14189569065E-01  0.11470768531E-01  0.21733294829E-01  0.00000000000E+00 0. -1.
     999901    1    3    3    0    0  0.97122573954E-01  0.15385740379E-01  0.87594585746E-01  0.88979903733E+00  0.88000000000E+00 0. -1.
        -11    1    4    4    0    0 -0.61347865228E-01 -0.81418225964E-02 -0.61132472834E-01  0.86990173003E-01  0.51100000000E-03 0. -1.
         11    1    4    4    0    0 -0.23967350717E-01  0.69456512822E-02 -0.37932881443E-01  0.45407494840E-01  0.51100000000E-03 0.  1.
</event>
<event>
 8    1  0.1090774E+005  0.1043930E+01  0.7957747E-01            NaN
         13   -1    0    0    0    0  0.00000000000E+00  0.00000000000E+00  0.74505805969E-08  0.10566000000E+00  0.10566000000E+00 0. -1.
     999900   -1    0    0    0    0 -0.00000000000E+00 -0.00000000000E+00 -0.74505805969E-08  0.93827000000E+00  0.93827000000E+00 0.  1.
     999902    2    1    2    0    0 -0.14294438484E-02  0.22114974918E-01  0.84988725237E-02  0.10201950835E+01  0.10199189488E+01 0.  0.
     999903    2    3    3    0    0 -0.86203870505E-01  0.73999411183E-01  0.66725947539E-01  0.13268784953E+00  0.15706469805E-01 0.  0.
         14    1    1    2    0    0  0.14294438484E-02 -0.22114974918E-01 -0.84988725237E-02  0.23734916463E-01  0.00000000000E+00 0.  1.
     999901    1    3    3    0    0  0.84774426656E-01 -0.51884436266E-01 -0.58227075016E-01  0.88750723400E+00  0.88000000000E+00 0.  1.
        -11    1    4    4    0    0 -0.27271568318E-01  0.22970970184E-01  0.29589892065E-01  0.46338178031E-01  0.51100000000E-03 0. -1.
         11    1    4    4    0    0 -0.58932302186E-01  0.51028440999E-01  0.37136055474E-01  0.86349671504E-01  0.51100000000E-03 0.  1.
</event>
<event>
 8    1  0.1090774E+005  0.1043930E+01  0.7957747E-01            NaN
         13   -1    0    0    0    0  0.00000000000E+00  0.00000000000E+00  0.74505805969E-08  0.10566000000E+00  0.10566000000E+00 0.  1.
     999900   -1    0    0    0    0 -0.00000000000E+00 -0.00000000000E+00 -0.74505805969E-08  0.93827000000E+00  0.93827000000E+00 0.  1.
     999902    2    1    2    0    0 -0.60668618121E-02 -0.69684151974E-03  0.22393725314E-01  0.10207185517E+01  0.10204545999E+01 0.  0.
     999903    2    3    3    0    0  0.11848317611E+00  0.39192578844E-01  0.34738157769E-01  0.13096787714E+00  0.19274957315E-01 0.  0.
         14    1    1    2    0    0  0.60668618121E-02  0.69684151974E-03 -0.22393725314E-01  0.23211448334E-01  0.00000000000E+00 0. -1.
     999901    1    3    3    0    0 -0.12455003792E+00 -0.39889420364E-01 -0.12344432455E-01  0.88975067452E+00  0.88000000000E+00 0.  1.
        -11    1    4    4    0    0  0.72220718093E-01  0.17355867314E-01  0.27934292492E-01  0.79357696981E-01  0.51100000000E-03 0.  1.
         11    1    4    4    0    0  0.46262458020E-01  0.21836711530E-01  0.68038652766E-02  0.51610180160E-01  0.51100000000E-03 0. -1.
</event>
<event>
 8    1  0.1090774E+005  0.1043930E+01  0.7957747E-01            NaN
         13   -1    0    0    0    0  0.00000000000E+00  0.00000000000E+00  0.74505805969E-08  0.10566000000E+00  0.10566000000E+00 0. -1.
     999900   -1    0    0    0    0 -0.00000000000E+00 -0.00000000000E+00 -0.74505805969E-08  0.93827000000E+00  0.93827000000E+00 0.  1.
     999902    2    1    2    0    0  0.16723133240E-01  0.16162539630E-01  0.48537510034E-02  0.10201718483E+01  0.10198951663E+01 0.  0.
     999903    2    3    3    0    0  0.59374438635E-01  0.90117858746E-02  0.11594394286E+00  0.13213395619E+00  0.20244709014E-01 0.  0.
         14    1    1    2    0    0 -0.16723133240E-01 -0.16162539630E-01 -0.48537510034E-02  0.23758151685E-01  0.00000000000E+00 0. -1.
     999901    1    3    3    0    0 -0.42651305394E-01  0.71507537554E-02 -0.11109019186E+00  0.88803789213E+00  0.88000000000E+00 0.  1.
        -11    1    4    4    0    0  0.17434340533E-01  0.12178945718E-01  0.41162806784E-01  0.46334875979E-01  0.51100000000E-03 0.  1.
         11    1    4    4    0    0  0.41940098102E-01 -0.31671598432E-02  0.74781136078E-01  0.85799080207E-01  0.51100000000E-03 0. -1.
</event>
<event>
 8    1  0.1090774E+005  0.1043930E+01  0.7957747E-01            NaN
         13   -1    0    0    0    0  0.00000000000E+00  0.00000000000E+00  0.74505805969E-08  0.10566000000E+00  0.10566000000E+00 0.  1.
     999900   -1    0    0    0    0 -0.00000000000E+00 -0.00000000000E+00 -0.74505805969E-08  0.93827000000E+00  0.93827000000E+00 0.  1.
     999902    2    1    2    0    0  0.93932397666E-02 -0.18592525411E-01 -0.11470002882E-01  0.10201502624E+01  0.10198730715E+01 0.  0.
     999903    2    3    3    0    0  0.50514828188E-01 -0.11697465017E+00  0.31225234979E-01  0.13268594714E+00  0.19892928892E-01 0.  0.
         14    1    1    2    0    0 -0.93932397666E-02  0.18592525411E-01  0.11470002882E-01  0.23779737605E-01  0.00000000000E+00 0. -1.
     999901    1    3    3    0    0 -0.41121588421E-01  0.98382124763E-01 -0.42695237861E-01  0.88746431525E+00  0.88000000000E+00 0.  1.
        -11    1    4    4    0    0  0.11608249091E-01 -0.10739080218E-01  0.37328899648E-02  0.16256533437E-01  0.51100000000E-03 0. -1.
         11    1    4    4    0    0  0.38906579096E-01 -0.10623556996E+00  0.27492345014E-01  0.11642941371E+00  0.51100000000E-03 0.  1.
</event>
<event>
 8    1  0.1090774E+005  0.1043930E+01  0.7957747E-01            NaN
         13   -1    0    0    0    0  0.00000000000E+00  0.00000000000E+00  0.74505805969E-08  0.10566000000E+00  0.10566000000E+00 0.  1.
     999900   -1    0    0    0    0 -0.00000000000E+00 -0.00000000000E+00 -0.74505805969E-08  0.93827000000E+00  0.93827000000E+00 0. -1.
     999902    2    1    2    0    0 -0.12691983394E-01 -0.16115980017E-01  0.45340087699E-02  0.10229212283E+01  0.10227054663E+01 0.  0.
     999903    2    3    3    0    0  0.72189308647E-01 -0.10566525678E+00 -0.32499172386E-01  0.13354202724E+00  0.20020840660E-01 0.  0.
         14    1    1    2    0    0  0.12691983394E-01  0.16115980017E-01 -0.45340087699E-02  0.21008771737E-01  0.00000000000E+00 0. -1.
     999901    1    3    3    0    0 -0.84881292041E-01  0.89549276760E-01  0.37033181156E-01  0.88937920102E+00  0.88000000000E+00 0.  1.
        -11    1    4    4    0    0  0.34518290813E-01 -0.66223460287E-01 -0.14269202486E-01  0.76032429619E-01  0.51100000000E-03 0. -1.
         11    1    4    4    0    0  0.37671017834E-01 -0.39441796489E-01 -0.18229969900E-01  0.57509597621E-01  0.51100000000E-03 0.  1.
</event>
<event>
 8    1  0.1090774E+005  0.1043930E+01  0.7957747E-01            NaN
         13   -1    0    0    0    0  0.00000000000E+00  0.00000000000E+00  0.74505805969E-08  0.10566000000E+00  0.10566000000E+00 0.  1.
     999900   -1    0    0    0    0 -0.00000000000E+00 -0.00000000000E+00 -0.74505805969E-08  0.93827000000E+00  0.93827000000E+00 0.  1.
     999902    2    1    2    0    0 -0.86668308647E-02 -0.98779868765E-03 -0.21023755949E-01  0.10211684531E+01  0.10209147475E+01 0.  0.
     999903    2    3    3    0    0 -0.39702823277E-01  0.22889257026E-01 -0.12460301351E+00  0.13422876562E+00  0.19779238625E-01 0.  0.
         14    1    1    2    0    0  0.86668308647E-02  0.98779868765E-03  0.21023755949E-01  0.22761546909E-01  0.00000000000E+00 0.  1.
     999901    1    3    3    0    0  0.31035992413E-01 -0.23877055714E-01  0.10357925756E+00  0.88693968747E+00  0.88000000000E+00 0. -1.
        -11    1    4    4    0    0 -0.29009000611E-01  0.55549601275E-02 -0.73695630500E-01  0.79395760430E-01  0.51100000000E-03 0. -1.
         11    1    4    4    0    0 -0.10693822666E-01  0.17334296899E-01 -0.50907383011E-01  0.54833005190E-01  0.51100000000E-03 0.  1.
</event>
<event>
 8    1  0.1090774E+005  0.1043930E+01  0.7957747E-01            NaN
         13   -1    0    0    0    0  0.00000000000E+00  0.00000000000E+00  0.74505805969E-08  0.10566000000E+00  0.10566000000E+00 0. -1.
     999900   -1    0    0    0    0 -0.00000000000E+00 -0.00000000000E+00 -0.74505805969E-08  0.93827000000E+00  0.93827000000E+00 0. -1.
     999902    2    1    2    0    0 -0.56594460173E-02 -0.90287124200E-03  0.22784910131E-01  0.10204353914E+01  0.10201648844E+01 0.  0.
     999903    2    3    3    0    0  0.49497402432E-01 -0.10333974202E+00 -0.56506379941E-01  0.12924366164E+00  0.19541186552E-01 0.  0.
         14    1    1    2    0    0  0.56594460173E-02  0.90287124200E-03 -0.22784910131E-01  0.23494608645E-01  0.00000000000E+00 0.  1.
     999901    1    3    3    0    0 -0.55156848449E-01  0.10243687078E+00  0.79291290072E-01  0.89119172971E+00  0.88000000000E+00 0.  1.
        -11    1    4    4    0    0  0.15773002198E-01 -0.29987618071E-01 -0.71997897296E-02  0.34643079093E-01  0.51100000000E-03 0. -1.
         11    1    4    4    0    0  0.33724400234E-01 -0.73352123952E-01 -0.49306590211E-01  0.94600582549E-01  0.51100000000E-03 0.  1.
</event>
<event>
 8    1  0.1090774E+005  0.1043930E+01  0.7957747E-01            NaN
         13   -1    0    0    0    0  0.00000000000E+00  0.00000000000E+00  0.74505805969E-08  0.10566000000E+00  0.10566000000E+00 0.  1.
     999900   -1    0    0    0    0 -0.00000000000E+00 -0.00000000000E+00 -0.74505805969E-08  0.93827000000E+00  0.93827000000E+00 0.  1.
     999902    2    1    2    0    0 -0.67021296188E-02  0.88509496465E-02 -0.20552751852E-01  0.10205703455E+01  0.10203029729E+01 0.  0.
     999903    2    3    3    0    0  0.79308746344E-01  0.36825122885E-01 -0.99153641078E-01  0.13244956261E+00  0.80916732214E-02 0.  0.
         14    1    1    2    0    0  0.67021296188E-02 -0.88509496465E-02  0.20552751852E-01  0.23359654530E-01  0.00000000000E+00 0.  1.
     999901    1    3    3    0    0 -0.86010875963E-01 -0.27974173239E-01  0.78600889226E-01  0.88812078286E+00  0.88000000000E+00 0. -1.
        -11    1    4    4    0    0  0.10290190536E-01  0.75178436991E-02 -0.12533180221E-01  0.17881491062E-01  0.51100000000E-03 0. -1.
         11    1    4    4    0    0  0.69018555808E-01  0.29307279186E-01 -0.86620460857E-01  0.11456807155E+00  0.51100000000E-03 0.  1.
</event>
<event>
 8    1  0.1090774E+005  0.1043930E+01  0.7957747E-01            NaN
         13   -1    0    0    0    0  0.00000000000E+00  0.00000000000E+00  0.74505805969E-08  0.10566000000E+00  0.10566000000E+00 0. -1.
     999900   -1    0    0    0    0 -0.00000000000E+00 -0.00000000000E+00 -0.74505805969E-08  0.93827000000E+00  0.93827000000E+00 0. -1.
     999902    2    1    2    0    0  0.18456691420E-01 -0.33392382168E-02 -0.13298732675E-01  0.10209374738E+01  0.10206785337E+01 0.  0.
     999903    2    3    3    0    0  0.11840146732E+00  0.40433738894E-01  0.37210191318E-01  0.13276171240E+00  0.24233844861E-01 0.  0.
         14    1    1    2    0    0 -0.18456691420E-01  0.33392382168E-02  0.13298732675E-01  0.22992526194E-01  0.00000000000E+00 0. -1.
     999901    1    3    3    0    0 -0.99944775896E-01 -0.43772977110E-01 -0.50508923993E-01  0.88817576141E+00  0.88000000000E+00 0.  1.
        -11    1    4    4    0    0  0.66421860947E-01  0.28564173747E-01  0.10297785146E-01  0.73034793992E-01  0.51100000000E-03 0. -1.
         11    1    4    4    0    0  0.51979606369E-01  0.11869565147E-01  0.26912406172E-01  0.59726918404E-01  0.51100000000E-03 0.  1.
</event>
<event>
 8    1  0.1246894E+005  0.1043930E+01  0.7957747E-01            NaN
         13   -1    0    0    0    0  0.00000000000E+00  0.00000000000E+00  0.74505805969E-08  0.10566000000E+00  0.10566000000E+00 0. -1.
     999900   -1    0    0    0    0 -0.00000000000E+00 -0.00000000000E+00 -0.74505805969E-08  0.93827000000E+00  0.93827000000E+00 0. -1.
     999902    2    1    2    0    0  0.78009448053E-02  0.46566549689E-03  0.22613493606E-01  0.10200042466E+01  0.10197236005E+01 0.  0.
     999903    2    3    3    0    0 -0.50767758216E-01 -0.33444569637E-01  0.11600237835E+00  0.13247865211E+00  0.19953369891E-01 0.  0.
         14    1    1    2    0    0 -0.78009448053E-02 -0.46566549689E-03 -0.22613493606E-01  0.23925753431E-01  0.00000000000E+00 0.  1.
     999901    1    3    3    0    0  0.58568703022E-01  0.33910235134E-01 -0.93388884745E-01  0.88752559446E+00  0.88000000000E+00 0. -1.
        -11    1    4    4    0    0 -0.16214518473E-01 -0.22232533969E-01  0.45815041525E-01  0.53446003845E-01  0.51100000000E-03 0.  1.
         11    1    4    4    0    0 -0.34553239743E-01 -0.11212035667E-01  0.70187336826E-01  0.79032648268E-01  0.51100000000E-03 0. -1.
</event>
<event>
 7    1  0.1090774E+005  0.1043930E+01  0.7957747E-01            NaN
         13   -1    0    0    0    0  0.00000000000E+00  0.00000000000E+00  0.74505805969E-08  0.10566000000E+00  0.10566000000E+00 0.  1.
     999900   -1    0    0    0    0 -0.00000000000E+00 -0.00000000000E+00 -0.74505805969E-08  0.93827000000E+00  0.93827000000E+00 0.  1.
     999903    2    1    2    0    0  0.38941930814E-01 -0.64764033014E-01  0.74453718524E-01  0.10772957859E+00  0.18747051835E-01 0.  0.
         14    1    1    2    0    0  0.44192477825E-01 -0.73168052244E-02 -0.15464683603E-01  0.47388470897E-01  0.00000000000E+00 0.  1.
     999901    1    1    2    0    0 -0.83134408639E-01  0.72080838238E-01 -0.58989034920E-01  0.88881195052E+00  0.88000000000E+00 0. -1.
        -11    1    3    3    0    0  0.18790476219E-01 -0.47366637534E-01  0.53103769350E-01  0.73599944212E-01  0.51100000000E-03 0.  1.
         11    1    3    3    0    0  0.20151454594E-01 -0.17397395480E-01  0.21349949174E-01  0.34129634373E-01  0.51100000000E-03 0. -1.
</event>
<event>
 8    1  0.1090774E+005  0.1043930E+01  0.7957747E-01            NaN
         13   -1    0    0    0    0  0.00000000000E+00  0.00000000000E+00  0.74505805969E-08  0.10566000000E+00  0.10566000000E+00 0.  1.
     999900   -1    0    0    0    0 -0.00000000000E+00 -0.00000000000E+00 -0.74505805969E-08  0.93827000000E+00  0.93827000000E+00 0. -1.
     999902    2    1    2    0    0 -0.21497731423E-01 -0.12134579012E-02  0.10632346598E-01  0.10199160097E+01  0.10196332650E+01 0.  0.
     999903    2    3    3    0    0 -0.36928959729E-01 -0.69320131265E-01 -0.10211441628E+00  0.12997866678E+00  0.17264736898E-01 0.  0.
         14    1    1    2    0    0  0.21497731423E-01  0.12134579012E-02 -0.10632346598E-01  0.24013990309E-01  0.00000000000E+00 0.  1.
     999901    1    3    3    0    0  0.15431228306E-01  0.68106673364E-01  0.11274676288E+00  0.88993734291E+00  0.88000000000E+00 0. -1.
        -11    1    4    4    0    0 -0.15874481825E-01 -0.40041036704E-01 -0.43952091978E-01  0.61541297547E-01  0.51100000000E-03 0.  1.
         11    1    4    4    0    0 -0.21054477904E-01 -0.29279094561E-01 -0.58162324305E-01  0.68437369235E-01  0.51100000000E-03 0. -1.
</event>
<event>
 8    1  0.1090774E+005  0.1043930E+01  0.7957747E-01            NaN
         13   -1    0    0    0    0  0.00000000000E+00  0.00000000000E+00  0.74505805969E-08  0.10566000000E+00  0.10566000000E+00 0. -1.
     999900   -1    0    0    0    0 -0.00000000000E+00 -0.00000000000E+00 -0.74505805969E-08  0.93827000000E+00  0.93827000000E+00 0.  1.
     999902    2    1    2    0    0  0.10310508816E-01 -0.11452992013E-02  0.21586896634E-01  0.10199797931E+01  0.10196985662E+01 0.  0.
     999903    2    3    3    0    0  0.73518350535E-02  0.78014165933E-01  0.10491691338E+00  0.13250085460E+00  0.20215295967E-01 0.  0.
         14    1    1    2    0    0 -0.10310508816E-01  0.11452992013E-02 -0.21586896634E-01  0.23950206859E-01  0.00000000000E+00 0.  1.
     999901    1    3    3    0    0  0.29586737628E-02 -0.79159465134E-01 -0.83330016744E-01  0.88747893855E+00  0.88000000000E+00 0.  1.
        -11    1    4    4    0    0 -0.48390723058E-02  0.27590165842E-01  0.47254966944E-01  0.54935661403E-01  0.51100000000E-03 0.  1.
         11    1    4    4    0    0  0.12190907359E-01  0.50424000091E-01  0.57661946434E-01  0.77565193192E-01  0.51100000000E-03 0. -1.
</event>
<event>
 8    1  0.1090774E+005  0.1043930E+01  0.7957747E-01            NaN
         13   -1    0    0    0    0  0.00000000000E+00  0.00000000000E+00  0.74505805969E-08  0.10566000000E+00  0.10566000000E+00 0.  1.
     999900   -1    0    0    0    0 -0.00000000000E+00 -0.00000000000E+00 -0.74505805969E-08  0.93827000000E+00  0.93827000000E+00 0. -1.
     999902    2    1    2    0    0  0.89243162740E-02  0.16305854016E-01 -0.14023488294E-01  0.10206451869E+01  0.10203795446E+01 0.  0.
     999903    2    3    3    0    0 -0.23042069941E-01 -0.11503758393E+00 -0.51015660136E-01  0.12955519746E+00  0.20429608591E-01 0.  0.
         14    1    1    2    0    0 -0.89243162740E-02 -0.16305854016E-01  0.14023488294E-01  0.23284813078E-01  0.00000000000E+00 0.  1.
     999901    1    3    3    0    0  0.31966386215E-01  0.13134343794E+00  0.36992171842E-01  0.89108998946E+00  0.88000000000E+00 0.  1.
        -11    1    4    4    0    0 -0.16166300581E-01 -0.49741015680E-01 -0.31496282482E-01  0.61055670061E-01  0.51100000000E-03 0.  1.
         11    1    4    4    0    0 -0.68757693606E-02 -0.65296568247E-01 -0.19519377654E-01  0.68499527401E-01  0.51100000000E-03 0. -1.
</event>
<event>
 8    1  0.1090774E+005  0.1043930E+01  0.7957747E-01            NaN
         13   -1    0    0    0    0  0.00000000000E+00  0.00000000000E+00  0.74505805969E-08  0.10566000000E+00  0.10566000000E+00 0.  1.
     999900   -1    0    0    0    0 -0.00000000000E+00 -0.00000000000E+00 -0.74505805969E-08  0.93827000000E+00  0.93827000000E+00 0. -1.
     999902    2    1    2    0    0  0.71410971556E-02  0.80800460536E-02  0.20656859704E-01  0.10206278914E+01  0.10203618497E+01 0.  0.
     999903    2    3    3    0    0 -0.54182085263E-01  0.86852377148E-02 -0.11387391082E+00  0.12829419418E+00  0.21931734469E-01 0.  0.
         14    1    1    2    0    0 -0.71410971556E-02 -0.80800460536E-02 -0.20656859704E-01  0.23302108610E-01  0.00000000000E+00 0. -1.
     999901    1    3    3    0    0  0.61323182419E-01 -0.60519166120E-03  0.13453077053E+00  0.89233369721E+00  0.88000000000E+00 0.  1.
        -11    1    4    4    0    0 -0.14714484058E-01 -0.10530200736E-03 -0.54527356245E-01  0.56480269384E-01  0.51100000000E-03 0. -1.
         11    1    4    4    0    0 -0.39467601205E-01  0.87905397221E-02 -0.59346554576E-01  0.71813924796E-01  0.51100000000E-03 0.  1.
</event>
<event>
 8    1  0.1090774E+005  0.1043930E+01  0.7957747E-01            NaN
         13   -1    0    0    0    0  0.00000000000E+00  0.00000000000E+00  0.74505805969E-08  0.10566000000E+00  0.10566000000E+00 0.  1.
     999900   -1    0    0    0    0 -0.00000000000E+00 -0.00000000000E+00 -0.74505805969E-08  0.93827000000E+00  0.93827000000E+00 0.  1.
     999902    2    1    2    0    0 -0.65728566840E-03  0.32629927903E-02 -0.19575546650E-01  0.10240734854E+01  0.10238809610E+01 0.  0.
     999903    2    3    3    0    0  0.51019511058E-01  0.38270344429E-02  0.11956800340E+00  0.13164324329E+00  0.20391159028E-01 0.  0.
         14    1    1    2    0    0  0.65728566840E-03 -0.32629927903E-02  0.19575546650E-01  0.19856514624E-01  0.00000000000E+00 0.  1.
     999901    1    3    3    0    0 -0.51676796726E-01 -0.56404165259E-03 -0.13914355005E+00  0.89243024208E+00  0.88000000000E+00 0.  1.
        -11    1    4    4    0    0  0.18991853916E-01  0.11341397404E-01  0.50817366094E-01  0.55425478148E-01  0.51100000000E-03 0. -1.
         11    1    4    4    0    0  0.32027657142E-01 -0.75143629615E-02  0.68750637306E-01  0.76217765145E-01  0.51100000000E-03 0.  1.
</event>
<event>
 8    1  0.1090774E+005  0.1043930E+01  0.7957747E-01            NaN
         13   -1    0    0    0    0  0.00000000000E+00  0.00000000000E+00  0.74505805969E-08  0.10566000000E+00  0.10566000000E+00 0.  1.
     999900   -1    0    0    0    0 -0.00000000000E+00 -0.00000000000E+00 -0.74505805969E-08  0.93827000000E+00  0.93827000000E+00 0. -1.
     999902    2    1    2    0    0 -0.32997679639E-02 -0.14216586927E-01 -0.18744162493E-01  0.10201740862E+01  0.10198974570E+01 0.  0.
     999903    2    3    3    0    0 -0.81780202993E-01  0.89806528424E-01 -0.41461742502E-01  0.13028865782E+00  0.22424185989E-01 0.  0.
         14    1    1    2    0    0  0.32997679639E-02  0.14216586927E-01  0.18744162493E-01  0.23755913791E-01  0.00000000000E+00 0.  1.
     999901    1    3    3    0    0  0.78480435029E-01 -0.10402311535E+00  0.22717580009E-01  0.88988542838E+00  0.88000000000E+00 0. -1.
        -11    1    4    4    0    0 -0.34416685153E-01  0.52468926753E-01 -0.26698496354E-01  0.68195068151E-01  0.51100000000E-03 0.  1.
         11    1    4    4    0    0 -0.47363517840E-01  0.37337601671E-01 -0.14763246148E-01  0.62093589674E-01  0.51100000000E-03 0. -1.
</event>
<event>
 8    1  0.1090774E+005  0.1043930E+01  0.7957747E-01            NaN
         13   -1    0    0    0    0  0.00000000000E+00  0.00000000000E+00  0.74505805969E-08  0.10566000000E+00  0.10566000000E+00 0.  1.
     999900   -1    0    0    0    0 -0.00000000000E+00 -0.00000000000E+00 -0.74505805969E-08  0.93827000000E+00  0.93827000000E+00 0.  1.
     999902    2    1    2    0    0  0.12033868203E-01 -0.16274310311E-01  0.10881956719E-01  0.10209499186E+01  0.10206912619E+01 0.  0.
     999903    2    3    3    0    0 -0.72282027906E-01  0.94969514026E-01  0.45551265338E-01  0.12927378918E+00  0.19821570104E-01 0.  0.
         14    1    1    2    0    0 -0.12033868203E-01  0.16274310311E-01 -0.10881956719E-01  0.22980081420E-01  0.00000000000E+00 0. -1.
     999901    1    3    3    0    0  0.84315896109E-01 -0.11124382434E+00 -0.34669308620E-01  0.89167612940E+00  0.88000000000E+00 0. -1.
        -11    1    4    4    0    0 -0.59702284970E-02  0.95563640402E-02 -0.14394958933E-02  0.11371059379E-01  0.51100000000E-03 0. -1.
         11    1    4    4    0    0 -0.66311799409E-01  0.85413149986E-01  0.46990761232E-01  0.11790272980E+00  0.51100000000E-03 0.  1.
</event>
<event>
 7    1  0.1090774E+005  0.1043930E+01  0.7957747E-01            NaN
         13   -1    0    0    0    0  0.00000000000E+00  0.00000000000E+00  0.74505805969E-08  0.10566000000E+00  0.10566000000E+00 0. -1.
     999900   -1    0    0    0    0 -0.00000000000E+00 -0.00000000000E+00 -0.74505805969E-08  0.93827000000E+00  0.93827000000E+00 0. -1.
     999903    2    1    2    0    0 -0.36099401440E-01  0.22080032111E-01  0.97022248144E-01  0.10877926375E+00  0.25078217319E-01 0.  0.
         14    1    1    2    0    0 -0.21458116639E-02  0.38391835542E-01  0.21936032864E-01  0.44268804838E-01  0.00000000000E+00 0.  1.
     999901    1    1    2    0    0  0.38245213104E-01 -0.60471867653E-01 -0.11895828101E+00  0.89088193142E+00  0.88000000000E+00 0. -1.
        -11    1    3    3    0    0 -0.15189584353E-01  0.21560961185E-01  0.68517560008E-01  0.73420131234E-01  0.51100000000E-03 0.  1.
         11    1    3    3    0    0 -0.20909817087E-01  0.51907092578E-03  0.28504688136E-01  0.35359132512E-01  0.51100000000E-03 0. -1.
</event>
<event>
 8    1  0.1090774E+005  0.1043930E+01  0.7957747E-01            NaN
         13   -1    0    0    0    0  0.00000000000E+00  0.00000000000E+00  0.74505805969E-08  0.10566000000E+00  0.10566000000E+00 0.  1.
     999900   -1    0    0    0    0 -0.00000000000E+00 -0.00000000000E+00 -0.74505805969E-08  0.93827000000E+00  0.93827000000E+00 0.  1.
     999902    2    1    2    0    0  0.36423222136E-02  0.23579477895E-01  0.12069653317E-02  0.10200403568E+01  0.10197605672E+01 0.  0.
     999903    2    3    3    0    0  0.39949320955E-01  0.12559661440E+00  0.22127135366E-02  0.13340249053E+00  0.20515130627E-01 0.  0.
         14    1    1    2    0    0 -0.36423222136E-02 -0.23579477895E-01 -0.12069653317E-02  0.23889643242E-01  0.00000000000E+00 0. -1.
     999901    1    3    3    0    0 -0.36306998741E-01 -0.10201713651E+00 -0.10057482049E-02  0.88663786623E+00  0.88000000000E+00 0.  1.
        -11    1    4    4    0    0  0.41968351706E-02  0.37652201762E-01  0.61540913644E-02  0.38385357683E-01  0.51100000000E-03 0. -1.
         11    1    4    4    0    0  0.35752485784E-01  0.87944412640E-01 -0.39413778278E-02  0.95017132847E-01  0.51100000000E-03 0.  1.
</event>
<event>
 8    1  0.1090774E+005  0.1043930E+01  0.7957747E-01            NaN
         13   -1    0    0    0    0  0.00000000000E+00  0.00000000000E+00  0.74505805969E-08  0.10566000000E+00  0.10566000000E+00 0. -1.
     999900   -1    0    0    0    0 -0.00000000000E+00 -0.00000000000E+00 -0.74505805969E-08  0.93827000000E+00  0.93827000000E+00 0.  1.
     999902    2    1    2    0    0 -0.67701912663E-02 -0.38830302801E-02  0.22031747236E-01  0.10205566968E+01  0.10202890082E+01 0.  0.
     999903    2    3    3    0    0 -0.37694194093E-01  0.10816603520E+00  0.61008504144E-01  0.13205769595E+00  0.24422408587E-01 0.  0.
         14    1    1    2    0    0  0.67701912663E-02  0.38830302801E-02 -0.22031747236E-01  0.23373303152E-01  0.00000000000E+00 0.  1.
     999901    1    3    3    0    0  0.30924002827E-01 -0.11204906548E+00 -0.38976756908E-01  0.88849900090E+00  0.88000000000E+00 0.  1.
        -11    1    4    4    0    0 -0.30984901243E-01  0.81037282107E-01  0.33983844135E-01  0.93178688440E-01  0.51100000000E-03 0.  1.
         11    1    4    4    0    0 -0.67092928501E-02  0.27128753094E-01  0.27024660009E-01  0.38879007505E-01  0.51100000000E-03 0. -1.
</event>
<event>
 8    1  0.1090774E+005  0.1043930E+01  0.7957747E-01            NaN
         13   -1    0    0    0    0  0.00000000000E+00  0.00000000000E+00  0.74505805969E-08  0.10566000000E+00  0.10566000000E+00 0. -1.
     999900   -1    0    0    0    0 -0.00000000000E+00 -0.00000000000E+00 -0.74505805969E-08  0.93827000000E+00  0.93827000000E+00 0. -1.
     999902    2    1    2    0    0  0.21873242355E-02  0.12922526479E-01  0.18840450607E-01  0.10209792123E+01  0.10207212221E+01 0.  0.
     999903    2    3    3    0    0 -0.42293659027E-01 -0.24883433382E-01 -0.11751701122E+00  0.12856607596E+00  0.17636584474E-01 0.  0.
         14    1    1    2    0    0 -0.21873242355E-02 -0.12922526479E-01 -0.18840450607E-01  0.22950787720E-01  0.00000000000E+00 0.  1.
     999901    1    3    3    0    0  0.44480983263E-01  0.37805959861E-01  0.13635746183E+00  0.89241313632E+00  0.88000000000E+00 0.  1.
        -11    1    4    4    0    0 -0.18679039475E-01 -0.49843064469E-02 -0.63079223682E-01  0.65977264325E-01  0.51100000000E-03 0. -1.
         11    1    4    4    0    0 -0.23614619552E-01 -0.19899126935E-01 -0.54437787538E-01  0.62588811639E-01  0.51100000000E-03 0.  1.
</event>
<event>
 8    1  0.1090774E+005  0.1043930E+01  0.7957747E-01            NaN
         13   -1    0    0    0    0  0.00000000000E+00  0.00000000000E+00  0.74505805969E-08  0.10566000000E+00  0.10566000000E+00 0.  1.
     999900   -1    0    0    0    0 -0.00000000000E+00 -0.00000000000E+00 -0.74505805969E-08  0.93827000000E+00  0.93827000000E+00 0. -1.
     999902    2    1    2    0    0 -0.21244983977E-01  0.99415857279E-02 -0.74918559579E-03  0.10204620271E+01  0.10201921403E+01 0.  0.
     999903    2    3    3    0    0 -0.12645657078E+00 -0.18672107582E-01  0.31891258175E-01  0.13313253929E+00  0.19165301304E-01 0.  0.
         14    1    1    2    0    0  0.21244983977E-01 -0.99415857279E-02  0.74918559579E-03  0.23467972858E-01  0.00000000000E+00 0.  1.
     999901    1    3    3    0    0  0.10521158681E+00  0.28613693310E-01 -0.32640443771E-01  0.88732948785E+00  0.88000000000E+00 0. -1.
        -11    1    4    4    0    0 -0.53643388782E-01 -0.95707774473E-02  0.23244086519E-01  0.59243241134E-01  0.51100000000E-03 0.  1.
         11    1    4    4    0    0 -0.72813182001E-01 -0.91013301344E-02  0.86471716558E-02  0.73889298156E-01  0.51100000000E-03 0. -1.
</event>
<event>
 8    1  0.1090774E+005  0.1043930E+01  0.7957747E-01            NaN
         13   -1    0    0    0    0  0.00000000000E+00  0.00000000000E+00  0.74505805969E-08  0.10566000000E+00  0.10566000000E+00 0.  1.
     999900   -1    0    0    0    0 -0.00000000000E+00 -0.00000000000E+00 -0.74505805969E-08  0.93827000000E+00  0.93827000000E+00 0.  1.
     999902    2    1    2    0    0 -0.25766262455E-01 -0.11112296490E-01  0.18517922075E-02  0.10158086105E+01  0.10154192831E+01 0.  0.
     999903    2    3    3    0    0  0.38311588613E-01  0.11298557558E+00  0.28696273486E-01  0.12439014588E+00  0.20393973875E-01 0.  0.
         14    1    1    2    0    0  0.25766262455E-01  0.11112296490E-01 -0.18517922075E-02  0.28121389521E-01  0.00000000000E+00 0. -1.
     999901    1    3    3    0    0 -0.64077851068E-01 -0.12409787207E+00 -0.26844481279E-01  0.89141846460E+00  0.88000000000E+00 0. -1.
        -11    1    4    4    0    0  0.31200566563E-01  0.87535136118E-01  0.13509823415E-01  0.93907677315E-01  0.51100000000E-03 0.  1.
         11    1    4    4    0    0  0.71110220503E-02  0.25450439458E-01  0.15186450071E-01  0.30482468567E-01  0.51100000000E-03 0. -1.
</event>
<event>
 7    1  0.1090774E+005  0.1043930E+01  0.7957747E-01            NaN
         13   -1    0    0    0    0  0.00000000000E+00  0.00000000000E+00  0.74505805969E-08  0.10566000000E+00  0.10566000000E+00 0. -1.
     999900   -1    0    0    0    0 -0.00000000000E+00 -0.00000000000E+00 -0.74505805969E-08  0.93827000000E+00  0.93827000000E+00 0.  1.
     999903    2    1    2    0    0  0.65721804538E-01  0.68465430235E-01  0.49604579505E-01  0.10896388810E+00  0.20140602583E-01 0.  0.
         14    1    1    2    0    0  0.45773365414E-02  0.39055264021E-01 -0.22330805454E-01  0.45220908105E-01  0.00000000000E+00 0.  1.
     999901    1    1    2    0    0 -0.70299141080E-01 -0.10752069426E+00 -0.27273774051E-01  0.88974520380E+00  0.88000000000E+00 0. -1.
        -11    1    3    3    0    0  0.19023219551E-01  0.26966079399E-01  0.81826563773E-02  0.34003960161E-01  0.51100000000E-03 0.  1.
         11    1    3    3    0    0  0.46698584987E-01  0.41499350836E-01  0.41421923128E-01  0.74959927936E-01  0.51100000000E-03 0. -1.
</event>
<event>
 8    1  0.1090774E+005  0.1043930E+01  0.7957747E-01            NaN
         13   -1    0    0    0    0  0.00000000000E+00  0.00000000000E+00  0.74505805969E-08  0.10566000000E+00  0.10566000000E+00 0.  1.
     999900   -1    0    0    0    0 -0.00000000000E+00 -0.00000000000E+00 -0.74505805969E-08  0.93827000000E+00  0.93827000000E+00 0.  1.
     999902    2    1    2    0    0  0.46110623427E-02 -0.28103593469E-02 -0.14279532836E-01  0.10286635311E+01  0.10285502395E+01 0.  0.
     999903    2    3    3    0    0  0.12771592809E+00  0.20382615344E-01  0.43770616617E-01  0.13789838700E+00  0.19320687379E-01 0.  0.
         14    1    1    2    0    0 -0.46110623427E-02  0.28103593469E-02  0.14279532836E-01  0.15266468931E-01  0.00000000000E+00 0.  1.
     999901    1    3    3    0    0 -0.12310486575E+00 -0.23192974691E-01 -0.58050149453E-01  0.89076514407E+00  0.88000000000E+00 0. -1.
        -11    1    4    4    0    0  0.86259270477E-01  0.19093946350E-01  0.21973990692E-01  0.91040419147E-01  0.51100000000E-03 0. -1.
         11    1    4    4    0    0  0.41456657612E-01  0.12886689940E-02  0.21796625925E-01  0.46857967848E-01  0.51100000000E-03 0.  1.
</event>
<event>
 8    1  0.1090774E+005  0.1043930E+01  0.7957747E-01            NaN
         13   -1    0    0    0    0  0.00000000000E+00  0.00000000000E+00  0.74505805969E-08  0.10566000000E+00  0.10566000000E+00 0.  1.
     999900   -1    0    0    0    0 -0.00000000000E+00 -0.00000000000E+00 -0.74505805969E-08  0.93827000000E+00  0.93827000000E+00 0.  1.
     999902    2    1    2    0    0 -0.19594493803E-01  0.88157344815E-02 -0.10286336443E-01  0.10201083695E+01  0.10198301895E+01 0.  0.
     999903    2    3    3    0    0  0.27087205347E-02 -0.12768323886E+00  0.17056180503E-02  0.12922498204E+00  0.19642815400E-01 0.  0.
         14    1    1    2    0    0  0.19594493803E-01 -0.88157344815E-02  0.10286336443E-01  0.23821630491E-01  0.00000000000E+00 0.  1.
     999901    1    3    3    0    0 -0.22303214338E-01  0.13649897335E+00 -0.11991954493E-01  0.89088338747E+00  0.88000000000E+00 0.  1.
        -11    1    4    4    0    0  0.74835869858E-03 -0.14789484540E-01  0.65696347599E-02  0.16208334756E-01  0.51100000000E-03 0.  1.
         11    1    4    4    0    0  0.19603618362E-02 -0.11289375432E+00 -0.48640167096E-02  0.11301664728E+00  0.51100000000E-03 0. -1.
</event>
<event>
 8    1  0.1090774E+005  0.1043930E+01  0.7957747E-01            NaN
         13   -1    0    0    0    0  0.00000000000E+00  0.00000000000E+00  0.74505805969E-08  0.10566000000E+00  0.10566000000E+00 0. -1.
     999900   -1    0    0    0    0 -0.00000000000E+00 -0.00000000000E+00 -0.74505805969E-08  0.93827000000E+00  0.93827000000E+00 0. -1.
     999902    2    1    2    0    0 -0.15521309897E-01 -0.53015732693E-02  0.17513730166E-01  0.10199352405E+01  0.10196529538E+01 0.  0.
     999903    2    3    3    0    0  0.83404465907E-01 -0.54377289266E-01 -0.77408719873E-01  0.12796830918E+00  0.21692941706E-01 0.  0.
         14    1    1    2    0    0  0.15521309897E-01  0.53015732693E-02 -0.17513730166E-01  0.23994759520E-01  0.00000000000E+00 0.  1.
     999901    1    3    3    0    0 -0.98925775804E-01  0.49075715997E-01  0.94922450040E-01  0.89196693130E+00  0.88000000000E+00 0.  1.
        -11    1    4    4    0    0  0.65501826119E-01 -0.48216894379E-01 -0.71023071819E-01  0.10798099824E+00  0.51100000000E-03 0. -1.
         11    1    4    4    0    0  0.17902639787E-01 -0.61603948876E-02 -0.63856480538E-02  0.19987310940E-01  0.51100000000E-03 0.  1.
</event>
<event>
 8    1  0.1090774E+005  0.1043930E+01  0.7957747E-01            NaN
         13   -1    0    0    0    0  0.00000000000E+00  0.00000000000E+00  0.74505805969E-08  0.10566000000E+00  0.10566000000E+00 0. -1.
     999900   -1    0    0    0    0 -0.00000000000E+00 -0.00000000000E+00 -0.74505805969E-08  0.93827000000E+00  0.93827000000E+00 0.  1.
     999902    2    1    2    0    0  0.83291848751E-02 -0.14264110810E-02 -0.23630665012E-01  0.10188338191E+01  0.10185246843E+01 0.  0.
     999903    2    3    3    0    0 -0.54432365193E-01  0.83709284516E-01  0.75783107940E-01  0.12694245959E+00  0.20029525780E-01 0.  0.
         14    1    1    2    0    0 -0.83291848751E-02  0.14264110810E-02  0.23630665012E-01  0.25096180947E-01  0.00000000000E+00 0. -1.
     999901    1    3    3    0    0  0.62761550068E-01 -0.85135695597E-01 -0.99413772952E-01  0.89189135946E+00  0.88000000000E+00 0.  1.
        -11    1    4    4    0    0 -0.20194624788E-01  0.44991987163E-01  0.45121733539E-01  0.66845596249E-01  0.51100000000E-03 0. -1.
         11    1    4    4    0    0 -0.34237740404E-01  0.38717297353E-01  0.30661374401E-01  0.60096863341E-01  0.51100000000E-03 0.  1.
</event>
<event>
 8    1  0.1090774E+005  0.1043930E+01  0.7957747E-01            NaN
         13   -1    0    0    0    0  0.00000000000E+00  0.00000000000E+00  0.74505805969E-08  0.10566000000E+00  0.10566000000E+00 0.  1.
     999900   -1    0    0    0    0 -0.00000000000E+00 -0.00000000000E+00 -0.74505805969E-08  0.93827000000E+00  0.93827000000E+00 0. -1.
     999902    2    1    2    0    0  0.49727899264E-02 -0.18888521812E-02  0.22760146178E-01  0.10205564967E+01  0.10202888034E+01 0.  0.
     999903    2    3    3    0    0 -0.83611409381E-01  0.96463949374E-01  0.16610771768E-01  0.13063613580E+00  0.22219831947E-01 0.  0.
         14    1    1    2    0    0 -0.49727899264E-02  0.18888521812E-02 -0.22760146178E-01  0.23373503294E-01  0.00000000000E+00 0. -1.
     999901    1    3    3    0    0  0.88584199307E-01 -0.98352801555E-01  0.61493744096E-02  0.88992036090E+00  0.88000000000E+00 0.  1.
        -11    1    4    4    0    0 -0.26257882088E-01  0.45661619268E-01  0.25520701167E-02  0.52737406353E-01  0.51100000000E-03 0. -1.
         11    1    4    4    0    0 -0.57353527292E-01  0.50802330106E-01  0.14058701651E-01  0.77898729452E-01  0.51100000000E-03 0.  1.
</event>
<event>
 8    1  0.1090774E+005  0.1043930E+01  0.7957747E-01            NaN
         13   -1    0    0    0    0  0.00000000000E+00  0.00000000000E+00  0.74505805969E-08  0.10566000000E+00  0.10566000000E+00 0.  1.
     999900   -1    0    0    0    0 -0.00000000000E+00 -0.00000000000E+00 -0.74505805969E-08  0.93827000000E+00  0.93827000000E+00 0. -1.
     999902    2    1    2    0    0 -0.19506188447E-01 -0.12071472074E-01 -0.97384659721E-02  0.10190091343E+01  0.10187043567E+01 0.  0.
     999903    2    3    3    0    0 -0.63648112002E-01  0.11476095257E-01 -0.11257720711E+00  0.13160910954E+00  0.21553357718E-01 0.  0.
         14    1    1    2    0    0  0.19506188447E-01  0.12071472074E-01  0.97384659721E-02  0.24920865660E-01  0.00000000000E+00 0.  1.
     999901    1    3    3    0    0  0.44141923556E-01 -0.23547567331E-01  0.10283874114E+00  0.88740002480E+00  0.88000000000E+00 0.  1.
        -11    1    4    4    0    0 -0.10669701353E-01  0.96964602096E-02 -0.32712565156E-01  0.35752439184E-01  0.51100000000E-03 0. -1.
         11    1    4    4    0    0 -0.52978410649E-01  0.17796350474E-02 -0.79864641953E-01  0.95856670352E-01  0.51100000000E-03 0.  1.
</event>
<event>
 8    1  0.1090774E+005  0.1043930E+01  0.7957747E-01            NaN
         13   -1    0    0    0    0  0.00000000000E+00  0.00000000000E+00  0.74505805969E-08  0.10566000000E+00  0.10566000000E+00 0.  1.
     999900   -1    0    0    0    0 -0.00000000000E+00 -0.00000000000E+00 -0.74505805969E-08  0.93827000000E+00  0.93827000000E+00 0. -1.
     999902    2    1    2    0    0  0.42063041537E-02 -0.97455392448E-02 -0.20527969101E-01  0.10208201310E+01  0.10205585107E+01 0.  0.
     999903    2    3    3    0    0  0.10538691592E+00 -0.96933247125E-02  0.72613509192E-01  0.13013901303E+00  0.21519256624E-01 0.  0.
         14    1    1    2    0    0 -0.42063041537E-02  0.97455392448E-02  0.20527969101E-01  0.23109869000E-01  0.00000000000E+00 0.  1.
     999901    1    3    3    0    0 -0.10118061176E+00 -0.52214532316E-04 -0.93141478293E-01  0.89068111797E+00  0.88000000000E+00 0. -1.
        -11    1    4    4    0    0  0.68035418231E-01 -0.10750915661E-01  0.35583138893E-01  0.77529486106E-01  0.51100000000E-03 0. -1.
         11    1    4    4    0    0  0.37351497686E-01  0.10575909487E-02  0.37030370300E-01  0.52609526928E-01  0.51100000000E-03 0.  1.
</event>
<event>
 8    1  0.1090774E+005  0.1043930E+01  0.7957747E-01            NaN
         13   -1    0    0    0    0  0.00000000000E+00  0.00000000000E+00  0.74505805969E-08  0.10566000000E+00  0.10566000000E+00 0.  1.
     999900   -1    0    0    0    0 -0.00000000000E+00 -0.00000000000E+00 -0.74505805969E-08  0.93827000000E+00  0.93827000000E+00 0.  1.
     999902    2    1    2    0    0  0.84762339898E-02  0.19124545159E-01  0.11119069190E-01  0.10202397389E+01  0.10199646545E+01 0.  0.
     999903    2    3    3    0    0  0.31367939656E-01  0.52514602963E-01 -0.11361605276E+00  0.13052193153E+00  0.19637617046E-01 0.  0.
         14    1    1    2    0    0 -0.84762339898E-02 -0.19124545159E-01 -0.11119069190E-01  0.23690261076E-01  0.00000000000E+00 0. -1.
     999901    1    3    3    0    0 -0.22891705666E-01 -0.33390057804E-01  0.12473512195E+00  0.88971780740E+00  0.88000000000E+00 0. -1.
        -11    1    4    4    0    0 -0.34691068972E-03  0.13309703744E-01 -0.30824322080E-01  0.33580775951E-01  0.51100000000E-03 0. -1.
         11    1    4    4    0    0  0.31714850346E-01  0.39204899219E-01 -0.82791730678E-01  0.96941155579E-01  0.51100000000E-03 0.  1.
</event>
<event>
 8    1  0.1090774E+005  0.1043930E+01  0.7957747E-01            NaN
         13   -1    0    0    0    0  0.00000000000E+00  0.00000000000E+00  0.74505805969E-08  0.10566000000E+00  0.10566000000E+00 0.  1.
     999900   -1    0    0    0    0 -0.00000000000E+00 -0.00000000000E+00 -0.74505805969E-08  0.93827000000E+00  0.93827000000E+00 0.  1.
     999902    2    1    2    0    0  0.18529902238E-01 -0.14088554229E-01  0.37248088033E-02  0.10203563105E+01  0.10200839581E+01 0.  0.
     999903    2    3    3    0    0  0.24642963213E-01  0.10152238425E+00  0.74559942191E-01  0.12995141677E+00  0.20349830509E-01 0.  0.
         14    1    1    2    0    0 -0.18529902238E-01  0.14088554229E-01 -0.37248088033E-02  0.23573689525E-01  0.00000000000E+00 0. -1.
     999901    1    3    3    0    0 -0.61130609751E-02 -0.11561093848E+00 -0.70835133388E-01  0.89040489370E+00  0.88000000000E+00 0.  1.
        -11    1    4    4    0    0  0.12660290580E-01  0.81551843933E-01  0.52145356943E-01  0.97623693734E-01  0.51100000000E-03 0. -1.
         11    1    4    4    0    0  0.11982672633E-01  0.19970540315E-01  0.22414585248E-01  0.32327723037E-01  0.51100000000E-03 0.  1.
</event>
<event>
 8    1  0.1090774E+005  0.1043930E+01  0.7957747E-01            NaN
         13   -1    0    0    0    0  0.00000000000E+00  0.00000000000E+00  0.74505805969E-08  0.10566000000E+00  0.10566000000E+00 0.  1.
     999900   -1    0    0    0    0 -0.00000000000E+00 -0.00000000000E+00 -0.74505805969E-08  0.93827000000E+00  0.93827000000E+00 0. -1.
     999902    2    1    2    0    0 -0.21114924549E-01 -0.17901816004E-02 -0.89789458681E-02  0.10209155207E+01  0.10206560802E+01 0.  0.
     999903    2    3    3    0    0 -0.91494947309E-01  0.30140610658E-01  0.87633053457E-01  0.13226103130E+00  0.23100791103E-01 0.  0.
         14    1    1    2    0    0  0.21114924549E-01  0.17901816004E-02  0.89789458681E-02  0.23014479307E-01  0.00000000000E+00 0. -1.
     999901    1    3    3    0    0  0.70380022760E-01 -0.31930792258E-01 -0.96611999325E-01  0.88865448939E+00  0.88000000000E+00 0. -1.
        -11    1    4    4    0    0 -0.54485251946E-01  0.10603384883E-01  0.61835184296E-01  0.83095881899E-01  0.51100000000E-03 0. -1.
         11    1    4    4    0    0 -0.37009695363E-01  0.19537225775E-01  0.25797869161E-01  0.49165149405E-01  0.51100000000E-03 0.  1.
</event>
<event>
 8    1  0.1090774E+005  0.1043930E+01  0.7957747E-01            NaN
         13   -1    0    0    0    0  0.00000000000E+00  0.00000000000E+00  0.74505805969E-08  0.10566000000E+00  0.10566000000E+00 0.  1.
     999900   -1    0    0    0    0 -0.00000000000E+00 -0.00000000000E+00 -0.74505805969E-08  0.93827000000E+00  0.93827000000E+00 0.  1.
     999902    2    1    2    0    0 -0.10385944417E-01 -0.17851407932E-01 -0.98155428914E-02  0.10210633105E+01  0.10208072289E+01 0.  0.
     999903    2    3    3    0    0  0.13401074701E-01  0.91541681995E-01  0.87220805370E-01  0.12867957953E+00  0.19786281973E-01 0.  0.
         14    1    1    2    0    0  0.10385944417E-01  0.17851407932E-01  0.98155428914E-02  0.22866689503E-01  0.00000000000E+00 0. -1.
     999901    1    3    3    0    0 -0.23787019118E-01 -0.10939308993E+00 -0.97036348261E-01  0.89238373096E+00  0.88000000000E+00 0. -1.
        -11    1    4    4    0    0  0.15823027667E-02  0.60574056878E-01  0.64441451937E-01  0.88457232025E-01  0.51100000000E-03 0. -1.
         11    1    4    4    0    0  0.11818771935E-01  0.30967625116E-01  0.22779353433E-01  0.40222347510E-01  0.51100000000E-03 0.  1.
</event>
<event>
 8    1  0.1090774E+005  0.1043930E+01  0.7957747E-01            NaN
         13   -1    0    0    0    0  0.00000000000E+00  0.00000000000E+00  0.74505805969E-08  0.10566000000E+00  0.10566000000E+00 0.  1.
     999900   -1    0    0    0    0 -0.00000000000E+00 -0.00000000000E+00 -0.74505805969E-08  0.93827000000E+00  0.93827000000E+00 0. -1.
     999902    2    1    2    0    0  0.14495116380E-01 -0.16836416265E-01 -0.17050772651E-01  0.10159246048E+01  0.10155385273E+01 0.  0.
     999903    2    3    3    0    0 -0.33291882296E-01  0.66284597912E-01 -0.10084615810E+00  0.12675962189E+00  0.19901175629E-01 0.  0.
         14    1    1    2    0    0 -0.14495116380E-01  0.16836416265E-01  0.17050772651E-01  0.28005395186E-01  0.00000000000E+00 0.  1.
     999901    1    3    3    0    0  0.47786998676E-01 -0.83121014177E-01  0.83795385444E-01  0.88916498293E+00  0.88000000000E+00 0.  1.
        -11    1    4    4    0    0 -0.25008349322E-02  0.11868673773E-01 -0.70653541892E-02  0.14046349821E-01  0.51100000000E-03 0. -1.
         11    1    4    4    0    0 -0.30791047364E-01  0.54415924139E-01 -0.93780803906E-01  0.11271327207E+00  0.51100000000E-03 0.  1.
</event>
<event>
 8    1  0.1090774E+005  0.1043930E+01  0.7957747E-01            NaN
         13   -1    0    0    0    0  0.00000000000E+00  0.00000000000E+00  0.74505805969E-08  0.10566000000E+00  0.10566000000E+00 0.  1.
     999900   -1    0    0    0    0 -0.00000000000E+00 -0.00000000000E+00 -0.74505805969E-08  0.93827000000E+00  0.93827000000E+00 0.  1.
     999902    2    1    2    0    0  0.15089244280E-01  0.84623270292E-02  0.16614345789E-01  0.10199439049E+01  0.10196618245E+01 0.  0.
     999903    2    3    3    0    0 -0.11669626348E+00 -0.51258434763E-03 -0.44818170079E-01  0.12796749093E+00  0.27362925897E-01 0.  0.
         14    1    1    2    0    0 -0.15089244280E-01 -0.84623270292E-02 -0.16614345789E-01  0.23986095090E-01  0.00000000000E+00 0. -1.
     999901    1    3    3    0    0  0.13178550776E+00  0.89749113768E-02  0.61432515867E-01  0.89197641398E+00  0.88000000000E+00 0. -1.
        -11    1    4    4    0    0 -0.78428894085E-01  0.12499536502E-01 -0.30797125739E-01  0.85182474224E-01  0.51100000000E-03 0.  1.
         11    1    4    4    0    0 -0.38267369392E-01 -0.13012120850E-01 -0.14021044339E-01  0.42785016707E-01  0.51100000000E-03 0. -1.
</event>
<event>
 8    1  0.1090774E+005  0.1043930E+01  0.7957747E-01            NaN
         13   -1    0    0    0    0  0.00000000000E+00  0.00000000000E+00  0.74505805969E-08  0.10566000000E+00  0.10566000000E+00 0. -1.
     999900   -1    0    0    0    0 -0.00000000000E+00 -0.00000000000E+00 -0.74505805969E-08  0.93827000000E+00  0.93827000000E+00 0.  1.
     999902    2    1    2    0    0 -0.15737114748E-01 -0.63388142385E-02  0.17790449337E-01  0.10193467245E+01  0.10190502477E+01 0.  0.
     999903    2    3    3    0    0 -0.76722563548E-01 -0.34233255632E-01 -0.96410007325E-01  0.12943713970E+00  0.20020391409E-01 0.  0.
         14    1    1    2    0    0  0.15737114748E-01  0.63388142385E-02 -0.17790449337E-01  0.24583275497E-01  0.00000000000E+00 0.  1.
     999901    1    3    3    0    0  0.60985448800E-01  0.27894441394E-01  0.11420045666E+00  0.88990958481E+00  0.88000000000E+00 0. -1.
        -11    1    4    4    0    0 -0.36072842393E-01 -0.16126715118E-01 -0.30540006320E-01  0.49942707234E-01  0.51100000000E-03 0.  1.
         11    1    4    4    0    0 -0.40649721155E-01 -0.18106540515E-01 -0.65870001006E-01  0.79494432465E-01  0.51100000000E-03 0. -1.
</event>
<event>
 8    1  0.1090774E+005  0.1043930E+01  0.7957747E-01            NaN
         13   -1    0    0    0    0  0.00000000000E+00  0.00000000000E+00  0.74505805969E-08  0.10566000000E+00  0.10566000000E+00 0. -1.
     999900   -1    0    0    0    0 -0.00000000000E+00 -0.00000000000E+00 -0.74505805969E-08  0.93827000000E+00  0.93827000000E+00 0. -1.
     999902    2    1    2    0    0  0.47446714554E-02 -0.19607176811E-01  0.20941728579E-01  0.10148523576E+01  0.10144357045E+01 0.  0.
     999903    2    3    3    0    0 -0.41383490052E-01 -0.11838907359E+00  0.16347446248E-01  0.12811294955E+00  0.20423585595E-01 0.  0.
         14    1    1    2    0    0 -0.47446714554E-02  0.19607176811E-01 -0.20941728579E-01  0.29077642366E-01  0.00000000000E+00 0.  1.
     999901    1    3    3    0    0  0.46128161508E-01  0.98781896783E-01  0.45942823309E-02  0.88673940808E+00  0.88000000000E+00 0.  1.
        -11    1    4    4    0    0 -0.13242494518E-01 -0.16072602773E-01  0.65496953757E-03  0.20841840779E-01  0.51100000000E-03 0. -1.
         11    1    4    4    0    0 -0.28140995534E-01 -0.10231647082E+00  0.15692476710E-01  0.10727110877E+00  0.51100000000E-03 0.  1.
</event>
<event>
 8    1  0.1090774E+005  0.1043930E+01  0.7957747E-01            NaN
         13   -1    0    0    0    0  0.00000000000E+00  0.00000000000E+00  0.74505805969E-08  0.10566000000E+00  0.10566000000E+00 0.  1.
     999900   -1    0    0    0    0 -0.00000000000E+00 -0.00000000000E+00 -0.74505805969E-08  0.93827000000E+00  0.93827000000E+00 0. -1.
     999902    2    1    2    0    0  0.11591899080E-01  0.17076687354E-01  0.56235369994E-02  0.10225381898E+01  0.10223144037E+01 0.  0.
     999903    2    3    3    0    0 -0.93125877536E-01  0.42395046402E-01 -0.80668354577E-01  0.13177833294E+00  0.19707272147E-01 0.  0.
         14    1    1    2    0    0 -0.11591899080E-01 -0.17076687354E-01 -0.56235369994E-02  0.21391810201E-01  0.00000000000E+00 0. -1.
     999901    1    3    3    0    0  0.10471777662E+00 -0.25318359048E-01  0.86291891577E-01  0.89075985686E+00  0.88000000000E+00 0.  1.
        -11    1    4    4    0    0 -0.67452522944E-02 -0.12944705024E-02 -0.90019941413E-02  0.11334509337E-01  0.51100000000E-03 0. -1.
         11    1    4    4    0    0 -0.86380625241E-01  0.43689516904E-01 -0.71666360436E-01  0.12044382360E+00  0.51100000000E-03 0.  1.
</event>
<event>
 8    1  0.1090774E+005  0.1043930E+01  0.7957747E-01            NaN
         13   -1    0    0    0    0  0.00000000000E+00  0.00000000000E+00  0.74505805969E-08  0.10566000000E+00  0.10566000000E+00 0. -1.
     999900   -1    0    0    0    0 -0.00000000000E+00 -0.00000000000E+00 -0.74505805969E-08  0.93827000000E+00  0.93827000000E+00 0. -1.
     999902    2    1    2    0    0 -0.14229546854E-02 -0.17444226974E-01 -0.15234664134E-01  0.10207261028E+01  0.10204623247E+01 0.  0.
     999903    2    3    3    0    0  0.39642387023E-01  0.10791247686E+00 -0.55364857220E-01  0.12998983548E+00  0.24808635677E-01 0.  0.
         14    1    1    2    0    0  0.14229546854E-02  0.17444226974E-01  0.15234664134E-01  0.23203897216E-01  0.00000000000E+00 0. -1.
     999901    1    3    3    0    0 -0.41065341708E-01 -0.12535670383E+00  0.40130193086E-01  0.89073626730E+00  0.88000000000E+00 0.  1.
        -11    1    4    4    0    0  0.33174032910E-01  0.93467198474E-01 -0.37290805920E-01  0.10595989325E+00  0.51100000000E-03 0. -1.
         11    1    4    4    0    0  0.64683541125E-02  0.14445278383E-01 -0.18074051300E-01  0.24029942236E-01  0.51100000000E-03 0.  1.
</event>
<event>
 8    1  0.1090774E+005  0.1043930E+01  0.7957747E-01            NaN
         13   -1    0    0    0    0  0.00000000000E+00  0.00000000000E+00  0.74505805969E-08  0.10566000000E+00  0.10566000000E+00 0.  1.
     999900   -1    0    0    0    0 -0.00000000000E+00 -0.00000000000E+00 -0.74505805969E-08  0.93827000000E+00  0.93827000000E+00 0.  1.
     999902    2    1    2    0    0 -0.17785902039E-01  0.11184624984E-01 -0.98842108132E-02  0.10207107888E+01  0.10204466583E+01 0.  0.
     999903    2    3    3    0    0 -0.13106015920E+00  0.70906520721E-02  0.11286623457E-01  0.13318838218E+00  0.19614142887E-01 0.  0.
         14    1    1    2    0    0  0.17785902039E-01 -0.11184624984E-01  0.98842108132E-02  0.23219211243E-01  0.00000000000E+00 0.  1.
     999901    1    3    3    0    0  0.11327425717E+00  0.40939729115E-02 -0.21170834270E-01  0.88752240658E+00  0.88000000000E+00 0.  1.
        -11    1    4    4    0    0 -0.56087415314E-01  0.59909195119E-02  0.14131249979E-01  0.58151892662E-01  0.51100000000E-03 0.  1.
         11    1    4    4    0    0 -0.74972743891E-01  0.10997325602E-02 -0.28446265218E-02  0.75036489519E-01  0.51100000000E-03 0. -1.
</event>
<event>
 8    1  0.1090774E+005  0.1043930E+01  0.7957747E-01            NaN
         13   -1    0    0    0    0  0.00000000000E+00  0.00000000000E+00  0.74505805969E-08  0.10566000000E+00  0.10566000000E+00 0.  1.
     999900   -1    0    0    0    0 -0.00000000000E+00 -0.00000000000E+00 -0.74505805969E-08  0.93827000000E+00  0.93827000000E+00 0. -1.
     999902    2    1    2    0    0 -0.16733206983E-01 -0.68543938472E-03 -0.17554319549E-01  0.10196684218E+01  0.10193797458E+01 0.  0.
     999903    2    3    3    0    0  0.11278249876E-01  0.27652975547E-01  0.12296842065E+00  0.12762898992E+00  0.16614469966E-01 0.  0.
         14    1    1    2    0    0  0.16733206983E-01  0.68543938472E-03  0.17554319549E-01  0.24261578224E-01  0.00000000000E+00 0. -1.
     999901    1    3    3    0    0 -0.28011456859E-01 -0.28338414932E-01 -0.14052274020E+00  0.89203943186E+00  0.88000000000E+00 0. -1.
        -11    1    4    4    0    0  0.59357726413E-02  0.22579380046E-01  0.62659522087E-01  0.66869564298E-01  0.51100000000E-03 0.  1.
         11    1    4    4    0    0  0.53424772342E-02  0.50735955010E-02  0.60308898566E-01  0.60759425619E-01  0.51100000000E-03 0. -1.
</event>
<event>
 8    1  0.1090774E+005  0.1043930E+01  0.7957747E-01            NaN
         13   -1    0    0    0    0  0.00000000000E+00  0.00000000000E+00  0.74505805969E-08  0.10566000000E+00  0.10566000000E+00 0.  1.
     999900   -1    0    0    0    0 -0.00000000000E+00 -0.00000000000E+00 -0.74505805969E-08  0.93827000000E+00  0.93827000000E+00 0.  1.
     999902    2    1    2    0    0 -0.73107052562E-02  0.80687602568E-02 -0.21384832439E-01  0.10199328676E+01  0.10196505245E+01 0.  0.
     999903    2    3    3    0    0  0.59655058355E-01  0.11477537774E+00 -0.11496458754E-02  0.13073087793E+00  0.18897815635E-01 0.  0.
         14    1    1    2    0    0  0.73107052562E-02 -0.80687602568E-02  0.21384832439E-01  0.23997132367E-01  0.00000000000E+00 0.  1.
     999901    1    3    3    0    0 -0.66965763611E-01 -0.10670661749E+00 -0.20235186563E-01  0.88920198970E+00  0.88000000000E+00 0. -1.
        -11    1    4    4    0    0  0.18146086069E-01  0.28929421011E-01 -0.81691298156E-02  0.35116771529E-01  0.51100000000E-03 0. -1.
         11    1    4    4    0    0  0.41508972286E-01  0.85845956732E-01  0.70194839402E-02  0.95614106403E-01  0.51100000000E-03 0.  1.
</event>
<event>
 8    1  0.1090774E+005  0.1043930E+01  0.7957747E-01            NaN
         13   -1    0    0    0    0  0.00000000000E+00  0.00000000000E+00  0.74505805969E-08  0.10566000000E+00  0.10566000000E+00 0.  1.
     999900   -1    0    0    0    0 -0.00000000000E+00 -0.00000000000E+00 -0.74505805969E-08  0.93827000000E+00  0.93827000000E+00 0. -1.
     999902    2    1    2    0    0 -0.17175480926E-01 -0.92405208273E-02 -0.11921632049E-01  0.10210715293E+01  0.10208156339E+01 0.  0.
     999903    2    3    3    0    0 -0.85028665259E-01  0.95049017315E-01  0.25276371038E-01  0.13154128600E+00  0.20000634498E-01 0.  0.
         14    1    1    2    0    0  0.17175480926E-01  0.92405208273E-02  0.11921632049E-01  0.22858470660E-01  0.00000000000E+00 0. -1.
     999901    1    3    3    0    0  0.67853184333E-01 -0.10428953814E+00 -0.37198003088E-01  0.88953024334E+00  0.88000000000E+00 0. -1.
        -11    1    4    4    0    0 -0.37168351795E-01  0.56389383773E-01  0.14521859730E-01  0.69082519557E-01  0.51100000000E-03 0. -1.
         11    1    4    4    0    0 -0.47860313465E-01  0.38659633542E-01  0.10754511309E-01  0.62458766439E-01  0.51100000000E-03 0.  1.
</event>
<event>
 8    1  0.1090774E+005  0.1043930E+01  0.7957747E-01            NaN
         13   -1    0    0    0    0  0.00000000000E+00  0.00000000000E+00  0.74505805969E-08  0.10566000000E+00  0.10566000000E+00 0. -1.
     999900   -1    0    0    0    0 -0.00000000000E+00 -0.00000000000E+00 -0.74505805969E-08  0.93827000000E+00  0.93827000000E+00 0.  1.
     999902    2    1    2    0    0  0.12095172034E-01 -0.27104800540E-02 -0.19685805440E-01  0.10206669214E+01  0.10204017805E+01 0.  0.
     999903    2    3    3    0    0 -0.10850699179E+00  0.13182894612E-01  0.64061167733E-01  0.12836033914E+00  0.20615224402E-01 0.  0.
         14    1    1    2    0    0 -0.12095172034E-01  0.27104800540E-02  0.19685805440E-01  0.23263078569E-01  0.00000000000E+00 0. -1.
     999901    1    3    3    0    0  0.12060216382E+00 -0.15893374666E-01 -0.83746973173E-01  0.89230658229E+00  0.88000000000E+00 0.  1.
        -11    1    4    4    0    0 -0.28230734717E-01 -0.47306722158E-02  0.12175792859E-01  0.31110523863E-01  0.51100000000E-03 0. -1.
         11    1    4    4    0    0 -0.80276257070E-01  0.17913566827E-01  0.51885374873E-01  0.97249815282E-01  0.51100000000E-03 0.  1.
</event>
<event>
 8    1  0.1090774E+005  0.1043930E+01  0.7957747E-01            NaN
         13   -1    0    0    0    0  0.00000000000E+00  0.00000000000E+00  0.74505805969E-08  0.10566000000E+00  0.10566000000E+00 0. -1.
     999900   -1    0    0    0    0 -0.00000000000E+00 -0.00000000000E+00 -0.74505805969E-08  0.93827000000E+00  0.93827000000E+00 0.  1.
     999902    2    1    2    0    0  0.38182142033E-02 -0.12951657882E-01 -0.18487336224E-01  0.10210366428E+01  0.10207799568E+01 0.  0.
     999903    2    3    3    0    0  0.75205016185E-01  0.65842772525E-01  0.79420073311E-01  0.12924602918E+00  0.20147527420E-01 0.  0.
         14    1    1    2    0    0 -0.38182142033E-02  0.12951657882E-01  0.18487336224E-01  0.22893357165E-01  0.00000000000E+00 0. -1.
     999901    1    3    3    0    0 -0.71386801982E-01 -0.78794430407E-01 -0.97907409535E-01  0.89179061365E+00  0.88000000000E+00 0.  1.
        -11    1    4    4    0    0  0.41470187576E-01  0.48930546774E-01  0.52503429298E-01  0.82890566860E-01  0.51100000000E-03 0. -1.
         11    1    4    4    0    0  0.33734828609E-01  0.16912225751E-01  0.26916644012E-01  0.46355462321E-01  0.51100000000E-03 0.  1.
</event>
<event>
 8    1  0.1090774E+005  0.1043930E+01  0.7957747E-01            NaN
         13   -1    0    0    0    0  0.00000000000E+00  0.00000000000E+00  0.74505805969E-08  0.10566000000E+00  0.10566000000E+00 0.  1.
     999900   -1    0    0    0    0 -0.00000000000E+00 -0.00000000000E+00 -0.74505805969E-08  0.93827000000E+00  0.93827000000E+00 0.  1.
     999902    2    1    2    0    0  0.72614423861E-02  0.22591465476E-01  0.18373798016E-02  0.10201291844E+01  0.10198514961E+01 0.  0.
     999903    2    3    3    0    0 -0.12356486350E+00 -0.30748891427E-01  0.49493517289E-02  0.12885459129E+00  0.19111247940E-01 0.  0.
         14    1    1    2    0    0 -0.72614423861E-02 -0.22591465476E-01 -0.18373798016E-02  0.23800815583E-01  0.00000000000E+00 0.  1.
     999901    1    3    3    0    0  0.13082630589E+00  0.53340356903E-01 -0.31119719273E-02  0.89127459313E+00  0.88000000000E+00 0.  1.
        -11    1    4    4    0    0 -0.87218435030E-01 -0.29987817552E-01  0.56215742527E-03  0.92232866987E-01  0.51100000000E-03 0.  1.
         11    1    4    4    0    0 -0.36346428471E-01 -0.76107387444E-03  0.43871943036E-02  0.36621724302E-01  0.51100000000E-03 0. -1.
</event>
<event>
 8    1  0.1090774E+005  0.1043930E+01  0.7957747E-01            NaN
         13   -1    0    0    0    0  0.00000000000E+00  0.00000000000E+00  0.74505805969E-08  0.10566000000E+00  0.10566000000E+00 0. -1.
     999900   -1    0    0    0    0 -0.00000000000E+00 -0.00000000000E+00 -0.74505805969E-08  0.93827000000E+00  0.93827000000E+00 0.  1.
     999902    2    1    2    0    0  0.34995850742E-02  0.33890335836E-02 -0.22653747993E-01  0.10207583591E+01  0.10204953222E+01 0.  0.
     999903    2    3    3    0    0 -0.92808127868E-01 -0.80720196830E-01 -0.41623603105E-01  0.13131505364E+00  0.19545337077E-01 0.  0.
         14    1    1    2    0    0 -0.34995850742E-02 -0.33890335836E-02  0.22653747993E-01  0.23171640910E-01  0.00000000000E+00 0. -1.
     999901    1    3    3    0    0  0.96307712942E-01  0.84109230414E-01  0.18969855111E-01  0.88944330545E+00  0.88000000000E+00 0. -1.
        -11    1    4    4    0    0 -0.66897007594E-01 -0.67414204913E-01 -0.27112159564E-01  0.98768491769E-01  0.51100000000E-03 0. -1.
         11    1    4    4    0    0 -0.25911120274E-01 -0.13305991917E-01 -0.14511443541E-01  0.32546561867E-01  0.51100000000E-03 0.  1.
</event>
<event>
 8    1  0.1090774E+005  0.1043930E+01  0.7957747E-01            NaN
         13   -1    0    0    0    0  0.00000000000E+00  0.00000000000E+00  0.74505805969E-08  0.10566000000E+00  0.10566000000E+00 0. -1.
     999900   -1    0    0    0    0 -0.00000000000E+00 -0.00000000000E+00 -0.74505805969E-08  0.93827000000E+00  0.93827000000E+00 0. -1.
     999902    2    1    2    0    0  0.21592261348E-01 -0.79196049903E-02 -0.81323306013E-02  0.10195357241E+01  0.10192438433E+01 0.  0.
     999903    2    3    3    0    0  0.63341860929E-01  0.10134502215E+00 -0.49181399032E-01  0.13084746957E+00  0.20475483408E-01 0.  0.
         14    1    1    2    0    0 -0.21592261348E-01  0.79196049903E-02  0.81323306013E-02  0.24394275852E-01  0.00000000000E+00 0.  1.
     999901    1    3    3    0    0 -0.41749599581E-01 -0.10926462714E+00  0.41049068431E-01  0.88868825458E+00  0.88000000000E+00 0.  1.
        -11    1    4    4    0    0  0.57923827968E-01  0.82379979223E-01 -0.46540789093E-01  0.11094114202E+00  0.51100000000E-03 0.  1.
         11    1    4    4    0    0  0.54180329617E-02  0.18965042928E-01 -0.26406099391E-02  0.19906327544E-01  0.51100000000E-03 0. -1.
</event>
<event>
 8    1  0.1090774E+005  0.1043930E+01  0.7957747E-01            NaN
         13   -1    0    0    0    0  0.00000000000E+00  0.00000000000E+00  0.74505805969E-08  0.10566000000E+00  0.10566000000E+00 0. -1.
     999900   -1    0    0    0    0 -0.00000000000E+00 -0.00000000000E+00 -0.74505805969E-08  0.93827000000E+00  0.93827000000E+00 0.  1.
     999902    2    1    2    0    0 -0.12660963249E-01 -0.14098703393E-01  0.13611678502E-01  0.10205986644E+01  0.10203319473E+01 0.  0.
     999903    2    3    3    0    0  0.82550896773E-01 -0.55993029493E-01  0.83719753258E-01  0.13170295908E+00  0.19667293528E-01 0.  0.
         14    1    1    2    0    0  0.12660963249E-01  0.14098703393E-01 -0.13611678502E-01  0.23331335569E-01  0.00000000000E+00 0. -1.
     999901    1    3    3    0    0 -0.95211860022E-01  0.41894326100E-01 -0.70108074756E-01  0.88889570535E+00  0.88000000000E+00 0.  1.
        -11    1    4    4    0    0  0.36153421171E-01 -0.35761539358E-01  0.46037271677E-01  0.68597733666E-01  0.51100000000E-03 0.  1.
         11    1    4    4    0    0  0.46397475602E-01 -0.20231490135E-01  0.37682481581E-01  0.63105225413E-01  0.51100000000E-03 0. -1.
</event>
<event>
 8    1  0.1090774E+005  0.1043930E+01  0.7957747E-01            NaN
         13   -1    0    0    0    0  0.00000000000E+00  0.00000000000E+00  0.74505805969E-08  0.10566000000E+00  0.10566000000E+00 0.  1.
     999900   -1    0    0    0    0 -0.00000000000E+00 -0.00000000000E+00 -0.74505805969E-08  0.93827000000E+00  0.93827000000E+00 0. -1.
     999902    2    1    2    0    0  0.28889860186E-01  0.12410343001E-01 -0.50540863018E-02  0.10120837377E+01  0.10115825758E+01 0.  0.
     999903    2    3    3    0    0  0.74443193843E-01 -0.76179136519E-01  0.60441663074E-01  0.12404494615E+00  0.19720651104E-01 0.  0.
         14    1    1    2    0    0 -0.28889860186E-01 -0.12410343001E-01  0.50540863018E-02  0.31846262313E-01  0.00000000000E+00 0. -1.
     999901    1    3    3    0    0 -0.45553333657E-01  0.88589479520E-01 -0.65495749375E-01  0.88803879154E+00  0.88000000000E+00 0. -1.
        -11    1    4    4    0    0  0.51347502892E-01 -0.45251527737E-01  0.47575175625E-01  0.83354215686E-01  0.51100000000E-03 0.  1.
         11    1    4    4    0    0  0.23095690950E-01 -0.30927608782E-01  0.12866487448E-01  0.40690730464E-01  0.51100000000E-03 0. -1.
</event>
<event>
 8    1  0.1090774E+005  0.1043930E+01  0.7957747E-01            NaN
         13   -1    0    0    0    0  0.00000000000E+00  0.00000000000E+00  0.74505805969E-08  0.10566000000E+00  0.10566000000E+00 0. -1.
     999900   -1    0    0    0    0 -0.00000000000E+00 -0.00000000000E+00 -0.74505805969E-08  0.93827000000E+00  0.93827000000E+00 0. -1.
     999902    2    1    2    0    0 -0.19173476883E-01  0.14052094815E-01 -0.44621555338E-02  0.10197433422E+01  0.10194564677E+01 0.  0.
     999903    2    3    3    0    0  0.61190042769E-01 -0.44747445192E-01  0.10206400120E+00  0.12774362062E+00  0.12442551340E-01 0.  0.
         14    1    1    2    0    0  0.19173476883E-01 -0.14052094815E-01  0.44621555338E-02  0.24186657820E-01  0.00000000000E+00 0.  1.
     999901    1    3    3    0    0 -0.80363519652E-01  0.58799540007E-01 -0.10652615673E+00  0.89199972156E+00  0.88000000000E+00 0. -1.
        -11    1    4    4    0    0  0.39363472499E-01 -0.33102600676E-01  0.76340172573E-01  0.92050791459E-01  0.51100000000E-03 0. -1.
         11    1    4    4    0    0  0.21826570270E-01 -0.11644844515E-01  0.25723828622E-01  0.35692829161E-01  0.51100000000E-03 0.  1.
</event>
<event>
 8    1  0.1090774E+005  0.1043930E+01  0.7957747E-01            NaN
         13   -1    0    0    0    0  0.00000000000E+00  0.00000000000E+00  0.74505805969E-08  0.10566000000E+00  0.10566000000E+00 0.  1.
     999900   -1    0    0    0    0 -0.00000000000E+00 -0.00000000000E+00 -0.74505805969E-08  0.93827000000E+00  0.93827000000E+00 0.  1.
     999902    2    1    2    0    0 -0.78914815552E-02 -0.20907593346E-01  0.90235790725E-02  0.10198296282E+01  0.10195448213E+01 0.  0.
     999903    2    3    3    0    0  0.10826212196E+00  0.31878732063E-01 -0.57474668702E-01  0.12814578699E+00  0.19520875280E-01 0.  0.
         14    1    1    2    0    0  0.78914815552E-02  0.20907593346E-01 -0.90235790725E-02  0.24100371780E-01  0.00000000000E+00 0. -1.
     999901    1    3    3    0    0 -0.11615360351E+00 -0.52786325409E-01  0.66498247775E-01  0.89168384123E+00  0.88000000000E+00 0. -1.
        -11    1    4    4    0    0  0.48695831034E-01  0.89897987674E-02 -0.34358909904E-01  0.60273512033E-01  0.51100000000E-03 0.  1.
         11    1    4    4    0    0  0.59566290922E-01  0.22888933295E-01 -0.23115758798E-01  0.67872274954E-01  0.51100000000E-03 0. -1.
</event>
<event>
 8    1  0.1090774E+005  0.1043930E+01  0.7957747E-01            NaN
         13   -1    0    0    0    0  0.00000000000E+00  0.00000000000E+00  0.74505805969E-08  0.10566000000E+00  0.10566000000E+00 0. -1.
     999900   -1    0    0    0    0 -0.00000000000E+00 -0.00000000000E+00 -0.74505805969E-08  0.93827000000E+00  0.93827000000E+00 0.  1.
     999902    2    1    2    0    0  0.15859107367E-01  0.17568351664E-01 -0.46746911176E-05  0.10202623366E+01  0.10199877829E+01 0.  0.
     999903    2    3    3    0    0  0.33792972103E-01  0.68292836452E-01  0.10615335733E+00  0.13225100529E+00  0.20394034758E-01 0.  0.
         14    1    1    2    0    0 -0.15859107367E-01 -0.17568351664E-01  0.46746911176E-05  0.23667663351E-01  0.00000000000E+00 0.  1.
     999901    1    3    3    0    0 -0.17933864736E-01 -0.50724484788E-01 -0.10615803202E+00  0.88801133136E+00  0.88000000000E+00 0.  1.
        -11    1    4    4    0    0  0.21296857331E-01  0.44097245788E-01  0.83601619358E-01  0.96889705844E-01  0.51100000000E-03 0.  1.
         11    1    4    4    0    0  0.12496114772E-01  0.24195590663E-01  0.22551737970E-01  0.35361299445E-01  0.51100000000E-03 0. -1.
</event>
<event>
 8    1  0.1090774E+005  0.1043930E+01  0.7957747E-01            NaN
         13   -1    0    0    0    0  0.00000000000E+00  0.00000000000E+00  0.74505805969E-08  0.10566000000E+00  0.10566000000E+00 0. -1.
     999900   -1    0    0    0    0 -0.00000000000E+00 -0.00000000000E+00 -0.74505805969E-08  0.93827000000E+00  0.93827000000E+00 0. -1.
     999902    2    1    2    0    0 -0.23288960702E-01  0.23777140287E-02 -0.33837125730E-02  0.10202766974E+01  0.10200024806E+01 0.  0.
     999903    2    3    3    0    0  0.13976221278E-01  0.12584866282E+00  0.25436013929E-01  0.13040909732E+00  0.18064361729E-01 0.  0.
         14    1    1    2    0    0  0.23288960702E-01 -0.23777140287E-02  0.33837125730E-02  0.23653302631E-01  0.00000000000E+00 0. -1.
     999901    1    3    3    0    0 -0.37265181979E-01 -0.12347094879E+00 -0.28819726502E-01  0.88986760005E+00  0.88000000000E+00 0. -1.
        -11    1    4    4    0    0 -0.19394734012E-02  0.51546559560E-01  0.57058517599E-02  0.51900165942E-01  0.51100000000E-03 0. -1.
         11    1    4    4    0    0  0.15915694679E-01  0.74302103259E-01  0.19730162169E-01  0.78508931377E-01  0.51100000000E-03 0.  1.
</event>
<event>
 8    1  0.1090774E+005  0.1043930E+01  0.7957747E-01            NaN
         13   -1    0    0    0    0  0.00000000000E+00  0.00000000000E+00  0.74505805969E-08  0.10566000000E+00  0.10566000000E+00 0. -1.
     999900   -1    0    0    0    0 -0.00000000000E+00 -0.00000000000E+00 -0.74505805969E-08  0.93827000000E+00  0.93827000000E+00 0.  1.
     999902    2    1    2    0    0 -0.64175968517E-02  0.10471878561E-01  0.20821269050E-01  0.10197562325E+01  0.10194696674E+01 0.  0.
     999903    2    3    3    0    0 -0.81072084206E-01 -0.39901702107E-01 -0.89222233724E-01  0.12834142300E+00  0.18603365220E-01 0.  0.
         14    1    1    2    0    0  0.64175968517E-02 -0.10471878561E-01 -0.20821269050E-01  0.24173767493E-01  0.00000000000E+00 0.  1.
     999901    1    3    3    0    0  0.74654487355E-01  0.50373580668E-01  0.11004350277E+00  0.89141480951E+00  0.88000000000E+00 0. -1.
        -11    1    4    4    0    0 -0.45996755907E-01 -0.12529801584E-01 -0.43402754629E-01  0.64472922317E-01  0.51100000000E-03 0. -1.
         11    1    4    4    0    0 -0.35075328299E-01 -0.27371900522E-01 -0.45819479096E-01  0.63868500680E-01  0.51100000000E-03 0.  1.
</event>
<event>
 8    1  0.1090774E+005  0.1043930E+01  0.7957747E-01            NaN
         13   -1    0    0    0    0  0.00000000000E+00  0.00000000000E+00  0.74505805969E-08  0.10566000000E+00  0.10566000000E+00 0.  1.
     999900   -1    0    0    0    0 -0.00000000000E+00 -0.00000000000E+00 -0.74505805969E-08  0.93827000000E+00  0.93827000000E+00 0.  1.
     999902    2    1    2    0    0  0.18429642789E-01  0.12780966739E-01 -0.66527141252E-02  0.10205363374E+01  0.10202681768E+01 0.  0.
     999903    2    3    3    0    0  0.11283456761E+00 -0.11902094812E-02  0.66268939502E-01  0.13237810198E+00  0.19983325440E-01 0.  0.
         14    1    1    2    0    0 -0.18429642789E-01 -0.12780966739E-01  0.66527141252E-02  0.23393662589E-01  0.00000000000E+00 0.  1.
     999901    1    3    3    0    0 -0.94404924818E-01  0.13971176220E-01 -0.72921653628E-01  0.88815823543E+00  0.88000000000E+00 0.  1.
        -11    1    4    4    0    0  0.67628446302E-01  0.61470060334E-02  0.47542116855E-01  0.82896962721E-01  0.51100000000E-03 0.  1.
         11    1    4    4    0    0  0.45206121305E-01 -0.73372155146E-02  0.18726822648E-01  0.49481139259E-01  0.51100000000E-03 0. -1.
</event>
<event>
 8    1  0.1090774E+005  0.1043930E+01  0.7957747E-01            NaN
         13   -1    0    0    0    0  0.00000000000E+00  0.00000000000E+00  0.74505805969E-08  0.10566000000E+00  0.10566000000E+00 0. -1.
     999900   -1    0    0    0    0 -0.00000000000E+00 -0.00000000000E+00 -0.74505805969E-08  0.93827000000E+00  0.93827000000E+00 0.  1.
     999902    2    1    2    0    0 -0.23092955160E-01 -0.25377884765E-03  0.60967543776E-02  0.10200444522E+01  0.10197647596E+01 0.  0.
     999903    2    3    3    0    0  0.91257067605E-01  0.23490905721E-01 -0.83984031897E-01  0.12776967060E+00  0.19801415903E-01 0.  0.
         14    1    1    2    0    0  0.23092955160E-01  0.25377884765E-03 -0.60967543776E-02  0.23885547841E-01  0.00000000000E+00 0.  1.
     999901    1    3    3    0    0 -0.11435002277E+00 -0.23744684569E-01  0.90080786275E-01  0.89227478156E+00  0.88000000000E+00 0.  1.
        -11    1    4    4    0    0  0.19845949426E-01  0.13415950559E-01 -0.24680823637E-01  0.34398453663E-01  0.51100000000E-03 0. -1.
         11    1    4    4    0    0  0.71411118179E-01  0.10074955163E-01 -0.59303208260E-01  0.93371216936E-01  0.51100000000E-03 0.  1.
</event>
<event>
 8    1  0.1090774E+005  0.1043930E+01  0.7957747E-01            NaN
         13   -1    0    0    0    0  0.00000000000E+00  0.00000000000E+00  0.74505805969E-08  0.10566000000E+00  0.10566000000E+00 0.  1.
     999900   -1    0    0    0    0 -0.00000000000E+00 -0.00000000000E+00 -0.74505805969E-08  0.93827000000E+00  0.93827000000E+00 0.  1.
     999902    2    1    2    0    0  0.84878714184E-03  0.22514729116E-01  0.45601327892E-02  0.10209424321E+01  0.10206836049E+01 0.  0.
     999903    2    3    3    0    0 -0.53812535776E-01  0.10395039319E-01 -0.11711536742E+00  0.13080779372E+00  0.19769263087E-01 0.  0.
         14    1    1    2    0    0 -0.84878714184E-03 -0.22514729116E-01 -0.45601327892E-02  0.22987567898E-01  0.00000000000E+00 0. -1.
     999901    1    3    3    0    0  0.54661322917E-01  0.12119689797E-01  0.12167550021E+00  0.89013463839E+00  0.88000000000E+00 0. -1.
        -11    1    4    4    0    0 -0.45128579245E-01  0.46383312587E-02 -0.10724537028E+00  0.11644712684E+00  0.51100000000E-03 0.  1.
         11    1    4    4    0    0 -0.86839565301E-02  0.57567080603E-02 -0.98699971362E-02  0.14360666878E-01  0.51100000000E-03 0. -1.
</event>
<event>
 8    1  0.1090774E+005  0.1043930E+01  0.7957747E-01            NaN
         13   -1    0    0    0    0  0.00000000000E+00  0.00000000000E+00  0.74505805969E-08  0.10566000000E+00  0.10566000000E+00 0.  1.
     999900   -1    0    0    0    0 -0.00000000000E+00 -0.00000000000E+00 -0.74505805969E-08  0.93827000000E+00  0.93827000000E+00 0.  1.
     999902    2    1    2    0    0  0.23549825924E-01  0.33929764688E-02 -0.59319092460E-02  0.10194087003E+01  0.10191137347E+01 0.  0.
     999903    2    3    3    0    0 -0.12451070795E+00  0.13746949766E-01 -0.55355851190E-02  0.12697983284E+00  0.20033477580E-01 0.  0.
         14    1    1    2    0    0 -0.23549825924E-01 -0.33929764688E-02  0.59319092460E-02  0.24521299673E-01  0.00000000000E+00 0. -1.
     999901    1    3    3    0    0  0.14806053387E+00 -0.10353973297E-01 -0.39632412698E-03  0.89242886749E+00  0.88000000000E+00 0.  1.
        -11    1    4    4    0    0 -0.65309832197E-01  0.16571370443E-01 -0.65656417062E-02  0.67700467295E-01  0.51100000000E-03 0.  1.
         11    1    4    4    0    0 -0.59200875750E-01 -0.28244206774E-02  0.10300565872E-02  0.59279365544E-01  0.51100000000E-03 0. -1.
</event>
<event>
 8    1  0.1090774E+005  0.1043930E+01  0.7957747E-01            NaN
         13   -1    0    0    0    0  0.00000000000E+00  0.00000000000E+00  0.74505805969E-08  0.10566000000E+00  0.10566000000E+00 0.  1.
     999900   -1    0    0    0    0 -0.00000000000E+00 -0.00000000000E+00 -0.74505805969E-08  0.93827000000E+00  0.93827000000E+00 0.  1.
     999902    2    1    2    0    0 -0.14228189953E-01 -0.18266386488E-01  0.31419241350E-02  0.10205639145E+01  0.10202963930E+01 0.  0.
     999903    2    3    3    0    0 -0.11759207043E+00  0.23953258233E-02 -0.52814156414E-01  0.13250869037E+00  0.30587338731E-01 0.  0.
         14    1    1    2    0    0  0.14228189953E-01  0.18266386488E-01 -0.31419241350E-02  0.23366085507E-01  0.00000000000E+00 0. -1.
     999901    1    3    3    0    0  0.10336388048E+00 -0.20661712311E-01  0.55956080549E-01  0.88805522412E+00  0.88000000000E+00 0. -1.
        -11    1    4    4    0    0 -0.95001604761E-01 -0.10384196307E-01 -0.41446481172E-01  0.10416913344E+00  0.51100000000E-03 0.  1.
         11    1    4    4    0    0 -0.22590465673E-01  0.12779522131E-01 -0.11367675242E-01  0.28339556924E-01  0.51100000000E-03 0. -1.
</event>
<event>
 8    1  0.1090774E+005  0.1043930E+01  0.7957747E-01            NaN
         13   -1    0    0    0    0  0.00000000000E+00  0.00000000000E+00  0.74505805969E-08  0.10566000000E+00  0.10566000000E+00 0. -1.
     999900   -1    0    0    0    0 -0.00000000000E+00 -0.00000000000E+00 -0.74505805969E-08  0.93827000000E+00  0.93827000000E+00 0.  1.
     999902    2    1    2    0    0 -0.67121657545E-02 -0.21680411875E-01 -0.45853889073E-02  0.10207757516E+01  0.10205131140E+01 0.  0.
     999903    2    3    3    0    0  0.91247425227E-01  0.88342178732E-01 -0.44823557238E-02  0.12853079502E+00  0.19226039658E-01 0.  0.
         14    1    1    2    0    0  0.67121657545E-02  0.21680411875E-01  0.45853889073E-02  0.23154248414E-01  0.00000000000E+00 0.  1.
     999901    1    3    3    0    0 -0.97959590981E-01 -0.11002259061E+00 -0.10303318352E-03  0.89224495657E+00  0.88000000000E+00 0.  1.
        -11    1    4    4    0    0  0.29684326892E-02  0.67807301370E-02 -0.38053660789E-02  0.83385745674E-02  0.51100000000E-03 0.  1.
         11    1    4    4    0    0  0.88278992538E-01  0.81561448595E-01 -0.67698964487E-03  0.12019222045E+00  0.51100000000E-03 0. -1.
</event>
<event>
 8    1  0.1090774E+005  0.1043930E+01  0.7957747E-01            NaN
         13   -1    0    0    0    0  0.00000000000E+00  0.00000000000E+00  0.74505805969E-08  0.10566000000E+00  0.10566000000E+00 0.  1.
     999900   -1    0    0    0    0 -0.00000000000E+00 -0.00000000000E+00 -0.74505805969E-08  0.93827000000E+00  0.93827000000E+00 0. -1.
     999902    2    1    2    0    0 -0.59465833998E-02  0.21971648441E-01 -0.76104762273E-02  0.10199292805E+01  0.10196468519E+01 0.  0.
     999903    2    3    3    0    0  0.58756226517E-02  0.12411632272E+00 -0.43655855210E-01  0.13320916207E+00  0.19986561953E-01 0.  0.
         14    1    1    2    0    0  0.59465833998E-02 -0.21971648441E-01  0.76104762273E-02  0.24000719525E-01  0.00000000000E+00 0.  1.
     999901    1    3    3    0    0 -0.11822206051E-01 -0.10214467428E+00  0.36045378983E-01  0.88672011841E+00  0.88000000000E+00 0.  1.
        -11    1    4    4    0    0  0.53318973929E-02  0.32318192123E-01 -0.32852555113E-02  0.32923376143E-01  0.51100000000E-03 0. -1.
         11    1    4    4    0    0  0.54372525881E-03  0.91798130594E-01 -0.40370599699E-01  0.10028578593E+00  0.51100000000E-03 0.  1.
</event>
<event>
 8    1  0.1090774E+005  0.1043930E+01  0.7957747E-01            NaN
         13   -1    0    0    0    0  0.00000000000E+00  0.00000000000E+00  0.74505805969E-08  0.10566000000E+00  0.10566000000E+00 0.  1.
     999900   -1    0    0    0    0 -0.00000000000E+00 -0.00000000000E+00 -0.74505805969E-08  0.93827000000E+00  0.93827000000E+00 0. -1.
     999902    2    1    2    0    0 -0.21625368292E-01 -0.95653215598E-03  0.10112505217E-01  0.10200378618E+01  0.10197580130E+01 0.  0.
     999903    2    3    3    0    0 -0.96485736773E-03  0.47779329632E-01 -0.11852429474E+00  0.12911167670E+00  0.18385356305E-01 0.  0.
         14    1    1    2    0    0  0.21625368292E-01  0.95653215598E-03 -0.10112505217E-01  0.23892138232E-01  0.00000000000E+00 0. -1.
     999901    1    3    3    0    0 -0.20660510925E-01 -0.48735861788E-01  0.12863679996E+00  0.89092618507E+00  0.88000000000E+00 0.  1.
        -11    1    4    4    0    0  0.27199919691E-02  0.34186222288E-01 -0.61973588793E-01  0.70831370024E-01  0.51100000000E-03 0.  1.
         11    1    4    4    0    0 -0.36848493368E-02  0.13593107343E-01 -0.56550705949E-01  0.58280306676E-01  0.51100000000E-03 0. -1.
</event>
<event>
 8    1  0.1090774E+005  0.1043930E+01  0.7957747E-01            NaN
         13   -1    0    0    0    0  0.00000000000E+00  0.00000000000E+00  0.74505805969E-08  0.10566000000E+00  0.10566000000E+00 0. -1.
     999900   -1    0    0    0    0 -0.00000000000E+00 -0.00000000000E+00 -0.74505805969E-08  0.93827000000E+00  0.93827000000E+00 0. -1.
     999902    2    1    2    0    0 -0.94819332617E-03 -0.19847417327E-01  0.13777087626E-01  0.10197509349E+01  0.10194642427E+01 0.  0.
     999903    2    3    3    0    0  0.46830657815E-01  0.15190924532E-01  0.12033507965E+00  0.13134499747E+00  0.18630680787E-01 0.  0.
         14    1    1    2    0    0  0.94819332617E-03  0.19847417327E-01 -0.13777087626E-01  0.24179065089E-01  0.00000000000E+00 0.  1.
     999901    1    3    3    0    0 -0.47778851141E-01 -0.35038341860E-01 -0.10655799202E+00  0.88840593744E+00  0.88000000000E+00 0. -1.
        -11    1    4    4    0    0  0.47457422987E-01  0.17146119517E-01  0.11410433771E+00  0.12476480840E+00  0.51100000000E-03 0.  1.
         11    1    4    4    0    0 -0.62676517236E-03 -0.19551949851E-02  0.62307419437E-02  0.65801890687E-02  0.51100000000E-03 0. -1.
</event>
<event>
 8    1  0.1090774E+005  0.1043930E+01  0.7957747E-01            NaN
         13   -1    0    0    0    0  0.00000000000E+00  0.00000000000E+00  0.74505805969E-08  0.10566000000E+00  0.10566000000E+00 0. -1.
     999900   -1    0    0    0    0 -0.00000000000E+00 -0.00000000000E+00 -0.74505805969E-08  0.93827000000E+00  0.93827000000E+00 0.  1.
     999902    2    1    2    0    0  0.71829413205E-02  0.20692944569E-01 -0.87292771962E-02  0.10203504987E+01  0.10200780104E+01 0.  0.
     999903    2    3    3    0    0  0.19654258570E-01  0.10580108258E+00  0.74371989787E-01  0.13225999122E+00  0.19528273275E-01 0.  0.
         14    1    1    2    0    0 -0.71829413205E-02 -0.20692944569E-01  0.87292771962E-02  0.23579501295E-01  0.00000000000E+00 0. -1.
     999901    1    3    3    0    0 -0.12471317250E-01 -0.85108138014E-01 -0.83101266983E-01  0.88809050748E+00  0.88000000000E+00 0.  1.
        -11    1    4    4    0    0 -0.41993298901E-03  0.33260073921E-01  0.15492160679E-01  0.36697098311E-01  0.51100000000E-03 0. -1.
         11    1    4    4    0    0  0.20074191559E-01  0.72541008662E-01  0.58879829107E-01  0.95562892909E-01  0.51100000000E-03 0.  1.
</event>
<event>
 8    1  0.1090774E+005  0.1043930E+01  0.7957747E-01            NaN
         13   -1    0    0    0    0  0.00000000000E+00  0.00000000000E+00  0.74505805969E-08  0.10566000000E+00  0.10566000000E+00 0.  1.
     999900   -1    0    0    0    0 -0.00000000000E+00 -0.00000000000E+00 -0.74505805969E-08  0.93827000000E+00  0.93827000000E+00 0. -1.
     999902    2    1    2    0    0  0.39817241716E-02  0.21960610146E-01 -0.62728667699E-02  0.10207465709E+01  0.10204832633E+01 0.  0.
     999903    2    3    3    0    0  0.11762037018E+00  0.55763156715E-01  0.18484748462E-01  0.13245084680E+00  0.16045552779E-01 0.  0.
         14    1    1    2    0    0 -0.39817241716E-02 -0.21960610146E-01  0.62728667699E-02  0.23183429058E-01  0.00000000000E+00 0.  1.
     999901    1    3    3    0    0 -0.11363864601E+00 -0.33802546569E-01 -0.24757615232E-01  0.88829572414E+00  0.88000000000E+00 0.  1.
        -11    1    4    4    0    0  0.64181613156E-01  0.32706403031E-01  0.24435609124E-02  0.72077877171E-01  0.51100000000E-03 0. -1.
         11    1    4    4    0    0  0.53438757023E-01  0.23056753684E-01  0.16041187550E-01  0.60372969627E-01  0.51100000000E-03 0.  1.
</event>
<event>
 8    1  0.1090774E+005  0.1043930E+01  0.7957747E-01            NaN
         13   -1    0    0    0    0  0.00000000000E+00  0.00000000000E+00  0.74505805969E-08  0.10566000000E+00  0.10566000000E+00 0.  1.
     999900   -1    0    0    0    0 -0.00000000000E+00 -0.00000000000E+00 -0.74505805969E-08  0.93827000000E+00  0.93827000000E+00 0. -1.
     999902    2    1    2    0    0  0.14440032915E-01 -0.18598147873E-01  0.36556037483E-02  0.10201020942E+01  0.10198237659E+01 0.  0.
     999903    2    3    3    0    0 -0.23239192535E-01  0.99649589062E-01 -0.74302318828E-01  0.12798120050E+00  0.19704122138E-01 0.  0.
         14    1    1    2    0    0 -0.14440032915E-01  0.18598147873E-01 -0.36556037483E-02  0.23827905776E-01  0.00000000000E+00 0.  1.
     999901    1    3    3    0    0  0.37679225450E-01 -0.11824773693E+00  0.77957922576E-01  0.89212089372E+00  0.88000000000E+00 0. -1.
        -11    1    4    4    0    0 -0.17046573796E-01  0.75647015337E-01 -0.45230757175E-01  0.89772708120E-01  0.51100000000E-03 0. -1.
         11    1    4    4    0    0 -0.61926187396E-02  0.24002573724E-01 -0.29071561653E-01  0.38208492383E-01  0.51100000000E-03 0.  1.
</event>
<event>
 7    1  0.1090774E+005  0.1043930E+01  0.7957747E-01            NaN
         13   -1    0    0    0    0  0.00000000000E+00  0.00000000000E+00  0.74505805969E-08  0.10566000000E+00  0.10566000000E+00 0. -1.
     999900   -1    0    0    0    0 -0.00000000000E+00 -0.00000000000E+00 -0.74505805969E-08  0.93827000000E+00  0.93827000000E+00 0.  1.
     999902    2    1    2    0    0  0.21288929415E-01  0.88126837388E-02  0.21053649314E-02  0.10207931361E+01  0.10205308972E+01 0.  0.
         14    1    1    2    0    0 -0.21288929415E-01 -0.88126837388E-02 -0.21053649314E-02  0.23136863915E-01  0.00000000000E+00 0.  1.
     999901    1    3    3    0    0 -0.17675194320E-01  0.10780156383E+00  0.63605257134E-01  0.88903274315E+00  0.88000000000E+00 0. -1.
        -11    1    3    3    0    0  0.27147735499E-01 -0.84087470347E-01 -0.68167660662E-01  0.11160104522E+00  0.51100000000E-03 0. -1.
         11    1    3    3    0    0  0.11816388236E-01 -0.14901409741E-01  0.66677684598E-02  0.20159347719E-01  0.51100000000E-03 0.  1.
</event>
<event>
 8    1  0.1090774E+005  0.1043930E+01  0.7957747E-01            NaN
         13   -1    0    0    0    0  0.00000000000E+00  0.00000000000E+00  0.74505805969E-08  0.10566000000E+00  0.10566000000E+00 0. -1.
     999900   -1    0    0    0    0 -0.00000000000E+00 -0.00000000000E+00 -0.74505805969E-08  0.93827000000E+00  0.93827000000E+00 0. -1.
     999902    2    1    2    0    0  0.60265372789E-02  0.20553299436E-01  0.80931891990E-02  0.10210333413E+01  0.10207765804E+01 0.  0.
     999903    2    3    3    0    0 -0.29072949061E-01  0.11983774237E+00 -0.46147770085E-01  0.13309671279E+00  0.19462718386E-01 0.  0.
         14    1    1    2    0    0 -0.60265372789E-02 -0.20553299436E-01 -0.80931891990E-02  0.22896658723E-01  0.00000000000E+00 0.  1.
     999901    1    3    3    0    0  0.35099486339E-01 -0.99284442936E-01  0.54240959284E-01  0.88793662849E+00  0.88000000000E+00 0.  1.
        -11    1    4    4    0    0 -0.15670594819E-01  0.93441146861E-01 -0.30070260829E-01  0.99404714054E-01  0.51100000000E-03 0. -1.
         11    1    4    4    0    0 -0.13402354242E-01  0.26396595510E-01 -0.16077509256E-01  0.33691998733E-01  0.51100000000E-03 0.  1.
</event>
<event>
 7    1  0.1090774E+005  0.1043930E+01  0.7957747E-01            NaN
         13   -1    0    0    0    0  0.00000000000E+00  0.00000000000E+00  0.74505805969E-08  0.10566000000E+00  0.10566000000E+00 0.  1.
     999900   -1    0    0    0    0 -0.00000000000E+00 -0.00000000000E+00 -0.74505805969E-08  0.93827000000E+00  0.93827000000E+00 0.  1.
     999902    2    1    2    0    0 -0.14201097890E-01  0.11204568649E-01 -0.18039149651E-01  0.10183834844E+01  0.10180630122E+01 0.  0.
         14    1    1    2    0    0  0.14201097890E-01 -0.11204568649E-01  0.18039149651E-01  0.25546515614E-01  0.00000000000E+00 0. -1.
     999901    1    3    3    0    0 -0.85971905262E-01  0.37516187326E-01 -0.10627813105E+00  0.89134374623E+00  0.88000000000E+00 0.  1.
        -11    1    3    3    0    0  0.51465983355E-01 -0.35875273762E-01  0.82899528005E-01  0.10396333765E+00  0.51100000000E-03 0.  1.
         11    1    3    3    0    0  0.20304824017E-01  0.95636550853E-02  0.53394533892E-02  0.23076400508E-01  0.51100000000E-03 0. -1.
</event>
<event>
 8    1  0.1090774E+005  0.1043930E+01  0.7957747E-01            NaN
         13   -1    0    0    0    0  0.00000000000E+00  0.00000000000E+00  0.74505805969E-08  0.10566000000E+00  0.10566000000E+00 0. -1.
     999900   -1    0    0    0    0 -0.00000000000E+00 -0.00000000000E+00 -0.74505805969E-08  0.93827000000E+00  0.93827000000E+00 0.  1.
     999902    2    1    2    0    0 -0.12277178495E-01 -0.13988765789E-02  0.19080759461E-01  0.10211976145E+01  0.10209445659E+01 0.  0.
     999903    2    3    3    0    0  0.22734036473E-01  0.11152189208E+00  0.64041855527E-01  0.13215409179E+00  0.20233039576E-01 0.  0.
         14    1    1    2    0    0  0.12277178495E-01  0.13988765789E-02 -0.19080759461E-01  0.22732385469E-01  0.00000000000E+00 0.  1.
     999901    1    3    3    0    0 -0.35011214968E-01 -0.11292076866E+00 -0.44961096067E-01  0.88904352274E+00  0.88000000000E+00 0.  1.
        -11    1    4    4    0    0  0.76296169626E-02  0.82345775261E-01  0.47426097654E-01  0.95333801026E-01  0.51100000000E-03 0.  1.
         11    1    4    4    0    0  0.15104419510E-01  0.29176116818E-01  0.16615757873E-01  0.36820290765E-01  0.51100000000E-03 0. -1.
</event>
<event>
 8    1  0.1090774E+005  0.1043930E+01  0.7957747E-01            NaN
         13   -1    0    0    0    0  0.00000000000E+00  0.00000000000E+00  0.74505805969E-08  0.10566000000E+00  0.10566000000E+00 0. -1.
     999900   -1    0    0    0    0 -0.00000000000E+00 -0.00000000000E+00 -0.74505805969E-08  0.93827000000E+00  0.93827000000E+00 0. -1.
     999902    2    1    2    0    0 -0.15228742660E-01  0.16522092393E-01  0.78252538803E-02  0.10201365400E+01  0.10198590253E+01 0.  0.
     999903    2    3    3    0    0  0.10678820419E+00  0.34190782321E-01 -0.60521318449E-01  0.12891739082E+00  0.19599324464E-01 0.  0.
         14    1    1    2    0    0  0.15228742660E-01 -0.16522092393E-01 -0.78252538803E-02  0.23793459991E-01  0.00000000000E+00 0.  1.
     999901    1    3    3    0    0 -0.12201694685E+00 -0.17668689928E-01  0.68346572329E-01  0.89121914918E+00  0.88000000000E+00 0.  1.
        -11    1    4    4    0    0  0.67729636364E-01  0.18347694205E-01 -0.47730412500E-01  0.84866924788E-01  0.51100000000E-03 0. -1.
         11    1    4    4    0    0  0.39058567831E-01  0.15843088115E-01 -0.12790905949E-01  0.44050466037E-01  0.51100000000E-03 0.  1.
</event>
<event>
 8    1  0.1090774E+005  0.1043930E+01  0.7957747E-01            NaN
         13   -1    0    0    0    0  0.00000000000E+00  0.00000000000E+00  0.74505805969E-08  0.10566000000E+00  0.10566000000E+00 0.  1.
     999900   -1    0    0    0    0 -0.00000000000E+00 -0.00000000000E+00 -0.74505805969E-08  0.93827000000E+00  0.93827000000E+00 0. -1.
     999902    2    1    2    0    0 -0.13701533604E-01  0.18521541193E-01 -0.71542445405E-02  0.10198060964E+01  0.10195207264E+01 0.  0.
     999903    2    3    3    0    0 -0.10297019459E+00 -0.71145142788E-01 -0.30975116347E-01  0.13043753274E+00  0.19748412506E-01 0.  0.
         14    1    1    2    0    0  0.13701533604E-01 -0.18521541193E-01  0.71542445405E-02  0.24123903627E-01  0.00000000000E+00 0. -1.
     999901    1    3    3    0    0  0.89268660991E-01  0.89666683981E-01  0.23820871806E-01  0.88936856364E+00  0.88000000000E+00 0.  1.
        -11    1    4    4    0    0 -0.55102502985E-01 -0.26159075180E-01 -0.13862970781E-01  0.62554185546E-01  0.51100000000E-03 0. -1.
         11    1    4    4    0    0 -0.47867691610E-01 -0.44986067608E-01 -0.17112145566E-01  0.67883347190E-01  0.51100000000E-03 0.  1.
</event>
<event>
 8    1  0.1090774E+005  0.1043930E+01  0.7957747E-01            NaN
         13   -1    0    0    0    0  0.00000000000E+00  0.00000000000E+00  0.74505805969E-08  0.10566000000E+00  0.10566000000E+00 0. -1.
     999900   -1    0    0    0    0 -0.00000000000E+00 -0.00000000000E+00 -0.74505805969E-08  0.93827000000E+00  0.93827000000E+00 0. -1.
     999902    2    1    2    0    0 -0.16956948442E-01  0.17920780718E-02  0.16725532709E-01  0.10200450029E+01  0.10197653234E+01 0.  0.
     999903    2    3    3    0    0 -0.62008281117E-01 -0.11241831683E+00 -0.17484737238E-01  0.13086336818E+00  0.18346667482E-01 0.  0.
         14    1    1    2    0    0  0.16956948442E-01 -0.17920780718E-02 -0.16725532709E-01  0.23884997146E-01  0.00000000000E+00 0.  1.
     999901    1    3    3    0    0  0.45051332675E-01  0.11421039490E+00  0.34210269947E-01  0.88918163468E+00  0.88000000000E+00 0. -1.
        -11    1    4    4    0    0 -0.36748423984E-01 -0.47893698184E-01 -0.94372364824E-02  0.61102991289E-01  0.51100000000E-03 0.  1.
         11    1    4    4    0    0 -0.25259857134E-01 -0.64524618647E-01 -0.80475007560E-02  0.69760376887E-01  0.51100000000E-03 0. -1.
</event>
<event>
 8    1  0.1090774E+005  0.1043930E+01  0.7957747E-01            NaN
         13   -1    0    0    0    0  0.00000000000E+00  0.00000000000E+00  0.74505805969E-08  0.10566000000E+00  0.10566000000E+00 0. -1.
     999900   -1    0    0    0    0 -0.00000000000E+00 -0.00000000000E+00 -0.74505805969E-08  0.93827000000E+00  0.93827000000E+00 0.  1.
     999902    2    1    2    0    0 -0.19421277171E-01 -0.10901908526E-02 -0.21994074161E-01  0.10145682252E+01  0.10141432688E+01 0.  0.
     999903    2    3    3    0    0 -0.28091300572E-01 -0.12098729073E+00 -0.99313955766E-02  0.12631376158E+00  0.20724093738E-01 0.  0.
         14    1    1    2    0    0  0.19421277171E-01  0.10901908526E-02  0.21994074161E-01  0.29361774831E-01  0.00000000000E+00 0. -1.
     999901    1    3    3    0    0  0.86700234008E-02  0.11989709988E+00 -0.12062678584E-01  0.88825446359E+00  0.88000000000E+00 0. -1.
        -11    1    4    4    0    0 -0.20608583872E-01 -0.10741280199E+00 -0.14038642844E-01  0.11027043291E+00  0.51100000000E-03 0.  1.
         11    1    4    4    0    0 -0.74827166999E-02 -0.13574488738E-01  0.41072472670E-02  0.16043328670E-01  0.51100000000E-03 0. -1.
</event>
<event>
 8    1  0.1090774E+005  0.1043930E+01  0.7957747E-01            NaN
         13   -1    0    0    0    0  0.00000000000E+00  0.00000000000E+00  0.74505805969E-08  0.10566000000E+00  0.10566000000E+00 0. -1.
     999900   -1    0    0    0    0 -0.00000000000E+00 -0.00000000000E+00 -0.74505805969E-08  0.93827000000E+00  0.93827000000E+00 0.  1.
     999902    2    1    2    0    0 -0.22951312154E-01 -0.13439640575E-01  0.58172665684E-02  0.10167045109E+01  0.10163399211E+01 0.  0.
     999903    2    3    3    0    0 -0.75563736145E-02  0.45268865493E-01 -0.11537875066E+00  0.12632696880E+00  0.23235274404E-01 0.  0.
         14    1    1    2    0    0  0.22951312154E-01  0.13439640575E-01 -0.58172665684E-02  0.27225489137E-01  0.00000000000E+00 0.  1.
     999901    1    3    3    0    0 -0.15394938540E-01 -0.58708506068E-01  0.12119601723E+00  0.89037754206E+00  0.88000000000E+00 0. -1.
        -11    1    4    4    0    0 -0.12959177841E-01  0.25198857279E-01 -0.84290051551E-01  0.88926917241E-01  0.51100000000E-03 0. -1.
         11    1    4    4    0    0  0.54028042268E-02  0.20070008213E-01 -0.31088699112E-01  0.37400051560E-01  0.51100000000E-03 0.  1.
</event>
<event>
 8    1  0.1090774E+005  0.1043930E+01  0.7957747E-01            NaN
         13   -1    0    0    0    0  0.00000000000E+00  0.00000000000E+00  0.74505805969E-08  0.10566000000E+00  0.10566000000E+00 0. -1.
     999900   -1    0    0    0    0 -0.00000000000E+00 -0.00000000000E+00 -0.74505805969E-08  0.93827000000E+00  0.93827000000E+00 0. -1.
     999902    2    1    2    0    0 -0.15650307072E-01 -0.14652939872E-01  0.14841727622E-01  0.10178547697E+01  0.10175207194E+01 0.  0.
     999903    2    3    3    0    0  0.56320744560E-01 -0.69098802791E-01  0.92364989738E-01  0.12984911628E+00  0.19566063875E-01 0.  0.
         14    1    1    2    0    0  0.15650307072E-01  0.14652939872E-01 -0.14841727622E-01  0.26075230338E-01  0.00000000000E+00 0.  1.
     999901    1    3    3    0    0 -0.71971051633E-01  0.54445862919E-01 -0.77523262117E-01  0.88800565338E+00  0.88000000000E+00 0. -1.
        -11    1    4    4    0    0  0.26730194163E-01 -0.20492062755E-01  0.26905265237E-01  0.43111278505E-01  0.51100000000E-03 0.  1.
         11    1    4    4    0    0  0.29590550398E-01 -0.48606740036E-01  0.65459724501E-01  0.86737837779E-01  0.51100000000E-03 0. -1.
</event>
<event>
 8    1  0.1090774E+005  0.1043930E+01  0.7957747E-01            NaN
         13   -1    0    0    0    0  0.00000000000E+00  0.00000000000E+00  0.74505805969E-08  0.10566000000E+00  0.10566000000E+00 0. -1.
     999900   -1    0    0    0    0 -0.00000000000E+00 -0.00000000000E+00 -0.74505805969E-08  0.93827000000E+00  0.93827000000E+00 0. -1.
     999902    2    1    2    0    0  0.17832371723E-01 -0.41919826290E-02  0.14926042110E-01  0.10203005071E+01  0.10200268486E+01 0.  0.
     999903    2    3    3    0    0  0.18678872717E-01 -0.82376744896E-01 -0.96622545703E-01  0.12981936694E+00  0.19553089493E-01 0.  0.
         14    1    1    2    0    0 -0.17832371723E-01  0.41919826290E-02 -0.14926042110E-01  0.23629492857E-01  0.00000000000E+00 0. -1.
     999901    1    3    3    0    0 -0.84650099376E-03  0.78184762267E-01  0.11154858781E+00  0.89048114020E+00  0.88000000000E+00 0.  1.
        -11    1    4    4    0    0  0.12358946292E-01 -0.19527217201E-01 -0.31744392272E-01  0.39268604848E-01  0.51100000000E-03 0. -1.
         11    1    4    4    0    0  0.63199264246E-02 -0.62849527695E-01 -0.64878153431E-01  0.90550762091E-01  0.51100000000E-03 0.  1.
</event>
<event>
 8    1  0.1090774E+005  0.1043930E+01  0.7957747E-01            NaN
         13   -1    0    0    0    0  0.00000000000E+00  0.00000000000E+00  0.74505805969E-08  0.10566000000E+00  0.10566000000E+00 0.  1.
     999900   -1    0    0    0    0 -0.00000000000E+00 -0.00000000000E+00 -0.74505805969E-08  0.93827000000E+00  0.93827000000E+00 0.  1.
     999902    2    1    2    0    0  0.23064607201E-02 -0.96646897024E-02  0.24037221577E-01  0.10179201171E+01  0.10175877607E+01 0.  0.
     999903    2    3    3    0    0  0.11703970083E+00 -0.50930783531E-01  0.33401784944E-02  0.12927228218E+00  0.20197273735E-01 0.  0.
         14    1    1    2    0    0 -0.23064607201E-02  0.96646897024E-02 -0.24037221577E-01  0.26009882915E-01  0.00000000000E+00 0. -1.
     999901    1    3    3    0    0 -0.11473324011E+00  0.41266093828E-01  0.20697043083E-01  0.88864783490E+00  0.88000000000E+00 0.  1.
        -11    1    4    4    0    0  0.50008179288E-01 -0.30142962003E-01 -0.49485916901E-02  0.58601756243E-01  0.51100000000E-03 0.  1.
         11    1    4    4    0    0  0.67031521544E-01 -0.20787821527E-01  0.82887701846E-02  0.70670525939E-01  0.51100000000E-03 0. -1.
</event>
<event>
 8    1  0.1090774E+005  0.1043930E+01  0.7957747E-01            NaN
         13   -1    0    0    0    0  0.00000000000E+00  0.00000000000E+00  0.74505805969E-08  0.10566000000E+00  0.10566000000E+00 0. -1.
     999900   -1    0    0    0    0 -0.00000000000E+00 -0.00000000000E+00 -0.74505805969E-08  0.93827000000E+00  0.93827000000E+00 0.  1.
     999902    2    1    2    0    0 -0.21524001271E-01 -0.10308487534E-01  0.48499677523E-02  0.10195769769E+01  0.10192860943E+01 0.  0.
     999903    2    3    3    0    0  0.52338368733E-01 -0.84811490236E-02  0.11639592020E+00  0.12946378840E+00  0.20040647155E-01 0.  0.
         14    1    1    2    0    0  0.21524001271E-01  0.10308487534E-01 -0.48499677523E-02  0.24353023080E-01  0.00000000000E+00 0.  1.
     999901    1    3    3    0    0 -0.73862370004E-01 -0.18273385104E-02 -0.11154595244E+00  0.89011318852E+00  0.88000000000E+00 0.  1.
        -11    1    4    4    0    0  0.28941821231E-01  0.14279798559E-02  0.43547678970E-01  0.52309937940E-01  0.51100000000E-03 0.  1.
         11    1    4    4    0    0  0.23396547502E-01 -0.99091288795E-02  0.72848241226E-01  0.77153850460E-01  0.51100000000E-03 0. -1.
</event>
<event>
 8    1  0.1090774E+005  0.1043930E+01  0.7957747E-01            NaN
         13   -1    0    0    0    0  0.00000000000E+00  0.00000000000E+00  0.74505805969E-08  0.10566000000E+00  0.10566000000E+00 0.  1.
     999900   -1    0    0    0    0 -0.00000000000E+00 -0.00000000000E+00 -0.74505805969E-08  0.93827000000E+00  0.93827000000E+00 0.  1.
     999902    2    1    2    0    0  0.16062318118E-01 -0.16398504556E-01 -0.52812271864E-02  0.10203757992E+01  0.10201039022E+01 0.  0.
     999903    2    3    3    0    0  0.53192377806E-01  0.10741259726E+00  0.44320768080E-01  0.12955135622E+00  0.21268011415E-01 0.  0.
         14    1    1    2    0    0 -0.16062318118E-01  0.16398504556E-01  0.52812271864E-02  0.23554200806E-01  0.00000000000E+00 0.  1.
     999901    1    3    3    0    0 -0.37130059688E-01 -0.12381110181E+00 -0.49601995267E-01  0.89082444297E+00  0.88000000000E+00 0.  1.
        -11    1    4    4    0    0  0.25805509885E-01  0.59717699067E-01  0.34642275015E-01  0.73705334010E-01  0.51100000000E-03 0. -1.
         11    1    4    4    0    0  0.27386867921E-01  0.47694898189E-01  0.96784930650E-02  0.55846022211E-01  0.51100000000E-03 0.  1.
</event>
<event>
 8    1  0.1090774E+005  0.1043930E+01  0.7957747E-01            NaN
         13   -1    0    0    0    0  0.00000000000E+00  0.00000000000E+00  0.74505805969E-08  0.10566000000E+00  0.10566000000E+00 0.  1.
     999900   -1    0    0    0    0 -0.00000000000E+00 -0.00000000000E+00 -0.74505805969E-08  0.93827000000E+00  0.93827000000E+00 0. -1.
     999902    2    1    2    0    0 -0.18816721039E-01  0.29274327751E-02  0.11153050918E-01  0.10218612574E+01  0.10216229246E+01 0.  0.
     999903    2    3    3    0    0  0.10184606887E+00  0.36589084081E-01 -0.67808152196E-01  0.12948942506E+00  0.21405206845E-01 0.  0.
         14    1    1    2    0    0  0.18816721039E-01 -0.29274327751E-02 -0.11153050918E-01  0.22068742558E-01  0.00000000000E+00 0. -1.
     999901    1    3    3    0    0 -0.12066278990E+00 -0.33661651306E-01  0.78961203114E-01  0.89237183238E+00  0.88000000000E+00 0.  1.
        -11    1    4    4    0    0  0.70590625935E-01  0.30096734102E-01 -0.57660725604E-01  0.95988907024E-01  0.51100000000E-03 0. -1.
         11    1    4    4    0    0  0.31255442930E-01  0.64923499783E-02 -0.10147426592E-01  0.33500518033E-01  0.51100000000E-03 0.  1.
</event>
<event>
 8    1  0.1090774E+005  0.1043930E+01  0.7957747E-01            NaN
         13   -1    0    0    0    0  0.00000000000E+00  0.00000000000E+00  0.74505805969E-08  0.10566000000E+00  0.10566000000E+00 0. -1.
     999900   -1    0    0    0    0 -0.00000000000E+00 -0.00000000000E+00 -0.74505805969E-08  0.93827000000E+00  0.93827000000E+00 0.  1.
     999902    2    1    2    0    0  0.54613272535E-02  0.23164195404E-01  0.19358155456E-02  0.10200521143E+01  0.10197726033E+01 0.  0.
     999903    2    3    3    0    0  0.12286337561E+00  0.40080002986E-01 -0.14947626032E-01  0.13193363340E+00  0.21937100843E-01 0.  0.
         14    1    1    2    0    0 -0.54613272535E-02 -0.23164195404E-01 -0.19358155456E-02  0.23877885709E-01  0.00000000000E+00 0.  1.
     999901    1    3    3    0    0 -0.11740204835E+00 -0.16915807582E-01  0.16883441577E-01  0.88811848089E+00  0.88000000000E+00 0.  1.
        -11    1    4    4    0    0  0.50427565474E-01  0.81011861104E-02  0.13362532257E-02  0.51094180390E-01  0.51100000000E-03 0. -1.
         11    1    4    4    0    0  0.72435810131E-01  0.31978816875E-01 -0.16283879258E-01  0.80839453009E-01  0.51100000000E-03 0.  1.
</event>
<event>
 8    1  0.1090774E+005  0.1043930E+01  0.7957747E-01            NaN
         13   -1    0    0    0    0  0.00000000000E+00  0.00000000000E+00  0.74505805969E-08  0.10566000000E+00  0.10566000000E+00 0.  1.
     999900   -1    0    0    0    0 -0.00000000000E+00 -0.00000000000E+00 -0.74505805969E-08  0.93827000000E+00  0.93827000000E+00 0.  1.
     999902    2    1    2    0    0  0.13828781658E-01  0.24492647822E-01 -0.40583788320E-02  0.10155117763E+01  0.10151140686E+01 0.  0.
     999903    2    3    3    0    0 -0.11083704551E+00  0.43716743565E-01 -0.36074648685E-01  0.12594099449E+00  0.19072217708E-01 0.  0.
         14    1    1    2    0    0 -0.13828781658E-01 -0.24492647822E-01  0.40583788320E-02  0.28418223699E-01  0.00000000000E+00 0. -1.
     999901    1    3    3    0    0  0.12466582717E+00 -0.19224095743E-01  0.32016269853E-01  0.88957078181E+00  0.88000000000E+00 0.  1.
        -11    1    4    4    0    0 -0.69476541758E-01  0.37016681394E-01 -0.22056707084E-01  0.81755635918E-01  0.51100000000E-03 0. -1.
         11    1    4    4    0    0 -0.41360503756E-01  0.67000621712E-02 -0.14017941601E-01  0.44185358568E-01  0.51100000000E-03 0.  1.
</event>
<event>
 8    1  0.1090774E+005  0.1043930E+01  0.7957747E-01            NaN
         13   -1    0    0    0    0  0.00000000000E+00  0.00000000000E+00  0.74505805969E-08  0.10566000000E+00  0.10566000000E+00 0. -1.
     999900   -1    0    0    0    0 -0.00000000000E+00 -0.00000000000E+00 -0.74505805969E-08  0.93827000000E+00  0.93827000000E+00 0. -1.
     999902    2    1    2    0    0 -0.29783557339E-02 -0.24166712444E-01 -0.86491965926E-05  0.10195804483E+01  0.10192896497E+01 0.  0.
     999903    2    3    3    0    0  0.63188870816E-01 -0.10217544449E+00  0.51624122241E-01  0.13215191189E+00  0.19142177726E-01 0.  0.
         14    1    1    2    0    0  0.29783557339E-02  0.24166712444E-01  0.86491965926E-05  0.24349551701E-01  0.00000000000E+00 0. -1.
     999901    1    3    3    0    0 -0.66167226550E-01  0.78008732044E-01 -0.51632771438E-01  0.88742853641E+00  0.88000000000E+00 0.  1.
        -11    1    4    4    0    0  0.49402174399E-02 -0.11413255518E-01 -0.31212181480E-03  0.12450971484E-01  0.51100000000E-03 0. -1.
         11    1    4    4    0    0  0.58248653377E-01 -0.90762188970E-01  0.51936244056E-01  0.11970094041E+00  0.51100000000E-03 0.  1.
</event>
<event>
 8    1  0.1090774E+005  0.1043930E+01  0.7957747E-01            NaN
         13   -1    0    0    0    0  0.00000000000E+00  0.00000000000E+00  0.74505805969E-08  0.10566000000E+00  0.10566000000E+00 0.  1.
     999900   -1    0    0    0    0 -0.00000000000E+00 -0.00000000000E+00 -0.74505805969E-08  0.93827000000E+00  0.93827000000E+00 0.  1.
     999902    2    1    2    0    0 -0.74893479575E-02  0.15259076254E-01 -0.16774687354E-01  0.10200486291E+01  0.10197690355E+01 0.  0.
     999903    2    3    3    0    0  0.77741229214E-01  0.93509319499E-01  0.43084282315E-01  0.13045858412E+00  0.19377699419E-01 0.  0.
         14    1    1    2    0    0  0.74893479575E-02 -0.15259076254E-01  0.16774687354E-01  0.23881370915E-01  0.00000000000E+00 0.  1.
     999901    1    3    3    0    0 -0.85230577172E-01 -0.78250243245E-01 -0.59858969669E-01  0.88959004497E+00  0.88000000000E+00 0.  1.
        -11    1    4    4    0    0  0.77326245583E-01  0.91626462569E-01  0.44632224541E-01  0.12793378556E+00  0.51100000000E-03 0.  1.
         11    1    4    4    0    0  0.41498363164E-03  0.18828569297E-02 -0.15479422264E-02  0.25247985600E-02  0.51100000000E-03 0. -1.
</event>
<event>
 8    1  0.1090774E+005  0.1043930E+01  0.7957747E-01            NaN
         13   -1    0    0    0    0  0.00000000000E+00  0.00000000000E+00  0.74505805969E-08  0.10566000000E+00  0.10566000000E+00 0. -1.
     999900   -1    0    0    0    0 -0.00000000000E+00 -0.00000000000E+00 -0.74505805969E-08  0.93827000000E+00  0.93827000000E+00 0.  1.
     999902    2    1    2    0    0 -0.20754254949E-01  0.33362883317E-02 -0.11305331403E-01  0.10200620207E+01  0.10197827443E+01 0.  0.
     999903    2    3    3    0    0  0.55019282940E-01  0.20694847207E-01  0.11221421299E+00  0.12804182671E+00  0.18635492849E-01 0.  0.
         14    1    1    2    0    0  0.20754254949E-01 -0.33362883317E-02  0.11305331403E-01  0.23867979313E-01  0.00000000000E+00 0. -1.
     999901    1    3    3    0    0 -0.75773537890E-01 -0.17358558875E-01 -0.12351954440E+00  0.89202019397E+00  0.88000000000E+00 0.  1.
        -11    1    4    4    0    0  0.37494266171E-01  0.71516700335E-02  0.83175398278E-01  0.91517071520E-01  0.51100000000E-03 0. -1.
         11    1    4    4    0    0  0.17525016769E-01  0.13543177173E-01  0.29038814717E-01  0.36524755192E-01  0.51100000000E-03 0.  1.
</event>
<event>
 8    1  0.1090774E+005  0.1043930E+01  0.7957747E-01            NaN
         13   -1    0    0    0    0  0.00000000000E+00  0.00000000000E+00  0.74505805969E-08  0.10566000000E+00  0.10566000000E+00 0.  1.
     999900   -1    0    0    0    0 -0.00000000000E+00 -0.00000000000E+00 -0.74505805969E-08  0.93827000000E+00  0.93827000000E+00 0. -1.
     999902    2    1    2    0    0 -0.17516532647E-01  0.11162451575E-01  0.11436845524E-01  0.10202185961E+01  0.10199430146E+01 0.  0.
     999903    2    3    3    0    0 -0.14439972570E-01 -0.39807552053E-01 -0.12132984067E+00  0.12879591324E+00  0.86199200467E-02 0.  0.
         14    1    1    2    0    0  0.17516532647E-01 -0.11162451575E-01 -0.11436845524E-01  0.23711403938E-01  0.00000000000E+00 0. -1.
     999901    1    3    3    0    0 -0.30765600769E-02  0.50970003628E-01  0.13276668619E+00  0.89142268282E+00  0.88000000000E+00 0.  1.
        -11    1    4    4    0    0 -0.59781160312E-02 -0.27943122739E-01 -0.77296354162E-01  0.82410821300E-01  0.51100000000E-03 0. -1.
         11    1    4    4    0    0 -0.84618565390E-02 -0.11864429314E-01 -0.44033486507E-01  0.46385091937E-01  0.51100000000E-03 0.  1.
</event>
<event>
 8    1  0.1090774E+005  0.1043930E+01  0.7957747E-01            NaN
         13   -1    0    0    0    0  0.00000000000E+00  0.00000000000E+00  0.74505805969E-08  0.10566000000E+00  0.10566000000E+00 0.  1.
     999900   -1    0    0    0    0 -0.00000000000E+00 -0.00000000000E+00 -0.74505805969E-08  0.93827000000E+00  0.93827000000E+00 0.  1.
     999902    2    1    2    0    0 -0.49277396552E-02 -0.14738605605E-02  0.23213181811E-01  0.10201538209E+01  0.10198767139E+01 0.  0.
     999903    2    3    3    0    0 -0.57085352434E-01 -0.11601758151E-01  0.11840174887E+00  0.13342733873E+00  0.19762143845E-01 0.  0.
         14    1    1    2    0    0  0.49277396552E-02  0.14738605605E-02 -0.23213181811E-01  0.23776179106E-01  0.00000000000E+00 0. -1.
     999901    1    3    3    0    0  0.52157612779E-01  0.10127897591E-01 -0.95188567058E-01  0.88672648217E+00  0.88000000000E+00 0.  1.
        -11    1    4    4    0    0 -0.34525828260E-01 -0.12068903094E-01  0.90003651129E-01  0.97152506794E-01  0.51100000000E-03 0. -1.
         11    1    4    4    0    0 -0.22559524174E-01  0.46714494293E-03  0.28398097741E-01  0.36274831931E-01  0.51100000000E-03 0.  1.
</event>
<event>
 8    1  0.1090774E+005  0.1043930E+01  0.7957747E-01            NaN
         13   -1    0    0    0    0  0.00000000000E+00  0.00000000000E+00  0.74505805969E-08  0.10566000000E+00  0.10566000000E+00 0. -1.
     999900   -1    0    0    0    0 -0.00000000000E+00 -0.00000000000E+00 -0.74505805969E-08  0.93827000000E+00  0.93827000000E+00 0. -1.
     999902    2    1    2    0    0  0.11312032564E-01  0.19044687522E-02 -0.20780800566E-01  0.10201933036E+01  0.10199171270E+01 0.  0.
     999903    2    3    3    0    0  0.96334568793E-01  0.10430673859E-01 -0.89389289205E-01  0.13339645399E+00  0.20372059541E-01 0.  0.
         14    1    1    2    0    0 -0.11312032564E-01 -0.19044687522E-02  0.20780800566E-01  0.23736696361E-01  0.00000000000E+00 0. -1.
     999901    1    3    3    0    0 -0.85022536230E-01 -0.85262051064E-02  0.68608488639E-01  0.88679684965E+00  0.88000000000E+00 0.  1.
        -11    1    4    4    0    0  0.46444345080E-01 -0.49288419127E-02 -0.39157594063E-01  0.60950381182E-01  0.51100000000E-03 0. -1.
         11    1    4    4    0    0  0.49890223713E-01  0.15359515771E-01 -0.50231695142E-01  0.72446072804E-01  0.51100000000E-03 0.  1.
</event>
<event>
 8    1  0.1090774E+005  0.1043930E+01  0.7957747E-01            NaN
         13   -1    0    0    0    0  0.00000000000E+00  0.00000000000E+00  0.74505805969E-08  0.10566000000E+00  0.10566000000E+00 0. -1.
     999900   -1    0    0    0    0 -0.00000000000E+00 -0.00000000000E+00 -0.74505805969E-08  0.93827000000E+00  0.93827000000E+00 0. -1.
     999902    2    1    2    0    0  0.18861442452E-01  0.12428480102E-01  0.41264890529E-02  0.10209680959E+01  0.10207098529E+01 0.  0.
     999903    2    3    3    0    0  0.84302052659E-01 -0.97863533545E-01  0.15563048562E-01  0.13159888310E+00  0.19797734034E-01 0.  0.
         14    1    1    2    0    0 -0.18861442452E-01 -0.12428480102E-01 -0.41264890529E-02  0.22961904122E-01  0.00000000000E+00 0.  1.
     999901    1    3    3    0    0 -0.65440610207E-01  0.11029201365E+00 -0.11436559509E-01  0.88936921278E+00  0.88000000000E+00 0.  1.
        -11    1    4    4    0    0  0.64730626502E-01 -0.76794178902E-01  0.20249078454E-01  0.10245821695E+00  0.51100000000E-03 0. -1.
         11    1    4    4    0    0  0.19571426157E-01 -0.21069354643E-01 -0.46860298919E-02  0.29140666156E-01  0.51100000000E-03 0.  1.
</event>
<event>
 8    1  0.1090774E+005  0.1043930E+01  0.7957747E-01            NaN
         13   -1    0    0    0    0  0.00000000000E+00  0.00000000000E+00  0.74505805969E-08  0.10566000000E+00  0.10566000000E+00 0.  1.
     999900   -1    0    0    0    0 -0.00000000000E+00 -0.00000000000E+00 -0.74505805969E-08  0.93827000000E+00  0.93827000000E+00 0. -1.
     999902    2    1    2    0    0  0.65918542341E-02 -0.32004880858E-02 -0.22081845404E-01  0.10206640686E+01  0.10203988619E+01 0.  0.
     999903    2    3    3    0    0 -0.46831809958E-01  0.76974766465E-01 -0.94971172286E-01  0.13241015599E+00  0.19864358737E-01 0.  0.
         14    1    1    2    0    0 -0.65918542341E-02  0.32004880858E-02  0.22081845404E-01  0.23265931373E-01  0.00000000000E+00 0.  1.
     999901    1    3    3    0    0  0.53423664193E-01 -0.80175254551E-01  0.72889326882E-01  0.88825391263E+00  0.88000000000E+00 0.  1.
        -11    1    4    4    0    0 -0.27849528656E-01  0.32282151186E-01 -0.34449230303E-01  0.54815546345E-01  0.51100000000E-03 0.  1.
         11    1    4    4    0    0 -0.18982281302E-01  0.44692615279E-01 -0.60521941983E-01  0.77594609647E-01  0.51100000000E-03 0. -1.
</event>
<event>
 8    1  0.1090774E+005  0.1043930E+01  0.7957747E-01            NaN
         13   -1    0    0    0    0  0.00000000000E+00  0.00000000000E+00  0.74505805969E-08  0.10566000000E+00  0.10566000000E+00 0.  1.
     999900   -1    0    0    0    0 -0.00000000000E+00 -0.00000000000E+00 -0.74505805969E-08  0.93827000000E+00  0.93827000000E+00 0.  1.
     999902    2    1    2    0    0  0.18516454317E-01 -0.90405924519E-02  0.11390801545E-01  0.10203855367E+01  0.10201138671E+01 0.  0.
     999903    2    3    3    0    0  0.99114183798E-01  0.74842017179E-01 -0.37638210125E-01  0.13137702708E+00  0.20453347315E-01 0.  0.
         14    1    1    2    0    0 -0.18516454317E-01  0.90405924519E-02 -0.11390801545E-01  0.23544463302E-01  0.00000000000E+00 0. -1.
     999901    1    3    3    0    0 -0.80597729481E-01 -0.83882609631E-01  0.49029011670E-01  0.88900850962E+00  0.88000000000E+00 0. -1.
        -11    1    4    4    0    0  0.58745300588E-01  0.35322750696E-01 -0.13130267808E-01  0.69795215535E-01  0.51100000000E-03 0.  1.
         11    1    4    4    0    0  0.40368883210E-01  0.39519266483E-01 -0.24507942316E-01  0.61581811540E-01  0.51100000000E-03 0. -1.
</event>
<event>
 8    1  0.1090774E+005  0.1043930E+01  0.7957747E-01            NaN
         13   -1    0    0    0    0  0.00000000000E+00  0.00000000000E+00  0.74505805969E-08  0.10566000000E+00  0.10566000000E+00 0. -1.
     999900   -1    0    0    0    0 -0.00000000000E+00 -0.00000000000E+00 -0.74505805969E-08  0.93827000000E+00  0.93827000000E+00 0. -1.
     999902    2    1    2    0    0 -0.54122874482E-02 -0.14125182918E-01 -0.15971972741E-01  0.10219318737E+01  0.10216950802E+01 0.  0.
     999903    2    3    3    0    0 -0.74347639973E-01  0.67032121130E-01 -0.85331099927E-01  0.13280349187E+00  0.18289177299E-01 0.  0.
         14    1    1    2    0    0  0.54122874482E-02  0.14125182918E-01  0.15971972741E-01  0.21998126310E-01  0.00000000000E+00 0.  1.
     999901    1    3    3    0    0  0.68935352525E-01 -0.81157304048E-01  0.69359127186E-01  0.88912838182E+00  0.88000000000E+00 0.  1.
        -11    1    4    4    0    0 -0.52798034084E-01  0.35792157392E-01 -0.54697752750E-01  0.84028663031E-01  0.51100000000E-03 0. -1.
         11    1    4    4    0    0 -0.21549605889E-01  0.31239963738E-01 -0.30633347177E-01  0.48774828843E-01  0.51100000000E-03 0.  1.
</event>
<event>
 8    1  0.1090774E+005  0.1043930E+01  0.7957747E-01            NaN
         13   -1    0    0    0    0  0.00000000000E+00  0.00000000000E+00  0.74505805969E-08  0.10566000000E+00  0.10566000000E+00 0.  1.
     999900   -1    0    0    0    0 -0.00000000000E+00 -0.00000000000E+00 -0.74505805969E-08  0.93827000000E+00  0.93827000000E+00 0. -1.
     999902    2    1    2    0    0  0.17288563121E-01  0.15937873664E-01  0.56504480186E-02  0.10197465802E+01  0.10194597834E+01 0.  0.
     999903    2    3    3    0    0  0.12627713226E+00 -0.31513714160E-01  0.41503226777E-02  0.13175310510E+00  0.20065572841E-01 0.  0.
         14    1    1    2    0    0 -0.17288563121E-01 -0.15937873664E-01 -0.56504480186E-02  0.24183419826E-01  0.00000000000E+00 0. -1.
     999901    1    3    3    0    0 -0.10898856914E+00  0.47451587823E-01  0.15001253408E-02  0.88799347507E+00  0.88000000000E+00 0.  1.
        -11    1    4    4    0    0  0.90509742475E-01 -0.31477805017E-01  0.51642096364E-02  0.95967681403E-01  0.51100000000E-03 0.  1.
         11    1    4    4    0    0  0.35767389788E-01 -0.35909142502E-04 -0.10138869587E-02  0.35785423701E-01  0.51100000000E-03 0. -1.
</event>
<event>
 8    1  0.1090774E+005  0.1043930E+01  0.7957747E-01            NaN
         13   -1    0    0    0    0  0.00000000000E+00  0.00000000000E+00  0.74505805969E-08  0.10566000000E+00  0.10566000000E+00 0.  1.
     999900   -1    0    0    0    0 -0.00000000000E+00 -0.00000000000E+00 -0.74505805969E-08  0.93827000000E+00  0.93827000000E+00 0.  1.
     999902    2    1    2    0    0 -0.17480538284E-01 -0.14723313414E-01  0.12218986349E-01  0.10180138119E+01  0.10176838765E+01 0.  0.
     999903    2    3    3    0    0 -0.26294944591E-01 -0.76227024612E-01 -0.98129590344E-01  0.12894845515E+00  0.22277885724E-01 0.  0.
         14    1    1    2    0    0  0.17480538284E-01  0.14723313414E-01 -0.12218986349E-01  0.25916188069E-01  0.00000000000E+00 0. -1.
     999901    1    3    3    0    0  0.88144063068E-02  0.61503711197E-01  0.11034857669E+00  0.88906535678E+00  0.88000000000E+00 0. -1.
        -11    1    4    4    0    0 -0.16479136131E-01 -0.32738304052E-01 -0.59857654039E-01  0.70189446129E-01  0.51100000000E-03 0. -1.
         11    1    4    4    0    0 -0.98158084601E-02 -0.43488720559E-01 -0.38271936305E-01  0.58759009021E-01  0.51100000000E-03 0.  1.
</event>
<event>
 8    1  0.1090774E+005  0.1043930E+01  0.7957747E-01            NaN
         13   -1    0    0    0    0  0.00000000000E+00  0.00000000000E+00  0.74505805969E-08  0.10566000000E+00  0.10566000000E+00 0. -1.
     999900   -1    0    0    0    0 -0.00000000000E+00 -0.00000000000E+00 -0.74505805969E-08  0.93827000000E+00  0.93827000000E+00 0. -1.
     999902    2    1    2    0    0 -0.22031099395E-01 -0.37050518083E-02  0.65883620498E-02  0.10206383005E+01  0.10203724993E+01 0.  0.
     999903    2    3    3    0    0 -0.96438928778E-01 -0.42546334330E-01 -0.78547285509E-01  0.13255426803E+00  0.17038203070E-01 0.  0.
         14    1    1    2    0    0  0.22031099395E-01  0.37050518083E-02 -0.65883620498E-02  0.23291699465E-01  0.00000000000E+00 0.  1.
     999901    1    3    3    0    0  0.74407829383E-01  0.38841282522E-01  0.85135647559E-01  0.88808403250E+00  0.88000000000E+00 0.  1.
        -11    1    4    4    0    0 -0.72182743620E-01 -0.24528369846E-01 -0.51546045463E-01  0.92028502800E-01  0.51100000000E-03 0.  1.
         11    1    4    4    0    0 -0.24256185158E-01 -0.18017964485E-01 -0.27001240046E-01  0.40525765232E-01  0.51100000000E-03 0. -1.
</event>
<event>
 8    1  0.1514119E+005  0.1043930E+01  0.7957747E-01            NaN
         13   -1    0    0    0    0  0.00000000000E+00  0.00000000000E+00  0.74505805969E-08  0.10566000000E+00  0.10566000000E+00 0. -1.
     999900   -1    0    0    0    0 -0.00000000000E+00 -0.00000000000E+00 -0.74505805969E-08  0.93827000000E+00  0.93827000000E+00 0.  1.
     999902    2    1    2    0    0  0.10295235116E-01 -0.83460652684E-02  0.19629804102E-01  0.10202450284E+01  0.10199700682E+01 0.  0.
     999903    2    3    3    0    0 -0.78482092511E-01  0.86952256843E-01 -0.47810359115E-01  0.12810638461E+00  0.20131605090E-01 0.  0.
         14    1    1    2    0    0 -0.10295235116E-01  0.83460652684E-02 -0.19629804102E-01  0.23684971620E-01  0.00000000000E+00 0.  1.
     999901    1    3    3    0    0  0.88777327627E-01 -0.95298322111E-01  0.67440163217E-01  0.89213864377E+00  0.88000000000E+00 0. -1.
        -11    1    4    4    0    0 -0.29553320051E-01  0.43699631067E-01 -0.14085684986E-01  0.54605165726E-01  0.51100000000E-03 0. -1.
         11    1    4    4    0    0 -0.48928772460E-01  0.43252625776E-01 -0.33724674130E-01  0.73501218881E-01  0.51100000000E-03 0.  1.
</event>
<event>
 8    1  0.1090774E+005  0.1043930E+01  0.7957747E-01            NaN
         13   -1    0    0    0    0  0.00000000000E+00  0.00000000000E+00  0.74505805969E-08  0.10566000000E+00  0.10566000000E+00 0.  1.
     999900   -1    0    0    0    0 -0.00000000000E+00 -0.00000000000E+00 -0.74505805969E-08  0.93827000000E+00  0.93827000000E+00 0.  1.
     999902    2    1    2    0    0  0.21243698856E-01  0.12326324514E-01 -0.29939463457E-02  0.10191873904E+01  0.10188870104E+01 0.  0.
     999903    2    3    3    0    0  0.20440768840E-01 -0.77163161550E-01  0.98968197634E-01  0.12879124728E+00  0.20506162511E-01 0.  0.
         14    1    1    2    0    0 -0.21243698856E-01 -0.12326324514E-01  0.29939463457E-02  0.24742609640E-01  0.00000000000E+00 0. -1.
     999901    1    3    3    0    0  0.80293001544E-03  0.89489486064E-01 -0.10196214398E+00  0.89039614308E+00  0.88000000000E+00 0.  1.
        -11    1    4    4    0    0  0.46172111337E-02 -0.51772602274E-01  0.55727691591E-01  0.76207333741E-01  0.51100000000E-03 0.  1.
         11    1    4    4    0    0  0.15823557706E-01 -0.25390559276E-01  0.43240506043E-01  0.52583913535E-01  0.51100000000E-03 0. -1.
</event>
<event>
 8    1  0.1090774E+005  0.1043930E+01  0.7957747E-01            NaN
         13   -1    0    0    0    0  0.00000000000E+00  0.00000000000E+00  0.74505805969E-08  0.10566000000E+00  0.10566000000E+00 0.  1.
     999900   -1    0    0    0    0 -0.00000000000E+00 -0.00000000000E+00 -0.74505805969E-08  0.93827000000E+00  0.93827000000E+00 0. -1.
     999902    2    1    2    0    0  0.20741688940E-01  0.14218237702E-01  0.15240591394E-01  0.10145250418E+01  0.10140988161E+01 0.  0.
     999903    2    3    3    0    0  0.42514637559E-01 -0.88979199357E-01 -0.72190789835E-01  0.12392523335E+00  0.20522207447E-01 0.  0.
         14    1    1    2    0    0 -0.20741688940E-01 -0.14218237702E-01 -0.15240591394E-01  0.29404958247E-01  0.00000000000E+00 0. -1.
     999901    1    3    3    0    0 -0.21772948619E-01  0.10319743706E+00  0.87431381229E-01  0.89059980840E+00  0.88000000000E+00 0.  1.
        -11    1    4    4    0    0  0.38367192560E-01 -0.64793871772E-01 -0.61186588422E-01  0.97027557982E-01  0.51100000000E-03 0.  1.
         11    1    4    4    0    0  0.41474449992E-02 -0.24185327585E-01 -0.11004201413E-01  0.26897675367E-01  0.51100000000E-03 0. -1.
</event>
<event>
 8    1  0.1356646E+005  0.1043930E+01  0.7957747E-01            NaN
         13   -1    0    0    0    0  0.00000000000E+00  0.00000000000E+00  0.74505805969E-08  0.10566000000E+00  0.10566000000E+00 0. -1.
     999900   -1    0    0    0    0 -0.00000000000E+00 -0.00000000000E+00 -0.74505805969E-08  0.93827000000E+00  0.93827000000E+00 0.  1.
     999902    2    1    2    0    0  0.69299768725E-02 -0.32120158310E-02 -0.22924842169E-01  0.10197661838E+01  0.10194798574E+01 0.  0.
     999903    2    3    3    0    0 -0.12798794973E-02 -0.16121830029E-01  0.12468257974E+00  0.12734138806E+00  0.20212172707E-01 0.  0.
         14    1    1    2    0    0 -0.69299768725E-02  0.32120158310E-02  0.22924842169E-01  0.24163816205E-01  0.00000000000E+00 0. -1.
     999901    1    3    3    0    0  0.82098563699E-02  0.12909814198E-01 -0.14760742191E+00  0.89242479574E+00  0.88000000000E+00 0.  1.
        -11    1    4    4    0    0 -0.99078357809E-03 -0.17021892920E-01  0.53563688179E-01  0.56214378081E-01  0.51100000000E-03 0.  1.
         11    1    4    4    0    0 -0.28909591925E-03  0.90006289036E-03  0.71118891565E-01  0.71127009976E-01  0.51100000000E-03 0. -1.
</event>
<event>
 8    1  0.1090774E+005  0.1043930E+01  0.7957747E-01            NaN
         13   -1    0    0    0    0  0.00000000000E+00  0.00000000000E+00  0.74505805969E-08  0.10566000000E+00  0.10566000000E+00 0. -1.
     999900   -1    0    0    0    0 -0.00000000000E+00 -0.00000000000E+00 -0.74505805969E-08  0.93827000000E+00  0.93827000000E+00 0. -1.
     999902    2    1    2    0    0 -0.23170595720E-01  0.15399695994E-01 -0.47774107024E-02  0.10157014542E+01  0.10153091122E+01 0.  0.
     999903    2    3    3    0    0  0.30018630244E-01  0.79847781412E-01 -0.92679639892E-01  0.12738312652E+00  0.18977853208E-01 0.  0.
         14    1    1    2    0    0  0.23170595720E-01 -0.15399695994E-01  0.47774107024E-02  0.28228545760E-01  0.00000000000E+00 0. -1.
     999901    1    3    3    0    0 -0.53189225964E-01 -0.64448085418E-01  0.87902229190E-01  0.88831832772E+00  0.88000000000E+00 0.  1.
        -11    1    4    4    0    0  0.29988468354E-02  0.14016920886E-01 -0.26855442118E-01  0.30445739370E-01  0.51100000000E-03 0.  1.
         11    1    4    4    0    0  0.27019783409E-01  0.65830860526E-01 -0.65824197774E-01  0.96937387146E-01  0.51100000000E-03 0. -1.
</event>
<event>
 8    1  0.1090774E+005  0.1043930E+01  0.7957747E-01            NaN
         13   -1    0    0    0    0  0.00000000000E+00  0.00000000000E+00  0.74505805969E-08  0.10566000000E+00  0.10566000000E+00 0. -1.
     999900   -1    0    0    0    0 -0.00000000000E+00 -0.00000000000E+00 -0.74505805969E-08  0.93827000000E+00  0.93827000000E+00 0.  1.
     999902    2    1    2    0    0  0.27321169841E-02 -0.13943101933E-02 -0.24307505459E-01  0.10194297268E+01  0.10191352729E+01 0.  0.
     999903    2    3    3    0    0 -0.47947507163E-01  0.98297871590E-01 -0.69705165169E-01  0.13119107482E+00  0.19770003992E-01 0.  0.
         14    1    1    2    0    0 -0.27321169841E-02  0.13943101933E-02  0.24307505459E-01  0.24500273177E-01  0.00000000000E+00 0.  1.
     999901    1    3    3    0    0  0.50679624147E-01 -0.99692181783E-01  0.45397659710E-01  0.88823865201E+00  0.88000000000E+00 0. -1.
        -11    1    4    4    0    0 -0.27088718257E-01  0.60023488833E-01 -0.30550847546E-01  0.72596372329E-01  0.51100000000E-03 0.  1.
         11    1    4    4    0    0 -0.20858788906E-01  0.38274382757E-01 -0.39154317623E-01  0.58594702487E-01  0.51100000000E-03 0. -1.
</event>
<event>
 8    1  0.1090774E+005  0.1043930E+01  0.7957747E-01            NaN
         13   -1    0    0    0    0  0.00000000000E+00  0.00000000000E+00  0.74505805969E-08  0.10566000000E+00  0.10566000000E+00 0.  1.
     999900   -1    0    0    0    0 -0.00000000000E+00 -0.00000000000E+00 -0.74505805969E-08  0.93827000000E+00  0.93827000000E+00 0. -1.
     999902    2    1    2    0    0 -0.45237998216E-02 -0.17817801668E-01 -0.14944032848E-01  0.10202390114E+01  0.10199639099E+01 0.  0.
     999903    2    3    3    0    0  0.33356615215E-01  0.12100267807E+00 -0.16689136231E-01  0.12855011007E+00  0.22187646389E-01 0.  0.
         14    1    1    2    0    0  0.45237998216E-02  0.17817801668E-01  0.14944032848E-01  0.23690988559E-01  0.00000000000E+00 0.  1.
     999901    1    3    3    0    0 -0.37880415036E-01 -0.13882047974E+00  0.17451033820E-02  0.89168890137E+00  0.88000000000E+00 0.  1.
        -11    1    4    4    0    0  0.76077187614E-02  0.33559224242E-01 -0.14560796544E-01  0.37368125903E-01  0.51100000000E-03 0. -1.
         11    1    4    4    0    0  0.25748896453E-01  0.87443453830E-01 -0.21283396865E-02  0.91181984169E-01  0.51100000000E-03 0.  1.
</event>
<event>
 8    1  0.1090774E+005  0.1043930E+01  0.7957747E-01            NaN
         13   -1    0    0    0    0  0.00000000000E+00  0.00000000000E+00  0.74505805969E-08  0.10566000000E+00  0.10566000000E+00 0.  1.
     999900   -1    0    0    0    0 -0.00000000000E+00 -0.00000000000E+00 -0.74505805969E-08  0.93827000000E+00  0.93827000000E+00 0. -1.
     999902    2    1    2    0    0 -0.19412925143E-01 -0.88767109795E-02  0.42061164570E-02  0.10221734130E+01  0.10219418463E+01 0.  0.
     999903    2    3    3    0    0  0.12541005828E+00 -0.27039551057E-01  0.12309225700E-01  0.13011442079E+00  0.17872476598E-01 0.  0.
         14    1    1    2    0    0  0.19412925143E-01  0.88767109795E-02 -0.42061164570E-02  0.21756586958E-01  0.00000000000E+00 0. -1.
     999901    1    3    3    0    0 -0.14482298342E+00  0.18162840078E-01 -0.81031092430E-02  0.89205899226E+00  0.88000000000E+00 0. -1.
        -11    1    4    4    0    0  0.31756770041E-01 -0.13781816026E-01  0.73653544594E-02  0.35396899070E-01  0.51100000000E-03 0.  1.
         11    1    4    4    0    0  0.93653288239E-01 -0.13257735031E-01  0.49438712406E-02  0.94717521716E-01  0.51100000000E-03 0. -1.
</event>
<event>
 8    1  0.1090774E+005  0.1043930E+01  0.7957747E-01            NaN
         13   -1    0    0    0    0  0.00000000000E+00  0.00000000000E+00  0.74505805969E-08  0.10566000000E+00  0.10566000000E+00 0.  1.
     999900   -1    0    0    0    0 -0.00000000000E+00 -0.00000000000E+00 -0.74505805969E-08  0.93827000000E+00  0.93827000000E+00 0.  1.
     999902    2    1    2    0    0  0.12964329484E-01 -0.12440692345E-01 -0.14298032009E-01  0.10209674569E+01  0.10207091994E+01 0.  0.
     999903    2    3    3    0    0 -0.16428919612E-01 -0.89974896859E-01  0.91400387399E-01  0.13077215710E+00  0.19543152067E-01 0.  0.
         14    1    1    2    0    0 -0.12964329484E-01  0.12440692345E-01  0.14298032009E-01  0.22962543072E-01  0.00000000000E+00 0.  1.
     999901    1    3    3    0    0  0.29393249096E-01  0.77534204514E-01 -0.10569841941E+00  0.89019529982E+00  0.88000000000E+00 0. -1.
        -11    1    4    4    0    0 -0.19993523823E-01 -0.72917127512E-01  0.79177414296E-01  0.10948046645E+00  0.51100000000E-03 0.  1.
         11    1    4    4    0    0  0.35646042110E-02 -0.17057769347E-01  0.12222973104E-01  0.21291690651E-01  0.51100000000E-03 0. -1.
</event>
<event>
 8    1  0.1090774E+005  0.1043930E+01  0.7957747E-01            NaN
         13   -1    0    0    0    0  0.00000000000E+00  0.00000000000E+00  0.74505805969E-08  0.10566000000E+00  0.10566000000E+00 0.  1.
     999900   -1    0    0    0    0 -0.00000000000E+00 -0.00000000000E+00 -0.74505805969E-08  0.93827000000E+00  0.93827000000E+00 0. -1.
     999902    2    1    2    0    0  0.12405253543E-02  0.88086894889E-02  0.21987232827E-01  0.10202114351E+01  0.10199356852E+01 0.  0.
     999903    2    3    3    0    0 -0.10269228625E+00 -0.47638548595E-01  0.63856421820E-01  0.13131248190E+00  0.18713319489E-01 0.  0.
         14    1    1    2    0    0 -0.12405253543E-02 -0.88086894889E-02 -0.21987232827E-01  0.23718564903E-01  0.00000000000E+00 0. -1.
     999901    1    3    3    0    0  0.10393281160E+00  0.56447238084E-01 -0.41869188993E-01  0.88889895320E+00  0.88000000000E+00 0. -1.
        -11    1    4    4    0    0 -0.16724984907E-01 -0.10648625661E-01  0.40405186349E-02  0.20241177349E-01  0.51100000000E-03 0.  1.
         11    1    4    4    0    0 -0.85967301343E-01 -0.36989922934E-01  0.59815903185E-01  0.11107130455E+00  0.51100000000E-03 0. -1.
</event>
<event>
 8    1  0.1090774E+005  0.1043930E+01  0.7957747E-01            NaN
         13   -1    0    0    0    0  0.00000000000E+00  0.00000000000E+00  0.74505805969E-08  0.10566000000E+00  0.10566000000E+00 0.  1.
     999900   -1    0    0    0    0 -0.00000000000E+00 -0.00000000000E+00 -0.74505805969E-08  0.93827000000E+00  0.93827000000E+00 0. -1.
     999902    2    1    2    0    0  0.46070726937E-02  0.23164427732E-01 -0.12997492065E-01  0.10169716872E+01  0.10166143132E+01 0.  0.
     999903    2    3    3    0    0  0.32159644134E-01  0.12154622074E+00  0.26888651617E-01  0.13016335057E+00  0.20292160066E-01 0.  0.
         14    1    1    2    0    0 -0.46070726937E-02 -0.23164427732E-01  0.12997492065E-01  0.26958312835E-01  0.00000000000E+00 0.  1.
     999901    1    3    3    0    0 -0.27552571441E-01 -0.98381793007E-01 -0.39886143681E-01  0.88680833659E+00  0.88000000000E+00 0. -1.
        -11    1    4    4    0    0  0.13983136366E-02  0.56763779647E-02 -0.30261809678E-02  0.66026843082E-02  0.51100000000E-03 0. -1.
         11    1    4    4    0    0  0.30761330498E-01  0.11586984277E+00  0.29914832584E-01  0.12356066627E+00  0.51100000000E-03 0.  1.
</event>
<event>
 8    1  0.1090774E+005  0.1043930E+01  0.7957747E-01            NaN
         13   -1    0    0    0    0  0.00000000000E+00  0.00000000000E+00  0.74505805969E-08  0.10566000000E+00  0.10566000000E+00 0. -1.
     999900   -1    0    0    0    0 -0.00000000000E+00 -0.00000000000E+00 -0.74505805969E-08  0.93827000000E+00  0.93827000000E+00 0. -1.
     999902    2    1    2    0    0  0.18607046690E-01  0.12975595197E-02  0.15354922803E-01  0.10197705401E+01  0.10194843182E+01 0.  0.
     999903    2    3    3    0    0 -0.33536911585E-02 -0.24053429915E-01 -0.12390195766E+00  0.12818912184E+00  0.22157190981E-01 0.  0.
         14    1    1    2    0    0 -0.18607046690E-01 -0.12975595197E-02 -0.15354922803E-01  0.24159459877E-01  0.00000000000E+00 0. -1.
     999901    1    3    3    0    0  0.21960737849E-01  0.25350989435E-01  0.13925688046E+00  0.89158141828E+00  0.88000000000E+00 0.  1.
        -11    1    4    4    0    0 -0.39882388313E-02  0.18669713785E-02 -0.43103616076E-01  0.43330987421E-01  0.51100000000E-03 0. -1.
         11    1    4    4    0    0  0.63454767279E-03 -0.25920401293E-01 -0.80798341581E-01  0.84858134419E-01  0.51100000000E-03 0.  1.
</event>
<event>
 8    1  0.1090774E+005  0.1043930E+01  0.7957747E-01            NaN
         13   -1    0    0    0    0  0.00000000000E+00  0.00000000000E+00  0.74505805969E-08  0.10566000000E+00  0.10566000000E+00 0.  1.
     999900   -1    0    0    0    0 -0.00000000000E+00 -0.00000000000E+00 -0.74505805969E-08  0.93827000000E+00  0.93827000000E+00 0. -1.
     999902    2    1    2    0    0 -0.89445457598E-02  0.21279275094E-01 -0.25221026474E-02  0.10207098913E+01  0.10204457402E+01 0.  0.
     999903    2    3    3    0    0 -0.12152339537E+00 -0.29497454369E-01  0.32845842845E-01  0.13138252455E+00  0.23334158013E-01 0.  0.
         14    1    1    2    0    0  0.89445457598E-02 -0.21279275094E-01  0.25221026474E-02  0.23220108724E-01  0.00000000000E+00 0.  1.
     999901    1    3    3    0    0  0.11257884961E+00  0.50776729463E-01 -0.35367945493E-01  0.88932736672E+00  0.88000000000E+00 0.  1.
        -11    1    4    4    0    0 -0.86579485014E-01 -0.25156184267E-01  0.13393322253E-01  0.91150880600E-01  0.51100000000E-03 0. -1.
         11    1    4    4    0    0 -0.34943910353E-01 -0.43412701020E-02  0.19452520592E-01  0.40231643954E-01  0.51100000000E-03 0.  1.
</event>
<event>
 8    1  0.1090774E+005  0.1043930E+01  0.7957747E-01            NaN
         13   -1    0    0    0    0  0.00000000000E+00  0.00000000000E+00  0.74505805969E-08  0.10566000000E+00  0.10566000000E+00 0.  1.
     999900   -1    0    0    0    0 -0.00000000000E+00 -0.00000000000E+00 -0.74505805969E-08  0.93827000000E+00  0.93827000000E+00 0.  1.
     999902    2    1    2    0    0  0.14934731283E-01 -0.16595339168E-01  0.58604144424E-02  0.10208476271E+01  0.10205866361E+01 0.  0.
     999903    2    3    3    0    0 -0.15568272607E-01 -0.31235993144E-01 -0.12426981055E+00  0.13063492363E+00  0.20110670759E-01 0.  0.
         14    1    1    2    0    0 -0.14934731283E-01  0.16595339168E-01 -0.58604144424E-02  0.23082372885E-01  0.00000000000E+00 0.  1.
     999901    1    3    3    0    0  0.30503003890E-01  0.14640653975E-01  0.13013022499E+00  0.89021270349E+00  0.88000000000E+00 0. -1.
        -11    1    4    4    0    0 -0.17302076035E-02 -0.24349654739E-01 -0.66869371016E-01  0.71187591653E-01  0.51100000000E-03 0. -1.
         11    1    4    4    0    0 -0.13838065004E-01 -0.68863384047E-02 -0.57400439529E-01  0.59447331974E-01  0.51100000000E-03 0.  1.
</event>
<event>
 8    1  0.1090774E+005  0.1043930E+01  0.7957747E-01            NaN
         13   -1    0    0    0    0  0.00000000000E+00  0.00000000000E+00  0.74505805969E-08  0.10566000000E+00  0.10566000000E+00 0.  1.
     999900   -1    0    0    0    0 -0.00000000000E+00 -0.00000000000E+00 -0.74505805969E-08  0.93827000000E+00  0.93827000000E+00 0.  1.
     999902    2    1    2    0    0 -0.97636197497E-02 -0.21722904323E-01  0.36821795669E-02  0.10198308031E+01  0.10195460243E+01 0.  0.
     999903    2    3    3    0    0  0.46373763325E-01  0.51046646066E-01  0.10718789543E+00  0.12901081770E+00  0.19956456529E-01 0.  0.
         14    1    1    2    0    0  0.97636197497E-02  0.21722904323E-01 -0.36821795669E-02  0.24099196858E-01  0.00000000000E+00 0.  1.
     999901    1    3    3    0    0 -0.56137383075E-01 -0.72769550389E-01 -0.10350571587E+00  0.89081998544E+00  0.88000000000E+00 0.  1.
        -11    1    4    4    0    0  0.11349592176E-01  0.62642925580E-02  0.33604789643E-01  0.36022182218E-01  0.51100000000E-03 0.  1.
         11    1    4    4    0    0  0.35024171149E-01  0.44782353508E-01  0.73583105790E-01  0.92988635483E-01  0.51100000000E-03 0. -1.
</event>
<event>
 8    1  0.1090774E+005  0.1043930E+01  0.7957747E-01            NaN
         13   -1    0    0    0    0  0.00000000000E+00  0.00000000000E+00  0.74505805969E-08  0.10566000000E+00  0.10566000000E+00 0.  1.
     999900   -1    0    0    0    0 -0.00000000000E+00 -0.00000000000E+00 -0.74505805969E-08  0.93827000000E+00  0.93827000000E+00 0.  1.
     999902    2    1    2    0    0  0.14390922500E-01 -0.66565414471E-02  0.17585008108E-01  0.10202521474E+01  0.10199773544E+01 0.  0.
     999903    2    3    3    0    0 -0.66874597502E-01 -0.29754038919E-01 -0.10306062596E+00  0.12801173799E+00  0.20198955845E-01 0.  0.
         14    1    1    2    0    0 -0.14390922500E-01  0.66565414471E-02 -0.17585008108E-01  0.23677852618E-01  0.00000000000E+00 0. -1.
     999901    1    3    3    0    0  0.81265520002E-01  0.23097497471E-01  0.12064563407E+00  0.89224040939E+00  0.88000000000E+00 0. -1.
        -11    1    4    4    0    0 -0.20279302468E-01  0.49634332349E-04 -0.33160030055E-01  0.38872886263E-01  0.51100000000E-03 0. -1.
         11    1    4    4    0    0 -0.46595295034E-01 -0.29803673251E-01 -0.69900595905E-01  0.89138851728E-01  0.51100000000E-03 0.  1.
</event>
<event>
 8    1  0.1090774E+005  0.1043930E+01  0.7957747E-01            NaN
         13   -1    0    0    0    0  0.00000000000E+00  0.00000000000E+00  0.74505805969E-08  0.10566000000E+00  0.10566000000E+00 0.  1.
     999900   -1    0    0    0    0 -0.00000000000E+00 -0.00000000000E+00 -0.74505805969E-08  0.93827000000E+00  0.93827000000E+00 0.  1.
     999902    2    1    2    0    0  0.43256145535E-02 -0.24200392986E-01  0.24313487630E-01  0.10093537706E+01  0.10087613784E+01 0.  0.
     999903    2    3    3    0    0 -0.11049497747E+00  0.36675425451E-01  0.19311039756E-01  0.11979508328E+00  0.20584432071E-01 0.  0.
         14    1    1    2    0    0 -0.43256145535E-02  0.24200392986E-01 -0.24313487630E-01  0.34576229446E-01  0.00000000000E+00 0. -1.
     999901    1    3    3    0    0  0.11482059202E+00 -0.60875818437E-01  0.50024478736E-02  0.88955868728E+00  0.88000000000E+00 0. -1.
        -11    1    4    4    0    0 -0.80768686913E-01  0.35688047840E-01  0.17284438137E-01  0.89979055713E-01  0.51100000000E-03 0. -1.
         11    1    4    4    0    0 -0.29726290555E-01  0.98737761138E-03  0.20266016193E-02  0.29816027566E-01  0.51100000000E-03 0.  1.
</event>
<event>
 8    1  0.1090774E+005  0.1043930E+01  0.7957747E-01            NaN
         13   -1    0    0    0    0  0.00000000000E+00  0.00000000000E+00  0.74505805969E-08  0.10566000000E+00  0.10566000000E+00 0.  1.
     999900   -1    0    0    0    0 -0.00000000000E+00 -0.00000000000E+00 -0.74505805969E-08  0.93827000000E+00  0.93827000000E+00 0.  1.
     999902    2    1    2    0    0 -0.70342056778E-02 -0.14999136932E-01  0.17188028318E-01  0.10200577886E+01  0.10197784120E+01 0.  0.
     999903    2    3    3    0    0  0.51159279773E-01  0.79921268263E-01  0.87238418665E-01  0.13028061301E+00  0.18916009269E-01 0.  0.
         14    1    1    2    0    0  0.70342056778E-02  0.14999136932E-01 -0.17188028318E-01  0.23872211370E-01  0.00000000000E+00 0. -1.
     999901    1    3    3    0    0 -0.58193485451E-01 -0.94920405195E-01 -0.70050390347E-01  0.88977717562E+00  0.88000000000E+00 0.  1.
        -11    1    4    4    0    0  0.34984802027E-01  0.64636647410E-01  0.74407780586E-01  0.10458781714E+00  0.51100000000E-03 0.  1.
         11    1    4    4    0    0  0.16174477746E-01  0.15284620853E-01  0.12830638079E-01  0.25692795867E-01  0.51100000000E-03 0. -1.
</event>
<event>
 8    1  0.1090774E+005  0.1043930E+01  0.7957747E-01            NaN
         13   -1    0    0    0    0  0.00000000000E+00  0.00000000000E+00  0.74505805969E-08  0.10566000000E+00  0.10566000000E+00 0. -1.
     999900   -1    0    0    0    0 -0.00000000000E+00 -0.00000000000E+00 -0.74505805969E-08  0.93827000000E+00  0.93827000000E+00 0.  1.
     999902    2    1    2    0    0 -0.71810057260E-02  0.15242391039E-01 -0.17036689111E-01  0.10199686540E+01  0.10196871623E+01 0.  0.
     999903    2    3    3    0    0  0.11535079667E+00 -0.50652598248E-02 -0.57101494102E-01  0.13034422092E+00  0.19939211320E-01 0.  0.
         14    1    1    2    0    0  0.71810057260E-02 -0.15242391039E-01  0.17036689111E-01  0.23961346033E-01  0.00000000000E+00 0. -1.
     999901    1    3    3    0    0 -0.12253180240E+00  0.20307650864E-01  0.40064804990E-01  0.88962443305E+00  0.88000000000E+00 0. -1.
        -11    1    4    4    0    0  0.46089720715E-01  0.10049461032E-02 -0.33233542349E-01  0.56833104176E-01  0.51100000000E-03 0. -1.
         11    1    4    4    0    0  0.69261075955E-01 -0.60702059280E-02 -0.23867951753E-01  0.73511116740E-01  0.51100000000E-03 0.  1.
</event>
<event>
 8    1  0.1090774E+005  0.1043930E+01  0.7957747E-01            NaN
         13   -1    0    0    0    0  0.00000000000E+00  0.00000000000E+00  0.74505805969E-08  0.10566000000E+00  0.10566000000E+00 0. -1.
     999900   -1    0    0    0    0 -0.00000000000E+00 -0.00000000000E+00 -0.74505805969E-08  0.93827000000E+00  0.93827000000E+00 0.  1.
     999902    2    1    2    0    0  0.76057293197E-02 -0.12034592128E-02  0.22053134229E-01  0.10205711438E+01  0.10203037898E+01 0.  0.
     999903    2    3    3    0    0  0.52637865412E-01  0.10335442059E+00 -0.55132001694E-01  0.12988725561E+00  0.19449432611E-01 0.  0.
         14    1    1    2    0    0 -0.76057293197E-02  0.12034592128E-02 -0.22053134229E-01  0.23358856177E-01  0.00000000000E+00 0.  1.
     999901    1    3    3    0    0 -0.45032136093E-01 -0.10455787980E+00  0.77185135923E-01  0.89068388821E+00  0.88000000000E+00 0. -1.
        -11    1    4    4    0    0  0.24000782094E-01  0.50625443971E-01 -0.37221040266E-01  0.67265444903E-01  0.51100000000E-03 0.  1.
         11    1    4    4    0    0  0.28637083318E-01  0.52728976620E-01 -0.17910961428E-01  0.62621810710E-01  0.51100000000E-03 0. -1.
</event>
<event>
 8    1  0.1090774E+005  0.1043930E+01  0.7957747E-01            NaN
         13   -1    0    0    0    0  0.00000000000E+00  0.00000000000E+00  0.74505805969E-08  0.10566000000E+00  0.10566000000E+00 0.  1.
     999900   -1    0    0    0    0 -0.00000000000E+00 -0.00000000000E+00 -0.74505805969E-08  0.93827000000E+00  0.93827000000E+00 0. -1.
     999902    2    1    2    0    0 -0.65926598754E-02  0.15862993108E-01  0.16138224276E-01  0.10203601040E+01  0.10200878403E+01 0.  0.
     999903    2    3    3    0    0 -0.10656797881E+00 -0.25982765951E-01 -0.62383836160E-01  0.13024109740E+00  0.32236038878E-01 0.  0.
         14    1    1    2    0    0  0.65926598754E-02 -0.15862993108E-01 -0.16138224276E-01  0.23569895998E-01  0.00000000000E+00 0.  1.
     999901    1    3    3    0    0  0.99975318935E-01  0.41845759059E-01  0.78522060436E-01  0.89011900661E+00  0.88000000000E+00 0.  1.
        -11    1    4    4    0    0 -0.62549001123E-01 -0.22878548238E-01 -0.53012653597E-01  0.85125836697E-01  0.51100000000E-03 0.  1.
         11    1    4    4    0    0 -0.44018977688E-01 -0.31042177131E-02 -0.93711825630E-02  0.45115260699E-01  0.51100000000E-03 0. -1.
</event>
<event>
 8    1  0.1090774E+005  0.1043930E+01  0.7957747E-01            NaN
         13   -1    0    0    0    0  0.00000000000E+00  0.00000000000E+00  0.74505805969E-08  0.10566000000E+00  0.10566000000E+00 0. -1.
     999900   -1    0    0    0    0 -0.00000000000E+00 -0.00000000000E+00 -0.74505805969E-08  0.93827000000E+00  0.93827000000E+00 0. -1.
     999902    2    1    2    0    0  0.22727216212E-01 -0.39923170762E-02  0.44766193180E-02  0.10204245735E+01  0.10201538145E+01 0.  0.
     999903    2    3    3    0    0 -0.10252222273E+00 -0.59797965664E-01 -0.44370960119E-01  0.12846729969E+00  0.21176924618E-01 0.  0.
         14    1    1    2    0    0 -0.22727216212E-01  0.39923170762E-02 -0.44766193180E-02  0.23505426457E-01  0.00000000000E+00 0.  1.
     999901    1    3    3    0    0  0.12524943894E+00  0.55805648588E-01  0.48847579437E-01  0.89195727386E+00  0.88000000000E+00 0. -1.
        -11    1    4    4    0    0 -0.30854974957E-01 -0.87242400681E-02 -0.17043807294E-01  0.36316584812E-01  0.51100000000E-03 0. -1.
         11    1    4    4    0    0 -0.71667247771E-01 -0.51073725596E-01 -0.27327152825E-01  0.92150714874E-01  0.51100000000E-03 0.  1.
</event>
<event>
 7    1  0.1090774E+005  0.1043930E+01  0.7957747E-01            NaN
         13   -1    0    0    0    0  0.00000000000E+00  0.00000000000E+00  0.74505805969E-08  0.10566000000E+00  0.10566000000E+00 0.  1.
     999900   -1    0    0    0    0 -0.00000000000E+00 -0.00000000000E+00 -0.74505805969E-08  0.93827000000E+00  0.93827000000E+00 0. -1.
     999903    2    1    2    0    0  0.24889316857E-02 -0.10574624887E+00 -0.39190253541E-01  0.11465487976E+00  0.20528067344E-01 0.  0.
         14    1    1    2    0    0  0.31063707912E-01 -0.22498928598E-01 -0.18568369726E-02  0.38400567455E-01  0.00000000000E+00 0. -1.
     999901    1    1    2    0    0 -0.33552639598E-01  0.12824517747E+00  0.41047090514E-01  0.89087455279E+00  0.88000000000E+00 0.  1.
        -11    1    3    3    0    0 -0.26613782642E-02 -0.69611022365E-01 -0.34847629140E-01  0.77893489758E-01  0.51100000000E-03 0.  1.
         11    1    3    3    0    0  0.51503099499E-02 -0.36135226502E-01 -0.43426244017E-02  0.36761389999E-01  0.51100000000E-03 0. -1.
</event>
<event>
 8    1  0.1090774E+005  0.1043930E+01  0.7957747E-01            NaN
         13   -1    0    0    0    0  0.00000000000E+00  0.00000000000E+00  0.74505805969E-08  0.10566000000E+00  0.10566000000E+00 0.  1.
     999900   -1    0    0    0    0 -0.00000000000E+00 -0.00000000000E+00 -0.74505805969E-08  0.93827000000E+00  0.93827000000E+00 0.  1.
     999902    2    1    2    0    0 -0.49975965298E-03 -0.14135611056E-01 -0.18727160072E-01  0.10204614725E+01  0.10201915727E+01 0.  0.
     999903    2    3    3    0    0 -0.91776737770E-01 -0.70893661794E-01 -0.61230529602E-01  0.13290330566E+00  0.21569191523E-01 0.  0.
         14    1    1    2    0    0  0.49975965298E-03  0.14135611056E-01  0.18727160072E-01  0.23468527521E-01  0.00000000000E+00 0.  1.
     999901    1    3    3    0    0  0.91276978117E-01  0.56758050737E-01  0.42503369530E-01  0.88755816681E+00  0.88000000000E+00 0.  1.
        -11    1    4    4    0    0 -0.34991832356E-01 -0.15759452349E-01 -0.25384172941E-01  0.46015280363E-01  0.51100000000E-03 0.  1.
         11    1    4    4    0    0 -0.56784905414E-01 -0.55134209444E-01 -0.35846356661E-01  0.86888025302E-01  0.51100000000E-03 0. -1.
</event>
<event>
 8    1  0.1090774E+005  0.1043930E+01  0.7957747E-01            NaN
         13   -1    0    0    0    0  0.00000000000E+00  0.00000000000E+00  0.74505805969E-08  0.10566000000E+00  0.10566000000E+00 0. -1.
     999900   -1    0    0    0    0 -0.00000000000E+00 -0.00000000000E+00 -0.74505805969E-08  0.93827000000E+00  0.93827000000E+00 0. -1.
     999902    2    1    2    0    0 -0.96768471501E-02  0.34329003962E-02 -0.21785203823E-01  0.10198463690E+01  0.10195619624E+01 0.  0.
     999903    2    3    3    0    0 -0.87010780884E-01 -0.93750218140E-01 -0.19992074402E-01  0.13112351505E+00  0.20825795782E-01 0.  0.
         14    1    1    2    0    0  0.96768471501E-02 -0.34329003962E-02  0.21785203823E-01  0.24083630987E-01  0.00000000000E+00 0. -1.
     999901    1    3    3    0    0  0.77333933734E-01  0.97183118536E-01 -0.17931294210E-02  0.88872285396E+00  0.88000000000E+00 0.  1.
        -11    1    4    4    0    0 -0.28340569098E-01 -0.23703497642E-01 -0.14140970941E-01  0.39563516495E-01  0.51100000000E-03 0.  1.
         11    1    4    4    0    0 -0.58670211785E-01 -0.70046720498E-01 -0.58511034616E-02  0.91559998559E-01  0.51100000000E-03 0. -1.
</event>
<event>
 8    1  0.1090774E+005  0.1043930E+01  0.7957747E-01            NaN
         13   -1    0    0    0    0  0.00000000000E+00  0.00000000000E+00  0.74505805969E-08  0.10566000000E+00  0.10566000000E+00 0.  1.
     999900   -1    0    0    0    0 -0.00000000000E+00 -0.00000000000E+00 -0.74505805969E-08  0.93827000000E+00  0.93827000000E+00 0.  1.
     999902    2    1    2    0    0  0.14941929326E-01  0.18289313606E-01 -0.24601894470E-02  0.10201852579E+01  0.10199088919E+01 0.  0.
     999903    2    3    3    0    0  0.81741228842E-01 -0.11071462553E-01  0.10000423096E+00  0.13124028829E+00  0.20468543765E-01 0.  0.
         14    1    1    2    0    0 -0.14941929326E-01 -0.18289313606E-01  0.24601894470E-02  0.23744742076E-01  0.00000000000E+00 0. -1.
     999901    1    3    3    0    0 -0.66799299516E-01  0.29360776159E-01 -0.10246442041E+00  0.88894496964E+00  0.88000000000E+00 0.  1.
        -11    1    4    4    0    0  0.33206878800E-01 -0.31581499363E-02  0.56335775938E-01  0.65472524636E-01  0.51100000000E-03 0. -1.
         11    1    4    4    0    0  0.48534350042E-01 -0.79133126167E-02  0.43668455024E-01  0.65767763651E-01  0.51100000000E-03 0.  1.
</event>
<event>
 8    1  0.1090774E+005  0.1043930E+01  0.7957747E-01            NaN
         13   -1    0    0    0    0  0.00000000000E+00  0.00000000000E+00  0.74505805969E-08  0.10566000000E+00  0.10566000000E+00 0. -1.
     999900   -1    0    0    0    0 -0.00000000000E+00 -0.00000000000E+00 -0.74505805969E-08  0.93827000000E+00  0.93827000000E+00 0. -1.
     999902    2    1    2    0    0  0.17947132692E-01 -0.12084038994E-01  0.10151504905E-01  0.10200306983E+01  0.10197506797E+01 0.  0.
     999903    2    3    3    0    0 -0.10282766053E+00 -0.51652925079E-01  0.56043290607E-01  0.12971709994E+00  0.21074229632E-01 0.  0.
         14    1    1    2    0    0 -0.17947132692E-01  0.12084038994E-01 -0.10151504905E-01  0.23899301707E-01  0.00000000000E+00 0. -1.
     999901    1    3    3    0    0  0.12077479322E+00  0.39568886085E-01 -0.45891785702E-01  0.89031359836E+00  0.88000000000E+00 0. -1.
        -11    1    4    4    0    0 -0.61643347758E-01 -0.33458746157E-01  0.45069353657E-01  0.83372044339E-01  0.51100000000E-03 0.  1.
         11    1    4    4    0    0 -0.41184312771E-01 -0.18194178923E-01  0.10973936950E-01  0.46345055597E-01  0.51100000000E-03 0. -1.
</event>
<event>
 8    1  0.1090774E+005  0.1043930E+01  0.7957747E-01            NaN
         13   -1    0    0    0    0  0.00000000000E+00  0.00000000000E+00  0.74505805969E-08  0.10566000000E+00  0.10566000000E+00 0. -1.
     999900   -1    0    0    0    0 -0.00000000000E+00 -0.00000000000E+00 -0.74505805969E-08  0.93827000000E+00  0.93827000000E+00 0. -1.
     999902    2    1    2    0    0  0.13699505263E-01  0.11835494313E-01  0.14672397399E-01  0.10206268969E+01  0.10203608323E+01 0.  0.
     999903    2    3    3    0    0  0.58990179626E-01  0.67041710188E-01  0.97593895620E-01  0.13384905190E+00  0.20409998430E-01 0.  0.
         14    1    1    2    0    0 -0.13699505263E-01 -0.11835494313E-01 -0.14672397399E-01  0.23303103130E-01  0.00000000000E+00 0. -1.
     999901    1    3    3    0    0 -0.45290674364E-01 -0.55206215875E-01 -0.82921498221E-01  0.88677784497E+00  0.88000000000E+00 0. -1.
        -11    1    4    4    0    0  0.33163638228E-01  0.24277863837E-01  0.51320030850E-01  0.65751412612E-01  0.51100000000E-03 0. -1.
         11    1    4    4    0    0  0.25826541398E-01  0.42763846352E-01  0.46273864770E-01  0.68097639292E-01  0.51100000000E-03 0.  1.
</event>
<event>
 8    1  0.1090774E+005  0.1043930E+01  0.7957747E-01            NaN
         13   -1    0    0    0    0  0.00000000000E+00  0.00000000000E+00  0.74505805969E-08  0.10566000000E+00  0.10566000000E+00 0. -1.
     999900   -1    0    0    0    0 -0.00000000000E+00 -0.00000000000E+00 -0.74505805969E-08  0.93827000000E+00  0.93827000000E+00 0.  1.
     999902    2    1    2    0    0  0.15496011456E-01  0.17514607422E-01  0.12991764283E-03  0.10205440058E+01  0.10202760230E+01 0.  0.
     999903    2    3    3    0    0  0.14657753473E-01 -0.12604146333E+00 -0.95353943533E-02  0.12885882239E+00  0.20306948288E-01 0.  0.
         14    1    1    2    0    0 -0.15496011456E-01 -0.17514607422E-01 -0.12991764283E-03  0.23385994159E-01  0.00000000000E+00 0. -1.
     999901    1    3    3    0    0  0.83825798224E-03  0.14355607075E+00  0.96653119961E-02  0.89168518345E+00  0.88000000000E+00 0. -1.
        -11    1    4    4    0    0  0.37536555034E-02 -0.51288713781E-01 -0.13624890253E-01  0.53202639468E-01  0.51100000000E-03 0.  1.
         11    1    4    4    0    0  0.10904097970E-01 -0.74752749545E-01  0.40894958996E-02  0.75656182925E-01  0.51100000000E-03 0. -1.
</event>
<event>
 8    1  0.1090774E+005  0.1043930E+01  0.7957747E-01            NaN
         13   -1    0    0    0    0  0.00000000000E+00  0.00000000000E+00  0.74505805969E-08  0.10566000000E+00  0.10566000000E+00 0. -1.
     999900   -1    0    0    0    0 -0.00000000000E+00 -0.00000000000E+00 -0.74505805969E-08  0.93827000000E+00  0.93827000000E+00 0.  1.
     999902    2    1    2    0    0 -0.34773206939E-02  0.12584876216E-01 -0.19904317330E-01  0.10201255316E+01  0.10198477570E+01 0.  0.
     999903    2    3    3    0    0  0.59544878819E-01  0.64226958314E-01  0.89314677656E-01  0.12963831036E+00  0.34033587846E-01 0.  0.
         14    1    1    2    0    0  0.34773206939E-02 -0.12584876216E-01  0.19904317330E-01  0.23804468424E-01  0.00000000000E+00 0. -1.
     999901    1    3    3    0    0 -0.63022199513E-01 -0.51642082098E-01 -0.10921899499E+00  0.89048722121E+00  0.88000000000E+00 0.  1.
        -11    1    4    4    0    0  0.50023840156E-01  0.49858612572E-01  0.49495979945E-01  0.86246037493E-01  0.51100000000E-03 0. -1.
         11    1    4    4    0    0  0.95210386632E-02  0.14368345742E-01  0.39818697711E-01  0.43392272872E-01  0.51100000000E-03 0.  1.
</event>
<event>
 8    1  0.1090774E+005  0.1043930E+01  0.7957747E-01            NaN
         13   -1    0    0    0    0  0.00000000000E+00  0.00000000000E+00  0.74505805969E-08  0.10566000000E+00  0.10566000000E+00 0.  1.
     999900   -1    0    0    0    0 -0.00000000000E+00 -0.00000000000E+00 -0.74505805969E-08  0.93827000000E+00  0.93827000000E+00 0.  1.
     999902    2    1    2    0    0  0.57044074877E-02 -0.20955186296E-01 -0.93796774996E-02  0.10202733213E+01  0.10199990253E+01 0.  0.
     999903    2    3    3    0    0  0.54057678787E-01 -0.23645350516E-01  0.11449220075E+00  0.13027921005E+00  0.19567148533E-01 0.  0.
         14    1    1    2    0    0 -0.57044074877E-02  0.20955186296E-01  0.93796774996E-02  0.23656678708E-01  0.00000000000E+00 0.  1.
     999901    1    3    3    0    0 -0.48353271299E-01  0.26901642201E-02 -0.12387187825E+00  0.88999411124E+00  0.88000000000E+00 0.  1.
        -11    1    4    4    0    0  0.15367485762E-02 -0.63292635798E-02  0.16694642064E-01  0.17927447344E-01  0.51100000000E-03 0. -1.
         11    1    4    4    0    0  0.52520930211E-01 -0.17316086937E-01  0.97797558684E-01  0.11235176270E+00  0.51100000000E-03 0.  1.
</event>
<event>
 8    1  0.1090774E+005  0.1043930E+01  0.7957747E-01            NaN
         13   -1    0    0    0    0  0.00000000000E+00  0.00000000000E+00  0.74505805969E-08  0.10566000000E+00  0.10566000000E+00 0. -1.
     999900   -1    0    0    0    0 -0.00000000000E+00 -0.00000000000E+00 -0.74505805969E-08  0.93827000000E+00  0.93827000000E+00 0.  1.
     999902    2    1    2    0    0 -0.16172414736E-01  0.17441555816E-01  0.30349038973E-02  0.10199515616E+01  0.10196696634E+01 0.  0.
     999903    2    3    3    0    0 -0.12429392082E+00 -0.25083058810E-01 -0.30313238994E-01  0.13168881803E+00  0.18571853554E-01 0.  0.
         14    1    1    2    0    0  0.16172414736E-01 -0.17441555816E-01 -0.30349038973E-02  0.23978438426E-01  0.00000000000E+00 0.  1.
     999901    1    3    3    0    0  0.10812150609E+00  0.42524614626E-01  0.33348142892E-01  0.88826274354E+00  0.88000000000E+00 0.  1.
        -11    1    4    4    0    0 -0.47881708782E-01 -0.10940244331E-02 -0.14582796418E-01  0.50067694152E-01  0.51100000000E-03 0. -1.
         11    1    4    4    0    0 -0.76412212040E-01 -0.23989034377E-01 -0.15730442576E-01  0.81621123882E-01  0.51100000000E-03 0.  1.
</event>
<event>
 8    1  0.1090774E+005  0.1043930E+01  0.7957747E-01            NaN
         13   -1    0    0    0    0  0.00000000000E+00  0.00000000000E+00  0.74505805969E-08  0.10566000000E+00  0.10566000000E+00 0.  1.
     999900   -1    0    0    0    0 -0.00000000000E+00 -0.00000000000E+00 -0.74505805969E-08  0.93827000000E+00  0.93827000000E+00 0.  1.
     999902    2    1    2    0    0 -0.22455817941E-01 -0.34626772767E-02 -0.65150168645E-02  0.10202931783E+01  0.10200193481E+01 0.  0.
     999903    2    3    3    0    0 -0.90520418780E-01 -0.73149983624E-01  0.59587009647E-01  0.13245389758E+00  0.21179163006E-01 0.  0.
         14    1    1    2    0    0  0.22455817941E-01  0.34626772767E-02  0.65150168645E-02  0.23636821657E-01  0.00000000000E+00 0.  1.
     999901    1    3    3    0    0  0.68064600839E-01  0.69687306347E-01 -0.66102026511E-01  0.88783928076E+00  0.88000000000E+00 0. -1.
        -11    1    4    4    0    0 -0.83875082243E-01 -0.72445730593E-01  0.59407455334E-01  0.12574943408E+00  0.51100000000E-03 0. -1.
         11    1    4    4    0    0 -0.66453365377E-02 -0.70425303106E-03  0.17955431232E-03  0.67044634970E-02  0.51100000000E-03 0.  1.
</event>
<event>
 8    1  0.1090774E+005  0.1043930E+01  0.7957747E-01            NaN
         13   -1    0    0    0    0  0.00000000000E+00  0.00000000000E+00  0.74505805969E-08  0.10566000000E+00  0.10566000000E+00 0. -1.
     999900   -1    0    0    0    0 -0.00000000000E+00 -0.00000000000E+00 -0.74505805969E-08  0.93827000000E+00  0.93827000000E+00 0. -1.
     999902    2    1    2    0    0 -0.16381885577E-01  0.14190662594E-01 -0.80546137224E-02  0.10208081947E+01  0.10205463010E+01 0.  0.
     999903    2    3    3    0    0 -0.31566496999E-01  0.34656859157E-01  0.12077749374E+00  0.13106264140E+00  0.19815936955E-01 0.  0.
         14    1    1    2    0    0  0.16381885577E-01 -0.14190662594E-01  0.80546137224E-02  0.23121805339E-01  0.00000000000E+00 0.  1.
     999901    1    3    3    0    0  0.15184611422E-01 -0.20466196563E-01 -0.12883210747E+00  0.88974555326E+00  0.88000000000E+00 0. -1.
        -11    1    4    4    0    0 -0.34044351507E-01  0.29421415174E-01  0.10916136215E+00  0.11807244238E+00  0.51100000000E-03 0.  1.
         11    1    4    4    0    0  0.24778545089E-02  0.52354439833E-02  0.11616131590E-01  0.12990199028E-01  0.51100000000E-03 0. -1.
</event>
<event>
 8    1  0.1090774E+005  0.1043930E+01  0.7957747E-01            NaN
         13   -1    0    0    0    0  0.00000000000E+00  0.00000000000E+00  0.74505805969E-08  0.10566000000E+00  0.10566000000E+00 0.  1.
     999900   -1    0    0    0    0 -0.00000000000E+00 -0.00000000000E+00 -0.74505805969E-08  0.93827000000E+00  0.93827000000E+00 0.  1.
     999902    2    1    2    0    0 -0.20120258559E-01 -0.12581949132E-01 -0.40319983167E-02  0.10198595355E+01  0.10195754435E+01 0.  0.
     999903    2    3    3    0    0 -0.11146512814E+00 -0.23185641528E-01  0.63669235260E-01  0.13248149857E+00  0.23141460193E-01 0.  0.
         14    1    1    2    0    0  0.20120258559E-01  0.12581949132E-01  0.40319983167E-02  0.24070464451E-01  0.00000000000E+00 0.  1.
     999901    1    3    3    0    0  0.91344869580E-01  0.10603692395E-01 -0.67701233577E-01  0.88737803698E+00  0.88000000000E+00 0.  1.
        -11    1    4    4    0    0 -0.24520286668E-01 -0.55363619970E-03  0.23831680248E-01  0.34201770068E-01  0.51100000000E-03 0.  1.
         11    1    4    4    0    0 -0.86944841470E-01 -0.22632005328E-01  0.39837555013E-01  0.98279728499E-01  0.51100000000E-03 0. -1.
</event>
<event>
 8    1  0.1090774E+005  0.1043930E+01  0.7957747E-01            NaN
         13   -1    0    0    0    0  0.00000000000E+00  0.00000000000E+00  0.74505805969E-08  0.10566000000E+00  0.10566000000E+00 0. -1.
     999900   -1    0    0    0    0 -0.00000000000E+00 -0.00000000000E+00 -0.74505805969E-08  0.93827000000E+00  0.93827000000E+00 0.  1.
     999902    2    1    2    0    0  0.11841320868E-01  0.19683547594E-01  0.59348058713E-02  0.10202048900E+01  0.10199289861E+01 0.  0.
     999903    2    3    3    0    0 -0.41828058073E-01  0.23570675891E-01 -0.11890646469E+00  0.12976631552E+00  0.19884317823E-01 0.  0.
         14    1    1    2    0    0 -0.11841320868E-01 -0.19683547594E-01 -0.59348058713E-02  0.23725110043E-01  0.00000000000E+00 0.  1.
     999901    1    3    3    0    0  0.53669378941E-01 -0.38871282968E-02  0.12484127056E+00  0.89043857443E+00  0.88000000000E+00 0. -1.
        -11    1    4    4    0    0 -0.15171567035E-01  0.18394487332E-01 -0.68113424076E-01  0.72168090392E-01  0.51100000000E-03 0.  1.
         11    1    4    4    0    0 -0.26656491037E-01  0.51761885596E-02 -0.50793040615E-01  0.57598225132E-01  0.51100000000E-03 0. -1.
</event>
<event>
 8    1  0.1090774E+005  0.1043930E+01  0.7957747E-01            NaN
         13   -1    0    0    0    0  0.00000000000E+00  0.00000000000E+00  0.74505805969E-08  0.10566000000E+00  0.10566000000E+00 0. -1.
     999900   -1    0    0    0    0 -0.00000000000E+00 -0.00000000000E+00 -0.74505805969E-08  0.93827000000E+00  0.93827000000E+00 0. -1.
     999902    2    1    2    0    0 -0.14433204938E-01 -0.68768226500E-02  0.19472710043E-01  0.10187348709E+01  0.10184232630E+01 0.  0.
     999903    2    3    3    0    0 -0.19249662642E-01  0.10493948453E+00  0.71963768398E-01  0.13009467597E+00  0.19052449417E-01 0.  0.
         14    1    1    2    0    0  0.14433204938E-01  0.68768226500E-02 -0.19472710043E-01  0.25195129112E-01  0.00000000000E+00 0.  1.
     999901    1    3    3    0    0  0.48164577032E-02 -0.11181630718E+00 -0.52491058355E-01  0.88864019492E+00  0.88000000000E+00 0.  1.
        -11    1    4    4    0    0 -0.18259714255E-01  0.47983429524E-01  0.31807722207E-01  0.60397176975E-01  0.51100000000E-03 0. -1.
         11    1    4    4    0    0 -0.98994838688E-03  0.56956055005E-01  0.40156046190E-01  0.69697498996E-01  0.51100000000E-03 0.  1.
</event>
<event>
 8    1  0.1090774E+005  0.1043930E+01  0.7957747E-01            NaN
         13   -1    0    0    0    0  0.00000000000E+00  0.00000000000E+00  0.74505805969E-08  0.10566000000E+00  0.10566000000E+00 0. -1.
     999900   -1    0    0    0    0 -0.00000000000E+00 -0.00000000000E+00 -0.74505805969E-08  0.93827000000E+00  0.93827000000E+00 0.  1.
     999902    2    1    2    0    0 -0.17675797859E-01 -0.13267762405E-01 -0.93793456667E-02  0.10199208460E+01  0.10196382166E+01 0.  0.
     999903    2    3    3    0    0 -0.69535003393E-01  0.59232737483E-01 -0.92517876272E-01  0.13151907039E+00  0.19851311315E-01 0.  0.
         14    1    1    2    0    0  0.17675797859E-01  0.13267762405E-01  0.93793456667E-02  0.24009153969E-01  0.00000000000E+00 0. -1.
     999901    1    3    3    0    0  0.51859205534E-01 -0.72500499888E-01  0.83138530605E-01  0.88840177564E+00  0.88000000000E+00 0. -1.
        -11    1    4    4    0    0 -0.58359066735E-01  0.53736870071E-01 -0.70088129189E-01  0.10585857948E+00  0.51100000000E-03 0. -1.
         11    1    4    4    0    0 -0.11175936658E-01  0.54958674122E-02 -0.22429747083E-01  0.25660490915E-01  0.51100000000E-03 0.  1.
</event>
<event>
 8    1  0.1090774E+005  0.1043930E+01  0.7957747E-01            NaN
         13   -1    0    0    0    0  0.00000000000E+00  0.00000000000E+00  0.74505805969E-08  0.10566000000E+00  0.10566000000E+00 0.  1.
     999900   -1    0    0    0    0 -0.00000000000E+00 -0.00000000000E+00 -0.74505805969E-08  0.93827000000E+00  0.93827000000E+00 0. -1.
     999902    2    1    2    0    0 -0.11557968376E-01  0.11466987884E-01 -0.17070828038E-01  0.10203399255E+01  0.10200671899E+01 0.  0.
     999903    2    3    3    0    0  0.11915765995E+00  0.50589292234E-02 -0.48002740380E-01  0.13012398435E+00  0.20095958047E-01 0.  0.
         14    1    1    2    0    0  0.11557968376E-01 -0.11466987884E-01  0.17070828038E-01  0.23590074481E-01  0.00000000000E+00 0.  1.
     999901    1    3    3    0    0 -0.13071562833E+00  0.64080586601E-02  0.30931912342E-01  0.89021594117E+00  0.88000000000E+00 0. -1.
        -11    1    4    4    0    0  0.29949233968E-01 -0.62656344320E-02 -0.16982163030E-01  0.34998139555E-01  0.51100000000E-03 0.  1.
         11    1    4    4    0    0  0.89208425984E-01  0.11324563655E-01 -0.31020577350E-01  0.95125844798E-01  0.51100000000E-03 0. -1.
</event>
<event>
 8    1  0.1090774E+005  0.1043930E+01  0.7957747E-01            NaN
         13   -1    0    0    0    0  0.00000000000E+00  0.00000000000E+00  0.74505805969E-08  0.10566000000E+00  0.10566000000E+00 0. -1.
     999900   -1    0    0    0    0 -0.00000000000E+00 -0.00000000000E+00 -0.74505805969E-08  0.93827000000E+00  0.93827000000E+00 0. -1.
     999902    2    1    2    0    0 -0.10460852311E-01 -0.20094823857E-01 -0.69217171897E-02  0.10202415736E+01  0.10199665323E+01 0.  0.
     999903    2    3    3    0    0  0.68379548206E-01 -0.11095111182E+00 -0.39051681182E-02  0.13205253212E+00  0.20897585397E-01 0.  0.
         14    1    1    2    0    0  0.10460852311E-01  0.20094823857E-01  0.69217171897E-02  0.23688426410E-01  0.00000000000E+00 0. -1.
     999901    1    3    3    0    0 -0.78840400518E-01  0.90856287959E-01 -0.30165490715E-02  0.88818904147E+00  0.88000000000E+00 0.  1.
        -11    1    4    4    0    0  0.43204992388E-01 -0.50614265928E-01 -0.40566709075E-02  0.66672280466E-01  0.51100000000E-03 0.  1.
         11    1    4    4    0    0  0.25174555818E-01 -0.60336845889E-01  0.15150278938E-03  0.65380251656E-01  0.51100000000E-03 0. -1.
</event>
<event>
 8    1  0.1090774E+005  0.1043930E+01  0.7957747E-01            NaN
         13   -1    0    0    0    0  0.00000000000E+00  0.00000000000E+00  0.74505805969E-08  0.10566000000E+00  0.10566000000E+00 0.  1.
     999900   -1    0    0    0    0 -0.00000000000E+00 -0.00000000000E+00 -0.74505805969E-08  0.93827000000E+00  0.93827000000E+00 0. -1.
     999902    2    1    2    0    0 -0.52967873004E-02 -0.28253105360E-01 -0.14163607144E-02  0.10151497985E+01  0.10147417472E+01 0.  0.
     999903    2    3    3    0    0 -0.32212193828E-01  0.31871101204E-01 -0.11512231955E+00  0.12539230102E+00  0.20412941357E-01 0.  0.
         14    1    1    2    0    0  0.52967873004E-02  0.28253105360E-01  0.14163607144E-02  0.28780201456E-01  0.00000000000E+00 0.  1.
     999901    1    3    3    0    0  0.26915406528E-01 -0.60124206564E-01  0.11370595883E+00  0.88975749752E+00  0.88000000000E+00 0.  1.
        -11    1    4    4    0    0 -0.29835731345E-01  0.18573630002E-01 -0.70639763975E-01  0.78901127824E-01  0.51100000000E-03 0.  1.
         11    1    4    4    0    0 -0.23764624832E-02  0.13297471201E-01 -0.44482555570E-01  0.46491173198E-01  0.51100000000E-03 0. -1.
</event>
<event>
 8    1  0.1090774E+005  0.1043930E+01  0.7957747E-01            NaN
         13   -1    0    0    0    0  0.00000000000E+00  0.00000000000E+00  0.74505805969E-08  0.10566000000E+00  0.10566000000E+00 0. -1.
     999900   -1    0    0    0    0 -0.00000000000E+00 -0.00000000000E+00 -0.74505805969E-08  0.93827000000E+00  0.93827000000E+00 0.  1.
     999902    2    1    2    0    0  0.16073499707E-01  0.68614330583E-02 -0.10529480345E-01  0.10235264069E+01  0.10233230179E+01 0.  0.
     999903    2    3    3    0    0  0.71985164373E-01 -0.10178969578E+00 -0.45970312904E-01  0.13437668120E+00  0.20020407686E-01 0.  0.
         14    1    1    2    0    0 -0.16073499707E-01 -0.68614330583E-02  0.10529480345E-01  0.20403593135E-01  0.00000000000E+00 0.  1.
     999901    1    3    3    0    0 -0.55911664666E-01  0.10865112884E+00  0.35440832558E-01  0.88914972567E+00  0.88000000000E+00 0. -1.
        -11    1    4    4    0    0  0.53701720687E-01 -0.63289846979E-01 -0.23893938393E-01  0.86375117645E-01  0.51100000000E-03 0. -1.
         11    1    4    4    0    0  0.18283443687E-01 -0.38499848803E-01 -0.22076374511E-01  0.48001563552E-01  0.51100000000E-03 0.  1.
</event>
<event>
 8    1  0.1090774E+005  0.1043930E+01  0.7957747E-01            NaN
         13   -1    0    0    0    0  0.00000000000E+00  0.00000000000E+00  0.74505805969E-08  0.10566000000E+00  0.10566000000E+00 0. -1.
     999900   -1    0    0    0    0 -0.00000000000E+00 -0.00000000000E+00 -0.74505805969E-08  0.93827000000E+00  0.93827000000E+00 0. -1.
     999902    2    1    2    0    0  0.18688051137E-01 -0.10814888110E-01  0.58231675648E-02  0.10215667636E+01  0.10213219562E+01 0.  0.
     999903    2    3    3    0    0 -0.61314732833E-02  0.11035129054E+00  0.67063514033E-01  0.13080998894E+00  0.19968375053E-01 0.  0.
         14    1    1    2    0    0 -0.18688051137E-01  0.10814888110E-01 -0.58231675648E-02  0.22363236362E-01  0.00000000000E+00 0. -1.
     999901    1    3    3    0    0  0.24819524420E-01 -0.12116617865E+00 -0.61240346468E-01  0.89075677470E+00  0.88000000000E+00 0. -1.
        -11    1    4    4    0    0 -0.98633722114E-02  0.77443497077E-01  0.55252294784E-01  0.95644438160E-01  0.51100000000E-03 0.  1.
         11    1    4    4    0    0  0.37318989281E-02  0.32907793464E-01  0.11811219249E-01  0.35165550776E-01  0.51100000000E-03 0. -1.
</event>
<event>
 8    1  0.1090774E+005  0.1043930E+01  0.7957747E-01            NaN
         13   -1    0    0    0    0  0.00000000000E+00  0.00000000000E+00  0.74505805969E-08  0.10566000000E+00  0.10566000000E+00 0. -1.
     999900   -1    0    0    0    0 -0.00000000000E+00 -0.00000000000E+00 -0.74505805969E-08  0.93827000000E+00  0.93827000000E+00 0. -1.
     999902    2    1    2    0    0  0.14349073330E-01  0.18184085113E-01  0.19679275561E-02  0.10206828583E+01  0.10204180848E+01 0.  0.
     999903    2    3    3    0    0 -0.10053065849E-01 -0.12434543981E+00  0.24493000563E-01  0.12859681496E+00  0.19348932911E-01 0.  0.
         14    1    1    2    0    0 -0.14349073330E-01 -0.18184085113E-01 -0.19679275561E-02  0.23247141667E-01  0.00000000000E+00 0. -1.
     999901    1    3    3    0    0  0.24402139179E-01  0.14252952493E+00 -0.22525073007E-01  0.89208604338E+00  0.88000000000E+00 0. -1.
        -11    1    4    4    0    0  0.44890002876E-02 -0.61579791986E-01  0.14083101267E-01  0.63331009521E-01  0.51100000000E-03 0.  1.
         11    1    4    4    0    0 -0.14542066137E-01 -0.62765647828E-01  0.10409899296E-01  0.65265805436E-01  0.51100000000E-03 0. -1.
</event>
<event>
 8    1  0.1090774E+005  0.1043930E+01  0.7957747E-01            NaN
         13   -1    0    0    0    0  0.00000000000E+00  0.00000000000E+00  0.74505805969E-08  0.10566000000E+00  0.10566000000E+00 0.  1.
     999900   -1    0    0    0    0 -0.00000000000E+00 -0.00000000000E+00 -0.74505805969E-08  0.93827000000E+00  0.93827000000E+00 0.  1.
     999902    2    1    2    0    0 -0.18542434765E-01  0.14704131047E-01 -0.16219856463E-01  0.10152399826E+01  0.10148345210E+01 0.  0.
     999903    2    3    3    0    0 -0.59520625048E-01  0.19554468255E-01  0.10701887783E+00  0.12569486090E+00  0.20520131772E-01 0.  0.
         14    1    1    2    0    0  0.18542434765E-01 -0.14704131047E-01  0.16219856463E-01  0.28690017437E-01  0.00000000000E+00 0. -1.
     999901    1    3    3    0    0  0.40978190283E-01 -0.48503372075E-02 -0.12323873430E+00  0.88954512167E+00  0.88000000000E+00 0.  1.
        -11    1    4    4    0    0 -0.49034563780E-01  0.91030076034E-02  0.91693318951E-01  0.10437997439E+00  0.51100000000E-03 0.  1.
         11    1    4    4    0    0 -0.10486061268E-01  0.10451460651E-01  0.15325558884E-01  0.21314886506E-01  0.51100000000E-03 0. -1.
</event>
<event>
 8    1  0.1090774E+005  0.1043930E+01  0.7957747E-01            NaN
         13   -1    0    0    0    0  0.00000000000E+00  0.00000000000E+00  0.74505805969E-08  0.10566000000E+00  0.10566000000E+00 0.  1.
     999900   -1    0    0    0    0 -0.00000000000E+00 -0.00000000000E+00 -0.74505805969E-08  0.93827000000E+00  0.93827000000E+00 0. -1.
     999902    2    1    2    0    0  0.18064691102E-01  0.10063454778E-01  0.10647771465E-01  0.10206709969E+01  0.10204059500E+01 0.  0.
     999903    2    3    3    0    0  0.94186526979E-01  0.88053583160E-02 -0.89425755140E-01  0.13173296341E+00  0.20198311018E-01 0.  0.
         14    1    1    2    0    0 -0.18064691102E-01 -0.10063454778E-01 -0.10647771465E-01  0.23259003071E-01  0.00000000000E+00 0. -1.
     999901    1    3    3    0    0 -0.76121835877E-01  0.12580964618E-02  0.10007352660E+00  0.88893803352E+00  0.88000000000E+00 0.  1.
        -11    1    4    4    0    0  0.38555233337E-01 -0.36468596910E-02 -0.27125570972E-01  0.47284916462E-01  0.51100000000E-03 0.  1.
         11    1    4    4    0    0  0.55631293642E-01  0.12452218007E-01 -0.62300184167E-01  0.84448046951E-01  0.51100000000E-03 0. -1.
</event>
<event>
 8    1  0.1090774E+005  0.1043930E+01  0.7957747E-01            NaN
         13   -1    0    0    0    0  0.00000000000E+00  0.00000000000E+00  0.74505805969E-08  0.10566000000E+00  0.10566000000E+00 0.  1.
     999900   -1    0    0    0    0 -0.00000000000E+00 -0.00000000000E+00 -0.74505805969E-08  0.93827000000E+00  0.93827000000E+00 0.  1.
     999902    2    1    2    0    0 -0.19981486619E-01 -0.40563369826E-02 -0.11548938913E-01  0.10204972949E+01  0.10202282280E+01 0.  0.
     999903    2    3    3    0    0 -0.66537301519E-01  0.10832394584E+00 -0.29394812133E-01  0.13195058987E+00  0.19637042845E-01 0.  0.
         14    1    1    2    0    0  0.19981486619E-01  0.40563369826E-02  0.11548938913E-01  0.23432705077E-01  0.00000000000E+00 0.  1.
     999901    1    3    3    0    0  0.46555814901E-01 -0.11238028282E+00  0.17845873220E-01  0.88854670505E+00  0.88000000000E+00 0. -1.
        -11    1    4    4    0    0 -0.57529125558E-01  0.78741339952E-01 -0.25339591859E-01  0.10075790263E+00  0.51100000000E-03 0.  1.
         11    1    4    4    0    0 -0.90081759614E-02  0.29582605886E-01 -0.40552202737E-02  0.31192687246E-01  0.51100000000E-03 0. -1.
</event>
<event>
 8    1  0.1090774E+005  0.1043930E+01  0.7957747E-01            NaN
         13   -1    0    0    0    0  0.00000000000E+00  0.00000000000E+00  0.74505805969E-08  0.10566000000E+00  0.10566000000E+00 0. -1.
     999900   -1    0    0    0    0 -0.00000000000E+00 -0.00000000000E+00 -0.74505805969E-08  0.93827000000E+00  0.93827000000E+00 0. -1.
     999902    2    1    2    0    0  0.12924349420E-01 -0.17130507633E-01 -0.95431298268E-02  0.10204445912E+01  0.10201742985E+01 0.  0.
     999903    2    3    3    0    0  0.12260434902E+00 -0.29525097464E-02  0.43940726684E-01  0.13191139495E+00  0.20719192609E-01 0.  0.
         14    1    1    2    0    0 -0.12924349420E-01  0.17130507633E-01  0.95431298268E-02  0.23485408801E-01  0.00000000000E+00 0. -1.
     999901    1    3    3    0    0 -0.10967999960E+00 -0.14177997886E-01 -0.53483856511E-01  0.88853319625E+00  0.88000000000E+00 0.  1.
        -11    1    4    4    0    0  0.10314269836E+00 -0.87534272155E-02  0.41202734864E-01  0.11141348749E+00  0.51100000000E-03 0.  1.
         11    1    4    4    0    0  0.19461650664E-01  0.58009174691E-02  0.27379918200E-02  0.20497907460E-01  0.51100000000E-03 0. -1.
</event>
<event>
 7    1  0.1090774E+005  0.1043930E+01  0.7957747E-01            NaN
         13   -1    0    0    0    0  0.00000000000E+00  0.00000000000E+00  0.74505805969E-08  0.10566000000E+00  0.10566000000E+00 0. -1.
     999900   -1    0    0    0    0 -0.00000000000E+00 -0.00000000000E+00 -0.74505805969E-08  0.93827000000E+00  0.93827000000E+00 0.  1.
     999903    2    1    2    0    0  0.24725382889E-01 -0.46442199680E-01 -0.60012770031E-01  0.83119448238E-01  0.23218260882E-01 0.  0.
         14    1    1    2    0    0 -0.22961873149E-01 -0.64077048261E-01 -0.18187807972E-01  0.70455035953E-01  0.00000000000E+00 0. -1.
     999901    1    1    2    0    0 -0.17635097404E-02  0.11051924794E+00  0.78200578003E-01  0.89035551581E+00  0.88000000000E+00 0.  1.
        -11    1    3    3    0    0  0.27041776589E-01 -0.41718002630E-01 -0.44477863297E-01  0.66709750929E-01  0.51100000000E-03 0.  1.
         11    1    3    3    0    0 -0.23163936993E-02 -0.47241970504E-02 -0.15534906734E-01  0.16409697309E-01  0.51100000000E-03 0. -1.
</event>
<event>
 8    1  0.1090774E+005  0.1043930E+01  0.7957747E-01            NaN
         13   -1    0    0    0    0  0.00000000000E+00  0.00000000000E+00  0.74505805969E-08  0.10566000000E+00  0.10566000000E+00 0.  1.
     999900   -1    0    0    0    0 -0.00000000000E+00 -0.00000000000E+00 -0.74505805969E-08  0.93827000000E+00  0.93827000000E+00 0. -1.
     999902    2    1    2    0    0  0.58851913100E-02  0.23042411959E-01  0.64880116595E-03  0.10201390528E+01  0.10198615974E+01 0.  0.
     999903    2    3    3    0    0 -0.34022347909E-01 -0.63307328454E-01  0.10501763881E+00  0.12888053608E+00  0.20399757982E-01 0.  0.
         14    1    1    2    0    0 -0.58851913100E-02 -0.23042411959E-01 -0.64880116595E-03  0.23790947198E-01  0.00000000000E+00 0.  1.
     999901    1    3    3    0    0  0.39907539219E-01  0.86349740412E-01 -0.10436883765E+00  0.89125851672E+00  0.88000000000E+00 0. -1.
        -11    1    4    4    0    0 -0.18130365632E-01 -0.14473257064E-01  0.36509860548E-01  0.43259870159E-01  0.51100000000E-03 0.  1.
         11    1    4    4    0    0 -0.15891982278E-01 -0.48834071390E-01  0.68507778265E-01  0.85620665922E-01  0.51100000000E-03 0. -1.
</event>
<event>
 8    1  0.1090774E+005  0.1043930E+01  0.7957747E-01            NaN
         13   -1    0    0    0    0  0.00000000000E+00  0.00000000000E+00  0.74505805969E-08  0.10566000000E+00  0.10566000000E+00 0.  1.
     999900   -1    0    0    0    0 -0.00000000000E+00 -0.00000000000E+00 -0.74505805969E-08  0.93827000000E+00  0.93827000000E+00 0.  1.
     999902    2    1    2    0    0 -0.12752275133E-01  0.12557738276E-02  0.19415438366E-01  0.10206672242E+01  0.10204020903E+01 0.  0.
     999903    2    3    3    0    0 -0.26234253131E-01  0.11048737420E+00  0.65201448147E-01  0.13263025151E+00  0.21067958624E-01 0.  0.
         14    1    1    2    0    0  0.12752275133E-01 -0.12557738276E-02 -0.19415438366E-01  0.23262775757E-01  0.00000000000E+00 0. -1.
     999901    1    3    3    0    0  0.13481977998E-01 -0.10923160037E+00 -0.45786009780E-01  0.88803697273E+00  0.88000000000E+00 0. -1.
        -11    1    4    4    0    0  0.34567758425E-02  0.86938537614E-02  0.67743156809E-02  0.11562217192E-01  0.51100000000E-03 0. -1.
         11    1    4    4    0    0 -0.29691028973E-01  0.10179352044E+00  0.58427132466E-01  0.12106803432E+00  0.51100000000E-03 0.  1.
</event>
<event>
 8    1  0.1090774E+005  0.1043930E+01  0.7957747E-01            NaN
         13   -1    0    0    0    0  0.00000000000E+00  0.00000000000E+00  0.74505805969E-08  0.10566000000E+00  0.10566000000E+00 0.  1.
     999900   -1    0    0    0    0 -0.00000000000E+00 -0.00000000000E+00 -0.74505805969E-08  0.93827000000E+00  0.93827000000E+00 0. -1.
     999902    2    1    2    0    0 -0.16815489974E-02  0.24485625904E-01 -0.36578787441E-02  0.10191156179E+01  0.10188134712E+01 0.  0.
     999903    2    3    3    0    0  0.57541218517E-01 -0.10696768988E+00  0.30351185347E-01  0.12673457435E+00  0.19681955615E-01 0.  0.
         14    1    1    2    0    0  0.16815489974E-02 -0.24485625904E-01  0.36578787441E-02  0.24814382117E-01  0.00000000000E+00 0. -1.
     999901    1    3    3    0    0 -0.59222767514E-01  0.13145331578E+00 -0.34009064091E-01  0.89238104354E+00  0.88000000000E+00 0.  1.
        -11    1    4    4    0    0  0.19581255817E-01 -0.57140834217E-01  0.15031030614E-01  0.62247036208E-01  0.51100000000E-03 0.  1.
         11    1    4    4    0    0  0.37959962700E-01 -0.49826855661E-01  0.15320154733E-01  0.64487538139E-01  0.51100000000E-03 0. -1.
</event>
<event>
 8    1  0.1090774E+005  0.1043930E+01  0.7957747E-01            NaN
         13   -1    0    0    0    0  0.00000000000E+00  0.00000000000E+00  0.74505805969E-08  0.10566000000E+00  0.10566000000E+00 0.  1.
     999900   -1    0    0    0    0 -0.00000000000E+00 -0.00000000000E+00 -0.74505805969E-08  0.93827000000E+00  0.93827000000E+00 0.  1.
     999902    2    1    2    0    0  0.73895199789E-02 -0.12989603695E-01 -0.18214715012E-01  0.10203692137E+01  0.10200971628E+01 0.  0.
     999903    2    3    3    0    0  0.11248892984E+00  0.60800281837E-01  0.15530442940E-01  0.13040878261E+00  0.20367187259E-01 0.  0.
         14    1    1    2    0    0 -0.73895199789E-02  0.12989603695E-01  0.18214715012E-01  0.23560786333E-01  0.00000000000E+00 0.  1.
     999901    1    3    3    0    0 -0.10509940986E+00 -0.73789885533E-01 -0.33745157951E-01  0.88996043106E+00  0.88000000000E+00 0.  1.
        -11    1    4    4    0    0  0.45455940236E-01  0.28456164113E-01 -0.29736083861E-02  0.53713119874E-01  0.51100000000E-03 0.  1.
         11    1    4    4    0    0  0.67032989602E-01  0.32344117724E-01  0.18504051326E-01  0.76695662738E-01  0.51100000000E-03 0. -1.
</event>
<event>
 8    1  0.1090774E+005  0.1043930E+01  0.7957747E-01            NaN
         13   -1    0    0    0    0  0.00000000000E+00  0.00000000000E+00  0.74505805969E-08  0.10566000000E+00  0.10566000000E+00 0.  1.
     999900   -1    0    0    0    0 -0.00000000000E+00 -0.00000000000E+00 -0.74505805969E-08  0.93827000000E+00  0.93827000000E+00 0. -1.
     999902    2    1    2    0    0  0.20780119710E-01  0.19922519699E-02 -0.12390703623E-01  0.10196542512E+01  0.10193652339E+01 0.  0.
     999903    2    3    3    0    0 -0.11016078873E+00 -0.26857318413E-02  0.59834990420E-01  0.12702669398E+00  0.20320983652E-01 0.  0.
         14    1    1    2    0    0 -0.20780119710E-01 -0.19922519699E-02  0.12390703623E-01  0.24275748791E-01  0.00000000000E+00 0.  1.
     999901    1    3    3    0    0  0.13094090844E+00  0.46779838112E-02 -0.72225694043E-01  0.89262755722E+00  0.88000000000E+00 0. -1.
        -11    1    4    4    0    0 -0.47719142226E-02  0.16585538801E-02 -0.11219638522E-02  0.52001817474E-02  0.51100000000E-03 0. -1.
         11    1    4    4    0    0 -0.10538887451E+00 -0.43442857213E-02  0.60956954272E-01  0.12182651224E+00  0.51100000000E-03 0.  1.
</event>
<event>
 8    1  0.1090774E+005  0.1043930E+01  0.7957747E-01            NaN
         13   -1    0    0    0    0  0.00000000000E+00  0.00000000000E+00  0.74505805969E-08  0.10566000000E+00  0.10566000000E+00 0. -1.
     999900   -1    0    0    0    0 -0.00000000000E+00 -0.00000000000E+00 -0.74505805969E-08  0.93827000000E+00  0.93827000000E+00 0.  1.
     999902    2    1    2    0    0  0.18836728237E-01  0.21629593118E-02  0.13044948849E-01  0.10209154087E+01  0.10206559657E+01 0.  0.
     999903    2    3    3    0    0 -0.10658381712E+00 -0.16453584237E-01  0.70049058820E-01  0.13000219323E+00  0.19049123279E-01 0.  0.
         14    1    1    2    0    0 -0.18836728237E-01 -0.21629593118E-02 -0.13044948849E-01  0.23014591331E-01  0.00000000000E+00 0.  1.
     999901    1    3    3    0    0  0.12542054535E+00  0.18616543548E-01 -0.57004109971E-01  0.89091321544E+00  0.88000000000E+00 0. -1.
        -11    1    4    4    0    0 -0.40383693954E-01 -0.15618554609E-01  0.28398419624E-01  0.51783330750E-01  0.51100000000E-03 0. -1.
         11    1    4    4    0    0 -0.66200123163E-01 -0.83502962770E-03  0.41650639196E-01  0.78218862480E-01  0.51100000000E-03 0.  1.
</event>
<event>
 8    1  0.1090774E+005  0.1043930E+01  0.7957747E-01            NaN
         13   -1    0    0    0    0  0.00000000000E+00  0.00000000000E+00  0.74505805969E-08  0.10566000000E+00  0.10566000000E+00 0. -1.
     999900   -1    0    0    0    0 -0.00000000000E+00 -0.00000000000E+00 -0.74505805969E-08  0.93827000000E+00  0.93827000000E+00 0.  1.
     999902    2    1    2    0    0 -0.12591979273E-02  0.15242348000E-01 -0.19102578104E-01  0.10194591348E+01  0.10191653960E+01 0.  0.
     999903    2    3    3    0    0 -0.10488910284E+00 -0.72252527010E-01 -0.31711479700E-02  0.12892652969E+00  0.19744425183E-01 0.  0.
         14    1    1    2    0    0  0.12591979273E-02 -0.15242348000E-01  0.19102578104E-01  0.24470865171E-01  0.00000000000E+00 0. -1.
     999901    1    3    3    0    0  0.10362990491E+00  0.87494875010E-01 -0.15931430134E-01  0.89053260514E+00  0.88000000000E+00 0.  1.
        -11    1    4    4    0    0 -0.50060388985E-01 -0.26538463913E-01 -0.86947005472E-02  0.57325313351E-01  0.51100000000E-03 0. -1.
         11    1    4    4    0    0 -0.54828713853E-01 -0.45714063097E-01  0.55235525772E-02  0.71601216342E-01  0.51100000000E-03 0.  1.
</event>
<event>
 8    1  0.1090774E+005  0.1043930E+01  0.7957747E-01            NaN
         13   -1    0    0    0    0  0.00000000000E+00  0.00000000000E+00  0.74505805969E-08  0.10566000000E+00  0.10566000000E+00 0.  1.
     999900   -1    0    0    0    0 -0.00000000000E+00 -0.00000000000E+00 -0.74505805969E-08  0.93827000000E+00  0.93827000000E+00 0. -1.
     999902    2    1    2    0    0 -0.15871115814E-01  0.92704303821E-02 -0.13156744483E-01  0.10213261702E+01  0.10210760074E+01 0.  0.
     999903    2    3    3    0    0  0.10115000151E+00  0.80179187979E-01 -0.36182380676E-02  0.13070112175E+00  0.20240222048E-01 0.  0.
         14    1    1    2    0    0  0.15871115814E-01 -0.92704303821E-02  0.13156744483E-01  0.22603829810E-01  0.00000000000E+00 0.  1.
     999901    1    3    3    0    0 -0.11702111733E+00 -0.70908757597E-01 -0.95385064158E-02  0.89062504844E+00  0.88000000000E+00 0.  1.
        -11    1    4    4    0    0  0.85569541768E-01  0.70427412859E-01 -0.99062002231E-02  0.11126796882E+00  0.51100000000E-03 0. -1.
         11    1    4    4    0    0  0.15580459746E-01  0.97517751197E-02  0.62879621555E-02  0.19433152934E-01  0.51100000000E-03 0.  1.
</event>
<event>
 8    1  0.1090774E+005  0.1043930E+01  0.7957747E-01            NaN
         13   -1    0    0    0    0  0.00000000000E+00  0.00000000000E+00  0.74505805969E-08  0.10566000000E+00  0.10566000000E+00 0. -1.
     999900   -1    0    0    0    0 -0.00000000000E+00 -0.00000000000E+00 -0.74505805969E-08  0.93827000000E+00  0.93827000000E+00 0.  1.
     999902    2    1    2    0    0 -0.83179490646E-02 -0.17051454157E-01  0.14330223258E-01  0.10201540528E+01  0.10198769513E+01 0.  0.
     999903    2    3    3    0    0 -0.94272176600E-01  0.86996390881E-01 -0.79395805462E-04  0.12974868424E+00  0.19470476366E-01 0.  0.
         14    1    1    2    0    0  0.83179490646E-02  0.17051454157E-01 -0.14330223258E-01  0.23775947176E-01  0.00000000000E+00 0.  1.
     999901    1    3    3    0    0  0.85954227536E-01 -0.10404784504E+00  0.14409619063E-01  0.89040536859E+00  0.88000000000E+00 0. -1.
        -11    1    4    4    0    0 -0.56719303135E-01  0.45574048281E-01 -0.83012646055E-02  0.73234181499E-01  0.51100000000E-03 0.  1.
         11    1    4    4    0    0 -0.37552873466E-01  0.41422342600E-01  0.82218688000E-02  0.56514502736E-01  0.51100000000E-03 0. -1.
</event>
<event>
 8    1  0.1090774E+005  0.1043930E+01  0.7957747E-01            NaN
         13   -1    0    0    0    0  0.00000000000E+00  0.00000000000E+00  0.74505805969E-08  0.10566000000E+00  0.10566000000E+00 0.  1.
     999900   -1    0    0    0    0 -0.00000000000E+00 -0.00000000000E+00 -0.74505805969E-08  0.93827000000E+00  0.93827000000E+00 0.  1.
     999902    2    1    2    0    0  0.31704766338E-03  0.91610956196E-02  0.18644811706E-01  0.10231536867E+01  0.10229427214E+01 0.  0.
     999903    2    3    3    0    0  0.47685465540E-01  0.41332613796E-01  0.11850169572E+00  0.13565711153E+00  0.19439944237E-01 0.  0.
         14    1    1    2    0    0 -0.31704766338E-03 -0.91610956196E-02 -0.18644811706E-01  0.20776313334E-01  0.00000000000E+00 0.  1.
     999901    1    3    3    0    0 -0.47368417876E-01 -0.32171518176E-01 -0.99856884019E-01  0.88749657514E+00  0.88000000000E+00 0.  1.
        -11    1    4    4    0    0  0.10033062471E-01  0.15895709872E-01  0.21659890890E-01  0.28683582922E-01  0.51100000000E-03 0. -1.
         11    1    4    4    0    0  0.37652403069E-01  0.25436903924E-01  0.96841804835E-01  0.10697352861E+00  0.51100000000E-03 0.  1.
</event>
<event>
 8    1  0.1090774E+005  0.1043930E+01  0.7957747E-01            NaN
         13   -1    0    0    0    0  0.00000000000E+00  0.00000000000E+00  0.74505805969E-08  0.10566000000E+00  0.10566000000E+00 0.  1.
     999900   -1    0    0    0    0 -0.00000000000E+00 -0.00000000000E+00 -0.74505805969E-08  0.93827000000E+00  0.93827000000E+00 0. -1.
     999902    2    1    2    0    0  0.21578020796E-01 -0.61688676363E-02 -0.65779215853E-02  0.10205433593E+01  0.10202753615E+01 0.  0.
     999903    2    3    3    0    0  0.10055853731E+00 -0.62745220269E-01 -0.58237451563E-01  0.13369077141E+00  0.20799988037E-01 0.  0.
         14    1    1    2    0    0 -0.21578020796E-01  0.61688676363E-02  0.65779215853E-02  0.23386640669E-01  0.00000000000E+00 0. -1.
     999901    1    3    3    0    0 -0.78980516517E-01  0.56576352632E-01  0.51659529977E-01  0.88685258792E+00  0.88000000000E+00 0.  1.
        -11    1    4    4    0    0  0.85969283076E-01 -0.45986727608E-01 -0.41964327776E-01  0.10614500777E+00  0.51100000000E-03 0. -1.
         11    1    4    4    0    0  0.14589254237E-01 -0.16758492660E-01 -0.16273123787E-01  0.27545763635E-01  0.51100000000E-03 0.  1.
</event>
<event>
 8    1  0.1090774E+005  0.1043930E+01  0.7957747E-01            NaN
         13   -1    0    0    0    0  0.00000000000E+00  0.00000000000E+00  0.74505805969E-08  0.10566000000E+00  0.10566000000E+00 0.  1.
     999900   -1    0    0    0    0 -0.00000000000E+00 -0.00000000000E+00 -0.74505805969E-08  0.93827000000E+00  0.93827000000E+00 0.  1.
     999902    2    1    2    0    0  0.54502200940E-02  0.21275531382E-01  0.71623059865E-02  0.10208290961E+01  0.10205676811E+01 0.  0.
     999903    2    3    3    0    0  0.18800215408E-01  0.35127023308E-01  0.12509092549E+00  0.13275407363E+00  0.19711635149E-01 0.  0.
         14    1    1    2    0    0 -0.54502200940E-02 -0.21275531382E-01 -0.71623059865E-02  0.23100903915E-01  0.00000000000E+00 0.  1.
     999901    1    3    3    0    0 -0.13349995314E-01 -0.13851491926E-01 -0.11792861950E+00  0.88807502245E+00  0.88000000000E+00 0.  1.
        -11    1    4    4    0    0  0.26556191047E-02  0.31093740986E-02  0.42681612473E-01  0.42880084940E-01  0.51100000000E-03 0. -1.
         11    1    4    4    0    0  0.16144596304E-01  0.32017649209E-01  0.82409313018E-01  0.89873988694E-01  0.51100000000E-03 0.  1.
</event>
<event>
 8    1  0.1090774E+005  0.1043930E+01  0.7957747E-01            NaN
         13   -1    0    0    0    0  0.00000000000E+00  0.00000000000E+00  0.74505805969E-08  0.10566000000E+00  0.10566000000E+00 0.  1.
     999900   -1    0    0    0    0 -0.00000000000E+00 -0.00000000000E+00 -0.74505805969E-08  0.93827000000E+00  0.93827000000E+00 0. -1.
     999902    2    1    2    0    0  0.11434024723E-01  0.20105898016E-01 -0.26810528312E-02  0.10206454107E+01  0.10203797735E+01 0.  0.
     999903    2    3    3    0    0 -0.10674108884E+00  0.72052076678E-01  0.14544732162E-01  0.13106096239E+00  0.19500380194E-01 0.  0.
         14    1    1    2    0    0 -0.11434024723E-01 -0.20105898016E-01  0.26810528312E-02  0.23284589339E-01  0.00000000000E+00 0. -1.
     999901    1    3    3    0    0  0.11817511356E+00 -0.51946178662E-01 -0.17225784993E-01  0.88958444827E+00  0.88000000000E+00 0. -1.
        -11    1    4    4    0    0 -0.41841875237E-01  0.38932081329E-01  0.25104326915E-02  0.57210251470E-01  0.51100000000E-03 0. -1.
         11    1    4    4    0    0 -0.64899213602E-01  0.33119995349E-01  0.12034299471E-01  0.73850710916E-01  0.51100000000E-03 0.  1.
</event>
<event>
 8    1  0.1090774E+005  0.1043930E+01  0.7957747E-01            NaN
         13   -1    0    0    0    0  0.00000000000E+00  0.00000000000E+00  0.74505805969E-08  0.10566000000E+00  0.10566000000E+00 0.  1.
     999900   -1    0    0    0    0 -0.00000000000E+00 -0.00000000000E+00 -0.74505805969E-08  0.93827000000E+00  0.93827000000E+00 0.  1.
     999902    2    1    2    0    0 -0.18610118211E-01  0.39684753589E-02  0.13701586180E-01  0.10204817856E+01  0.10202123582E+01 0.  0.
     999903    2    3    3    0    0  0.50105089398E-01  0.50738046390E-01 -0.10432568111E+00  0.12871970499E+00  0.24495823692E-01 0.  0.
         14    1    1    2    0    0  0.18610118211E-01 -0.39684753589E-02 -0.13701586180E-01  0.23448214438E-01  0.00000000000E+00 0.  1.
     999901    1    3    3    0    0 -0.68715207609E-01 -0.46769571031E-01  0.11802726728E+00  0.89176208058E+00  0.88000000000E+00 0. -1.
        -11    1    4    4    0    0  0.44107422344E-01  0.29036783842E-01 -0.70594400313E-01  0.88161386095E-01  0.51100000000E-03 0.  1.
         11    1    4    4    0    0  0.59976670537E-02  0.21701262548E-01 -0.33731280792E-01  0.40558318890E-01  0.51100000000E-03 0. -1.
</event>
<event>
 8    1  0.1090774E+005  0.1043930E+01  0.7957747E-01            NaN
         13   -1    0    0    0    0  0.00000000000E+00  0.00000000000E+00  0.74505805969E-08  0.10566000000E+00  0.10566000000E+00 0.  1.
     999900   -1    0    0    0    0 -0.00000000000E+00 -0.00000000000E+00 -0.74505805969E-08  0.93827000000E+00  0.93827000000E+00 0.  1.
     999902    2    1    2    0    0 -0.24617567153E-02  0.23561545520E-01 -0.35961530736E-02  0.10199688024E+01  0.10196873143E+01 0.  0.
     999903    2    3    3    0    0  0.11215296923E+00  0.64321234796E-01  0.13385309741E-01  0.13143841026E+00  0.19528938071E-01 0.  0.
         14    1    1    2    0    0  0.24617567153E-02 -0.23561545520E-01  0.35961530736E-02  0.23961197598E-01  0.00000000000E+00 0.  1.
     999901    1    3    3    0    0 -0.11461472595E+00 -0.40759689276E-01 -0.16981462815E-01  0.88853039214E+00  0.88000000000E+00 0. -1.
        -11    1    4    4    0    0  0.26412623887E-01  0.65248709698E-02  0.52775475211E-02  0.27718482473E-01  0.51100000000E-03 0.  1.
         11    1    4    4    0    0  0.85740345347E-01  0.57796363826E-01  0.81077622202E-02  0.10371992779E+00  0.51100000000E-03 0. -1.
</event>
<event>
 8    1  0.1090774E+005  0.1043930E+01  0.7957747E-01            NaN
         13   -1    0    0    0    0  0.00000000000E+00  0.00000000000E+00  0.74505805969E-08  0.10566000000E+00  0.10566000000E+00 0. -1.
     999900   -1    0    0    0    0 -0.00000000000E+00 -0.00000000000E+00 -0.74505805969E-08  0.93827000000E+00  0.93827000000E+00 0. -1.
     999902    2    1    2    0    0  0.21423959599E-02  0.15040738046E-02  0.24517785811E-01  0.10192728728E+01  0.10189745902E+01 0.  0.
     999903    2    3    3    0    0  0.78952796028E-02 -0.54889735895E-01  0.11858799829E+00  0.13244562793E+00  0.20087619933E-01 0.  0.
         14    1    1    2    0    0 -0.21423959599E-02 -0.15040738046E-02 -0.24517785811E-01  0.24657127155E-01  0.00000000000E+00 0.  1.
     999901    1    3    3    0    0 -0.57528836428E-02  0.56393809700E-01 -0.94070212475E-01  0.88682724491E+00  0.88000000000E+00 0. -1.
        -11    1    4    4    0    0  0.13392925361E-01 -0.37345453556E-01  0.69551420421E-01  0.80073182493E-01  0.51100000000E-03 0.  1.
         11    1    4    4    0    0 -0.54976457578E-02 -0.17544282339E-01  0.49036577865E-01  0.52372445440E-01  0.51100000000E-03 0. -1.
</event>
<event>
 8    1  0.1090774E+005  0.1043930E+01  0.7957747E-01            NaN
         13   -1    0    0    0    0  0.00000000000E+00  0.00000000000E+00  0.74505805969E-08  0.10566000000E+00  0.10566000000E+00 0.  1.
     999900   -1    0    0    0    0 -0.00000000000E+00 -0.00000000000E+00 -0.74505805969E-08  0.93827000000E+00  0.93827000000E+00 0. -1.
     999902    2    1    2    0    0 -0.34665037220E-01 -0.12311346005E-01  0.98290592034E-02  0.10058531770E+01  0.10051322148E+01 0.  0.
     999903    2    3    3    0    0  0.84453334238E-01 -0.29969989377E-01 -0.67979207393E-01  0.11425060832E+00  0.20036540028E-01 0.  0.
         14    1    1    2    0    0  0.34665037220E-01  0.12311346005E-01 -0.98290592034E-02  0.38076823013E-01  0.00000000000E+00 0. -1.
     999901    1    3    3    0    0 -0.11911837146E+00  0.17658643372E-01  0.77808266597E-01  0.89160256867E+00  0.88000000000E+00 0. -1.
        -11    1    4    4    0    0  0.38269683612E-01 -0.23161239695E-01 -0.38628028835E-01  0.59104969678E-01  0.51100000000E-03 0.  1.
         11    1    4    4    0    0  0.46183650626E-01 -0.68087496822E-02 -0.29351178558E-01  0.55145638641E-01  0.51100000000E-03 0. -1.
</event>
<event>
 8    1  0.1090774E+005  0.1043930E+01  0.7957747E-01            NaN
         13   -1    0    0    0    0  0.00000000000E+00  0.00000000000E+00  0.74505805969E-08  0.10566000000E+00  0.10566000000E+00 0. -1.
     999900   -1    0    0    0    0 -0.00000000000E+00 -0.00000000000E+00 -0.74505805969E-08  0.93827000000E+00  0.93827000000E+00 0.  1.
     999902    2    1    2    0    0 -0.10201056243E-02  0.15168113414E-01 -0.18135324546E-01  0.10202656328E+01  0.10199911564E+01 0.  0.
     999903    2    3    3    0    0 -0.41510356184E-01  0.12254904046E+00 -0.22587640583E-01  0.13280298736E+00  0.19622817237E-01 0.  0.
         14    1    1    2    0    0  0.10201056243E-02 -0.15168113414E-01  0.18135324546E-01  0.23664367230E-01  0.00000000000E+00 0. -1.
     999901    1    3    3    0    0  0.40490250559E-01 -0.10738092704E+00  0.44523160374E-02  0.88746264541E+00  0.88000000000E+00 0. -1.
        -11    1    4    4    0    0 -0.14759675336E-01  0.73680805835E-01 -0.12225242033E-01  0.76134268423E-01  0.51100000000E-03 0. -1.
         11    1    4    4    0    0 -0.26750680848E-01  0.48868234623E-01 -0.10362398551E-01  0.56668718935E-01  0.51100000000E-03 0.  1.
</event>
<event>
 8    1  0.1090774E+005  0.1043930E+01  0.7957747E-01            NaN
         13   -1    0    0    0    0  0.00000000000E+00  0.00000000000E+00  0.74505805969E-08  0.10566000000E+00  0.10566000000E+00 0.  1.
     999900   -1    0    0    0    0 -0.00000000000E+00 -0.00000000000E+00 -0.74505805969E-08  0.93827000000E+00  0.93827000000E+00 0. -1.
     999902    2    1    2    0    0  0.13786872151E-01 -0.19081931780E-01 -0.24397691261E-02  0.10202625025E+01  0.10199879527E+01 0.  0.
     999903    2    3    3    0    0  0.29222647439E-01  0.10149788451E+00  0.71013607131E-01  0.12887417314E+00  0.20244417025E-01 0.  0.
         14    1    1    2    0    0 -0.13786872151E-01  0.19081931780E-01  0.24397691261E-02  0.23667497492E-01  0.00000000000E+00 0. -1.
     999901    1    3    3    0    0 -0.15435775288E-01 -0.12057981629E+00 -0.73453376257E-01  0.89138832937E+00  0.88000000000E+00 0. -1.
        -11    1    4    4    0    0  0.24683948764E-01  0.61292504885E-01  0.52405402686E-01  0.84336562849E-01  0.51100000000E-03 0. -1.
         11    1    4    4    0    0  0.45386986755E-02  0.40205379625E-01  0.18608204446E-01  0.44537610288E-01  0.51100000000E-03 0.  1.
</event>
<event>
 8    1  0.1090774E+005  0.1043930E+01  0.7957747E-01            NaN
         13   -1    0    0    0    0  0.00000000000E+00  0.00000000000E+00  0.74505805969E-08  0.10566000000E+00  0.10566000000E+00 0. -1.
     999900   -1    0    0    0    0 -0.00000000000E+00 -0.00000000000E+00 -0.74505805969E-08  0.93827000000E+00  0.93827000000E+00 0.  1.
     999902    2    1    2    0    0 -0.26147010243E-02  0.11539845911E-02 -0.23549509802E-01  0.10202076950E+01  0.10199318571E+01 0.  0.
     999903    2    3    3    0    0  0.12779644496E+00  0.41126583946E-03  0.11770499092E-01  0.12989588354E+00  0.20057303592E-01 0.  0.
         14    1    1    2    0    0  0.26147010243E-02 -0.11539845911E-02  0.23549509802E-01  0.23722304985E-01  0.00000000000E+00 0. -1.
     999901    1    3    3    0    0 -0.13041114598E+00  0.74271875167E-03 -0.35320008894E-01  0.89031181148E+00  0.88000000000E+00 0. -1.
        -11    1    4    4    0    0  0.42770972785E-01  0.94644098063E-02  0.23619918677E-02  0.43872215496E-01  0.51100000000E-03 0.  1.
         11    1    4    4    0    0  0.85025472175E-01 -0.90531439669E-02  0.94085072242E-02  0.86023668042E-01  0.51100000000E-03 0. -1.
</event>
<event>
 8    1  0.1090774E+005  0.1043930E+01  0.7957747E-01            NaN
         13   -1    0    0    0    0  0.00000000000E+00  0.00000000000E+00  0.74505805969E-08  0.10566000000E+00  0.10566000000E+00 0.  1.
     999900   -1    0    0    0    0 -0.00000000000E+00 -0.00000000000E+00 -0.74505805969E-08  0.93827000000E+00  0.93827000000E+00 0.  1.
     999902    2    1    2    0    0 -0.17625897925E-02 -0.23254919063E-01  0.27543579425E-02  0.10204462935E+01  0.10201760404E+01 0.  0.
     999903    2    3    3    0    0 -0.75722614752E-01 -0.43412173182E-01 -0.96523602604E-01  0.13155231015E+00  0.19252877195E-01 0.  0.
         14    1    1    2    0    0  0.17625897925E-02  0.23254919063E-01 -0.27543579425E-02  0.23483706502E-01  0.00000000000E+00 0.  1.
     999901    1    3    3    0    0  0.73960024959E-01  0.20157254119E-01  0.99277960547E-01  0.88889398335E+00  0.88000000000E+00 0. -1.
        -11    1    4    4    0    0 -0.36694657124E-01 -0.22778562742E-01 -0.33785457402E-01  0.54836840126E-01  0.51100000000E-03 0. -1.
         11    1    4    4    0    0 -0.39027957627E-01 -0.20633610440E-01 -0.62738145202E-01  0.76715470022E-01  0.51100000000E-03 0.  1.
</event>
<event>
 8    1  0.1090774E+005  0.1043930E+01  0.7957747E-01            NaN
         13   -1    0    0    0    0  0.00000000000E+00  0.00000000000E+00  0.74505805969E-08  0.10566000000E+00  0.10566000000E+00 0.  1.
     999900   -1    0    0    0    0 -0.00000000000E+00 -0.00000000000E+00 -0.74505805969E-08  0.93827000000E+00  0.93827000000E+00 0.  1.
     999902    2    1    2    0    0  0.17207633031E-01 -0.23012741995E-02 -0.16905800491E-01  0.10196976954E+01  0.10194097240E+01 0.  0.
     999903    2    3    3    0    0  0.48244873483E-01 -0.81752618986E-03 -0.12217322523E+00  0.13287936983E+00  0.20059755616E-01 0.  0.
         14    1    1    2    0    0 -0.17207633031E-01  0.23012741995E-02  0.16905800491E-01  0.24232304631E-01  0.00000000000E+00 0.  1.
     999901    1    3    3    0    0 -0.31037240452E-01 -0.14837480096E-02  0.10526742474E+00  0.88681832554E+00  0.88000000000E+00 0. -1.
        -11    1    4    4    0    0  0.31662289408E-01 -0.23606003150E-03 -0.52981178756E-01  0.61723761375E-01  0.51100000000E-03 0. -1.
         11    1    4    4    0    0  0.16582584074E-01 -0.58146615836E-03 -0.69192046478E-01  0.71155608453E-01  0.51100000000E-03 0.  1.
</event>
<event>
 8    1  0.1090774E+005  0.1043930E+01  0.7957747E-01            NaN
         13   -1    0    0    0    0  0.00000000000E+00  0.00000000000E+00  0.74505805969E-08  0.10566000000E+00  0.10566000000E+00 0.  1.
     999900   -1    0    0    0    0 -0.00000000000E+00 -0.00000000000E+00 -0.74505805969E-08  0.93827000000E+00  0.93827000000E+00 0. -1.
     999902    2    1    2    0    0  0.21313551752E-01  0.80669633812E-02 -0.68043585221E-02  0.10201467563E+01  0.10198694827E+01 0.  0.
     999903    2    3    3    0    0  0.35189971262E-01 -0.10605642990E+00 -0.64864961937E-01  0.13077184233E+00  0.20186903181E-01 0.  0.
         14    1    1    2    0    0 -0.21313551752E-01 -0.80669633812E-02  0.68043585221E-02  0.23783243710E-01  0.00000000000E+00 0.  1.
     999901    1    3    3    0    0 -0.13876419510E-01  0.11412339328E+00  0.58060603414E-01  0.88937491396E+00  0.88000000000E+00 0.  1.
        -11    1    4    4    0    0  0.16547601293E-01 -0.75601052946E-01 -0.49679814576E-01  0.91965686060E-01  0.51100000000E-03 0. -1.
         11    1    4    4    0    0  0.18642369969E-01 -0.30455376949E-01 -0.15185147360E-01  0.38806156271E-01  0.51100000000E-03 0.  1.
</event>
<event>
 8    1  0.1090774E+005  0.1043930E+01  0.7957747E-01            NaN
         13   -1    0    0    0    0  0.00000000000E+00  0.00000000000E+00  0.74505805969E-08  0.10566000000E+00  0.10566000000E+00 0. -1.
     999900   -1    0    0    0    0 -0.00000000000E+00 -0.00000000000E+00 -0.74505805969E-08  0.93827000000E+00  0.93827000000E+00 0.  1.
     999902    2    1    2    0    0  0.20066263309E-01  0.12797821393E-01 -0.54683183319E-02  0.10195098923E+01  0.10192173854E+01 0.  0.
     999903    2    3    3    0    0 -0.18796207163E-01 -0.38862689712E-02  0.12572778517E+00  0.12877925508E+00  0.20204457057E-01 0.  0.
         14    1    1    2    0    0 -0.20066263309E-01 -0.12797821393E-01  0.54683183319E-02  0.24420107719E-01  0.00000000000E+00 0. -1.
     999901    1    3    3    0    0  0.38862470473E-01  0.16684090365E-01 -0.13119610350E+00  0.89073063720E+00  0.88000000000E+00 0.  1.
        -11    1    4    4    0    0 -0.13172952586E-01  0.42705331326E-02  0.37196661653E-01  0.39694041017E-01  0.51100000000E-03 0. -1.
         11    1    4    4    0    0 -0.56232545769E-02 -0.81568021038E-02  0.88531123513E-01  0.89085214060E-01  0.51100000000E-03 0.  1.
</event>
<event>
 8    1  0.1090774E+005  0.1043930E+01  0.7957747E-01            NaN
         13   -1    0    0    0    0  0.00000000000E+00  0.00000000000E+00  0.74505805969E-08  0.10566000000E+00  0.10566000000E+00 0. -1.
     999900   -1    0    0    0    0 -0.00000000000E+00 -0.00000000000E+00 -0.74505805969E-08  0.93827000000E+00  0.93827000000E+00 0. -1.
     999902    2    1    2    0    0  0.18108815290E-01 -0.13733834648E-02  0.14220134551E-01  0.10208642765E+01  0.10206036662E+01 0.  0.
     999903    2    3    3    0    0 -0.94235778965E-01  0.32437133760E-01 -0.78164358337E-01  0.12828411011E+00  0.20361638152E-01 0.  0.
         14    1    1    2    0    0 -0.18108815290E-01  0.13733834648E-02 -0.14220134551E-01  0.23065723488E-01  0.00000000000E+00 0.  1.
     999901    1    3    3    0    0  0.11234459426E+00 -0.33810517225E-01  0.92384492888E-01  0.89258016640E+00  0.88000000000E+00 0.  1.
        -11    1    4    4    0    0 -0.45344634502E-01  0.11923966142E-01 -0.48789637054E-01  0.67668357831E-01  0.51100000000E-03 0. -1.
         11    1    4    4    0    0 -0.48891144463E-01  0.20513167618E-01 -0.29374721282E-01  0.60615752276E-01  0.51100000000E-03 0.  1.
</event>
<event>
 8    1  0.1090774E+005  0.1043930E+01  0.7957747E-01            NaN
         13   -1    0    0    0    0  0.00000000000E+00  0.00000000000E+00  0.74505805969E-08  0.10566000000E+00  0.10566000000E+00 0. -1.
     999900   -1    0    0    0    0 -0.00000000000E+00 -0.00000000000E+00 -0.74505805969E-08  0.93827000000E+00  0.93827000000E+00 0.  1.
     999902    2    1    2    0    0 -0.14804713674E-03 -0.81048261275E-03 -0.24477152697E-01  0.10194389852E+01  0.10191447566E+01 0.  0.
     999903    2    3    3    0    0 -0.61913372680E-01  0.11230084757E+00 -0.33387653997E-02  0.12980087911E+00  0.19808452260E-01 0.  0.
         14    1    1    2    0    0  0.14804713674E-03  0.81048261275E-03  0.24477152697E-01  0.24491014764E-01  0.00000000000E+00 0. -1.
     999901    1    3    3    0    0  0.61765325543E-01 -0.11311133019E+00 -0.21138387297E-01  0.88963810613E+00  0.88000000000E+00 0.  1.
        -11    1    4    4    0    0 -0.28437867784E-01  0.49508355675E-01  0.82942009853E-02  0.57696139357E-01  0.51100000000E-03 0. -1.
         11    1    4    4    0    0 -0.33475504896E-01  0.62792491898E-01 -0.11632966385E-01  0.72104739752E-01  0.51100000000E-03 0.  1.
</event>
<event>
 8    1  0.1090774E+005  0.1043930E+01  0.7957747E-01            NaN
         13   -1    0    0    0    0  0.00000000000E+00  0.00000000000E+00  0.74505805969E-08  0.10566000000E+00  0.10566000000E+00 0. -1.
     999900   -1    0    0    0    0 -0.00000000000E+00 -0.00000000000E+00 -0.74505805969E-08  0.93827000000E+00  0.93827000000E+00 0.  1.
     999902    2    1    2    0    0 -0.68766190239E-02  0.21058032304E-01 -0.74343716239E-02  0.10205633893E+01  0.10202958557E+01 0.  0.
     999903    2    3    3    0    0  0.10747778004E+00  0.73240071816E-01 -0.43724651945E-02  0.13162623230E+00  0.19767783306E-01 0.  0.
         14    1    1    2    0    0  0.68766190239E-02 -0.21058032304E-01  0.74343716239E-02  0.23366610691E-01  0.00000000000E+00 0. -1.
     999901    1    3    3    0    0 -0.11435439906E+00 -0.52182039512E-01 -0.30619064295E-02  0.88893715700E+00  0.88000000000E+00 0.  1.
        -11    1    4    4    0    0  0.37821392726E-02  0.14461929029E-02  0.33288854380E-02  0.52667495335E-02  0.51100000000E-03 0. -1.
         11    1    4    4    0    0  0.10369564077E+00  0.71793878913E-01 -0.77013506325E-02  0.12635948277E+00  0.51100000000E-03 0.  1.
</event>
<event>
 8    1  0.1090774E+005  0.1043930E+01  0.7957747E-01            NaN
         13   -1    0    0    0    0  0.00000000000E+00  0.00000000000E+00  0.74505805969E-08  0.10566000000E+00  0.10566000000E+00 0.  1.
     999900   -1    0    0    0    0 -0.00000000000E+00 -0.00000000000E+00 -0.74505805969E-08  0.93827000000E+00  0.93827000000E+00 0. -1.
     999902    2    1    2    0    0 -0.16762934788E-01  0.17085649824E-01 -0.57217824858E-03  0.10199875106E+01  0.10197064670E+01 0.  0.
     999903    2    3    3    0    0 -0.12830723540E+00 -0.95863828873E-02  0.22885859346E-01  0.13223540110E+00  0.20193893929E-01 0.  0.
         14    1    1    2    0    0  0.16762934788E-01 -0.17085649824E-01  0.57217824858E-03  0.23942489440E-01  0.00000000000E+00 0. -1.
     999901    1    3    3    0    0  0.11154430061E+00  0.26672032711E-01 -0.23458037595E-01  0.88775210946E+00  0.88000000000E+00 0.  1.
        -11    1    4    4    0    0 -0.48683223526E-01 -0.12947964020E-01  0.56275129170E-02  0.50691577681E-01  0.51100000000E-03 0. -1.
         11    1    4    4    0    0 -0.79624011876E-01  0.33615811323E-02  0.17258346429E-01  0.81543823417E-01  0.51100000000E-03 0.  1.
</event>
<event>
 8    1  0.1090774E+005  0.1043930E+01  0.7957747E-01            NaN
         13   -1    0    0    0    0  0.00000000000E+00  0.00000000000E+00  0.74505805969E-08  0.10566000000E+00  0.10566000000E+00 0.  1.
     999900   -1    0    0    0    0 -0.00000000000E+00 -0.00000000000E+00 -0.74505805969E-08  0.93827000000E+00  0.93827000000E+00 0.  1.
     999902    2    1    2    0    0  0.58520891677E-02 -0.67782933282E-02 -0.25918467457E-01  0.10165081262E+01  0.10161381852E+01 0.  0.
     999903    2    3    3    0    0 -0.78304695271E-01 -0.92676730253E-01 -0.36610993978E-01  0.12826534634E+00  0.19774543204E-01 0.  0.
         14    1    1    2    0    0 -0.58520891677E-02  0.67782933282E-02  0.25918467457E-01  0.27421873813E-01  0.00000000000E+00 0.  1.
     999901    1    3    3    0    0  0.84156784439E-01  0.85898436925E-01  0.10692526520E-01  0.88824277985E+00  0.88000000000E+00 0. -1.
        -11    1    4    4    0    0 -0.36089921581E-01 -0.57520524115E-01 -0.22582805144E-01  0.71563519640E-01  0.51100000000E-03 0.  1.
         11    1    4    4    0    0 -0.42214773690E-01 -0.35156206139E-01 -0.14028188834E-01  0.56701826696E-01  0.51100000000E-03 0. -1.
</event>
<event>
 8    1  0.1090774E+005  0.1043930E+01  0.7957747E-01            NaN
         13   -1    0    0    0    0  0.00000000000E+00  0.00000000000E+00  0.74505805969E-08  0.10566000000E+00  0.10566000000E+00 0.  1.
     999900   -1    0    0    0    0 -0.00000000000E+00 -0.00000000000E+00 -0.74505805969E-08  0.93827000000E+00  0.93827000000E+00 0. -1.
     999902    2    1    2    0    0 -0.10308488857E-02  0.13178745034E-01  0.18015898874E-01  0.10215846519E+01  0.10213402403E+01 0.  0.
     999903    2    3    3    0    0 -0.58366729336E-01 -0.11388009001E+00 -0.12767895616E-01  0.13008087020E+00  0.19561790289E-01 0.  0.
         14    1    1    2    0    0  0.10308488857E-02 -0.13178745034E-01 -0.18015898874E-01  0.22345348114E-01  0.00000000000E+00 0. -1.
     999901    1    3    3    0    0  0.57335880450E-01  0.12705883505E+00  0.30783794490E-01  0.89150378168E+00  0.88000000000E+00 0. -1.
        -11    1    4    4    0    0 -0.31935270414E-01 -0.72402432534E-01 -0.16198685178E-01  0.80775195796E-01  0.51100000000E-03 0.  1.
         11    1    4    4    0    0 -0.26431458922E-01 -0.41477657480E-01  0.34307895622E-02  0.49305674408E-01  0.51100000000E-03 0. -1.
</event>
<event>
 8    1  0.1090774E+005  0.1043930E+01  0.7957747E-01            NaN
         13   -1    0    0    0    0  0.00000000000E+00  0.00000000000E+00  0.74505805969E-08  0.10566000000E+00  0.10566000000E+00 0. -1.
     999900   -1    0    0    0    0 -0.00000000000E+00 -0.00000000000E+00 -0.74505805969E-08  0.93827000000E+00  0.93827000000E+00 0.  1.
     999902    2    1    2    0    0  0.65779754195E-02 -0.14543205615E-01 -0.18810986898E-01  0.10192596166E+01  0.10189610091E+01 0.  0.
     999903    2    3    3    0    0  0.11349721950E+00 -0.31286604005E-01 -0.55797418916E-01  0.13185888281E+00  0.20320988978E-01 0.  0.
         14    1    1    2    0    0 -0.65779754195E-02  0.14543205615E-01  0.18810986898E-01  0.24670383424E-01  0.00000000000E+00 0. -1.
     999901    1    3    3    0    0 -0.10691924408E+00  0.16743398390E-01  0.36986432018E-01  0.88740073377E+00  0.88000000000E+00 0.  1.
        -11    1    4    4    0    0  0.41536478806E-01 -0.51630926166E-02 -0.11503441654E-01  0.43411137832E-01  0.51100000000E-03 0. -1.
         11    1    4    4    0    0  0.71960740691E-01 -0.26123511389E-01 -0.44293977262E-01  0.88447744973E-01  0.51100000000E-03 0.  1.
</event>
<event>
 8    1  0.1090774E+005  0.1043930E+01  0.7957747E-01            NaN
         13   -1    0    0    0    0  0.00000000000E+00  0.00000000000E+00  0.74505805969E-08  0.10566000000E+00  0.10566000000E+00 0.  1.
     999900   -1    0    0    0    0 -0.00000000000E+00 -0.00000000000E+00 -0.74505805969E-08  0.93827000000E+00  0.93827000000E+00 0.  1.
     999902    2    1    2    0    0 -0.40738180794E-02  0.14200923511E-01 -0.18686402288E-01  0.10201089200E+01  0.10198307530E+01 0.  0.
     999903    2    3    3    0    0 -0.56324642318E-01  0.11501793360E+00  0.24171243540E-01  0.13177846573E+00  0.19486524419E-01 0.  0.
         14    1    1    2    0    0  0.40738180794E-02 -0.14200923511E-01  0.18686402288E-01  0.23821080009E-01  0.00000000000E+00 0.  1.
     999901    1    3    3    0    0  0.52250824239E-01 -0.10081701009E+00 -0.42857645828E-01  0.88833045426E+00  0.88000000000E+00 0.  1.
        -11    1    4    4    0    0 -0.47239590349E-01  0.78093216206E-01  0.13370899991E-01  0.92245170070E-01  0.51100000000E-03 0. -1.
         11    1    4    4    0    0 -0.90850519695E-02  0.36924717397E-01  0.10800343549E-01  0.39533295663E-01  0.51100000000E-03 0.  1.
</event>
<event>
 8    1  0.1090774E+005  0.1043930E+01  0.7957747E-01            NaN
         13   -1    0    0    0    0  0.00000000000E+00  0.00000000000E+00  0.74505805969E-08  0.10566000000E+00  0.10566000000E+00 0. -1.
     999900   -1    0    0    0    0 -0.00000000000E+00 -0.00000000000E+00 -0.74505805969E-08  0.93827000000E+00  0.93827000000E+00 0.  1.
     999902    2    1    2    0    0  0.12283909483E-01 -0.19146654803E-01  0.77112703190E-02  0.10199101642E+01  0.10196272802E+01 0.  0.
     999903    2    3    3    0    0  0.58501749294E-01  0.98942291999E-01 -0.54177311341E-01  0.12866873528E+00  0.20209664949E-01 0.  0.
         14    1    1    2    0    0 -0.12283909483E-01  0.19146654803E-01 -0.77112703190E-02  0.24019835808E-01  0.00000000000E+00 0.  1.
     999901    1    3    3    0    0 -0.46217839811E-01 -0.11808894680E+00  0.61888581660E-01  0.89124142891E+00  0.88000000000E+00 0. -1.
        -11    1    4    4    0    0  0.30983594895E-01  0.39213304813E-01 -0.15286163911E-01  0.52264656845E-01  0.51100000000E-03 0. -1.
         11    1    4    4    0    0  0.27518154399E-01  0.59728987185E-01 -0.38891147430E-01  0.76404078433E-01  0.51100000000E-03 0.  1.
</event>
<event>
 8    1  0.1090774E+005  0.1043930E+01  0.7957747E-01            NaN
         13   -1    0    0    0    0  0.00000000000E+00  0.00000000000E+00  0.74505805969E-08  0.10566000000E+00  0.10566000000E+00 0.  1.
     999900   -1    0    0    0    0 -0.00000000000E+00 -0.00000000000E+00 -0.74505805969E-08  0.93827000000E+00  0.93827000000E+00 0. -1.
     999902    2    1    2    0    0 -0.70538808169E-02 -0.17309909518E-01  0.14696366035E-01  0.10201524186E+01  0.10198752786E+01 0.  0.
     999903    2    3    3    0    0 -0.59490552356E-02 -0.66728220110E-02 -0.12685985948E+00  0.12877565581E+00  0.20244203367E-01 0.  0.
         14    1    1    2    0    0  0.70538808169E-02  0.17309909518E-01 -0.14696366035E-01  0.23777581390E-01  0.00000000000E+00 0. -1.
     999901    1    3    3    0    0 -0.11048255814E-02 -0.10637087507E-01  0.14155622552E+00  0.89137676280E+00  0.88000000000E+00 0.  1.
        -11    1    4    4    0    0 -0.18011456276E-04 -0.13136413738E-01 -0.67418398317E-01  0.68688188526E-01  0.51100000000E-03 0. -1.
         11    1    4    4    0    0 -0.59310437793E-02  0.64635917272E-02 -0.59441461168E-01  0.60087467288E-01  0.51100000000E-03 0.  1.
</event>
<event>
 7    1  0.1528887E+005  0.1043930E+01  0.7957747E-01            NaN
         13   -1    0    0    0    0  0.00000000000E+00  0.00000000000E+00  0.74505805969E-08  0.10566000000E+00  0.10566000000E+00 0. -1.
     999900   -1    0    0    0    0 -0.00000000000E+00 -0.00000000000E+00 -0.74505805969E-08  0.93827000000E+00  0.93827000000E+00 0. -1.
     999903    2    1    2    0    0 -0.33418474994E-01  0.89515832078E-01 -0.47095759213E-01  0.10849452940E+00  0.20571186388E-01 0.  0.
         14    1    1    2    0    0  0.75805866399E-02  0.21369248839E-01 -0.37768284531E-01  0.44051712863E-01  0.00000000000E+00 0.  1.
     999901    1    1    2    0    0  0.25837888354E-01 -0.11088508092E+00  0.84864043744E-01  0.89138375774E+00  0.88000000000E+00 0. -1.
        -11    1    3    3    0    0 -0.29516999508E-01  0.50542858055E-01 -0.29649126777E-01  0.65613760752E-01  0.51100000000E-03 0. -1.
         11    1    3    3    0    0 -0.39014754860E-02  0.38972974023E-01 -0.17446632437E-01  0.42880768644E-01  0.51100000000E-03 0.  1.
</event>
<event>
 8    1  0.1090774E+005  0.1043930E+01  0.7957747E-01            NaN
         13   -1    0    0    0    0  0.00000000000E+00  0.00000000000E+00  0.74505805969E-08  0.10566000000E+00  0.10566000000E+00 0.  1.
     999900   -1    0    0    0    0 -0.00000000000E+00 -0.00000000000E+00 -0.74505805969E-08  0.93827000000E+00  0.93827000000E+00 0. -1.
     999902    2    1    2    0    0 -0.18012344827E-01  0.13454080754E-01 -0.40919811998E-02  0.10210782787E+01  0.10208225361E+01 0.  0.
     999903    2    3    3    0    0  0.92262874257E-01 -0.95494968562E-02  0.87709634279E-01  0.12916049937E+00  0.19642397908E-01 0.  0.
         14    1    1    2    0    0  0.18012344827E-01 -0.13454080754E-01  0.40919811998E-02  0.22851721275E-01  0.00000000000E+00 0.  1.
     999901    1    3    3    0    0 -0.11027521908E+00  0.23003577610E-01 -0.91801615479E-01  0.89191777936E+00  0.88000000000E+00 0. -1.
        -11    1    4    4    0    0  0.64523140030E-01  0.21726484093E-02  0.62935976964E-01  0.90161822951E-01  0.51100000000E-03 0. -1.
         11    1    4    4    0    0  0.27739734227E-01 -0.11722145266E-01  0.24773657315E-01  0.38998676418E-01  0.51100000000E-03 0.  1.
</event>
<event>
 8    1  0.1090774E+005  0.1043930E+01  0.7957747E-01            NaN
         13   -1    0    0    0    0  0.00000000000E+00  0.00000000000E+00  0.74505805969E-08  0.10566000000E+00  0.10566000000E+00 0. -1.
     999900   -1    0    0    0    0 -0.00000000000E+00 -0.00000000000E+00 -0.74505805969E-08  0.93827000000E+00  0.93827000000E+00 0. -1.
     999902    2    1    2    0    0  0.14447144783E-01 -0.12324303132E-01  0.12665771461E-01  0.10211039139E+01  0.10208487512E+01 0.  0.
     999903    2    3    3    0    0 -0.66315791011E-01  0.99582645407E-01 -0.42785227309E-01  0.12862386919E+00  0.19975901647E-01 0.  0.
         14    1    1    2    0    0 -0.14447144783E-01  0.12324303132E-01 -0.12665771461E-01  0.22826086103E-01  0.00000000000E+00 0.  1.
     999901    1    3    3    0    0  0.80762935794E-01 -0.11190694854E+00  0.55450998771E-01  0.89248004470E+00  0.88000000000E+00 0.  1.
        -11    1    4    4    0    0 -0.53049902118E-01  0.78475871711E-01 -0.24918231893E-01  0.97948629175E-01  0.51100000000E-03 0. -1.
         11    1    4    4    0    0 -0.13265888893E-01  0.21106773696E-01 -0.17866995417E-01  0.30675240019E-01  0.51100000000E-03 0.  1.
</event>
<event>
 8    1  0.1090774E+005  0.1043930E+01  0.7957747E-01            NaN
         13   -1    0    0    0    0  0.00000000000E+00  0.00000000000E+00  0.74505805969E-08  0.10566000000E+00  0.10566000000E+00 0. -1.
     999900   -1    0    0    0    0 -0.00000000000E+00 -0.00000000000E+00 -0.74505805969E-08  0.93827000000E+00  0.93827000000E+00 0. -1.
     999902    2    1    2    0    0 -0.16347643502E-01 -0.12200628311E-01  0.13321861327E-01  0.10195666511E+01  0.10192755188E+01 0.  0.
     999903    2    3    3    0    0  0.22018826384E-01  0.70935201469E-01 -0.10157046312E+00  0.12738740993E+00  0.19858542433E-01 0.  0.
         14    1    1    2    0    0  0.16347643502E-01  0.12200628311E-01 -0.13321861327E-01  0.24363348877E-01  0.00000000000E+00 0.  1.
     999901    1    3    3    0    0 -0.38366469887E-01 -0.83135829780E-01  0.11489232444E+00  0.89217924120E+00  0.88000000000E+00 0.  1.
        -11    1    4    4    0    0  0.15833204872E-01  0.40197450113E-01 -0.73714113057E-01  0.85443296735E-01  0.51100000000E-03 0. -1.
         11    1    4    4    0    0  0.61856215128E-02  0.30737751355E-01 -0.27856350060E-01  0.41944113193E-01  0.51100000000E-03 0.  1.
</event>
<event>
 8    1  0.1090774E+005  0.1043930E+01  0.7957747E-01            NaN
         13   -1    0    0    0    0  0.00000000000E+00  0.00000000000E+00  0.74505805969E-08  0.10566000000E+00  0.10566000000E+00 0. -1.
     999900   -1    0    0    0    0 -0.00000000000E+00 -0.00000000000E+00 -0.74505805969E-08  0.93827000000E+00  0.93827000000E+00 0. -1.
     999902    2    1    2    0    0 -0.17578443515E-01  0.14549614820E-01 -0.31797761732E-02  0.10208908172E+01  0.10206308131E+01 0.  0.
     999903    2    3    3    0    0  0.23022148823E-01  0.22794877842E-01 -0.12530355886E+00  0.13149180058E+00  0.23226837137E-01 0.  0.
         14    1    1    2    0    0  0.17578443515E-01 -0.14549614820E-01  0.31797761732E-02  0.23039182805E-01  0.00000000000E+00 0. -1.
     999901    1    3    3    0    0 -0.40600592338E-01 -0.82452630226E-02  0.12212378269E+00  0.88939901662E+00  0.88000000000E+00 0.  1.
        -11    1    4    4    0    0  0.12948666904E-02 -0.22033509163E-02 -0.38414202368E-01  0.38502512899E-01  0.51100000000E-03 0.  1.
         11    1    4    4    0    0  0.21727282133E-01  0.24998228759E-01 -0.86889356495E-01  0.92989287679E-01  0.51100000000E-03 0. -1.
</event>
<event>
 8    1  0.1090774E+005  0.1043930E+01  0.7957747E-01            NaN
         13   -1    0    0    0    0  0.00000000000E+00  0.00000000000E+00  0.74505805969E-08  0.10566000000E+00  0.10566000000E+00 0. -1.
     999900   -1    0    0    0    0 -0.00000000000E+00 -0.00000000000E+00 -0.74505805969E-08  0.93827000000E+00  0.93827000000E+00 0. -1.
     999902    2    1    2    0    0 -0.21411899332E-01  0.32513042985E-02  0.26525586906E-02  0.10221108231E+01  0.10218779077E+01 0.  0.
     999903    2    3    3    0    0  0.28486339399E-01 -0.10841173873E-01 -0.12607768515E+00  0.13123490142E+00  0.19950290091E-01 0.  0.
         14    1    1    2    0    0  0.21411899332E-01 -0.32513042985E-02 -0.26525586906E-02  0.21819176892E-01  0.00000000000E+00 0. -1.
     999901    1    3    3    0    0 -0.49898238731E-01  0.14092478171E-01  0.12873024384E+00  0.89087592169E+00  0.88000000000E+00 0.  1.
        -11    1    4    4    0    0  0.21078232963E-01 -0.14512064440E-01 -0.69686072906E-01  0.74238142468E-01  0.51100000000E-03 0.  1.
         11    1    4    4    0    0  0.74081064368E-02  0.36708905667E-02 -0.56391612242E-01  0.56996758949E-01  0.51100000000E-03 0. -1.
</event>
<event>
 8    1  0.1090774E+005  0.1043930E+01  0.7957747E-01            NaN
         13   -1    0    0    0    0  0.00000000000E+00  0.00000000000E+00  0.74505805969E-08  0.10566000000E+00  0.10566000000E+00 0. -1.
     999900   -1    0    0    0    0 -0.00000000000E+00 -0.00000000000E+00 -0.74505805969E-08  0.93827000000E+00  0.93827000000E+00 0. -1.
     999902    2    1    2    0    0  0.16333244647E-03  0.25348025270E-02 -0.23433712376E-01  0.10203590268E+01  0.10200867379E+01 0.  0.
     999903    2    3    3    0    0  0.13461079422E-01 -0.77135912068E-01 -0.10656289918E+00  0.13275848910E+00  0.11747993770E-01 0.  0.
         14    1    1    2    0    0 -0.16333244647E-03 -0.25348025270E-02  0.23433712376E-01  0.23570973189E-01  0.00000000000E+00 0. -1.
     999901    1    3    3    0    0 -0.13297746975E-01  0.79670714595E-01  0.83129186806E-01  0.88760053771E+00  0.88000000000E+00 0.  1.
        -11    1    4    4    0    0 -0.21677800997E-02 -0.99898120262E-02 -0.13846506000E-01  0.17218666159E-01  0.51100000000E-03 0.  1.
         11    1    4    4    0    0  0.15628859521E-01 -0.67146100041E-01 -0.92716393181E-01  0.11553982295E+00  0.51100000000E-03 0. -1.
</event>
<event>
 8    1  0.1090774E+005  0.1043930E+01  0.7957747E-01            NaN
         13   -1    0    0    0    0  0.00000000000E+00  0.00000000000E+00  0.74505805969E-08  0.10566000000E+00  0.10566000000E+00 0. -1.
     999900   -1    0    0    0    0 -0.00000000000E+00 -0.00000000000E+00 -0.74505805969E-08  0.93827000000E+00  0.93827000000E+00 0. -1.
     999902    2    1    2    0    0 -0.17784952748E-01  0.14540942348E-02  0.13174198936E-01  0.10217494127E+01  0.10215086314E+01 0.  0.
     999903    2    3    3    0    0 -0.31464729991E-01 -0.12375816262E+00 -0.26027199615E-01  0.13191684689E+00  0.20457940380E-01 0.  0.
         14    1    1    2    0    0  0.17784952748E-01 -0.14540942348E-02 -0.13174198936E-01  0.22180587275E-01  0.00000000000E+00 0.  1.
     999901    1    3    3    0    0  0.13679777243E-01  0.12521225686E+00  0.39201398551E-01  0.88983256584E+00  0.88000000000E+00 0.  1.
        -11    1    4    4    0    0 -0.10433148881E-01 -0.50036578363E-01 -0.20434515300E-01  0.55048526833E-01  0.51100000000E-03 0.  1.
         11    1    4    4    0    0 -0.21031581110E-01 -0.73721584258E-01 -0.55926843154E-02  0.76868320057E-01  0.51100000000E-03 0. -1.
</event>
<event>
 8    1  0.1090774E+005  0.1043930E+01  0.7957747E-01            NaN
         13   -1    0    0    0    0  0.00000000000E+00  0.00000000000E+00  0.74505805969E-08  0.10566000000E+00  0.10566000000E+00 0.  1.
     999900   -1    0    0    0    0 -0.00000000000E+00 -0.00000000000E+00 -0.74505805969E-08  0.93827000000E+00  0.93827000000E+00 0.  1.
     999902    2    1    2    0    0 -0.12445359359E-01  0.63183215986E-02 -0.19319606630E-01  0.10200960881E+01  0.10198176178E+01 0.  0.
     999903    2    3    3    0    0 -0.15867322748E-02 -0.78971415732E-01 -0.10352322194E+00  0.13190551285E+00  0.21047674922E-01 0.  0.
         14    1    1    2    0    0  0.12445359359E-01 -0.63183215986E-02  0.19319606630E-01  0.23833911927E-01  0.00000000000E+00 0.  1.
     999901    1    3    3    0    0 -0.10858627085E-01  0.85289737330E-01  0.84203615305E-01  0.88819057522E+00  0.88000000000E+00 0. -1.
        -11    1    4    4    0    0  0.34818966610E-02 -0.15476572891E-01 -0.10031102527E-01  0.18775836911E-01  0.51100000000E-03 0.  1.
         11    1    4    4    0    0 -0.50686289358E-02 -0.63494842841E-01 -0.93492119408E-01  0.11312967594E+00  0.51100000000E-03 0. -1.
</event>
<event>
 8    1  0.1090774E+005  0.1043930E+01  0.7957747E-01            NaN
         13   -1    0    0    0    0  0.00000000000E+00  0.00000000000E+00  0.74505805969E-08  0.10566000000E+00  0.10566000000E+00 0. -1.
     999900   -1    0    0    0    0 -0.00000000000E+00 -0.00000000000E+00 -0.74505805969E-08  0.93827000000E+00  0.93827000000E+00 0.  1.
     999902    2    1    2    0    0 -0.14900676481E-01  0.24541752312E-02  0.20355976875E-01  0.10185840155E+01  0.10182686177E+01 0.  0.
     999903    2    3    3    0    0 -0.46887418301E-01  0.10366793025E+00 -0.59437255122E-01  0.12862090631E+00  0.80672477097E-02 0.  0.
         14    1    1    2    0    0  0.14900676481E-01 -0.24541752312E-02 -0.20355976875E-01  0.25345984499E-01  0.00000000000E+00 0.  1.
     999901    1    3    3    0    0  0.31986741820E-01 -0.10121375502E+00  0.79793231997E-01  0.88996310920E+00  0.88000000000E+00 0.  1.
        -11    1    4    4    0    0 -0.79228106259E-02  0.13761003377E-01 -0.10926563264E-01  0.19281780207E-01  0.51100000000E-03 0.  1.
         11    1    4    4    0    0 -0.38964607675E-01  0.89906926871E-01 -0.48510691857E-01  0.10933912610E+00  0.51100000000E-03 0. -1.
</event>
<event>
 8    1  0.1090774E+005  0.1043930E+01  0.7957747E-01            NaN
         13   -1    0    0    0    0  0.00000000000E+00  0.00000000000E+00  0.74505805969E-08  0.10566000000E+00  0.10566000000E+00 0. -1.
     999900   -1    0    0    0    0 -0.00000000000E+00 -0.00000000000E+00 -0.74505805969E-08  0.93827000000E+00  0.93827000000E+00 0.  1.
     999902    2    1    2    0    0 -0.83211778435E-02  0.10225330986E-02  0.22888306550E-01  0.10195545584E+01  0.10192631336E+01 0.  0.
     999903    2    3    3    0    0  0.30223493069E-01 -0.17740835574E-01  0.12616526107E+00  0.13247852731E+00  0.20116916209E-01 0.  0.
         14    1    1    2    0    0  0.83211778435E-02 -0.10225330986E-02 -0.22888306550E-01  0.24375441563E-01  0.00000000000E+00 0.  1.
     999901    1    3    3    0    0 -0.38544670912E-01  0.18763368673E-01 -0.10327695452E+00  0.88707603112E+00  0.88000000000E+00 0.  1.
        -11    1    4    4    0    0  0.16209968783E-01 -0.20352368439E-01  0.76482355211E-01  0.80788574493E-01  0.51100000000E-03 0.  1.
         11    1    4    4    0    0  0.14013524286E-01  0.26115328650E-02  0.49682905861E-01  0.51689952820E-01  0.51100000000E-03 0. -1.
</event>
<event>
 8    1  0.1090774E+005  0.1043930E+01  0.7957747E-01            NaN
         13   -1    0    0    0    0  0.00000000000E+00  0.00000000000E+00  0.74505805969E-08  0.10566000000E+00  0.10566000000E+00 0.  1.
     999900   -1    0    0    0    0 -0.00000000000E+00 -0.00000000000E+00 -0.74505805969E-08  0.93827000000E+00  0.93827000000E+00 0.  1.
     999902    2    1    2    0    0 -0.13968585302E-01 -0.10532196199E-02  0.18644393896E-01  0.10206095354E+01  0.10203430696E+01 0.  0.
     999903    2    3    3    0    0  0.91161958590E-01  0.62729241907E-01 -0.62115945899E-01  0.12839719173E+00  0.19544503702E-01 0.  0.
         14    1    1    2    0    0  0.13968585302E-01  0.10532196199E-02 -0.18644393896E-01  0.23320464632E-01  0.00000000000E+00 0. -1.
     999901    1    3    3    0    0 -0.10513054389E+00 -0.63782461527E-01  0.80760339794E-01  0.89221234364E+00  0.88000000000E+00 0. -1.
        -11    1    4    4    0    0  0.53026966926E-01  0.27794352829E-01 -0.40825201713E-01  0.72466154075E-01  0.51100000000E-03 0. -1.
         11    1    4    4    0    0  0.38134991665E-01  0.34934889078E-01 -0.21290744186E-01  0.55931037655E-01  0.51100000000E-03 0.  1.
</event>
<event>
 8    1  0.1090774E+005  0.1043930E+01  0.7957747E-01            NaN
         13   -1    0    0    0    0  0.00000000000E+00  0.00000000000E+00  0.74505805969E-08  0.10566000000E+00  0.10566000000E+00 0.  1.
     999900   -1    0    0    0    0 -0.00000000000E+00 -0.00000000000E+00 -0.74505805969E-08  0.93827000000E+00  0.93827000000E+00 0.  1.
     999902    2    1    2    0    0 -0.92409020673E-02 -0.99007008776E-02 -0.19281098805E-01  0.10203677650E+01  0.10200956802E+01 0.  0.
     999903    2    3    3    0    0 -0.12033006356E+00 -0.37894400574E-01 -0.35894758944E-01  0.13278652207E+00  0.20700650580E-01 0.  0.
         14    1    1    2    0    0  0.92409020673E-02  0.99007008776E-02  0.19281098805E-01  0.23562235039E-01  0.00000000000E+00 0.  1.
     999901    1    3    3    0    0  0.11108916149E+00  0.27993699697E-01  0.16613660139E-01  0.88758124289E+00  0.88000000000E+00 0.  1.
        -11    1    4    4    0    0 -0.43450925064E-01 -0.80056503590E-02 -0.40644728430E-02  0.44371774667E-01  0.51100000000E-03 0.  1.
         11    1    4    4    0    0 -0.76879138492E-01 -0.29888750215E-01 -0.31830286101E-01  0.88414747406E-01  0.51100000000E-03 0. -1.
</event>
<event>
 8    1  0.1090774E+005  0.1043930E+01  0.7957747E-01            NaN
         13   -1    0    0    0    0  0.00000000000E+00  0.00000000000E+00  0.74505805969E-08  0.10566000000E+00  0.10566000000E+00 0. -1.
     999900   -1    0    0    0    0 -0.00000000000E+00 -0.00000000000E+00 -0.74505805969E-08  0.93827000000E+00  0.93827000000E+00 0. -1.
     999902    2    1    2    0    0  0.17039734753E-01 -0.42856594312E-02 -0.14901364391E-01  0.10208915517E+01  0.10206315644E+01 0.  0.
     999903    2    3    3    0    0  0.20221918708E-01 -0.81194664931E-01  0.97847942680E-01  0.13036500657E+00  0.20477193201E-01 0.  0.
         14    1    1    2    0    0 -0.17039734753E-01  0.42856594312E-02  0.14901364391E-01  0.23038448253E-01  0.00000000000E+00 0. -1.
     999901    1    3    3    0    0 -0.31821839552E-02  0.76909005500E-01 -0.11274930707E+00  0.89052654518E+00  0.88000000000E+00 0. -1.
        -11    1    4    4    0    0  0.17725775779E-01 -0.43756273448E-01  0.65990834746E-01  0.81141025286E-01  0.51100000000E-03 0.  1.
         11    1    4    4    0    0  0.24961429293E-02 -0.37438391484E-01  0.31857107934E-01  0.49223981283E-01  0.51100000000E-03 0. -1.
</event>
<event>
 8    1  0.1090774E+005  0.1043930E+01  0.7957747E-01            NaN
         13   -1    0    0    0    0  0.00000000000E+00  0.00000000000E+00  0.74505805969E-08  0.10566000000E+00  0.10566000000E+00 0. -1.
     999900   -1    0    0    0    0 -0.00000000000E+00 -0.00000000000E+00 -0.74505805969E-08  0.93827000000E+00  0.93827000000E+00 0.  1.
     999902    2    1    2    0    0 -0.18869066643E-01 -0.67338994238E-02 -0.84077555360E-02  0.10222026571E+01  0.10219717191E+01 0.  0.
     999903    2    3    3    0    0 -0.91100605938E-02 -0.11642519626E+00 -0.63561774126E-01  0.13362548847E+00  0.13336135480E-01 0.  0.
         14    1    1    2    0    0  0.18869066643E-01  0.67338994238E-02  0.84077555360E-02  0.21727342925E-01  0.00000000000E+00 0. -1.
     999901    1    3    3    0    0 -0.97590060492E-02  0.10969129684E+00  0.55154018590E-01  0.88857716861E+00  0.88000000000E+00 0. -1.
        -11    1    4    4    0    0 -0.67335620289E-02 -0.60026778417E-01 -0.40036635881E-01  0.72468947270E-01  0.51100000000E-03 0.  1.
         11    1    4    4    0    0 -0.23764985650E-02 -0.56398417846E-01 -0.23525138245E-01  0.61156541199E-01  0.51100000000E-03 0. -1.
</event>
<event>
 8    1  0.1090774E+005  0.1043930E+01  0.7957747E-01            NaN
         13   -1    0    0    0    0  0.00000000000E+00  0.00000000000E+00  0.74505805969E-08  0.10566000000E+00  0.10566000000E+00 0.  1.
     999900   -1    0    0    0    0 -0.00000000000E+00 -0.00000000000E+00 -0.74505805969E-08  0.93827000000E+00  0.93827000000E+00 0.  1.
     999902    2    1    2    0    0  0.22768738267E-01  0.22131598640E-02  0.42808239563E-02  0.10206568616E+01  0.10203914886E+01 0.  0.
     999903    2    3    3    0    0  0.42462120560E-01  0.11117334242E+00  0.54208540732E-01  0.13231406310E+00  0.20147001193E-01 0.  0.
         14    1    1    2    0    0 -0.22768738267E-01 -0.22131598640E-02 -0.42808239563E-02  0.23273138435E-01  0.00000000000E+00 0.  1.
     999901    1    3    3    0    0 -0.19693382293E-01 -0.10896018256E+00 -0.49927716775E-01  0.88834279847E+00  0.88000000000E+00 0.  1.
        -11    1    4    4    0    0  0.89805781489E-02  0.50899966750E-01  0.21152478955E-01  0.55849314105E-01  0.51100000000E-03 0. -1.
         11    1    4    4    0    0  0.33481542411E-01  0.60273375672E-01  0.33056061777E-01  0.76464748991E-01  0.51100000000E-03 0.  1.
</event>
<event>
 8    1  0.1090774E+005  0.1043930E+01  0.7957747E-01            NaN
         13   -1    0    0    0    0  0.00000000000E+00  0.00000000000E+00  0.74505805969E-08  0.10566000000E+00  0.10566000000E+00 0. -1.
     999900   -1    0    0    0    0 -0.00000000000E+00 -0.00000000000E+00 -0.74505805969E-08  0.93827000000E+00  0.93827000000E+00 0.  1.
     999902    2    1    2    0    0  0.20060544905E-01 -0.77803429031E-02  0.10759105737E-01  0.10198734509E+01  0.10195896912E+01 0.  0.
     999903    2    3    3    0    0 -0.94512761176E-01  0.81757542469E-01  0.18040094819E-01  0.12791095833E+00  0.20464859229E-01 0.  0.
         14    1    1    2    0    0 -0.20060544905E-01  0.77803429031E-02 -0.10759105737E-01  0.24056549084E-01  0.00000000000E+00 0. -1.
     999901    1    3    3    0    0  0.11457330608E+00 -0.89537885373E-01 -0.72809890820E-02  0.89196249259E+00  0.88000000000E+00 0.  1.
        -11    1    4    4    0    0 -0.30144909680E-01  0.15658014220E-01  0.39588816335E-03  0.33975091426E-01  0.51100000000E-03 0.  1.
         11    1    4    4    0    0 -0.64367851496E-01  0.66099528249E-01  0.17644206656E-01  0.93935866901E-01  0.51100000000E-03 0. -1.
</event>
<event>
 8    1  0.1090774E+005  0.1043930E+01  0.7957747E-01            NaN
         13   -1    0    0    0    0  0.00000000000E+00  0.00000000000E+00  0.74505805969E-08  0.10566000000E+00  0.10566000000E+00 0.  1.
     999900   -1    0    0    0    0 -0.00000000000E+00 -0.00000000000E+00 -0.74505805969E-08  0.93827000000E+00  0.93827000000E+00 0. -1.
     999902    2    1    2    0    0 -0.18056787635E-01 -0.57798031532E-02  0.14349231500E-01  0.10201528229E+01  0.10198756924E+01 0.  0.
     999903    2    3    3    0    0 -0.49561329859E-01 -0.49273161520E-01 -0.10802089245E+00  0.13006369502E+00  0.19075683293E-01 0.  0.
         14    1    1    2    0    0  0.18056787635E-01  0.57798031532E-02 -0.14349231500E-01  0.23777177057E-01  0.00000000000E+00 0. -1.
     999901    1    3    3    0    0  0.31504542225E-01  0.43493358367E-01  0.12237012395E+00  0.89008912792E+00  0.88000000000E+00 0.  1.
        -11    1    4    4    0    0 -0.29481953371E-01 -0.20605747983E-01 -0.41698999808E-01  0.55071318583E-01  0.51100000000E-03 0.  1.
         11    1    4    4    0    0 -0.20079376488E-01 -0.28667413537E-01 -0.66321892646E-01  0.74992376441E-01  0.51100000000E-03 0. -1.
</event>
<event>
 7    1  0.1090774E+005  0.1043930E+01  0.7957747E-01            NaN
         13   -1    0    0    0    0  0.00000000000E+00  0.00000000000E+00  0.74505805969E-08  0.10566000000E+00  0.10566000000E+00 0. -1.
     999900   -1    0    0    0    0 -0.00000000000E+00 -0.00000000000E+00 -0.74505805969E-08  0.93827000000E+00  0.93827000000E+00 0. -1.
     999902    2    1    2    0    0 -0.19297860901E-02  0.88122461774E-02 -0.22668115983E-01  0.10195328026E+01  0.10192408510E+01 0.  0.
         14    1    1    2    0    0  0.19297860901E-02 -0.88122461774E-02  0.22668115983E-01  0.24397197365E-01  0.00000000000E+00 0. -1.
     999901    1    3    3    0    0  0.27227600018E-01  0.10603450193E+00  0.45066640121E-01  0.88792773346E+00  0.88000000000E+00 0.  1.
        -11    1    3    3    0    0 -0.18589710495E-01 -0.67293252456E-01 -0.17160348884E-01  0.71893656585E-01  0.51100000000E-03 0. -1.
         11    1    3    3    0    0 -0.10567675614E-01 -0.29929003298E-01 -0.50574407220E-01  0.59711412586E-01  0.51100000000E-03 0.  1.
</event>
<event>
 8    1  0.1090774E+005  0.1043930E+01  0.7957747E-01            NaN
         13   -1    0    0    0    0  0.00000000000E+00  0.00000000000E+00  0.74505805969E-08  0.10566000000E+00  0.10566000000E+00 0. -1.
     999900   -1    0    0    0    0 -0.00000000000E+00 -0.00000000000E+00 -0.74505805969E-08  0.93827000000E+00  0.93827000000E+00 0.  1.
     999902    2    1    2    0    0 -0.13725416898E-01 -0.17428826557E-01  0.76916658355E-02  0.10204499492E+01  0.10201797812E+01 0.  0.
     999903    2    3    3    0    0 -0.10731430493E+00  0.71690981932E-01  0.10005383536E-01  0.13100822902E+00  0.20176507131E-01 0.  0.
         14    1    1    2    0    0  0.13725416898E-01  0.17428826557E-01 -0.76916658355E-02  0.23480050841E-01  0.00000000000E+00 0. -1.
     999901    1    3    3    0    0  0.93588888028E-01 -0.89119808489E-01 -0.23137177008E-02  0.88944172014E+00  0.88000000000E+00 0.  1.
        -11    1    4    4    0    0 -0.37302121793E-01  0.34028883212E-01 -0.23698108483E-02  0.50549879400E-01  0.51100000000E-03 0.  1.
         11    1    4    4    0    0 -0.70012183133E-01  0.37662098720E-01  0.12375194385E-01  0.80458349623E-01  0.51100000000E-03 0. -1.
</event>
<event>
 8    1  0.1090774E+005  0.1043930E+01  0.7957747E-01            NaN
         13   -1    0    0    0    0  0.00000000000E+00  0.00000000000E+00  0.74505805969E-08  0.10566000000E+00  0.10566000000E+00 0. -1.
     999900   -1    0    0    0    0 -0.00000000000E+00 -0.00000000000E+00 -0.74505805969E-08  0.93827000000E+00  0.93827000000E+00 0. -1.
     999902    2    1    2    0    0  0.30091305805E-02 -0.22572764041E-01  0.72300682408E-02  0.10200373562E+01  0.10197574954E+01 0.  0.
     999903    2    3    3    0    0 -0.48557123766E-01  0.25207900129E-01 -0.11397002183E+00  0.12895288637E+00  0.25425352083E-01 0.  0.
         14    1    1    2    0    0 -0.30091305805E-02  0.22572764041E-01 -0.72300682408E-02  0.23892643849E-01  0.00000000000E+00 0. -1.
     999901    1    3    3    0    0  0.51566254347E-01 -0.47780664171E-01  0.12120009007E+00  0.89108446978E+00  0.88000000000E+00 0.  1.
        -11    1    4    4    0    0 -0.32374924418E-02  0.99513125753E-02 -0.35927847925E-01  0.37424341768E-01  0.51100000000E-03 0.  1.
         11    1    4    4    0    0 -0.45319631324E-01  0.15256587554E-01 -0.78042173908E-01  0.91528544599E-01  0.51100000000E-03 0. -1.
</event>
<event>
 8    1  0.1090774E+005  0.1043930E+01  0.7957747E-01            NaN
         13   -1    0    0    0    0  0.00000000000E+00  0.00000000000E+00  0.74505805969E-08  0.10566000000E+00  0.10566000000E+00 0.  1.
     999900   -1    0    0    0    0 -0.00000000000E+00 -0.00000000000E+00 -0.74505805969E-08  0.93827000000E+00  0.93827000000E+00 0. -1.
     999902    2    1    2    0    0 -0.11762157656E-01 -0.27893262446E-02 -0.19118242413E-01  0.10213106303E+01  0.10210601195E+01 0.  0.
     999903    2    3    3    0    0  0.88714185275E-01 -0.52750746048E-02 -0.95873495983E-01  0.13227011186E+00  0.20140064036E-01 0.  0.
         14    1    1    2    0    0  0.11762157656E-01  0.27893262446E-02  0.19118242413E-01  0.22619369721E-01  0.00000000000E+00 0.  1.
     999901    1    3    3    0    0 -0.10047634293E+00  0.24857483601E-02  0.76755253570E-01  0.88904051842E+00  0.88000000000E+00 0.  1.
        -11    1    4    4    0    0  0.73751048670E-01 -0.76211813537E-02 -0.68312451931E-01  0.10081741811E+00  0.51100000000E-03 0.  1.
         11    1    4    4    0    0  0.14963136605E-01  0.23461067489E-02 -0.27561044052E-01  0.31452693750E-01  0.51100000000E-03 0. -1.
</event>
<event>
 8    1  0.1090774E+005  0.1043930E+01  0.7957747E-01            NaN
         13   -1    0    0    0    0  0.00000000000E+00  0.00000000000E+00  0.74505805969E-08  0.10566000000E+00  0.10566000000E+00 0. -1.
     999900   -1    0    0    0    0 -0.00000000000E+00 -0.00000000000E+00 -0.74505805969E-08  0.93827000000E+00  0.93827000000E+00 0. -1.
     999902    2    1    2    0    0 -0.18474713563E-01 -0.96952954152E-02  0.10336495157E-01  0.10206457365E+01  0.10203801069E+01 0.  0.
     999903    2    3    3    0    0 -0.91094973223E-01 -0.27529331989E-01 -0.89172361555E-01  0.13188605721E+00  0.19648505158E-01 0.  0.
         14    1    1    2    0    0  0.18474713563E-01  0.96952954152E-02 -0.10336495157E-01  0.23284263496E-01  0.00000000000E+00 0. -1.
     999901    1    3    3    0    0  0.72620259660E-01  0.17834036574E-01  0.99508856712E-01  0.88875967929E+00  0.88000000000E+00 0.  1.
        -11    1    4    4    0    0 -0.40414522065E-01 -0.21112946742E-01 -0.48641236021E-01  0.66673241083E-01  0.51100000000E-03 0. -1.
         11    1    4    4    0    0 -0.50680451158E-01 -0.64163852477E-02 -0.40531125534E-01  0.65212816128E-01  0.51100000000E-03 0.  1.
</event>
<event>
 8    1  0.1090774E+005  0.1043930E+01  0.7957747E-01            NaN
         13   -1    0    0    0    0  0.00000000000E+00  0.00000000000E+00  0.74505805969E-08  0.10566000000E+00  0.10566000000E+00 0. -1.
     999900   -1    0    0    0    0 -0.00000000000E+00 -0.00000000000E+00 -0.74505805969E-08  0.93827000000E+00  0.93827000000E+00 0. -1.
     999902    2    1    2    0    0  0.12515217910E-01 -0.19198803792E-01  0.58579035763E-02  0.10202754068E+01  0.10200011597E+01 0.  0.
     999903    2    3    3    0    0  0.22559872132E-01 -0.56976988191E-01  0.11545775519E+00  0.13261544160E+00  0.22383858128E-01 0.  0.
         14    1    1    2    0    0 -0.12515217910E-01  0.19198803792E-01 -0.58579035763E-02  0.23654593226E-01  0.00000000000E+00 0.  1.
     999901    1    3    3    0    0 -0.10044654222E-01  0.37778184398E-01 -0.10959985161E+00  0.88765996517E+00  0.88000000000E+00 0. -1.
        -11    1    4    4    0    0  0.37041250054E-02 -0.33249651276E-01  0.74431861225E-01  0.81606512843E-01  0.51100000000E-03 0.  1.
         11    1    4    4    0    0  0.18855747126E-01 -0.23727336915E-01  0.41025893962E-01  0.51008928759E-01  0.51100000000E-03 0. -1.
</event>
<event>
 8    1  0.1090774E+005  0.1043930E+01  0.7957747E-01            NaN
         13   -1    0    0    0    0  0.00000000000E+00  0.00000000000E+00  0.74505805969E-08  0.10566000000E+00  0.10566000000E+00 0.  1.
     999900   -1    0    0    0    0 -0.00000000000E+00 -0.00000000000E+00 -0.74505805969E-08  0.93827000000E+00  0.93827000000E+00 0.  1.
     999902    2    1    2    0    0 -0.20943019590E-01  0.15128331925E-02  0.20473850769E-01  0.10146029255E+01  0.10141789877E+01 0.  0.
     999903    2    3    3    0    0  0.40191509984E-01  0.73480702960E-01 -0.87927996510E-01  0.12293720030E+00  0.19169023595E-01 0.  0.
         14    1    1    2    0    0  0.20943019590E-01 -0.15128331925E-02 -0.20473850769E-01  0.29327074507E-01  0.00000000000E+00 0. -1.
     999901    1    3    3    0    0 -0.61134529574E-01 -0.71967869767E-01  0.10840184728E+00  0.89166572519E+00  0.88000000000E+00 0. -1.
        -11    1    4    4    0    0  0.67161766592E-02  0.19825805586E-01 -0.33461444602E-01  0.39472762659E-01  0.51100000000E-03 0. -1.
         11    1    4    4    0    0  0.33475333325E-01  0.53654897374E-01 -0.54466551908E-01  0.83464437643E-01  0.51100000000E-03 0.  1.
</event>
<event>
 8    1  0.1090774E+005  0.1043930E+01  0.7957747E-01            NaN
         13   -1    0    0    0    0  0.00000000000E+00  0.00000000000E+00  0.74505805969E-08  0.10566000000E+00  0.10566000000E+00 0.  1.
     999900   -1    0    0    0    0 -0.00000000000E+00 -0.00000000000E+00 -0.74505805969E-08  0.93827000000E+00  0.93827000000E+00 0.  1.
     999902    2    1    2    0    0  0.47529437669E-02 -0.23274148857E-01  0.35328164950E-02  0.10199142287E+01  0.10196314416E+01 0.  0.
     999903    2    3    3    0    0 -0.14662338376E-01 -0.88514598903E-01 -0.94684551940E-01  0.13183769991E+00  0.19136257608E-01 0.  0.
         14    1    1    2    0    0 -0.47529437669E-02  0.23274148857E-01 -0.35328164950E-02  0.24015771315E-01  0.00000000000E+00 0. -1.
     999901    1    3    3    0    0  0.19415282143E-01  0.65240450046E-01  0.98217368435E-01  0.88807652878E+00  0.88000000000E+00 0. -1.
        -11    1    4    4    0    0 -0.98916497880E-02 -0.69228482468E-01 -0.83907178156E-01  0.10922958934E+00  0.51100000000E-03 0. -1.
         11    1    4    4    0    0 -0.47706885881E-02 -0.19286116435E-01 -0.10777373784E-01  0.22608110567E-01  0.51100000000E-03 0.  1.
</event>
<event>
 8    1  0.1090774E+005  0.1043930E+01  0.7957747E-01            NaN
         13   -1    0    0    0    0  0.00000000000E+00  0.00000000000E+00  0.74505805969E-08  0.10566000000E+00  0.10566000000E+00 0.  1.
     999900   -1    0    0    0    0 -0.00000000000E+00 -0.00000000000E+00 -0.74505805969E-08  0.93827000000E+00  0.93827000000E+00 0. -1.
     999902    2    1    2    0    0 -0.39130656812E-02  0.23821970780E-01 -0.25448429185E-02  0.10196550211E+01  0.10193660223E+01 0.  0.
     999903    2    3    3    0    0  0.29905935245E-01  0.76451386568E-01 -0.10127885436E+00  0.13192646730E+00  0.20199182202E-01 0.  0.
         14    1    1    2    0    0  0.39130656812E-02 -0.23821970780E-01  0.25448429185E-02  0.24274978895E-01  0.00000000000E+00 0. -1.
     999901    1    3    3    0    0 -0.33819000926E-01 -0.52629415789E-01  0.98734011444E-01  0.88772855381E+00  0.88000000000E+00 0.  1.
        -11    1    4    4    0    0  0.12372909777E-03  0.68414105681E-02 -0.18557641633E-01  0.19785534904E-01  0.51100000000E-03 0.  1.
         11    1    4    4    0    0  0.29782206147E-01  0.69609976000E-01 -0.82721212729E-01  0.11214093239E+00  0.51100000000E-03 0. -1.
</event>
<event>
 7    1  0.1090774E+005  0.1043930E+01  0.7957747E-01            NaN
         13   -1    0    0    0    0  0.00000000000E+00  0.00000000000E+00  0.74505805969E-08  0.10566000000E+00  0.10566000000E+00 0. -1.
     999900   -1    0    0    0    0 -0.00000000000E+00 -0.00000000000E+00 -0.74505805969E-08  0.93827000000E+00  0.93827000000E+00 0.  1.
     999902    2    1    2    0    0  0.13025903390E-01  0.19080966669E-01 -0.11651066811E-02  0.10207974489E+01  0.10205353089E+01 0.  0.
         14    1    1    2    0    0 -0.13025903390E-01 -0.19080966669E-01  0.11651066811E-02  0.23132551128E-01  0.00000000000E+00 0. -1.
     999901    1    3    3    0    0 -0.86274497642E-01 -0.55885162269E-01 -0.25639451221E-01  0.88635423041E+00  0.88000000000E+00 0. -1.
        -11    1    3    3    0    0  0.65274460383E-01  0.33348935633E-01 -0.43754029325E-02  0.73432363151E-01  0.51100000000E-03 0. -1.
         11    1    3    3    0    0  0.34025940649E-01  0.41617193305E-01  0.28849747472E-01  0.61010855312E-01  0.51100000000E-03 0.  1.
</event>
<event>
 8    1  0.1090774E+005  0.1043930E+01  0.7957747E-01            NaN
         13   -1    0    0    0    0  0.00000000000E+00  0.00000000000E+00  0.74505805969E-08  0.10566000000E+00  0.10566000000E+00 0. -1.
     999900   -1    0    0    0    0 -0.00000000000E+00 -0.00000000000E+00 -0.74505805969E-08  0.93827000000E+00  0.93827000000E+00 0.  1.
     999902    2    1    2    0    0 -0.96811422696E-02 -0.21107975666E-01 -0.95209093255E-02  0.10188318155E+01  0.10185226307E+01 0.  0.
     999903    2    3    3    0    0 -0.12217983717E+00  0.37817460937E-01  0.26622998103E-02  0.12963184133E+00  0.20958374994E-01 0.  0.
         14    1    1    2    0    0  0.96811422696E-02  0.21107975666E-01  0.95209093255E-02  0.25098184531E-01  0.00000000000E+00 0. -1.
     999901    1    3    3    0    0  0.11249869490E+00 -0.58925436603E-01 -0.12183209136E-01  0.88919997414E+00  0.88000000000E+00 0. -1.
        -11    1    4    4    0    0 -0.48361538973E-01  0.18207582506E-01  0.10879552163E-01  0.52810797085E-01  0.51100000000E-03 0.  1.
         11    1    4    4    0    0 -0.73818298198E-01  0.19609878432E-01 -0.82172523526E-02  0.76821044240E-01  0.51100000000E-03 0. -1.
</event>
<event>
 8    1  0.1090774E+005  0.1043930E+01  0.7957747E-01            NaN
         13   -1    0    0    0    0  0.00000000000E+00  0.00000000000E+00  0.74505805969E-08  0.10566000000E+00  0.10566000000E+00 0.  1.
     999900   -1    0    0    0    0 -0.00000000000E+00 -0.00000000000E+00 -0.74505805969E-08  0.93827000000E+00  0.93827000000E+00 0. -1.
     999902    2    1    2    0    0  0.17368641868E-01  0.21481219677E-02  0.16281045790E-01  0.10200269332E+01  0.10197468254E+01 0.  0.
     999903    2    3    3    0    0 -0.98821075370E-01  0.61829147586E-01  0.53140149649E-01  0.12962226752E+00  0.19738497993E-01 0.  0.
         14    1    1    2    0    0 -0.17368641868E-01 -0.21481219677E-02 -0.16281045790E-01  0.23903066756E-01  0.00000000000E+00 0. -1.
     999901    1    3    3    0    0  0.11618971724E+00 -0.59681025618E-01 -0.36859103859E-01  0.89040466573E+00  0.88000000000E+00 0. -1.
        -11    1    4    4    0    0 -0.90950029085E-01  0.52456620718E-01  0.42063337639E-01  0.11310698626E+00  0.51100000000E-03 0.  1.
         11    1    4    4    0    0 -0.78710462855E-02  0.93725268680E-02  0.11076812011E-01  0.16515281252E-01  0.51100000000E-03 0. -1.
</event>
<event>
 8    1  0.1090774E+005  0.1043930E+01  0.7957747E-01            NaN
         13   -1    0    0    0    0  0.00000000000E+00  0.00000000000E+00  0.74505805969E-08  0.10566000000E+00  0.10566000000E+00 0. -1.
     999900   -1    0    0    0    0 -0.00000000000E+00 -0.00000000000E+00 -0.74505805969E-08  0.93827000000E+00  0.93827000000E+00 0. -1.
     999902    2    1    2    0    0  0.11467851762E-01  0.16566478150E-01 -0.19206572446E-01  0.10160938320E+01  0.10157124707E+01 0.  0.
     999903    2    3    3    0    0 -0.10798882621E+00 -0.52269066886E-01 -0.30345450179E-01  0.12528952985E+00  0.19569823850E-01 0.  0.
         14    1    1    2    0    0 -0.11467851762E-01 -0.16566478150E-01  0.19206572446E-01  0.27836167974E-01  0.00000000000E+00 0. -1.
     999901    1    3    3    0    0  0.11945667797E+00  0.68835545035E-01  0.11138877733E-01  0.89080430217E+00  0.88000000000E+00 0. -1.
        -11    1    4    4    0    0 -0.44189461440E-01 -0.30563027587E-01 -0.18735090841E-01  0.56904058796E-01  0.51100000000E-03 0. -1.
         11    1    4    4    0    0 -0.63799364768E-01 -0.21706039299E-01 -0.11610359338E-01  0.68385471058E-01  0.51100000000E-03 0.  1.
</event>
<event>
 8    1  0.1090774E+005  0.1043930E+01  0.7957747E-01            NaN
         13   -1    0    0    0    0  0.00000000000E+00  0.00000000000E+00  0.74505805969E-08  0.10566000000E+00  0.10566000000E+00 0.  1.
     999900   -1    0    0    0    0 -0.00000000000E+00 -0.00000000000E+00 -0.74505805969E-08  0.93827000000E+00  0.93827000000E+00 0. -1.
     999902    2    1    2    0    0 -0.12022382511E-01 -0.18467597561E-01 -0.12096898824E-01  0.10187918855E+01  0.10184817039E+01 0.  0.
     999903    2    3    3    0    0 -0.38266586661E-01  0.11979526687E+00 -0.11475595699E-01  0.12760965722E+00  0.18365666319E-01 0.  0.
         14    1    1    2    0    0  0.12022382511E-01  0.18467597561E-01  0.12096898824E-01  0.25138114529E-01  0.00000000000E+00 0.  1.
     999901    1    3    3    0    0  0.26244204150E-01 -0.13826286443E+00 -0.62130312483E-03  0.89118222825E+00  0.88000000000E+00 0. -1.
        -11    1    4    4    0    0 -0.68017308709E-02  0.33758799942E-01  0.40995516214E-02  0.34684111072E-01  0.51100000000E-03 0. -1.
         11    1    4    4    0    0 -0.31464855790E-01  0.86036466930E-01 -0.15575147321E-01  0.92925546148E-01  0.51100000000E-03 0.  1.
</event>
<event>
 8    1  0.1090774E+005  0.1043930E+01  0.7957747E-01            NaN
         13   -1    0    0    0    0  0.00000000000E+00  0.00000000000E+00  0.74505805969E-08  0.10566000000E+00  0.10566000000E+00 0.  1.
     999900   -1    0    0    0    0 -0.00000000000E+00 -0.00000000000E+00 -0.74505805969E-08  0.93827000000E+00  0.93827000000E+00 0.  1.
     999902    2    1    2    0    0  0.21167364975E-01  0.91582728715E-02  0.42977164924E-02  0.10204693592E+01  0.10201996429E+01 0.  0.
     999903    2    3    3    0    0 -0.10996389477E+00  0.11858386911E-01  0.63201829187E-01  0.12880103943E+00  0.19040930965E-01 0.  0.
         14    1    1    2    0    0 -0.21167364975E-01 -0.91582728715E-02 -0.42977164924E-02  0.23460640849E-01  0.00000000000E+00 0. -1.
     999901    1    3    3    0    0  0.13113125975E+00 -0.27001140392E-02 -0.58904112694E-01  0.89166831972E+00  0.88000000000E+00 0. -1.
        -11    1    4    4    0    0 -0.43100749956E-01 -0.42438683309E-02  0.27567990052E-01  0.51341408839E-01  0.51100000000E-03 0.  1.
         11    1    4    4    0    0 -0.66863144819E-01  0.16102255242E-01  0.35633839135E-01  0.77459630592E-01  0.51100000000E-03 0. -1.
</event>
<event>
 8    1  0.1090774E+005  0.1043930E+01  0.7957747E-01            NaN
         13   -1    0    0    0    0  0.00000000000E+00  0.00000000000E+00  0.74505805969E-08  0.10566000000E+00  0.10566000000E+00 0.  1.
     999900   -1    0    0    0    0 -0.00000000000E+00 -0.00000000000E+00 -0.74505805969E-08  0.93827000000E+00  0.93827000000E+00 0. -1.
     999902    2    1    2    0    0 -0.17006588806E-02  0.42107110492E-02 -0.22916410557E-01  0.10205679752E+01  0.10203005478E+01 0.  0.
     999903    2    3    3    0    0  0.89263163908E-01  0.61784005251E-01  0.67706121271E-01  0.12938811430E+00  0.19287030091E-01 0.  0.
         14    1    1    2    0    0  0.17006588806E-02 -0.42107110492E-02  0.22916410557E-01  0.23362024762E-01  0.00000000000E+00 0.  1.
     999901    1    3    3    0    0 -0.90963822788E-01 -0.57573294202E-01 -0.90622531827E-01  0.89117986094E+00  0.88000000000E+00 0. -1.
        -11    1    4    4    0    0  0.67134406962E-01  0.55601815079E-01  0.55852053763E-01  0.10352923968E+00  0.51100000000E-03 0. -1.
         11    1    4    4    0    0  0.22128756946E-01  0.61821901717E-02  0.11854067508E-01  0.25858874623E-01  0.51100000000E-03 0.  1.
</event>
<event>
 8    1  0.1090774E+005  0.1043930E+01  0.7957747E-01            NaN
         13   -1    0    0    0    0  0.00000000000E+00  0.00000000000E+00  0.74505805969E-08  0.10566000000E+00  0.10566000000E+00 0. -1.
     999900   -1    0    0    0    0 -0.00000000000E+00 -0.00000000000E+00 -0.74505805969E-08  0.93827000000E+00  0.93827000000E+00 0.  1.
     999902    2    1    2    0    0 -0.12090184653E-01 -0.18815824136E-01 -0.83958759400E-02  0.10200407025E+01  0.10197609211E+01 0.  0.
     999903    2    3    3    0    0  0.74435573920E-01 -0.68938245452E-01  0.78725595676E-01  0.13010299971E+00  0.20879050910E-01 0.  0.
         14    1    1    2    0    0  0.12090184653E-01  0.18815824136E-01  0.83958759400E-02  0.23889297513E-01  0.00000000000E+00 0. -1.
     999901    1    3    3    0    0 -0.86525758574E-01  0.50122421316E-01 -0.87121471616E-01  0.88993770278E+00  0.88000000000E+00 0.  1.
        -11    1    4    4    0    0  0.48791874581E-01 -0.43196166731E-01  0.62541638499E-01  0.90323161551E-01  0.51100000000E-03 0. -1.
         11    1    4    4    0    0  0.25643699339E-01 -0.25742078722E-01  0.16183957177E-01  0.39779838155E-01  0.51100000000E-03 0.  1.
</event>
<event>
 8    1  0.1090774E+005  0.1043930E+01  0.7957747E-01            NaN
         13   -1    0    0    0    0  0.00000000000E+00  0.00000000000E+00  0.74505805969E-08  0.10566000000E+00  0.10566000000E+00 0. -1.
     999900   -1    0    0    0    0 -0.00000000000E+00 -0.00000000000E+00 -0.74505805969E-08  0.93827000000E+00  0.93827000000E+00 0.  1.
     999902    2    1    2    0    0  0.12602492510E-01  0.19561892865E-01 -0.39229685427E-02  0.10203316918E+01  0.10200587635E+01 0.  0.
     999903    2    3    3    0    0  0.47297576153E-01 -0.10000694306E+00 -0.64384821766E-01  0.12951403867E+00  0.19749216922E-01 0.  0.
         14    1    1    2    0    0 -0.12602492510E-01 -0.19561892865E-01  0.39229685427E-02  0.23598308247E-01  0.00000000000E+00 0.  1.
     999901    1    3    3    0    0 -0.34695083643E-01  0.11956883592E+00  0.60461853223E-01  0.89081765308E+00  0.88000000000E+00 0. -1.
        -11    1    4    4    0    0  0.14974735003E-01 -0.48711143017E-01 -0.37033087139E-01  0.62997847634E-01  0.51100000000E-03 0.  1.
         11    1    4    4    0    0  0.32322841150E-01 -0.51295800039E-01 -0.27351734627E-01  0.66516191034E-01  0.51100000000E-03 0. -1.
</event>
<event>
 8    1  0.1090774E+005  0.1043930E+01  0.7957747E-01            NaN
         13   -1    0    0    0    0  0.00000000000E+00  0.00000000000E+00  0.74505805969E-08  0.10566000000E+00  0.10566000000E+00 0. -1.
     999900   -1    0    0    0    0 -0.00000000000E+00 -0.00000000000E+00 -0.74505805969E-08  0.93827000000E+00  0.93827000000E+00 0. -1.
     999902    2    1    2    0    0 -0.16422843440E-01  0.39434731148E-02 -0.26303463670E-02  0.10268367414E+01  0.10266944599E+01 0.  0.
     999903    2    3    3    0    0 -0.21633374960E-01  0.33841594222E-01  0.12894913175E+00  0.13653667608E+00  0.20028203250E-01 0.  0.
         14    1    1    2    0    0  0.16422843440E-01 -0.39434731148E-02  0.26303463670E-02  0.17093258579E-01  0.00000000000E+00 0. -1.
     999901    1    3    3    0    0  0.52105315205E-02 -0.29898121107E-01 -0.13157947811E+00  0.89030006534E+00  0.88000000000E+00 0. -1.
        -11    1    4    4    0    0 -0.20423646969E-01  0.14379906430E-01  0.81216868335E-01  0.84972630227E-01  0.51100000000E-03 0.  1.
         11    1    4    4    0    0 -0.12097279912E-02  0.19461687791E-01  0.47732263411E-01  0.51564045854E-01  0.51100000000E-03 0. -1.
</event>
<event>
 8    1  0.1090774E+005  0.1043930E+01  0.7957747E-01            NaN
         13   -1    0    0    0    0  0.00000000000E+00  0.00000000000E+00  0.74505805969E-08  0.10566000000E+00  0.10566000000E+00 0. -1.
     999900   -1    0    0    0    0 -0.00000000000E+00 -0.00000000000E+00 -0.74505805969E-08  0.93827000000E+00  0.93827000000E+00 0.  1.
     999902    2    1    2    0    0  0.10642054884E-01 -0.18468433363E-01  0.77282515107E-02  0.10212570594E+01  0.10210053473E+01 0.  0.
     999903    2    3    3    0    0 -0.66725157233E-01  0.50334329039E-01  0.98030584788E-01  0.13059774351E+00  0.21447232191E-01 0.  0.
         14    1    1    2    0    0 -0.10642054884E-01  0.18468433363E-01 -0.77282515107E-02  0.22672940578E-01  0.00000000000E+00 0.  1.
     999901    1    3    3    0    0  0.77367212117E-01 -0.68802762401E-01 -0.90302333277E-01  0.89065931591E+00  0.88000000000E+00 0. -1.
        -11    1    4    4    0    0 -0.50700645501E-02  0.11457675590E-01  0.21643297016E-01  0.25013542556E-01  0.51100000000E-03 0.  1.
         11    1    4    4    0    0 -0.61655092683E-01  0.38876653449E-01  0.76387287772E-01  0.10558420096E+00  0.51100000000E-03 0. -1.
</event>
<event>
 8    1  0.1090774E+005  0.1043930E+01  0.7957747E-01            NaN
         13   -1    0    0    0    0  0.00000000000E+00  0.00000000000E+00  0.74505805969E-08  0.10566000000E+00  0.10566000000E+00 0. -1.
     999900   -1    0    0    0    0 -0.00000000000E+00 -0.00000000000E+00 -0.74505805969E-08  0.93827000000E+00  0.93827000000E+00 0. -1.
     999902    2    1    2    0    0 -0.87658897669E-02 -0.20376879107E-02  0.20627229415E-01  0.10214249875E+01  0.10211770314E+01 0.  0.
     999903    2    3    3    0    0 -0.74290419103E-01 -0.22407044579E-01  0.10795093144E+00  0.13444482785E+00  0.20021641294E-01 0.  0.
         14    1    1    2    0    0  0.87658897669E-02  0.20376879107E-02 -0.20627229415E-01  0.22505012525E-01  0.00000000000E+00 0.  1.
     999901    1    3    3    0    0  0.65524529336E-01  0.20369356668E-01 -0.87323702021E-01  0.88698015963E+00  0.88000000000E+00 0.  1.
        -11    1    4    4    0    0 -0.26155848428E-01  0.15085752924E-02  0.31208844652E-01  0.40751163319E-01  0.51100000000E-03 0. -1.
         11    1    4    4    0    0 -0.48134570675E-01 -0.23915619871E-01  0.76742086785E-01  0.93693664529E-01  0.51100000000E-03 0.  1.
</event>
<event>
 8    1  0.1090774E+005  0.1043930E+01  0.7957747E-01            NaN
         13   -1    0    0    0    0  0.00000000000E+00  0.00000000000E+00  0.74505805969E-08  0.10566000000E+00  0.10566000000E+00 0. -1.
     999900   -1    0    0    0    0 -0.00000000000E+00 -0.00000000000E+00 -0.74505805969E-08  0.93827000000E+00  0.93827000000E+00 0. -1.
     999902    2    1    2    0    0  0.35376074971E-02 -0.23820405473E-02 -0.23152797459E-01  0.10203876804E+01  0.10201160608E+01 0.  0.
     999903    2    3    3    0    0 -0.11790670800E+00  0.24944250564E-01  0.41235914025E-01  0.12929769942E+00  0.22210066261E-01 0.  0.
         14    1    1    2    0    0 -0.35376074971E-02  0.23820405473E-02  0.23152797459E-01  0.23542319642E-01  0.00000000000E+00 0. -1.
     999901    1    3    3    0    0  0.12144431550E+00 -0.27326291111E-01 -0.64388711484E-01  0.89108998093E+00  0.88000000000E+00 0. -1.
        -11    1    4    4    0    0 -0.44430319585E-01 -0.14645542391E-02  0.14223627502E-01  0.46677306241E-01  0.51100000000E-03 0. -1.
         11    1    4    4    0    0 -0.73476388415E-01  0.26408804803E-01  0.27012286523E-01  0.82620393184E-01  0.51100000000E-03 0.  1.
</event>
<event>
 8    1  0.1090774E+005  0.1043930E+01  0.7957747E-01            NaN
         13   -1    0    0    0    0  0.00000000000E+00  0.00000000000E+00  0.74505805969E-08  0.10566000000E+00  0.10566000000E+00 0.  1.
     999900   -1    0    0    0    0 -0.00000000000E+00 -0.00000000000E+00 -0.74505805969E-08  0.93827000000E+00  0.93827000000E+00 0. -1.
     999902    2    1    2    0    0  0.30314829743E-01 -0.17283198521E-01 -0.51046087448E-02  0.10086630908E+01  0.10080463659E+01 0.  0.
     999903    2    3    3    0    0 -0.10621239054E-01  0.22914505562E-01 -0.11560887657E+00  0.11989832421E+00  0.19295349765E-01 0.  0.
         14    1    1    2    0    0 -0.30314829743E-01  0.17283198521E-01  0.51046087448E-02  0.35266909191E-01  0.00000000000E+00 0.  1.
     999901    1    3    3    0    0  0.40936068797E-01 -0.40197704083E-01  0.11050426782E+00  0.88876476660E+00  0.88000000000E+00 0.  1.
        -11    1    4    4    0    0  0.47947154802E-02  0.14752448283E-02 -0.12967969498E-01  0.13913841948E-01  0.51100000000E-03 0.  1.
         11    1    4    4    0    0 -0.15415954535E-01  0.21439260733E-01 -0.10264090707E+00  0.10598448226E+00  0.51100000000E-03 0. -1.
</event>
<event>
 8    1  0.1090774E+005  0.1043930E+01  0.7957747E-01            NaN
         13   -1    0    0    0    0  0.00000000000E+00  0.00000000000E+00  0.74505805969E-08  0.10566000000E+00  0.10566000000E+00 0.  1.
     999900   -1    0    0    0    0 -0.00000000000E+00 -0.00000000000E+00 -0.74505805969E-08  0.93827000000E+00  0.93827000000E+00 0. -1.
     999902    2    1    2    0    0 -0.69274916406E-02 -0.11274354024E-01 -0.19676556478E-01  0.10202178075E+01  0.10199422075E+01 0.  0.
     999903    2    3    3    0    0  0.10664231011E+00  0.69151686640E-02  0.68036005901E-01  0.12840927859E+00  0.20967662392E-01 0.  0.
         14    1    1    2    0    0  0.69274916406E-02  0.11274354024E-01  0.19676556478E-01  0.23712192516E-01  0.00000000000E+00 0.  1.
     999901    1    3    3    0    0 -0.11356980175E+00 -0.18189522688E-01 -0.87712562380E-01  0.89180852889E+00  0.88000000000E+00 0.  1.
        -11    1    4    4    0    0  0.23775065303E-01 -0.69643868064E-02  0.13205816683E-01  0.28078659673E-01  0.51100000000E-03 0. -1.
         11    1    4    4    0    0  0.82867244807E-01  0.13879555470E-01  0.54830189219E-01  0.10033061892E+00  0.51100000000E-03 0.  1.
</event>
<event>
 8    1  0.1090774E+005  0.1043930E+01  0.7957747E-01            NaN
         13   -1    0    0    0    0  0.00000000000E+00  0.00000000000E+00  0.74505805969E-08  0.10566000000E+00  0.10566000000E+00 0.  1.
     999900   -1    0    0    0    0 -0.00000000000E+00 -0.00000000000E+00 -0.74505805969E-08  0.93827000000E+00  0.93827000000E+00 0. -1.
     999902    2    1    2    0    0  0.91154868473E-02 -0.20573023223E-01 -0.85658659894E-02  0.10198527193E+01  0.10195684644E+01 0.  0.
     999903    2    3    3    0    0  0.95798133483E-01 -0.89265643405E-01  0.75566262954E-02  0.13278310984E+00  0.20702999463E-01 0.  0.
         14    1    1    2    0    0 -0.91154868473E-02  0.20573023223E-01  0.85658659894E-02  0.24077280684E-01  0.00000000000E+00 0.  1.
     999901    1    3    3    0    0 -0.86682646636E-01  0.68692620182E-01 -0.16122492285E-01  0.88706960947E+00  0.88000000000E+00 0. -1.
        -11    1    4    4    0    0  0.75391414275E-01 -0.71390354692E-01 -0.24614424049E-02  0.10385936601E+00  0.51100000000E-03 0.  1.
         11    1    4    4    0    0  0.20406719208E-01 -0.17875288714E-01  0.10018068700E-01  0.28923743826E-01  0.51100000000E-03 0. -1.
</event>
<event>
 8    1  0.1090774E+005  0.1043930E+01  0.7957747E-01            NaN
         13   -1    0    0    0    0  0.00000000000E+00  0.00000000000E+00  0.74505805969E-08  0.10566000000E+00  0.10566000000E+00 0. -1.
     999900   -1    0    0    0    0 -0.00000000000E+00 -0.00000000000E+00 -0.74505805969E-08  0.93827000000E+00  0.93827000000E+00 0.  1.
     999902    2    1    2    0    0 -0.23630761768E-01 -0.61949093428E-02  0.32026084022E-02  0.10192916863E+01  0.10189938641E+01 0.  0.
     999903    2    3    3    0    0  0.58013687697E-01 -0.26391638222E-01 -0.10926371154E+00  0.12815623241E+00  0.20575585445E-01 0.  0.
         14    1    1    2    0    0  0.23630761768E-01  0.61949093428E-02 -0.32026084022E-02  0.24638313742E-01  0.00000000000E+00 0.  1.
     999901    1    3    3    0    0 -0.81644449465E-01  0.20196728880E-01  0.11246631995E+00  0.89113545385E+00  0.88000000000E+00 0. -1.
        -11    1    4    4    0    0  0.34751703425E-01 -0.23392023643E-01 -0.82769353150E-01  0.92767961079E-01  0.51100000000E-03 0.  1.
         11    1    4    4    0    0  0.23261984272E-01 -0.29996145797E-02 -0.26494358394E-01  0.35388271328E-01  0.51100000000E-03 0. -1.
</event>
<event>
 8    1  0.1090774E+005  0.1043930E+01  0.7957747E-01            NaN
         13   -1    0    0    0    0  0.00000000000E+00  0.00000000000E+00  0.74505805969E-08  0.10566000000E+00  0.10566000000E+00 0.  1.
     999900   -1    0    0    0    0 -0.00000000000E+00 -0.00000000000E+00 -0.74505805969E-08  0.93827000000E+00  0.93827000000E+00 0. -1.
     999902    2    1    2    0    0  0.20275376677E-01  0.12180753066E-01  0.46094189620E-03  0.10202725675E+01  0.10199982539E+01 0.  0.
     999903    2    3    3    0    0  0.95414893176E-01  0.87149550527E-01  0.26920436620E-01  0.13349955687E+00  0.19959353206E-01 0.  0.
         14    1    1    2    0    0 -0.20275376677E-01 -0.12180753066E-01 -0.46094189620E-03  0.23657432491E-01  0.00000000000E+00 0. -1.
     999901    1    3    3    0    0 -0.75139516500E-01 -0.74968797461E-01 -0.26459494723E-01  0.88677301064E+00  0.88000000000E+00 0. -1.
        -11    1    4    4    0    0  0.35817563800E-01  0.42907830628E-01  0.18096360707E-01  0.58751333582E-01  0.51100000000E-03 0.  1.
         11    1    4    4    0    0  0.59597329376E-01  0.44241719899E-01  0.88240759121E-02  0.74748223291E-01  0.51100000000E-03 0. -1.
</event>
<event>
 8    1  0.1090774E+005  0.1043930E+01  0.7957747E-01            NaN
         13   -1    0    0    0    0  0.00000000000E+00  0.00000000000E+00  0.74505805969E-08  0.10566000000E+00  0.10566000000E+00 0. -1.
     999900   -1    0    0    0    0 -0.00000000000E+00 -0.00000000000E+00 -0.74505805969E-08  0.93827000000E+00  0.93827000000E+00 0. -1.
     999902    2    1    2    0    0  0.17451953829E-01  0.18196723306E-01 -0.96337861605E-02  0.10169392374E+01  0.10165809910E+01 0.  0.
     999903    2    3    3    0    0  0.80852262358E-02  0.94328903792E-01 -0.87213352324E-01  0.13020227887E+00  0.19574259233E-01 0.  0.
         14    1    1    2    0    0 -0.17451953829E-01 -0.18196723306E-01  0.96337861605E-02  0.26990762629E-01  0.00000000000E+00 0.  1.
     999901    1    3    3    0    0  0.93667275930E-02 -0.76132180486E-01  0.77579566163E-01  0.88673695850E+00  0.88000000000E+00 0.  1.
        -11    1    4    4    0    0  0.34971936481E-02  0.26407172647E-01 -0.37066968359E-01  0.45648553043E-01  0.51100000000E-03 0. -1.
         11    1    4    4    0    0  0.45880325877E-02  0.67921731146E-01 -0.50146383965E-01  0.84553725823E-01  0.51100000000E-03 0.  1.
</event>
<event>
 8    1  0.1090774E+005  0.1043930E+01  0.7957747E-01            NaN
         13   -1    0    0    0    0  0.00000000000E+00  0.00000000000E+00  0.74505805969E-08  0.10566000000E+00  0.10566000000E+00 0. -1.
     999900   -1    0    0    0    0 -0.00000000000E+00 -0.00000000000E+00 -0.74505805969E-08  0.93827000000E+00  0.93827000000E+00 0.  1.
     999902    2    1    2    0    0  0.17033154054E-01  0.14990499972E-01  0.64906869408E-02  0.10203297364E+01  0.10200567624E+01 0.  0.
     999903    2    3    3    0    0  0.89656650886E-01 -0.89937508840E-01 -0.23238004264E-01  0.13062874480E+00  0.19919678222E-01 0.  0.
         14    1    1    2    0    0 -0.17033154054E-01 -0.14990499972E-01 -0.64906869408E-02  0.23600263630E-01  0.00000000000E+00 0.  1.
     999901    1    3    3    0    0 -0.72623496832E-01  0.10492800881E+00  0.29728691205E-01  0.88970099157E+00  0.88000000000E+00 0.  1.
        -11    1    4    4    0    0  0.20510677435E-01 -0.28974530138E-01 -0.13291471962E-01  0.37909571793E-01  0.51100000000E-03 0.  1.
         11    1    4    4    0    0  0.69145973451E-01 -0.60962978702E-01 -0.99465323019E-02  0.92719173004E-01  0.51100000000E-03 0. -1.
</event>
<event>
 8    1  0.1090774E+005  0.1043930E+01  0.7957747E-01            NaN
         13   -1    0    0    0    0  0.00000000000E+00  0.00000000000E+00  0.74505805969E-08  0.10566000000E+00  0.10566000000E+00 0.  1.
     999900   -1    0    0    0    0 -0.00000000000E+00 -0.00000000000E+00 -0.74505805969E-08  0.93827000000E+00  0.93827000000E+00 0. -1.
     999902    2    1    2    0    0 -0.11928146163E-01 -0.75095087063E-02 -0.19151180563E-01  0.10201509944E+01  0.10198738207E+01 0.  0.
     999903    2    3    3    0    0  0.49284292730E-01  0.66345513408E-01 -0.10121675760E+00  0.13114239716E+00  0.11082763945E-01 0.  0.
         14    1    1    2    0    0  0.11928146163E-01  0.75095087063E-02  0.19151180563E-01  0.23779005632E-01  0.00000000000E+00 0.  1.
     999901    1    3    3    0    0 -0.61212438893E-01 -0.73855022114E-01  0.82065577033E-01  0.88900859720E+00  0.88000000000E+00 0.  1.
        -11    1    4    4    0    0  0.20477283601E-01  0.23218037432E-01 -0.45347250072E-01  0.54909294440E-01  0.51100000000E-03 0. -1.
         11    1    4    4    0    0  0.28807009129E-01  0.43127475976E-01 -0.55869507524E-01  0.76233102725E-01  0.51100000000E-03 0.  1.
</event>
<event>
 8    1  0.1090774E+005  0.1043930E+01  0.7957747E-01            NaN
         13   -1    0    0    0    0  0.00000000000E+00  0.00000000000E+00  0.74505805969E-08  0.10566000000E+00  0.10566000000E+00 0. -1.
     999900   -1    0    0    0    0 -0.00000000000E+00 -0.00000000000E+00 -0.74505805969E-08  0.93827000000E+00  0.93827000000E+00 0. -1.
     999902    2    1    2    0    0  0.40869912768E-02  0.11842736611E-01  0.21028500824E-01  0.10194524234E+01  0.10191585215E+01 0.  0.
     999903    2    3    3    0    0  0.26472978386E-02 -0.37990762064E-01 -0.11945567729E+00  0.12691600702E+00  0.19690297462E-01 0.  0.
         14    1    1    2    0    0 -0.40869912768E-02 -0.11842736611E-01 -0.21028500824E-01  0.24477576576E-01  0.00000000000E+00 0.  1.
     999901    1    3    3    0    0  0.14396934382E-02  0.49833498675E-01  0.14048417811E+00  0.89253641640E+00  0.88000000000E+00 0.  1.
        -11    1    4    4    0    0 -0.59844818581E-02 -0.92985777773E-02 -0.51016920505E-01  0.52204069483E-01  0.51100000000E-03 0. -1.
         11    1    4    4    0    0  0.86317796967E-02 -0.28692184286E-01 -0.68438756781E-01  0.74711937537E-01  0.51100000000E-03 0.  1.
</event>
<event>
 8    1  0.1090774E+005  0.1043930E+01  0.7957747E-01            NaN
         13   -1    0    0    0    0  0.00000000000E+00  0.00000000000E+00  0.74505805969E-08  0.10566000000E+00  0.10566000000E+00 0.  1.
     999900   -1    0    0    0    0 -0.00000000000E+00 -0.00000000000E+00 -0.74505805969E-08  0.93827000000E+00  0.93827000000E+00 0.  1.
     999902    2    1    2    0    0 -0.21861812918E-01  0.76343667389E-02 -0.75921398958E-02  0.10195606954E+01  0.10192694190E+01 0.  0.
     999903    2    3    3    0    0  0.40882849008E-01 -0.10868803005E+00  0.49625579233E-01  0.12785353494E+00  0.19983319628E-01 0.  0.
         14    1    1    2    0    0  0.21861812918E-01 -0.76343667389E-02  0.75921398958E-02  0.24369304622E-01  0.00000000000E+00 0. -1.
     999901    1    3    3    0    0 -0.62744661926E-01  0.11632239679E+00 -0.57217719129E-01  0.89170716044E+00  0.88000000000E+00 0.  1.
        -11    1    4    4    0    0  0.29504775799E-01 -0.77552026520E-01  0.25350137458E-01  0.86762544929E-01  0.51100000000E-03 0. -1.
         11    1    4    4    0    0  0.11378073209E-01 -0.31136003529E-01  0.24275441775E-01  0.41090990011E-01  0.51100000000E-03 0.  1.
</event>
<event>
 8    1  0.1090774E+005  0.1043930E+01  0.7957747E-01            NaN
         13   -1    0    0    0    0  0.00000000000E+00  0.00000000000E+00  0.74505805969E-08  0.10566000000E+00  0.10566000000E+00 0. -1.
     999900   -1    0    0    0    0 -0.00000000000E+00 -0.00000000000E+00 -0.74505805969E-08  0.93827000000E+00  0.93827000000E+00 0.  1.
     999902    2    1    2    0    0  0.80092529897E-02  0.22324045681E-01 -0.24207164733E-02  0.10200894669E+01  0.10198108401E+01 0.  0.
     999903    2    3    3    0    0  0.26911198156E-01 -0.89897472630E-01  0.85097311760E-01  0.12845593348E+00  0.21298032898E-01 0.  0.
         14    1    1    2    0    0 -0.80092529897E-02 -0.22324045681E-01  0.24207164733E-02  0.23840533074E-01  0.00000000000E+00 0. -1.
     999901    1    3    3    0    0 -0.18901945167E-01  0.11222151831E+00 -0.87518028234E-01  0.89163353345E+00  0.88000000000E+00 0.  1.
        -11    1    4    4    0    0  0.47969542628E-02 -0.45184346354E-01  0.31852167769E-01  0.55492861146E-01  0.51100000000E-03 0.  1.
         11    1    4    4    0    0  0.22114243894E-01 -0.44713126277E-01  0.53245143991E-01  0.72963072332E-01  0.51100000000E-03 0. -1.
</event>
<event>
 8    1  0.1090774E+005  0.1043930E+01  0.7957747E-01            NaN
         13   -1    0    0    0    0  0.00000000000E+00  0.00000000000E+00  0.74505805969E-08  0.10566000000E+00  0.10566000000E+00 0. -1.
     999900   -1    0    0    0    0 -0.00000000000E+00 -0.00000000000E+00 -0.74505805969E-08  0.93827000000E+00  0.93827000000E+00 0.  1.
     999902    2    1    2    0    0  0.27822274647E-02 -0.14512533606E-01 -0.20161950686E-01  0.10189328266E+01  0.10186261564E+01 0.  0.
     999903    2    3    3    0    0 -0.91799151850E-01  0.29810282459E-01 -0.85343783552E-01  0.13036160231E+00  0.19870801346E-01 0.  0.
         14    1    1    2    0    0 -0.27822274647E-02  0.14512533606E-01  0.20161950686E-01  0.24997173376E-01  0.00000000000E+00 0. -1.
     999901    1    3    3    0    0  0.94581379314E-01 -0.44322816065E-01  0.65181832866E-01  0.88857122431E+00  0.88000000000E+00 0. -1.
        -11    1    4    4    0    0 -0.77855557738E-01  0.21706832880E-01 -0.79006320859E-01  0.11302625501E+00  0.51100000000E-03 0. -1.
         11    1    4    4    0    0 -0.13943594112E-01  0.81034495791E-02 -0.63374626934E-02  0.17335347306E-01  0.51100000000E-03 0.  1.
</event>
<event>
 8    1  0.1090774E+005  0.1043930E+01  0.7957747E-01            NaN
         13   -1    0    0    0    0  0.00000000000E+00  0.00000000000E+00  0.74505805969E-08  0.10566000000E+00  0.10566000000E+00 0.  1.
     999900   -1    0    0    0    0 -0.00000000000E+00 -0.00000000000E+00 -0.74505805969E-08  0.93827000000E+00  0.93827000000E+00 0.  1.
     999902    2    1    2    0    0  0.12226088038E-01 -0.12770141900E-01  0.16296429522E-01  0.10198857207E+01  0.10196022538E+01 0.  0.
     999903    2    3    3    0    0 -0.37969392495E-01 -0.11357097994E+00  0.51700478902E-01  0.13200406081E+00  0.20300007459E-01 0.  0.
         14    1    1    2    0    0 -0.12226088038E-01  0.12770141900E-01 -0.16296429522E-01  0.24044279320E-01  0.00000000000E+00 0. -1.
     999901    1    3    3    0    0  0.50195480533E-01  0.10080083804E+00 -0.35404049380E-01  0.88788165987E+00  0.88000000000E+00 0. -1.
        -11    1    4    4    0    0 -0.67265373849E-03 -0.12896875893E-01  0.11696639822E-01  0.17431419190E-01  0.51100000000E-03 0. -1.
         11    1    4    4    0    0 -0.37296738756E-01 -0.10067410404E+00  0.40003839080E-01  0.11457264162E+00  0.51100000000E-03 0.  1.
</event>
<event>
 8    1  0.1090774E+005  0.1043930E+01  0.7957747E-01            NaN
         13   -1    0    0    0    0  0.00000000000E+00  0.00000000000E+00  0.74505805969E-08  0.10566000000E+00  0.10566000000E+00 0.  1.
     999900   -1    0    0    0    0 -0.00000000000E+00 -0.00000000000E+00 -0.74505805969E-08  0.93827000000E+00  0.93827000000E+00 0. -1.
     999902    2    1    2    0    0 -0.42017504477E-02  0.22996660166E-01  0.46580665966E-02  0.10200930818E+01  0.10198145404E+01 0.  0.
     999903    2    3    3    0    0 -0.38430757765E-01 -0.11032086788E+00 -0.47852443145E-01  0.12784729622E+00  0.20185584018E-01 0.  0.
         14    1    1    2    0    0  0.42017504477E-02 -0.22996660166E-01 -0.46580665966E-02  0.23836918216E-01  0.00000000000E+00 0.  1.
     999901    1    3    3    0    0  0.34229007317E-01  0.13331752805E+00  0.52510509741E-01  0.89224578557E+00  0.88000000000E+00 0.  1.
        -11    1    4    4    0    0 -0.19946870017E-02 -0.58122716154E-02 -0.82424498040E-02  0.10293705714E-01  0.51100000000E-03 0. -1.
         11    1    4    4    0    0 -0.36436070763E-01 -0.10450859627E+00 -0.39609993341E-01  0.11755359050E+00  0.51100000000E-03 0.  1.
</event>
<event>
 8    1  0.1090774E+005  0.1043930E+01  0.7957747E-01            NaN
         13   -1    0    0    0    0  0.00000000000E+00  0.00000000000E+00  0.74505805969E-08  0.10566000000E+00  0.10566000000E+00 0.  1.
     999900   -1    0    0    0    0 -0.00000000000E+00 -0.00000000000E+00 -0.74505805969E-08  0.93827000000E+00  0.93827000000E+00 0.  1.
     999902    2    1    2    0    0 -0.14786332309E-01 -0.15483748826E-01  0.10665515821E-01  0.10200106495E+01  0.10197301554E+01 0.  0.
     999903    2    3    3    0    0 -0.11087408722E+00 -0.41273762876E-01  0.57571017752E-01  0.13316336412E+00  0.20529801267E-01 0.  0.
         14    1    1    2    0    0  0.14786332309E-01  0.15483748826E-01 -0.10665515821E-01  0.23919350505E-01  0.00000000000E+00 0. -1.
     999901    1    3    3    0    0  0.96087754909E-01  0.25790014050E-01 -0.46905501932E-01  0.88684728538E+00  0.88000000000E+00 0.  1.
        -11    1    4    4    0    0 -0.33454253524E-01 -0.20496484185E-01  0.12392262655E-01  0.41147566604E-01  0.51100000000E-03 0. -1.
         11    1    4    4    0    0 -0.77419833694E-01 -0.20777278691E-01  0.45178755097E-01  0.92015797514E-01  0.51100000000E-03 0.  1.
</event>
<event>
 8    1  0.1090774E+005  0.1043930E+01  0.7957747E-01            NaN
         13   -1    0    0    0    0  0.00000000000E+00  0.00000000000E+00  0.74505805969E-08  0.10566000000E+00  0.10566000000E+00 0.  1.
     999900   -1    0    0    0    0 -0.00000000000E+00 -0.00000000000E+00 -0.74505805969E-08  0.93827000000E+00  0.93827000000E+00 0. -1.
     999902    2    1    2    0    0 -0.94675350179E-02  0.17327529271E-01 -0.12782663928E-01  0.10204082231E+01  0.10201370829E+01 0.  0.
     999903    2    3    3    0    0  0.63442304631E-01 -0.58604959103E-01  0.92207377823E-01  0.12793721723E+00  0.20155986186E-01 0.  0.
         14    1    1    2    0    0  0.94675350179E-02 -0.17327529271E-01  0.12782663928E-01  0.23521776869E-01  0.00000000000E+00 0. -1.
     999901    1    3    3    0    0 -0.72909839649E-01  0.75932488375E-01 -0.10499004175E+00  0.89247100590E+00  0.88000000000E+00 0. -1.
        -11    1    4    4    0    0  0.33707508897E-01 -0.19674625235E-01  0.48745328254E-01  0.62447219168E-01  0.51100000000E-03 0.  1.
         11    1    4    4    0    0  0.29734795734E-01 -0.38930333869E-01  0.43462049568E-01  0.65489998062E-01  0.51100000000E-03 0. -1.
</event>
<event>
 8    1  0.1090774E+005  0.1043930E+01  0.7957747E-01            NaN
         13   -1    0    0    0    0  0.00000000000E+00  0.00000000000E+00  0.74505805969E-08  0.10566000000E+00  0.10566000000E+00 0. -1.
     999900   -1    0    0    0    0 -0.00000000000E+00 -0.00000000000E+00 -0.74505805969E-08  0.93827000000E+00  0.93827000000E+00 0.  1.
     999902    2    1    2    0    0 -0.54698050178E-02 -0.24415882278E-01 -0.72976337884E-02  0.10178664328E+01  0.10175326853E+01 0.  0.
     999903    2    3    3    0    0  0.21526766424E-02 -0.65368264058E-01  0.10944278868E+00  0.12918002806E+00  0.20787296410E-01 0.  0.
         14    1    1    2    0    0  0.54698050178E-02  0.24415882278E-01  0.72976337884E-02  0.26063567163E-01  0.00000000000E+00 0.  1.
     999901    1    3    3    0    0 -0.76224816601E-02  0.40952381780E-01 -0.11674042247E+00  0.88868640478E+00  0.88000000000E+00 0.  1.
        -11    1    4    4    0    0  0.11297603084E-01 -0.31469169192E-01  0.56373136864E-01  0.65544916858E-01  0.51100000000E-03 0.  1.
         11    1    4    4    0    0 -0.91449264421E-02 -0.33899094866E-01  0.53069651818E-01  0.63635111200E-01  0.51100000000E-03 0. -1.
</event>
<event>
 8    1  0.1305734E+005  0.1043930E+01  0.7957747E-01            NaN
         13   -1    0    0    0    0  0.00000000000E+00  0.00000000000E+00  0.74505805969E-08  0.10566000000E+00  0.10566000000E+00 0. -1.
     999900   -1    0    0    0    0 -0.00000000000E+00 -0.00000000000E+00 -0.74505805969E-08  0.93827000000E+00  0.93827000000E+00 0. -1.
     999902    2    1    2    0    0  0.21244830565E-01  0.28246245772E-02  0.92417283337E-02  0.10205905297E+01  0.10203236244E+01 0.  0.
     999903    2    3    3    0    0  0.72957325338E-01 -0.80802410936E-01  0.73459733305E-01  0.13278896669E+00  0.19615716224E-01 0.  0.
         14    1    1    2    0    0 -0.21244830565E-01 -0.28246245772E-02 -0.92417283337E-02  0.23339470267E-01  0.00000000000E+00 0.  1.
     999901    1    3    3    0    0 -0.51712494773E-01  0.83627035513E-01 -0.64218004972E-01  0.88780156305E+00  0.88000000000E+00 0. -1.
        -11    1    4    4    0    0  0.42015724871E-01 -0.32251830005E-01  0.32754831860E-01  0.62278742812E-01  0.51100000000E-03 0.  1.
         11    1    4    4    0    0  0.30941600467E-01 -0.48550580930E-01  0.40704901446E-01  0.70510223875E-01  0.51100000000E-03 0. -1.
</event>
<event>
 8    1  0.1090774E+005  0.1043930E+01  0.7957747E-01            NaN
         13   -1    0    0    0    0  0.00000000000E+00  0.00000000000E+00  0.74505805969E-08  0.10566000000E+00  0.10566000000E+00 0.  1.
     999900   -1    0    0    0    0 -0.00000000000E+00 -0.00000000000E+00 -0.74505805969E-08  0.93827000000E+00  0.93827000000E+00 0. -1.
     999902    2    1    2    0    0  0.34041087681E-04  0.14309706870E-01 -0.18712373768E-01  0.10203732217E+01  0.10201012645E+01 0.  0.
     999903    2    3    3    0    0 -0.11694208106E-01 -0.12648632214E+00 -0.10381046165E-01  0.12906492232E+00  0.20357894339E-01 0.  0.
         14    1    1    2    0    0 -0.34041087681E-04 -0.14309706870E-01  0.18712373768E-01  0.23556778250E-01  0.00000000000E+00 0.  1.
     999901    1    3    3    0    0  0.11728249194E-01  0.14079602901E+00 -0.83313276022E-02  0.89130829943E+00  0.88000000000E+00 0.  1.
        -11    1    4    4    0    0  0.35632866531E-02 -0.53627326373E-02  0.61922800514E-03  0.64884880699E-02  0.51100000000E-03 0. -1.
         11    1    4    4    0    0 -0.15257494759E-01 -0.12112358950E+00 -0.11000274170E-01  0.12257643425E+00  0.51100000000E-03 0.  1.
</event>
<event>
 8    1  0.1090774E+005  0.1043930E+01  0.7957747E-01            NaN
         13   -1    0    0    0    0  0.00000000000E+00  0.00000000000E+00  0.74505805969E-08  0.10566000000E+00  0.10566000000E+00 0.  1.
     999900   -1    0    0    0    0 -0.00000000000E+00 -0.00000000000E+00 -0.74505805969E-08  0.93827000000E+00  0.93827000000E+00 0. -1.
     999902    2    1    2    0    0  0.17753861444E-01 -0.18840990311E-01  0.28296235922E-02  0.10178879325E+01  0.10175547424E+01 0.  0.
     999903    2    3    3    0    0  0.10424609647E+00  0.72195512654E-01 -0.11099014097E-01  0.12886455901E+00  0.20085959702E-01 0.  0.
         14    1    1    2    0    0 -0.17753861444E-01  0.18840990311E-01 -0.28296235922E-02  0.26042067540E-01  0.00000000000E+00 0. -1.
     999901    1    3    3    0    0 -0.86492235031E-01 -0.91036502966E-01  0.13928637689E-01  0.88902337345E+00  0.88000000000E+00 0.  1.
        -11    1    4    4    0    0  0.32229171680E-01  0.24503041077E-01 -0.12815039091E-01  0.42468869506E-01  0.51100000000E-03 0.  1.
         11    1    4    4    0    0  0.72016924794E-01  0.47692471577E-01  0.17160249937E-02  0.86395689504E-01  0.51100000000E-03 0. -1.
</event>
<event>
 8    1  0.1090774E+005  0.1043930E+01  0.7957747E-01            NaN
         13   -1    0    0    0    0  0.00000000000E+00  0.00000000000E+00  0.74505805969E-08  0.10566000000E+00  0.10566000000E+00 0. -1.
     999900   -1    0    0    0    0 -0.00000000000E+00 -0.00000000000E+00 -0.74505805969E-08  0.93827000000E+00  0.93827000000E+00 0. -1.
     999902    2    1    2    0    0 -0.10014006144E-02  0.16079767984E-01 -0.22886152123E-01  0.10159418293E+01  0.10155562332E+01 0.  0.
     999903    2    3    3    0    0 -0.52594849515E-01  0.11565451438E+00 -0.12529986455E-02  0.12856084716E+00  0.19599401135E-01 0.  0.
         14    1    1    2    0    0  0.10014006144E-02 -0.16079767984E-01  0.22886152123E-01  0.27988170726E-01  0.00000000000E+00 0. -1.
     999901    1    3    3    0    0  0.51593448901E-01 -0.99574746395E-01 -0.21633153477E-01  0.88738098211E+00  0.88000000000E+00 0. -1.
        -11    1    4    4    0    0 -0.10332019608E-01  0.34671142868E-01  0.69533419890E-02  0.36843572882E-01  0.51100000000E-03 0. -1.
         11    1    4    4    0    0 -0.42262829907E-01  0.80983371512E-01 -0.82063406345E-02  0.91717274277E-01  0.51100000000E-03 0.  1.
</event>
<event>
 8    1  0.1090774E+005  0.1043930E+01  0.7957747E-01            NaN
         13   -1    0    0    0    0  0.00000000000E+00  0.00000000000E+00  0.74505805969E-08  0.10566000000E+00  0.10566000000E+00 0. -1.
     999900   -1    0    0    0    0 -0.00000000000E+00 -0.00000000000E+00 -0.74505805969E-08  0.93827000000E+00  0.93827000000E+00 0.  1.
     999902    2    1    2    0    0  0.10941405831E-01  0.13529772471E-01  0.15485828347E-01  0.10206366536E+01  0.10203708144E+01 0.  0.
     999903    2    3    3    0    0 -0.59597671095E-01 -0.32538406933E-01  0.11099810309E+00  0.13146814703E+00  0.18779362835E-01 0.  0.
         14    1    1    2    0    0 -0.10941405831E-01 -0.13529772471E-01 -0.15485828347E-01  0.23293346352E-01  0.00000000000E+00 0.  1.
     999901    1    3    3    0    0  0.70539076926E-01  0.46068179404E-01 -0.95512274746E-01  0.88916850661E+00  0.88000000000E+00 0.  1.
        -11    1    4    4    0    0 -0.49470716752E-01 -0.23912846208E-01  0.74165240220E-01  0.92303412762E-01  0.51100000000E-03 0.  1.
         11    1    4    4    0    0 -0.10126954343E-01 -0.86255607246E-02  0.36832862874E-01  0.39164734272E-01  0.51100000000E-03 0. -1.
</event>
<event>
 7    1  0.1090774E+005  0.1043930E+01  0.7957747E-01            NaN
         13   -1    0    0    0    0  0.00000000000E+00  0.00000000000E+00  0.74505805969E-08  0.10566000000E+00  0.10566000000E+00 0.  1.
     999900   -1    0    0    0    0 -0.00000000000E+00 -0.00000000000E+00 -0.74505805969E-08  0.93827000000E+00  0.93827000000E+00 0. -1.
     999902    2    1    2    0    0  0.52204995568E-02  0.47681445848E-02 -0.24093869740E-01  0.10188201737E+01  0.10185106985E+01 0.  0.
         14    1    1    2    0    0 -0.52204995568E-02 -0.47681445848E-02  0.24093869740E-01  0.25109826312E-01  0.00000000000E+00 0.  1.
     999901    1    3    3    0    0 -0.11035577288E+00  0.23507073809E-01  0.95976103170E-02  0.88725593447E+00  0.88000000000E+00 0.  1.
        -11    1    3    3    0    0  0.58033484056E-01  0.13730588402E-01 -0.25949126954E-01  0.65038701096E-01  0.51100000000E-03 0. -1.
         11    1    3    3    0    0  0.57542788384E-01 -0.32469517626E-01 -0.77423531025E-02  0.66525538123E-01  0.51100000000E-03 0.  1.
</event>
<event>
 8    1  0.1090774E+005  0.1043930E+01  0.7957747E-01            NaN
         13   -1    0    0    0    0  0.00000000000E+00  0.00000000000E+00  0.74505805969E-08  0.10566000000E+00  0.10566000000E+00 0. -1.
     999900   -1    0    0    0    0 -0.00000000000E+00 -0.00000000000E+00 -0.74505805969E-08  0.93827000000E+00  0.93827000000E+00 0.  1.
     999902    2    1    2    0    0 -0.21467062109E-01 -0.81027648210E-02  0.63965342298E-02  0.10201097312E+01  0.10198315834E+01 0.  0.
     999903    2    3    3    0    0  0.39753080504E-01 -0.47532438242E-01 -0.11168080507E+00  0.12924225341E+00  0.19781752963E-01 0.  0.
         14    1    1    2    0    0  0.21467062109E-01  0.81027648210E-02 -0.63965342298E-02  0.23820268754E-01  0.00000000000E+00 0.  1.
     999901    1    3    3    0    0 -0.61220142614E-01  0.39429673421E-01  0.11807733930E+00  0.89086747784E+00  0.88000000000E+00 0. -1.
        -11    1    4    4    0    0  0.13940301291E-01 -0.84769647138E-02 -0.16716034386E-01  0.23364029135E-01  0.51100000000E-03 0.  1.
         11    1    4    4    0    0  0.25812779214E-01 -0.39055473528E-01 -0.94964770687E-01  0.10587822428E+00  0.51100000000E-03 0. -1.
</event>
<event>
 8    1  0.1090774E+005  0.1043930E+01  0.7957747E-01            NaN
         13   -1    0    0    0    0  0.00000000000E+00  0.00000000000E+00  0.74505805969E-08  0.10566000000E+00  0.10566000000E+00 0. -1.
     999900   -1    0    0    0    0 -0.00000000000E+00 -0.00000000000E+00 -0.74505805969E-08  0.93827000000E+00  0.93827000000E+00 0. -1.
     999902    2    1    2    0    0 -0.12138717984E-02 -0.23707941061E-04 -0.23548521971E-01  0.10203502007E+01  0.10200777055E+01 0.  0.
     999903    2    3    3    0    0 -0.72306752591E-01 -0.53335297356E-01  0.89817641709E-01  0.12863936736E+00  0.20197961769E-01 0.  0.
         14    1    1    2    0    0  0.12138717984E-02  0.23707941061E-04  0.23548521971E-01  0.23579799274E-01  0.00000000000E+00 0. -1.
     999901    1    3    3    0    0  0.71092880793E-01  0.53311589415E-01 -0.11336616368E+00  0.89171083336E+00  0.88000000000E+00 0. -1.
        -11    1    4    4    0    0 -0.29874802023E-01 -0.10353219936E-01  0.28514396586E-01  0.42579630020E-01  0.51100000000E-03 0.  1.
         11    1    4    4    0    0 -0.42431950568E-01 -0.42982077420E-01  0.61303245123E-01  0.86059737345E-01  0.51100000000E-03 0. -1.
</event>
<event>
 8    1  0.1090774E+005  0.1043930E+01  0.7957747E-01            NaN
         13   -1    0    0    0    0  0.00000000000E+00  0.00000000000E+00  0.74505805969E-08  0.10566000000E+00  0.10566000000E+00 0. -1.
     999900   -1    0    0    0    0 -0.00000000000E+00 -0.00000000000E+00 -0.74505805969E-08  0.93827000000E+00  0.93827000000E+00 0. -1.
     999902    2    1    2    0    0 -0.19353519608E-01 -0.65575791913E-02  0.10655653616E-01  0.10208843167E+01  0.10206241642E+01 0.  0.
     999903    2    3    3    0    0  0.12070545592E+00 -0.41667917684E-01 -0.36350239117E-02  0.12900233123E+00  0.17954542866E-01 0.  0.
         14    1    1    2    0    0  0.19353519608E-01  0.65575791913E-02 -0.10655653616E-01  0.23045683328E-01  0.00000000000E+00 0.  1.
     999901    1    3    3    0    0 -0.14005897553E+00  0.35110338493E-01  0.14290677528E-01  0.89188198544E+00  0.88000000000E+00 0. -1.
        -11    1    4    4    0    0  0.10459759619E+00 -0.38143202897E-01 -0.88842259475E-02  0.11169042774E+00  0.51100000000E-03 0. -1.
         11    1    4    4    0    0  0.16107859730E-01 -0.35247147874E-02  0.52492020358E-02  0.17311903489E-01  0.51100000000E-03 0.  1.
</event>
<event>
 8    1  0.1090774E+005  0.1043930E+01  0.7957747E-01            NaN
         13   -1    0    0    0    0  0.00000000000E+00  0.00000000000E+00  0.74505805969E-08  0.10566000000E+00  0.10566000000E+00 0.  1.
     999900   -1    0    0    0    0 -0.00000000000E+00 -0.00000000000E+00 -0.74505805969E-08  0.93827000000E+00  0.93827000000E+00 0.  1.
     999902    2    1    2    0    0 -0.18957433808E-01  0.79346972525E-02  0.15094150541E-01  0.10184314295E+01  0.10181121743E+01 0.  0.
     999903    2    3    3    0    0  0.59781168184E-01 -0.58529650668E-01 -0.91979431890E-01  0.12597301084E+00  0.20235500771E-01 0.  0.
         14    1    1    2    0    0  0.18957433808E-01 -0.79346972525E-02 -0.15094150541E-01  0.25498570501E-01  0.00000000000E+00 0. -1.
     999901    1    3    3    0    0 -0.78738601992E-01  0.66464347921E-01  0.10707358243E+00  0.89245841866E+00  0.88000000000E+00 0. -1.
        -11    1    4    4    0    0  0.20086940613E-01 -0.15142318909E-01 -0.41202446435E-01  0.48277093102E-01  0.51100000000E-03 0.  1.
         11    1    4    4    0    0  0.39694227571E-01 -0.43387331759E-01 -0.50776985455E-01  0.77695917734E-01  0.51100000000E-03 0. -1.
</event>
<event>
 8    1  0.1090774E+005  0.1043930E+01  0.7957747E-01            NaN
         13   -1    0    0    0    0  0.00000000000E+00  0.00000000000E+00  0.74505805969E-08  0.10566000000E+00  0.10566000000E+00 0.  1.
     999900   -1    0    0    0    0 -0.00000000000E+00 -0.00000000000E+00 -0.74505805969E-08  0.93827000000E+00  0.93827000000E+00 0. -1.
     999902    2    1    2    0    0  0.24216337258E-01 -0.57097601244E-02  0.26423465985E-01  0.10076363104E+01  0.10069824736E+01 0.  0.
     999903    2    3    3    0    0 -0.48907705707E-01 -0.10592884870E+00 -0.16331871484E-03  0.11853685111E+00  0.20930211015E-01 0.  0.
         14    1    1    2    0    0 -0.24216337258E-01  0.57097601244E-02 -0.26423465985E-01  0.36293689610E-01  0.00000000000E+00 0. -1.
     999901    1    3    3    0    0  0.73124042965E-01  0.10021908858E+00  0.26586784699E-01  0.88909945928E+00  0.88000000000E+00 0.  1.
        -11    1    4    4    0    0 -0.45952595315E-01 -0.78651577071E-01  0.15716324979E-03  0.91093344505E-01  0.51100000000E-03 0. -1.
         11    1    4    4    0    0 -0.29551103928E-02 -0.27277271630E-01 -0.32048196463E-03  0.27443506603E-01  0.51100000000E-03 0.  1.
</event>
<event>
 8    1  0.1090774E+005  0.1043930E+01  0.7957747E-01            NaN
         13   -1    0    0    0    0  0.00000000000E+00  0.00000000000E+00  0.74505805969E-08  0.10566000000E+00  0.10566000000E+00 0. -1.
     999900   -1    0    0    0    0 -0.00000000000E+00 -0.00000000000E+00 -0.74505805969E-08  0.93827000000E+00  0.93827000000E+00 0.  1.
     999902    2    1    2    0    0 -0.71613516032E-02 -0.36377909731E-02  0.22718084812E-01  0.10198337377E+01  0.10195490291E+01 0.  0.
     999903    2    3    3    0    0  0.88172998054E-01  0.53751858854E-01 -0.72388826369E-01  0.12774207497E+00  0.20350813709E-01 0.  0.
         14    1    1    2    0    0  0.71613516032E-02  0.36377909731E-02 -0.22718084812E-01  0.24096262314E-01  0.00000000000E+00 0.  1.
     999901    1    3    3    0    0 -0.95334349658E-01 -0.57389649827E-01  0.95106911182E-01  0.89209166272E+00  0.88000000000E+00 0. -1.
        -11    1    4    4    0    0  0.12985181909E-01  0.90442005938E-02 -0.30652759204E-02  0.16126672039E-01  0.51100000000E-03 0. -1.
         11    1    4    4    0    0  0.75187816146E-01  0.44707658260E-01 -0.69323550449E-01  0.11161540293E+00  0.51100000000E-03 0.  1.
</event>
<event>
 8    1  0.1090774E+005  0.1043930E+01  0.7957747E-01            NaN
         13   -1    0    0    0    0  0.00000000000E+00  0.00000000000E+00  0.74505805969E-08  0.10566000000E+00  0.10566000000E+00 0. -1.
     999900   -1    0    0    0    0 -0.00000000000E+00 -0.00000000000E+00 -0.74505805969E-08  0.93827000000E+00  0.93827000000E+00 0.  1.
     999902    2    1    2    0    0  0.72663124402E-02  0.16356847829E-01  0.14558192759E-01  0.10208586597E+01  0.10205979210E+01 0.  0.
     999903    2    3    3    0    0  0.12815523372E+00 -0.74249829608E-02  0.24190098650E-01  0.13222348124E+00  0.20469338467E-01 0.  0.
         14    1    1    2    0    0 -0.72663124402E-02 -0.16356847829E-01 -0.14558192759E-01  0.23071340312E-01  0.00000000000E+00 0. -1.
     999901    1    3    3    0    0 -0.12088892128E+00  0.23781830790E-01 -0.96319058913E-02  0.88863517845E+00  0.88000000000E+00 0.  1.
        -11    1    4    4    0    0  0.14620825118E-01  0.22461868815E-02  0.88594763190E-02  0.17250081863E-01  0.51100000000E-03 0.  1.
         11    1    4    4    0    0  0.11353440860E+00 -0.96711698423E-02  0.15330622331E-01  0.11497339938E+00  0.51100000000E-03 0. -1.
</event>
<event>
 8    1  0.1090774E+005  0.1043930E+01  0.7957747E-01            NaN
         13   -1    0    0    0    0  0.00000000000E+00  0.00000000000E+00  0.74505805969E-08  0.10566000000E+00  0.10566000000E+00 0. -1.
     999900   -1    0    0    0    0 -0.00000000000E+00 -0.00000000000E+00 -0.74505805969E-08  0.93827000000E+00  0.93827000000E+00 0.  1.
     999902    2    1    2    0    0 -0.14852797062E-01  0.16894063641E-01  0.27439260616E-02  0.10212684886E+01  0.10210170331E+01 0.  0.
     999903    2    3    3    0    0 -0.76965357116E-01 -0.49978328584E-01 -0.91900688843E-01  0.13150026596E+00  0.20617560819E-01 0.  0.
         14    1    1    2    0    0  0.14852797062E-01 -0.16894063641E-01 -0.27439260616E-02  0.22661511360E-01  0.00000000000E+00 0. -1.
     999901    1    3    3    0    0  0.62112560054E-01  0.66872392225E-01  0.94644614904E-01  0.88976822268E+00  0.88000000000E+00 0. -1.
        -11    1    4    4    0    0 -0.45831376461E-01 -0.40701292061E-01 -0.64706084071E-01  0.89130514867E-01  0.51100000000E-03 0.  1.
         11    1    4    4    0    0 -0.31133980655E-01 -0.92770365228E-02 -0.27194604772E-01  0.42369751094E-01  0.51100000000E-03 0. -1.
</event>
<event>
 8    1  0.1090774E+005  0.1043930E+01  0.7957747E-01            NaN
         13   -1    0    0    0    0  0.00000000000E+00  0.00000000000E+00  0.74505805969E-08  0.10566000000E+00  0.10566000000E+00 0. -1.
     999900   -1    0    0    0    0 -0.00000000000E+00 -0.00000000000E+00 -0.74505805969E-08  0.93827000000E+00  0.93827000000E+00 0. -1.
     999902    2    1    2    0    0 -0.22803770436E-01 -0.44989908920E-02  0.89970188095E-03  0.10206692535E+01  0.10204041663E+01 0.  0.
     999903    2    3    3    0    0  0.81171847132E-01 -0.56210608326E-02  0.98387977452E-01  0.12920071676E+00  0.19803181881E-01 0.  0.
         14    1    1    2    0    0  0.22803770436E-01  0.44989908920E-02 -0.89970188095E-03  0.23260746519E-01  0.00000000000E+00 0.  1.
     999901    1    3    3    0    0 -0.10397561757E+00  0.11220699406E-02 -0.97488275571E-01  0.89146853672E+00  0.88000000000E+00 0. -1.
        -11    1    4    4    0    0  0.18630917543E-01 -0.97985149198E-02  0.24315935122E-01  0.32165941693E-01  0.51100000000E-03 0.  1.
         11    1    4    4    0    0  0.62540929588E-01  0.41774540872E-02  0.74072042330E-01  0.97034775068E-01  0.51100000000E-03 0. -1.
</event>
<event>
 8    1  0.1090774E+005  0.1043930E+01  0.7957747E-01            NaN
         13   -1    0    0    0    0  0.00000000000E+00  0.00000000000E+00  0.74505805969E-08  0.10566000000E+00  0.10566000000E+00 0.  1.
     999900   -1    0    0    0    0 -0.00000000000E+00 -0.00000000000E+00 -0.74505805969E-08  0.93827000000E+00  0.93827000000E+00 0.  1.
     999902    2    1    2    0    0 -0.17092462866E-01  0.11032721911E-01  0.13167401982E-01  0.10196966817E+01  0.10194086860E+01 0.  0.
     999903    2    3    3    0    0 -0.54714072278E-01  0.15823902286E-01 -0.11473930863E+00  0.12964136461E+00  0.19943642721E-01 0.  0.
         14    1    1    2    0    0  0.17092462866E-01 -0.11032721911E-01 -0.13167401982E-01  0.24233318274E-01  0.00000000000E+00 0. -1.
     999901    1    3    3    0    0  0.37621609412E-01 -0.47911803745E-02  0.12790671061E+00  0.89005531711E+00  0.88000000000E+00 0. -1.
        -11    1    4    4    0    0 -0.46311300407E-02 -0.35605105246E-02 -0.18795022413E-01  0.19688539539E-01  0.51100000000E-03 0.  1.
         11    1    4    4    0    0 -0.50082942237E-01  0.19384412810E-01 -0.95944286216E-01  0.10995282507E+00  0.51100000000E-03 0. -1.
</event>
<event>
 8    1  0.1090774E+005  0.1043930E+01  0.7957747E-01            NaN
         13   -1    0    0    0    0  0.00000000000E+00  0.00000000000E+00  0.74505805969E-08  0.10566000000E+00  0.10566000000E+00 0.  1.
     999900   -1    0    0    0    0 -0.00000000000E+00 -0.00000000000E+00 -0.74505805969E-08  0.93827000000E+00  0.93827000000E+00 0. -1.
     999902    2    1    2    0    0 -0.16615729999E-01 -0.94827479553E-02  0.61257936776E-02  0.10238419354E+01  0.10236448497E+01 0.  0.
     999903    2    3    3    0    0 -0.94086196635E-01 -0.90236001978E-01  0.34690469113E-01  0.13629548481E+00  0.19449475086E-01 0.  0.
         14    1    1    2    0    0  0.16615729999E-01  0.94827479553E-02 -0.61257936776E-02  0.20088064625E-01  0.00000000000E+00 0. -1.
     999901    1    3    3    0    0  0.77470466636E-01  0.80753254022E-01 -0.28564675435E-01  0.88754645057E+00  0.88000000000E+00 0.  1.
        -11    1    4    4    0    0 -0.61207516615E-01 -0.54069359332E-01  0.12530275639E-01  0.82626416099E-01  0.51100000000E-03 0.  1.
         11    1    4    4    0    0 -0.32878680019E-01 -0.36166642646E-01  0.22160193473E-01  0.53669068707E-01  0.51100000000E-03 0. -1.
</event>
<event>
 8    1  0.1090774E+005  0.1043930E+01  0.7957747E-01            NaN
         13   -1    0    0    0    0  0.00000000000E+00  0.00000000000E+00  0.74505805969E-08  0.10566000000E+00  0.10566000000E+00 0. -1.
     999900   -1    0    0    0    0 -0.00000000000E+00 -0.00000000000E+00 -0.74505805969E-08  0.93827000000E+00  0.93827000000E+00 0. -1.
     999902    2    1    2    0    0 -0.71731354260E-02 -0.16907258993E-01  0.14934679228E-01  0.10202582041E+01  0.10199835533E+01 0.  0.
     999903    2    3    3    0    0 -0.12132016223E+00  0.38803249534E-01  0.24210785667E-01  0.13109047489E+00  0.19346227682E-01 0.  0.
         14    1    1    2    0    0  0.71731354260E-02  0.16907258993E-01 -0.14934679228E-01  0.23671795921E-01  0.00000000000E+00 0. -1.
     999901    1    3    3    0    0  0.11414702680E+00 -0.55710508527E-01 -0.92761064387E-02  0.88916772919E+00  0.88000000000E+00 0.  1.
        -11    1    4    4    0    0 -0.92671002583E-01  0.20793580273E-01  0.18737209110E-01  0.96807188920E-01  0.51100000000E-03 0. -1.
         11    1    4    4    0    0 -0.28649159645E-01  0.18009669261E-01  0.54735765570E-02  0.34283285965E-01  0.51100000000E-03 0.  1.
</event>
<event>
 8    1  0.1090774E+005  0.1043930E+01  0.7957747E-01            NaN
         13   -1    0    0    0    0  0.00000000000E+00  0.00000000000E+00  0.74505805969E-08  0.10566000000E+00  0.10566000000E+00 0. -1.
     999900   -1    0    0    0    0 -0.00000000000E+00 -0.00000000000E+00 -0.74505805969E-08  0.93827000000E+00  0.93827000000E+00 0.  1.
     999902    2    1    2    0    0  0.40438925968E-02  0.20596780945E-01 -0.11923805289E-01  0.10197896275E+01  0.10195038630E+01 0.  0.
     999903    2    3    3    0    0  0.12570544109E+00 -0.13229139103E-01  0.23363983091E-01  0.13007565476E+00  0.19923157742E-01 0.  0.
         14    1    1    2    0    0 -0.40438925968E-02 -0.20596780945E-01  0.11923805289E-01  0.24140372516E-01  0.00000000000E+00 0. -1.
     999901    1    3    3    0    0 -0.12166154849E+00  0.33825920047E-01 -0.35287788380E-01  0.88971397272E+00  0.88000000000E+00 0.  1.
        -11    1    4    4    0    0  0.26499869102E-01  0.47406136001E-02  0.18809154207E-02  0.26991025240E-01  0.51100000000E-03 0.  1.
         11    1    4    4    0    0  0.99205571990E-01 -0.17969752703E-01  0.21483067670E-01  0.10308462952E+00  0.51100000000E-03 0. -1.
</event>
<event>
 8    1  0.1090774E+005  0.1043930E+01  0.7957747E-01            NaN
         13   -1    0    0    0    0  0.00000000000E+00  0.00000000000E+00  0.74505805969E-08  0.10566000000E+00  0.10566000000E+00 0.  1.
     999900   -1    0    0    0    0 -0.00000000000E+00 -0.00000000000E+00 -0.74505805969E-08  0.93827000000E+00  0.93827000000E+00 0.  1.
     999902    2    1    2    0    0  0.18520414412E-01 -0.13541814064E-01 -0.36134557614E-02  0.10207040761E+01  0.10204397912E+01 0.  0.
     999903    2    3    3    0    0 -0.12247316780E+00  0.32010384854E-01  0.41512203276E-02  0.12828350079E+00  0.20373570552E-01 0.  0.
         14    1    1    2    0    0 -0.18520414412E-01  0.13541814064E-01  0.36134557614E-02  0.23225923893E-01  0.00000000000E+00 0. -1.
     999901    1    3    3    0    0  0.14099358221E+00 -0.45552198918E-01 -0.77646760890E-02  0.89242057531E+00  0.88000000000E+00 0. -1.
        -11    1    4    4    0    0 -0.97564558182E-01  0.30373891574E-01 -0.32685612580E-02  0.10223678847E+00  0.51100000000E-03 0. -1.
         11    1    4    4    0    0 -0.24908609613E-01  0.16364932799E-02  0.74197815856E-02  0.26046712324E-01  0.51100000000E-03 0.  1.
</event>
<event>
 8    1  0.1090774E+005  0.1043930E+01  0.7957747E-01            NaN
         13   -1    0    0    0    0  0.00000000000E+00  0.00000000000E+00  0.74505805969E-08  0.10566000000E+00  0.10566000000E+00 0.  1.
     999900   -1    0    0    0    0 -0.00000000000E+00 -0.00000000000E+00 -0.74505805969E-08  0.93827000000E+00  0.93827000000E+00 0.  1.
     999902    2    1    2    0    0 -0.21475101262E-01 -0.56479915244E-02 -0.89093312682E-02  0.10200039480E+01  0.10197232948E+01 0.  0.
     999903    2    3    3    0    0 -0.95290314644E-01 -0.63179342498E-01  0.63049048517E-01  0.13212076280E+00  0.20219793783E-01 0.  0.
         14    1    1    2    0    0  0.21475101262E-01  0.56479915244E-02  0.89093312682E-02  0.23926052037E-01  0.00000000000E+00 0.  1.
     999901    1    3    3    0    0  0.73815213383E-01  0.57531350974E-01 -0.71958379785E-01  0.88788318516E+00  0.88000000000E+00 0.  1.
        -11    1    4    4    0    0 -0.59416859478E-01 -0.28677598243E-01  0.30805205794E-01  0.72814762626E-01  0.51100000000E-03 0.  1.
         11    1    4    4    0    0 -0.35873455166E-01 -0.34501744256E-01  0.32243842723E-01  0.59306000175E-01  0.51100000000E-03 0. -1.
</event>
<event>
 8    1  0.1090774E+005  0.1043930E+01  0.7957747E-01            NaN
         13   -1    0    0    0    0  0.00000000000E+00  0.00000000000E+00  0.74505805969E-08  0.10566000000E+00  0.10566000000E+00 0. -1.
     999900   -1    0    0    0    0 -0.00000000000E+00 -0.00000000000E+00 -0.74505805969E-08  0.93827000000E+00  0.93827000000E+00 0. -1.
     999902    2    1    2    0    0 -0.10703252202E-01  0.13028794063E-01  0.14594707906E-01  0.10216294489E+01  0.10213860270E+01 0.  0.
     999903    2    3    3    0    0 -0.68252492956E-01  0.20144891416E-01  0.11217861490E+00  0.13433853103E+00  0.19964464254E-01 0.  0.
         14    1    1    2    0    0  0.10703252202E-01 -0.13028794063E-01 -0.14594707906E-01  0.22300551143E-01  0.00000000000E+00 0.  1.
     999901    1    3    3    0    0  0.57549240754E-01 -0.71160973525E-02 -0.97583906997E-01  0.88729091783E+00  0.88000000000E+00 0. -1.
        -11    1    4    4    0    0 -0.21861148171E-01 -0.10100066916E-02  0.44589678665E-01  0.49673237033E-01  0.51100000000E-03 0. -1.
         11    1    4    4    0    0 -0.46391344785E-01  0.21154898107E-01  0.67588936237E-01  0.84665293997E-01  0.51100000000E-03 0.  1.
</event>
<event>
 8    1  0.1090774E+005  0.1043930E+01  0.7957747E-01            NaN
         13   -1    0    0    0    0  0.00000000000E+00  0.00000000000E+00  0.74505805969E-08  0.10566000000E+00  0.10566000000E+00 0.  1.
     999900   -1    0    0    0    0 -0.00000000000E+00 -0.00000000000E+00 -0.74505805969E-08  0.93827000000E+00  0.93827000000E+00 0.  1.
     999902    2    1    2    0    0 -0.20996925748E-01 -0.82223778282E-02 -0.42876995946E-02  0.10209765089E+01  0.10207184572E+01 0.  0.
     999903    2    3    3    0    0 -0.40678144176E-01 -0.59069848998E-01 -0.11035036832E+00  0.13293253169E+00  0.18705499674E-01 0.  0.
         14    1    1    2    0    0  0.20996925748E-01  0.82223778282E-02  0.42876995946E-02  0.22953491147E-01  0.00000000000E+00 0.  1.
     999901    1    3    3    0    0  0.19681218428E-01  0.50847471169E-01  0.10606266873E+00  0.88804397717E+00  0.88000000000E+00 0.  1.
        -11    1    4    4    0    0 -0.18067987050E-01 -0.42145096880E-01 -0.69592847329E-01  0.83343187288E-01  0.51100000000E-03 0.  1.
         11    1    4    4    0    0 -0.22610157126E-01 -0.16924752118E-01 -0.40757520993E-01  0.49589344399E-01  0.51100000000E-03 0. -1.
</event>
<event>
 8    1  0.1090774E+005  0.1043930E+01  0.7957747E-01            NaN
         13   -1    0    0    0    0  0.00000000000E+00  0.00000000000E+00  0.74505805969E-08  0.10566000000E+00  0.10566000000E+00 0.  1.
     999900   -1    0    0    0    0 -0.00000000000E+00 -0.00000000000E+00 -0.74505805969E-08  0.93827000000E+00  0.93827000000E+00 0.  1.
     999902    2    1    2    0    0  0.16729015743E-01 -0.10246812630E-01 -0.14402998821E-01  0.10195927135E+01  0.10193022113E+01 0.  0.
     999903    2    3    3    0    0 -0.95258824423E-01  0.98329023188E-02  0.81298211397E-01  0.12712243789E+00  0.19488084569E-01 0.  0.
         14    1    1    2    0    0 -0.16729015743E-01  0.10246812630E-01  0.14402998821E-01  0.24337286452E-01  0.00000000000E+00 0.  1.
     999901    1    3    3    0    0  0.11198784017E+00 -0.20079714949E-01 -0.95701210218E-01  0.89247027566E+00  0.88000000000E+00 0.  1.
        -11    1    4    4    0    0 -0.77648351960E-01  0.84999271425E-02  0.75206930073E-01  0.10843366071E+00  0.51100000000E-03 0. -1.
         11    1    4    4    0    0 -0.17610472463E-01  0.13329751762E-02  0.60912813234E-02  0.18688777177E-01  0.51100000000E-03 0.  1.
</event>
<event>
 8    1  0.1090774E+005  0.1043930E+01  0.7957747E-01            NaN
         13   -1    0    0    0    0  0.00000000000E+00  0.00000000000E+00  0.74505805969E-08  0.10566000000E+00  0.10566000000E+00 0. -1.
     999900   -1    0    0    0    0 -0.00000000000E+00 -0.00000000000E+00 -0.74505805969E-08  0.93827000000E+00  0.93827000000E+00 0.  1.
     999902    2    1    2    0    0  0.10154020104E-01 -0.20815707449E-01 -0.57169520356E-02  0.10200745742E+01  0.10197955950E+01 0.  0.
     999903    2    3    3    0    0  0.38137251683E-01  0.10028171154E+00  0.67796719873E-01  0.12830559843E+00  0.18843028623E-01 0.  0.
         14    1    1    2    0    0 -0.10154020104E-01  0.20815707449E-01  0.57169520356E-02  0.23855425829E-01  0.00000000000E+00 0. -1.
     999901    1    3    3    0    0 -0.27983231579E-01 -0.12109741899E+00 -0.73513671908E-01  0.89176897574E+00  0.88000000000E+00 0.  1.
        -11    1    4    4    0    0  0.26343971484E-01  0.61699372119E-01  0.52367535390E-01  0.85108385235E-01  0.51100000000E-03 0.  1.
         11    1    4    4    0    0  0.11793280200E-01  0.38582339421E-01  0.15429184483E-01  0.43197213196E-01  0.51100000000E-03 0. -1.
</event>
<event>
 8    1  0.1090774E+005  0.1043930E+01  0.7957747E-01            NaN
         13   -1    0    0    0    0  0.00000000000E+00  0.00000000000E+00  0.74505805969E-08  0.10566000000E+00  0.10566000000E+00 0.  1.
     999900   -1    0    0    0    0 -0.00000000000E+00 -0.00000000000E+00 -0.74505805969E-08  0.93827000000E+00  0.93827000000E+00 0.  1.
     999902    2    1    2    0    0  0.22163773099E-01 -0.20280561050E-02  0.14082202245E-02  0.10216291271E+01  0.10213856981E+01 0.  0.
     999903    2    3    3    0    0  0.67333556732E-01  0.15070634050E-01 -0.11288906937E+00  0.13292414510E+00  0.12804471662E-01 0.  0.
         14    1    1    2    0    0 -0.22163773099E-01  0.20280561050E-02 -0.14082202245E-02  0.22300872937E-01  0.00000000000E+00 0. -1.
     999901    1    3    3    0    0 -0.45169783634E-01 -0.17098690155E-01  0.11429728959E+00  0.88870498196E+00  0.88000000000E+00 0. -1.
        -11    1    4    4    0    0  0.45594756718E-01  0.82391114255E-02 -0.85881894856E-01  0.97584454614E-01  0.51100000000E-03 0.  1.
         11    1    4    4    0    0  0.21738800015E-01  0.68315226247E-02 -0.27007174513E-01  0.35339690486E-01  0.51100000000E-03 0. -1.
</event>
<event>
 8    1  0.1090774E+005  0.1043930E+01  0.7957747E-01            NaN
         13   -1    0    0    0    0  0.00000000000E+00  0.00000000000E+00  0.74505805969E-08  0.10566000000E+00  0.10566000000E+00 0.  1.
     999900   -1    0    0    0    0 -0.00000000000E+00 -0.00000000000E+00 -0.74505805969E-08  0.93827000000E+00  0.93827000000E+00 0. -1.
     999902    2    1    2    0    0 -0.17279335404E-01 -0.14572224417E-01 -0.59555300598E-02  0.10205549386E+01  0.10202872092E+01 0.  0.
     999903    2    3    3    0    0  0.78021893287E-01 -0.49260010216E-01 -0.90343213922E-01  0.13071964607E+00  0.20291996650E-01 0.  0.
         14    1    1    2    0    0  0.17279335404E-01  0.14572224417E-01  0.59555300598E-02  0.23375061385E-01  0.00000000000E+00 0.  1.
     999901    1    3    3    0    0 -0.95301228691E-01  0.34687785799E-01  0.84387683862E-01  0.88983529255E+00  0.88000000000E+00 0.  1.
        -11    1    4    4    0    0  0.59087611096E-01 -0.32610082467E-01 -0.76255240754E-01  0.10183263783E+00  0.51100000000E-03 0. -1.
         11    1    4    4    0    0  0.18934282191E-01 -0.16649927748E-01 -0.14087973168E-01  0.28887008241E-01  0.51100000000E-03 0.  1.
</event>
<event>
 8    1  0.1090774E+005  0.1043930E+01  0.7957747E-01            NaN
         13   -1    0    0    0    0  0.00000000000E+00  0.00000000000E+00  0.74505805969E-08  0.10566000000E+00  0.10566000000E+00 0.  1.
     999900   -1    0    0    0    0 -0.00000000000E+00 -0.00000000000E+00 -0.74505805969E-08  0.93827000000E+00  0.93827000000E+00 0.  1.
     999902    2    1    2    0    0  0.96526633850E-03  0.61970143185E-02 -0.23150614887E-01  0.10199448860E+01  0.10196628289E+01 0.  0.
     999903    2    3    3    0    0 -0.70148799980E-01  0.10536336262E+00 -0.29195293354E-01  0.13150371560E+00  0.20458977050E-01 0.  0.
         14    1    1    2    0    0 -0.96526633850E-03 -0.61970143185E-02  0.23150614887E-01  0.23985114034E-01  0.00000000000E+00 0.  1.
     999901    1    3    3    0    0  0.71114066318E-01 -0.99166348299E-01  0.60446784662E-02  0.88844117037E+00  0.88000000000E+00 0.  1.
        -11    1    4    4    0    0 -0.54545833927E-01  0.89092931005E-01 -0.16909467477E-01  0.10582527848E+00  0.51100000000E-03 0.  1.
         11    1    4    4    0    0 -0.15602966053E-01  0.16270431613E-01 -0.12285825876E-01  0.25678437121E-01  0.51100000000E-03 0. -1.
</event>
<event>
 8    1  0.1090774E+005  0.1043930E+01  0.7957747E-01            NaN
         13   -1    0    0    0    0  0.00000000000E+00  0.00000000000E+00  0.74505805969E-08  0.10566000000E+00  0.10566000000E+00 0.  1.
     999900   -1    0    0    0    0 -0.00000000000E+00 -0.00000000000E+00 -0.74505805969E-08  0.93827000000E+00  0.93827000000E+00 0.  1.
     999902    2    1    2    0    0  0.13141852521E-01  0.72695548858E-02 -0.13814265308E-01  0.10235243968E+01  0.10233209673E+01 0.  0.
     999903    2    3    3    0    0 -0.10352436006E+00 -0.59059077558E-01 -0.55387219163E-01  0.13237973788E+00  0.15855068140E-01 0.  0.
         14    1    1    2    0    0 -0.13141852521E-01 -0.72695548858E-02  0.13814265308E-01  0.20405603199E-01  0.00000000000E+00 0.  1.
     999901    1    3    3    0    0  0.11666621258E+00  0.66328632443E-01  0.41572953855E-01  0.89114465893E+00  0.88000000000E+00 0.  1.
        -11    1    4    4    0    0 -0.64134377671E-01 -0.43462191530E-01 -0.30646700728E-01  0.83316636264E-01  0.51100000000E-03 0.  1.
         11    1    4    4    0    0 -0.39389982388E-01 -0.15596886028E-01 -0.24740518435E-01  0.49063101611E-01  0.51100000000E-03 0. -1.
</event>
<event>
 8    1  0.1090774E+005  0.1043930E+01  0.7957747E-01            NaN
         13   -1    0    0    0    0  0.00000000000E+00  0.00000000000E+00  0.74505805969E-08  0.10566000000E+00  0.10566000000E+00 0. -1.
     999900   -1    0    0    0    0 -0.00000000000E+00 -0.00000000000E+00 -0.74505805969E-08  0.93827000000E+00  0.93827000000E+00 0. -1.
     999902    2    1    2    0    0  0.72757411156E-02 -0.19730961103E-01 -0.11874791951E-01  0.10197792667E+01  0.10194932540E+01 0.  0.
     999903    2    3    3    0    0 -0.82598172184E-01  0.77072564399E-01 -0.58461526377E-01  0.12870207214E+00  0.19591709379E-01 0.  0.
         14    1    1    2    0    0 -0.72757411156E-02  0.19730961103E-01  0.11874791951E-01  0.24150733296E-01  0.00000000000E+00 0. -1.
     999901    1    3    3    0    0  0.89873913300E-01 -0.96803525502E-01  0.46586734426E-01  0.89107719456E+00  0.88000000000E+00 0.  1.
        -11    1    4    4    0    0 -0.73750287877E-01  0.68292114748E-01 -0.44342720017E-01  0.10986107517E+00  0.51100000000E-03 0.  1.
         11    1    4    4    0    0 -0.88478843071E-02  0.87804496514E-02 -0.14118806361E-01  0.18840996970E-01  0.51100000000E-03 0. -1.
</event>
<event>
 8    1  0.1090774E+005  0.1043930E+01  0.7957747E-01            NaN
         13   -1    0    0    0    0  0.00000000000E+00  0.00000000000E+00  0.74505805969E-08  0.10566000000E+00  0.10566000000E+00 0.  1.
     999900   -1    0    0    0    0 -0.00000000000E+00 -0.00000000000E+00 -0.74505805969E-08  0.93827000000E+00  0.93827000000E+00 0. -1.
     999902    2    1    2    0    0 -0.59303621913E-02  0.21296498410E-01  0.40729540880E-02  0.10214511434E+01  0.10212037697E+01 0.  0.
     999903    2    3    3    0    0 -0.31169936934E-01  0.53554075973E-01 -0.11545690068E+00  0.13242641165E+00  0.19153447882E-01 0.  0.
         14    1    1    2    0    0  0.59303621913E-02 -0.21296498410E-01 -0.40729540880E-02  0.22478856627E-01  0.00000000000E+00 0.  1.
     999901    1    3    3    0    0  0.25239574742E-01 -0.32257577563E-01  0.11952985476E+00  0.88902473173E+00  0.88000000000E+00 0.  1.
        -11    1    4    4    0    0 -0.16628748575E-01  0.44327112094E-01 -0.78958367295E-01  0.92065699545E-01  0.51100000000E-03 0.  1.
         11    1    4    4    0    0 -0.14541188359E-01  0.92269638792E-02 -0.36498533380E-01  0.40360712100E-01  0.51100000000E-03 0. -1.
</event>
<event>
 8    1  0.1090774E+005  0.1043930E+01  0.7957747E-01            NaN
         13   -1    0    0    0    0  0.00000000000E+00  0.00000000000E+00  0.74505805969E-08  0.10566000000E+00  0.10566000000E+00 0.  1.
     999900   -1    0    0    0    0 -0.00000000000E+00 -0.00000000000E+00 -0.74505805969E-08  0.93827000000E+00  0.93827000000E+00 0. -1.
     999902    2    1    2    0    0 -0.11364668574E-01 -0.20703055648E-01  0.17791155636E-02  0.10202458818E+01  0.10199709416E+01 0.  0.
     999903    2    3    3    0    0  0.70647923714E-01 -0.85415676534E-01 -0.67235026167E-01  0.13138327125E+00  0.21308409072E-01 0.  0.
         14    1    1    2    0    0  0.11364668574E-01  0.20703055648E-01 -0.17791155636E-02  0.23684118247E-01  0.00000000000E+00 0.  1.
     999901    1    3    3    0    0 -0.82012592288E-01  0.64712620886E-01  0.69014141731E-01  0.88886261051E+00  0.88000000000E+00 0.  1.
        -11    1    4    4    0    0  0.18099079280E-01 -0.36574309868E-01 -0.19663305067E-01  0.45300811254E-01  0.51100000000E-03 0. -1.
         11    1    4    4    0    0  0.52548844434E-01 -0.48841366666E-01 -0.47571721100E-01  0.86082459994E-01  0.51100000000E-03 0.  1.
</event>
<event>
 8    1  0.1090774E+005  0.1043930E+01  0.7957747E-01            NaN
         13   -1    0    0    0    0  0.00000000000E+00  0.00000000000E+00  0.74505805969E-08  0.10566000000E+00  0.10566000000E+00 0. -1.
     999900   -1    0    0    0    0 -0.00000000000E+00 -0.00000000000E+00 -0.74505805969E-08  0.93827000000E+00  0.93827000000E+00 0. -1.
     999902    2    1    2    0    0 -0.74155865069E-03 -0.75579840463E-02 -0.20377388501E-01  0.10221834832E+01  0.10219521331E+01 0.  0.
     999903    2    3    3    0    0 -0.44513754922E-02 -0.35079273819E-01  0.12360884243E+00  0.13004940198E+00  0.19578836326E-01 0.  0.
         14    1    1    2    0    0  0.74155865069E-03  0.75579840463E-02  0.20377388501E-01  0.21746516829E-01  0.00000000000E+00 0. -1.
     999901    1    3    3    0    0  0.37098168415E-02  0.27521289773E-01 -0.14398623093E+00  0.89213408119E+00  0.88000000000E+00 0. -1.
        -11    1    4    4    0    0  0.62085941471E-02 -0.85134189071E-02  0.49304095376E-01  0.50420034556E-01  0.51100000000E-03 0. -1.
         11    1    4    4    0    0 -0.10659969639E-01 -0.26565854912E-01  0.74304747054E-01  0.79629367420E-01  0.51100000000E-03 0.  1.
</event>
<event>
 8    1  0.1090774E+005  0.1043930E+01  0.7957747E-01            NaN
         13   -1    0    0    0    0  0.00000000000E+00  0.00000000000E+00  0.74505805969E-08  0.10566000000E+00  0.10566000000E+00 0.  1.
     999900   -1    0    0    0    0 -0.00000000000E+00 -0.00000000000E+00 -0.74505805969E-08  0.93827000000E+00  0.93827000000E+00 0. -1.
     999902    2    1    2    0    0  0.16015794177E-01  0.14677703582E-01  0.97265143117E-02  0.10201277790E+01  0.10198500575E+01 0.  0.
     999903    2    3    3    0    0 -0.46442289814E-01  0.12097232150E+00 -0.88491602511E-02  0.13133949498E+00  0.19508112501E-01 0.  0.
         14    1    1    2    0    0 -0.16015794177E-01 -0.14677703582E-01 -0.97265143117E-02  0.23802221035E-01  0.00000000000E+00 0. -1.
     999901    1    3    3    0    0  0.62458083991E-01 -0.10629461792E+00  0.18575674563E-01  0.88878828398E+00  0.88000000000E+00 0.  1.
        -11    1    4    4    0    0 -0.23737991580E-01  0.86672671447E-01 -0.75469566797E-02  0.90182381296E-01  0.51100000000E-03 0. -1.
         11    1    4    4    0    0 -0.22704298234E-01  0.34299650054E-01 -0.13022035714E-02  0.41157113689E-01  0.51100000000E-03 0.  1.
</event>
<event>
 8    1  0.1090774E+005  0.1043930E+01  0.7957747E-01            NaN
         13   -1    0    0    0    0  0.00000000000E+00  0.00000000000E+00  0.74505805969E-08  0.10566000000E+00  0.10566000000E+00 0.  1.
     999900   -1    0    0    0    0 -0.00000000000E+00 -0.00000000000E+00 -0.74505805969E-08  0.93827000000E+00  0.93827000000E+00 0.  1.
     999902    2    1    2    0    0 -0.60555489605E-03  0.12230726875E-01 -0.19087176841E-01  0.10212523084E+01  0.10210004896E+01 0.  0.
     999903    2    3    3    0    0 -0.26278745023E-01 -0.53819912634E-02 -0.12952572611E+00  0.13380315848E+00  0.20170107224E-01 0.  0.
         14    1    1    2    0    0  0.60555489605E-03 -0.12230726875E-01  0.19087176841E-01  0.22677691602E-01  0.00000000000E+00 0. -1.
     999901    1    3    3    0    0  0.25673190127E-01  0.17612718139E-01  0.11043854926E+00  0.88744914992E+00  0.88000000000E+00 0. -1.
        -11    1    4    4    0    0 -0.10165828130E-01 -0.10793342992E-01 -0.81893879837E-01  0.83226852580E-01  0.51100000000E-03 0. -1.
         11    1    4    4    0    0 -0.16112916893E-01  0.54113517291E-02 -0.47631846268E-01  0.50576305898E-01  0.51100000000E-03 0.  1.
</event>
<event>
 8    1  0.1090774E+005  0.1043930E+01  0.7957747E-01            NaN
         13   -1    0    0    0    0  0.00000000000E+00  0.00000000000E+00  0.74505805969E-08  0.10566000000E+00  0.10566000000E+00 0.  1.
     999900   -1    0    0    0    0 -0.00000000000E+00 -0.00000000000E+00 -0.74505805969E-08  0.93827000000E+00  0.93827000000E+00 0. -1.
     999902    2    1    2    0    0 -0.84699799121E-02  0.21258901660E-01  0.46316966287E-02  0.10205818936E+01  0.10203147884E+01 0.  0.
     999903    2    3    3    0    0 -0.15424903683E-01 -0.36477091963E-01 -0.12152002457E+00  0.12968567478E+00  0.21971617596E-01 0.  0.
         14    1    1    2    0    0  0.84699799121E-02 -0.21258901660E-01 -0.46316966287E-02  0.23348106415E-01  0.00000000000E+00 0.  1.
     999901    1    3    3    0    0  0.69549237706E-02  0.57735993623E-01  0.12615172120E+00  0.89089621881E+00  0.88000000000E+00 0.  1.
        -11    1    4    4    0    0 -0.14630589289E-03  0.14307370957E-02 -0.22628424106E-01  0.22679839341E-01  0.51100000000E-03 0.  1.
         11    1    4    4    0    0 -0.15278597790E-01 -0.37907829059E-01 -0.98891600463E-01  0.10700583544E+00  0.51100000000E-03 0. -1.
</event>
<event>
 8    1  0.1090774E+005  0.1043930E+01  0.7957747E-01            NaN
         13   -1    0    0    0    0  0.00000000000E+00  0.00000000000E+00  0.74505805969E-08  0.10566000000E+00  0.10566000000E+00 0.  1.
     999900   -1    0    0    0    0 -0.00000000000E+00 -0.00000000000E+00 -0.74505805969E-08  0.93827000000E+00  0.93827000000E+00 0.  1.
     999902    2    1    2    0    0 -0.21268373657E-01  0.10423495698E-01  0.13624857115E-03  0.10202443177E+01  0.10199693409E+01 0.  0.
     999903    2    3    3    0    0  0.51156986573E-01  0.10084265488E+00  0.63259269846E-01  0.13040974156E+00  0.14788074717E-01 0.  0.
         14    1    1    2    0    0  0.21268373657E-01 -0.10423495698E-01 -0.13624857115E-03  0.23685682263E-01  0.00000000000E+00 0.  1.
     999901    1    3    3    0    0 -0.72425360230E-01 -0.90419159178E-01 -0.63123021275E-01  0.88983457618E+00  0.88000000000E+00 0.  1.
        -11    1    4    4    0    0  0.72209895585E-02  0.17914517381E-01  0.50382413044E-02  0.19967914754E-01  0.51100000000E-03 0. -1.
         11    1    4    4    0    0  0.43935997014E-01  0.82928137495E-01  0.58221028542E-01  0.11044182680E+00  0.51100000000E-03 0.  1.
</event>
<event>
 8    1  0.1090774E+005  0.1043930E+01  0.7957747E-01            NaN
         13   -1    0    0    0    0  0.00000000000E+00  0.00000000000E+00  0.74505805969E-08  0.10566000000E+00  0.10566000000E+00 0.  1.
     999900   -1    0    0    0    0 -0.00000000000E+00 -0.00000000000E+00 -0.74505805969E-08  0.93827000000E+00  0.93827000000E+00 0.  1.
     999902    2    1    2    0    0 -0.17137164132E-01  0.38604383706E-02  0.15795564325E-01  0.10203061724E+01  0.10200326466E+01 0.  0.
     999903    2    3    3    0    0  0.15046267388E-01  0.12561631165E+00 -0.23879955048E-01  0.13045539120E+00  0.21035896110E-01 0.  0.
         14    1    1    2    0    0  0.17137164132E-01 -0.38604383706E-02 -0.15795564325E-01  0.23623827616E-01  0.00000000000E+00 0. -1.
     999901    1    3    3    0    0 -0.32183431520E-01 -0.12175587328E+00  0.39675519372E-01  0.88985078119E+00  0.88000000000E+00 0. -1.
        -11    1    4    4    0    0 -0.49999124149E-03  0.49104578604E-01 -0.10955815573E-02  0.49122001700E-01  0.51100000000E-03 0. -1.
         11    1    4    4    0    0  0.15546258630E-01  0.76511733043E-01 -0.22784373490E-01  0.81333389497E-01  0.51100000000E-03 0.  1.
</event>
<event>
 8    1  0.1090774E+005  0.1043930E+01  0.7957747E-01            NaN
         13   -1    0    0    0    0  0.00000000000E+00  0.00000000000E+00  0.74505805969E-08  0.10566000000E+00  0.10566000000E+00 0.  1.
     999900   -1    0    0    0    0 -0.00000000000E+00 -0.00000000000E+00 -0.74505805969E-08  0.93827000000E+00  0.93827000000E+00 0. -1.
     999902    2    1    2    0    0 -0.30464546214E-02 -0.23026333485E-01 -0.41023407975E-03  0.10206993906E+01  0.10204349978E+01 0.  0.
     999903    2    3    3    0    0  0.40879398321E-01  0.29705756056E-01 -0.11825791417E+00  0.13019491028E+00  0.20303281731E-01 0.  0.
         14    1    1    2    0    0  0.30464546214E-02  0.23026333485E-01  0.41023407975E-03  0.23230609366E-01  0.00000000000E+00 0.  1.
     999901    1    3    3    0    0 -0.43925852943E-01 -0.52732089541E-01  0.11784768009E+00  0.89050448035E+00  0.88000000000E+00 0.  1.
        -11    1    4    4    0    0  0.24533669790E-01  0.21155713851E-01 -0.50751758001E-01  0.60211853012E-01  0.51100000000E-03 0.  1.
         11    1    4    4    0    0  0.16345728531E-01  0.85500422058E-02 -0.67506156171E-01  0.69983057270E-01  0.51100000000E-03 0. -1.
</event>
<event>
 8    1  0.1090774E+005  0.1043930E+01  0.7957747E-01            NaN
         13   -1    0    0    0    0  0.00000000000E+00  0.00000000000E+00  0.74505805969E-08  0.10566000000E+00  0.10566000000E+00 0. -1.
     999900   -1    0    0    0    0 -0.00000000000E+00 -0.00000000000E+00 -0.74505805969E-08  0.93827000000E+00  0.93827000000E+00 0. -1.
     999902    2    1    2    0    0  0.21617591347E-01 -0.24362021542E-02  0.96375983997E-02  0.10201363319E+01  0.10198588123E+01 0.  0.
     999903    2    3    3    0    0  0.39254329675E-01 -0.10199791245E+00  0.71732557266E-01  0.13217272199E+00  0.19483124066E-01 0.  0.
         14    1    1    2    0    0 -0.21617591347E-01  0.24362021542E-02 -0.96375983997E-02  0.23793668055E-01  0.00000000000E+00 0.  1.
     999901    1    3    3    0    0 -0.17636738328E-01  0.99561710293E-01 -0.62094958866E-01  0.88796360996E+00  0.88000000000E+00 0. -1.
        -11    1    4    4    0    0  0.29269962768E-02 -0.29528983665E-01  0.23386016791E-01  0.37784852598E-01  0.51100000000E-03 0.  1.
         11    1    4    4    0    0  0.36327333399E-01 -0.72468928782E-01  0.48346540475E-01  0.94387869388E-01  0.51100000000E-03 0. -1.
</event>
<event>
 8    1  0.1090774E+005  0.1043930E+01  0.7957747E-01            NaN
         13   -1    0    0    0    0  0.00000000000E+00  0.00000000000E+00  0.74505805969E-08  0.10566000000E+00  0.10566000000E+00 0.  1.
     999900   -1    0    0    0    0 -0.00000000000E+00 -0.00000000000E+00 -0.74505805969E-08  0.93827000000E+00  0.93827000000E+00 0.  1.
     999902    2    1    2    0    0  0.78139601286E-03  0.22001261991E-01  0.67494492108E-02  0.10209034681E+01  0.10206437527E+01 0.  0.
     999903    2    3    3    0    0  0.11564514428E+00  0.61300650718E-01 -0.92924759801E-02  0.13242416836E+00  0.17839312815E-01 0.  0.
         14    1    1    2    0    0 -0.78139601286E-03 -0.22001261991E-01 -0.67494492108E-02  0.23026531948E-01  0.00000000000E+00 0.  1.
     999901    1    3    3    0    0 -0.11486374827E+00 -0.39299388727E-01  0.16041925191E-01  0.88847929969E+00  0.88000000000E+00 0.  1.
        -11    1    4    4    0    0  0.77761568021E-01  0.32251199882E-01 -0.26999596612E-02  0.84229165127E-01  0.51100000000E-03 0.  1.
         11    1    4    4    0    0  0.37883576258E-01  0.29049450836E-01 -0.65925163189E-02  0.48195003231E-01  0.51100000000E-03 0. -1.
</event>
<event>
 8    1  0.1090774E+005  0.1043930E+01  0.7957747E-01            NaN
         13   -1    0    0    0    0  0.00000000000E+00  0.00000000000E+00  0.74505805969E-08  0.10566000000E+00  0.10566000000E+00 0. -1.
     999900   -1    0    0    0    0 -0.00000000000E+00 -0.00000000000E+00 -0.74505805969E-08  0.93827000000E+00  0.93827000000E+00 0.  1.
     999902    2    1    2    0    0  0.12540610221E-03  0.31726443701E-02  0.24185825657E-01  0.10195366492E+01  0.10192447908E+01 0.  0.
     999903    2    3    3    0    0 -0.45550162531E-01 -0.13128493516E-01 -0.11554513820E+00  0.12719325853E+00  0.24088823276E-01 0.  0.
         14    1    1    2    0    0 -0.12540610221E-03 -0.31726443701E-02 -0.24185825657E-01  0.24393350768E-01  0.00000000000E+00 0.  1.
     999901    1    3    3    0    0  0.45675568633E-01  0.16301137886E-01  0.13973096385E+00  0.89234339070E+00  0.88000000000E+00 0. -1.
        -11    1    4    4    0    0 -0.73776788021E-02 -0.10383643967E-01 -0.15452171256E-01  0.20031997506E-01  0.51100000000E-03 0.  1.
         11    1    4    4    0    0 -0.38172483729E-01 -0.27448495493E-02 -0.10009296694E+00  0.10716126103E+00  0.51100000000E-03 0. -1.
</event>
<event>
 8    1  0.1090774E+005  0.1043930E+01  0.7957747E-01            NaN
         13   -1    0    0    0    0  0.00000000000E+00  0.00000000000E+00  0.74505805969E-08  0.10566000000E+00  0.10566000000E+00 0. -1.
     999900   -1    0    0    0    0 -0.00000000000E+00 -0.00000000000E+00 -0.74505805969E-08  0.93827000000E+00  0.93827000000E+00 0. -1.
     999902    2    1    2    0    0 -0.16900055653E-01  0.21738515683E-03  0.17376744360E-01  0.10196893238E+01  0.10194011510E+01 0.  0.
     999903    2    3    3    0    0  0.11005246183E+00 -0.24906971522E-01 -0.57872884545E-01  0.12704679646E+00  0.77276219149E-02 0.  0.
         14    1    1    2    0    0  0.16900055653E-01 -0.21738515683E-03 -0.17376744360E-01  0.24240676185E-01  0.00000000000E+00 0.  1.
     999901    1    3    3    0    0 -0.12695251748E+00  0.25124356679E-01  0.75249628905E-01  0.89264252736E+00  0.88000000000E+00 0.  1.
        -11    1    4    4    0    0  0.73835573812E-01 -0.14830052279E-01 -0.42057676385E-01  0.86259675832E-01  0.51100000000E-03 0. -1.
         11    1    4    4    0    0  0.36216888015E-01 -0.10076919244E-01 -0.15815208160E-01  0.40787120628E-01  0.51100000000E-03 0.  1.
</event>
<event>
 8    1  0.1090774E+005  0.1043930E+01  0.7957747E-01            NaN
         13   -1    0    0    0    0  0.00000000000E+00  0.00000000000E+00  0.74505805969E-08  0.10566000000E+00  0.10566000000E+00 0.  1.
     999900   -1    0    0    0    0 -0.00000000000E+00 -0.00000000000E+00 -0.74505805969E-08  0.93827000000E+00  0.93827000000E+00 0. -1.
     999902    2    1    2    0    0 -0.15866165781E-01 -0.18422192150E-01  0.71351332456E-02  0.10185918370E+01  0.10182766362E+01 0.  0.
     999903    2    3    3    0    0 -0.11502126063E+00 -0.18793156848E-02 -0.58264877769E-01  0.13045752220E+00  0.19772377054E-01 0.  0.
         14    1    1    2    0    0  0.15866165781E-01  0.18422192150E-01 -0.71351332456E-02  0.25338163048E-01  0.00000000000E+00 0.  1.
     999901    1    3    3    0    0  0.99155094845E-01 -0.16542876465E-01  0.65400011014E-01  0.88813431475E+00  0.88000000000E+00 0.  1.
        -11    1    4    4    0    0 -0.15114782072E-01 -0.55570929035E-02 -0.13044961245E-01  0.20730896110E-01  0.51100000000E-03 0. -1.
         11    1    4    4    0    0 -0.99906478554E-01  0.36777772187E-02 -0.45219916524E-01  0.10972662609E+00  0.51100000000E-03 0.  1.
</event>
<event>
 8    1  0.1090774E+005  0.1043930E+01  0.7957747E-01            NaN
         13   -1    0    0    0    0  0.00000000000E+00  0.00000000000E+00  0.74505805969E-08  0.10566000000E+00  0.10566000000E+00 0.  1.
     999900   -1    0    0    0    0 -0.00000000000E+00 -0.00000000000E+00 -0.74505805969E-08  0.93827000000E+00  0.93827000000E+00 0.  1.
     999902    2    1    2    0    0  0.15121537874E-01  0.17437894910E-01 -0.66801475206E-02  0.10199015698E+01  0.10196184809E+01 0.  0.
     999903    2    3    3    0    0  0.45336591874E-01 -0.11191453057E+00 -0.42212428815E-01  0.12922343351E+00  0.18344969486E-01 0.  0.
         14    1    1    2    0    0 -0.15121537874E-01 -0.17437894910E-01  0.66801475206E-02  0.24028430192E-01  0.00000000000E+00 0.  1.
     999901    1    3    3    0    0 -0.30215054000E-01  0.12935242548E+00  0.35532281294E-01  0.89067813630E+00  0.88000000000E+00 0. -1.
        -11    1    4    4    0    0  0.22059010952E-01 -0.44206935009E-01 -0.86926517226E-02  0.50166486642E-01  0.51100000000E-03 0. -1.
         11    1    4    4    0    0  0.23277580921E-01 -0.67707595565E-01 -0.33519777092E-01  0.79056946868E-01  0.51100000000E-03 0.  1.
</event>
<event>
 8    1  0.1090774E+005  0.1043930E+01  0.7957747E-01            NaN
         13   -1    0    0    0    0  0.00000000000E+00  0.00000000000E+00  0.74505805969E-08  0.10566000000E+00  0.10566000000E+00 0.  1.
     999900   -1    0    0    0    0 -0.00000000000E+00 -0.00000000000E+00 -0.74505805969E-08  0.93827000000E+00  0.93827000000E+00 0.  1.
     999902    2    1    2    0    0  0.19433647350E-01 -0.17253775806E-01  0.23647355057E-02  0.10178349544E+01  0.10175003897E+01 0.  0.
     999903    2    3    3    0    0  0.28349049548E-01  0.10382886275E+00 -0.65047765103E-01  0.12694498649E+00  0.17312322158E-01 0.  0.
         14    1    1    2    0    0 -0.19433647350E-01  0.17253775806E-01 -0.23647355057E-02  0.26095045563E-01  0.00000000000E+00 0.  1.
     999901    1    3    3    0    0 -0.89154021973E-02 -0.12108263856E+00  0.67412500609E-01  0.89088996795E+00  0.88000000000E+00 0. -1.
        -11    1    4    4    0    0  0.16712600630E-01  0.34600140398E-01 -0.28161343234E-01  0.47642450704E-01  0.51100000000E-03 0.  1.
         11    1    4    4    0    0  0.11636448918E-01  0.69228722354E-01 -0.36886421870E-01  0.79302535783E-01  0.51100000000E-03 0. -1.
</event>
<event>
 8    1  0.1090774E+005  0.1043930E+01  0.7957747E-01            NaN
         13   -1    0    0    0    0  0.00000000000E+00  0.00000000000E+00  0.74505805969E-08  0.10566000000E+00  0.10566000000E+00 0. -1.
     999900   -1    0    0    0    0 -0.00000000000E+00 -0.00000000000E+00 -0.74505805969E-08  0.93827000000E+00  0.93827000000E+00 0. -1.
     999902    2    1    2    0    0  0.41674805016E-02  0.20221316707E-01 -0.12473783757E-01  0.10198081256E+01  0.10195228042E+01 0.  0.
     999903    2    3    3    0    0  0.21186263462E-01  0.99680347387E-01  0.80271698853E-01  0.13121085964E+00  0.19690470719E-01 0.  0.
         14    1    1    2    0    0 -0.41674805016E-02 -0.20221316707E-01  0.12473783757E-01  0.24121874394E-01  0.00000000000E+00 0. -1.
     999901    1    3    3    0    0 -0.17018782960E-01 -0.79459030680E-01 -0.92745482610E-01  0.88859726596E+00  0.88000000000E+00 0. -1.
        -11    1    4    4    0    0  0.46959450841E-02  0.58040837000E-01  0.37385403898E-01  0.69200579517E-01  0.51100000000E-03 0.  1.
         11    1    4    4    0    0  0.16490318378E-01  0.41639510387E-01  0.42886294955E-01  0.62010280127E-01  0.51100000000E-03 0. -1.
</event>
<event>
 8    1  0.1090774E+005  0.1043930E+01  0.7957747E-01            NaN
         13   -1    0    0    0    0  0.00000000000E+00  0.00000000000E+00  0.74505805969E-08  0.10566000000E+00  0.10566000000E+00 0. -1.
     999900   -1    0    0    0    0 -0.00000000000E+00 -0.00000000000E+00 -0.74505805969E-08  0.93827000000E+00  0.93827000000E+00 0.  1.
     999902    2    1    2    0    0  0.10273121569E-01  0.17128344273E-02 -0.21176991815E-01  0.10203305125E+01  0.10200575567E+01 0.  0.
     999903    2    3    3    0    0  0.97219467460E-01 -0.52757182257E-01 -0.71108851679E-01  0.13296371098E+00  0.19696053367E-01 0.  0.
         14    1    1    2    0    0 -0.10273121569E-01 -0.17128344273E-02  0.21176991815E-01  0.23599487513E-01  0.00000000000E+00 0. -1.
     999901    1    3    3    0    0 -0.86946345892E-01  0.54470016685E-01  0.49931859864E-01  0.88736680150E+00  0.88000000000E+00 0. -1.
        -11    1    4    4    0    0  0.42111509765E-01 -0.17670584598E-01 -0.39518344646E-01  0.60395277127E-01  0.51100000000E-03 0.  1.
         11    1    4    4    0    0  0.55107957695E-01 -0.35086597660E-01 -0.31590507033E-01  0.72568433856E-01  0.51100000000E-03 0. -1.
</event>
<event>
 8    1  0.1090774E+005  0.1043930E+01  0.7957747E-01            NaN
         13   -1    0    0    0    0  0.00000000000E+00  0.00000000000E+00  0.74505805969E-08  0.10566000000E+00  0.10566000000E+00 0.  1.
     999900   -1    0    0    0    0 -0.00000000000E+00 -0.00000000000E+00 -0.74505805969E-08  0.93827000000E+00  0.93827000000E+00 0. -1.
     999902    2    1    2    0    0  0.12881827964E-01  0.17763319145E-01  0.80938661210E-02  0.10205422325E+01  0.10202742086E+01 0.  0.
     999903    2    3    3    0    0  0.56201852531E-01 -0.11049837118E+00  0.33469383854E-01  0.12982813550E+00  0.19146980206E-01 0.  0.
         14    1    1    2    0    0 -0.12881827964E-01 -0.17763319145E-01 -0.80938661210E-02  0.23387767476E-01  0.00000000000E+00 0. -1.
     999901    1    3    3    0    0 -0.43320024567E-01  0.12826169032E+00 -0.25375517733E-01  0.89071409702E+00  0.88000000000E+00 0. -1.
        -11    1    4    4    0    0  0.29437101829E-01 -0.37575328331E-01  0.11541646079E-01  0.49111291761E-01  0.51100000000E-03 0.  1.
         11    1    4    4    0    0  0.26764750702E-01 -0.72923042849E-01  0.21927737776E-01  0.80716843740E-01  0.51100000000E-03 0. -1.
</event>
<event>
 8    1  0.1090774E+005  0.1043930E+01  0.7957747E-01            NaN
         13   -1    0    0    0    0  0.00000000000E+00  0.00000000000E+00  0.74505805969E-08  0.10566000000E+00  0.10566000000E+00 0.  1.
     999900   -1    0    0    0    0 -0.00000000000E+00 -0.00000000000E+00 -0.74505805969E-08  0.93827000000E+00  0.93827000000E+00 0.  1.
     999902    2    1    2    0    0 -0.17803946490E-01 -0.21637905736E-03 -0.16315603742E-01  0.10197799222E+01  0.10194939252E+01 0.  0.
     999903    2    3    3    0    0  0.42149363209E-01  0.35134197245E-01 -0.11745135902E+00  0.13125726997E+00  0.20558904410E-01 0.  0.
         14    1    1    2    0    0  0.17803946490E-01  0.21637905736E-03  0.16315603742E-01  0.24150077764E-01  0.00000000000E+00 0.  1.
     999901    1    3    3    0    0 -0.59953309699E-01 -0.35350576303E-01  0.10113575528E+00  0.88852265226E+00  0.88000000000E+00 0. -1.
        -11    1    4    4    0    0  0.13897162959E-01  0.20197200160E-02 -0.19191244349E-01  0.23786033463E-01  0.51100000000E-03 0.  1.
         11    1    4    4    0    0  0.28252200250E-01  0.33114477229E-01 -0.98260114669E-01  0.10747123651E+00  0.51100000000E-03 0. -1.
</event>
<event>
 8    1  0.1090774E+005  0.1043930E+01  0.7957747E-01            NaN
         13   -1    0    0    0    0  0.00000000000E+00  0.00000000000E+00  0.74505805969E-08  0.10566000000E+00  0.10566000000E+00 0.  1.
     999900   -1    0    0    0    0 -0.00000000000E+00 -0.00000000000E+00 -0.74505805969E-08  0.93827000000E+00  0.93827000000E+00 0.  1.
     999902    2    1    2    0    0 -0.90808169349E-02  0.22702483762E-02  0.21509615015E-01  0.10204719779E+01  0.10202023225E+01 0.  0.
     999903    2    3    3    0    0 -0.58726365313E-01  0.13497226554E-01  0.11782642089E+00  0.13375463136E+00  0.19397805151E-01 0.  0.
         14    1    1    2    0    0  0.90808169349E-02 -0.22702483762E-02 -0.21509615015E-01  0.23458022124E-01  0.00000000000E+00 0. -1.
     999901    1    3    3    0    0  0.49645548379E-01 -0.11226978178E-01 -0.96316805872E-01  0.88671734651E+00  0.88000000000E+00 0.  1.
        -11    1    4    4    0    0 -0.56303523151E-01  0.89367105225E-02  0.11343895742E+00  0.12695908670E+00  0.51100000000E-03 0. -1.
         11    1    4    4    0    0 -0.24228421625E-02  0.45605160313E-02  0.43874634707E-02  0.67955446671E-02  0.51100000000E-03 0.  1.
</event>
<event>
 8    1  0.1090774E+005  0.1043930E+01  0.7957747E-01            NaN
         13   -1    0    0    0    0  0.00000000000E+00  0.00000000000E+00  0.74505805969E-08  0.10566000000E+00  0.10566000000E+00 0. -1.
     999900   -1    0    0    0    0 -0.00000000000E+00 -0.00000000000E+00 -0.74505805969E-08  0.93827000000E+00  0.93827000000E+00 0.  1.
     999902    2    1    2    0    0  0.14909548251E-01 -0.12690915819E-01 -0.11602275836E-01  0.10211711165E+01  0.10209174709E+01 0.  0.
     999903    2    3    3    0    0 -0.35236817942E-01  0.89388200283E-01 -0.86805857794E-01  0.13067104198E+00  0.17543676263E-01 0.  0.
         14    1    1    2    0    0 -0.14909548251E-01  0.12690915819E-01  0.11602275836E-01  0.22758883495E-01  0.00000000000E+00 0.  1.
     999901    1    3    3    0    0  0.50146366193E-01 -0.10207911610E+00  0.75203581958E-01  0.89050007452E+00  0.88000000000E+00 0.  1.
        -11    1    4    4    0    0 -0.59767974800E-03  0.13200757029E-01 -0.67217624259E-02  0.14834433536E-01  0.51100000000E-03 0.  1.
         11    1    4    4    0    0 -0.34639138194E-01  0.76187443254E-01 -0.80084095368E-01  0.11583660845E+00  0.51100000000E-03 0. -1.
</event>
<event>
 8    1  0.1090774E+005  0.1043930E+01  0.7957747E-01            NaN
         13   -1    0    0    0    0  0.00000000000E+00  0.00000000000E+00  0.74505805969E-08  0.10566000000E+00  0.10566000000E+00 0.  1.
     999900   -1    0    0    0    0 -0.00000000000E+00 -0.00000000000E+00 -0.74505805969E-08  0.93827000000E+00  0.93827000000E+00 0. -1.
     999902    2    1    2    0    0 -0.89975372549E-02  0.21539185224E-01 -0.62722807541E-02  0.10197590736E+01  0.10194725766E+01 0.  0.
     999903    2    3    3    0    0 -0.38988412072E-02  0.99442357071E-01  0.83791414150E-01  0.13172395605E+00  0.20645003478E-01 0.  0.
         14    1    1    2    0    0  0.89975372549E-02 -0.21539185224E-01  0.62722807541E-02  0.24170926391E-01  0.00000000000E+00 0.  1.
     999901    1    3    3    0    0 -0.50986960477E-02 -0.77903171847E-01 -0.90063694904E-01  0.88803511756E+00  0.88000000000E+00 0. -1.
        -11    1    4    4    0    0  0.20584966264E-02  0.90464527925E-01  0.71188833400E-01  0.11513548255E+00  0.51100000000E-03 0.  1.
         11    1    4    4    0    0 -0.59573378336E-02  0.89778291452E-02  0.12602580750E-01  0.16588473492E-01  0.51100000000E-03 0. -1.
</event>
<event>
 8    1  0.1090774E+005  0.1043930E+01  0.7957747E-01            NaN
         13   -1    0    0    0    0  0.00000000000E+00  0.00000000000E+00  0.74505805969E-08  0.10566000000E+00  0.10566000000E+00 0. -1.
     999900   -1    0    0    0    0 -0.00000000000E+00 -0.00000000000E+00 -0.74505805969E-08  0.93827000000E+00  0.93827000000E+00 0.  1.
     999902    2    1    2    0    0 -0.72559889878E-02  0.83759764023E-02  0.12658602969E-01  0.10271060116E+01  0.10269682139E+01 0.  0.
     999903    2    3    3    0    0  0.76774895664E-01  0.31657297225E-01  0.10798770889E+00  0.13767313165E+00  0.19899166725E-01 0.  0.
         14    1    1    2    0    0  0.72559889878E-02 -0.83759764023E-02 -0.12658602969E-01  0.16823988410E-01  0.00000000000E+00 0.  1.
     999901    1    3    3    0    0 -0.84030884651E-01 -0.23281320822E-01 -0.95329105922E-01  0.88943287994E+00  0.88000000000E+00 0.  1.
        -11    1    4    4    0    0  0.38646649198E-01  0.52354568759E-02  0.49821123212E-01  0.63272260446E-01  0.51100000000E-03 0.  1.
         11    1    4    4    0    0  0.38128246466E-01  0.26421840349E-01  0.58166585679E-01  0.74400871208E-01  0.51100000000E-03 0. -1.
</event>
<event>
 8    1  0.1090774E+005  0.1043930E+01  0.7957747E-01            NaN
         13   -1    0    0    0    0  0.00000000000E+00  0.00000000000E+00  0.74505805969E-08  0.10566000000E+00  0.10566000000E+00 0. -1.
     999900   -1    0    0    0    0 -0.00000000000E+00 -0.00000000000E+00 -0.74505805969E-08  0.93827000000E+00  0.93827000000E+00 0. -1.
     999902    2    1    2    0    0  0.17781243533E-01  0.86259388172E-02  0.12482159150E-01  0.10205551473E+01  0.10202874227E+01 0.  0.
     999903    2    3    3    0    0 -0.21361643122E-01  0.21593765666E-01 -0.12378532371E+00  0.12911296914E+00  0.20609267833E-01 0.  0.
         14    1    1    2    0    0 -0.17781243533E-01 -0.86259388172E-02 -0.12482159150E-01  0.23374852708E-01  0.00000000000E+00 0. -1.
     999901    1    3    3    0    0  0.39142886656E-01 -0.12967826849E-01  0.13626748286E+00  0.89144217816E+00  0.88000000000E+00 0.  1.
        -11    1    4    4    0    0  0.25594072295E-02  0.95854432452E-02 -0.33940511450E-01  0.35364540518E-01  0.51100000000E-03 0. -1.
         11    1    4    4    0    0 -0.23921050352E-01  0.12008322421E-01 -0.89844812261E-01  0.93748428619E-01  0.51100000000E-03 0.  1.
</event>
<event>
 8    1  0.1090774E+005  0.1043930E+01  0.7957747E-01            NaN
         13   -1    0    0    0    0  0.00000000000E+00  0.00000000000E+00  0.74505805969E-08  0.10566000000E+00  0.10566000000E+00 0. -1.
     999900   -1    0    0    0    0 -0.00000000000E+00 -0.00000000000E+00 -0.74505805969E-08  0.93827000000E+00  0.93827000000E+00 0. -1.
     999902    2    1    2    0    0  0.89563476016E-02  0.81951613402E-03 -0.21793649027E-01  0.10203535094E+01  0.10200810915E+01 0.  0.
     999903    2    3    3    0    0  0.44053936561E-02  0.10087946010E+00  0.77505585340E-01  0.12912231524E+00  0.21665261880E-01 0.  0.
         14    1    1    2    0    0 -0.89563476016E-02 -0.81951613402E-03  0.21793649027E-01  0.23576490557E-01  0.00000000000E+00 0. -1.
     999901    1    3    3    0    0  0.45509539455E-02 -0.10005994396E+00 -0.99299234367E-01  0.89123119420E+00  0.88000000000E+00 0. -1.
        -11    1    4    4    0    0  0.11398091483E-01  0.85301212522E-01  0.67008969643E-01  0.10907188676E+00  0.51100000000E-03 0.  1.
         11    1    4    4    0    0 -0.69926978269E-02  0.15578247575E-01  0.10496615697E-01  0.20050428487E-01  0.51100000000E-03 0. -1.
</event>
<event>
 8    1  0.1090774E+005  0.1043930E+01  0.7957747E-01            NaN
         13   -1    0    0    0    0  0.00000000000E+00  0.00000000000E+00  0.74505805969E-08  0.10566000000E+00  0.10566000000E+00 0.  1.
     999900   -1    0    0    0    0 -0.00000000000E+00 -0.00000000000E+00 -0.74505805969E-08  0.93827000000E+00  0.93827000000E+00 0.  1.
     999902    2    1    2    0    0 -0.21372689830E-01 -0.54479247909E-02  0.78960345672E-02  0.10205031112E+01  0.10202341795E+01 0.  0.
     999903    2    3    3    0    0  0.89901779351E-01 -0.73309988465E-02  0.90804178562E-01  0.12962752296E+00  0.20538315142E-01 0.  0.
         14    1    1    2    0    0  0.21372689830E-01  0.54479247909E-02 -0.78960345672E-02  0.23426888760E-01  0.00000000000E+00 0. -1.
     999901    1    3    3    0    0 -0.11127446918E+00  0.18830740556E-02 -0.82908143995E-01  0.89087558828E+00  0.88000000000E+00 0.  1.
        -11    1    4    4    0    0  0.51515710894E-01 -0.12118657132E-01  0.61221687590E-01  0.80926426289E-01  0.51100000000E-03 0. -1.
         11    1    4    4    0    0  0.38386068457E-01  0.47876582856E-02  0.29582490972E-01  0.48701096667E-01  0.51100000000E-03 0.  1.
</event>
<event>
 8    1  0.1090774E+005  0.1043930E+01  0.7957747E-01            NaN
         13   -1    0    0    0    0  0.00000000000E+00  0.00000000000E+00  0.74505805969E-08  0.10566000000E+00  0.10566000000E+00 0. -1.
     999900   -1    0    0    0    0 -0.00000000000E+00 -0.00000000000E+00 -0.74505805969E-08  0.93827000000E+00  0.93827000000E+00 0.  1.
     999902    2    1    2    0    0  0.22814738891E-01  0.18227351528E-03 -0.52291969978E-02  0.10205229490E+01  0.10202544778E+01 0.  0.
     999903    2    3    3    0    0 -0.29432912252E-01 -0.12444078527E+00 -0.86082221748E-02  0.13020157915E+00  0.22946554507E-01 0.  0.
         14    1    1    2    0    0 -0.22814738891E-01 -0.18227351528E-03  0.52291969978E-02  0.23407050979E-01  0.00000000000E+00 0. -1.
     999901    1    3    3    0    0  0.52247651143E-01  0.12462305878E+00  0.33790251770E-02  0.89032136987E+00  0.88000000000E+00 0. -1.
        -11    1    4    4    0    0 -0.16824207811E-01 -0.75667859605E-01  0.59949541471E-02  0.77748823411E-01  0.51100000000E-03 0.  1.
         11    1    4    4    0    0 -0.12608704441E-01 -0.48772925662E-01 -0.14603176322E-01  0.52452755743E-01  0.51100000000E-03 0. -1.
</event>
<event>
 8    1  0.1090774E+005  0.1043930E+01  0.7957747E-01            NaN
         13   -1    0    0    0    0  0.00000000000E+00  0.00000000000E+00  0.74505805969E-08  0.10566000000E+00  0.10566000000E+00 0. -1.
     999900   -1    0    0    0    0 -0.00000000000E+00 -0.00000000000E+00 -0.74505805969E-08  0.93827000000E+00  0.93827000000E+00 0. -1.
     999902    2    1    2    0    0 -0.15633402424E-02 -0.14417645081E-01  0.20759148557E-01  0.10186069913E+01  0.10182921722E+01 0.  0.
     999903    2    3    3    0    0  0.93195468119E-01  0.33680193525E-01  0.81902325835E-01  0.13010762606E+00  0.20006315734E-01 0.  0.
         14    1    1    2    0    0  0.15633402424E-02  0.14417645081E-01 -0.20759148557E-01  0.25323008731E-01  0.00000000000E+00 0.  1.
     999901    1    3    3    0    0 -0.94758808361E-01 -0.48097838607E-01 -0.61143177278E-01  0.88849936520E+00  0.88000000000E+00 0.  1.
        -11    1    4    4    0    0  0.72682594070E-01  0.21638154048E-01  0.71189280531E-01  0.10401511417E+00  0.51100000000E-03 0.  1.
         11    1    4    4    0    0  0.20512874049E-01  0.12042039478E-01  0.10713045303E-01  0.26092511899E-01  0.51100000000E-03 0. -1.
</event>
<event>
 8    1  0.1090774E+005  0.1043930E+01  0.7957747E-01            NaN
         13   -1    0    0    0    0  0.00000000000E+00  0.00000000000E+00  0.74505805969E-08  0.10566000000E+00  0.10566000000E+00 0.  1.
     999900   -1    0    0    0    0 -0.00000000000E+00 -0.00000000000E+00 -0.74505805969E-08  0.93827000000E+00  0.93827000000E+00 0.  1.
     999902    2    1    2    0    0 -0.49664376235E-02 -0.11942306919E-01  0.20206762073E-01  0.10199383883E+01  0.10196561766E+01 0.  0.
     999903    2    3    3    0    0 -0.35178316427E-01 -0.15281051113E-01  0.12583520884E+00  0.13310059391E+00  0.20254477222E-01 0.  0.
         14    1    1    2    0    0  0.49664376235E-02  0.11942306919E-01 -0.20206762073E-01  0.23991611674E-01  0.00000000000E+00 0. -1.
     999901    1    3    3    0    0  0.30211878804E-01  0.33387441938E-02 -0.10562844676E+00  0.88683779441E+00  0.88000000000E+00 0.  1.
        -11    1    4    4    0    0 -0.10353436433E-01 -0.13392381336E-01  0.69027297874E-01  0.71074457413E-01  0.51100000000E-03 0. -1.
         11    1    4    4    0    0 -0.24824879994E-01 -0.18886697774E-02  0.56807910962E-01  0.62026136500E-01  0.51100000000E-03 0.  1.
</event>
<event>
 8    1  0.1090774E+005  0.1043930E+01  0.7957747E-01            NaN
         13   -1    0    0    0    0  0.00000000000E+00  0.00000000000E+00  0.74505805969E-08  0.10566000000E+00  0.10566000000E+00 0.  1.
     999900   -1    0    0    0    0 -0.00000000000E+00 -0.00000000000E+00 -0.74505805969E-08  0.93827000000E+00  0.93827000000E+00 0.  1.
     999902    2    1    2    0    0 -0.17859840666E-01 -0.15629300542E-01 -0.20721354630E-02  0.10201068455E+01  0.10198286295E+01 0.  0.
     999903    2    3    3    0    0  0.41619176211E-01  0.44774646209E-01  0.11148050327E+00  0.12877043765E+00  0.20420534579E-01 0.  0.
         14    1    1    2    0    0  0.17859840666E-01  0.15629300542E-01  0.20721354630E-02  0.23823154481E-01  0.00000000000E+00 0.  1.
     999901    1    3    3    0    0 -0.59479016877E-01 -0.60403946750E-01 -0.11355263873E+00  0.89133640787E+00  0.88000000000E+00 0.  1.
        -11    1    4    4    0    0  0.21609206735E-01  0.32701910635E-01  0.54080218740E-01  0.66792993307E-01  0.51100000000E-03 0.  1.
         11    1    4    4    0    0  0.20009969476E-01  0.12072735574E-01  0.57400284525E-01  0.61977444343E-01  0.51100000000E-03 0. -1.
</event>
<event>
 8    1  0.1090774E+005  0.1043930E+01  0.7957747E-01            NaN
         13   -1    0    0    0    0  0.00000000000E+00  0.00000000000E+00  0.74505805969E-08  0.10566000000E+00  0.10566000000E+00 0.  1.
     999900   -1    0    0    0    0 -0.00000000000E+00 -0.00000000000E+00 -0.74505805969E-08  0.93827000000E+00  0.93827000000E+00 0. -1.
     999902    2    1    2    0    0 -0.20301449979E-01 -0.12961812621E-01  0.57636711847E-02  0.10191635436E+01  0.10188625772E+01 0.  0.
     999903    2    3    3    0    0  0.70781829352E-01 -0.10196351536E+00 -0.30115156260E-01  0.12927323736E+00  0.19950474398E-01 0.  0.
         14    1    1    2    0    0  0.20301449979E-01  0.12961812621E-01 -0.57636711847E-02  0.24766456412E-01  0.00000000000E+00 0.  1.
     999901    1    3    3    0    0 -0.91083279331E-01  0.89001702742E-01  0.35878827444E-01  0.88989030623E+00  0.88000000000E+00 0.  1.
        -11    1    4    4    0    0  0.41884675662E-01 -0.42894336121E-01 -0.14040949790E-01  0.61576452630E-01  0.51100000000E-03 0. -1.
         11    1    4    4    0    0  0.28897153691E-01 -0.59069179242E-01 -0.16074206470E-01  0.67696784727E-01  0.51100000000E-03 0.  1.
</event>
<event>
 8    1  0.1090774E+005  0.1043930E+01  0.7957747E-01            NaN
         13   -1    0    0    0    0  0.00000000000E+00  0.00000000000E+00  0.74505805969E-08  0.10566000000E+00  0.10566000000E+00 0.  1.
     999900   -1    0    0    0    0 -0.00000000000E+00 -0.00000000000E+00 -0.74505805969E-08  0.93827000000E+00  0.93827000000E+00 0. -1.
     999902    2    1    2    0    0 -0.70218872038E-02  0.93496504143E-02  0.20326480199E-01  0.10204802951E+01  0.10202108331E+01 0.  0.
     999903    2    3    3    0    0  0.95963932232E-02  0.86980428059E-01  0.98649018495E-01  0.13344189407E+00  0.20430971975E-01 0.  0.
         14    1    1    2    0    0  0.70218872038E-02 -0.93496504143E-02 -0.20326480199E-01  0.23449704904E-01  0.00000000000E+00 0. -1.
     999901    1    3    3    0    0 -0.16618280427E-01 -0.77630777645E-01 -0.78322538296E-01  0.88703840102E+00  0.88000000000E+00 0. -1.
        -11    1    4    4    0    0  0.12956545525E-01  0.74254076463E-01  0.91166763514E-01  0.11829277169E+00  0.51100000000E-03 0.  1.
         11    1    4    4    0    0 -0.33601523020E-02  0.12726351596E-01  0.74822549817E-02  0.15149122385E-01  0.51100000000E-03 0. -1.
</event>
<event>
 8    1  0.1090774E+005  0.1043930E+01  0.7957747E-01            NaN
         13   -1    0    0    0    0  0.00000000000E+00  0.00000000000E+00  0.74505805969E-08  0.10566000000E+00  0.10566000000E+00 0.  1.
     999900   -1    0    0    0    0 -0.00000000000E+00 -0.00000000000E+00 -0.74505805969E-08  0.93827000000E+00  0.93827000000E+00 0. -1.
     999902    2    1    2    0    0 -0.69453496794E-02  0.13598990762E-01 -0.17500671647E-01  0.10207040675E+01  0.10204397824E+01 0.  0.
     999903    2    3    3    0    0 -0.18987741622E-01  0.89981387707E-01  0.90744354361E-01  0.13070615997E+00  0.19808532016E-01 0.  0.
         14    1    1    2    0    0  0.69453496794E-02 -0.13598990762E-01  0.17500671647E-01  0.23225932490E-01  0.00000000000E+00 0. -1.
     999901    1    3    3    0    0  0.12042391943E-01 -0.76382396944E-01 -0.10824502601E+00  0.88999790754E+00  0.88000000000E+00 0. -1.
        -11    1    4    4    0    0 -0.17490447756E-01  0.52825496435E-01  0.64505618838E-01  0.85192046688E-01  0.51100000000E-03 0. -1.
         11    1    4    4    0    0 -0.14972938666E-02  0.37155891272E-01  0.26238735523E-01  0.45514113284E-01  0.51100000000E-03 0.  1.
</event>
<event>
 8    1  0.1090774E+005  0.1043930E+01  0.7957747E-01            NaN
         13   -1    0    0    0    0  0.00000000000E+00  0.00000000000E+00  0.74505805969E-08  0.10566000000E+00  0.10566000000E+00 0.  1.
     999900   -1    0    0    0    0 -0.00000000000E+00 -0.00000000000E+00 -0.74505805969E-08  0.93827000000E+00  0.93827000000E+00 0.  1.
     999902    2    1    2    0    0  0.20996452784E-01 -0.21105832440E-02 -0.11427423956E-01  0.10199322582E+01  0.10196499006E+01 0.  0.
     999903    2    3    3    0    0 -0.78327657802E-02 -0.69862709336E-01  0.10635595083E+00  0.12903697943E+00  0.19919924924E-01 0.  0.
         14    1    1    2    0    0 -0.20996452784E-01  0.21105832440E-02  0.11427423956E-01  0.23997741757E-01  0.00000000000E+00 0.  1.
     999901    1    3    3    0    0  0.28829218564E-01  0.67752126092E-01 -0.11778337478E+00  0.89089527881E+00  0.88000000000E+00 0.  1.
        -11    1    4    4    0    0 -0.39803613912E-02 -0.89054927123E-02  0.28201620079E-01  0.29845327495E-01  0.51100000000E-03 0.  1.
         11    1    4    4    0    0 -0.38524043890E-02 -0.60957216624E-01  0.78154330749E-01  0.99191651936E-01  0.51100000000E-03 0. -1.
</event>
<event>
 8    1  0.1090774E+005  0.1043930E+01  0.7957747E-01            NaN
         13   -1    0    0    0    0  0.00000000000E+00  0.00000000000E+00  0.74505805969E-08  0.10566000000E+00  0.10566000000E+00 0.  1.
     999900   -1    0    0    0    0 -0.00000000000E+00 -0.00000000000E+00 -0.74505805969E-08  0.93827000000E+00  0.93827000000E+00 0.  1.
     999902    2    1    2    0    0 -0.17642895032E-01 -0.17138603408E-01 -0.52789779578E-02  0.10187730709E+01  0.10184624190E+01 0.  0.
     999903    2    3    3    0    0 -0.11936245634E+00  0.24664265862E-01 -0.43757399348E-01  0.13109354658E+00  0.20373658579E-01 0.  0.
         14    1    1    2    0    0  0.17642895032E-01  0.17138603408E-01  0.52789779578E-02  0.25156929069E-01  0.00000000000E+00 0. -1.
     999901    1    3    3    0    0  0.10171956131E+00 -0.41802869270E-01  0.38478421390E-01  0.88767952435E+00  0.88000000000E+00 0. -1.
        -11    1    4    4    0    0 -0.44340045768E-01  0.15508278886E-01 -0.25022819535E-01  0.53225454354E-01  0.51100000000E-03 0.  1.
         11    1    4    4    0    0 -0.75022410573E-01  0.91559869754E-02 -0.18734579813E-01  0.77868092230E-01  0.51100000000E-03 0. -1.
</event>
<event>
 7    1  0.1090774E+005  0.1043930E+01  0.7957747E-01            NaN
         13   -1    0    0    0    0  0.00000000000E+00  0.00000000000E+00  0.74505805969E-08  0.10566000000E+00  0.10566000000E+00 0.  1.
     999900   -1    0    0    0    0 -0.00000000000E+00 -0.00000000000E+00 -0.74505805969E-08  0.93827000000E+00  0.93827000000E+00 0.  1.
     999903    2    1    2    0    0 -0.92374941640E-01 -0.26138268308E-01  0.33052596385E-01  0.10360719554E+00  0.20630994309E-01 0.  0.
         14    1    1    2    0    0  0.94443130516E-02 -0.23949628482E-01  0.44715087903E-01  0.51596694077E-01  0.00000000000E+00 0.  1.
     999901    1    1    2    0    0  0.82930628588E-01  0.50087896790E-01 -0.77767684289E-01  0.88872611039E+00  0.88000000000E+00 0.  1.
        -11    1    3    3    0    0 -0.74979619801E-01 -0.27361920519E-01  0.21430689359E-01  0.82644743616E-01  0.51100000000E-03 0. -1.
         11    1    3    3    0    0 -0.17395321839E-01  0.12236522109E-02  0.11621907026E-01  0.20962451921E-01  0.51100000000E-03 0.  1.
</event>
<event>
 8    1  0.1090774E+005  0.1043930E+01  0.7957747E-01            NaN
         13   -1    0    0    0    0  0.00000000000E+00  0.00000000000E+00  0.74505805969E-08  0.10566000000E+00  0.10566000000E+00 0.  1.
     999900   -1    0    0    0    0 -0.00000000000E+00 -0.00000000000E+00 -0.74505805969E-08  0.93827000000E+00  0.93827000000E+00 0.  1.
     999902    2    1    2    0    0  0.32135583948E-02  0.54869090915E-02 -0.19455405155E-01  0.10234618316E+01  0.10232571401E+01 0.  0.
     999903    2    3    3    0    0 -0.21707239835E-01  0.94568440890E-01 -0.92184920214E-01  0.13562955696E+00  0.21975507546E-01 0.  0.
         14    1    1    2    0    0 -0.32135583948E-02 -0.54869090915E-02  0.19455405155E-01  0.20468168425E-01  0.00000000000E+00 0.  1.
     999901    1    3    3    0    0  0.24920798230E-01 -0.89081531798E-01  0.72729515059E-01  0.88783227462E+00  0.88000000000E+00 0.  1.
        -11    1    4    4    0    0  0.41417467964E-02  0.16421273755E-01 -0.19343410433E-01  0.25714605703E-01  0.51100000000E-03 0.  1.
         11    1    4    4    0    0 -0.25848986631E-01  0.78147167135E-01 -0.72841509781E-01  0.10991495125E+00  0.51100000000E-03 0. -1.
</event>
<event>
 8    1  0.1090774E+005  0.1043930E+01  0.7957747E-01            NaN
         13   -1    0    0    0    0  0.00000000000E+00  0.00000000000E+00  0.74505805969E-08  0.10566000000E+00  0.10566000000E+00 0.  1.
     999900   -1    0    0    0    0 -0.00000000000E+00 -0.00000000000E+00 -0.74505805969E-08  0.93827000000E+00  0.93827000000E+00 0. -1.
     999902    2    1    2    0    0  0.79870854970E-02  0.21971445687E-01 -0.47786754814E-02  0.10200684472E+01  0.10197893230E+01 0.  0.
     999903    2    3    3    0    0 -0.80211998343E-01 -0.32616864915E-01  0.93003732619E-01  0.12859754959E+00  0.19743629955E-01 0.  0.
         14    1    1    2    0    0 -0.79870854970E-02 -0.21971445687E-01  0.47786754814E-02  0.23861552751E-01  0.00000000000E+00 0. -1.
     999901    1    3    3    0    0  0.88199083840E-01  0.54588310602E-01 -0.97782408100E-01  0.89147089766E+00  0.88000000000E+00 0.  1.
        -11    1    4    4    0    0 -0.47961253308E-01 -0.14381270478E-01  0.65524543105E-01  0.82467142727E-01  0.51100000000E-03 0. -1.
         11    1    4    4    0    0 -0.32250745034E-01 -0.18235594437E-01  0.27479189514E-01  0.46130406860E-01  0.51100000000E-03 0.  1.
</event>
<event>
 8    1  0.1090774E+005  0.1043930E+01  0.7957747E-01            NaN
         13   -1    0    0    0    0  0.00000000000E+00  0.00000000000E+00  0.74505805969E-08  0.10566000000E+00  0.10566000000E+00 0. -1.
     999900   -1    0    0    0    0 -0.00000000000E+00 -0.00000000000E+00 -0.74505805969E-08  0.93827000000E+00  0.93827000000E+00 0. -1.
     999902    2    1    2    0    0 -0.12282903437E-01  0.83496882155E-03  0.21495668649E-01  0.10191584304E+01  0.10188573382E+01 0.  0.
     999903    2    3    3    0    0 -0.12046043600E+00  0.45586545052E-01  0.16749711736E-01  0.13139291731E+00  0.19866961099E-01 0.  0.
         14    1    1    2    0    0  0.12282903437E-01 -0.83496882155E-03 -0.21495668649E-01  0.24771569600E-01  0.00000000000E+00 0.  1.
     999901    1    3    3    0    0  0.10817753257E+00 -0.44751576230E-01  0.47459569134E-02  0.88776551309E+00  0.88000000000E+00 0.  1.
        -11    1    4    4    0    0 -0.23504655972E-01  0.16281292921E-01 -0.72959272172E-03  0.28606691142E-01  0.51100000000E-03 0. -1.
         11    1    4    4    0    0 -0.96955780032E-01  0.29305252130E-01  0.17479304458E-01  0.10278622617E+00  0.51100000000E-03 0.  1.
</event>
<event>
 8    1  0.1090774E+005  0.1043930E+01  0.7957747E-01            NaN
         13   -1    0    0    0    0  0.00000000000E+00  0.00000000000E+00  0.74505805969E-08  0.10566000000E+00  0.10566000000E+00 0. -1.
     999900   -1    0    0    0    0 -0.00000000000E+00 -0.00000000000E+00 -0.74505805969E-08  0.93827000000E+00  0.93827000000E+00 0. -1.
     999902    2    1    2    0    0  0.15868667261E-01  0.10479623210E-01 -0.14406284108E-01  0.10200725457E+01  0.10197935185E+01 0.  0.
     999903    2    3    3    0    0  0.48079364194E-01 -0.72948533173E-01  0.92895487971E-01  0.12905545465E+00  0.19814765615E-01 0.  0.
         14    1    1    2    0    0 -0.15868667261E-01 -0.10479623210E-01  0.14406284108E-01  0.23857454287E-01  0.00000000000E+00 0. -1.
     999901    1    3    3    0    0 -0.32210696932E-01  0.83428156382E-01 -0.10730177208E+00  0.89101709106E+00  0.88000000000E+00 0. -1.
        -11    1    4    4    0    0  0.10007532821E-01 -0.19202587721E-01  0.36023109355E-01  0.42033505884E-01  0.51100000000E-03 0.  1.
         11    1    4    4    0    0  0.38071831373E-01 -0.53745945452E-01  0.56872378615E-01  0.87021948766E-01  0.51100000000E-03 0. -1.
</event>
<event>
 8    1  0.1090774E+005  0.1043930E+01  0.7957747E-01            NaN
         13   -1    0    0    0    0  0.00000000000E+00  0.00000000000E+00  0.74505805969E-08  0.10566000000E+00  0.10566000000E+00 0.  1.
     999900   -1    0    0    0    0 -0.00000000000E+00 -0.00000000000E+00 -0.74505805969E-08  0.93827000000E+00  0.93827000000E+00 0.  1.
     999902    2    1    2    0    0 -0.18067383891E-01 -0.11640696287E-01  0.10793076129E-02  0.10224102166E+01  0.10221837164E+01 0.  0.
     999903    2    3    3    0    0 -0.12303732797E+00 -0.17175042911E-01 -0.44080411612E-01  0.13500460567E+00  0.29154668413E-01 0.  0.
         14    1    1    2    0    0  0.18067383891E-01  0.11640696287E-01 -0.10793076129E-02  0.21519783354E-01  0.00000000000E+00 0. -1.
     999901    1    3    3    0    0  0.10496994408E+00  0.55343466247E-02  0.45159719225E-01  0.88740561098E+00  0.88000000000E+00 0. -1.
        -11    1    4    4    0    0 -0.94359454963E-01 -0.20695827147E-01 -0.43889116613E-01  0.10610626598E+00  0.51100000000E-03 0. -1.
         11    1    4    4    0    0 -0.28677873009E-01  0.35207842359E-02 -0.19129499985E-03  0.28898339688E-01  0.51100000000E-03 0.  1.
</event>
<event>
 8    1  0.1090774E+005  0.1043930E+01  0.7957747E-01            NaN
         13   -1    0    0    0    0  0.00000000000E+00  0.00000000000E+00  0.74505805969E-08  0.10566000000E+00  0.10566000000E+00 0. -1.
     999900   -1    0    0    0    0 -0.00000000000E+00 -0.00000000000E+00 -0.74505805969E-08  0.93827000000E+00  0.93827000000E+00 0.  1.
     999902    2    1    2    0    0  0.19614948343E-01 -0.83821981300E-02  0.20894811747E-02  0.10224970026E+01  0.10222723448E+01 0.  0.
     999903    2    3    3    0    0  0.39034646718E-01  0.37829638575E-01 -0.11916233249E+00  0.13276970687E+00  0.21756570918E-01 0.  0.
         14    1    1    2    0    0 -0.19614948343E-01  0.83821981300E-02 -0.20894811747E-02  0.21432997354E-01  0.00000000000E+00 0.  1.
     999901    1    3    3    0    0 -0.19419698375E-01 -0.46211836705E-01  0.12125181366E+00  0.88972729578E+00  0.88000000000E+00 0.  1.
        -11    1    4    4    0    0  0.27841284886E-01  0.37357574558E-01 -0.10351839280E+00  0.11352111825E+00  0.51100000000E-03 0. -1.
         11    1    4    4    0    0  0.11193361833E-01  0.47206401614E-03 -0.15643939692E-01  0.19248588615E-01  0.51100000000E-03 0.  1.
</event>
<event>
 8    1  0.1090774E+005  0.1043930E+01  0.7957747E-01            NaN
         13   -1    0    0    0    0  0.00000000000E+00  0.00000000000E+00  0.74505805969E-08  0.10566000000E+00  0.10566000000E+00 0.  1.
     999900   -1    0    0    0    0 -0.00000000000E+00 -0.00000000000E+00 -0.74505805969E-08  0.93827000000E+00  0.93827000000E+00 0. -1.
     999902    2    1    2    0    0 -0.44093365626E-02 -0.15322164851E-01 -0.17091375720E-01  0.10205563801E+01  0.10202886840E+01 0.  0.
     999903    2    3    3    0    0  0.80869208696E-01  0.76837261162E-01 -0.64346718058E-01  0.13038849845E+00  0.20417315828E-01 0.  0.
         14    1    1    2    0    0  0.44093365626E-02  0.15322164851E-01  0.17091375720E-01  0.23373619931E-01  0.00000000000E+00 0.  1.
     999901    1    3    3    0    0 -0.85278545259E-01 -0.92159426013E-01  0.47255342337E-01  0.89016788162E+00  0.88000000000E+00 0.  1.
        -11    1    4    4    0    0  0.44053102915E-02  0.13191254100E-01 -0.77891965024E-02  0.15948311718E-01  0.51100000000E-03 0.  1.
         11    1    4    4    0    0  0.76463898405E-01  0.63646007062E-01 -0.56557521555E-01  0.11444018673E+00  0.51100000000E-03 0. -1.
</event>
<event>
 8    1  0.1090774E+005  0.1043930E+01  0.7957747E-01            NaN
         13   -1    0    0    0    0  0.00000000000E+00  0.00000000000E+00  0.74505805969E-08  0.10566000000E+00  0.10566000000E+00 0. -1.
     999900   -1    0    0    0    0 -0.00000000000E+00 -0.00000000000E+00 -0.74505805969E-08  0.93827000000E+00  0.93827000000E+00 0. -1.
     999902    2    1    2    0    0 -0.17652004721E-01  0.92348298222E-02  0.10921889382E-01  0.10212107786E+01  0.10209580262E+01 0.  0.
     999903    2    3    3    0    0  0.32383325070E-02 -0.89951503423E-01 -0.91001093144E-01  0.12954793356E+00  0.19992707940E-01 0.  0.
         14    1    1    2    0    0  0.17652004721E-01 -0.92348298222E-02 -0.10921889382E-01  0.22719221381E-01  0.00000000000E+00 0.  1.
     999901    1    3    3    0    0 -0.20890337228E-01  0.99186333245E-01  0.10192298253E+00  0.89166284506E+00  0.88000000000E+00 0.  1.
        -11    1    4    4    0    0 -0.50963713361E-02 -0.77816697290E-02 -0.12594118860E-01  0.15665258869E-01  0.51100000000E-03 0. -1.
         11    1    4    4    0    0  0.83347038430E-02 -0.82169833694E-01 -0.78406974283E-01  0.11388267469E+00  0.51100000000E-03 0.  1.
</event>
<event>
 8    1  0.1090774E+005  0.1043930E+01  0.7957747E-01            NaN
         13   -1    0    0    0    0  0.00000000000E+00  0.00000000000E+00  0.74505805969E-08  0.10566000000E+00  0.10566000000E+00 0.  1.
     999900   -1    0    0    0    0 -0.00000000000E+00 -0.00000000000E+00 -0.74505805969E-08  0.93827000000E+00  0.93827000000E+00 0. -1.
     999902    2    1    2    0    0  0.76445782721E-02 -0.98513562584E-02 -0.20080691245E-01  0.10202926787E+01  0.10200188367E+01 0.  0.
     999903    2    3    3    0    0 -0.33646120623E-01 -0.48323384576E-01  0.11253573828E+00  0.12856842976E+00  0.19958402027E-01 0.  0.
         14    1    1    2    0    0 -0.76445782721E-02  0.98513562584E-02  0.20080691245E-01  0.23637321294E-01  0.00000000000E+00 0.  1.
     999901    1    3    3    0    0  0.41290698895E-01  0.38472028317E-01 -0.13261642952E+00  0.89172424895E+00  0.88000000000E+00 0. -1.
        -11    1    4    4    0    0 -0.10286661136E-01 -0.23594387480E-01  0.31507995948E-01  0.40688148736E-01  0.51100000000E-03 0.  1.
         11    1    4    4    0    0 -0.23359459487E-01 -0.24728997095E-01  0.81027742329E-01  0.87880281024E-01  0.51100000000E-03 0. -1.
</event>
<event>
 8    1  0.1090774E+005  0.1043930E+01  0.7957747E-01            NaN
         13   -1    0    0    0    0  0.00000000000E+00  0.00000000000E+00  0.74505805969E-08  0.10566000000E+00  0.10566000000E+00 0.  1.
     999900   -1    0    0    0    0 -0.00000000000E+00 -0.00000000000E+00 -0.74505805969E-08  0.93827000000E+00  0.93827000000E+00 0. -1.
     999902    2    1    2    0    0  0.66481185894E-02  0.58645263444E-02  0.21902735189E-01  0.10203012049E+01  0.10200275627E+01 0.  0.
     999903    2    3    3    0    0  0.54837932728E-01 -0.62011403852E-01 -0.96093562506E-01  0.12853188137E+00  0.20829275058E-01 0.  0.
         14    1    1    2    0    0 -0.66481185894E-02 -0.58645263444E-02 -0.21902735189E-01  0.23628795120E-01  0.00000000000E+00 0. -1.
     999901    1    3    3    0    0 -0.48189814139E-01  0.67875930197E-01  0.11799629770E+00  0.89176932351E+00  0.88000000000E+00 0.  1.
        -11    1    4    4    0    0  0.10758155652E-02 -0.61807763157E-03  0.10176781591E-02  0.16840988464E-02  0.51100000000E-03 0. -1.
         11    1    4    4    0    0  0.53762117163E-01 -0.61393326221E-01 -0.97111240665E-01  0.12684778252E+00  0.51100000000E-03 0.  1.
</event>
<event>
 8    1  0.1090774E+005  0.1043930E+01  0.7957747E-01            NaN
         13   -1    0    0    0    0  0.00000000000E+00  0.00000000000E+00  0.74505805969E-08  0.10566000000E+00  0.10566000000E+00 0. -1.
     999900   -1    0    0    0    0 -0.00000000000E+00 -0.00000000000E+00 -0.74505805969E-08  0.93827000000E+00  0.93827000000E+00 0. -1.
     999902    2    1    2    0    0 -0.26428096676E-02  0.23102572164E-01 -0.18791644951E-02  0.10206009507E+01  0.10203342864E+01 0.  0.
     999903    2    3    3    0    0 -0.67613946753E-01  0.10692476809E+00  0.36598945216E-01  0.13339862081E+00  0.21240466459E-01 0.  0.
         14    1    1    2    0    0  0.26428096676E-02 -0.23102572164E-01  0.18791644951E-02  0.23329049332E-01  0.00000000000E+00 0.  1.
     999901    1    3    3    0    0  0.64971137085E-01 -0.83822195928E-01 -0.38478109711E-01  0.88720232986E+00  0.88000000000E+00 0. -1.
        -11    1    4    4    0    0 -0.42022280499E-01  0.70546376555E-01  0.13301879004E-01  0.83185722390E-01  0.51100000000E-03 0.  1.
         11    1    4    4    0    0 -0.25591666253E-01  0.36378391536E-01  0.23297066212E-01  0.50212898418E-01  0.51100000000E-03 0. -1.
</event>
<event>
 8    1  0.1090774E+005  0.1043930E+01  0.7957747E-01            NaN
         13   -1    0    0    0    0  0.00000000000E+00  0.00000000000E+00  0.74505805969E-08  0.10566000000E+00  0.10566000000E+00 0.  1.
     999900   -1    0    0    0    0 -0.00000000000E+00 -0.00000000000E+00 -0.74505805969E-08  0.93827000000E+00  0.93827000000E+00 0.  1.
     999902    2    1    2    0    0  0.22642501259E-01  0.82605824833E-02 -0.29777492092E-02  0.10196444678E+01  0.10193552146E+01 0.  0.
     999903    2    3    3    0    0 -0.43622828094E-02  0.11651968843E+00  0.55515290109E-01  0.13067274265E+00  0.19938679330E-01 0.  0.
         14    1    1    2    0    0 -0.22642501259E-01 -0.82605824833E-02  0.29777492092E-02  0.24285532249E-01  0.00000000000E+00 0.  1.
     999901    1    3    3    0    0  0.27004784069E-01 -0.10825910594E+00 -0.58493039318E-01  0.88897172510E+00  0.88000000000E+00 0. -1.
        -11    1    4    4    0    0 -0.23647661104E-02  0.67858078528E-01  0.43047931614E-01  0.80397117346E-01  0.51100000000E-03 0. -1.
         11    1    4    4    0    0 -0.19975166989E-02  0.48661609898E-01  0.12467358495E-01  0.50275625303E-01  0.51100000000E-03 0.  1.
</event>
<event>
 8    1  0.1090774E+005  0.1043930E+01  0.7957747E-01            NaN
         13   -1    0    0    0    0  0.00000000000E+00  0.00000000000E+00  0.74505805969E-08  0.10566000000E+00  0.10566000000E+00 0. -1.
     999900   -1    0    0    0    0 -0.00000000000E+00 -0.00000000000E+00 -0.74505805969E-08  0.93827000000E+00  0.93827000000E+00 0.  1.
     999902    2    1    2    0    0 -0.12182320922E-01 -0.16416099844E-01 -0.12626920032E-01  0.10199021747E+01  0.10196191003E+01 0.  0.
     999903    2    3    3    0    0  0.25676864274E-01  0.16390139387E-01 -0.12607070598E+00  0.13120703027E+00  0.19837435786E-01 0.  0.
         14    1    1    2    0    0  0.12182320922E-01  0.16416099844E-01  0.12626920032E-01  0.24027825258E-01  0.00000000000E+00 0. -1.
     999901    1    3    3    0    0 -0.37859185195E-01 -0.32806239231E-01  0.11344378595E+00  0.88869514447E+00  0.88000000000E+00 0. -1.
        -11    1    4    4    0    0  0.87706185683E-02  0.16151569556E-01 -0.49871807252E-01  0.53153130000E-01  0.51100000000E-03 0. -1.
         11    1    4    4    0    0  0.16906245705E-01  0.23856983098E-03 -0.76198898727E-01  0.78053900271E-01  0.51100000000E-03 0.  1.
</event>
<event>
 8    1  0.1090774E+005  0.1043930E+01  0.7957747E-01            NaN
         13   -1    0    0    0    0  0.00000000000E+00  0.00000000000E+00  0.74505805969E-08  0.10566000000E+00  0.10566000000E+00 0. -1.
     999900   -1    0    0    0    0 -0.00000000000E+00 -0.00000000000E+00 -0.74505805969E-08  0.93827000000E+00  0.93827000000E+00 0. -1.
     999902    2    1    2    0    0  0.97702590564E-02 -0.73220099712E-02  0.19512015231E-01  0.10209128644E+01  0.10206533634E+01 0.  0.
     999903    2    3    3    0    0 -0.36932524342E-01  0.10373651016E-02 -0.12139835150E+00  0.12844059001E+00  0.19857943896E-01 0.  0.
         14    1    1    2    0    0 -0.97702590564E-02  0.73220099712E-02 -0.19512015231E-01  0.23017135582E-01  0.00000000000E+00 0.  1.
     999901    1    3    3    0    0  0.46702783399E-01 -0.83593750728E-02  0.14091036673E+00  0.89247227440E+00  0.88000000000E+00 0.  1.
        -11    1    4    4    0    0 -0.30278392550E-01 -0.46606825734E-02 -0.71679910530E-01  0.77953663878E-01  0.51100000000E-03 0. -1.
         11    1    4    4    0    0 -0.66541317922E-02  0.56980476750E-02 -0.49718440969E-01  0.50486926135E-01  0.51100000000E-03 0.  1.
</event>
<event>
 8    1  0.1090774E+005  0.1043930E+01  0.7957747E-01            NaN
         13   -1    0    0    0    0  0.00000000000E+00  0.00000000000E+00  0.74505805969E-08  0.10566000000E+00  0.10566000000E+00 0.  1.
     999900   -1    0    0    0    0 -0.00000000000E+00 -0.00000000000E+00 -0.74505805969E-08  0.93827000000E+00  0.93827000000E+00 0.  1.
     999902    2    1    2    0    0  0.68578920533E-02  0.17352026973E-01  0.19869175079E-01  0.10166736679E+01  0.10163082403E+01 0.  0.
     999903    2    3    3    0    0  0.69328276083E-02 -0.60036263112E-01  0.11166799122E+00  0.12852054159E+00  0.19883972458E-01 0.  0.
         14    1    1    2    0    0 -0.68578920533E-02 -0.17352026973E-01 -0.19869175079E-01  0.27256332142E-01  0.00000000000E+00 0.  1.
     999901    1    3    3    0    0 -0.74935555040E-04  0.77388290085E-01 -0.91798816138E-01  0.88815312627E+00  0.88000000000E+00 0. -1.
        -11    1    4    4    0    0  0.12242544823E-01 -0.28778258393E-01  0.64508707253E-01  0.71691718436E-01  0.51100000000E-03 0. -1.
         11    1    4    4    0    0 -0.53097172148E-02 -0.31258004719E-01  0.47159283964E-01  0.56828823153E-01  0.51100000000E-03 0.  1.
</event>
<event>
 8    1  0.1090774E+005  0.1043930E+01  0.7957747E-01            NaN
         13   -1    0    0    0    0  0.00000000000E+00  0.00000000000E+00  0.74505805969E-08  0.10566000000E+00  0.10566000000E+00 0.  1.
     999900   -1    0    0    0    0 -0.00000000000E+00 -0.00000000000E+00 -0.74505805969E-08  0.93827000000E+00  0.93827000000E+00 0.  1.
     999902    2    1    2    0    0 -0.65545388483E-02  0.96301277070E-02  0.20690116389E-01  0.10201859006E+01  0.10199095497E+01 0.  0.
     999903    2    3    3    0    0 -0.44878109918E-01 -0.73422641955E-01  0.98255213470E-01  0.13205144969E+00  0.19456857122E-01 0.  0.
         14    1    1    2    0    0  0.65545388483E-02 -0.96301277070E-02 -0.20690116389E-01  0.23744099379E-01  0.00000000000E+00 0. -1.
     999901    1    3    3    0    0  0.38323571070E-01  0.83052769662E-01 -0.77565097082E-01  0.88813445093E+00  0.88000000000E+00 0.  1.
        -11    1    4    4    0    0 -0.23002819959E-01 -0.28122652695E-01  0.53772031886E-01  0.64897656775E-01  0.51100000000E-03 0. -1.
         11    1    4    4    0    0 -0.21875289959E-01 -0.45299989261E-01  0.44483181584E-01  0.67153792913E-01  0.51100000000E-03 0.  1.
</event>
<event>
 8    1  0.1090774E+005  0.1043930E+01  0.7957747E-01            NaN
         13   -1    0    0    0    0  0.00000000000E+00  0.00000000000E+00  0.74505805969E-08  0.10566000000E+00  0.10566000000E+00 0. -1.
     999900   -1    0    0    0    0 -0.00000000000E+00 -0.00000000000E+00 -0.74505805969E-08  0.93827000000E+00  0.93827000000E+00 0.  1.
     999902    2    1    2    0    0 -0.43359945031E-02  0.23160662813E-01 -0.27932879052E-02  0.10202019658E+01  0.10199259931E+01 0.  0.
     999903    2    3    3    0    0  0.84300509228E-02  0.12649606892E+00  0.35716436412E-01  0.13322723281E+00  0.20037727456E-01 0.  0.
         14    1    1    2    0    0  0.43359945031E-02 -0.23160662813E-01  0.27932879052E-02  0.23728034212E-01  0.00000000000E+00 0.  1.
     999901    1    3    3    0    0 -0.12766045426E-01 -0.10333540611E+00 -0.38509724317E-01  0.88697473298E+00  0.88000000000E+00 0.  1.
        -11    1    4    4    0    0  0.86924172708E-02  0.77367287641E-01  0.31247296356E-01  0.83892252119E-01  0.51100000000E-03 0. -1.
         11    1    4    4    0    0 -0.26236634801E-03  0.49128781280E-01  0.44691400565E-02  0.49334980693E-01  0.51100000000E-03 0.  1.
</event>
<event>
 8    1  0.1090774E+005  0.1043930E+01  0.7957747E-01            NaN
         13   -1    0    0    0    0  0.00000000000E+00  0.00000000000E+00  0.74505805969E-08  0.10566000000E+00  0.10566000000E+00 0.  1.
     999900   -1    0    0    0    0 -0.00000000000E+00 -0.00000000000E+00 -0.74505805969E-08  0.93827000000E+00  0.93827000000E+00 0.  1.
     999902    2    1    2    0    0  0.14621561165E-01 -0.14185301570E-01 -0.12406402805E-01  0.10200777116E+01  0.10197988066E+01 0.  0.
     999903    2    3    3    0    0 -0.11424348327E+00 -0.41963249974E-01  0.37307836609E-01  0.12887104662E+00  0.20084426000E-01 0.  0.
         14    1    1    2    0    0 -0.14621561165E-01  0.14185301570E-01  0.12406402805E-01  0.23852288404E-01  0.00000000000E+00 0.  1.
     999901    1    3    3    0    0  0.12886504443E+00  0.27777948404E-01 -0.49714239414E-01  0.89120666497E+00  0.88000000000E+00 0. -1.
        -11    1    4    4    0    0 -0.48562247210E-01 -0.14540141753E-01  0.25406041895E-01  0.56704811630E-01  0.51100000000E-03 0. -1.
         11    1    4    4    0    0 -0.65681236057E-01 -0.27423108221E-01  0.11901794714E-01  0.72166234992E-01  0.51100000000E-03 0.  1.
</event>
<event>
 8    1  0.1090774E+005  0.1043930E+01  0.7957747E-01            NaN
         13   -1    0    0    0    0  0.00000000000E+00  0.00000000000E+00  0.74505805969E-08  0.10566000000E+00  0.10566000000E+00 0. -1.
     999900   -1    0    0    0    0 -0.00000000000E+00 -0.00000000000E+00 -0.74505805969E-08  0.93827000000E+00  0.93827000000E+00 0.  1.
     999902    2    1    2    0    0 -0.14312193669E-01 -0.36654315189E-02 -0.18582890105E-01  0.10201897793E+01  0.10199135197E+01 0.  0.
     999903    2    3    3    0    0 -0.67726143018E-01  0.99641735507E-01 -0.50001512733E-01  0.13198228628E+00  0.20096435350E-01 0.  0.
         14    1    1    2    0    0  0.14312193669E-01  0.36654315189E-02  0.18582890105E-01  0.23740220734E-01  0.00000000000E+00 0. -1.
     999901    1    3    3    0    0  0.53413949349E-01 -0.10330716703E+00  0.31418622628E-01  0.88820749298E+00  0.88000000000E+00 0.  1.
        -11    1    4    4    0    0 -0.13563140529E-01  0.85941458757E-02 -0.45022397446E-02  0.16683806762E-01  0.51100000000E-03 0. -1.
         11    1    4    4    0    0 -0.54163002489E-01  0.91047589632E-01 -0.45499272989E-01  0.11529847952E+00  0.51100000000E-03 0.  1.
</event>
<event>
 8    1  0.1090774E+005  0.1043930E+01  0.7957747E-01            NaN
         13   -1    0    0    0    0  0.00000000000E+00  0.00000000000E+00  0.74505805969E-08  0.10566000000E+00  0.10566000000E+00 0.  1.
     999900   -1    0    0    0    0 -0.00000000000E+00 -0.00000000000E+00 -0.74505805969E-08  0.93827000000E+00  0.93827000000E+00 0.  1.
     999902    2    1    2    0    0  0.21707311489E-02 -0.10463079926E-01 -0.22604918959E-01  0.10189265907E+01  0.10186197655E+01 0.  0.
     999903    2    3    3    0    0 -0.25768547307E-01 -0.11214013046E+00 -0.60359940744E-01  0.13182779826E+00  0.22266994814E-01 0.  0.
         14    1    1    2    0    0 -0.21707311489E-02  0.10463079926E-01  0.22604918959E-01  0.25003409296E-01  0.00000000000E+00 0.  1.
     999901    1    3    3    0    0  0.27939278456E-01  0.10167705053E+00  0.37755021785E-01  0.88709879244E+00  0.88000000000E+00 0. -1.
        -11    1    4    4    0    0 -0.24360372086E-01 -0.62962883221E-01 -0.40789139406E-01  0.78878180799E-01  0.51100000000E-03 0. -1.
         11    1    4    4    0    0 -0.14081752207E-02 -0.49177247238E-01 -0.19570801338E-01  0.52949617462E-01  0.51100000000E-03 0.  1.
</event>
<event>
 8    1  0.1090774E+005  0.1043930E+01  0.7957747E-01            NaN
         13   -1    0    0    0    0  0.00000000000E+00  0.00000000000E+00  0.74505805969E-08  0.10566000000E+00  0.10566000000E+00 0. -1.
     999900   -1    0    0    0    0 -0.00000000000E+00 -0.00000000000E+00 -0.74505805969E-08  0.93827000000E+00  0.93827000000E+00 0.  1.
     999902    2    1    2    0    0 -0.83231644684E-02  0.11031033668E-01 -0.18893610013E-01  0.10205221537E+01  0.10202536640E+01 0.  0.
     999903    2    3    3    0    0 -0.78568014236E-01  0.63457372078E-01  0.80503016737E-01  0.13059937652E+00  0.19382737468E-01 0.  0.
         14    1    1    2    0    0  0.83231644684E-02 -0.11031033668E-01  0.18893610013E-01  0.23407846332E-01  0.00000000000E+00 0. -1.
     999901    1    3    3    0    0  0.70244849768E-01 -0.52426338410E-01 -0.99396626750E-01  0.88992277715E+00  0.88000000000E+00 0. -1.
        -11    1    4    4    0    0 -0.53031404534E-01  0.47826861124E-01  0.46155444598E-01  0.85031315989E-01  0.51100000000E-03 0.  1.
         11    1    4    4    0    0 -0.25536609702E-01  0.15630510954E-01  0.34347572138E-01  0.45568060531E-01  0.51100000000E-03 0. -1.
</event>
<event>
 7    1  0.1090774E+005  0.1043930E+01  0.7957747E-01            NaN
         13   -1    0    0    0    0  0.00000000000E+00  0.00000000000E+00  0.74505805969E-08  0.10566000000E+00  0.10566000000E+00 0.  1.
     999900   -1    0    0    0    0 -0.00000000000E+00 -0.00000000000E+00 -0.74505805969E-08  0.93827000000E+00  0.93827000000E+00 0.  1.
     999902    2    1    2    0    0  0.12074567480E-01  0.95802798059E-02  0.14043265166E-01  0.10230783757E+01  0.10228658624E+01 0.  0.
         14    1    1    2    0    0 -0.12074567480E-01 -0.95802798059E-02 -0.14043265166E-01  0.20851624337E-01  0.00000000000E+00 0. -1.
     999901    1    3    3    0    0  0.35803990099E-01 -0.11483975134E+00 -0.10244516475E-01  0.88824267197E+00  0.88000000000E+00 0. -1.
        -11    1    3    3    0    0 -0.35563528866E-02  0.82359209605E-01  0.43149239383E-03  0.82438670291E-01  0.51100000000E-03 0.  1.
         11    1    3    3    0    0 -0.20173069733E-01  0.42060821544E-01  0.23856289247E-01  0.52397033399E-01  0.51100000000E-03 0. -1.
</event>
<event>
 8    1  0.1090774E+005  0.1043930E+01  0.7957747E-01            NaN
         13   -1    0    0    0    0  0.00000000000E+00  0.00000000000E+00  0.74505805969E-08  0.10566000000E+00  0.10566000000E+00 0. -1.
     999900   -1    0    0    0    0 -0.00000000000E+00 -0.00000000000E+00 -0.74505805969E-08  0.93827000000E+00  0.93827000000E+00 0. -1.
     999902    2    1    2    0    0 -0.18682647592E-01 -0.16725980508E-01  0.84530989726E-02  0.10174676753E+01  0.10171235007E+01 0.  0.
     999903    2    3    3    0    0 -0.10151043669E+00  0.12210866294E-01 -0.76269010124E-01  0.12905582290E+00  0.19620639813E-01 0.  0.
         14    1    1    2    0    0  0.18682647592E-01  0.16725980508E-01 -0.84530989726E-02  0.26462324675E-01  0.00000000000E+00 0. -1.
     999901    1    3    3    0    0  0.82827789103E-01 -0.28936846802E-01  0.84722109097E-01  0.88841185242E+00  0.88000000000E+00 0. -1.
        -11    1    4    4    0    0 -0.87018656843E-02 -0.15277562074E-02 -0.12663371814E-02  0.89398677996E-02  0.51100000000E-03 0.  1.
         11    1    4    4    0    0 -0.92808571011E-01  0.13738622502E-01 -0.75002672943E-01  0.12011595511E+00  0.51100000000E-03 0. -1.
</event>
<event>
 8    1  0.1090774E+005  0.1043930E+01  0.7957747E-01            NaN
         13   -1    0    0    0    0  0.00000000000E+00  0.00000000000E+00  0.74505805969E-08  0.10566000000E+00  0.10566000000E+00 0.  1.
     999900   -1    0    0    0    0 -0.00000000000E+00 -0.00000000000E+00 -0.74505805969E-08  0.93827000000E+00  0.93827000000E+00 0. -1.
     999902    2    1    2    0    0  0.95043578475E-02 -0.22181986095E-01 -0.41943830538E-02  0.10194357930E+01  0.10191414867E+01 0.  0.
     999903    2    3    3    0    0  0.12672814809E-01  0.72781727026E-01 -0.10369333280E+00  0.12874606765E+00  0.19117077259E-01 0.  0.
         14    1    1    2    0    0 -0.95043578475E-02  0.22181986095E-01  0.41943830538E-02  0.24494206956E-01  0.00000000000E+00 0.  1.
     999901    1    3    3    0    0 -0.31684569617E-02 -0.94963713121E-01  0.99498949746E-01  0.89068972540E+00  0.88000000000E+00 0.  1.
        -11    1    4    4    0    0 -0.19700335593E-02  0.40923513098E-01 -0.50451001895E-01  0.64993689461E-01  0.51100000000E-03 0.  1.
         11    1    4    4    0    0  0.14642848368E-01  0.31858213928E-01 -0.53242330904E-01  0.63752378184E-01  0.51100000000E-03 0. -1.
</event>
<event>
 8    1  0.1090774E+005  0.1043930E+01  0.7957747E-01            NaN
         13   -1    0    0    0    0  0.00000000000E+00  0.00000000000E+00  0.74505805969E-08  0.10566000000E+00  0.10566000000E+00 0.  1.
     999900   -1    0    0    0    0 -0.00000000000E+00 -0.00000000000E+00 -0.74505805969E-08  0.93827000000E+00  0.93827000000E+00 0.  1.
     999902    2    1    2    0    0  0.80110493114E-02 -0.49075294503E-02  0.21643341993E-01  0.10203356149E+01  0.10200627785E+01 0.  0.
     999903    2    3    3    0    0  0.55614704260E-01 -0.32267597245E-01  0.11487276450E+00  0.13370919610E+00  0.23413755264E-01 0.  0.
         14    1    1    2    0    0 -0.80110493114E-02  0.49075294503E-02 -0.21643341993E-01  0.23594385116E-01  0.00000000000E+00 0. -1.
     999901    1    3    3    0    0 -0.47603654949E-01  0.27360067795E-01 -0.93229422503E-01  0.88662641879E+00  0.88000000000E+00 0.  1.
        -11    1    4    4    0    0  0.53849147611E-01 -0.22628416401E-01  0.94490369091E-01  0.11108765413E+00  0.51100000000E-03 0.  1.
         11    1    4    4    0    0  0.17655566490E-02 -0.96391808435E-02  0.20382395404E-01  0.22621541969E-01  0.51100000000E-03 0. -1.
</event>
<event>
 8    1  0.1090774E+005  0.1043930E+01  0.7957747E-01            NaN
         13   -1    0    0    0    0  0.00000000000E+00  0.00000000000E+00  0.74505805969E-08  0.10566000000E+00  0.10566000000E+00 0. -1.
     999900   -1    0    0    0    0 -0.00000000000E+00 -0.00000000000E+00 -0.74505805969E-08  0.93827000000E+00  0.93827000000E+00 0. -1.
     999902    2    1    2    0    0  0.11080709422E-01 -0.18796913122E-01 -0.73038576688E-02  0.10209201673E+01  0.10206608328E+01 0.  0.
     999903    2    3    3    0    0  0.55796910215E-01  0.59114563137E-01 -0.10118443749E+00  0.13137910584E+00  0.20355645356E-01 0.  0.
         14    1    1    2    0    0 -0.11080709422E-01  0.18796913122E-01  0.73038576688E-02  0.23009832704E-01  0.00000000000E+00 0. -1.
     999901    1    3    3    0    0 -0.44716200793E-01 -0.77911476259E-01  0.93880579818E-01  0.88954106145E+00  0.88000000000E+00 0.  1.
        -11    1    4    4    0    0  0.23461860573E-01  0.30899730912E-01 -0.62696881464E-01  0.73732030613E-01  0.51100000000E-03 0.  1.
         11    1    4    4    0    0  0.32335049642E-01  0.28214832225E-01 -0.38487556022E-01  0.57647075229E-01  0.51100000000E-03 0. -1.
</event>
<event>
 8    1  0.1090774E+005  0.1043930E+01  0.7957747E-01            NaN
         13   -1    0    0    0    0  0.00000000000E+00  0.00000000000E+00  0.74505805969E-08  0.10566000000E+00  0.10566000000E+00 0. -1.
     999900   -1    0    0    0    0 -0.00000000000E+00 -0.00000000000E+00 -0.74505805969E-08  0.93827000000E+00  0.93827000000E+00 0. -1.
     999902    2    1    2    0    0 -0.13354995947E-01 -0.10496765503E-01 -0.15722455849E-01  0.10207840798E+01  0.10205216333E+01 0.  0.
     999903    2    3    3    0    0 -0.46084902651E-01 -0.11567922486E+00 -0.44434539161E-01  0.13345157153E+00  0.18149169576E-01 0.  0.
         14    1    1    2    0    0  0.13354995947E-01  0.10496765503E-01  0.15722455849E-01  0.23145920174E-01  0.00000000000E+00 0.  1.
     999901    1    3    3    0    0  0.32729906704E-01  0.10518245936E+00  0.28712083312E-01  0.88733250830E+00  0.88000000000E+00 0.  1.
        -11    1    4    4    0    0  0.45834899978E-03 -0.13084811910E-01 -0.32459533287E-02  0.13498878491E-01  0.51100000000E-03 0.  1.
         11    1    4    4    0    0 -0.46543251651E-01 -0.10259441295E+00 -0.41188585832E-01  0.11995269304E+00  0.51100000000E-03 0. -1.
</event>
<event>
 8    1  0.1090774E+005  0.1043930E+01  0.7957747E-01            NaN
         13   -1    0    0    0    0  0.00000000000E+00  0.00000000000E+00  0.74505805969E-08  0.10566000000E+00  0.10566000000E+00 0.  1.
     999900   -1    0    0    0    0 -0.00000000000E+00 -0.00000000000E+00 -0.74505805969E-08  0.93827000000E+00  0.93827000000E+00 0. -1.
     999902    2    1    2    0    0  0.77648483568E-02  0.19700895765E-01  0.10879497948E-01  0.10201228238E+01  0.10198449853E+01 0.  0.
     999903    2    3    3    0    0 -0.86787063786E-02 -0.12304318743E+00  0.27600278948E-01  0.12831239084E+00  0.22075967218E-01 0.  0.
         14    1    1    2    0    0 -0.77648483568E-02 -0.19700895765E-01 -0.10879497948E-01  0.23807176219E-01  0.00000000000E+00 0.  1.
     999901    1    3    3    0    0  0.16443554735E-01  0.14274408319E+00 -0.16720781000E-01  0.89181043294E+00  0.88000000000E+00 0. -1.
        -11    1    4    4    0    0 -0.12179346797E-01 -0.84616066423E-01  0.10600796604E-01  0.86144374134E-01  0.51100000000E-03 0.  1.
         11    1    4    4    0    0  0.35006404188E-02 -0.38427121006E-01  0.16999482344E-01  0.42168016709E-01  0.51100000000E-03 0. -1.
</event>
<event>
 8    1  0.1090774E+005  0.1043930E+01  0.7957747E-01            NaN
         13   -1    0    0    0    0  0.00000000000E+00  0.00000000000E+00  0.74505805969E-08  0.10566000000E+00  0.10566000000E+00 0. -1.
     999900   -1    0    0    0    0 -0.00000000000E+00 -0.00000000000E+00 -0.74505805969E-08  0.93827000000E+00  0.93827000000E+00 0.  1.
     999902    2    1    2    0    0  0.13132945664E-01  0.65207834905E-02 -0.18341381395E-01  0.10204480676E+01  0.10201778558E+01 0.  0.
     999903    2    3    3    0    0  0.34845472853E-01  0.11374834023E+00  0.51347519139E-01  0.13093936856E+00  0.18858913872E-01 0.  0.
         14    1    1    2    0    0 -0.13132945664E-01 -0.65207834905E-02  0.18341381395E-01  0.23481932430E-01  0.00000000000E+00 0. -1.
     999901    1    3    3    0    0 -0.21712527189E-01 -0.10722755674E+00 -0.69688900534E-01  0.88950869901E+00  0.88000000000E+00 0.  1.
        -11    1    4    4    0    0  0.23051415753E-01  0.69985834495E-01  0.21841793211E-01  0.76855122470E-01  0.51100000000E-03 0. -1.
         11    1    4    4    0    0  0.11794057100E-01  0.43762505738E-01  0.29505725928E-01  0.54084246087E-01  0.51100000000E-03 0.  1.
</event>
<event>
 8    1  0.1090774E+005  0.1043930E+01  0.7957747E-01            NaN
         13   -1    0    0    0    0  0.00000000000E+00  0.00000000000E+00  0.74505805969E-08  0.10566000000E+00  0.10566000000E+00 0. -1.
     999900   -1    0    0    0    0 -0.00000000000E+00 -0.00000000000E+00 -0.74505805969E-08  0.93827000000E+00  0.93827000000E+00 0.  1.
     999902    2    1    2    0    0  0.81608229292E-02 -0.65517863845E-02 -0.21167468137E-01  0.10203167274E+01  0.10200434489E+01 0.  0.
     999903    2    3    3    0    0 -0.99557101348E-02  0.11792250071E+00  0.46778798453E-01  0.12877943033E+00  0.19775068961E-01 0.  0.
         14    1    1    2    0    0 -0.81608229292E-02  0.65517863845E-02  0.21167468137E-01  0.23613272603E-01  0.00000000000E+00 0. -1.
     999901    1    3    3    0    0  0.18116533064E-01 -0.12447428710E+00 -0.67946266590E-01  0.89153729707E+00  0.88000000000E+00 0.  1.
        -11    1    4    4    0    0  0.47905996283E-02  0.40869652803E-01  0.11291230189E-01  0.42673544090E-01  0.51100000000E-03 0. -1.
         11    1    4    4    0    0 -0.14746309763E-01  0.77052847911E-01  0.35487568264E-01  0.86105886240E-01  0.51100000000E-03 0.  1.
</event>
<event>
 8    1  0.1090774E+005  0.1043930E+01  0.7957747E-01            NaN
         13   -1    0    0    0    0  0.00000000000E+00  0.00000000000E+00  0.74505805969E-08  0.10566000000E+00  0.10566000000E+00 0. -1.
     999900   -1    0    0    0    0 -0.00000000000E+00 -0.00000000000E+00 -0.74505805969E-08  0.93827000000E+00  0.93827000000E+00 0.  1.
     999902    2    1    2    0    0  0.23040470258E-01  0.46037772305E-02  0.35318080049E-02  0.10201701241E+01  0.10198934015E+01 0.  0.
     999903    2    3    3    0    0 -0.75532803241E-01  0.10133064684E+00 -0.17721314263E-01  0.12914572896E+00  0.19785600139E-01 0.  0.
         14    1    1    2    0    0 -0.23040470258E-01 -0.46037772305E-02 -0.35318080049E-02  0.23759875890E-01  0.00000000000E+00 0. -1.
     999901    1    3    3    0    0  0.98573273500E-01 -0.96726869614E-01  0.21253122268E-01  0.89102439515E+00  0.88000000000E+00 0. -1.
        -11    1    4    4    0    0 -0.42546433832E-01  0.72711548927E-01 -0.12148779721E-01  0.85117697037E-01  0.51100000000E-03 0.  1.
         11    1    4    4    0    0 -0.32986369409E-01  0.28619097918E-01 -0.55725345423E-02  0.44028031919E-01  0.51100000000E-03 0. -1.
</event>
<event>
 8    1  0.1090774E+005  0.1043930E+01  0.7957747E-01            NaN
         13   -1    0    0    0    0  0.00000000000E+00  0.00000000000E+00  0.74505805969E-08  0.10566000000E+00  0.10566000000E+00 0.  1.
     999900   -1    0    0    0    0 -0.00000000000E+00 -0.00000000000E+00 -0.74505805969E-08  0.93827000000E+00  0.93827000000E+00 0. -1.
     999902    2    1    2    0    0  0.21213849553E-02 -0.24534691456E-01 -0.54087587832E-03  0.10192978278E+01  0.10190001560E+01 0.  0.
     999903    2    3    3    0    0  0.88493681862E-01  0.50998431585E-01 -0.75817362963E-01  0.12866211338E+00  0.19331196017E-01 0.  0.
         14    1    1    2    0    0 -0.21213849553E-02  0.24534691456E-01  0.54087587832E-03  0.24632172167E-01  0.00000000000E+00 0.  1.
     999901    1    3    3    0    0 -0.86372296906E-01 -0.75533123041E-01  0.75276487085E-01  0.89063571445E+00  0.88000000000E+00 0.  1.
        -11    1    4    4    0    0  0.37775603205E-01  0.26513886589E-01 -0.44999023077E-01  0.64460496263E-01  0.51100000000E-03 0. -1.
         11    1    4    4    0    0  0.50718078657E-01  0.24484544997E-01 -0.30818339886E-01  0.64201617118E-01  0.51100000000E-03 0.  1.
</event>
<event>
 8    1  0.1090774E+005  0.1043930E+01  0.7957747E-01            NaN
         13   -1    0    0    0    0  0.00000000000E+00  0.00000000000E+00  0.74505805969E-08  0.10566000000E+00  0.10566000000E+00 0. -1.
     999900   -1    0    0    0    0 -0.00000000000E+00 -0.00000000000E+00 -0.74505805969E-08  0.93827000000E+00  0.93827000000E+00 0. -1.
     999902    2    1    2    0    0 -0.46921471242E-03 -0.16556678719E-01  0.17773594120E-01  0.10196350536E+01  0.10193455734E+01 0.  0.
     999903    2    3    3    0    0  0.55133335723E-01  0.70533473312E-01  0.92886735204E-01  0.13041161590E+00  0.19094198561E-01 0.  0.
         14    1    1    2    0    0  0.46921471242E-03  0.16556678719E-01 -0.17773594120E-01  0.24294946400E-01  0.00000000000E+00 0.  1.
     999901    1    3    3    0    0 -0.55602550436E-01 -0.87090152030E-01 -0.75113141084E-01  0.88922343770E+00  0.88000000000E+00 0. -1.
        -11    1    4    4    0    0 -0.50473276652E-04  0.84146774497E-02  0.92748635391E-02  0.12533696933E-01  0.51100000000E-03 0. -1.
         11    1    4    4    0    0  0.55183809000E-01  0.62118795862E-01  0.83611871665E-01  0.11787791896E+00  0.51100000000E-03 0.  1.
</event>
<event>
 8    1  0.1090774E+005  0.1043930E+01  0.7957747E-01            NaN
         13   -1    0    0    0    0  0.00000000000E+00  0.00000000000E+00  0.74505805969E-08  0.10566000000E+00  0.10566000000E+00 0. -1.
     999900   -1    0    0    0    0 -0.00000000000E+00 -0.00000000000E+00 -0.74505805969E-08  0.93827000000E+00  0.93827000000E+00 0. -1.
     999902    2    1    2    0    0  0.22309217834E-02  0.22141941417E-01 -0.11369095990E-01  0.10189400235E+01  0.10186335320E+01 0.  0.
     999903    2    3    3    0    0 -0.10705673165E+00 -0.53742467107E-01 -0.41711863416E-01  0.12842168108E+00  0.20071174884E-01 0.  0.
         14    1    1    2    0    0 -0.22309217834E-02 -0.22141941417E-01  0.11369095990E-01  0.24989976498E-01  0.00000000000E+00 0. -1.
     999901    1    3    3    0    0  0.10928765343E+00  0.75884408524E-01  0.30342767425E-01  0.89051834242E+00  0.88000000000E+00 0. -1.
        -11    1    4    4    0    0 -0.48266354157E-01 -0.25077210807E-01 -0.84675794042E-02  0.55049690894E-01  0.51100000000E-03 0. -1.
         11    1    4    4    0    0 -0.58790377489E-01 -0.28665256300E-01 -0.33244284011E-01  0.73371990190E-01  0.51100000000E-03 0.  1.
</event>
<event>
 8    1  0.1090774E+005  0.1043930E+01  0.7957747E-01            NaN
         13   -1    0    0    0    0  0.00000000000E+00  0.00000000000E+00  0.74505805969E-08  0.10566000000E+00  0.10566000000E+00 0. -1.
     999900   -1    0    0    0    0 -0.00000000000E+00 -0.00000000000E+00 -0.74505805969E-08  0.93827000000E+00  0.93827000000E+00 0. -1.
     999902    2    1    2    0    0 -0.10728824901E-01  0.17323898889E-01 -0.12318042254E-01  0.10201190924E+01  0.10198411657E+01 0.  0.
     999903    2    3    3    0    0 -0.61128808070E-02 -0.12501640204E+00 -0.21255946326E-01  0.12862486675E+00  0.20641535808E-01 0.  0.
         14    1    1    2    0    0  0.10728824901E-01 -0.17323898889E-01  0.12318042254E-01  0.23810907615E-01  0.00000000000E+00 0. -1.
     999901    1    3    3    0    0 -0.46159440935E-02  0.14234030093E+00  0.89379040718E-02  0.89149422563E+00  0.88000000000E+00 0. -1.
        -11    1    4    4    0    0 -0.55177402910E-02 -0.10861695883E+00 -0.25414568954E-01  0.11168818487E+00  0.51100000000E-03 0.  1.
         11    1    4    4    0    0 -0.59514051608E-03 -0.16399443217E-01  0.41586226277E-02  0.16936681884E-01  0.51100000000E-03 0. -1.
</event>
<event>
 8    1  0.1090774E+005  0.1043930E+01  0.7957747E-01            NaN
         13   -1    0    0    0    0  0.00000000000E+00  0.00000000000E+00  0.74505805969E-08  0.10566000000E+00  0.10566000000E+00 0. -1.
     999900   -1    0    0    0    0 -0.00000000000E+00 -0.00000000000E+00 -0.74505805969E-08  0.93827000000E+00  0.93827000000E+00 0.  1.
     999902    2    1    2    0    0 -0.33844216359E-02  0.20418805949E-01 -0.10972276904E-01  0.10205040997E+01  0.10202351908E+01 0.  0.
     999903    2    3    3    0    0  0.91748886398E-01 -0.44911410084E-02  0.89115075349E-01  0.12938776055E+00  0.19017555634E-01 0.  0.
         14    1    1    2    0    0  0.33844216359E-02 -0.20418805949E-01  0.10972276904E-01  0.23425900338E-01  0.00000000000E+00 0. -1.
     999901    1    3    3    0    0 -0.95133308034E-01  0.24909946957E-01 -0.10008735225E+00  0.89111633911E+00  0.88000000000E+00 0.  1.
        -11    1    4    4    0    0  0.83108266531E-01 -0.76688842584E-02  0.85500880367E-01  0.11948413039E+00  0.51100000000E-03 0.  1.
         11    1    4    4    0    0  0.86406198669E-02  0.31777432500E-02  0.36141949820E-02  0.99036301534E-02  0.51100000000E-03 0. -1.
</event>
<event>
 8    1  0.1090774E+005  0.1043930E+01  0.7957747E-01            NaN
         13   -1    0    0    0    0  0.00000000000E+00  0.00000000000E+00  0.74505805969E-08  0.10566000000E+00  0.10566000000E+00 0. -1.
     999900   -1    0    0    0    0 -0.00000000000E+00 -0.00000000000E+00 -0.74505805969E-08  0.93827000000E+00  0.93827000000E+00 0.  1.
     999902    2    1    2    0    0 -0.20168637201E-01  0.69100055004E-02 -0.10082246801E-01  0.10203466626E+01  0.10200740846E+01 0.  0.
     999903    2    3    3    0    0  0.59208641829E-01 -0.82771311033E-01 -0.77792818113E-01  0.12965692288E+00  0.20060954724E-01 0.  0.
         14    1    1    2    0    0  0.20168637201E-01 -0.69100055004E-02  0.10082246801E-01  0.23583337404E-01  0.00000000000E+00 0.  1.
     999901    1    3    3    0    0 -0.79377279029E-01  0.89681316533E-01  0.67710571312E-01  0.89068973971E+00  0.88000000000E+00 0. -1.
        -11    1    4    4    0    0  0.31842591725E-01 -0.52080721178E-01 -0.57240308745E-01  0.83684324890E-01  0.51100000000E-03 0.  1.
         11    1    4    4    0    0  0.27366050104E-01 -0.30690589855E-01 -0.20552509368E-01  0.45972597994E-01  0.51100000000E-03 0. -1.
</event>
<event>
 8    1  0.1090774E+005  0.1043930E+01  0.7957747E-01            NaN
         13   -1    0    0    0    0  0.00000000000E+00  0.00000000000E+00  0.74505805969E-08  0.10566000000E+00  0.10566000000E+00 0.  1.
     999900   -1    0    0    0    0 -0.00000000000E+00 -0.00000000000E+00 -0.74505805969E-08  0.93827000000E+00  0.93827000000E+00 0.  1.
     999902    2    1    2    0    0 -0.17115966513E-01  0.64643339863E-02 -0.15371394856E-01  0.10200338977E+01  0.10197539550E+01 0.  0.
     999903    2    3    3    0    0  0.11015568494E+00  0.63070927128E-01  0.57040834873E-02  0.12882878361E+00  0.21262693771E-01 0.  0.
         14    1    1    2    0    0  0.17115966513E-01 -0.64643339863E-02  0.15371394856E-01  0.23896102263E-01  0.00000000000E+00 0.  1.
     999901    1    3    3    0    0 -0.12727165145E+00 -0.56606593141E-01 -0.21075478343E-01  0.89120511412E+00  0.88000000000E+00 0.  1.
        -11    1    4    4    0    0  0.82865861818E-01  0.38627301727E-01 -0.17202946949E-02  0.91444190785E-01  0.51100000000E-03 0.  1.
         11    1    4    4    0    0  0.27289823120E-01  0.24443625401E-01  0.74243781822E-02  0.37384592830E-01  0.51100000000E-03 0. -1.
</event>
<event>
 8    1  0.1090774E+005  0.1043930E+01  0.7957747E-01            NaN
         13   -1    0    0    0    0  0.00000000000E+00  0.00000000000E+00  0.74505805969E-08  0.10566000000E+00  0.10566000000E+00 0. -1.
     999900   -1    0    0    0    0 -0.00000000000E+00 -0.00000000000E+00 -0.74505805969E-08  0.93827000000E+00  0.93827000000E+00 0. -1.
     999902    2    1    2    0    0  0.54460280238E-02 -0.23442899304E-01 -0.18374636277E-02  0.10197927876E+01  0.10195070989E+01 0.  0.
     999903    2    3    3    0    0 -0.11675337996E+00  0.43659763410E-01 -0.23990745535E-01  0.12854297384E+00  0.20253730055E-01 0.  0.
         14    1    1    2    0    0 -0.54460280238E-02  0.23442899304E-01  0.18374636277E-02  0.24137212382E-01  0.00000000000E+00 0.  1.
     999901    1    3    3    0    0  0.12219940798E+00 -0.67102662714E-01  0.22153281907E-01  0.89124981377E+00  0.88000000000E+00 0.  1.
        -11    1    4    4    0    0 -0.10397088039E+00  0.42692610323E-01 -0.16264074156E-01  0.11356665080E+00  0.51100000000E-03 0.  1.
         11    1    4    4    0    0 -0.12782499566E-01  0.96715308656E-03 -0.77266713790E-02  0.14976323042E-01  0.51100000000E-03 0. -1.
</event>
<event>
 8    1  0.1090774E+005  0.1043930E+01  0.7957747E-01            NaN
         13   -1    0    0    0    0  0.00000000000E+00  0.00000000000E+00  0.74505805969E-08  0.10566000000E+00  0.10566000000E+00 0. -1.
     999900   -1    0    0    0    0 -0.00000000000E+00 -0.00000000000E+00 -0.74505805969E-08  0.93827000000E+00  0.93827000000E+00 0. -1.
     999902    2    1    2    0    0 -0.15574155319E-01  0.25402020367E-02  0.15367429921E-01  0.10219035422E+01  0.10216661317E+01 0.  0.
     999903    2    3    3    0    0  0.52121967853E-01 -0.73822621669E-01 -0.90779145163E-01  0.12966974923E+00  0.20172051612E-01 0.  0.
         14    1    1    2    0    0  0.15574155319E-01 -0.25402020367E-02 -0.15367429921E-01  0.22026457787E-01  0.00000000000E+00 0. -1.
     999901    1    3    3    0    0 -0.67696123171E-01  0.76362823706E-01  0.10614657508E+00  0.89223379298E+00  0.88000000000E+00 0.  1.
        -11    1    4    4    0    0  0.18065496391E-01 -0.27317268495E-01 -0.46991210815E-01  0.57280278742E-01  0.51100000000E-03 0.  1.
         11    1    4    4    0    0  0.34056471461E-01 -0.46505353174E-01 -0.43787934348E-01  0.72389470489E-01  0.51100000000E-03 0. -1.
</event>
<event>
 8    1  0.1090774E+005  0.1043930E+01  0.7957747E-01            NaN
         13   -1    0    0    0    0  0.00000000000E+00  0.00000000000E+00  0.74505805969E-08  0.10566000000E+00  0.10566000000E+00 0. -1.
     999900   -1    0    0    0    0 -0.00000000000E+00 -0.00000000000E+00 -0.74505805969E-08  0.93827000000E+00  0.93827000000E+00 0.  1.
     999902    2    1    2    0    0  0.36629110611E-02 -0.22137732651E-01  0.71270348184E-02  0.10203866198E+01  0.10201149755E+01 0.  0.
     999903    2    3    3    0    0 -0.23848611079E-01  0.11592349228E+00  0.41863635966E-01  0.12852092527E+00  0.27532742365E-01 0.  0.
         14    1    1    2    0    0 -0.36629110611E-02  0.22137732651E-01 -0.71270348184E-02  0.23543380166E-01  0.00000000000E+00 0. -1.
     999901    1    3    3    0    0  0.27511522140E-01 -0.13806122493E+00 -0.34736601147E-01  0.89186569456E+00  0.88000000000E+00 0.  1.
        -11    1    4    4    0    0 -0.12034105210E-01  0.46050328199E-01  0.29923961179E-02  0.47693479334E-01  0.51100000000E-03 0.  1.
         11    1    4    4    0    0 -0.11814505869E-01  0.69873164085E-01  0.38871239848E-01  0.80827445935E-01  0.51100000000E-03 0. -1.
</event>
<event>
 8    1  0.1090774E+005  0.1043930E+01  0.7957747E-01            NaN
         13   -1    0    0    0    0  0.00000000000E+00  0.00000000000E+00  0.74505805969E-08  0.10566000000E+00  0.10566000000E+00 0.  1.
     999900   -1    0    0    0    0 -0.00000000000E+00 -0.00000000000E+00 -0.74505805969E-08  0.93827000000E+00  0.93827000000E+00 0.  1.
     999902    2    1    2    0    0 -0.20669477344E-01  0.18195901737E-02 -0.11378218888E-01  0.10202656372E+01  0.10199911609E+01 0.  0.
     999903    2    3    3    0    0 -0.12043928150E-01  0.12598774853E+00  0.24103619800E-01  0.13079889103E+00  0.22569812183E-01 0.  0.
         14    1    1    2    0    0  0.20669477344E-01 -0.18195901737E-02  0.11378218888E-01  0.23664362808E-01  0.00000000000E+00 0. -1.
     999901    1    3    3    0    0 -0.86255491934E-02 -0.12416815836E+00 -0.35481838687E-01  0.88946674616E+00  0.88000000000E+00 0. -1.
        -11    1    4    4    0    0 -0.49866035002E-02  0.32828936918E-01  0.16445678420E-01  0.37058423784E-01  0.51100000000E-03 0.  1.
         11    1    4    4    0    0 -0.70573246500E-02  0.93158811614E-01  0.76579413800E-02  0.93740467248E-01  0.51100000000E-03 0. -1.
</event>
<event>
 8    1  0.1090774E+005  0.1043930E+01  0.7957747E-01            NaN
         13   -1    0    0    0    0  0.00000000000E+00  0.00000000000E+00  0.74505805969E-08  0.10566000000E+00  0.10566000000E+00 0. -1.
     999900   -1    0    0    0    0 -0.00000000000E+00 -0.00000000000E+00 -0.74505805969E-08  0.93827000000E+00  0.93827000000E+00 0.  1.
     999902    2    1    2    0    0 -0.12875548133E-01 -0.14402279828E-02  0.20311067780E-01  0.10198386432E+01  0.10195540519E+01 0.  0.
     999903    2    3    3    0    0 -0.74250591420E-01 -0.50546178435E-02  0.10872891196E+00  0.13327354415E+00  0.20029023617E-01 0.  0.
         14    1    1    2    0    0  0.12875548133E-01  0.14402279828E-02 -0.20311067780E-01  0.24091356764E-01  0.00000000000E+00 0.  1.
     999901    1    3    3    0    0  0.61375043287E-01  0.36143898607E-02 -0.88417844175E-01  0.88656509909E+00  0.88000000000E+00 0.  1.
        -11    1    4    4    0    0 -0.15698702347E-01  0.52899195113E-02  0.15472605864E-01  0.22673666599E-01  0.51100000000E-03 0. -1.
         11    1    4    4    0    0 -0.58551889073E-01 -0.10344537355E-01  0.93256306091E-01  0.11059987755E+00  0.51100000000E-03 0.  1.
</event>
<event>
 8    1  0.1090774E+005  0.1043930E+01  0.7957747E-01            NaN
         13   -1    0    0    0    0  0.00000000000E+00  0.00000000000E+00  0.74505805969E-08  0.10566000000E+00  0.10566000000E+00 0.  1.
     999900   -1    0    0    0    0 -0.00000000000E+00 -0.00000000000E+00 -0.74505805969E-08  0.93827000000E+00  0.93827000000E+00 0. -1.
     999902    2    1    2    0    0 -0.35991357261E-02  0.19675134616E-01  0.14832319464E-01  0.10190289478E+01  0.10187246606E+01 0.  0.
     999903    2    3    3    0    0  0.35661918426E-01 -0.27769218552E-01 -0.11710354364E+00  0.12706512062E+00  0.19733297256E-01 0.  0.
         14    1    1    2    0    0  0.35991357261E-02 -0.19675134616E-01 -0.14832319464E-01  0.24901052203E-01  0.00000000000E+00 0. -1.
     999901    1    3    3    0    0 -0.39261054152E-01  0.47444353168E-01  0.13193586310E+00  0.89196382718E+00  0.88000000000E+00 0.  1.
        -11    1    4    4    0    0  0.21026274211E-01 -0.27377693406E-01 -0.86527707418E-01  0.93160869336E-01  0.51100000000E-03 0.  1.
         11    1    4    4    0    0  0.14635644215E-01 -0.39152514600E-03 -0.30575836220E-01  0.33904251283E-01  0.51100000000E-03 0. -1.
</event>
<event>
 8    1  0.1090774E+005  0.1043930E+01  0.7957747E-01            NaN
         13   -1    0    0    0    0  0.00000000000E+00  0.00000000000E+00  0.74505805969E-08  0.10566000000E+00  0.10566000000E+00 0. -1.
     999900   -1    0    0    0    0 -0.00000000000E+00 -0.00000000000E+00 -0.74505805969E-08  0.93827000000E+00  0.93827000000E+00 0.  1.
     999902    2    1    2    0    0  0.70233664178E-02 -0.16443698398E-01  0.42285336103E-02  0.10255560132E+01  0.10253914047E+01 0.  0.
     999903    2    3    3    0    0 -0.65670467097E-01 -0.48940598399E-01  0.10688025342E+00  0.13601803344E+00  0.19228219564E-01 0.  0.
         14    1    1    2    0    0 -0.70233664178E-02  0.16443698398E-01 -0.42285336103E-02  0.18373986756E-01  0.00000000000E+00 0.  1.
     999901    1    3    3    0    0  0.72693833514E-01  0.32496900002E-01 -0.10265171981E+00  0.88953797981E+00  0.88000000000E+00 0.  1.
        -11    1    4    4    0    0 -0.47987276961E-01 -0.24321522734E-01  0.67310852876E-01  0.86170338598E-01  0.51100000000E-03 0.  1.
         11    1    4    4    0    0 -0.17683190136E-01 -0.24619075665E-01  0.39569400547E-01  0.49847694837E-01  0.51100000000E-03 0. -1.
</event>
<event>
 8    1  0.1090774E+005  0.1043930E+01  0.7957747E-01            NaN
         13   -1    0    0    0    0  0.00000000000E+00  0.00000000000E+00  0.74505805969E-08  0.10566000000E+00  0.10566000000E+00 0.  1.
     999900   -1    0    0    0    0 -0.00000000000E+00 -0.00000000000E+00 -0.74505805969E-08  0.93827000000E+00  0.93827000000E+00 0. -1.
     999902    2    1    2    0    0 -0.58292953607E-02  0.22810261435E-01 -0.15611577209E-02  0.10203349597E+01  0.10200621080E+01 0.  0.
     999903    2    3    3    0    0  0.54549991748E-01 -0.82899526525E-01  0.78789099282E-01  0.12832801954E+00  0.20305795593E-01 0.  0.
         14    1    1    2    0    0  0.58292953607E-02 -0.22810261435E-01  0.15611577209E-02  0.23595040254E-01  0.00000000000E+00 0.  1.
     999901    1    3    3    0    0 -0.60379287109E-01  0.10570978796E+00 -0.80350257003E-01  0.89200694021E+00  0.88000000000E+00 0. -1.
        -11    1    4    4    0    0  0.22260475451E-01 -0.42096009936E-01  0.49175738193E-01  0.68455220163E-01  0.51100000000E-03 0. -1.
         11    1    4    4    0    0  0.32289516297E-01 -0.40803516589E-01  0.29613361089E-01  0.59872799373E-01  0.51100000000E-03 0.  1.
</event>
<event>
 7    1  0.1647380E+005  0.1043930E+01  0.7957747E-01            NaN
         13   -1    0    0    0    0  0.00000000000E+00  0.00000000000E+00  0.74505805969E-08  0.10566000000E+00  0.10566000000E+00 0.  1.
     999900   -1    0    0    0    0 -0.00000000000E+00 -0.00000000000E+00 -0.74505805969E-08  0.93827000000E+00  0.93827000000E+00 0.  1.
     999903    2    1    2    0    0 -0.47390597583E-01  0.51491823811E-01  0.88398295585E-01  0.11434603556E+00  0.19065165291E-01 0.  0.
         14    1    1    2    0    0  0.36655396916E-01  0.12284561396E-01 -0.22554224042E-01  0.44757363572E-01  0.00000000000E+00 0.  1.
     999901    1    1    2    0    0  0.10735200667E-01 -0.63776385207E-01 -0.65844071543E-01  0.88482660087E+00  0.88000000000E+00 0.  1.
        -11    1    3    3    0    0 -0.26402731596E-01  0.15864139548E-01  0.43522755009E-01  0.53322288810E-01  0.51100000000E-03 0.  1.
         11    1    3    3    0    0 -0.20987865987E-01  0.35627684262E-01  0.44875540577E-01  0.61023746752E-01  0.51100000000E-03 0. -1.
</event>
<event>
 8    1  0.1090774E+005  0.1043930E+01  0.7957747E-01            NaN
         13   -1    0    0    0    0  0.00000000000E+00  0.00000000000E+00  0.74505805969E-08  0.10566000000E+00  0.10566000000E+00 0.  1.
     999900   -1    0    0    0    0 -0.00000000000E+00 -0.00000000000E+00 -0.74505805969E-08  0.93827000000E+00  0.93827000000E+00 0.  1.
     999902    2    1    2    0    0 -0.13952445804E-01  0.13669397079E-01  0.17185557455E-01  0.10179133410E+01  0.10175808092E+01 0.  0.
     999903    2    3    3    0    0  0.11652391375E+00  0.47957365399E-01  0.50271851709E-02  0.12754961129E+00  0.19128496499E-01 0.  0.
         14    1    1    2    0    0  0.13952445804E-01 -0.13669397079E-01 -0.17185557455E-01  0.26016658998E-01  0.00000000000E+00 0. -1.
     999901    1    3    3    0    0 -0.13047635955E+00 -0.34287968320E-01  0.12158372284E-01  0.89036372971E+00  0.88000000000E+00 0.  1.
        -11    1    4    4    0    0  0.63390185625E-01  0.34888865919E-01  0.76824319351E-02  0.72765578952E-01  0.51100000000E-03 0.  1.
         11    1    4    4    0    0  0.53133728121E-01  0.13068499480E-01 -0.26552467643E-02  0.54784032337E-01  0.51100000000E-03 0. -1.
</event>
<event>
 8    1  0.1090774E+005  0.1043930E+01  0.7957747E-01            NaN
         13   -1    0    0    0    0  0.00000000000E+00  0.00000000000E+00  0.74505805969E-08  0.10566000000E+00  0.10566000000E+00 0.  1.
     999900   -1    0    0    0    0 -0.00000000000E+00 -0.00000000000E+00 -0.74505805969E-08  0.93827000000E+00  0.93827000000E+00 0.  1.
     999902    2    1    2    0    0 -0.11680452756E-01 -0.12888902630E-01 -0.19581045537E-01  0.10177388921E+01  0.10174018274E+01 0.  0.
     999903    2    3    3    0    0 -0.64295020809E-01 -0.10036504506E+00  0.46137560933E-01  0.12940376195E+00  0.20240234840E-01 0.  0.
         14    1    1    2    0    0  0.11680452756E-01  0.12888902630E-01  0.19581045537E-01  0.26191107878E-01  0.00000000000E+00 0.  1.
     999901    1    3    3    0    0  0.52614568053E-01  0.87476142431E-01 -0.65718606469E-01  0.88833513017E+00  0.88000000000E+00 0.  1.
        -11    1    4    4    0    0 -0.22739835982E-01 -0.46809297931E-01  0.11584170273E-01  0.53316645011E-01  0.51100000000E-03 0.  1.
         11    1    4    4    0    0 -0.41555184827E-01 -0.53555747129E-01  0.34553390660E-01  0.76087116936E-01  0.51100000000E-03 0. -1.
</event>
<event>
 7    1  0.1325448E+005  0.1043930E+01  0.7957747E-01            NaN
         13   -1    0    0    0    0  0.00000000000E+00  0.00000000000E+00  0.74505805969E-08  0.10566000000E+00  0.10566000000E+00 0. -1.
     999900   -1    0    0    0    0 -0.00000000000E+00 -0.00000000000E+00 -0.74505805969E-08  0.93827000000E+00  0.93827000000E+00 0. -1.
     999903    2    1    2    0    0  0.41326937983E-01  0.35704333188E-03  0.71417540953E-01  0.84732072347E-01  0.19261766415E-01 0.  0.
         14    1    1    2    0    0 -0.69800138814E-01 -0.18312931058E-01 -0.28256040335E-01  0.77497268583E-01  0.00000000000E+00 0. -1.
     999901    1    1    2    0    0  0.28473200830E-01  0.17955887726E-01 -0.43161500617E-01  0.88170065907E+00  0.88000000000E+00 0. -1.
        -11    1    3    3    0    0  0.29910869140E-01  0.89994312071E-02  0.50361619358E-01  0.59263848002E-01  0.51100000000E-03 0. -1.
         11    1    3    3    0    0  0.11416068844E-01 -0.86423878753E-02  0.21055921595E-01  0.25468224344E-01  0.51100000000E-03 0.  1.
</event>
<event>
 8    1  0.1090774E+005  0.1043930E+01  0.7957747E-01            NaN
         13   -1    0    0    0    0  0.00000000000E+00  0.00000000000E+00  0.74505805969E-08  0.10566000000E+00  0.10566000000E+00 0. -1.
     999900   -1    0    0    0    0 -0.00000000000E+00 -0.00000000000E+00 -0.74505805969E-08  0.93827000000E+00  0.93827000000E+00 0.  1.
     999902    2    1    2    0    0  0.18378736985E-01  0.13796630847E-01 -0.35401075291E-02  0.10206779601E+01  0.10204130737E+01 0.  0.
     999903    2    3    3    0    0  0.86927340961E-01 -0.95904147969E-01 -0.31125707744E-02  0.13122118505E+00  0.21338770010E-01 0.  0.
         14    1    1    2    0    0 -0.18378736985E-01 -0.13796630847E-01  0.35401075291E-02  0.23252039850E-01  0.00000000000E+00 0. -1.
     999901    1    3    3    0    0 -0.68548603976E-01  0.10970077882E+00 -0.42753675473E-03  0.88945677510E+00  0.88000000000E+00 0. -1.
        -11    1    4    4    0    0  0.94350788546E-02 -0.51511928309E-02 -0.50051687289E-02  0.11868796720E-01  0.51100000000E-03 0. -1.
         11    1    4    4    0    0  0.77492262106E-01 -0.90752955138E-01  0.18925979545E-02  0.11935238833E+00  0.51100000000E-03 0.  1.
</event>
<event>
 8    1  0.1090774E+005  0.1043930E+01  0.7957747E-01            NaN
         13   -1    0    0    0    0  0.00000000000E+00  0.00000000000E+00  0.74505805969E-08  0.10566000000E+00  0.10566000000E+00 0. -1.
     999900   -1    0    0    0    0 -0.00000000000E+00 -0.00000000000E+00 -0.74505805969E-08  0.93827000000E+00  0.93827000000E+00 0. -1.
     999902    2    1    2    0    0  0.18472716073E-01 -0.13001305334E-01 -0.38719715191E-02  0.10210112884E+01  0.10207540270E+01 0.  0.
     999903    2    3    3    0    0 -0.24381007336E-02  0.12793413333E+00  0.24534890258E-02  0.12952933589E+00  0.19968536335E-01 0.  0.
         14    1    1    2    0    0 -0.18472716073E-01  0.13001305334E-01  0.38719715191E-02  0.22918711634E-01  0.00000000000E+00 0. -1.
     999901    1    3    3    0    0  0.20910816807E-01 -0.14093543866E+00 -0.63254605449E-02  0.89148195247E+00  0.88000000000E+00 0.  1.
        -11    1    4    4    0    0 -0.55038736312E-02  0.68122125825E-01  0.10325242586E-01  0.69121548068E-01  0.51100000000E-03 0. -1.
         11    1    4    4    0    0  0.30657728976E-02  0.59812007503E-01 -0.78717535602E-02  0.60407787827E-01  0.51100000000E-03 0.  1.
</event>
<event>
 8    1  0.1090774E+005  0.1043930E+01  0.7957747E-01            NaN
         13   -1    0    0    0    0  0.00000000000E+00  0.00000000000E+00  0.74505805969E-08  0.10566000000E+00  0.10566000000E+00 0. -1.
     999900   -1    0    0    0    0 -0.00000000000E+00 -0.00000000000E+00 -0.74505805969E-08  0.93827000000E+00  0.93827000000E+00 0.  1.
     999902    2    1    2    0    0 -0.46195803650E-02  0.49817724265E-02  0.22059646628E-01  0.10208478296E+01  0.10205868433E+01 0.  0.
     999903    2    3    3    0    0  0.53883077721E-01 -0.10727920315E+00  0.49368387252E-01  0.13136997440E+00  0.20214327140E-01 0.  0.
         14    1    1    2    0    0  0.46195803650E-02 -0.49817724265E-02 -0.22059646628E-01  0.23082170362E-01  0.00000000000E+00 0.  1.
     999901    1    3    3    0    0 -0.58502658086E-01  0.11226097558E+00 -0.27308740623E-01  0.88947785524E+00  0.88000000000E+00 0.  1.
        -11    1    4    4    0    0  0.46163049173E-01 -0.96430476053E-01  0.36842162980E-01  0.11308169576E+00  0.51100000000E-03 0.  1.
         11    1    4    4    0    0  0.77200285475E-02 -0.10848727095E-01  0.12526224272E-01  0.18288278647E-01  0.51100000000E-03 0. -1.
</event>
<event>
 8    1  0.1090774E+005  0.1043930E+01  0.7957747E-01            NaN
         13   -1    0    0    0    0  0.00000000000E+00  0.00000000000E+00  0.74505805969E-08  0.10566000000E+00  0.10566000000E+00 0.  1.
     999900   -1    0    0    0    0 -0.00000000000E+00 -0.00000000000E+00 -0.74505805969E-08  0.93827000000E+00  0.93827000000E+00 0. -1.
     999902    2    1    2    0    0 -0.12803397738E-01 -0.19329977963E-01  0.16791784865E-02  0.10206836093E+01  0.10204188530E+01 0.  0.
     999903    2    3    3    0    0  0.10124367363E+00  0.56544701507E-01 -0.52257568741E-01  0.12845444914E+00  0.17947347892E-01 0.  0.
         14    1    1    2    0    0  0.12803397738E-01  0.19329977963E-01 -0.16791784865E-02  0.23246390732E-01  0.00000000000E+00 0.  1.
     999901    1    3    3    0    0 -0.11404707137E+00 -0.75874679470E-01  0.53936747228E-01  0.89222916012E+00  0.88000000000E+00 0.  1.
        -11    1    4    4    0    0  0.67630032483E-01  0.28558227876E-01 -0.36239952518E-01  0.81871783616E-01  0.51100000000E-03 0. -1.
         11    1    4    4    0    0  0.33613641144E-01  0.27986473631E-01 -0.16017616224E-01  0.46582665528E-01  0.51100000000E-03 0.  1.
</event>
<event>
 8    1  0.1090774E+005  0.1043930E+01  0.7957747E-01            NaN
         13   -1    0    0    0    0  0.00000000000E+00  0.00000000000E+00  0.74505805969E-08  0.10566000000E+00  0.10566000000E+00 0. -1.
     999900   -1    0    0    0    0 -0.00000000000E+00 -0.00000000000E+00 -0.74505805969E-08  0.93827000000E+00  0.93827000000E+00 0.  1.
     999902    2    1    2    0    0  0.70872241919E-02  0.19078327016E-01 -0.10582122408E-01  0.10209911111E+01  0.10207333914E+01 0.  0.
     999903    2    3    3    0    0 -0.10919144289E+00  0.38728796618E-01  0.56420894968E-01  0.13060003203E+00  0.21221689161E-01 0.  0.
         14    1    1    2    0    0 -0.70872241919E-02 -0.19078327016E-01  0.10582122408E-01  0.22938888882E-01  0.00000000000E+00 0. -1.
     999901    1    3    3    0    0  0.11627866708E+00 -0.19650469603E-01 -0.67003017377E-01  0.89039107908E+00  0.88000000000E+00 0.  1.
        -11    1    4    4    0    0 -0.24104103830E-01  0.18226532500E-01  0.13078021674E-01  0.32931900648E-01  0.51100000000E-03 0. -1.
         11    1    4    4    0    0 -0.85087339059E-01  0.20502264118E-01  0.43342873295E-01  0.97668131387E-01  0.51100000000E-03 0.  1.
</event>
<event>
 8    1  0.1090774E+005  0.1043930E+01  0.7957747E-01            NaN
         13   -1    0    0    0    0  0.00000000000E+00  0.00000000000E+00  0.74505805969E-08  0.10566000000E+00  0.10566000000E+00 0. -1.
     999900   -1    0    0    0    0 -0.00000000000E+00 -0.00000000000E+00 -0.74505805969E-08  0.93827000000E+00  0.93827000000E+00 0. -1.
     999902    2    1    2    0    0  0.13620664310E-01  0.17559981131E-01  0.66008198985E-02  0.10207471128E+01  0.10204838177E+01 0.  0.
     999903    2    3    3    0    0  0.10999185714E-01 -0.12355470165E+00 -0.28783763243E-01  0.12879851871E+00  0.19334089313E-01 0.  0.
         14    1    1    2    0    0 -0.13620664310E-01 -0.17559981131E-01 -0.66008198985E-02  0.23182887156E-01  0.00000000000E+00 0.  1.
     999901    1    3    3    0    0  0.26214785962E-02  0.14111468278E+00  0.35384583142E-01  0.89194859413E+00  0.88000000000E+00 0. -1.
        -11    1    4    4    0    0  0.77588984498E-02 -0.76259319751E-01 -0.81256210885E-02  0.77084182509E-01  0.51100000000E-03 0. -1.
         11    1    4    4    0    0  0.32402872638E-02 -0.47295381901E-01 -0.20658142155E-01  0.51714336204E-01  0.51100000000E-03 0.  1.
</event>
<event>
 8    1  0.1090774E+005  0.1043930E+01  0.7957747E-01            NaN
         13   -1    0    0    0    0  0.00000000000E+00  0.00000000000E+00  0.74505805969E-08  0.10566000000E+00  0.10566000000E+00 0.  1.
     999900   -1    0    0    0    0 -0.00000000000E+00 -0.00000000000E+00 -0.74505805969E-08  0.93827000000E+00  0.93827000000E+00 0.  1.
     999902    2    1    2    0    0 -0.21572567537E-01  0.19813591623E-02 -0.35654008089E-02  0.10219751933E+01  0.10217393416E+01 0.  0.
     999903    2    3    3    0    0  0.86502078456E-01  0.95463533353E-01  0.10288798119E-02  0.13043711032E+00  0.20417771096E-01 0.  0.
         14    1    1    2    0    0  0.21572567537E-01 -0.19813591623E-02  0.35654008089E-02  0.21954806699E-01  0.00000000000E+00 0. -1.
     999901    1    3    3    0    0 -0.10807464599E+00 -0.93482174190E-01 -0.45942806208E-02  0.89153808298E+00  0.88000000000E+00 0. -1.
        -11    1    4    4    0    0 -0.12807390148E-03  0.53936718227E-02  0.71438631407E-03  0.54662205829E-02  0.51100000000E-03 0.  1.
         11    1    4    4    0    0  0.86630152358E-01  0.90069861530E-01  0.31449349786E-03  0.12497088973E+00  0.51100000000E-03 0. -1.
</event>
<event>
 8    1  0.1090774E+005  0.1043930E+01  0.7957747E-01            NaN
         13   -1    0    0    0    0  0.00000000000E+00  0.00000000000E+00  0.74505805969E-08  0.10566000000E+00  0.10566000000E+00 0. -1.
     999900   -1    0    0    0    0 -0.00000000000E+00 -0.00000000000E+00 -0.74505805969E-08  0.93827000000E+00  0.93827000000E+00 0.  1.
     999902    2    1    2    0    0  0.15930594882E-01 -0.18331103278E-01  0.35772160738E-03  0.10196412955E+01  0.10193519659E+01 0.  0.
     999903    2    3    3    0    0  0.66078754856E-01  0.93418266936E-01 -0.56777456319E-01  0.12932270746E+00  0.20181889829E-01 0.  0.
         14    1    1    2    0    0 -0.15930594882E-01  0.18331103278E-01 -0.35772160738E-03  0.24288704482E-01  0.00000000000E+00 0.  1.
     999901    1    3    3    0    0 -0.50148159974E-01 -0.11174937021E+00  0.57135177926E-01  0.89031858806E+00  0.88000000000E+00 0. -1.
        -11    1    4    4    0    0  0.25619797666E-01  0.32836334747E-01 -0.31458736819E-01  0.52196859631E-01  0.51100000000E-03 0. -1.
         11    1    4    4    0    0  0.40458957190E-01  0.60581932189E-01 -0.25318719499E-01  0.77125847825E-01  0.51100000000E-03 0.  1.
</event>
<event>
 8    1  0.1090774E+005  0.1043930E+01  0.7957747E-01            NaN
         13   -1    0    0    0    0  0.00000000000E+00  0.00000000000E+00  0.74505805969E-08  0.10566000000E+00  0.10566000000E+00 0. -1.
     999900   -1    0    0    0    0 -0.00000000000E+00 -0.00000000000E+00 -0.74505805969E-08  0.93827000000E+00  0.93827000000E+00 0. -1.
     999902    2    1    2    0    0  0.97813124602E-02  0.52314663877E-02 -0.20099119411E-01  0.10209731510E+01  0.10207150230E+01 0.  0.
     999903    2    3    3    0    0  0.24756157463E-01  0.11251256521E+00  0.58601159424E-01  0.13084551184E+00  0.20359455276E-01 0.  0.
         14    1    1    2    0    0 -0.97813124602E-02 -0.52314663877E-02  0.20099119411E-01  0.22956848980E-01  0.00000000000E+00 0.  1.
     999901    1    3    3    0    0 -0.14974845003E-01 -0.10728109882E+00 -0.78700278835E-01  0.89012763918E+00  0.88000000000E+00 0. -1.
        -11    1    4    4    0    0 -0.22943721674E-03  0.41033201645E-01  0.24546229643E-01  0.47817933763E-01  0.51100000000E-03 0. -1.
         11    1    4    4    0    0  0.24985594680E-01  0.71479363567E-01  0.34054929781E-01  0.83027578074E-01  0.51100000000E-03 0.  1.
</event>
<event>
 8    1  0.1090774E+005  0.1043930E+01  0.7957747E-01            NaN
         13   -1    0    0    0    0  0.00000000000E+00  0.00000000000E+00  0.74505805969E-08  0.10566000000E+00  0.10566000000E+00 0. -1.
     999900   -1    0    0    0    0 -0.00000000000E+00 -0.00000000000E+00 -0.74505805969E-08  0.93827000000E+00  0.93827000000E+00 0.  1.
     999902    2    1    2    0    0  0.94004517073E-02 -0.65661284663E-02 -0.21121197849E-01  0.10198969491E+01  0.10196137501E+01 0.  0.
     999903    2    3    3    0    0  0.12621797532E+00 -0.30175408260E-01 -0.11818516080E-01  0.13181459270E+00  0.19846333936E-01 0.  0.
         14    1    1    2    0    0 -0.94004517073E-02  0.65661284663E-02  0.21121197849E-01  0.24033050866E-01  0.00000000000E+00 0. -1.
     999901    1    3    3    0    0 -0.11681752361E+00  0.23609279794E-01 -0.93026817689E-02  0.88808235643E+00  0.88000000000E+00 0.  1.
        -11    1    4    4    0    0  0.74482266046E-01 -0.21512857474E-01 -0.16097075559E-01  0.79181992616E-01  0.51100000000E-03 0.  1.
         11    1    4    4    0    0  0.51735709270E-01 -0.86625507867E-02  0.42785594783E-02  0.52632600088E-01  0.51100000000E-03 0. -1.
</event>
<event>
 8    1  0.1090774E+005  0.1043930E+01  0.7957747E-01            NaN
         13   -1    0    0    0    0  0.00000000000E+00  0.00000000000E+00  0.74505805969E-08  0.10566000000E+00  0.10566000000E+00 0. -1.
     999900   -1    0    0    0    0 -0.00000000000E+00 -0.00000000000E+00 -0.74505805969E-08  0.93827000000E+00  0.93827000000E+00 0. -1.
     999902    2    1    2    0    0  0.20279220817E-02 -0.80531688226E-02  0.25020797990E-01  0.10175670273E+01  0.10172254660E+01 0.  0.
     999903    2    3    3    0    0 -0.58868554154E-01  0.20596536837E-01  0.11322621119E+00  0.13060063486E+00  0.18617919503E-01 0.  0.
         14    1    1    2    0    0 -0.20279220817E-02  0.80531688226E-02 -0.25020797990E-01  0.26362972672E-01  0.00000000000E+00 0.  1.
     999901    1    3    3    0    0  0.60896476235E-01 -0.28649705660E-01 -0.88205413202E-01  0.88696639247E+00  0.88000000000E+00 0.  1.
        -11    1    4    4    0    0 -0.45276879153E-01  0.14707466140E-01  0.68013137628E-01  0.83020198488E-01  0.51100000000E-03 0. -1.
         11    1    4    4    0    0 -0.13591675001E-01  0.58890706969E-02  0.45213073565E-01  0.47580436370E-01  0.51100000000E-03 0.  1.
</event>
<event>
 8    1  0.1090774E+005  0.1043930E+01  0.7957747E-01            NaN
         13   -1    0    0    0    0  0.00000000000E+00  0.00000000000E+00  0.74505805969E-08  0.10566000000E+00  0.10566000000E+00 0. -1.
     999900   -1    0    0    0    0 -0.00000000000E+00 -0.00000000000E+00 -0.74505805969E-08  0.93827000000E+00  0.93827000000E+00 0. -1.
     999902    2    1    2    0    0 -0.14946521046E-01 -0.16247720106E-01  0.54652084478E-03  0.10218463956E+01  0.10216077381E+01 0.  0.
     999903    2    3    3    0    0 -0.96974079068E-01 -0.19160316752E-01  0.87821141361E-01  0.13372823739E+00  0.19989968858E-01 0.  0.
         14    1    1    2    0    0  0.14946521046E-01  0.16247720106E-01 -0.54652084478E-03  0.22083604440E-01  0.00000000000E+00 0.  1.
     999901    1    3    3    0    0  0.82027558022E-01  0.29125966467E-02 -0.87274620517E-01  0.88811815818E+00  0.88000000000E+00 0.  1.
        -11    1    4    4    0    0 -0.83038032060E-01 -0.23356120372E-01  0.76171311116E-01  0.11507889852E+00  0.51100000000E-03 0. -1.
         11    1    4    4    0    0 -0.13936047008E-01  0.41958036200E-02  0.11649830245E-01  0.18649338861E-01  0.51100000000E-03 0.  1.
</event>
<event>
 8    1  0.1090774E+005  0.1043930E+01  0.7957747E-01            NaN
         13   -1    0    0    0    0  0.00000000000E+00  0.00000000000E+00  0.74505805969E-08  0.10566000000E+00  0.10566000000E+00 0. -1.
     999900   -1    0    0    0    0 -0.00000000000E+00 -0.00000000000E+00 -0.74505805969E-08  0.93827000000E+00  0.93827000000E+00 0. -1.
     999902    2    1    2    0    0 -0.65444609579E-02 -0.20721295337E-01  0.10085386695E-01  0.10199734336E+01  0.10196920555E+01 0.  0.
     999903    2    3    3    0    0 -0.60411337586E-01  0.35398544179E-01  0.10891358611E+00  0.13103131523E+00  0.20110934646E-01 0.  0.
         14    1    1    2    0    0  0.65444609579E-02  0.20721295337E-01 -0.10085386695E-01  0.23956566417E-01  0.00000000000E+00 0. -1.
     999901    1    3    3    0    0  0.53866876628E-01 -0.56119839516E-01 -0.98828199415E-01  0.88894211835E+00  0.88000000000E+00 0. -1.
        -11    1    4    4    0    0 -0.14821506921E-02  0.43408760385E-02  0.16354659264E-01  0.16993409784E-01  0.51100000000E-03 0.  1.
         11    1    4    4    0    0 -0.58929186893E-01  0.31057668141E-01  0.92558926846E-01  0.11403790544E+00  0.51100000000E-03 0. -1.
</event>
<event>
 8    1  0.1090774E+005  0.1043930E+01  0.7957747E-01            NaN
         13   -1    0    0    0    0  0.00000000000E+00  0.00000000000E+00  0.74505805969E-08  0.10566000000E+00  0.10566000000E+00 0.  1.
     999900   -1    0    0    0    0 -0.00000000000E+00 -0.00000000000E+00 -0.74505805969E-08  0.93827000000E+00  0.93827000000E+00 0.  1.
     999902    2    1    2    0    0  0.68943128176E-02  0.47056965059E-02 -0.22266847463E-01  0.10201500163E+01  0.10198728196E+01 0.  0.
     999903    2    3    3    0    0  0.12372166810E-01  0.11361596821E+00  0.58111714865E-01  0.12978370548E+00  0.20129084917E-01 0.  0.
         14    1    1    2    0    0 -0.68943128176E-02 -0.47056965059E-02  0.22266847463E-01  0.23779983700E-01  0.00000000000E+00 0.  1.
     999901    1    3    3    0    0 -0.54778539919E-02 -0.10891027170E+00 -0.80378562328E-01  0.89036631082E+00  0.88000000000E+00 0.  1.
        -11    1    4    4    0    0 -0.36579711412E-02  0.42565249968E-01  0.15834959251E-01  0.45565209460E-01  0.51100000000E-03 0.  1.
         11    1    4    4    0    0  0.16030137951E-01  0.71050718239E-01  0.42276755615E-01  0.84218496017E-01  0.51100000000E-03 0. -1.
</event>
<event>
 8    1  0.1090774E+005  0.1043930E+01  0.7957747E-01            NaN
         13   -1    0    0    0    0  0.00000000000E+00  0.00000000000E+00  0.74505805969E-08  0.10566000000E+00  0.10566000000E+00 0.  1.
     999900   -1    0    0    0    0 -0.00000000000E+00 -0.00000000000E+00 -0.74505805969E-08  0.93827000000E+00  0.93827000000E+00 0.  1.
     999902    2    1    2    0    0 -0.75020634382E-02 -0.21021172267E-01  0.48477694324E-02  0.10210898707E+01  0.10208343903E+01 0.  0.
     999903    2    3    3    0    0 -0.95001711780E-01  0.25327302319E-01 -0.84274646103E-01  0.13106336853E+00  0.20213686243E-01 0.  0.
         14    1    1    2    0    0  0.75020634382E-02  0.21021172267E-01 -0.48477694324E-02  0.22840129329E-01  0.00000000000E+00 0. -1.
     999901    1    3    3    0    0  0.87499648342E-01 -0.46348474586E-01  0.89122415535E-01  0.89002650214E+00  0.88000000000E+00 0. -1.
        -11    1    4    4    0    0 -0.50298264717E-01  0.31811035850E-02 -0.39672914650E-01  0.64142311553E-01  0.51100000000E-03 0.  1.
         11    1    4    4    0    0 -0.44703447063E-01  0.22146198734E-01 -0.44601731453E-01  0.66921056980E-01  0.51100000000E-03 0. -1.
</event>
<event>
 8    1  0.1090774E+005  0.1043930E+01  0.7957747E-01            NaN
         13   -1    0    0    0    0  0.00000000000E+00  0.00000000000E+00  0.74505805969E-08  0.10566000000E+00  0.10566000000E+00 0. -1.
     999900   -1    0    0    0    0 -0.00000000000E+00 -0.00000000000E+00 -0.74505805969E-08  0.93827000000E+00  0.93827000000E+00 0. -1.
     999902    2    1    2    0    0  0.89231074567E-02  0.74704304679E-02 -0.11600006510E-01  0.10274986480E+01  0.10273672577E+01 0.  0.
     999903    2    3    3    0    0  0.12413694869E+00 -0.48344998824E-01 -0.30271118625E-01  0.13803914818E+00  0.19779910689E-01 0.  0.
         14    1    1    2    0    0 -0.89231074567E-02 -0.74704304679E-02  0.11600006510E-01  0.16431352017E-01  0.00000000000E+00 0. -1.
     999901    1    3    3    0    0 -0.11521384123E+00  0.55815429292E-01  0.18671112114E-01  0.88945949980E+00  0.88000000000E+00 0.  1.
        -11    1    4    4    0    0  0.57728483619E-01 -0.22453229258E-01 -0.39990255990E-02  0.62072366249E-01  0.51100000000E-03 0. -1.
         11    1    4    4    0    0  0.66408465071E-01 -0.25891769565E-01 -0.26272093026E-01  0.75966781933E-01  0.51100000000E-03 0.  1.
</event>
<event>
 8    1  0.1132552E+005  0.1043930E+01  0.7957747E-01            NaN
         13   -1    0    0    0    0  0.00000000000E+00  0.00000000000E+00  0.74505805969E-08  0.10566000000E+00  0.10566000000E+00 0. -1.
     999900   -1    0    0    0    0 -0.00000000000E+00 -0.00000000000E+00 -0.74505805969E-08  0.93827000000E+00  0.93827000000E+00 0. -1.
     999902    2    1    2    0    0  0.17587002844E-01 -0.54148717734E-02 -0.15563749883E-01  0.10198290910E+01  0.10195442712E+01 0.  0.
     999903    2    3    3    0    0  0.23069474878E-01 -0.47790476310E-02  0.12308729529E+00  0.12895616283E+00  0.30400159590E-01 0.  0.
         14    1    1    2    0    0 -0.17587002844E-01  0.54148717734E-02  0.15563749883E-01  0.24100909023E-01  0.00000000000E+00 0. -1.
     999901    1    3    3    0    0 -0.54824720340E-02 -0.63582414243E-03 -0.13865104517E+00  0.89087292814E+00  0.88000000000E+00 0. -1.
        -11    1    4    4    0    0  0.12760607560E-01  0.11646944828E-01  0.77655974170E-01  0.79556243466E-01  0.51100000000E-03 0. -1.
         11    1    4    4    0    0  0.10308867318E-01 -0.16425992459E-01  0.45431321121E-01  0.49399919367E-01  0.51100000000E-03 0.  1.
</event>
<event>
 8    1  0.1090774E+005  0.1043930E+01  0.7957747E-01            NaN
         13   -1    0    0    0    0  0.00000000000E+00  0.00000000000E+00  0.74505805969E-08  0.10566000000E+00  0.10566000000E+00 0.  1.
     999900   -1    0    0    0    0 -0.00000000000E+00 -0.00000000000E+00 -0.74505805969E-08  0.93827000000E+00  0.93827000000E+00 0.  1.
     999902    2    1    2    0    0 -0.19233649322E-01 -0.66637199375E-02  0.10688435437E-01  0.10209391087E+01  0.10206802059E+01 0.  0.
     999903    2    3    3    0    0 -0.68091846536E-01 -0.11236084478E+00 -0.72496742074E-02  0.13308732976E+00  0.19955464418E-01 0.  0.
         14    1    1    2    0    0  0.19233649322E-01  0.66637199375E-02 -0.10688435437E-01  0.22990891277E-01  0.00000000000E+00 0.  1.
     999901    1    3    3    0    0  0.48858197214E-01  0.10569712485E+00  0.17938109644E-01  0.88785177897E+00  0.88000000000E+00 0.  1.
        -11    1    4    4    0    0 -0.24585260763E-01 -0.55965741902E-01 -0.92783717869E-02  0.61829997715E-01  0.51100000000E-03 0. -1.
         11    1    4    4    0    0 -0.43506585773E-01 -0.56395102883E-01  0.20286975795E-02  0.71257332041E-01  0.51100000000E-03 0.  1.
</event>
<event>
 8    1  0.1090774E+005  0.1043930E+01  0.7957747E-01            NaN
         13   -1    0    0    0    0  0.00000000000E+00  0.00000000000E+00  0.74505805969E-08  0.10566000000E+00  0.10566000000E+00 0.  1.
     999900   -1    0    0    0    0 -0.00000000000E+00 -0.00000000000E+00 -0.74505805969E-08  0.93827000000E+00  0.93827000000E+00 0. -1.
     999902    2    1    2    0    0 -0.75405608202E-02  0.20527750574E-01  0.22589424645E-03  0.10220599376E+01  0.10218259228E+01 0.  0.
     999903    2    3    3    0    0 -0.90362036545E-01  0.39069431013E-01 -0.87633850529E-01  0.13362168679E+00  0.21985116183E-01 0.  0.
         14    1    1    2    0    0  0.75405608202E-02 -0.20527750574E-01 -0.22589424645E-03  0.21870062399E-01  0.00000000000E+00 0. -1.
     999901    1    3    3    0    0  0.82821475724E-01 -0.18541680439E-01  0.87859744775E-01  0.88843825081E+00  0.88000000000E+00 0.  1.
        -11    1    4    4    0    0 -0.16381009810E-01  0.83460082101E-02 -0.29029499671E-01  0.34365190347E-01  0.51100000000E-03 0. -1.
         11    1    4    4    0    0 -0.73981026734E-01  0.30723422803E-01 -0.58604350858E-01  0.99256496442E-01  0.51100000000E-03 0.  1.
</event>
<event>
 8    1  0.1090774E+005  0.1043930E+01  0.7957747E-01            NaN
         13   -1    0    0    0    0  0.00000000000E+00  0.00000000000E+00  0.74505805969E-08  0.10566000000E+00  0.10566000000E+00 0. -1.
     999900   -1    0    0    0    0 -0.00000000000E+00 -0.00000000000E+00 -0.74505805969E-08  0.93827000000E+00  0.93827000000E+00 0. -1.
     999902    2    1    2    0    0  0.15950696727E-01  0.11501893782E-02 -0.16763813257E-01  0.10207616359E+01  0.10204986743E+01 0.  0.
     999903    2    3    3    0    0  0.11928656330E+00 -0.33553421055E-01  0.41019549853E-01  0.13215510936E+00  0.20670104276E-01 0.  0.
         14    1    1    2    0    0 -0.15950696727E-01 -0.11501893782E-02  0.16763813257E-01  0.23168364133E-01  0.00000000000E+00 0. -1.
     999901    1    3    3    0    0 -0.10333586658E+00  0.34703610433E-01 -0.57783363110E-01  0.88860652651E+00  0.88000000000E+00 0. -1.
        -11    1    4    4    0    0  0.89348149971E-01 -0.26264623114E-01  0.21192497611E-01  0.95510760685E-01  0.51100000000E-03 0.  1.
         11    1    4    4    0    0  0.29938413331E-01 -0.72887979402E-02  0.19827052242E-01  0.36644348675E-01  0.51100000000E-03 0. -1.
</event>
<event>
 8    1  0.1098430E+005  0.1043930E+01  0.7957747E-01            NaN
         13   -1    0    0    0    0  0.00000000000E+00  0.00000000000E+00  0.74505805969E-08  0.10566000000E+00  0.10566000000E+00 0. -1.
     999900   -1    0    0    0    0 -0.00000000000E+00 -0.00000000000E+00 -0.74505805969E-08  0.93827000000E+00  0.93827000000E+00 0.  1.
     999902    2    1    2    0    0 -0.25037750949E-02  0.21287893707E-01  0.99755090950E-02  0.10202877901E+01  0.10200138335E+01 0.  0.
     999903    2    3    3    0    0 -0.10381795772E+00  0.65720427372E-01 -0.44052439204E-01  0.13171712162E+00  0.17647657335E-01 0.  0.
         14    1    1    2    0    0  0.25037750949E-02 -0.21287893707E-01 -0.99755090950E-02  0.23642209920E-01  0.00000000000E+00 0.  1.
     999901    1    3    3    0    0  0.10131418262E+00 -0.44432533665E-01  0.54027948299E-01  0.88857066846E+00  0.88000000000E+00 0. -1.
        -11    1    4    4    0    0 -0.42766110159E-01  0.37438413276E-01 -0.20776861773E-01  0.60518708454E-01  0.51100000000E-03 0.  1.
         11    1    4    4    0    0 -0.61051847559E-01  0.28282014095E-01 -0.23275577431E-01  0.71198413167E-01  0.51100000000E-03 0. -1.
</event>
<event>
 8    1  0.1090774E+005  0.1043930E+01  0.7957747E-01            NaN
         13   -1    0    0    0    0  0.00000000000E+00  0.00000000000E+00  0.74505805969E-08  0.10566000000E+00  0.10566000000E+00 0.  1.
     999900   -1    0    0    0    0 -0.00000000000E+00 -0.00000000000E+00 -0.74505805969E-08  0.93827000000E+00  0.93827000000E+00 0. -1.
     999902    2    1    2    0    0 -0.19071598905E-01 -0.86518480973E-02 -0.10850635469E-01  0.10203436342E+01  0.10200709854E+01 0.  0.
     999903    2    3    3    0    0 -0.72822529844E-01  0.74262045895E-01  0.76358583588E-01  0.13052942649E+00  0.19731334981E-01 0.  0.
         14    1    1    2    0    0  0.19071598905E-01  0.86518480973E-02  0.10850635469E-01  0.23586365773E-01  0.00000000000E+00 0.  1.
     999901    1    3    3    0    0  0.53750930939E-01 -0.82913893992E-01 -0.87209219057E-01  0.88981420773E+00  0.88000000000E+00 0.  1.
        -11    1    4    4    0    0 -0.37255312036E-01  0.51462649741E-01  0.43369958863E-01  0.76925789213E-01  0.51100000000E-03 0.  1.
         11    1    4    4    0    0 -0.35567217808E-01  0.22799396154E-01  0.32988624725E-01  0.53603637282E-01  0.51100000000E-03 0. -1.
</event>
<event>
 8    1  0.1090774E+005  0.1043930E+01  0.7957747E-01            NaN
         13   -1    0    0    0    0  0.00000000000E+00  0.00000000000E+00  0.74505805969E-08  0.10566000000E+00  0.10566000000E+00 0. -1.
     999900   -1    0    0    0    0 -0.00000000000E+00 -0.00000000000E+00 -0.74505805969E-08  0.93827000000E+00  0.93827000000E+00 0. -1.
     999902    2    1    2    0    0 -0.19925796581E-01  0.36514005717E-02  0.13566095225E-01  0.10195494948E+01  0.10192579474E+01 0.  0.
     999903    2    3    3    0    0 -0.53692580336E-02  0.51164056802E-02  0.13007381186E+00  0.13174991880E+00  0.19591784893E-01 0.  0.
         14    1    1    2    0    0  0.19925796581E-01 -0.36514005717E-02 -0.13566095225E-01  0.24380505228E-01  0.00000000000E+00 0.  1.
     999901    1    3    3    0    0 -0.14556538547E-01 -0.14650051086E-02 -0.11650771663E+00  0.88779957597E+00  0.88000000000E+00 0. -1.
        -11    1    4    4    0    0  0.32354334534E-02  0.97405204605E-02  0.47512772034E-01  0.48611422483E-01  0.51100000000E-03 0. -1.
         11    1    4    4    0    0 -0.86046914870E-02 -0.46241147802E-02  0.82561039822E-01  0.83138496321E-01  0.51100000000E-03 0.  1.
</event>
<event>
 8    1  0.1090774E+005  0.1043930E+01  0.7957747E-01            NaN
         13   -1    0    0    0    0  0.00000000000E+00  0.00000000000E+00  0.74505805969E-08  0.10566000000E+00  0.10566000000E+00 0. -1.
     999900   -1    0    0    0    0 -0.00000000000E+00 -0.00000000000E+00 -0.74505805969E-08  0.93827000000E+00  0.93827000000E+00 0.  1.
     999902    2    1    2    0    0  0.19250844983E-01 -0.12807445399E-01 -0.39295036055E-02  0.10204764994E+01  0.10202069492E+01 0.  0.
     999903    2    3    3    0    0  0.79742273866E-01  0.10178778966E+00 -0.77856098704E-02  0.13097880387E+00  0.19371292595E-01 0.  0.
         14    1    1    2    0    0 -0.19250844983E-01  0.12807445399E-01  0.39295036055E-02  0.23453500566E-01  0.00000000000E+00 0.  1.
     999901    1    3    3    0    0 -0.60491428883E-01 -0.11459523505E+00  0.38561062649E-02  0.88949769557E+00  0.88000000000E+00 0. -1.
        -11    1    4    4    0    0  0.37434350775E-01  0.61948770693E-01 -0.83362011985E-02  0.72861060792E-01  0.51100000000E-03 0. -1.
         11    1    4    4    0    0  0.42307923091E-01  0.39839018963E-01  0.55059132807E-03  0.58117743074E-01  0.51100000000E-03 0.  1.
</event>
<event>
 8    1  0.1090774E+005  0.1043930E+01  0.7957747E-01            NaN
         13   -1    0    0    0    0  0.00000000000E+00  0.00000000000E+00  0.74505805969E-08  0.10566000000E+00  0.10566000000E+00 0. -1.
     999900   -1    0    0    0    0 -0.00000000000E+00 -0.00000000000E+00 -0.74505805969E-08  0.93827000000E+00  0.93827000000E+00 0. -1.
     999902    2    1    2    0    0 -0.10078321859E-01 -0.20605524817E-01  0.52490202571E-02  0.10203989049E+01  0.10201275472E+01 0.  0.
     999903    2    3    3    0    0 -0.23262823319E-01  0.65029401214E-01 -0.10719738277E+00  0.12902279727E+00  0.19637244534E-01 0.  0.
         14    1    1    2    0    0  0.10078321859E-01  0.20605524817E-01 -0.52490202571E-02  0.23531095133E-01  0.00000000000E+00 0. -1.
     999901    1    3    3    0    0  0.13184501460E-01 -0.85634926031E-01  0.11244640303E+00  0.89137610759E+00  0.88000000000E+00 0. -1.
        -11    1    4    4    0    0 -0.14038300098E-01  0.28975884732E-01 -0.33537517488E-01  0.46494106786E-01  0.51100000000E-03 0. -1.
         11    1    4    4    0    0 -0.92245232218E-02  0.36053516482E-01 -0.73659865281E-01  0.82528690488E-01  0.51100000000E-03 0.  1.
</event>
<event>
 8    1  0.1090774E+005  0.1043930E+01  0.7957747E-01            NaN
         13   -1    0    0    0    0  0.00000000000E+00  0.00000000000E+00  0.74505805969E-08  0.10566000000E+00  0.10566000000E+00 0.  1.
     999900   -1    0    0    0    0 -0.00000000000E+00 -0.00000000000E+00 -0.74505805969E-08  0.93827000000E+00  0.93827000000E+00 0.  1.
     999902    2    1    2    0    0  0.14350339252E-01  0.11099679582E-01  0.16154342998E-01  0.10196380688E+01  0.10193486614E+01 0.  0.
     999903    2    3    3    0    0 -0.83914613926E-01 -0.22678774051E-01  0.94091021847E-01  0.13010385875E+00  0.22757514054E-01 0.  0.
         14    1    1    2    0    0 -0.14350339252E-01 -0.11099679582E-01 -0.16154342998E-01  0.24291931195E-01  0.00000000000E+00 0. -1.
     999901    1    3    3    0    0  0.98264953178E-01  0.33778453633E-01 -0.77936678849E-01  0.88953421006E+00  0.88000000000E+00 0.  1.
        -11    1    4    4    0    0 -0.52764359874E-01 -0.57434014578E-02  0.67014102338E-01  0.85488100730E-01  0.51100000000E-03 0. -1.
         11    1    4    4    0    0 -0.31150254053E-01 -0.16935372593E-01  0.27076919509E-01  0.44615758018E-01  0.51100000000E-03 0.  1.
</event>
<event>
 8    1  0.1090774E+005  0.1043930E+01  0.7957747E-01            NaN
         13   -1    0    0    0    0  0.00000000000E+00  0.00000000000E+00  0.74505805969E-08  0.10566000000E+00  0.10566000000E+00 0. -1.
     999900   -1    0    0    0    0 -0.00000000000E+00 -0.00000000000E+00 -0.74505805969E-08  0.93827000000E+00  0.93827000000E+00 0. -1.
     999902    2    1    2    0    0  0.13759469282E-01 -0.19183349768E-01 -0.15613952286E-02  0.10202707131E+01  0.10199963559E+01 0.  0.
     999903    2    3    3    0    0 -0.65559214515E-01 -0.44093791974E-01 -0.10202484665E+00  0.13066131068E+00  0.20519153906E-01 0.  0.
         14    1    1    2    0    0 -0.13759469282E-01  0.19183349768E-01  0.15613952286E-02  0.23659286936E-01  0.00000000000E+00 0. -1.
     999901    1    3    3    0    0  0.79318683798E-01  0.24910442206E-01  0.10046345142E+00  0.88960940238E+00  0.88000000000E+00 0.  1.
        -11    1    4    4    0    0 -0.40304453770E-01 -0.18103054169E-01 -0.67008400207E-01  0.80265536709E-01  0.51100000000E-03 0. -1.
         11    1    4    4    0    0 -0.25254760745E-01 -0.25990737805E-01 -0.35016446445E-01  0.50395773975E-01  0.51100000000E-03 0.  1.
</event>
<event>
 8    1  0.1377389E+005  0.1043930E+01  0.7957747E-01            NaN
         13   -1    0    0    0    0  0.00000000000E+00  0.00000000000E+00  0.74505805969E-08  0.10566000000E+00  0.10566000000E+00 0. -1.
     999900   -1    0    0    0    0 -0.00000000000E+00 -0.00000000000E+00 -0.74505805969E-08  0.93827000000E+00  0.93827000000E+00 0. -1.
     999902    2    1    2    0    0  0.93149106631E-02 -0.29665313001E-02  0.21783624918E-01  0.10200533549E+01  0.10197738733E+01 0.  0.
     999903    2    3    3    0    0 -0.93204379615E-02  0.81462146693E-01  0.10168450302E+00  0.13221348855E+00  0.20438113708E-01 0.  0.
         14    1    1    2    0    0 -0.93149106631E-02  0.29665313001E-02 -0.21783624918E-01  0.23876645141E-01  0.00000000000E+00 0.  1.
     999901    1    3    3    0    0  0.18635348625E-01 -0.84428677993E-01 -0.79900878104E-01  0.88783986631E+00  0.88000000000E+00 0. -1.
        -11    1    4    4    0    0  0.32960224076E-02  0.47152899251E-01  0.48977891047E-01  0.68068749099E-01  0.51100000000E-03 0. -1.
         11    1    4    4    0    0 -0.12616460369E-01  0.34309247442E-01  0.52706611975E-01  0.64144739450E-01  0.51100000000E-03 0.  1.
</event>
<event>
 8    1  0.1090774E+005  0.1043930E+01  0.7957747E-01            NaN
         13   -1    0    0    0    0  0.00000000000E+00  0.00000000000E+00  0.74505805969E-08  0.10566000000E+00  0.10566000000E+00 0.  1.
     999900   -1    0    0    0    0 -0.00000000000E+00 -0.00000000000E+00 -0.74505805969E-08  0.93827000000E+00  0.93827000000E+00 0.  1.
     999902    2    1    2    0    0  0.24872524636E-01 -0.21888201466E-02  0.15663549516E-02  0.10189122686E+01  0.10186050875E+01 0.  0.
     999903    2    3    3    0    0 -0.64183631127E-01 -0.24735080147E-01 -0.10577572526E+00  0.12764258166E+00  0.19307042867E-01 0.  0.
         14    1    1    2    0    0 -0.24872524636E-01  0.21888201466E-02 -0.15663549516E-02  0.25017731376E-01  0.00000000000E+00 0.  1.
     999901    1    3    3    0    0  0.89056155762E-01  0.22546260000E-01  0.10734208021E+00  0.89126968697E+00  0.88000000000E+00 0. -1.
        -11    1    4    4    0    0 -0.61112708563E-01 -0.17735403676E-01 -0.91704883246E-01  0.11162147833E+00  0.51100000000E-03 0.  1.
         11    1    4    4    0    0 -0.30709225633E-02 -0.69996764709E-02 -0.14070842012E-01  0.16021103333E-01  0.51100000000E-03 0. -1.
</event>
<event>
 8    1  0.1090774E+005  0.1043930E+01  0.7957747E-01            NaN
         13   -1    0    0    0    0  0.00000000000E+00  0.00000000000E+00  0.74505805969E-08  0.10566000000E+00  0.10566000000E+00 0. -1.
     999900   -1    0    0    0    0 -0.00000000000E+00 -0.00000000000E+00 -0.74505805969E-08  0.93827000000E+00  0.93827000000E+00 0. -1.
     999902    2    1    2    0    0  0.30858555408E-02 -0.16407105474E-01  0.17354822358E-01  0.10198487734E+01  0.10195644242E+01 0.  0.
     999903    2    3    3    0    0 -0.58652499114E-01 -0.11039863065E+00 -0.34118170846E-01  0.13120064268E+00  0.20532553593E-01 0.  0.
         14    1    1    2    0    0 -0.30858555408E-02  0.16407105474E-01 -0.17354822358E-01  0.24081226579E-01  0.00000000000E+00 0.  1.
     999901    1    3    3    0    0  0.61738354655E-01  0.93991525171E-01  0.51472993204E-01  0.88864813074E+00  0.88000000000E+00 0.  1.
        -11    1    4    4    0    0 -0.21987064702E-01 -0.50418063557E-01 -0.24605319276E-01  0.60258567895E-01  0.51100000000E-03 0.  1.
         11    1    4    4    0    0 -0.36665434412E-01 -0.59980567088E-01 -0.95128515705E-02  0.70942074785E-01  0.51100000000E-03 0. -1.
</event>
<event>
 8    1  0.1090774E+005  0.1043930E+01  0.7957747E-01            NaN
         13   -1    0    0    0    0  0.00000000000E+00  0.00000000000E+00  0.74505805969E-08  0.10566000000E+00  0.10566000000E+00 0.  1.
     999900   -1    0    0    0    0 -0.00000000000E+00 -0.00000000000E+00 -0.74505805969E-08  0.93827000000E+00  0.93827000000E+00 0.  1.
     999902    2    1    2    0    0 -0.15402070390E-01  0.27372395753E-02  0.17839304516E-01  0.10202032843E+01  0.10199273426E+01 0.  0.
     999903    2    3    3    0    0  0.11544640811E+00  0.18123208479E-02  0.55323165717E-01  0.12973867542E+00  0.20983650336E-01 0.  0.
         14    1    1    2    0    0  0.15402070390E-01 -0.27372395753E-02 -0.17839304516E-01  0.23726715710E-01  0.00000000000E+00 0. -1.
     999901    1    3    3    0    0 -0.13084847850E+00  0.92491872740E-03 -0.37483861201E-01  0.89046460887E+00  0.88000000000E+00 0. -1.
        -11    1    4    4    0    0  0.82531583093E-01  0.10771880310E-01  0.38855473571E-01  0.91855890180E-01  0.51100000000E-03 0. -1.
         11    1    4    4    0    0  0.32914825020E-01 -0.89595594624E-02  0.16467692146E-01  0.37882785239E-01  0.51100000000E-03 0.  1.
</event>
<event>
 8    1  0.1090774E+005  0.1043930E+01  0.7957747E-01            NaN
         13   -1    0    0    0    0  0.00000000000E+00  0.00000000000E+00  0.74505805969E-08  0.10566000000E+00  0.10566000000E+00 0. -1.
     999900   -1    0    0    0    0 -0.00000000000E+00 -0.00000000000E+00 -0.74505805969E-08  0.93827000000E+00  0.93827000000E+00 0. -1.
     999902    2    1    2    0    0 -0.20062907453E-01 -0.22834701714E-02  0.20962896758E-01  0.10148236857E+01  0.10144061985E+01 0.  0.
     999903    2    3    3    0    0  0.69867419946E-01 -0.99223067714E-01 -0.17080199321E-01  0.12413180491E+00  0.19755967300E-01 0.  0.
         14    1    1    2    0    0  0.20062907453E-01  0.22834701714E-02 -0.20962896758E-01  0.29106314297E-01  0.00000000000E+00 0.  1.
     999901    1    3    3    0    0 -0.89930327399E-01  0.96939597542E-01  0.38043096079E-01  0.89069188080E+00  0.88000000000E+00 0.  1.
        -11    1    4    4    0    0  0.53980609511E-01 -0.61371067423E-01 -0.83529339736E-02  0.82160493832E-01  0.51100000000E-03 0.  1.
         11    1    4    4    0    0  0.15886810435E-01 -0.37852000291E-01 -0.87272653474E-02  0.41971311074E-01  0.51100000000E-03 0. -1.
</event>
<event>
 8    1  0.1090774E+005  0.1043930E+01  0.7957747E-01            NaN
         13   -1    0    0    0    0  0.00000000000E+00  0.00000000000E+00  0.74505805969E-08  0.10566000000E+00  0.10566000000E+00 0. -1.
     999900   -1    0    0    0    0 -0.00000000000E+00 -0.00000000000E+00 -0.74505805969E-08  0.93827000000E+00  0.93827000000E+00 0. -1.
     999902    2    1    2    0    0 -0.77896233596E-04  0.12899286317E-01 -0.13980656986E-01  0.10249074758E+01  0.10247309294E+01 0.  0.
     999903    2    3    3    0    0 -0.13893155006E-01 -0.30789000277E-01  0.12667464086E+00  0.13256032335E+00  0.19616125926E-01 0.  0.
         14    1    1    2    0    0  0.77896233596E-04 -0.12899286317E-01  0.13980656986E-01  0.19022524151E-01  0.00000000000E+00 0. -1.
     999901    1    3    3    0    0  0.13815258772E-01  0.43688286593E-01 -0.14065529784E+00  0.89234715250E+00  0.88000000000E+00 0. -1.
        -11    1    4    4    0    0 -0.21137879549E-02 -0.25068197677E-01  0.69845990635E-01  0.74240192370E-01  0.51100000000E-03 0.  1.
         11    1    4    4    0    0 -0.11779367051E-01 -0.57208025994E-02  0.56828650223E-01  0.58320130981E-01  0.51100000000E-03 0. -1.
</event>
<event>
 8    1  0.1090774E+005  0.1043930E+01  0.7957747E-01            NaN
         13   -1    0    0    0    0  0.00000000000E+00  0.00000000000E+00  0.74505805969E-08  0.10566000000E+00  0.10566000000E+00 0. -1.
     999900   -1    0    0    0    0 -0.00000000000E+00 -0.00000000000E+00 -0.74505805969E-08  0.93827000000E+00  0.93827000000E+00 0.  1.
     999902    2    1    2    0    0 -0.21572539857E-01 -0.63375504639E-02 -0.63797235814E-02  0.10205582244E+01  0.10202905711E+01 0.  0.
     999903    2    3    3    0    0  0.11257480930E+00 -0.48570931566E-01 -0.34460232554E-01  0.12894862107E+00  0.20199410056E-01 0.  0.
         14    1    1    2    0    0  0.21572539857E-01  0.63375504639E-02  0.63797235814E-02  0.23371775601E-01  0.00000000000E+00 0. -1.
     999901    1    3    3    0    0 -0.13414734915E+00  0.42233381102E-01  0.28080508972E-01  0.89160960333E+00  0.88000000000E+00 0. -1.
        -11    1    4    4    0    0  0.74431250567E-01 -0.35038206904E-01 -0.32406865888E-01  0.88420320525E-01  0.51100000000E-03 0. -1.
         11    1    4    4    0    0  0.38143558730E-01 -0.13532724661E-01 -0.20533666653E-02  0.40528300545E-01  0.51100000000E-03 0.  1.
</event>
<event>
 8    1  0.1090774E+005  0.1043930E+01  0.7957747E-01            NaN
         13   -1    0    0    0    0  0.00000000000E+00  0.00000000000E+00  0.74505805969E-08  0.10566000000E+00  0.10566000000E+00 0. -1.
     999900   -1    0    0    0    0 -0.00000000000E+00 -0.00000000000E+00 -0.74505805969E-08  0.93827000000E+00  0.93827000000E+00 0. -1.
     999902    2    1    2    0    0 -0.64893833855E-02 -0.22646070379E-01 -0.50422897510E-02  0.10198388961E+01  0.10195543108E+01 0.  0.
     999903    2    3    3    0    0  0.67799635494E-01 -0.32032371350E-01 -0.10550879644E+00  0.13096293180E+00  0.19907787212E-01 0.  0.
         14    1    1    2    0    0  0.64893833855E-02  0.22646070379E-01  0.50422897510E-02  0.24091103882E-01  0.00000000000E+00 0.  1.
     999901    1    3    3    0    0 -0.74289018879E-01  0.93863009707E-02  0.10046650669E+00  0.88887596432E+00  0.88000000000E+00 0.  1.
        -11    1    4    4    0    0  0.27055220851E-01 -0.17100554636E-01 -0.60460128669E-01  0.68411272638E-01  0.51100000000E-03 0. -1.
         11    1    4    4    0    0  0.40744414642E-01 -0.14931816713E-01 -0.45048667774E-01  0.62551659164E-01  0.51100000000E-03 0.  1.
</event>
<event>
 8    1  0.1090774E+005  0.1043930E+01  0.7957747E-01            NaN
         13   -1    0    0    0    0  0.00000000000E+00  0.00000000000E+00  0.74505805969E-08  0.10566000000E+00  0.10566000000E+00 0. -1.
     999900   -1    0    0    0    0 -0.00000000000E+00 -0.00000000000E+00 -0.74505805969E-08  0.93827000000E+00  0.93827000000E+00 0.  1.
     999902    2    1    2    0    0 -0.44291764769E-02  0.24120939818E-01  0.15161839363E-02  0.10193589570E+01  0.10190627787E+01 0.  0.
     999903    2    3    3    0    0  0.11795280923E+00  0.45085866716E-01  0.25335718464E-01  0.13032338467E+00  0.19916962103E-01 0.  0.
         14    1    1    2    0    0  0.44291764769E-02 -0.24120939818E-01 -0.15161839363E-02  0.24571043032E-01  0.00000000000E+00 0. -1.
     999901    1    3    3    0    0 -0.12238198571E+00 -0.20964926898E-01 -0.23819534528E-01  0.88903557230E+00  0.88000000000E+00 0. -1.
        -11    1    4    4    0    0  0.39290727849E-01  0.17605412421E-01 -0.57665727146E-03  0.43061647623E-01  0.51100000000E-03 0. -1.
         11    1    4    4    0    0  0.78662081379E-01  0.27480454295E-01  0.25912375736E-01  0.87261737047E-01  0.51100000000E-03 0.  1.
</event>
<event>
 7    1  0.1090774E+005  0.1043930E+01  0.7957747E-01            NaN
         13   -1    0    0    0    0  0.00000000000E+00  0.00000000000E+00  0.74505805969E-08  0.10566000000E+00  0.10566000000E+00 0.  1.
     999900   -1    0    0    0    0 -0.00000000000E+00 -0.00000000000E+00 -0.74505805969E-08  0.93827000000E+00  0.93827000000E+00 0.  1.
     999903    2    1    2    0    0 -0.95528124998E-01  0.35891929396E-01  0.14375242254E-01  0.10493360338E+00  0.19762597683E-01 0.  0.
         14    1    1    2    0    0 -0.36696784048E-01  0.28308290850E-01 -0.62663611993E-02  0.46768371502E-01  0.00000000000E+00 0.  1.
     999901    1    1    2    0    0  0.13222490905E+00 -0.64200220246E-01 -0.81088810549E-02  0.89222802512E+00  0.88000000000E+00 0.  1.
        -11    1    3    3    0    0 -0.39092383206E-01  0.17673036914E-01 -0.33508341639E-02  0.43035332798E-01  0.51100000000E-03 0. -1.
         11    1    3    3    0    0 -0.56435741792E-01  0.18218892482E-01  0.17726076418E-01  0.61898270582E-01  0.51100000000E-03 0.  1.
</event>
<event>
 8    1  0.1090774E+005  0.1043930E+01  0.7957747E-01            NaN
         13   -1    0    0    0    0  0.00000000000E+00  0.00000000000E+00  0.74505805969E-08  0.10566000000E+00  0.10566000000E+00 0.  1.
     999900   -1    0    0    0    0 -0.00000000000E+00 -0.00000000000E+00 -0.74505805969E-08  0.93827000000E+00  0.93827000000E+00 0.  1.
     999902    2    1    2    0    0 -0.17101144633E-01  0.26903037958E-01 -0.14085982168E-02  0.10120206480E+01  0.10115174665E+01 0.  0.
     999903    2    3    3    0    0 -0.67809105192E-02  0.83806802980E-01  0.90598676415E-01  0.12533587629E+00  0.20770188857E-01 0.  0.
         14    1    1    2    0    0  0.17101144633E-01 -0.26903037958E-01  0.14085982168E-02  0.31909352047E-01  0.00000000000E+00 0.  1.
     999901    1    3    3    0    0 -0.10320234114E-01 -0.56903765022E-01 -0.92007274632E-01  0.88668477166E+00  0.88000000000E+00 0.  1.
        -11    1    4    4    0    0  0.18839510924E-02  0.34230159828E-01  0.50230765006E-01  0.60816477929E-01  0.51100000000E-03 0.  1.
         11    1    4    4    0    0 -0.86648616116E-02  0.49576643151E-01  0.40367911410E-01  0.64519398366E-01  0.51100000000E-03 0. -1.
</event>
<event>
 7    1  0.1090774E+005  0.1043930E+01  0.7957747E-01            NaN
         13   -1    0    0    0    0  0.00000000000E+00  0.00000000000E+00  0.74505805969E-08  0.10566000000E+00  0.10566000000E+00 0.  1.
     999900   -1    0    0    0    0 -0.00000000000E+00 -0.00000000000E+00 -0.74505805969E-08  0.93827000000E+00  0.93827000000E+00 0. -1.
     999903    2    1    2    0    0  0.84935640846E-01 -0.24520245538E-01  0.68802726573E-01  0.11412954685E+00  0.21827339574E-01 0.  0.
         14    1    1    2    0    0  0.25644885376E-01 -0.28197181185E-01  0.40677002563E-02  0.38331284326E-01  0.00000000000E+00 0. -1.
     999901    1    1    2    0    0 -0.11058052622E+00  0.52717426723E-01 -0.72870426829E-01  0.89146916883E+00  0.88000000000E+00 0. -1.
        -11    1    3    3    0    0  0.46535375784E-01 -0.58822182224E-02  0.46147849438E-01  0.65802939291E-01  0.51100000000E-03 0.  1.
         11    1    3    3    0    0  0.38400265062E-01 -0.18638027316E-01  0.22654877135E-01  0.48326607557E-01  0.51100000000E-03 0. -1.
</event>
<event>
 8    1  0.1090774E+005  0.1043930E+01  0.7957747E-01            NaN
         13   -1    0    0    0    0  0.00000000000E+00  0.00000000000E+00  0.74505805969E-08  0.10566000000E+00  0.10566000000E+00 0. -1.
     999900   -1    0    0    0    0 -0.00000000000E+00 -0.00000000000E+00 -0.74505805969E-08  0.93827000000E+00  0.93827000000E+00 0.  1.
     999902    2    1    2    0    0  0.12226669770E-01 -0.18899132809E-01  0.13090478076E-02  0.10213826658E+01  0.10211337658E+01 0.  0.
     999903    2    3    3    0    0 -0.10962475784E-01 -0.41413907090E-01 -0.12343662613E+00  0.13199740915E+00  0.18746407006E-01 0.  0.
         14    1    1    2    0    0 -0.12226669770E-01  0.18899132809E-01 -0.13090478076E-02  0.22547334228E-01  0.00000000000E+00 0. -1.
     999901    1    3    3    0    0  0.23189145555E-01  0.22514774281E-01  0.12474567394E+00  0.88938525662E+00  0.88000000000E+00 0. -1.
        -11    1    4    4    0    0  0.27040892556E-02 -0.18707034748E-01 -0.67493352912E-01  0.70091932889E-01  0.51100000000E-03 0.  1.
         11    1    4    4    0    0 -0.13666565040E-01 -0.22706872342E-01 -0.55943273219E-01  0.61905476260E-01  0.51100000000E-03 0. -1.
</event>
<event>
 8    1  0.1090774E+005  0.1043930E+01  0.7957747E-01            NaN
         13   -1    0    0    0    0  0.00000000000E+00  0.00000000000E+00  0.74505805969E-08  0.10566000000E+00  0.10566000000E+00 0.  1.
     999900   -1    0    0    0    0 -0.00000000000E+00 -0.00000000000E+00 -0.74505805969E-08  0.93827000000E+00  0.93827000000E+00 0.  1.
     999902    2    1    2    0    0 -0.65620666288E-02 -0.14214727059E-01 -0.17512975804E-01  0.10204390761E+01  0.10201686549E+01 0.  0.
     999903    2    3    3    0    0 -0.10561107859E+00  0.72949640255E-01 -0.13349133212E-01  0.13059320671E+00  0.20025891905E-01 0.  0.
         14    1    1    2    0    0  0.65620666288E-02  0.14214727059E-01  0.17512975804E-01  0.23490923892E-01  0.00000000000E+00 0.  1.
     999901    1    3    3    0    0  0.99049011962E-01 -0.87164367314E-01 -0.41638425921E-02  0.88984586940E+00  0.88000000000E+00 0. -1.
        -11    1    4    4    0    0 -0.97725994554E-01  0.63754513696E-01 -0.69672354197E-02  0.11689230735E+00  0.51100000000E-03 0. -1.
         11    1    4    4    0    0 -0.78850840373E-02  0.91951265592E-02 -0.63818977925E-02  0.13700899355E-01  0.51100000000E-03 0.  1.
</event>
<event>
 8    1  0.1090774E+005  0.1043930E+01  0.7957747E-01            NaN
         13   -1    0    0    0    0  0.00000000000E+00  0.00000000000E+00  0.74505805969E-08  0.10566000000E+00  0.10566000000E+00 0. -1.
     999900   -1    0    0    0    0 -0.00000000000E+00 -0.00000000000E+00 -0.74505805969E-08  0.93827000000E+00  0.93827000000E+00 0.  1.
     999902    2    1    2    0    0 -0.19254027712E-01  0.16493190444E-01  0.39620466568E-02  0.10182699001E+01  0.10179465353E+01 0.  0.
     999903    2    3    3    0    0 -0.10124117527E+00 -0.72440675712E-01 -0.27722339288E-01  0.12943075534E+00  0.22053690494E-01 0.  0.
         14    1    1    2    0    0  0.19254027712E-01 -0.16493190444E-01 -0.39620466568E-02  0.25660099920E-01  0.00000000000E+00 0. -1.
     999901    1    3    3    0    0  0.81987147557E-01  0.88933866156E-01  0.31684385945E-01  0.88883914474E+00  0.88000000000E+00 0. -1.
        -11    1    4    4    0    0 -0.59016114730E-01 -0.55180524140E-01 -0.18546951650E-01  0.82897783919E-01  0.51100000000E-03 0. -1.
         11    1    4    4    0    0 -0.42225060538E-01 -0.17260151572E-01 -0.91753876382E-02  0.46532971419E-01  0.51100000000E-03 0.  1.
</event>
<event>
 8    1  0.1090774E+005  0.1043930E+01  0.7957747E-01            NaN
         13   -1    0    0    0    0  0.00000000000E+00  0.00000000000E+00  0.74505805969E-08  0.10566000000E+00  0.10566000000E+00 0. -1.
     999900   -1    0    0    0    0 -0.00000000000E+00 -0.00000000000E+00 -0.74505805969E-08  0.93827000000E+00  0.93827000000E+00 0. -1.
     999902    2    1    2    0    0 -0.13538146525E-01 -0.10569842616E-01  0.15780762546E-01  0.10206054325E+01  0.10203388718E+01 0.  0.
     999903    2    3    3    0    0 -0.45055250708E-01 -0.10811917940E+00 -0.56899687601E-01  0.13167818640E+00  0.19540669192E-01 0.  0.
         14    1    1    2    0    0  0.13538146525E-01  0.10569842616E-01 -0.15780762546E-01  0.23324567537E-01  0.00000000000E+00 0.  1.
     999901    1    3    3    0    0  0.31517104182E-01  0.97549336788E-01  0.72680450146E-01  0.88892724607E+00  0.88000000000E+00 0. -1.
        -11    1    4    4    0    0 -0.32548858241E-01 -0.60776363370E-01 -0.40885838750E-01  0.80156767953E-01  0.51100000000E-03 0.  1.
         11    1    4    4    0    0 -0.12506392467E-01 -0.47342816034E-01 -0.16013848850E-01  0.51521418445E-01  0.51100000000E-03 0. -1.
</event>
<event>
 8    1  0.1090774E+005  0.1043930E+01  0.7957747E-01            NaN
         13   -1    0    0    0    0  0.00000000000E+00  0.00000000000E+00  0.74505805969E-08  0.10566000000E+00  0.10566000000E+00 0. -1.
     999900   -1    0    0    0    0 -0.00000000000E+00 -0.00000000000E+00 -0.74505805969E-08  0.93827000000E+00  0.93827000000E+00 0. -1.
     999902    2    1    2    0    0  0.22679851641E-01  0.26741993886E-02 -0.24899191427E-02  0.10209576969E+01  0.10206992173E+01 0.  0.
     999903    2    3    3    0    0  0.49458572823E-01  0.10810303333E+00  0.54734158424E-01  0.13241566975E+00  0.20141133435E-01 0.  0.
         14    1    1    2    0    0 -0.22679851641E-01 -0.26741993886E-02  0.24899191427E-02  0.22972303110E-01  0.00000000000E+00 0.  1.
     999901    1    3    3    0    0 -0.26778721182E-01 -0.10542883395E+00 -0.57224077567E-01  0.88854202714E+00  0.88000000000E+00 0. -1.
        -11    1    4    4    0    0  0.12613574343E-01  0.28776794889E-01  0.24584806421E-01  0.39898371014E-01  0.51100000000E-03 0.  1.
         11    1    4    4    0    0  0.36844998480E-01  0.79326238445E-01  0.30149352003E-01  0.92517298739E-01  0.51100000000E-03 0. -1.
</event>
<event>
 8    1  0.1090774E+005  0.1043930E+01  0.7957747E-01            NaN
         13   -1    0    0    0    0  0.00000000000E+00  0.00000000000E+00  0.74505805969E-08  0.10566000000E+00  0.10566000000E+00 0.  1.
     999900   -1    0    0    0    0 -0.00000000000E+00 -0.00000000000E+00 -0.74505805969E-08  0.93827000000E+00  0.93827000000E+00 0.  1.
     999902    2    1    2    0    0 -0.93608531325E-02 -0.21027311284E-01  0.56233426394E-02  0.10202362166E+01  0.10199610494E+01 0.  0.
     999903    2    3    3    0    0 -0.19450877971E-01 -0.76530127317E-01  0.10496438104E+00  0.13285185052E+00  0.19922245297E-01 0.  0.
         14    1    1    2    0    0  0.93608531325E-02  0.21027311284E-01 -0.56233426394E-02  0.23693783439E-01  0.00000000000E+00 0. -1.
     999901    1    3    3    0    0  0.10090024839E-01  0.55502816034E-01 -0.99341038401E-01  0.88738436604E+00  0.88000000000E+00 0.  1.
        -11    1    4    4    0    0 -0.21831666132E-01 -0.61592811323E-01  0.92443857991E-01  0.11320964647E+00  0.51100000000E-03 0.  1.
         11    1    4    4    0    0  0.23807881609E-02 -0.14937315995E-01  0.12520523050E-01  0.19642204047E-01  0.51100000000E-03 0. -1.
</event>
<event>
 8    1  0.1090774E+005  0.1043930E+01  0.7957747E-01            NaN
         13   -1    0    0    0    0  0.00000000000E+00  0.00000000000E+00  0.74505805969E-08  0.10566000000E+00  0.10566000000E+00 0. -1.
     999900   -1    0    0    0    0 -0.00000000000E+00 -0.00000000000E+00 -0.74505805969E-08  0.93827000000E+00  0.93827000000E+00 0. -1.
     999902    2    1    2    0    0 -0.18160002059E-01 -0.67100015071E-02 -0.12881323621E-01  0.10206762198E+01  0.10204112932E+01 0.  0.
     999903    2    3    3    0    0  0.12505512525E+00  0.80560176406E-02 -0.22815507719E-01  0.12892104263E+00  0.19909898781E-01 0.  0.
         14    1    1    2    0    0  0.18160002059E-01  0.67100015071E-02  0.12881323621E-01  0.23253780192E-01  0.00000000000E+00 0. -1.
     999901    1    3    3    0    0 -0.14321512731E+00 -0.14766019148E-01  0.99341840981E-02  0.89175517718E+00  0.88000000000E+00 0. -1.
        -11    1    4    4    0    0  0.93000744606E-01  0.23090384509E-02 -0.24836006309E-01  0.96288932315E-01  0.51100000000E-03 0. -1.
         11    1    4    4    0    0  0.32054380640E-01  0.57469791898E-02  0.20204985900E-02  0.32632110315E-01  0.51100000000E-03 0.  1.
</event>
<event>
 8    1  0.1090774E+005  0.1043930E+01  0.7957747E-01            NaN
         13   -1    0    0    0    0  0.00000000000E+00  0.00000000000E+00  0.74505805969E-08  0.10566000000E+00  0.10566000000E+00 0. -1.
     999900   -1    0    0    0    0 -0.00000000000E+00 -0.00000000000E+00 -0.74505805969E-08  0.93827000000E+00  0.93827000000E+00 0.  1.
     999902    2    1    2    0    0  0.12192772532E-01 -0.67280433133E-02 -0.19675013137E-01  0.10198253031E+01  0.10195403928E+01 0.  0.
     999903    2    3    3    0    0  0.26380518600E-01  0.69251744715E-01 -0.10758499727E+00  0.13207399470E+00  0.19423504573E-01 0.  0.
         14    1    1    2    0    0 -0.12192772532E-01  0.67280433133E-02  0.19675013137E-01  0.24104696861E-01  0.00000000000E+00 0. -1.
     999901    1    3    3    0    0 -0.14187746068E-01 -0.75979788029E-01  0.87909984134E-01  0.88775130844E+00  0.88000000000E+00 0.  1.
        -11    1    4    4    0    0  0.10542090817E-01  0.51817013423E-01 -0.78375602663E-01  0.94546997692E-01  0.51100000000E-03 0.  1.
         11    1    4    4    0    0  0.15838427783E-01  0.17434731293E-01 -0.29209394608E-01  0.37526997006E-01  0.51100000000E-03 0. -1.
</event>
<event>
 8    1  0.1090774E+005  0.1043930E+01  0.7957747E-01            NaN
         13   -1    0    0    0    0  0.00000000000E+00  0.00000000000E+00  0.74505805969E-08  0.10566000000E+00  0.10566000000E+00 0.  1.
     999900   -1    0    0    0    0 -0.00000000000E+00 -0.00000000000E+00 -0.74505805969E-08  0.93827000000E+00  0.93827000000E+00 0.  1.
     999902    2    1    2    0    0  0.23027458413E-01 -0.39378566125E-02 -0.33372475744E-02  0.10203311064E+01  0.10200581645E+01 0.  0.
     999903    2    3    3    0    0 -0.11151658452E+00  0.50487025510E-01  0.30672926433E-01  0.12779491154E+00  0.20145039866E-01 0.  0.
         14    1    1    2    0    0 -0.23027458413E-01  0.39378566125E-02  0.33372475744E-02  0.23598893556E-01  0.00000000000E+00 0. -1.
     999901    1    3    3    0    0  0.13454404293E+00 -0.54424882123E-01 -0.34010174007E-01  0.89253619491E+00  0.88000000000E+00 0.  1.
        -11    1    4    4    0    0 -0.35545812982E-01  0.62630225379E-02  0.71954372720E-02  0.36807142111E-01  0.51100000000E-03 0. -1.
         11    1    4    4    0    0 -0.75970771537E-01  0.44224002973E-01  0.23477489161E-01  0.90987769426E-01  0.51100000000E-03 0.  1.
</event>
<event>
 8    1  0.1090774E+005  0.1043930E+01  0.7957747E-01            NaN
         13   -1    0    0    0    0  0.00000000000E+00  0.00000000000E+00  0.74505805969E-08  0.10566000000E+00  0.10566000000E+00 0.  1.
     999900   -1    0    0    0    0 -0.00000000000E+00 -0.00000000000E+00 -0.74505805969E-08  0.93827000000E+00  0.93827000000E+00 0. -1.
     999902    2    1    2    0    0 -0.58176054249E-02 -0.69099476673E-02  0.23443596518E-01  0.10188064229E+01  0.10184966044E+01 0.  0.
     999903    2    3    3    0    0  0.11270729993E+00 -0.16356238711E-01 -0.53767143780E-01  0.12745975406E+00  0.19611760531E-01 0.  0.
         14    1    1    2    0    0  0.58176054249E-02  0.69099476673E-02 -0.23443596518E-01  0.25123577121E-01  0.00000000000E+00 0. -1.
     999901    1    3    3    0    0 -0.11852490536E+00  0.94462910440E-02  0.77210740298E-01  0.89134666882E+00  0.88000000000E+00 0.  1.
        -11    1    4    4    0    0  0.16551117796E-01 -0.96108890469E-02 -0.79444304825E-02  0.20728815337E-01  0.51100000000E-03 0.  1.
         11    1    4    4    0    0  0.96156182136E-01 -0.67453496644E-02 -0.45822713298E-01  0.10673093872E+00  0.51100000000E-03 0. -1.
</event>
<event>
 8    1  0.1090774E+005  0.1043930E+01  0.7957747E-01            NaN
         13   -1    0    0    0    0  0.00000000000E+00  0.00000000000E+00  0.74505805969E-08  0.10566000000E+00  0.10566000000E+00 0. -1.
     999900   -1    0    0    0    0 -0.00000000000E+00 -0.00000000000E+00 -0.74505805969E-08  0.93827000000E+00  0.93827000000E+00 0. -1.
     999902    2    1    2    0    0 -0.21039049275E-02  0.20690333862E-01 -0.54366298872E-02  0.10224341103E+01  0.10222081180E+01 0.  0.
     999903    2    3    3    0    0 -0.83159314451E-01 -0.54876968899E-01 -0.84313380759E-01  0.13198369699E+00  0.19595836309E-01 0.  0.
         14    1    1    2    0    0  0.21039049275E-02 -0.20690333862E-01  0.54366298872E-02  0.21495889742E-01  0.00000000000E+00 0. -1.
     999901    1    3    3    0    0  0.81055409524E-01  0.75567302762E-01  0.78876750872E-01  0.89045041327E+00  0.88000000000E+00 0.  1.
        -11    1    4    4    0    0 -0.14239738050E-01 -0.79829382591E-02 -0.24249769255E-01  0.29237131749E-01  0.51100000000E-03 0. -1.
         11    1    4    4    0    0 -0.68919576401E-01 -0.46894030640E-01 -0.60063611504E-01  0.10274656524E+00  0.51100000000E-03 0.  1.
</event>
<event>
 8    1  0.1090774E+005  0.1043930E+01  0.7957747E-01            NaN
         13   -1    0    0    0    0  0.00000000000E+00  0.00000000000E+00  0.74505805969E-08  0.10566000000E+00  0.10566000000E+00 0.  1.
     999900   -1    0    0    0    0 -0.00000000000E+00 -0.00000000000E+00 -0.74505805969E-08  0.93827000000E+00  0.93827000000E+00 0. -1.
     999902    2    1    2    0    0 -0.85114731882E-02  0.15226723758E-01 -0.15182785835E-01  0.10208039264E+01  0.10205419349E+01 0.  0.
     999903    2    3    3    0    0 -0.70371805884E-01 -0.10629247341E+00 -0.18346461299E-01  0.13029641672E+00  0.19755571350E-01 0.  0.
         14    1    1    2    0    0  0.85114731882E-02 -0.15226723758E-01  0.15182785835E-01  0.23126073552E-01  0.00000000000E+00 0.  1.
     999901    1    3    3    0    0  0.61860332696E-01  0.12151919717E+00  0.31636754641E-02  0.89050750973E+00  0.88000000000E+00 0. -1.
        -11    1    4    4    0    0 -0.21436533060E-01 -0.22747769174E-01 -0.11213566550E-01  0.33211310540E-01  0.51100000000E-03 0.  1.
         11    1    4    4    0    0 -0.48935272824E-01 -0.83544704241E-01 -0.71328947484E-02  0.97085106178E-01  0.51100000000E-03 0. -1.
</event>
<event>
 8    1  0.1245584E+005  0.1043930E+01  0.7957747E-01            NaN
         13   -1    0    0    0    0  0.00000000000E+00  0.00000000000E+00  0.74505805969E-08  0.10566000000E+00  0.10566000000E+00 0.  1.
     999900   -1    0    0    0    0 -0.00000000000E+00 -0.00000000000E+00 -0.74505805969E-08  0.93827000000E+00  0.93827000000E+00 0. -1.
     999902    2    1    2    0    0  0.12037047236E-01 -0.61660454113E-02  0.18835482148E-01  0.10207419425E+01  0.10204785285E+01 0.  0.
     999903    2    3    3    0    0  0.28252788901E-02 -0.75799913545E-01  0.10789921473E+00  0.13346178342E+00  0.20400931352E-01 0.  0.
         14    1    1    2    0    0 -0.12037047236E-01  0.61660454113E-02 -0.18835482148E-01  0.23188057485E-01  0.00000000000E+00 0. -1.
     999901    1    3    3    0    0  0.92117683460E-02  0.69633868134E-01 -0.89063732579E-01  0.88728015910E+00  0.88000000000E+00 0. -1.
        -11    1    4    4    0    0 -0.69258040704E-02 -0.47759224344E-01  0.58645118781E-01  0.75950124093E-01  0.51100000000E-03 0. -1.
         11    1    4    4    0    0  0.97510829605E-02 -0.28040689202E-01  0.49254095946E-01  0.57511659325E-01  0.51100000000E-03 0.  1.
</event>
<event>
 8    1  0.1090774E+005  0.1043930E+01  0.7957747E-01            NaN
         13   -1    0    0    0    0  0.00000000000E+00  0.00000000000E+00  0.74505805969E-08  0.10566000000E+00  0.10566000000E+00 0. -1.
     999900   -1    0    0    0    0 -0.00000000000E+00 -0.00000000000E+00 -0.74505805969E-08  0.93827000000E+00  0.93827000000E+00 0. -1.
     999902    2    1    2    0    0  0.72337437348E-02 -0.23379989372E-01 -0.28363561001E-02  0.10192927139E+01  0.10189949169E+01 0.  0.
     999903    2    3    3    0    0  0.97122615194E-01  0.71637305653E-01 -0.40318387201E-01  0.12883597814E+00  0.20209675251E-01 0.  0.
         14    1    1    2    0    0 -0.72337437348E-02  0.23379989372E-01  0.28363561001E-02  0.24637286120E-01  0.00000000000E+00 0. -1.
     999901    1    3    3    0    0 -0.89888871460E-01 -0.95017295025E-01  0.37482031101E-01  0.89045673574E+00  0.88000000000E+00 0.  1.
        -11    1    4    4    0    0  0.30901259853E-01  0.15766069474E-01 -0.19211297040E-01  0.39658439985E-01  0.51100000000E-03 0.  1.
         11    1    4    4    0    0  0.66221355342E-01  0.55871236180E-01 -0.21107090161E-01  0.89177538156E-01  0.51100000000E-03 0. -1.
</event>
<event>
 8    1  0.1090774E+005  0.1043930E+01  0.7957747E-01            NaN
         13   -1    0    0    0    0  0.00000000000E+00  0.00000000000E+00  0.74505805969E-08  0.10566000000E+00  0.10566000000E+00 0.  1.
     999900   -1    0    0    0    0 -0.00000000000E+00 -0.00000000000E+00 -0.74505805969E-08  0.93827000000E+00  0.93827000000E+00 0. -1.
     999902    2    1    2    0    0  0.21945022500E-01 -0.35917847373E-02  0.57841764228E-02  0.10209530196E+01  0.10206944335E+01 0.  0.
     999903    2    3    3    0    0 -0.49874152956E-01 -0.10770320441E+00  0.50696246284E-01  0.13077647776E+00  0.21094226113E-01 0.  0.
         14    1    1    2    0    0 -0.21945022500E-01  0.35917847373E-02 -0.57841764228E-02  0.22976980372E-01  0.00000000000E+00 0. -1.
     999901    1    3    3    0    0  0.71819175455E-01  0.10411141967E+00 -0.44912069862E-01  0.89017654187E+00  0.88000000000E+00 0. -1.
        -11    1    4    4    0    0 -0.11344244975E-01 -0.43378944967E-01  0.12106645255E-01  0.46446278008E-01  0.51100000000E-03 0. -1.
         11    1    4    4    0    0 -0.38529907981E-01 -0.64324259443E-01  0.38589601030E-01  0.84330199754E-01  0.51100000000E-03 0.  1.
</event>
<event>
 8    1  0.1090774E+005  0.1043930E+01  0.7957747E-01            NaN
         13   -1    0    0    0    0  0.00000000000E+00  0.00000000000E+00  0.74505805969E-08  0.10566000000E+00  0.10566000000E+00 0. -1.
     999900   -1    0    0    0    0 -0.00000000000E+00 -0.00000000000E+00 -0.74505805969E-08  0.93827000000E+00  0.93827000000E+00 0.  1.
     999902    2    1    2    0    0 -0.22605179814E-01  0.70382443648E-02 -0.10783600573E-01  0.10179142917E+01  0.10175817845E+01 0.  0.
     999903    2    3    3    0    0 -0.14868121363E-01  0.12469966495E+00 -0.26849692934E-01  0.12990404889E+00  0.19572645145E-01 0.  0.
         14    1    1    2    0    0  0.22605179814E-01 -0.70382443648E-02  0.10783600573E-01  0.26015708322E-01  0.00000000000E+00 0. -1.
     999901    1    3    3    0    0 -0.77370584515E-02 -0.11766142058E+00  0.16066092361E-01  0.88801024278E+00  0.88000000000E+00 0. -1.
        -11    1    4    4    0    0  0.14881905521E-02  0.50607368534E-01 -0.16893308389E-01  0.53375700935E-01  0.51100000000E-03 0. -1.
         11    1    4    4    0    0 -0.16356311915E-01  0.74092296412E-01 -0.99563845448E-02  0.76528347958E-01  0.51100000000E-03 0.  1.
</event>
<event>
 8    1  0.1090774E+005  0.1043930E+01  0.7957747E-01            NaN
         13   -1    0    0    0    0  0.00000000000E+00  0.00000000000E+00  0.74505805969E-08  0.10566000000E+00  0.10566000000E+00 0.  1.
     999900   -1    0    0    0    0 -0.00000000000E+00 -0.00000000000E+00 -0.74505805969E-08  0.93827000000E+00  0.93827000000E+00 0. -1.
     999902    2    1    2    0    0 -0.22941837570E-01 -0.25250578266E-02  0.82534374441E-02  0.10194183077E+01  0.10191235760E+01 0.  0.
     999903    2    3    3    0    0 -0.39266498335E-02 -0.95170820323E-01  0.87559215656E-01  0.13080465652E+00  0.19244175746E-01 0.  0.
         14    1    1    2    0    0  0.22941837570E-01  0.25250578266E-02 -0.82534374441E-02  0.24511692266E-01  0.00000000000E+00 0. -1.
     999901    1    3    3    0    0 -0.19015187736E-01  0.92645762496E-01 -0.79305778212E-01  0.88861365122E+00  0.88000000000E+00 0. -1.
        -11    1    4    4    0    0  0.31936389808E-02 -0.73438395123E-01  0.73517644551E-01  0.10396394755E+00  0.51100000000E-03 0. -1.
         11    1    4    4    0    0 -0.71202888142E-02 -0.21732425200E-01  0.14041571104E-01  0.26840708969E-01  0.51100000000E-03 0.  1.
</event>
<event>
 8    1  0.1090774E+005  0.1043930E+01  0.7957747E-01            NaN
         13   -1    0    0    0    0  0.00000000000E+00  0.00000000000E+00  0.74505805969E-08  0.10566000000E+00  0.10566000000E+00 0.  1.
     999900   -1    0    0    0    0 -0.00000000000E+00 -0.00000000000E+00 -0.74505805969E-08  0.93827000000E+00  0.93827000000E+00 0.  1.
     999902    2    1    2    0    0  0.21678902677E-01 -0.16117343752E-02  0.65920884086E-02  0.10212137473E+01  0.10209610617E+01 0.  0.
     999903    2    3    3    0    0  0.38733241820E-01 -0.12360465586E+00  0.18182995183E-01  0.13255888034E+00  0.21514192314E-01 0.  0.
         14    1    1    2    0    0 -0.21678902677E-01  0.16117343752E-02 -0.65920884086E-02  0.22716252740E-01  0.00000000000E+00 0.  1.
     999901    1    3    3    0    0 -0.17054339143E-01  0.12199292149E+00 -0.11590906774E-01  0.88865486692E+00  0.88000000000E+00 0. -1.
        -11    1    4    4    0    0  0.18077186169E-01 -0.42067289422E-01  0.15703548210E-01  0.48407685821E-01  0.51100000000E-03 0.  1.
         11    1    4    4    0    0  0.20656055651E-01 -0.81537366440E-01  0.24794469723E-02  0.84151194522E-01  0.51100000000E-03 0. -1.
</event>
<event>
 8    1  0.1090774E+005  0.1043930E+01  0.7957747E-01            NaN
         13   -1    0    0    0    0  0.00000000000E+00  0.00000000000E+00  0.74505805969E-08  0.10566000000E+00  0.10566000000E+00 0. -1.
     999900   -1    0    0    0    0 -0.00000000000E+00 -0.00000000000E+00 -0.74505805969E-08  0.93827000000E+00  0.93827000000E+00 0. -1.
     999902    2    1    2    0    0 -0.17191875584E-01  0.15017485673E-01  0.81193513342E-02  0.10197017246E+01  0.10194138501E+01 0.  0.
     999903    2    3    3    0    0 -0.25745354519E-02 -0.10775691339E+00 -0.66269822460E-01  0.12795009503E+00  0.19009388027E-01 0.  0.
         14    1    1    2    0    0  0.17191875584E-01 -0.15017485673E-01 -0.81193513342E-02  0.24228275385E-01  0.00000000000E+00 0.  1.
     999901    1    3    3    0    0 -0.14617340132E-01  0.12277439906E+00  0.74389173795E-01  0.89175162959E+00  0.88000000000E+00 0. -1.
        -11    1    4    4    0    0 -0.78845568853E-02 -0.61075568387E-01 -0.45549299345E-01  0.76598897400E-01  0.51100000000E-03 0.  1.
         11    1    4    4    0    0  0.53100214334E-02 -0.46681344998E-01 -0.20720523116E-01  0.51351197626E-01  0.51100000000E-03 0. -1.
</event>
<event>
 8    1  0.1090774E+005  0.1043930E+01  0.7957747E-01            NaN
         13   -1    0    0    0    0  0.00000000000E+00  0.00000000000E+00  0.74505805969E-08  0.10566000000E+00  0.10566000000E+00 0.  1.
     999900   -1    0    0    0    0 -0.00000000000E+00 -0.00000000000E+00 -0.74505805969E-08  0.93827000000E+00  0.93827000000E+00 0. -1.
     999902    2    1    2    0    0 -0.17133219278E-01  0.13380008746E-01 -0.10615663386E-01  0.10197377668E+01  0.10194507585E+01 0.  0.
     999903    2    3    3    0    0  0.13188194732E-01  0.51858965535E-01  0.11609165485E+00  0.12931384377E+00  0.19532462159E-01 0.  0.
         14    1    1    2    0    0  0.17133219278E-01 -0.13380008746E-01  0.10615663386E-01  0.24192233175E-01  0.00000000000E+00 0.  1.
     999901    1    3    3    0    0 -0.30321414010E-01 -0.38478956790E-01 -0.12670731823E+00  0.89042392306E+00  0.88000000000E+00 0. -1.
        -11    1    4    4    0    0  0.11017207121E-01  0.96750292482E-02  0.27628061308E-01  0.31281878721E-01  0.51100000000E-03 0.  1.
         11    1    4    4    0    0  0.21709876112E-02  0.42183936287E-01  0.88463593538E-01  0.98031965044E-01  0.51100000000E-03 0. -1.
</event>
<event>
 7    1  0.1090774E+005  0.1043930E+01  0.7957747E-01            NaN
         13   -1    0    0    0    0  0.00000000000E+00  0.00000000000E+00  0.74505805969E-08  0.10566000000E+00  0.10566000000E+00 0. -1.
     999900   -1    0    0    0    0 -0.00000000000E+00 -0.00000000000E+00 -0.74505805969E-08  0.93827000000E+00  0.93827000000E+00 0. -1.
     999902    2    1    2    0    0 -0.22088483577E-01  0.62800899159E-02  0.55300903334E-02  0.10203096161E+01  0.10200361710E+01 0.  0.
         14    1    1    2    0    0  0.22088483577E-01 -0.62800899159E-02 -0.55300903334E-02  0.23620383892E-01  0.00000000000E+00 0.  1.
     999901    1    3    3    0    0 -0.87836667201E-01 -0.92278816301E-01 -0.17608861376E-01  0.88934848740E+00  0.88000000000E+00 0. -1.
        -11    1    3    3    0    0 -0.60535678174E-02  0.18760386620E-01 -0.42544837471E-02  0.20173238273E-01  0.51100000000E-03 0. -1.
         11    1    3    3    0    0  0.71801751441E-01  0.79798519597E-01  0.27393435456E-01  0.11078789043E+00  0.51100000000E-03 0.  1.
</event>
<event>
 8    1  0.1090774E+005  0.1043930E+01  0.7957747E-01            NaN
         13   -1    0    0    0    0  0.00000000000E+00  0.00000000000E+00  0.74505805969E-08  0.10566000000E+00  0.10566000000E+00 0.  1.
     999900   -1    0    0    0    0 -0.00000000000E+00 -0.00000000000E+00 -0.74505805969E-08  0.93827000000E+00  0.93827000000E+00 0.  1.
     999902    2    1    2    0    0  0.16279149125E-03  0.17063191692E-01 -0.12531191190E-01  0.10227590349E+01  0.10225398934E+01 0.  0.
     999903    2    3    3    0    0  0.32287628304E-01  0.88276630816E-01  0.90830287804E-01  0.13327212975E+00  0.26001247945E-01 0.  0.
         14    1    1    2    0    0 -0.16279149125E-03 -0.17063191692E-01  0.12531191190E-01  0.21170965128E-01  0.00000000000E+00 0. -1.
     999901    1    3    3    0    0 -0.32124836812E-01 -0.71213439124E-01 -0.10336147899E+00  0.88948690513E+00  0.88000000000E+00 0.  1.
        -11    1    4    4    0    0  0.18412654934E-01  0.42767411697E-01  0.27567661109E-01  0.54113902327E-01  0.51100000000E-03 0.  1.
         11    1    4    4    0    0  0.13874973369E-01  0.45509219119E-01  0.63262626694E-01  0.79158227419E-01  0.51100000000E-03 0. -1.
</event>
<event>
 8    1  0.1090774E+005  0.1043930E+01  0.7957747E-01            NaN
         13   -1    0    0    0    0  0.00000000000E+00  0.00000000000E+00  0.74505805969E-08  0.10566000000E+00  0.10566000000E+00 0.  1.
     999900   -1    0    0    0    0 -0.00000000000E+00 -0.00000000000E+00 -0.74505805969E-08  0.93827000000E+00  0.93827000000E+00 0. -1.
     999902    2    1    2    0    0 -0.15374565600E-01  0.15416190081E-01  0.10517236493E-01  0.10197504953E+01  0.10194637925E+01 0.  0.
     999903    2    3    3    0    0  0.11806803336E+00 -0.43696120618E-01 -0.22712463037E-02  0.12763798122E+00  0.20901775801E-01 0.  0.
         14    1    1    2    0    0  0.15374565600E-01 -0.15416190081E-01 -0.10517236493E-01  0.24179504698E-01  0.00000000000E+00 0.  1.
     999901    1    3    3    0    0 -0.13344259896E+00  0.59112310699E-01  0.12788482796E-01  0.89211251408E+00  0.88000000000E+00 0. -1.
        -11    1    4    4    0    0  0.95414485179E-01 -0.36730864882E-01  0.62871294215E-02  0.10243470864E+00  0.51100000000E-03 0.  1.
         11    1    4    4    0    0  0.22653548178E-01 -0.69652557366E-02 -0.85583757252E-02  0.25203272577E-01  0.51100000000E-03 0. -1.
</event>
<event>
 8    1  0.1090774E+005  0.1043930E+01  0.7957747E-01            NaN
         13   -1    0    0    0    0  0.00000000000E+00  0.00000000000E+00  0.74505805969E-08  0.10566000000E+00  0.10566000000E+00 0.  1.
     999900   -1    0    0    0    0 -0.00000000000E+00 -0.00000000000E+00 -0.74505805969E-08  0.93827000000E+00  0.93827000000E+00 0. -1.
     999902    2    1    2    0    0  0.57075851455E-03  0.88441891889E-02  0.24941942881E-01  0.10174602822E+01  0.10171159127E+01 0.  0.
     999903    2    3    3    0    0  0.26527684592E-01 -0.11619291304E+00  0.42087947929E-01  0.12807733628E+00  0.20685686259E-01 0.  0.
         14    1    1    2    0    0 -0.57075851455E-03 -0.88441891889E-02 -0.24941942881E-01  0.26469717837E-01  0.00000000000E+00 0. -1.
     999901    1    3    3    0    0 -0.25956926078E-01  0.12503710223E+00 -0.17146005048E-01  0.88938294589E+00  0.88000000000E+00 0. -1.
        -11    1    4    4    0    0  0.73668415979E-02 -0.22664041207E-01  0.24551566416E-03  0.23838005745E-01  0.51100000000E-03 0.  1.
         11    1    4    4    0    0  0.19160842994E-01 -0.93528871834E-01  0.41842432265E-01  0.10423933053E+00  0.51100000000E-03 0. -1.
</event>
<event>
 8    1  0.1090774E+005  0.1043930E+01  0.7957747E-01            NaN
         13   -1    0    0    0    0  0.00000000000E+00  0.00000000000E+00  0.74505805969E-08  0.10566000000E+00  0.10566000000E+00 0. -1.
     999900   -1    0    0    0    0 -0.00000000000E+00 -0.00000000000E+00 -0.74505805969E-08  0.93827000000E+00  0.93827000000E+00 0. -1.
     999902    2    1    2    0    0 -0.38037864262E-02  0.22122703948E-01  0.59739651753E-02  0.10207013306E+01  0.10204369825E+01 0.  0.
     999903    2    3    3    0    0 -0.70391807966E-01 -0.20426297677E-01  0.10715458639E+00  0.13138591961E+00  0.20196886421E-01 0.  0.
         14    1    1    2    0    0  0.38037864262E-02 -0.22122703948E-01 -0.59739651753E-02  0.23228669377E-01  0.00000000000E+00 0.  1.
     999901    1    3    3    0    0  0.66588021540E-01  0.42549001625E-01 -0.10118062122E+00  0.88931541101E+00  0.88000000000E+00 0. -1.
        -11    1    4    4    0    0 -0.37723019672E-01 -0.21024755980E-01  0.56755249341E-01  0.71319604780E-01  0.51100000000E-03 0. -1.
         11    1    4    4    0    0 -0.32668788294E-01  0.59845830302E-03  0.50399337053E-01  0.60066314831E-01  0.51100000000E-03 0.  1.
</event>
<event>
 8    1  0.1090774E+005  0.1043930E+01  0.7957747E-01            NaN
         13   -1    0    0    0    0  0.00000000000E+00  0.00000000000E+00  0.74505805969E-08  0.10566000000E+00  0.10566000000E+00 0.  1.
     999900   -1    0    0    0    0 -0.00000000000E+00 -0.00000000000E+00 -0.74505805969E-08  0.93827000000E+00  0.93827000000E+00 0.  1.
     999902    2    1    2    0    0 -0.33248021753E-02  0.92378548570E-02  0.21393386538E-01  0.10203913242E+01  0.10201197896E+01 0.  0.
     999903    2    3    3    0    0  0.11352950524E+00 -0.36635732940E-01  0.50601874349E-01  0.13100251664E+00  0.19234973067E-01 0.  0.
         14    1    1    2    0    0  0.33248021753E-02 -0.92378548570E-02 -0.21393386538E-01  0.23538675821E-01  0.00000000000E+00 0.  1.
     999901    1    3    3    0    0 -0.11685430742E+00  0.45873587797E-01 -0.29208487811E-01  0.88938880754E+00  0.88000000000E+00 0.  1.
        -11    1    4    4    0    0  0.16176615427E-01 -0.25080106683E-04  0.11632505449E-01  0.19931377767E-01  0.51100000000E-03 0. -1.
         11    1    4    4    0    0  0.97352889816E-01 -0.36610652834E-01  0.38969368900E-01  0.11107113887E+00  0.51100000000E-03 0.  1.
</event>
<event>
 8    1  0.1090774E+005  0.1043930E+01  0.7957747E-01            NaN
         13   -1    0    0    0    0  0.00000000000E+00  0.00000000000E+00  0.74505805969E-08  0.10566000000E+00  0.10566000000E+00 0. -1.
     999900   -1    0    0    0    0 -0.00000000000E+00 -0.00000000000E+00 -0.74505805969E-08  0.93827000000E+00  0.93827000000E+00 0. -1.
     999902    2    1    2    0    0 -0.13794995602E-01  0.76369022672E-02  0.16881977577E-01  0.10208296678E+01  0.10205682659E+01 0.  0.
     999903    2    3    3    0    0  0.47447334756E-01  0.11435994368E+00  0.40154143611E-01  0.13196408501E+00  0.21742083363E-01 0.  0.
         14    1    1    2    0    0  0.13794995602E-01 -0.76369022672E-02 -0.16881977577E-01  0.23100332180E-01  0.00000000000E+00 0.  1.
     999901    1    3    3    0    0 -0.61242330357E-01 -0.10672304141E+00 -0.23272166034E-01  0.88886558281E+00  0.88000000000E+00 0.  1.
        -11    1    4    4    0    0  0.76556392184E-02  0.32050629849E-01  0.19298290722E-01  0.38190795113E-01  0.51100000000E-03 0.  1.
         11    1    4    4    0    0  0.39791695537E-01  0.82309313831E-01  0.20855852889E-01  0.93773289895E-01  0.51100000000E-03 0. -1.
</event>
<event>
 8    1  0.1090774E+005  0.1043930E+01  0.7957747E-01            NaN
         13   -1    0    0    0    0  0.00000000000E+00  0.00000000000E+00  0.74505805969E-08  0.10566000000E+00  0.10566000000E+00 0.  1.
     999900   -1    0    0    0    0 -0.00000000000E+00 -0.00000000000E+00 -0.74505805969E-08  0.93827000000E+00  0.93827000000E+00 0.  1.
     999902    2    1    2    0    0 -0.12864906638E-01  0.51913586626E-02 -0.19616098704E-01  0.10199040275E+01  0.10196209972E+01 0.  0.
     999903    2    3    3    0    0 -0.72212113770E-01  0.13626868070E-02  0.10518747545E+00  0.12911073953E+00  0.19716282081E-01 0.  0.
         14    1    1    2    0    0  0.12864906638E-01 -0.51913586626E-02  0.19616098704E-01  0.24025972528E-01  0.00000000000E+00 0.  1.
     999901    1    3    3    0    0  0.59347207133E-01  0.38286718555E-02 -0.12480357416E+00  0.89079328794E+00  0.88000000000E+00 0.  1.
        -11    1    4    4    0    0 -0.80668026017E-02  0.66922488777E-02  0.14205175988E-01  0.17660907256E-01  0.51100000000E-03 0. -1.
         11    1    4    4    0    0 -0.64145311169E-01 -0.53295620706E-02  0.90982299464E-01  0.11144983227E+00  0.51100000000E-03 0.  1.
</event>
<event>
 8    1  0.1090774E+005  0.1043930E+01  0.7957747E-01            NaN
         13   -1    0    0    0    0  0.00000000000E+00  0.00000000000E+00  0.74505805969E-08  0.10566000000E+00  0.10566000000E+00 0.  1.
     999900   -1    0    0    0    0 -0.00000000000E+00 -0.00000000000E+00 -0.74505805969E-08  0.93827000000E+00  0.93827000000E+00 0.  1.
     999902    2    1    2    0    0 -0.33379649951E-02  0.63629265221E-02 -0.22646674667E-01  0.10201707762E+01  0.10198940689E+01 0.  0.
     999903    2    3    3    0    0  0.12518639961E+00  0.29639027098E-01 -0.85149945231E-02  0.13041800513E+00  0.19653100420E-01 0.  0.
         14    1    1    2    0    0  0.33379649951E-02 -0.63629265221E-02  0.22646674667E-01  0.23759223845E-01  0.00000000000E+00 0.  1.
     999901    1    3    3    0    0 -0.12852436461E+00 -0.23276100576E-01 -0.14131680144E-01  0.88975277102E+00  0.88000000000E+00 0. -1.
        -11    1    4    4    0    0  0.73394797644E-01  0.26107183440E-01 -0.96103732005E-02  0.78492048913E-01  0.51100000000E-03 0. -1.
         11    1    4    4    0    0  0.51791601968E-01  0.35318436575E-02  0.10953786774E-02  0.51925956221E-01  0.51100000000E-03 0.  1.
</event>
<event>
 8    1  0.1090774E+005  0.1043930E+01  0.7957747E-01            NaN
         13   -1    0    0    0    0  0.00000000000E+00  0.00000000000E+00  0.74505805969E-08  0.10566000000E+00  0.10566000000E+00 0. -1.
     999900   -1    0    0    0    0 -0.00000000000E+00 -0.00000000000E+00 -0.74505805969E-08  0.93827000000E+00  0.93827000000E+00 0. -1.
     999902    2    1    2    0    0  0.68003327668E-02  0.18353442585E-02  0.22175809386E-01  0.10206624360E+01  0.10203971916E+01 0.  0.
     999903    2    3    3    0    0 -0.11122834293E+00 -0.45635115057E-01 -0.42566545774E-01  0.12916045316E+00  0.20401074591E-01 0.  0.
         14    1    1    2    0    0 -0.68003327668E-02 -0.18353442585E-02 -0.22175809386E-01  0.23267564037E-01  0.00000000000E+00 0.  1.
     999901    1    3    3    0    0  0.11802867569E+00  0.47470459316E-01  0.64742355160E-01  0.89150198280E+00  0.88000000000E+00 0.  1.
        -11    1    4    4    0    0 -0.39483813777E-01 -0.26685199034E-01 -0.14377355345E-01  0.49779924323E-01  0.51100000000E-03 0.  1.
         11    1    4    4    0    0 -0.71744529149E-01 -0.18949916023E-01 -0.28189190429E-01  0.79380528835E-01  0.51100000000E-03 0. -1.
</event>
<event>
 7    1  0.1090774E+005  0.1043930E+01  0.7957747E-01            NaN
         13   -1    0    0    0    0  0.00000000000E+00  0.00000000000E+00  0.74505805969E-08  0.10566000000E+00  0.10566000000E+00 0. -1.
     999900   -1    0    0    0    0 -0.00000000000E+00 -0.00000000000E+00 -0.74505805969E-08  0.93827000000E+00  0.93827000000E+00 0.  1.
     999902    2    1    2    0    0 -0.88356723209E-02 -0.17236491617E-01  0.12800885290E-01  0.10207130146E+01  0.10204489354E+01 0.  0.
         14    1    1    2    0    0  0.88356723209E-02  0.17236491617E-01 -0.12800885290E-01  0.23216985438E-01  0.00000000000E+00 0. -1.
     999901    1    3    3    0    0  0.70576910383E-01 -0.40256769209E-01 -0.90454402035E-01  0.88836012213E+00  0.88000000000E+00 0.  1.
        -11    1    3    3    0    0 -0.35973532852E-01  0.93265808545E-02  0.43456057866E-01  0.57181905028E-01  0.51100000000E-03 0. -1.
         11    1    3    3    0    0 -0.43439049852E-01  0.13693696738E-01  0.59799229458E-01  0.75170987403E-01  0.51100000000E-03 0.  1.
</event>
<event>
 8    1  0.1090774E+005  0.1043930E+01  0.7957747E-01            NaN
         13   -1    0    0    0    0  0.00000000000E+00  0.00000000000E+00  0.74505805969E-08  0.10566000000E+00  0.10566000000E+00 0. -1.
     999900   -1    0    0    0    0 -0.00000000000E+00 -0.00000000000E+00 -0.74505805969E-08  0.93827000000E+00  0.93827000000E+00 0. -1.
     999902    2    1    2    0    0 -0.37208868157E-02 -0.16922007445E-01 -0.16119436131E-01  0.10202649296E+01  0.10199904368E+01 0.  0.
     999903    2    3    3    0    0  0.82013644389E-01 -0.10093609926E+00 -0.11750834054E-01  0.13210511172E+00  0.19983604308E-01 0.  0.
         14    1    1    2    0    0  0.37208868157E-02  0.16922007445E-01  0.16119436131E-01  0.23665070374E-01  0.00000000000E+00 0. -1.
     999901    1    3    3    0    0 -0.85734531205E-01  0.84014091814E-01 -0.43686020764E-02  0.88815981791E+00  0.88000000000E+00 0. -1.
        -11    1    4    4    0    0  0.17986869488E-01 -0.21082607030E-01  0.56371518723E-02  0.28285020689E-01  0.51100000000E-03 0.  1.
         11    1    4    4    0    0  0.64026774901E-01 -0.79853492229E-01 -0.17387985926E-01  0.10382009103E+00  0.51100000000E-03 0. -1.
</event>
<event>
 8    1  0.1090774E+005  0.1043930E+01  0.7957747E-01            NaN
         13   -1    0    0    0    0  0.00000000000E+00  0.00000000000E+00  0.74505805969E-08  0.10566000000E+00  0.10566000000E+00 0. -1.
     999900   -1    0    0    0    0 -0.00000000000E+00 -0.00000000000E+00 -0.74505805969E-08  0.93827000000E+00  0.93827000000E+00 0. -1.
     999902    2    1    2    0    0 -0.13282837007E-02  0.29288720968E-01  0.50469284137E-02  0.10141799580E+01  0.10137435189E+01 0.  0.
     999903    2    3    3    0    0 -0.52502314084E-01 -0.64942790140E-01  0.89050697450E-01  0.12369975479E+00  0.19938496509E-01 0.  0.
         14    1    1    2    0    0  0.13282837007E-02 -0.29288720968E-01 -0.50469284137E-02  0.29750042016E-01  0.00000000000E+00 0.  1.
     999901    1    3    3    0    0  0.51174030383E-01  0.94231511108E-01 -0.84003769036E-01  0.89048020320E+00  0.88000000000E+00 0. -1.
        -11    1    4    4    0    0 -0.26777821531E-01 -0.26818889274E-01  0.27336501848E-01  0.46731680925E-01  0.51100000000E-03 0. -1.
         11    1    4    4    0    0 -0.25724492553E-01 -0.38123900867E-01  0.61714195602E-01  0.76968073863E-01  0.51100000000E-03 0.  1.
</event>
<event>
 8    1  0.1090774E+005  0.1043930E+01  0.7957747E-01            NaN
         13   -1    0    0    0    0  0.00000000000E+00  0.00000000000E+00  0.74505805969E-08  0.10566000000E+00  0.10566000000E+00 0.  1.
     999900   -1    0    0    0    0 -0.00000000000E+00 -0.00000000000E+00 -0.74505805969E-08  0.93827000000E+00  0.93827000000E+00 0.  1.
     999902    2    1    2    0    0  0.40512695719E-02  0.63098670297E-02 -0.26277047915E-01  0.10166039967E+01  0.10162366731E+01 0.  0.
     999903    2    3    3    0    0  0.67176691820E-01  0.10510465679E+00  0.18044820597E-01  0.12772287002E+00  0.20683790099E-01 0.  0.
         14    1    1    2    0    0 -0.40512695719E-02 -0.63098670297E-02  0.26277047915E-01  0.27326003260E-01  0.00000000000E+00 0.  1.
     999901    1    3    3    0    0 -0.63125422248E-01 -0.98794789756E-01 -0.44321868512E-01  0.88888112672E+00  0.88000000000E+00 0.  1.
        -11    1    4    4    0    0  0.31421814567E-01  0.59367716275E-01  0.86465454620E-03  0.67177860303E-01  0.51100000000E-03 0. -1.
         11    1    4    4    0    0  0.35754877252E-01  0.45736940511E-01  0.17180166051E-01  0.60545009713E-01  0.51100000000E-03 0.  1.
</event>
<event>
 8    1  0.1090774E+005  0.1043930E+01  0.7957747E-01            NaN
         13   -1    0    0    0    0  0.00000000000E+00  0.00000000000E+00  0.74505805969E-08  0.10566000000E+00  0.10566000000E+00 0.  1.
     999900   -1    0    0    0    0 -0.00000000000E+00 -0.00000000000E+00 -0.74505805969E-08  0.93827000000E+00  0.93827000000E+00 0.  1.
     999902    2    1    2    0    0 -0.12721577887E-02 -0.23750663086E-01  0.13994017942E-02  0.10201041588E+01  0.10198258793E+01 0.  0.
     999903    2    3    3    0    0 -0.11061929841E+00 -0.61011078887E-01 -0.34312003348E-01  0.13183593345E+00  0.15633900580E-01 0.  0.
         14    1    1    2    0    0  0.12721577887E-02  0.23750663086E-01 -0.13994017942E-02  0.23825841179E-01  0.00000000000E+00 0.  1.
     999901    1    3    3    0    0  0.10934714062E+00  0.37260415800E-01  0.35711405142E-01  0.88826822537E+00  0.88000000000E+00 0. -1.
        -11    1    4    4    0    0 -0.96155467377E-01 -0.57151536336E-01 -0.26554698370E-01  0.11496775695E+00  0.51100000000E-03 0.  1.
         11    1    4    4    0    0 -0.14463831032E-01 -0.38595425503E-02 -0.77573049786E-02  0.16868176498E-01  0.51100000000E-03 0. -1.
</event>
<event>
 8    1  0.1090774E+005  0.1043930E+01  0.7957747E-01            NaN
         13   -1    0    0    0    0  0.00000000000E+00  0.00000000000E+00  0.74505805969E-08  0.10566000000E+00  0.10566000000E+00 0. -1.
     999900   -1    0    0    0    0 -0.00000000000E+00 -0.00000000000E+00 -0.74505805969E-08  0.93827000000E+00  0.93827000000E+00 0. -1.
     999902    2    1    2    0    0 -0.63292147745E-02  0.17669010896E-01 -0.14698958305E-01  0.10200906988E+01  0.10198121011E+01 0.  0.
     999903    2    3    3    0    0  0.12408951444E+00  0.90559386470E-02  0.28976376214E-01  0.12936584523E+00  0.20388082678E-01 0.  0.
         14    1    1    2    0    0  0.63292147745E-02 -0.17669010896E-01  0.14698958305E-01  0.23839301185E-01  0.00000000000E+00 0. -1.
     999901    1    3    3    0    0 -0.13041872922E+00  0.86130722494E-02 -0.43675334519E-01  0.89072485358E+00  0.88000000000E+00 0. -1.
        -11    1    4    4    0    0  0.83181342510E-01 -0.34563281183E-02  0.17551566508E-01  0.85084666972E-01  0.51100000000E-03 0. -1.
         11    1    4    4    0    0  0.40908171932E-01  0.12512266765E-01  0.11424809706E-01  0.44281178261E-01  0.51100000000E-03 0.  1.
</event>
<event>
 8    1  0.1090774E+005  0.1043930E+01  0.7957747E-01            NaN
         13   -1    0    0    0    0  0.00000000000E+00  0.00000000000E+00  0.74505805969E-08  0.10566000000E+00  0.10566000000E+00 0. -1.
     999900   -1    0    0    0    0 -0.00000000000E+00 -0.00000000000E+00 -0.74505805969E-08  0.93827000000E+00  0.93827000000E+00 0.  1.
     999902    2    1    2    0    0  0.16488620184E-01 -0.10681360490E-01  0.16305947991E-02  0.10242164286E+01  0.10240266929E+01 0.  0.
     999903    2    3    3    0    0 -0.31497254609E-01 -0.12845695426E+00 -0.17752591699E-01  0.13486304408E+00  0.19483839458E-01 0.  0.
         14    1    1    2    0    0 -0.16488620184E-01  0.10681360490E-01 -0.16305947991E-02  0.19713571389E-01  0.00000000000E+00 0. -1.
     999901    1    3    3    0    0  0.47985874793E-01  0.11777559377E+00  0.19383186498E-01  0.88935338454E+00  0.88000000000E+00 0.  1.
        -11    1    4    4    0    0 -0.78400733391E-02 -0.27624144795E-01 -0.12016417187E-01  0.31132226528E-01  0.51100000000E-03 0. -1.
         11    1    4    4    0    0 -0.23657181270E-01 -0.10083280946E+00 -0.57361745122E-02  0.10373081755E+00  0.51100000000E-03 0.  1.
</event>
<event>
 8    1  0.1090774E+005  0.1043930E+01  0.7957747E-01            NaN
         13   -1    0    0    0    0  0.00000000000E+00  0.00000000000E+00  0.74505805969E-08  0.10566000000E+00  0.10566000000E+00 0. -1.
     999900   -1    0    0    0    0 -0.00000000000E+00 -0.00000000000E+00 -0.74505805969E-08  0.93827000000E+00  0.93827000000E+00 0. -1.
     999902    2    1    2    0    0 -0.19414200111E-01  0.12687330571E-01  0.90969021551E-02  0.10190174901E+01  0.10187129193E+01 0.  0.
     999903    2    3    3    0    0  0.47197192458E-01 -0.98994028399E-01 -0.60340817747E-01  0.12675553272E+00  0.19963921316E-01 0.  0.
         14    1    1    2    0    0  0.19414200111E-01 -0.12687330571E-01 -0.90969021551E-02  0.24912509945E-01  0.00000000000E+00 0.  1.
     999901    1    3    3    0    0 -0.66611392568E-01  0.11168135897E+00  0.69437719903E-01  0.89226195733E+00  0.88000000000E+00 0.  1.
        -11    1    4    4    0    0  0.17574385984E-01 -0.55565389095E-01 -0.38368345663E-01  0.69776518814E-01  0.51100000000E-03 0. -1.
         11    1    4    4    0    0  0.29622806474E-01 -0.43428639304E-01 -0.21972472085E-01  0.56979013906E-01  0.51100000000E-03 0.  1.
</event>
<event>
 8    1  0.1090774E+005  0.1043930E+01  0.7957747E-01            NaN
         13   -1    0    0    0    0  0.00000000000E+00  0.00000000000E+00  0.74505805969E-08  0.10566000000E+00  0.10566000000E+00 0. -1.
     999900   -1    0    0    0    0 -0.00000000000E+00 -0.00000000000E+00 -0.74505805969E-08  0.93827000000E+00  0.93827000000E+00 0. -1.
     999902    2    1    2    0    0 -0.14872111592E-01  0.72071844381E-02 -0.16051318366E-01  0.10208915966E+01  0.10206316103E+01 0.  0.
     999903    2    3    3    0    0 -0.12547984736E+00 -0.83421467170E-03 -0.41368146081E-01  0.13356996545E+00  0.19588878311E-01 0.  0.
         14    1    1    2    0    0  0.14872111592E-01 -0.72071844381E-02  0.16051318366E-01  0.23038403417E-01  0.00000000000E+00 0. -1.
     999901    1    3    3    0    0  0.11060773576E+00  0.80413991098E-02  0.25316827716E-01  0.88732163113E+00  0.88000000000E+00 0.  1.
        -11    1    4    4    0    0 -0.10232172155E+00  0.30408593589E-02 -0.40438373622E-01  0.11006591074E+00  0.51100000000E-03 0.  1.
         11    1    4    4    0    0 -0.23158125811E-01 -0.38750740306E-02 -0.92977245929E-03  0.23504054706E-01  0.51100000000E-03 0. -1.
</event>
<event>
 8    1  0.1090774E+005  0.1043930E+01  0.7957747E-01            NaN
         13   -1    0    0    0    0  0.00000000000E+00  0.00000000000E+00  0.74505805969E-08  0.10566000000E+00  0.10566000000E+00 0. -1.
     999900   -1    0    0    0    0 -0.00000000000E+00 -0.00000000000E+00 -0.74505805969E-08  0.93827000000E+00  0.93827000000E+00 0. -1.
     999902    2    1    2    0    0  0.21668972568E-01  0.93647713382E-02  0.38066802978E-02  0.10200190375E+01  0.10197387424E+01 0.  0.
     999903    2    3    3    0    0  0.93870898899E-01  0.92368910988E-01 -0.30831806657E-02  0.13314234054E+00  0.19329135124E-01 0.  0.
         14    1    1    2    0    0 -0.21668972568E-01 -0.93647713382E-02 -0.38066802978E-02  0.23910962533E-01  0.00000000000E+00 0.  1.
     999901    1    3    3    0    0 -0.72201926331E-01 -0.83004139650E-01  0.68898609635E-02  0.88687669693E+00  0.88000000000E+00 0.  1.
        -11    1    4    4    0    0  0.12770109563E-01  0.47316525969E-02  0.10129714148E-02  0.13665704030E-01  0.51100000000E-03 0.  1.
         11    1    4    4    0    0  0.81100789336E-01  0.87637258391E-01 -0.40961520804E-02  0.11947663651E+00  0.51100000000E-03 0. -1.
</event>
<event>
 8    1  0.1090774E+005  0.1043930E+01  0.7957747E-01            NaN
         13   -1    0    0    0    0  0.00000000000E+00  0.00000000000E+00  0.74505805969E-08  0.10566000000E+00  0.10566000000E+00 0. -1.
     999900   -1    0    0    0    0 -0.00000000000E+00 -0.00000000000E+00 -0.74505805969E-08  0.93827000000E+00  0.93827000000E+00 0.  1.
     999902    2    1    2    0    0  0.75037913971E-02 -0.18086715304E-01  0.83177648422E-02  0.10226551001E+01  0.10224337789E+01 0.  0.
     999903    2    3    3    0    0 -0.69893917204E-01  0.57018027952E-02  0.11111771456E+00  0.13297868216E+00  0.20457595234E-01 0.  0.
         14    1    1    2    0    0 -0.75037913971E-02  0.18086715304E-01 -0.83177648422E-02  0.21274899948E-01  0.00000000000E+00 0.  1.
     999901    1    3    3    0    0  0.77397708601E-01 -0.23788518100E-01 -0.10279994972E+00  0.88967641789E+00  0.88000000000E+00 0.  1.
        -11    1    4    4    0    0 -0.14286070109E-01  0.53817203569E-02  0.12397939345E-01  0.19672944217E-01  0.51100000000E-03 0. -1.
         11    1    4    4    0    0 -0.55607847095E-01  0.32008243827E-03  0.98719775216E-01  0.11330573794E+00  0.51100000000E-03 0.  1.
</event>
<event>
 8    1  0.1090774E+005  0.1043930E+01  0.7957747E-01            NaN
         13   -1    0    0    0    0  0.00000000000E+00  0.00000000000E+00  0.74505805969E-08  0.10566000000E+00  0.10566000000E+00 0. -1.
     999900   -1    0    0    0    0 -0.00000000000E+00 -0.00000000000E+00 -0.74505805969E-08  0.93827000000E+00  0.93827000000E+00 0.  1.
     999902    2    1    2    0    0  0.14368874094E-01 -0.17795483829E-01 -0.65475879390E-02  0.10201389367E+01  0.10198614785E+01 0.  0.
     999903    2    3    3    0    0 -0.81461683673E-01 -0.10030743496E+00 -0.54232438254E-02  0.13109845274E+00  0.21443071662E-01 0.  0.
         14    1    1    2    0    0 -0.14368874094E-01  0.17795483829E-01  0.65475879390E-02  0.23791063349E-01  0.00000000000E+00 0. -1.
     999901    1    3    3    0    0  0.95830557767E-01  0.82511951132E-01 -0.11243441136E-02  0.88904048391E+00  0.88000000000E+00 0. -1.
        -11    1    4    4    0    0 -0.36324133563E-01 -0.28897481093E-01 -0.41932075966E-02  0.46608488536E-01  0.51100000000E-03 0. -1.
         11    1    4    4    0    0 -0.45137550110E-01 -0.71409953868E-01 -0.12300362288E-02  0.84489964206E-01  0.51100000000E-03 0.  1.
</event>
<event>
 8    1  0.1090774E+005  0.1043930E+01  0.7957747E-01            NaN
         13   -1    0    0    0    0  0.00000000000E+00  0.00000000000E+00  0.74505805969E-08  0.10566000000E+00  0.10566000000E+00 0. -1.
     999900   -1    0    0    0    0 -0.00000000000E+00 -0.00000000000E+00 -0.74505805969E-08  0.93827000000E+00  0.93827000000E+00 0.  1.
     999902    2    1    2    0    0 -0.45101684427E-02  0.15822761124E-01  0.17711273101E-01  0.10197558282E+01  0.10194692533E+01 0.  0.
     999903    2    3    3    0    0  0.64734606784E-03  0.12193834234E+00 -0.44920824131E-01  0.13115586410E+00  0.17737019414E-01 0.  0.
         14    1    1    2    0    0  0.45101684427E-02 -0.15822761124E-01 -0.17711273101E-01  0.24174171834E-01  0.00000000000E+00 0.  1.
     999901    1    3    3    0    0 -0.51575145106E-02 -0.10611558122E+00  0.62632097232E-01  0.88859996407E+00  0.88000000000E+00 0. -1.
        -11    1    4    4    0    0  0.42818004041E-02  0.79159825417E-01 -0.21022140031E-01  0.82017091312E-01  0.51100000000E-03 0. -1.
         11    1    4    4    0    0 -0.36344543363E-02  0.42778516924E-01 -0.23898684100E-01  0.49138772789E-01  0.51100000000E-03 0.  1.
</event>
<event>
 8    1  0.1090774E+005  0.1043930E+01  0.7957747E-01            NaN
         13   -1    0    0    0    0  0.00000000000E+00  0.00000000000E+00  0.74505805969E-08  0.10566000000E+00  0.10566000000E+00 0.  1.
     999900   -1    0    0    0    0 -0.00000000000E+00 -0.00000000000E+00 -0.74505805969E-08  0.93827000000E+00  0.93827000000E+00 0. -1.
     999902    2    1    2    0    0  0.69812841758E-02  0.29207282773E-01  0.71534629033E-04  0.10138998682E+01  0.10134550479E+01 0.  0.
     999903    2    3    3    0    0 -0.60853046139E-01  0.99124912844E-01  0.47766543471E-01  0.12724052824E+00  0.19485065563E-01 0.  0.
         14    1    1    2    0    0 -0.69812841758E-02 -0.29207282773E-01 -0.71534629033E-04  0.30030131750E-01  0.00000000000E+00 0.  1.
     999901    1    3    3    0    0  0.67834330315E-01 -0.69917630070E-01 -0.47695008842E-01  0.88665934001E+00  0.88000000000E+00 0. -1.
        -11    1    4    4    0    0 -0.38496315944E-01  0.67498210745E-01  0.41203456423E-01  0.87954310510E-01  0.51100000000E-03 0. -1.
         11    1    4    4    0    0 -0.22356730196E-01  0.31626702098E-01  0.65630870483E-02  0.39286217727E-01  0.51100000000E-03 0.  1.
</event>
<event>
 8    1  0.1090774E+005  0.1043930E+01  0.7957747E-01            NaN
         13   -1    0    0    0    0  0.00000000000E+00  0.00000000000E+00  0.74505805969E-08  0.10566000000E+00  0.10566000000E+00 0. -1.
     999900   -1    0    0    0    0 -0.00000000000E+00 -0.00000000000E+00 -0.74505805969E-08  0.93827000000E+00  0.93827000000E+00 0.  1.
     999902    2    1    2    0    0 -0.37121322605E-02 -0.24805938396E-01  0.13797586815E-02  0.10188099236E+01  0.10185001925E+01 0.  0.
     999903    2    3    3    0    0  0.80194380893E-01 -0.89517984417E-01  0.48729021084E-01  0.13118956300E+00  0.19788271383E-01 0.  0.
         14    1    1    2    0    0  0.37121322605E-02  0.24805938396E-01 -0.13797586815E-02  0.25120076426E-01  0.00000000000E+00 0. -1.
     999901    1    3    3    0    0 -0.83906513153E-01  0.64712046022E-01 -0.47349262402E-01  0.88762036057E+00  0.88000000000E+00 0.  1.
        -11    1    4    4    0    0  0.40753135988E-01 -0.56335396858E-01  0.20869295942E-01  0.72596719389E-01  0.51100000000E-03 0. -1.
         11    1    4    4    0    0  0.39441244905E-01 -0.33182587560E-01  0.27859725142E-01  0.58592843614E-01  0.51100000000E-03 0.  1.
</event>
<event>
 8    1  0.1090774E+005  0.1043930E+01  0.7957747E-01            NaN
         13   -1    0    0    0    0  0.00000000000E+00  0.00000000000E+00  0.74505805969E-08  0.10566000000E+00  0.10566000000E+00 0.  1.
     999900   -1    0    0    0    0 -0.00000000000E+00 -0.00000000000E+00 -0.74505805969E-08  0.93827000000E+00  0.93827000000E+00 0.  1.
     999902    2    1    2    0    0  0.24732349848E-02 -0.15355893077E-01  0.17324176905E-01  0.10206480875E+01  0.10203825122E+01 0.  0.
     999903    2    3    3    0    0  0.38094467705E-01 -0.13446682838E-01  0.12555105104E+00  0.13330059437E+00  0.19338570079E-01 0.  0.
         14    1    1    2    0    0 -0.24732349848E-02  0.15355893077E-01 -0.17324176905E-01  0.23281912484E-01  0.00000000000E+00 0. -1.
     999901    1    3    3    0    0 -0.35621232720E-01 -0.19092102386E-02 -0.10822687414E+00  0.88734749314E+00  0.88000000000E+00 0.  1.
        -11    1    4    4    0    0  0.36048704964E-01 -0.71661727994E-02  0.11594055405E+00  0.12162786011E+00  0.51100000000E-03 0.  1.
         11    1    4    4    0    0  0.20457627411E-02 -0.62805100386E-02  0.96104969967E-02  0.11672734258E-01  0.51100000000E-03 0. -1.
</event>
<event>
 8    1  0.1090774E+005  0.1043930E+01  0.7957747E-01            NaN
         13   -1    0    0    0    0  0.00000000000E+00  0.00000000000E+00  0.74505805969E-08  0.10566000000E+00  0.10566000000E+00 0.  1.
     999900   -1    0    0    0    0 -0.00000000000E+00 -0.00000000000E+00 -0.74505805969E-08  0.93827000000E+00  0.93827000000E+00 0.  1.
     999902    2    1    2    0    0  0.12507560413E-01  0.18383741459E-01 -0.47330837136E-02  0.10211966963E+01  0.10209436269E+01 0.  0.
     999903    2    3    3    0    0  0.40679551402E-01  0.39145597003E-01 -0.11877455835E+00  0.13314817638E+00  0.20828766084E-01 0.  0.
         14    1    1    2    0    0 -0.12507560413E-01 -0.18383741459E-01  0.47330837136E-02  0.22733303740E-01  0.00000000000E+00 0.  1.
     999901    1    3    3    0    0 -0.28171990989E-01 -0.20761855544E-01  0.11404147463E+00  0.88804851988E+00  0.88000000000E+00 0. -1.
        -11    1    4    4    0    0  0.40885108478E-02  0.55563634324E-02 -0.37776083374E-02  0.78816585371E-02  0.51100000000E-03 0. -1.
         11    1    4    4    0    0  0.36591040554E-01  0.33589233570E-01 -0.11499695001E+00  0.12526651784E+00  0.51100000000E-03 0.  1.
</event>
<event>
 8    1  0.1090774E+005  0.1043930E+01  0.7957747E-01            NaN
         13   -1    0    0    0    0  0.00000000000E+00  0.00000000000E+00  0.74505805969E-08  0.10566000000E+00  0.10566000000E+00 0. -1.
     999900   -1    0    0    0    0 -0.00000000000E+00 -0.00000000000E+00 -0.74505805969E-08  0.93827000000E+00  0.93827000000E+00 0.  1.
     999902    2    1    2    0    0 -0.73914446992E-02  0.20014512501E-01  0.70110159563E-03  0.10225827353E+01  0.10223598901E+01 0.  0.
     999903    2    3    3    0    0 -0.46571662037E-01  0.83839741118E-01  0.92419345602E-01  0.13465200294E+00  0.19794053628E-01 0.  0.
         14    1    1    2    0    0  0.73914446992E-02 -0.20014512501E-01 -0.70110159563E-03  0.21347264668E-01  0.00000000000E+00 0.  1.
     999901    1    3    3    0    0  0.39180217338E-01 -0.63825228617E-01 -0.91718244007E-01  0.88793073239E+00  0.88000000000E+00 0.  1.
        -11    1    4    4    0    0 -0.26619896901E-01  0.28043744921E-01  0.36492415828E-01  0.53169804158E-01  0.51100000000E-03 0. -1.
         11    1    4    4    0    0 -0.19951765136E-01  0.55795996197E-01  0.55926929774E-01  0.81482198784E-01  0.51100000000E-03 0.  1.
</event>
<event>
 8    1  0.1090774E+005  0.1043930E+01  0.7957747E-01            NaN
         13   -1    0    0    0    0  0.00000000000E+00  0.00000000000E+00  0.74505805969E-08  0.10566000000E+00  0.10566000000E+00 0. -1.
     999900   -1    0    0    0    0 -0.00000000000E+00 -0.00000000000E+00 -0.74505805969E-08  0.93827000000E+00  0.93827000000E+00 0. -1.
     999902    2    1    2    0    0 -0.17541020354E-01  0.12584814055E-02  0.16045032683E-01  0.10201242393E+01  0.10198464342E+01 0.  0.
     999903    2    3    3    0    0  0.10047997125E+00  0.68083242303E-01  0.38711190372E-01  0.12944570139E+00  0.22936452289E-01 0.  0.
         14    1    1    2    0    0  0.17541020354E-01 -0.12584814055E-02 -0.16045032683E-01  0.23805760737E-01  0.00000000000E+00 0.  1.
     999901    1    3    3    0    0 -0.11802099160E+00 -0.66824760898E-01 -0.22666157689E-01  0.89067853788E+00  0.88000000000E+00 0. -1.
        -11    1    4    4    0    0  0.63358058394E-01  0.51899621104E-01  0.17593495272E-01  0.83771155126E-01  0.51100000000E-03 0. -1.
         11    1    4    4    0    0  0.37121912851E-01  0.16183621199E-01  0.21117695100E-01  0.45674546261E-01  0.51100000000E-03 0.  1.
</event>
<event>
 8    1  0.1090774E+005  0.1043930E+01  0.7957747E-01            NaN
         13   -1    0    0    0    0  0.00000000000E+00  0.00000000000E+00  0.74505805969E-08  0.10566000000E+00  0.10566000000E+00 0.  1.
     999900   -1    0    0    0    0 -0.00000000000E+00 -0.00000000000E+00 -0.74505805969E-08  0.93827000000E+00  0.93827000000E+00 0. -1.
     999902    2    1    2    0    0  0.13454030386E-02  0.20378776797E-01  0.69666433023E-02  0.10223513353E+01  0.10221235806E+01 0.  0.
     999903    2    3    3    0    0  0.12635997820E+00 -0.29555514734E-01  0.13756673421E-01  0.13208835053E+00  0.20438046361E-01 0.  0.
         14    1    1    2    0    0 -0.13454030386E-02 -0.20378776797E-01 -0.69666433023E-02  0.21578664740E-01  0.00000000000E+00 0. -1.
     999901    1    3    3    0    0 -0.12501457516E+00  0.49934291531E-01 -0.67900301189E-02  0.89026298473E+00  0.88000000000E+00 0.  1.
        -11    1    4    4    0    0  0.12238823542E+00 -0.31113513087E-01  0.15912830810E-01  0.12728083191E+00  0.51100000000E-03 0. -1.
         11    1    4    4    0    0  0.39717427837E-02  0.15579983526E-02 -0.21561573888E-02  0.48075186211E-02  0.51100000000E-03 0.  1.
</event>
<event>
 8    1  0.1090774E+005  0.1043930E+01  0.7957747E-01            NaN
         13   -1    0    0    0    0  0.00000000000E+00  0.00000000000E+00  0.74505805969E-08  0.10566000000E+00  0.10566000000E+00 0.  1.
     999900   -1    0    0    0    0 -0.00000000000E+00 -0.00000000000E+00 -0.74505805969E-08  0.93827000000E+00  0.93827000000E+00 0.  1.
     999902    2    1    2    0    0  0.90918920464E-02  0.36956300282E-02  0.21547812923E-01  0.10202524067E+01  0.10199776198E+01 0.  0.
     999903    2    3    3    0    0 -0.61362714344E-01  0.73070869289E-01 -0.83669977016E-01  0.12848586848E+00  0.20080306150E-01 0.  0.
         14    1    1    2    0    0 -0.90918920464E-02 -0.36956300282E-02 -0.21547812923E-01  0.23677593291E-01  0.00000000000E+00 0. -1.
     999901    1    3    3    0    0  0.70454606390E-01 -0.69375239261E-01  0.10521778994E+00  0.89176653823E+00  0.88000000000E+00 0. -1.
        -11    1    4    4    0    0 -0.10016354347E-01  0.16733356659E-01 -0.27861208668E-01  0.34012360237E-01  0.51100000000E-03 0. -1.
         11    1    4    4    0    0 -0.51346359997E-01  0.56337512630E-01 -0.55808768348E-01  0.94473508243E-01  0.51100000000E-03 0.  1.
</event>
<event>
 8    1  0.1090774E+005  0.1043930E+01  0.7957747E-01            NaN
         13   -1    0    0    0    0  0.00000000000E+00  0.00000000000E+00  0.74505805969E-08  0.10566000000E+00  0.10566000000E+00 0.  1.
     999900   -1    0    0    0    0 -0.00000000000E+00 -0.00000000000E+00 -0.74505805969E-08  0.93827000000E+00  0.93827000000E+00 0.  1.
     999902    2    1    2    0    0 -0.17854170596E-02  0.18775092250E-01 -0.14287457412E-01  0.10202694158E+01  0.10199950283E+01 0.  0.
     999903    2    3    3    0    0  0.59429286978E-01  0.10833714206E+00 -0.40782412631E-01  0.13321215535E+00  0.28521862699E-01 0.  0.
         14    1    1    2    0    0  0.17854170596E-02 -0.18775092250E-01  0.14287457412E-01  0.23660584152E-01  0.00000000000E+00 0. -1.
     999901    1    3    3    0    0 -0.61214704037E-01 -0.89562049809E-01  0.26494955219E-01  0.88705726050E+00  0.88000000000E+00 0.  1.
        -11    1    4    4    0    0  0.29358326115E-01  0.66876240584E-01 -0.10718956952E-01  0.73820728973E-01  0.51100000000E-03 0.  1.
         11    1    4    4    0    0  0.30070960863E-01  0.41460901475E-01 -0.30063455679E-01  0.59391426374E-01  0.51100000000E-03 0. -1.
</event>
<event>
 8    1  0.1090774E+005  0.1043930E+01  0.7957747E-01            NaN
         13   -1    0    0    0    0  0.00000000000E+00  0.00000000000E+00  0.74505805969E-08  0.10566000000E+00  0.10566000000E+00 0. -1.
     999900   -1    0    0    0    0 -0.00000000000E+00 -0.00000000000E+00 -0.74505805969E-08  0.93827000000E+00  0.93827000000E+00 0.  1.
     999902    2    1    2    0    0 -0.22807976526E-01  0.45555616065E-04 -0.57745882846E-02  0.10204023197E+01  0.10201310418E+01 0.  0.
     999903    2    3    3    0    0 -0.80921871523E-01 -0.10147185675E+00  0.20353928203E-01  0.13227749226E+00  0.15432613616E-01 0.  0.
         14    1    1    2    0    0  0.22807976526E-01 -0.45555616065E-04  0.57745882846E-02  0.23527680259E-01  0.00000000000E+00 0. -1.
     999901    1    3    3    0    0  0.58113894997E-01  0.10151741237E+00 -0.26128516488E-01  0.88812482748E+00  0.88000000000E+00 0. -1.
        -11    1    4    4    0    0 -0.64194254448E-01 -0.84846978191E-01  0.21939740680E-01  0.10863482570E+00  0.51100000000E-03 0.  1.
         11    1    4    4    0    0 -0.16727617075E-01 -0.16624878562E-01 -0.15858124771E-02  0.23642666568E-01  0.51100000000E-03 0. -1.
</event>
<event>
 8    1  0.1090774E+005  0.1043930E+01  0.7957747E-01            NaN
         13   -1    0    0    0    0  0.00000000000E+00  0.00000000000E+00  0.74505805969E-08  0.10566000000E+00  0.10566000000E+00 0. -1.
     999900   -1    0    0    0    0 -0.00000000000E+00 -0.00000000000E+00 -0.74505805969E-08  0.93827000000E+00  0.93827000000E+00 0. -1.
     999902    2    1    2    0    0 -0.11608656274E-01 -0.17666507811E-01  0.10801421850E-01  0.10201910634E+01  0.10199148340E+01 0.  0.
     999903    2    3    3    0    0 -0.44878939918E-01 -0.12345322044E+00 -0.39476431461E-02  0.13310861214E+00  0.21154239666E-01 0.  0.
         14    1    1    2    0    0  0.11608656274E-01  0.17666507811E-01 -0.10801421850E-01  0.23738936638E-01  0.00000000000E+00 0. -1.
     999901    1    3    3    0    0  0.33270283644E-01  0.10578671263E+00  0.14749064996E-01  0.88708245122E+00  0.88000000000E+00 0.  1.
        -11    1    4    4    0    0 -0.17326785710E-01 -0.45510748433E-01 -0.11667928052E-01  0.50078412435E-01  0.51100000000E-03 0.  1.
         11    1    4    4    0    0 -0.27552154208E-01 -0.77942472004E-01  0.77202849057E-02  0.83030199708E-01  0.51100000000E-03 0. -1.
</event>
<event>
 8    1  0.1090774E+005  0.1043930E+01  0.7957747E-01            NaN
         13   -1    0    0    0    0  0.00000000000E+00  0.00000000000E+00  0.74505805969E-08  0.10566000000E+00  0.10566000000E+00 0.  1.
     999900   -1    0    0    0    0 -0.00000000000E+00 -0.00000000000E+00 -0.74505805969E-08  0.93827000000E+00  0.93827000000E+00 0. -1.
     999902    2    1    2    0    0 -0.85942019216E-02 -0.17979298884E-01  0.13086572445E-01  0.10200894070E+01  0.10198107787E+01 0.  0.
     999903    2    3    3    0    0 -0.16792560976E-01  0.48914176421E-01 -0.11557114290E+00  0.12818427875E+00  0.19998337138E-01 0.  0.
         14    1    1    2    0    0  0.85942019216E-02  0.17979298884E-01 -0.13086572445E-01  0.23840592975E-01  0.00000000000E+00 0. -1.
     999901    1    3    3    0    0  0.81983590547E-02 -0.66893475304E-01  0.12865771534E+00  0.89190512828E+00  0.88000000000E+00 0.  1.
        -11    1    4    4    0    0 -0.33076029730E-02  0.35436540119E-01 -0.64523338386E-01  0.73689964924E-01  0.51100000000E-03 0. -1.
         11    1    4    4    0    0 -0.13484958003E-01  0.13477636302E-01 -0.51047804513E-01  0.54494313824E-01  0.51100000000E-03 0.  1.
</event>
<event>
 8    1  0.1090774E+005  0.1043930E+01  0.7957747E-01            NaN
         13   -1    0    0    0    0  0.00000000000E+00  0.00000000000E+00  0.74505805969E-08  0.10566000000E+00  0.10566000000E+00 0. -1.
     999900   -1    0    0    0    0 -0.00000000000E+00 -0.00000000000E+00 -0.74505805969E-08  0.93827000000E+00  0.93827000000E+00 0.  1.
     999902    2    1    2    0    0  0.11505408925E-02  0.14464340943E-01  0.20589261681E-01  0.10187415384E+01  0.10184300974E+01 0.  0.
     999903    2    3    3    0    0 -0.60317522981E-01  0.51222485348E-01  0.10328188655E+00  0.13196786133E+00  0.22054971159E-01 0.  0.
         14    1    1    2    0    0 -0.11505408925E-02 -0.14464340943E-01 -0.20589261681E-01  0.25188461641E-01  0.00000000000E+00 0.  1.
     999901    1    3    3    0    0  0.61468063874E-01 -0.36758144405E-01 -0.82692624865E-01  0.88677367702E+00  0.88000000000E+00 0.  1.
        -11    1    4    4    0    0 -0.12354679907E-01  0.23783976478E-01  0.30989586649E-01  0.40974763628E-01  0.51100000000E-03 0.  1.
         11    1    4    4    0    0 -0.47962843074E-01  0.27438508870E-01  0.72292299897E-01  0.90993097706E-01  0.51100000000E-03 0. -1.
</event>
<event>
 8    1  0.1090774E+005  0.1043930E+01  0.7957747E-01            NaN
         13   -1    0    0    0    0  0.00000000000E+00  0.00000000000E+00  0.74505805969E-08  0.10566000000E+00  0.10566000000E+00 0.  1.
     999900   -1    0    0    0    0 -0.00000000000E+00 -0.00000000000E+00 -0.74505805969E-08  0.93827000000E+00  0.93827000000E+00 0. -1.
     999902    2    1    2    0    0 -0.74497860270E-02  0.20781911756E-01  0.80585402860E-02  0.10204283567E+01  0.10201576858E+01 0.  0.
     999903    2    3    3    0    0  0.11462050402E+00 -0.14211526098E-01  0.56270049470E-01  0.13000708219E+00  0.19892097344E-01 0.  0.
         14    1    1    2    0    0  0.74497860270E-02 -0.20781911756E-01 -0.80585402860E-02  0.23501643338E-01  0.00000000000E+00 0. -1.
     999901    1    3    3    0    0 -0.12207029005E+00  0.34993437853E-01 -0.48211509184E-01  0.89042127447E+00  0.88000000000E+00 0.  1.
        -11    1    4    4    0    0  0.62067400826E-01 -0.12242033884E-01  0.20903580181E-01  0.66629200988E-01  0.51100000000E-03 0. -1.
         11    1    4    4    0    0  0.52553103198E-01 -0.19694922136E-02  0.35366469288E-01  0.63377881206E-01  0.51100000000E-03 0.  1.
</event>
<event>
 8    1  0.1090774E+005  0.1043930E+01  0.7957747E-01            NaN
         13   -1    0    0    0    0  0.00000000000E+00  0.00000000000E+00  0.74505805969E-08  0.10566000000E+00  0.10566000000E+00 0. -1.
     999900   -1    0    0    0    0 -0.00000000000E+00 -0.00000000000E+00 -0.74505805969E-08  0.93827000000E+00  0.93827000000E+00 0.  1.
     999902    2    1    2    0    0 -0.17326976474E-01 -0.27283421114E-02 -0.15889010387E-01  0.10202629635E+01  0.10199884245E+01 0.  0.
     999903    2    3    3    0    0 -0.12293111929E-01 -0.86990031102E-01 -0.97007058433E-01  0.13250989553E+00  0.20739260218E-01 0.  0.
         14    1    1    2    0    0  0.17326976474E-01  0.27283421114E-02  0.15889010387E-01  0.23667036475E-01  0.00000000000E+00 0. -1.
     999901    1    3    3    0    0 -0.50338645456E-02  0.84261688990E-01  0.81118048046E-01  0.88775306800E+00  0.88000000000E+00 0. -1.
        -11    1    4    4    0    0 -0.17113079002E-01 -0.62948844431E-01 -0.63986537845E-01  0.91378075240E-01  0.51100000000E-03 0.  1.
         11    1    4    4    0    0  0.48199670734E-02 -0.24041186671E-01 -0.33020520588E-01  0.41131820286E-01  0.51100000000E-03 0. -1.
</event>
<event>
 8    1  0.1090774E+005  0.1043930E+01  0.7957747E-01            NaN
         13   -1    0    0    0    0  0.00000000000E+00  0.00000000000E+00  0.74505805969E-08  0.10566000000E+00  0.10566000000E+00 0.  1.
     999900   -1    0    0    0    0 -0.00000000000E+00 -0.00000000000E+00 -0.74505805969E-08  0.93827000000E+00  0.93827000000E+00 0.  1.
     999902    2    1    2    0    0 -0.11117433894E-01  0.10160256464E-01  0.19978968946E-01  0.10189102608E+01  0.10186030298E+01 0.  0.
     999903    2    3    3    0    0  0.38132670096E-02  0.85691452404E-01  0.98551272030E-01  0.13206106610E+00  0.19240736479E-01 0.  0.
         14    1    1    2    0    0  0.11117433894E-01 -0.10160256464E-01 -0.19978968946E-01  0.25019739166E-01  0.00000000000E+00 0. -1.
     999901    1    3    3    0    0 -0.14930700904E-01 -0.75531195939E-01 -0.78572303084E-01  0.88684919473E+00  0.88000000000E+00 0.  1.
        -11    1    4    4    0    0  0.92580064750E-02  0.60953819518E-01  0.60755251833E-01  0.86559462475E-01  0.51100000000E-03 0.  1.
         11    1    4    4    0    0 -0.54447394654E-02  0.24737632886E-01  0.37796020197E-01  0.45501603624E-01  0.51100000000E-03 0. -1.
</event>
<event>
 8    1  0.1090774E+005  0.1043930E+01  0.7957747E-01            NaN
         13   -1    0    0    0    0  0.00000000000E+00  0.00000000000E+00  0.74505805969E-08  0.10566000000E+00  0.10566000000E+00 0. -1.
     999900   -1    0    0    0    0 -0.00000000000E+00 -0.00000000000E+00 -0.74505805969E-08  0.93827000000E+00  0.93827000000E+00 0. -1.
     999902    2    1    2    0    0 -0.38543844605E-03 -0.22496452810E-01  0.73880759192E-02  0.10202483063E+01  0.10199734231E+01 0.  0.
     999903    2    3    3    0    0  0.42273289051E-01 -0.92451451997E-01  0.83425436582E-01  0.13317719912E+00  0.21025245589E-01 0.  0.
         14    1    1    2    0    0  0.38543844605E-03  0.22496452810E-01 -0.73880759192E-02  0.23681693723E-01  0.00000000000E+00 0.  1.
     999901    1    3    3    0    0 -0.42658727497E-01  0.69954999187E-01 -0.76037360662E-01  0.88707110716E+00  0.88000000000E+00 0.  1.
        -11    1    4    4    0    0  0.13013925037E-01 -0.42599684613E-01  0.25433731748E-01  0.51295528124E-01  0.51100000000E-03 0.  1.
         11    1    4    4    0    0  0.29259364014E-01 -0.49851767384E-01  0.57991704834E-01  0.81881670992E-01  0.51100000000E-03 0. -1.
</event>
<event>
 8    1  0.1090774E+005  0.1043930E+01  0.7957747E-01            NaN
         13   -1    0    0    0    0  0.00000000000E+00  0.00000000000E+00  0.74505805969E-08  0.10566000000E+00  0.10566000000E+00 0. -1.
     999900   -1    0    0    0    0 -0.00000000000E+00 -0.00000000000E+00 -0.74505805969E-08  0.93827000000E+00  0.93827000000E+00 0.  1.
     999902    2    1    2    0    0  0.35199363264E-02 -0.20407560304E-01  0.12258299625E-01  0.10198649968E+01  0.10195810352E+01 0.  0.
     999903    2    3    3    0    0  0.42282938315E-01  0.31450093555E-01 -0.11307560680E+00  0.12862968854E+00  0.31345632298E-01 0.  0.
         14    1    1    2    0    0 -0.35199363264E-02  0.20407560304E-01 -0.12258299625E-01  0.24065003200E-01  0.00000000000E+00 0.  1.
     999901    1    3    3    0    0 -0.38763001988E-01 -0.51857653860E-01  0.12533390642E+00  0.89123530826E+00  0.88000000000E+00 0. -1.
        -11    1    4    4    0    0  0.43783493507E-01  0.35870989917E-01 -0.10513547275E+00  0.11940456848E+00  0.51100000000E-03 0.  1.
         11    1    4    4    0    0 -0.15005551918E-02 -0.44208963620E-02 -0.79401340450E-02  0.92251200632E-02  0.51100000000E-03 0. -1.
</event>
<event>
 8    1  0.1090774E+005  0.1043930E+01  0.7957747E-01            NaN
         13   -1    0    0    0    0  0.00000000000E+00  0.00000000000E+00  0.74505805969E-08  0.10566000000E+00  0.10566000000E+00 0. -1.
     999900   -1    0    0    0    0 -0.00000000000E+00 -0.00000000000E+00 -0.74505805969E-08  0.93827000000E+00  0.93827000000E+00 0.  1.
     999902    2    1    2    0    0  0.12129160053E-01 -0.22158386334E-02 -0.20681907613E-01  0.10198516328E+01  0.10195673519E+01 0.  0.
     999903    2    3    3    0    0  0.12115538184E+00 -0.45945086970E-01 -0.15878540457E-01  0.13203293705E+00  0.19773488645E-01 0.  0.
         14    1    1    2    0    0 -0.12129160053E-01  0.22158386334E-02  0.20681907613E-01  0.24078367198E-01  0.00000000000E+00 0. -1.
     999901    1    3    3    0    0 -0.10902622178E+00  0.43729248337E-01 -0.48033671556E-02  0.88781869576E+00  0.88000000000E+00 0. -1.
        -11    1    4    4    0    0  0.28977405459E-01 -0.59893741077E-02  0.32144156979E-02  0.29768376151E-01  0.51100000000E-03 0. -1.
         11    1    4    4    0    0  0.92177976378E-01 -0.39955712863E-01 -0.19092956155E-01  0.10226456090E+00  0.51100000000E-03 0.  1.
</event>
<event>
 8    1  0.1090774E+005  0.1043930E+01  0.7957747E-01            NaN
         13   -1    0    0    0    0  0.00000000000E+00  0.00000000000E+00  0.74505805969E-08  0.10566000000E+00  0.10566000000E+00 0. -1.
     999900   -1    0    0    0    0 -0.00000000000E+00 -0.00000000000E+00 -0.74505805969E-08  0.93827000000E+00  0.93827000000E+00 0.  1.
     999902    2    1    2    0    0 -0.18822992886E-01  0.26001542365E-02 -0.14830647955E-01  0.10198257684E+01  0.10195408692E+01 0.  0.
     999903    2    3    3    0    0  0.73256107534E-01 -0.52687994327E-02  0.10220874532E+00  0.12727957868E+00  0.18953785639E-01 0.  0.
         14    1    1    2    0    0  0.18822992886E-01 -0.26001542365E-02  0.14830647955E-01  0.24104231620E-01  0.00000000000E+00 0. -1.
     999901    1    3    3    0    0 -0.92079100420E-01  0.78689536692E-02 -0.11703939328E+00  0.89254618970E+00  0.88000000000E+00 0.  1.
        -11    1    4    4    0    0  0.59972138191E-01 -0.63488296382E-03  0.92255604360E-01  0.11003825740E+00  0.51100000000E-03 0.  1.
         11    1    4    4    0    0  0.13283969343E-01 -0.46339164689E-02  0.99531409644E-02  0.17241321278E-01  0.51100000000E-03 0. -1.
</event>
<event>
 8    1  0.1090774E+005  0.1043930E+01  0.7957747E-01            NaN
         13   -1    0    0    0    0  0.00000000000E+00  0.00000000000E+00  0.74505805969E-08  0.10566000000E+00  0.10566000000E+00 0. -1.
     999900   -1    0    0    0    0 -0.00000000000E+00 -0.00000000000E+00 -0.74505805969E-08  0.93827000000E+00  0.93827000000E+00 0.  1.
     999902    2    1    2    0    0  0.21771687729E-02 -0.11597210831E-01 -0.20538897368E-01  0.10202428375E+01  0.10199678259E+01 0.  0.
     999903    2    3    3    0    0 -0.18110268122E-01  0.11254136550E+00  0.54562395855E-01  0.12813176230E+00  0.21145985606E-01 0.  0.
         14    1    1    2    0    0 -0.21771687729E-02  0.11597210831E-01  0.20538897368E-01  0.23687162515E-01  0.00000000000E+00 0. -1.
     999901    1    3    3    0    0  0.20287436895E-01 -0.12413857633E+00 -0.75101293223E-01  0.89211107519E+00  0.88000000000E+00 0. -1.
        -11    1    4    4    0    0 -0.73908917163E-02  0.56028131754E-01  0.15512237442E-01  0.58606036035E-01  0.51100000000E-03 0.  1.
         11    1    4    4    0    0 -0.10719376405E-01  0.56513233748E-01  0.39050158413E-01  0.69525726262E-01  0.51100000000E-03 0. -1.
</event>
<event>
 8    1  0.1090774E+005  0.1043930E+01  0.7957747E-01            NaN
         13   -1    0    0    0    0  0.00000000000E+00  0.00000000000E+00  0.74505805969E-08  0.10566000000E+00  0.10566000000E+00 0. -1.
     999900   -1    0    0    0    0 -0.00000000000E+00 -0.00000000000E+00 -0.74505805969E-08  0.93827000000E+00  0.93827000000E+00 0. -1.
     999902    2    1    2    0    0 -0.19151021785E-01  0.13753689113E-01 -0.29336455913E-02  0.10201701205E+01  0.10198933978E+01 0.  0.
     999903    2    3    3    0    0 -0.87493245787E-01 -0.12815880517E-01  0.95258566217E-01  0.13167796400E+00  0.21108692869E-01 0.  0.
         14    1    1    2    0    0  0.19151021785E-01 -0.13753689113E-01  0.29336455913E-02  0.23759879547E-01  0.00000000000E+00 0. -1.
     999901    1    3    3    0    0  0.68342224002E-01  0.26569569629E-01 -0.98192211809E-01  0.88849215645E+00  0.88000000000E+00 0. -1.
        -11    1    4    4    0    0 -0.37218348736E-01 -0.15761740981E-01  0.38980454942E-01  0.56154919196E-01  0.51100000000E-03 0.  1.
         11    1    4    4    0    0 -0.50274897052E-01  0.29458604645E-02  0.56278111275E-01  0.75523044808E-01  0.51100000000E-03 0. -1.
</event>
<event>
 8    1  0.1090774E+005  0.1043930E+01  0.7957747E-01            NaN
         13   -1    0    0    0    0  0.00000000000E+00  0.00000000000E+00  0.74505805969E-08  0.10566000000E+00  0.10566000000E+00 0.  1.
     999900   -1    0    0    0    0 -0.00000000000E+00 -0.00000000000E+00 -0.74505805969E-08  0.93827000000E+00  0.93827000000E+00 0. -1.
     999902    2    1    2    0    0 -0.13885159601E-01  0.56243104571E-02  0.19897453002E-01  0.10190233912E+01  0.10187189665E+01 0.  0.
     999903    2    3    3    0    0  0.26635507736E-01  0.79422392177E-01 -0.94227360418E-01  0.12766905405E+00  0.20080469577E-01 0.  0.
         14    1    1    2    0    0  0.13885159601E-01 -0.56243104571E-02 -0.19897453002E-01  0.24906608786E-01  0.00000000000E+00 0. -1.
     999901    1    3    3    0    0 -0.40520667337E-01 -0.73798081720E-01  0.11412481342E+00  0.89135433717E+00  0.88000000000E+00 0.  1.
        -11    1    4    4    0    0  0.49761123790E-02  0.36288705616E-01 -0.30139483588E-01  0.47437131466E-01  0.51100000000E-03 0. -1.
         11    1    4    4    0    0  0.21659395357E-01  0.43133686561E-01 -0.64087876830E-01  0.80231922582E-01  0.51100000000E-03 0.  1.
</event>
<event>
 8    1  0.1668513E+005  0.1043930E+01  0.7957747E-01            NaN
         13   -1    0    0    0    0  0.00000000000E+00  0.00000000000E+00  0.74505805969E-08  0.10566000000E+00  0.10566000000E+00 0.  1.
     999900   -1    0    0    0    0 -0.00000000000E+00 -0.00000000000E+00 -0.74505805969E-08  0.93827000000E+00  0.93827000000E+00 0. -1.
     999902    2    1    2    0    0  0.34938004501E-02 -0.25223665530E-02  0.24531448386E-01  0.10190229541E+01  0.10187185186E+01 0.  0.
     999903    2    3    3    0    0  0.53063021786E-01 -0.52097503281E-01  0.10820562404E+00  0.13227825041E+00  0.16101066090E-01 0.  0.
         14    1    1    2    0    0 -0.34938004501E-02  0.25223665530E-02 -0.24531448386E-01  0.24907045881E-01  0.00000000000E+00 0. -1.
     999901    1    3    3    0    0 -0.49569221336E-01  0.49575136728E-01 -0.83674175650E-01  0.88674470371E+00  0.88000000000E+00 0. -1.
        -11    1    4    4    0    0  0.25875617654E-01 -0.36198397824E-01  0.60199868102E-01  0.74860916602E-01  0.51100000000E-03 0.  1.
         11    1    4    4    0    0  0.27187404132E-01 -0.15899105457E-01  0.48005755934E-01  0.57417333808E-01  0.51100000000E-03 0. -1.
</event>
<event>
 8    1  0.1090774E+005  0.1043930E+01  0.7957747E-01            NaN
         13   -1    0    0    0    0  0.00000000000E+00  0.00000000000E+00  0.74505805969E-08  0.10566000000E+00  0.10566000000E+00 0.  1.
     999900   -1    0    0    0    0 -0.00000000000E+00 -0.00000000000E+00 -0.74505805969E-08  0.93827000000E+00  0.93827000000E+00 0. -1.
     999902    2    1    2    0    0 -0.23372291064E-01  0.26387190141E-03 -0.66843817892E-02  0.10196192086E+01  0.10193293462E+01 0.  0.
     999903    2    3    3    0    0 -0.12661256473E+00 -0.24879879324E-02  0.33730343122E-01  0.13265839954E+00  0.20581139215E-01 0.  0.
         14    1    1    2    0    0  0.23372291064E-01 -0.26387190141E-03  0.66843817892E-02  0.24310791387E-01  0.00000000000E+00 0.  1.
     999901    1    3    3    0    0  0.10324027366E+00  0.27518598338E-02 -0.40414724911E-01  0.88696080907E+00  0.88000000000E+00 0. -1.
        -11    1    4    4    0    0 -0.45247360155E-01 -0.75934165760E-03  0.22372392716E-01  0.50484505322E-01  0.51100000000E-03 0.  1.
         11    1    4    4    0    0 -0.81365204571E-01 -0.17286462748E-02  0.11357950406E-01  0.82173894220E-01  0.51100000000E-03 0. -1.
</event>
<event>
 8    1  0.1090774E+005  0.1043930E+01  0.7957747E-01            NaN
         13   -1    0    0    0    0  0.00000000000E+00  0.00000000000E+00  0.74505805969E-08  0.10566000000E+00  0.10566000000E+00 0.  1.
     999900   -1    0    0    0    0 -0.00000000000E+00 -0.00000000000E+00 -0.74505805969E-08  0.93827000000E+00  0.93827000000E+00 0.  1.
     999902    2    1    2    0    0  0.21368218494E-01  0.11946818476E-02  0.96712776874E-02  0.10204446506E+01  0.10201743592E+01 0.  0.
     999903    2    3    3    0    0 -0.97138457767E-01  0.29330475330E-01 -0.75607295995E-01  0.12797174323E+00  0.19082638601E-01 0.  0.
         14    1    1    2    0    0 -0.21368218494E-01 -0.11946818476E-02 -0.96712776874E-02  0.23485349442E-01  0.00000000000E+00 0. -1.
     999901    1    3    3    0    0  0.11850667626E+00 -0.28135793483E-01  0.85278573683E-01  0.89247290733E+00  0.88000000000E+00 0. -1.
        -11    1    4    4    0    0 -0.40621646084E-01  0.73350331737E-02 -0.40816468635E-01  0.58053131483E-01  0.51100000000E-03 0. -1.
         11    1    4    4    0    0 -0.56516811683E-01  0.21995442156E-01 -0.34790827361E-01  0.69918611742E-01  0.51100000000E-03 0.  1.
</event>
<event>
 8    1  0.1090774E+005  0.1043930E+01  0.7957747E-01            NaN
         13   -1    0    0    0    0  0.00000000000E+00  0.00000000000E+00  0.74505805969E-08  0.10566000000E+00  0.10566000000E+00 0. -1.
     999900   -1    0    0    0    0 -0.00000000000E+00 -0.00000000000E+00 -0.74505805969E-08  0.93827000000E+00  0.93827000000E+00 0. -1.
     999902    2    1    2    0    0  0.13310383578E-01  0.19714407371E-01  0.11262662207E-01  0.10176113426E+01  0.10172709437E+01 0.  0.
     999903    2    3    3    0    0 -0.11959357267E+00 -0.79600496573E-03  0.37781764871E-01  0.12700065242E+00  0.19961155069E-01 0.  0.
         14    1    1    2    0    0 -0.13310383578E-01 -0.19714407371E-01 -0.11262662207E-01  0.26318657431E-01  0.00000000000E+00 0.  1.
     999901    1    3    3    0    0  0.13290395624E+00  0.20510412336E-01 -0.26519102664E-01  0.89061069015E+00  0.88000000000E+00 0.  1.
        -11    1    4    4    0    0 -0.46535917602E-01  0.51092802824E-03  0.46632635318E-02  0.46774563839E-01  0.51100000000E-03 0.  1.
         11    1    4    4    0    0 -0.73057655063E-01 -0.13069329940E-02  0.33118501340E-01  0.80226088582E-01  0.51100000000E-03 0. -1.
</event>
<event>
 8    1  0.1090774E+005  0.1043930E+01  0.7957747E-01            NaN
         13   -1    0    0    0    0  0.00000000000E+00  0.00000000000E+00  0.74505805969E-08  0.10566000000E+00  0.10566000000E+00 0. -1.
     999900   -1    0    0    0    0 -0.00000000000E+00 -0.00000000000E+00 -0.74505805969E-08  0.93827000000E+00  0.93827000000E+00 0. -1.
     999902    2    1    2    0    0 -0.21188548433E-01  0.88659995627E-02 -0.20274170754E-02  0.10208720089E+01  0.10206115753E+01 0.  0.
     999903    2    3    3    0    0  0.44585458858E-01  0.39043125228E-01 -0.11473970145E+00  0.13073666078E+00  0.20362873403E-01 0.  0.
         14    1    1    2    0    0  0.21188548433E-01 -0.88659995627E-02  0.20274170754E-02  0.23057991087E-01  0.00000000000E+00 0.  1.
     999901    1    3    3    0    0 -0.65774007292E-01 -0.30177125665E-01  0.11271228438E+00  0.89013534813E+00  0.88000000000E+00 0. -1.
        -11    1    4    4    0    0  0.10671322164E-01  0.74690897409E-03 -0.28755723946E-01  0.30685302188E-01  0.51100000000E-03 0. -1.
         11    1    4    4    0    0  0.33914136694E-01  0.38296216254E-01 -0.85983977506E-01  0.10005135859E+00  0.51100000000E-03 0.  1.
</event>
<event>
 8    1  0.1090774E+005  0.1043930E+01  0.7957747E-01            NaN
         13   -1    0    0    0    0  0.00000000000E+00  0.00000000000E+00  0.74505805969E-08  0.10566000000E+00  0.10566000000E+00 0. -1.
     999900   -1    0    0    0    0 -0.00000000000E+00 -0.00000000000E+00 -0.74505805969E-08  0.93827000000E+00  0.93827000000E+00 0. -1.
     999902    2    1    2    0    0  0.23567754502E-01 -0.15440958448E-02 -0.55882636361E-02  0.10196596070E+01  0.10193707187E+01 0.  0.
     999903    2    3    3    0    0  0.52669497732E-01 -0.11849075931E+00 -0.46787666170E-03  0.13143122879E+00  0.21443249772E-01 0.  0.
         14    1    1    2    0    0 -0.23567754502E-01  0.15440958448E-02  0.55882636361E-02  0.24270392966E-01  0.00000000000E+00 0. -1.
     999901    1    3    3    0    0 -0.29101743231E-01  0.11694666346E+00 -0.51203869744E-02  0.88822837824E+00  0.88000000000E+00 0.  1.
        -11    1    4    4    0    0  0.38109288092E-01 -0.10339279248E+00 -0.34002463681E-02  0.11024613450E+00  0.51100000000E-03 0.  1.
         11    1    4    4    0    0  0.14560209640E-01 -0.15097966823E-01  0.29323697064E-02  0.21185094289E-01  0.51100000000E-03 0. -1.
</event>
<event>
 8    1  0.1090774E+005  0.1043930E+01  0.7957747E-01            NaN
         13   -1    0    0    0    0  0.00000000000E+00  0.00000000000E+00  0.74505805969E-08  0.10566000000E+00  0.10566000000E+00 0. -1.
     999900   -1    0    0    0    0 -0.00000000000E+00 -0.00000000000E+00 -0.74505805969E-08  0.93827000000E+00  0.93827000000E+00 0. -1.
     999902    2    1    2    0    0 -0.97703368325E-02  0.93993996534E-02 -0.19795598269E-01  0.10199367946E+01  0.10196545449E+01 0.  0.
     999903    2    3    3    0    0  0.59583145475E-02  0.58491643744E-01  0.11251563841E+00  0.12855376677E+00  0.20236802230E-01 0.  0.
         14    1    1    2    0    0  0.97703368325E-02 -0.93993996534E-02  0.19795598269E-01  0.23993205423E-01  0.00000000000E+00 0. -1.
     999901    1    3    3    0    0 -0.15728651380E-01 -0.49092244091E-01 -0.13231123668E+00  0.89138302780E+00  0.88000000000E+00 0. -1.
        -11    1    4    4    0    0 -0.44379619267E-02  0.29611808115E-01  0.41404696455E-01  0.51099556705E-01  0.51100000000E-03 0. -1.
         11    1    4    4    0    0  0.10396276474E-01  0.28879835629E-01  0.71110941956E-01  0.77454210069E-01  0.51100000000E-03 0.  1.
</event>
<event>
 8    1  0.1090774E+005  0.1043930E+01  0.7957747E-01            NaN
         13   -1    0    0    0    0  0.00000000000E+00  0.00000000000E+00  0.74505805969E-08  0.10566000000E+00  0.10566000000E+00 0.  1.
     999900   -1    0    0    0    0 -0.00000000000E+00 -0.00000000000E+00 -0.74505805969E-08  0.93827000000E+00  0.93827000000E+00 0. -1.
     999902    2    1    2    0    0 -0.35221842802E-04  0.12477908279E-01 -0.19244896097E-01  0.10209938830E+01  0.10207362263E+01 0.  0.
     999903    2    3    3    0    0 -0.95336245868E-02 -0.77208262683E-02 -0.13155354576E+00  0.13357546914E+00  0.19635921121E-01 0.  0.
         14    1    1    2    0    0  0.35221842802E-04 -0.12477908279E-01  0.19244896097E-01  0.22936116964E-01  0.00000000000E+00 0.  1.
     999901    1    3    3    0    0  0.94984027440E-02  0.20198734547E-01  0.11230864966E+00  0.88741841390E+00  0.88000000000E+00 0.  1.
        -11    1    4    4    0    0 -0.11372612161E-01 -0.85326980918E-02 -0.49713725636E-01  0.51709369380E-01  0.51100000000E-03 0.  1.
         11    1    4    4    0    0  0.18389875744E-02  0.81187182354E-03 -0.81839820124E-01  0.81866099761E-01  0.51100000000E-03 0. -1.
</event>
<event>
 8    1  0.1090774E+005  0.1043930E+01  0.7957747E-01            NaN
         13   -1    0    0    0    0  0.00000000000E+00  0.00000000000E+00  0.74505805969E-08  0.10566000000E+00  0.10566000000E+00 0. -1.
     999900   -1    0    0    0    0 -0.00000000000E+00 -0.00000000000E+00 -0.74505805969E-08  0.93827000000E+00  0.93827000000E+00 0. -1.
     999902    2    1    2    0    0 -0.18036407467E-01 -0.15430768781E-01 -0.18531501482E-03  0.10201927937E+01  0.10199166051E+01 0.  0.
     999903    2    3    3    0    0 -0.11204926367E+00 -0.63226992176E-01  0.29327839178E-01  0.13340424940E+00  0.19592896117E-01 0.  0.
         14    1    1    2    0    0  0.18036407467E-01  0.15430768781E-01  0.18531501482E-03  0.23737206263E-01  0.00000000000E+00 0.  1.
     999901    1    3    3    0    0  0.94012856201E-01  0.47796223396E-01 -0.29513154193E-01  0.88678854434E+00  0.88000000000E+00 0. -1.
        -11    1    4    4    0    0 -0.83166800661E-01 -0.51242860067E-01  0.29783472147E-01  0.10212670451E+00  0.51100000000E-03 0.  1.
         11    1    4    4    0    0 -0.28882463007E-01 -0.11984132110E-01 -0.45563296887E-03  0.31277544887E-01  0.51100000000E-03 0. -1.
</event>
<event>
 8    1  0.1090774E+005  0.1043930E+01  0.7957747E-01            NaN
         13   -1    0    0    0    0  0.00000000000E+00  0.00000000000E+00  0.74505805969E-08  0.10566000000E+00  0.10566000000E+00 0. -1.
     999900   -1    0    0    0    0 -0.00000000000E+00 -0.00000000000E+00 -0.74505805969E-08  0.93827000000E+00  0.93827000000E+00 0. -1.
     999902    2    1    2    0    0  0.20799239611E-01 -0.10794292923E-01 -0.72581945834E-02  0.10193982549E+01  0.10191030348E+01 0.  0.
     999903    2    3    3    0    0  0.52499191475E-01  0.18247927726E-01 -0.11743825590E+00  0.13148610643E+00  0.20191588899E-01 0.  0.
         14    1    1    2    0    0 -0.20799239611E-01  0.10794292923E-01  0.72581945834E-02  0.24531745081E-01  0.00000000000E+00 0.  1.
     999901    1    3    3    0    0 -0.31699951863E-01 -0.29042220648E-01  0.11018006132E+00  0.88791214849E+00  0.88000000000E+00 0.  1.
        -11    1    4    4    0    0  0.39820007140E-01  0.13457673510E-01 -0.65677964326E-01  0.77978189668E-01  0.51100000000E-03 0.  1.
         11    1    4    4    0    0  0.12679184335E-01  0.47902542153E-02 -0.51760291576E-01  0.53507916759E-01  0.51100000000E-03 0. -1.
</event>
<event>
 8    1  0.1090774E+005  0.1043930E+01  0.7957747E-01            NaN
         13   -1    0    0    0    0  0.00000000000E+00  0.00000000000E+00  0.74505805969E-08  0.10566000000E+00  0.10566000000E+00 0. -1.
     999900   -1    0    0    0    0 -0.00000000000E+00 -0.00000000000E+00 -0.74505805969E-08  0.93827000000E+00  0.93827000000E+00 0. -1.
     999902    2    1    2    0    0 -0.12372367939E-01 -0.18436932603E-01  0.83589741407E-02  0.10202051518E+01  0.10199292541E+01 0.  0.
     999903    2    3    3    0    0  0.63349045666E-01 -0.10870605661E+00  0.33374749030E-01  0.13200020013E+00  0.21910514172E-01 0.  0.
         14    1    1    2    0    0  0.12372367939E-01  0.18436932603E-01 -0.83589741407E-02  0.23724848174E-01  0.00000000000E+00 0.  1.
     999901    1    3    3    0    0 -0.75721413605E-01  0.90269124004E-01 -0.25015774889E-01  0.88820495170E+00  0.88000000000E+00 0. -1.
        -11    1    4    4    0    0  0.61153827058E-01 -0.95923099441E-01  0.24765054347E-01  0.11642422689E+00  0.51100000000E-03 0. -1.
         11    1    4    4    0    0  0.21952186082E-02 -0.12782957166E-01  0.86096946827E-02  0.15575973233E-01  0.51100000000E-03 0.  1.
</event>
<event>
 8    1  0.1090774E+005  0.1043930E+01  0.7957747E-01            NaN
         13   -1    0    0    0    0  0.00000000000E+00  0.00000000000E+00  0.74505805969E-08  0.10566000000E+00  0.10566000000E+00 0.  1.
     999900   -1    0    0    0    0 -0.00000000000E+00 -0.00000000000E+00 -0.74505805969E-08  0.93827000000E+00  0.93827000000E+00 0.  1.
     999902    2    1    2    0    0  0.11944263976E-01  0.10033893832E-01  0.18445026564E-01  0.10197729416E+01  0.10194867772E+01 0.  0.
     999903    2    3    3    0    0 -0.99629689764E-01 -0.78198322771E-01  0.65873886177E-02  0.12827180596E+00  0.19214831498E-01 0.  0.
         14    1    1    2    0    0 -0.11944263976E-01 -0.10033893832E-01 -0.18445026564E-01  0.24157058437E-01  0.00000000000E+00 0. -1.
     999901    1    3    3    0    0  0.11157395374E+00  0.88232216602E-01  0.11857637947E-01  0.89150113560E+00  0.88000000000E+00 0. -1.
        -11    1    4    4    0    0 -0.66160360676E-01 -0.46338235480E-01 -0.39569107270E-02  0.80872391183E-01  0.51100000000E-03 0. -1.
         11    1    4    4    0    0 -0.33469329088E-01 -0.31860087290E-01  0.10544299345E-01  0.47399414779E-01  0.51100000000E-03 0.  1.
</event>
<event>
 8    1  0.1090774E+005  0.1043930E+01  0.7957747E-01            NaN
         13   -1    0    0    0    0  0.00000000000E+00  0.00000000000E+00  0.74505805969E-08  0.10566000000E+00  0.10566000000E+00 0. -1.
     999900   -1    0    0    0    0 -0.00000000000E+00 -0.00000000000E+00 -0.74505805969E-08  0.93827000000E+00  0.93827000000E+00 0. -1.
     999902    2    1    2    0    0  0.68490640224E-02 -0.15358252995E-01 -0.16352827935E-01  0.10204736449E+01  0.10202040283E+01 0.  0.
     999903    2    3    3    0    0 -0.99908143089E-01  0.35218747786E-01 -0.74192930377E-01  0.13069804862E+00  0.18851836655E-01 0.  0.
         14    1    1    2    0    0 -0.68490640224E-02  0.15358252995E-01  0.16352827935E-01  0.23456355099E-01  0.00000000000E+00 0. -1.
     999901    1    3    3    0    0  0.10675720711E+00 -0.50577000782E-01  0.57840102442E-01  0.88977559628E+00  0.88000000000E+00 0.  1.
        -11    1    4    4    0    0 -0.40778985613E-01  0.14662399408E-01 -0.41799509918E-01  0.60211060233E-01  0.51100000000E-03 0. -1.
         11    1    4    4    0    0 -0.59129157476E-01  0.20556348378E-01 -0.32393420459E-01  0.70486988392E-01  0.51100000000E-03 0.  1.
</event>
<event>
 8    1  0.1090774E+005  0.1043930E+01  0.7957747E-01            NaN
         13   -1    0    0    0    0  0.00000000000E+00  0.00000000000E+00  0.74505805969E-08  0.10566000000E+00  0.10566000000E+00 0.  1.
     999900   -1    0    0    0    0 -0.00000000000E+00 -0.00000000000E+00 -0.74505805969E-08  0.93827000000E+00  0.93827000000E+00 0. -1.
     999902    2    1    2    0    0  0.17463327230E-01  0.12949712579E-01  0.75456567506E-02  0.10209169648E+01  0.10206575573E+01 0.  0.
     999903    2    3    3    0    0  0.10606810578E+00 -0.57224070751E-01 -0.49736769423E-01  0.13184079089E+00  0.19575764918E-01 0.  0.
         14    1    1    2    0    0 -0.17463327230E-01 -0.12949712579E-01 -0.75456567506E-02  0.23013035211E-01  0.00000000000E+00 0. -1.
     999901    1    3    3    0    0 -0.88604778551E-01  0.70173783330E-01  0.57282426173E-01  0.88907617390E+00  0.88000000000E+00 0.  1.
        -11    1    4    4    0    0  0.41500312351E-01 -0.32917971112E-01 -0.18555971763E-01  0.56128904821E-01  0.51100000000E-03 0. -1.
         11    1    4    4    0    0  0.64567793431E-01 -0.24306099638E-01 -0.31180797659E-01  0.75711886067E-01  0.51100000000E-03 0.  1.
</event>
<event>
 8    1  0.1090774E+005  0.1043930E+01  0.7957747E-01            NaN
         13   -1    0    0    0    0  0.00000000000E+00  0.00000000000E+00  0.74505805969E-08  0.10566000000E+00  0.10566000000E+00 0.  1.
     999900   -1    0    0    0    0 -0.00000000000E+00 -0.00000000000E+00 -0.74505805969E-08  0.93827000000E+00  0.93827000000E+00 0.  1.
     999902    2    1    2    0    0 -0.36585021937E-02  0.19368284568E-01  0.11563788239E-01  0.10210775103E+01  0.10208217503E+01 0.  0.
     999903    2    3    3    0    0  0.97170325213E-01  0.59872169386E-01  0.64646185319E-01  0.13280685451E+00  0.20779378230E-01 0.  0.
         14    1    1    2    0    0  0.36585021937E-02 -0.19368284568E-01 -0.11563788239E-01  0.22852489664E-01  0.00000000000E+00 0. -1.
     999901    1    3    3    0    0 -0.10082882741E+00 -0.40503884818E-01 -0.53082397079E-01  0.88827065583E+00  0.88000000000E+00 0.  1.
        -11    1    4    4    0    0  0.48335427403E-01  0.37493777838E-01  0.25212574663E-01  0.66166698277E-01  0.51100000000E-03 0.  1.
         11    1    4    4    0    0  0.48834897810E-01  0.22378391548E-01  0.39433610656E-01  0.66640156233E-01  0.51100000000E-03 0. -1.
</event>
<event>
 8    1  0.1090774E+005  0.1043930E+01  0.7957747E-01            NaN
         13   -1    0    0    0    0  0.00000000000E+00  0.00000000000E+00  0.74505805969E-08  0.10566000000E+00  0.10566000000E+00 0.  1.
     999900   -1    0    0    0    0 -0.00000000000E+00 -0.00000000000E+00 -0.74505805969E-08  0.93827000000E+00  0.93827000000E+00 0. -1.
     999902    2    1    2    0    0 -0.42069564146E-02  0.95591812903E-02 -0.20311269849E-01  0.10210909082E+01  0.10208354514E+01 0.  0.
     999903    2    3    3    0    0  0.12821078260E+00 -0.14310648656E-01  0.15463729747E-02  0.13059555007E+00  0.20248629293E-01 0.  0.
         14    1    1    2    0    0  0.42069564146E-02 -0.95591812903E-02  0.20311269849E-01  0.22839091753E-01  0.00000000000E+00 0.  1.
     999901    1    3    3    0    0 -0.13241773902E+00  0.23869829946E-01 -0.21857642824E-01  0.89049535818E+00  0.88000000000E+00 0.  1.
        -11    1    4    4    0    0  0.44991001409E-01 -0.14494853957E-01 -0.18182894620E-02  0.47306006982E-01  0.51100000000E-03 0. -1.
         11    1    4    4    0    0  0.83219781192E-01  0.18420530145E-03  0.33646624368E-02  0.83289543087E-01  0.51100000000E-03 0.  1.
</event>
<event>
 8    1  0.1209006E+005  0.1043930E+01  0.7957747E-01            NaN
         13   -1    0    0    0    0  0.00000000000E+00  0.00000000000E+00  0.74505805969E-08  0.10566000000E+00  0.10566000000E+00 0.  1.
     999900   -1    0    0    0    0 -0.00000000000E+00 -0.00000000000E+00 -0.74505805969E-08  0.93827000000E+00  0.93827000000E+00 0.  1.
     999902    2    1    2    0    0 -0.52044035838E-02  0.21745938419E-01 -0.10622929667E-01  0.10191748331E+01  0.10188741444E+01 0.  0.
     999903    2    3    3    0    0  0.16578518589E-02 -0.57885699008E-01 -0.11421653594E+00  0.12950077845E+00  0.19275163164E-01 0.  0.
         14    1    1    2    0    0  0.52044035838E-02 -0.21745938419E-01  0.10622929667E-01  0.24755166917E-01  0.00000000000E+00 0.  1.
     999901    1    3    3    0    0 -0.68622554427E-02  0.79631637427E-01  0.10359360627E+00  0.88967405463E+00  0.88000000000E+00 0.  1.
        -11    1    4    4    0    0 -0.59713743412E-03 -0.24998884944E-01 -0.29982977588E-01  0.39045369605E-01  0.51100000000E-03 0.  1.
         11    1    4    4    0    0  0.22549892930E-02 -0.32886814064E-01 -0.84233558349E-01  0.90455408844E-01  0.51100000000E-03 0. -1.
</event>
<event>
 8    1  0.1090774E+005  0.1043930E+01  0.7957747E-01            NaN
         13   -1    0    0    0    0  0.00000000000E+00  0.00000000000E+00  0.74505805969E-08  0.10566000000E+00  0.10566000000E+00 0. -1.
     999900   -1    0    0    0    0 -0.00000000000E+00 -0.00000000000E+00 -0.74505805969E-08  0.93827000000E+00  0.93827000000E+00 0.  1.
     999902    2    1    2    0    0 -0.20337044719E-01 -0.12941022477E-01 -0.30134118360E-02  0.10196370771E+01  0.10193476458E+01 0.  0.
     999903    2    3    3    0    0 -0.11383238498E+00 -0.35327336750E-01  0.55065239613E-01  0.13249804887E+00  0.17824694869E-01 0.  0.
         14    1    1    2    0    0  0.20337044719E-01  0.12941022477E-01  0.30134118360E-02  0.24292922869E-01  0.00000000000E+00 0. -1.
     999901    1    3    3    0    0  0.93495340262E-01  0.22386314274E-01 -0.58078651449E-01  0.88713902827E+00  0.88000000000E+00 0.  1.
        -11    1    4    4    0    0 -0.54837179131E-01 -0.96771319802E-02  0.31546636687E-01  0.64001675804E-01  0.51100000000E-03 0.  1.
         11    1    4    4    0    0 -0.58995205850E-01 -0.25650204770E-01  0.23518602925E-01  0.68496373062E-01  0.51100000000E-03 0. -1.
</event>
<event>
 8    1  0.1090774E+005  0.1043930E+01  0.7957747E-01            NaN
         13   -1    0    0    0    0  0.00000000000E+00  0.00000000000E+00  0.74505805969E-08  0.10566000000E+00  0.10566000000E+00 0.  1.
     999900   -1    0    0    0    0 -0.00000000000E+00 -0.00000000000E+00 -0.74505805969E-08  0.93827000000E+00  0.93827000000E+00 0.  1.
     999902    2    1    2    0    0 -0.75522358850E-02  0.29119413329E-03  0.22129710158E-01  0.10205452799E+01  0.10202773266E+01 0.  0.
     999903    2    3    3    0    0 -0.10538148236E+00 -0.33665934659E-01  0.71555609020E-01  0.13309580670E+00  0.18858329716E-01 0.  0.
         14    1    1    2    0    0  0.75522358850E-02 -0.29119413329E-03 -0.22129710158E-01  0.23384720066E-01  0.00000000000E+00 0. -1.
     999901    1    3    3    0    0  0.97829246471E-01  0.33957128792E-01 -0.49425898862E-01  0.88744947323E+00  0.88000000000E+00 0. -1.
        -11    1    4    4    0    0 -0.45821676167E-01 -0.10511710730E-01  0.40461175770E-01  0.62028138251E-01  0.51100000000E-03 0. -1.
         11    1    4    4    0    0 -0.59559806189E-01 -0.23154223929E-01  0.31094433250E-01  0.71067668451E-01  0.51100000000E-03 0.  1.
</event>
<event>
 8    1  0.1090774E+005  0.1043930E+01  0.7957747E-01            NaN
         13   -1    0    0    0    0  0.00000000000E+00  0.00000000000E+00  0.74505805969E-08  0.10566000000E+00  0.10566000000E+00 0.  1.
     999900   -1    0    0    0    0 -0.00000000000E+00 -0.00000000000E+00 -0.74505805969E-08  0.93827000000E+00  0.93827000000E+00 0. -1.
     999902    2    1    2    0    0  0.14878363383E-01  0.16377988722E-01 -0.93000141975E-02  0.10199280318E+01  0.10196455735E+01 0.  0.
     999903    2    3    3    0    0  0.45806883500E-01 -0.82963973466E-02  0.11956194217E+00  0.12966357535E+00  0.18721217172E-01 0.  0.
         14    1    1    2    0    0 -0.14878363383E-01 -0.16377988722E-01  0.93000141975E-02  0.24001968162E-01  0.00000000000E+00 0. -1.
     999901    1    3    3    0    0 -0.30928520117E-01  0.24674386069E-01 -0.12886195637E+00  0.89026445649E+00  0.88000000000E+00 0. -1.
        -11    1    4    4    0    0  0.17755138485E-01 -0.19452873266E-02  0.24362586801E-01  0.30213007828E-01  0.51100000000E-03 0. -1.
         11    1    4    4    0    0  0.28051745015E-01 -0.63511100200E-02  0.95199355370E-01  0.99450567524E-01  0.51100000000E-03 0.  1.
</event>
<event>
 8    1  0.1090774E+005  0.1043930E+01  0.7957747E-01            NaN
         13   -1    0    0    0    0  0.00000000000E+00  0.00000000000E+00  0.74505805969E-08  0.10566000000E+00  0.10566000000E+00 0.  1.
     999900   -1    0    0    0    0 -0.00000000000E+00 -0.00000000000E+00 -0.74505805969E-08  0.93827000000E+00  0.93827000000E+00 0. -1.
     999902    2    1    2    0    0 -0.78620882813E-02 -0.63851730664E-02  0.21802629219E-01  0.10198896691E+01  0.10196062964E+01 0.  0.
     999903    2    3    3    0    0  0.30273182969E-01  0.75665248524E-01 -0.95930382920E-01  0.12745052121E+00  0.19982531097E-01 0.  0.
         14    1    1    2    0    0  0.78620882813E-02  0.63851730664E-02 -0.21802629219E-01  0.24040330865E-01  0.00000000000E+00 0. -1.
     999901    1    3    3    0    0 -0.38135271250E-01 -0.82050421590E-01  0.11773301214E+00  0.89243914792E+00  0.88000000000E+00 0.  1.
        -11    1    4    4    0    0  0.21081872068E-01  0.34199864260E-01 -0.57656698050E-01  0.70275401076E-01  0.51100000000E-03 0. -1.
         11    1    4    4    0    0  0.91913109011E-02  0.41465384263E-01 -0.38273684870E-01  0.57175120137E-01  0.51100000000E-03 0.  1.
</event>
<event>
 8    1  0.1546694E+005  0.1043930E+01  0.7957747E-01            NaN
         13   -1    0    0    0    0  0.00000000000E+00  0.00000000000E+00  0.74505805969E-08  0.10566000000E+00  0.10566000000E+00 0.  1.
     999900   -1    0    0    0    0 -0.00000000000E+00 -0.00000000000E+00 -0.74505805969E-08  0.93827000000E+00  0.93827000000E+00 0.  1.
     999902    2    1    2    0    0 -0.22201642222E-01 -0.45744780444E-02  0.11025336040E-01  0.10187229216E+01  0.10184110144E+01 0.  0.
     999903    2    3    3    0    0 -0.46604837927E-01  0.89904014899E-01  0.80519571675E-01  0.13060629053E+00  0.17884599271E-01 0.  0.
         14    1    1    2    0    0  0.22201642222E-01  0.45744780444E-02 -0.11025336040E-01  0.25207078401E-01  0.00000000000E+00 0. -1.
     999901    1    3    3    0    0  0.24403195705E-01 -0.94478492943E-01 -0.69494235635E-01  0.88811663107E+00  0.88000000000E+00 0.  1.
        -11    1    4    4    0    0 -0.38261729487E-01  0.55454926417E-01  0.51954470132E-01  0.85080766892E-01  0.51100000000E-03 0.  1.
         11    1    4    4    0    0 -0.83431084398E-02  0.34449088482E-01  0.28565101543E-01  0.45525523641E-01  0.51100000000E-03 0. -1.
</event>
<event>
 8    1  0.1090774E+005  0.1043930E+01  0.7957747E-01            NaN
         13   -1    0    0    0    0  0.00000000000E+00  0.00000000000E+00  0.74505805969E-08  0.10566000000E+00  0.10566000000E+00 0. -1.
     999900   -1    0    0    0    0 -0.00000000000E+00 -0.00000000000E+00 -0.74505805969E-08  0.93827000000E+00  0.93827000000E+00 0. -1.
     999902    2    1    2    0    0 -0.14491600904E-01 -0.17632735220E-01 -0.65846534847E-02  0.10201754739E+01  0.10198988774E+01 0.  0.
     999903    2    3    3    0    0 -0.51097129215E-01 -0.26477016284E-01 -0.11727141668E+00  0.13244254924E+00  0.21828757900E-01 0.  0.
         14    1    1    2    0    0  0.14491600904E-01  0.17632735220E-01  0.65846534847E-02  0.23754526087E-01  0.00000000000E+00 0.  1.
     999901    1    3    3    0    0  0.36605528311E-01  0.88442810646E-02  0.11068676320E+00  0.88773292468E+00  0.88000000000E+00 0.  1.
        -11    1    4    4    0    0 -0.25764397943E-01 -0.20570926085E-01 -0.83765561070E-01  0.90021650417E-01  0.51100000000E-03 0.  1.
         11    1    4    4    0    0 -0.25332731272E-01 -0.59060901998E-02 -0.33505855614E-01  0.42420898818E-01  0.51100000000E-03 0. -1.
</event>
<event>
 8    1  0.1090774E+005  0.1043930E+01  0.7957747E-01            NaN
         13   -1    0    0    0    0  0.00000000000E+00  0.00000000000E+00  0.74505805969E-08  0.10566000000E+00  0.10566000000E+00 0. -1.
     999900   -1    0    0    0    0 -0.00000000000E+00 -0.00000000000E+00 -0.74505805969E-08  0.93827000000E+00  0.93827000000E+00 0. -1.
     999902    2    1    2    0    0 -0.77407975455E-02 -0.12496883423E-01  0.18248396330E-01  0.10204972022E+01  0.10202281332E+01 0.  0.
     999903    2    3    3    0    0  0.44606231189E-01  0.75120703126E-02 -0.11822830202E+00  0.12821559937E+00  0.20375511332E-01 0.  0.
         14    1    1    2    0    0  0.77407975455E-02  0.12496883423E-01 -0.18248396330E-01  0.23432797753E-01  0.00000000000E+00 0.  1.
     999901    1    3    3    0    0 -0.52347028735E-01 -0.20008953735E-01  0.13647669835E+00  0.89228160288E+00  0.88000000000E+00 0.  1.
        -11    1    4    4    0    0  0.32192620962E-01  0.14276055558E-01 -0.89869704734E-01  0.96524585245E-01  0.51100000000E-03 0. -1.
         11    1    4    4    0    0  0.12413610227E-01 -0.67639852451E-02 -0.28358597283E-01  0.31691014123E-01  0.51100000000E-03 0.  1.
</event>
<event>
 8    1  0.1090774E+005  0.1043930E+01  0.7957747E-01            NaN
         13   -1    0    0    0    0  0.00000000000E+00  0.00000000000E+00  0.74505805969E-08  0.10566000000E+00  0.10566000000E+00 0. -1.
     999900   -1    0    0    0    0 -0.00000000000E+00 -0.00000000000E+00 -0.74505805969E-08  0.93827000000E+00  0.93827000000E+00 0.  1.
     999902    2    1    2    0    0 -0.16383673750E-01 -0.16409664559E-01 -0.12197793231E-02  0.10207095410E+01  0.10204453818E+01 0.  0.
     999903    2    3    3    0    0 -0.73283862972E-01 -0.13782257278E-01 -0.10761185780E+00  0.13247319338E+00  0.20207915179E-01 0.  0.
         14    1    1    2    0    0  0.16383673750E-01  0.16409664559E-01  0.12197793231E-02  0.23220459041E-01  0.00000000000E+00 0.  1.
     999901    1    3    3    0    0  0.56900189222E-01 -0.26274072809E-02  0.10639207848E+00  0.88823634758E+00  0.88000000000E+00 0. -1.
        -11    1    4    4    0    0 -0.15937035299E-01 -0.96164008646E-02 -0.36912833434E-01  0.41343471708E-01  0.51100000000E-03 0.  1.
         11    1    4    4    0    0 -0.57346827673E-01 -0.41658564137E-02 -0.70699024369E-01  0.91129721669E-01  0.51100000000E-03 0. -1.
</event>
<event>
 8    1  0.1090774E+005  0.1043930E+01  0.7957747E-01            NaN
         13   -1    0    0    0    0  0.00000000000E+00  0.00000000000E+00  0.74505805969E-08  0.10566000000E+00  0.10566000000E+00 0. -1.
     999900   -1    0    0    0    0 -0.00000000000E+00 -0.00000000000E+00 -0.74505805969E-08  0.93827000000E+00  0.93827000000E+00 0. -1.
     999902    2    1    2    0    0 -0.13786161191E-01  0.21992935227E-02  0.18549781170E-01  0.10207138523E+01  0.10204497924E+01 0.  0.
     999903    2    3    3    0    0 -0.95445583319E-01 -0.17147517453E-01 -0.85157477701E-01  0.13065893498E+00  0.20397660419E-01 0.  0.
         14    1    1    2    0    0  0.13786161191E-01 -0.21992935227E-02 -0.18549781170E-01  0.23216147696E-01  0.00000000000E+00 0.  1.
     999901    1    3    3    0    0  0.81659422129E-01  0.19346810976E-01  0.10370725887E+00  0.89005491733E+00  0.88000000000E+00 0.  1.
        -11    1    4    4    0    0 -0.68820554689E-01 -0.57518933774E-02 -0.50875721079E-01  0.85778512120E-01  0.51100000000E-03 0. -1.
         11    1    4    4    0    0 -0.26625028630E-01 -0.11395624076E-01 -0.34281756622E-01  0.44880422856E-01  0.51100000000E-03 0.  1.
</event>
<event>
 8    1  0.1090774E+005  0.1043930E+01  0.7957747E-01            NaN
         13   -1    0    0    0    0  0.00000000000E+00  0.00000000000E+00  0.74505805969E-08  0.10566000000E+00  0.10566000000E+00 0. -1.
     999900   -1    0    0    0    0 -0.00000000000E+00 -0.00000000000E+00 -0.74505805969E-08  0.93827000000E+00  0.93827000000E+00 0. -1.
     999902    2    1    2    0    0  0.12685406520E-02 -0.22713421666E-01 -0.85918382762E-02  0.10196127550E+01  0.10193227368E+01 0.  0.
     999903    2    3    3    0    0 -0.93670736323E-03  0.59359200671E-01  0.11117597095E+00  0.12771303722E+00  0.20642946381E-01 0.  0.
         14    1    1    2    0    0 -0.12685406520E-02  0.22713421666E-01  0.85918382762E-02  0.24317244994E-01  0.00000000000E+00 0. -1.
     999901    1    3    3    0    0  0.22052480152E-02 -0.82072622337E-01 -0.11976780922E+00  0.89189971778E+00  0.88000000000E+00 0. -1.
        -11    1    4    4    0    0  0.83957975178E-02  0.17208847511E-01  0.26914460330E-01  0.33034574986E-01  0.51100000000E-03 0. -1.
         11    1    4    4    0    0 -0.93325048810E-02  0.42150353160E-01  0.84261510618E-01  0.94678462236E-01  0.51100000000E-03 0.  1.
</event>
<event>
 8    1  0.1090774E+005  0.1043930E+01  0.7957747E-01            NaN
         13   -1    0    0    0    0  0.00000000000E+00  0.00000000000E+00  0.74505805969E-08  0.10566000000E+00  0.10566000000E+00 0. -1.
     999900   -1    0    0    0    0 -0.00000000000E+00 -0.00000000000E+00 -0.74505805969E-08  0.93827000000E+00  0.93827000000E+00 0. -1.
     999902    2    1    2    0    0 -0.19697236822E-01  0.69382399992E-02 -0.10805858172E-01  0.10204164532E+01  0.10201455048E+01 0.  0.
     999903    2    3    3    0    0  0.19366819321E-01 -0.75588451633E-01  0.10045727264E+00  0.12872360271E+00  0.19733589599E-01 0.  0.
         14    1    1    2    0    0  0.19697236822E-01 -0.69382399992E-02  0.10805858172E-01  0.23513546810E-01  0.00000000000E+00 0. -1.
     999901    1    3    3    0    0 -0.39064056143E-01  0.82526691633E-01 -0.11126313081E+00  0.89169285048E+00  0.88000000000E+00 0. -1.
        -11    1    4    4    0    0  0.13701883728E-01 -0.44014605647E-01  0.43671944569E-01  0.63502180997E-01  0.51100000000E-03 0.  1.
         11    1    4    4    0    0  0.56649355932E-02 -0.31573845987E-01  0.56785328070E-01  0.65221421716E-01  0.51100000000E-03 0. -1.
</event>
<event>
 8    1  0.1090774E+005  0.1043930E+01  0.7957747E-01            NaN
         13   -1    0    0    0    0  0.00000000000E+00  0.00000000000E+00  0.74505805969E-08  0.10566000000E+00  0.10566000000E+00 0.  1.
     999900   -1    0    0    0    0 -0.00000000000E+00 -0.00000000000E+00 -0.74505805969E-08  0.93827000000E+00  0.93827000000E+00 0. -1.
     999902    2    1    2    0    0 -0.12562847612E-02 -0.95848939446E-02 -0.22179781042E-01  0.10197351425E+01  0.10194480711E+01 0.  0.
     999903    2    3    3    0    0 -0.39542266960E-01 -0.41659913063E-01  0.11261213081E+00  0.12807181881E+00  0.20536784927E-01 0.  0.
         14    1    1    2    0    0  0.12562847612E-02  0.95848939446E-02  0.22179781042E-01  0.24194857520E-01  0.00000000000E+00 0.  1.
     999901    1    3    3    0    0  0.38285982199E-01  0.32075019118E-01 -0.13479191185E+00  0.89166332367E+00  0.88000000000E+00 0. -1.
        -11    1    4    4    0    0 -0.19034074597E-01 -0.24683693996E-01  0.39880924265E-01  0.50619462525E-01  0.51100000000E-03 0.  1.
         11    1    4    4    0    0 -0.20508192363E-01 -0.16976219067E-01  0.72731206540E-01  0.77452356282E-01  0.51100000000E-03 0. -1.
</event>
<event>
 8    1  0.1090774E+005  0.1043930E+01  0.7957747E-01            NaN
         13   -1    0    0    0    0  0.00000000000E+00  0.00000000000E+00  0.74505805969E-08  0.10566000000E+00  0.10566000000E+00 0. -1.
     999900   -1    0    0    0    0 -0.00000000000E+00 -0.00000000000E+00 -0.74505805969E-08  0.93827000000E+00  0.93827000000E+00 0. -1.
     999902    2    1    2    0    0  0.83809052829E-02  0.42926665296E-02  0.19175977087E-01  0.10225668388E+01  0.10223436580E+01 0.  0.
     999903    2    3    3    0    0  0.76653215246E-01  0.10297634450E+00 -0.29056674749E-01  0.13311421763E+00  0.19881188420E-01 0.  0.
         14    1    1    2    0    0 -0.83809052829E-02 -0.42926665296E-02 -0.19175977087E-01  0.21363161202E-01  0.00000000000E+00 0.  1.
     999901    1    3    3    0    0 -0.68272309963E-01 -0.98683677970E-01  0.48232651836E-01  0.88945262117E+00  0.88000000000E+00 0.  1.
        -11    1    4    4    0    0  0.49239712332E-01  0.49574830899E-01 -0.15812096534E-01  0.71641445037E-01  0.51100000000E-03 0.  1.
         11    1    4    4    0    0  0.27413502915E-01  0.53401513600E-01 -0.13244578215E-01  0.61472772590E-01  0.51100000000E-03 0. -1.
</event>
<event>
 8    1  0.1090774E+005  0.1043930E+01  0.7957747E-01            NaN
         13   -1    0    0    0    0  0.00000000000E+00  0.00000000000E+00  0.74505805969E-08  0.10566000000E+00  0.10566000000E+00 0.  1.
     999900   -1    0    0    0    0 -0.00000000000E+00 -0.00000000000E+00 -0.74505805969E-08  0.93827000000E+00  0.93827000000E+00 0. -1.
     999902    2    1    2    0    0 -0.18468052688E-01  0.11043881425E-02 -0.15184351254E-01  0.10199956488E+01  0.10197147986E+01 0.  0.
     999903    2    3    3    0    0 -0.11783935481E-01  0.10230301844E+00 -0.79375399702E-01  0.13184795227E+00  0.21878293417E-01 0.  0.
         14    1    1    2    0    0  0.18468052688E-01 -0.11043881425E-02  0.15184351254E-01  0.23934351177E-01  0.00000000000E+00 0.  1.
     999901    1    3    3    0    0 -0.66841172072E-02 -0.10119863029E+00  0.64191048448E-01  0.88814769656E+00  0.88000000000E+00 0.  1.
        -11    1    4    4    0    0 -0.63229641028E-02  0.81115986895E-01 -0.51050611592E-01  0.96053158563E-01  0.51100000000E-03 0. -1.
         11    1    4    4    0    0 -0.54609713778E-02  0.21187031541E-01 -0.28324788110E-01  0.35794793705E-01  0.51100000000E-03 0.  1.
</event>
<event>
 8    1  0.1090774E+005  0.1043930E+01  0.7957747E-01            NaN
         13   -1    0    0    0    0  0.00000000000E+00  0.00000000000E+00  0.74505805969E-08  0.10566000000E+00  0.10566000000E+00 0.  1.
     999900   -1    0    0    0    0 -0.00000000000E+00 -0.00000000000E+00 -0.74505805969E-08  0.93827000000E+00  0.93827000000E+00 0.  1.
     999902    2    1    2    0    0  0.17411467316E-01 -0.14436890296E-01  0.10482740796E-01  0.10190006829E+01  0.10186956959E+01 0.  0.
     999903    2    3    3    0    0  0.19607958273E-01 -0.12536384201E-01  0.12755056881E+00  0.13124322007E+00  0.20347045295E-01 0.  0.
         14    1    1    2    0    0 -0.17411467316E-01  0.14436890296E-01 -0.10482740796E-01  0.24929317081E-01  0.00000000000E+00 0. -1.
     999901    1    3    3    0    0 -0.21964909570E-02 -0.19005060954E-02 -0.11706782802E+00  0.88775746285E+00  0.88000000000E+00 0.  1.
        -11    1    4    4    0    0  0.21827318772E-01 -0.48440496909E-02  0.82173036388E-01  0.85161996761E-01  0.51100000000E-03 0.  1.
         11    1    4    4    0    0 -0.22193604992E-02 -0.76923345097E-02  0.45377532425E-01  0.46081223304E-01  0.51100000000E-03 0. -1.
</event>
<event>
 7    1  0.1090774E+005  0.1043930E+01  0.7957747E-01            NaN
         13   -1    0    0    0    0  0.00000000000E+00  0.00000000000E+00  0.74505805969E-08  0.10566000000E+00  0.10566000000E+00 0. -1.
     999900   -1    0    0    0    0 -0.00000000000E+00 -0.00000000000E+00 -0.74505805969E-08  0.93827000000E+00  0.93827000000E+00 0. -1.
     999903    2    1    2    0    0 -0.15621245512E-01 -0.10368938219E+00 -0.36779448211E-01  0.11342819271E+00  0.22753368994E-01 0.  0.
         14    1    1    2    0    0  0.26639949055E-01 -0.10607859848E-01  0.32082908444E-01  0.43029368929E-01  0.00000000000E+00 0. -1.
     999901    1    1    2    0    0 -0.11018703543E-01  0.11429724204E+00  0.46965397661E-02  0.88747243836E+00  0.88000000000E+00 0.  1.
        -11    1    3    3    0    0 -0.13428601327E-02 -0.11853463991E-01 -0.12673438603E-01  0.17412209766E-01  0.51100000000E-03 0. -1.
         11    1    3    3    0    0 -0.14278385380E-01 -0.91835918198E-01 -0.24106009607E-01  0.96015982943E-01  0.51100000000E-03 0.  1.
</event>
<event>
 8    1  0.1090774E+005  0.1043930E+01  0.7957747E-01            NaN
         13   -1    0    0    0    0  0.00000000000E+00  0.00000000000E+00  0.74505805969E-08  0.10566000000E+00  0.10566000000E+00 0. -1.
     999900   -1    0    0    0    0 -0.00000000000E+00 -0.00000000000E+00 -0.74505805969E-08  0.93827000000E+00  0.93827000000E+00 0. -1.
     999902    2    1    2    0    0 -0.14372252188E-01  0.16015225317E-01 -0.10213415400E-01  0.10201106186E+01  0.10198324918E+01 0.  0.
     999903    2    3    3    0    0  0.43414037992E-01 -0.88949324612E-01 -0.80534896471E-01  0.12921111656E+00  0.20319499263E-01 0.  0.
         14    1    1    2    0    0  0.14372252188E-01 -0.16015225317E-01  0.10213415400E-01  0.23819381374E-01  0.00000000000E+00 0.  1.
     999901    1    3    3    0    0 -0.57786290180E-01  0.10496454993E+00  0.70321481071E-01  0.89089950206E+00  0.88000000000E+00 0.  1.
        -11    1    4    4    0    0  0.37183686463E-01 -0.79114261822E-01 -0.61470731059E-01  0.10686723006E+00  0.51100000000E-03 0.  1.
         11    1    4    4    0    0  0.62303515288E-02 -0.98350627898E-02 -0.19064165412E-01  0.22343886504E-01  0.51100000000E-03 0. -1.
</event>
<event>
 8    1  0.1090774E+005  0.1043930E+01  0.7957747E-01            NaN
         13   -1    0    0    0    0  0.00000000000E+00  0.00000000000E+00  0.74505805969E-08  0.10566000000E+00  0.10566000000E+00 0.  1.
     999900   -1    0    0    0    0 -0.00000000000E+00 -0.00000000000E+00 -0.74505805969E-08  0.93827000000E+00  0.93827000000E+00 0. -1.
     999902    2    1    2    0    0 -0.14941363168E-01 -0.17969015084E-01 -0.34655575443E-02  0.10203050148E+01  0.10200314619E+01 0.  0.
     999903    2    3    3    0    0  0.10275335071E+00 -0.26122502870E-01 -0.72146121585E-01  0.12977958287E+00  0.19925888528E-01 0.  0.
         14    1    1    2    0    0  0.14941363168E-01  0.17969015084E-01  0.34655575443E-02  0.23624985195E-01  0.00000000000E+00 0.  1.
     999901    1    3    3    0    0 -0.11769471387E+00  0.81534877861E-02  0.68680564041E-01  0.89052543193E+00  0.88000000000E+00 0.  1.
        -11    1    4    4    0    0  0.23736766345E-01  0.25151626377E-03 -0.96079741036E-02  0.25613895141E-01  0.51100000000E-03 0. -1.
         11    1    4    4    0    0  0.79016584362E-01 -0.26374019134E-01 -0.62538147482E-01  0.10416568773E+00  0.51100000000E-03 0.  1.
</event>
<event>
 8    1  0.1090774E+005  0.1043930E+01  0.7957747E-01            NaN
         13   -1    0    0    0    0  0.00000000000E+00  0.00000000000E+00  0.74505805969E-08  0.10566000000E+00  0.10566000000E+00 0. -1.
     999900   -1    0    0    0    0 -0.00000000000E+00 -0.00000000000E+00 -0.74505805969E-08  0.93827000000E+00  0.93827000000E+00 0.  1.
     999902    2    1    2    0    0 -0.21590218753E-01 -0.99265935433E-02 -0.46261780857E-03  0.10201626101E+01  0.10198857104E+01 0.  0.
     999903    2    3    3    0    0  0.12566122828E+00  0.75944693125E-02  0.76839013644E-02  0.12771858273E+00  0.20114019459E-01 0.  0.
         14    1    1    2    0    0  0.21590218753E-01  0.99265935433E-02  0.46261780857E-03  0.23767389853E-01  0.00000000000E+00 0.  1.
     999901    1    3    3    0    0 -0.14725144703E+00 -0.17521062856E-01 -0.81465191730E-02  0.89244402742E+00  0.88000000000E+00 0. -1.
        -11    1    4    4    0    0  0.63794262787E-01 -0.59487766561E-02  0.16006092773E-02  0.64093049384E-01  0.51100000000E-03 0.  1.
         11    1    4    4    0    0  0.61866965489E-01  0.13543245969E-01  0.60832920871E-02  0.63625533348E-01  0.51100000000E-03 0. -1.
</event>
<event>
 8    1  0.1090774E+005  0.1043930E+01  0.7957747E-01            NaN
         13   -1    0    0    0    0  0.00000000000E+00  0.00000000000E+00  0.74505805969E-08  0.10566000000E+00  0.10566000000E+00 0. -1.
     999900   -1    0    0    0    0 -0.00000000000E+00 -0.00000000000E+00 -0.74505805969E-08  0.93827000000E+00  0.93827000000E+00 0.  1.
     999902    2    1    2    0    0 -0.62474821252E-02 -0.12178930794E-01  0.17957827234E-01  0.10213503422E+01  0.10211007201E+01 0.  0.
     999903    2    3    3    0    0  0.10598471594E+00  0.72575536021E-01  0.49721089242E-02  0.13008830731E+00  0.19956888271E-01 0.  0.
         14    1    1    2    0    0  0.62474821252E-02  0.12178930794E-01 -0.17957827234E-01  0.22579657817E-01  0.00000000000E+00 0.  1.
     999901    1    3    3    0    0 -0.11223219807E+00 -0.84754466815E-01  0.12985718309E-01  0.89126203487E+00  0.88000000000E+00 0. -1.
        -11    1    4    4    0    0  0.44861048469E-01  0.42645570593E-01  0.38708504781E-02  0.62019375725E-01  0.51100000000E-03 0.  1.
         11    1    4    4    0    0  0.61123667472E-01  0.29929965429E-01  0.11012584461E-02  0.68068931584E-01  0.51100000000E-03 0. -1.
</event>
<event>
 8    1  0.1090774E+005  0.1043930E+01  0.7957747E-01            NaN
         13   -1    0    0    0    0  0.00000000000E+00  0.00000000000E+00  0.74505805969E-08  0.10566000000E+00  0.10566000000E+00 0. -1.
     999900   -1    0    0    0    0 -0.00000000000E+00 -0.00000000000E+00 -0.74505805969E-08  0.93827000000E+00  0.93827000000E+00 0.  1.
     999902    2    1    2    0    0 -0.11507925708E-01  0.94139182914E-02 -0.18669571082E-01  0.10200635571E+01  0.10197843171E+01 0.  0.
     999903    2    3    3    0    0  0.12642128874E-01 -0.89873911111E-01 -0.92508574437E-01  0.13107902597E+00  0.19665487096E-01 0.  0.
         14    1    1    2    0    0  0.11507925708E-01 -0.94139182914E-02  0.18669571082E-01  0.23866442887E-01  0.00000000000E+00 0. -1.
     999901    1    3    3    0    0 -0.24150054581E-01  0.99287829403E-01  0.73839003355E-01  0.88898453115E+00  0.88000000000E+00 0. -1.
        -11    1    4    4    0    0 -0.90266776357E-04 -0.61448409568E-01 -0.65964524843E-01  0.90152619736E-01  0.51100000000E-03 0. -1.
         11    1    4    4    0    0  0.12732395650E-01 -0.28425501543E-01 -0.26544049594E-01  0.40926406229E-01  0.51100000000E-03 0.  1.
</event>
<event>
 7    1  0.1090774E+005  0.1043930E+01  0.7957747E-01            NaN
         13   -1    0    0    0    0  0.00000000000E+00  0.00000000000E+00  0.74505805969E-08  0.10566000000E+00  0.10566000000E+00 0.  1.
     999900   -1    0    0    0    0 -0.00000000000E+00 -0.00000000000E+00 -0.74505805969E-08  0.93827000000E+00  0.93827000000E+00 0. -1.
     999903    2    1    2    0    0  0.10657999401E+00 -0.18387663713E-01 -0.28311983253E-01  0.11341928652E+00  0.19104053515E-01 0.  0.
         14    1    1    2    0    0 -0.24252190861E-01 -0.27430802786E-01 -0.24258216443E-01  0.43921279217E-01  0.00000000000E+00 0. -1.
     999901    1    1    2    0    0 -0.82327803146E-01  0.45818466499E-01  0.52570199695E-01  0.88658943426E+00  0.88000000000E+00 0. -1.
        -11    1    3    3    0    0  0.81350778744E-01 -0.79257694233E-02 -0.26959003196E-01  0.86068670244E-01  0.51100000000E-03 0. -1.
         11    1    3    3    0    0  0.25229215263E-01 -0.10461894290E-01 -0.13529800570E-02  0.27350616281E-01  0.51100000000E-03 0.  1.
</event>
<event>
 8    1  0.1090774E+005  0.1043930E+01  0.7957747E-01            NaN
         13   -1    0    0    0    0  0.00000000000E+00  0.00000000000E+00  0.74505805969E-08  0.10566000000E+00  0.10566000000E+00 0. -1.
     999900   -1    0    0    0    0 -0.00000000000E+00 -0.00000000000E+00 -0.74505805969E-08  0.93827000000E+00  0.93827000000E+00 0.  1.
     999902    2    1    2    0    0 -0.87860679273E-02  0.15195363900E-01  0.94283712393E-02  0.10240054358E+01  0.10238115766E+01 0.  0.
     999903    2    3    3    0    0  0.87998013112E-01 -0.54061404124E-01 -0.78964282954E-01  0.13160590670E+00  0.20456562937E-01 0.  0.
         14    1    1    2    0    0  0.87860679273E-02 -0.15195363900E-01 -0.94283712393E-02  0.19924564183E-01  0.00000000000E+00 0.  1.
     999901    1    3    3    0    0 -0.96784081039E-01  0.69256768024E-01  0.88392654194E-01  0.89239952912E+00  0.88000000000E+00 0. -1.
        -11    1    4    4    0    0  0.34115951420E-01 -0.19251982101E-01 -0.42560803646E-01  0.57846521798E-01  0.51100000000E-03 0.  1.
         11    1    4    4    0    0  0.53882061693E-01 -0.34809422023E-01 -0.36403479308E-01  0.73759384898E-01  0.51100000000E-03 0. -1.
</event>
<event>
 8    1  0.1090774E+005  0.1043930E+01  0.7957747E-01            NaN
         13   -1    0    0    0    0  0.00000000000E+00  0.00000000000E+00  0.74505805969E-08  0.10566000000E+00  0.10566000000E+00 0.  1.
     999900   -1    0    0    0    0 -0.00000000000E+00 -0.00000000000E+00 -0.74505805969E-08  0.93827000000E+00  0.93827000000E+00 0.  1.
     999902    2    1    2    0    0  0.16704403460E-01  0.14686148302E-01  0.65009597124E-02  0.10207571166E+01  0.10204940512E+01 0.  0.
     999903    2    3    3    0    0  0.10985991112E+00 -0.26450427570E-01 -0.65266693781E-01  0.13198225055E+00  0.19767345614E-01 0.  0.
         14    1    1    2    0    0 -0.16704403460E-01 -0.14686148302E-01 -0.65009597124E-02  0.23172883378E-01  0.00000000000E+00 0.  1.
     999901    1    3    3    0    0 -0.93155507657E-01  0.41136575871E-01  0.71767653494E-01  0.88877486608E+00  0.88000000000E+00 0. -1.
        -11    1    4    4    0    0  0.81977157608E-01 -0.13927390082E-01 -0.39767647591E-01  0.92173496624E-01  0.51100000000E-03 0.  1.
         11    1    4    4    0    0  0.27882753509E-01 -0.12523037487E-01 -0.25499046190E-01  0.39808753921E-01  0.51100000000E-03 0. -1.
</event>
<event>
 8    1  0.1090774E+005  0.1043930E+01  0.7957747E-01            NaN
         13   -1    0    0    0    0  0.00000000000E+00  0.00000000000E+00  0.74505805969E-08  0.10566000000E+00  0.10566000000E+00 0.  1.
     999900   -1    0    0    0    0 -0.00000000000E+00 -0.00000000000E+00 -0.74505805969E-08  0.93827000000E+00  0.93827000000E+00 0.  1.
     999902    2    1    2    0    0 -0.11430596395E-02 -0.47170470044E-03  0.20812804397E-01  0.10230804936E+01  0.10228680240E+01 0.  0.
     999903    2    3    3    0    0 -0.13118450579E+00  0.19619597206E-02  0.13651804768E-01  0.13349183564E+00  0.20505476429E-01 0.  0.
         14    1    1    2    0    0  0.11430596395E-02  0.47170470044E-03 -0.20812804397E-01  0.20849506410E-01  0.00000000000E+00 0. -1.
     999901    1    3    3    0    0  0.13004144615E+00 -0.24336644210E-02  0.71609996292E-02  0.88958865795E+00  0.88000000000E+00 0.  1.
        -11    1    4    4    0    0 -0.88250900312E-01 -0.62626794961E-02  0.31474552987E-02  0.88530278189E-01  0.51100000000E-03 0. -1.
         11    1    4    4    0    0 -0.42933605478E-01  0.82246392166E-02  0.10504349469E-01  0.44961557450E-01  0.51100000000E-03 0.  1.
</event>
<event>
 8    1  0.1090774E+005  0.1043930E+01  0.7957747E-01            NaN
         13   -1    0    0    0    0  0.00000000000E+00  0.00000000000E+00  0.74505805969E-08  0.10566000000E+00  0.10566000000E+00 0.  1.
     999900   -1    0    0    0    0 -0.00000000000E+00 -0.00000000000E+00 -0.74505805969E-08  0.93827000000E+00  0.93827000000E+00 0. -1.
     999902    2    1    2    0    0 -0.96397659434E-02 -0.18844926644E-01 -0.78392903094E-02  0.10213576536E+01  0.10211081950E+01 0.  0.
     999903    2    3    3    0    0 -0.96927073288E-01 -0.17932013134E-02 -0.89495337898E-01  0.13311357374E+00  0.17656016042E-01 0.  0.
         14    1    1    2    0    0  0.96397659434E-02  0.18844926644E-01  0.78392903094E-02  0.22572346361E-01  0.00000000000E+00 0. -1.
     999901    1    3    3    0    0  0.87287307345E-01 -0.17051725331E-01  0.81656047588E-01  0.88824407989E+00  0.88000000000E+00 0. -1.
        -11    1    4    4    0    0 -0.55893533403E-01  0.76490341865E-02 -0.52295068774E-01  0.76926134306E-01  0.51100000000E-03 0. -1.
         11    1    4    4    0    0 -0.41033539885E-01 -0.94422354999E-02 -0.37200269124E-01  0.56187439438E-01  0.51100000000E-03 0.  1.
</event>
<event>
 8    1  0.1090774E+005  0.1043930E+01  0.7957747E-01            NaN
         13   -1    0    0    0    0  0.00000000000E+00  0.00000000000E+00  0.74505805969E-08  0.10566000000E+00  0.10566000000E+00 0. -1.
     999900   -1    0    0    0    0 -0.00000000000E+00 -0.00000000000E+00 -0.74505805969E-08  0.93827000000E+00  0.93827000000E+00 0.  1.
     999902    2    1    2    0    0  0.12212621437E-01 -0.30157571778E-02 -0.18865088761E-01  0.10212554661E+01  0.10210037182E+01 0.  0.
     999903    2    3    3    0    0  0.30973656708E-01  0.12427098324E+00  0.19547262473E-01  0.13107042946E+00  0.19867494140E-01 0.  0.
         14    1    1    2    0    0 -0.12212621437E-01  0.30157571778E-02  0.18865088761E-01  0.22674533902E-01  0.00000000000E+00 0. -1.
     999901    1    3    3    0    0 -0.18761035271E-01 -0.12728674042E+00 -0.38412351234E-01  0.89018503664E+00  0.88000000000E+00 0.  1.
        -11    1    4    4    0    0  0.27135489016E-01  0.68444753828E-01  0.12091865693E-01  0.74615637956E-01  0.51100000000E-03 0. -1.
         11    1    4    4    0    0  0.38381676921E-02  0.55826229410E-01  0.74553967798E-02  0.56454791502E-01  0.51100000000E-03 0.  1.
</event>
<event>
 8    1  0.1090774E+005  0.1043930E+01  0.7957747E-01            NaN
         13   -1    0    0    0    0  0.00000000000E+00  0.00000000000E+00  0.74505805969E-08  0.10566000000E+00  0.10566000000E+00 0.  1.
     999900   -1    0    0    0    0 -0.00000000000E+00 -0.00000000000E+00 -0.74505805969E-08  0.93827000000E+00  0.93827000000E+00 0.  1.
     999902    2    1    2    0    0 -0.15128824079E-02 -0.19364751317E-01  0.12248965902E-01  0.10209665601E+01  0.10207082822E+01 0.  0.
     999903    2    3    3    0    0 -0.10033789537E+00 -0.58406994618E-01 -0.58873483994E-01  0.13172582619E+00  0.20162735455E-01 0.  0.
         14    1    1    2    0    0  0.15128824079E-02  0.19364751317E-01 -0.12248965902E-01  0.22963439908E-01  0.00000000000E+00 0. -1.
     999901    1    3    3    0    0  0.98825012960E-01  0.39042243301E-01  0.71122449896E-01  0.88924073390E+00  0.88000000000E+00 0. -1.
        -11    1    4    4    0    0 -0.62356967843E-01 -0.46182370082E-01 -0.43535894856E-01  0.88976614944E-01  0.51100000000E-03 0.  1.
         11    1    4    4    0    0 -0.37980927525E-01 -0.12224624536E-01 -0.15337589138E-01  0.42749211248E-01  0.51100000000E-03 0. -1.
</event>
<event>
 8    1  0.1090774E+005  0.1043930E+01  0.7957747E-01            NaN
         13   -1    0    0    0    0  0.00000000000E+00  0.00000000000E+00  0.74505805969E-08  0.10566000000E+00  0.10566000000E+00 0.  1.
     999900   -1    0    0    0    0 -0.00000000000E+00 -0.00000000000E+00 -0.74505805969E-08  0.93827000000E+00  0.93827000000E+00 0. -1.
     999902    2    1    2    0    0  0.16733943725E-01  0.75000233143E-02 -0.12945194681E-01  0.10214833235E+01  0.10212366654E+01 0.  0.
     999903    2    3    3    0    0  0.64758802291E-01 -0.66736662704E-01  0.90244680801E-01  0.13105330207E+00  0.19580116135E-01 0.  0.
         14    1    1    2    0    0 -0.16733943725E-01 -0.75000233143E-02  0.12945194681E-01  0.22446676539E-01  0.00000000000E+00 0.  1.
     999901    1    3    3    0    0 -0.48024858566E-01  0.74236686018E-01 -0.10318987548E+00  0.89043002139E+00  0.88000000000E+00 0.  1.
        -11    1    4    4    0    0  0.19862069516E-01 -0.28029456936E-01  0.44247921819E-01  0.56020460261E-01  0.51100000000E-03 0.  1.
         11    1    4    4    0    0  0.44896732775E-01 -0.38707205768E-01  0.45996758982E-01  0.75032841810E-01  0.51100000000E-03 0. -1.
</event>
<event>
 8    1  0.1090774E+005  0.1043930E+01  0.7957747E-01            NaN
         13   -1    0    0    0    0  0.00000000000E+00  0.00000000000E+00  0.74505805969E-08  0.10566000000E+00  0.10566000000E+00 0.  1.
     999900   -1    0    0    0    0 -0.00000000000E+00 -0.00000000000E+00 -0.74505805969E-08  0.93827000000E+00  0.93827000000E+00 0. -1.
     999902    2    1    2    0    0  0.20538550389E-01  0.11900384476E-01 -0.63695621489E-02  0.10193531303E+01  0.10190568099E+01 0.  0.
     999903    2    3    3    0    0 -0.50712510659E-01  0.11431688455E+00 -0.30377350870E-01  0.13022871430E+00  0.19915465123E-01 0.  0.
         14    1    1    2    0    0 -0.20538550389E-01 -0.11900384476E-01  0.63695621489E-02  0.24576869709E-01  0.00000000000E+00 0.  1.
     999901    1    3    3    0    0  0.71251061047E-01 -0.10241650008E+00  0.24007788721E-01  0.88912441599E+00  0.88000000000E+00 0.  1.
        -11    1    4    4    0    0 -0.20490167299E-01  0.55196735017E-01 -0.23788850181E-01  0.63503519795E-01  0.51100000000E-03 0. -1.
         11    1    4    4    0    0 -0.30222343359E-01  0.59120149538E-01 -0.65885006893E-02  0.66725194506E-01  0.51100000000E-03 0.  1.
</event>
<event>
 8    1  0.1090774E+005  0.1043930E+01  0.7957747E-01            NaN
         13   -1    0    0    0    0  0.00000000000E+00  0.00000000000E+00  0.74505805969E-08  0.10566000000E+00  0.10566000000E+00 0.  1.
     999900   -1    0    0    0    0 -0.00000000000E+00 -0.00000000000E+00 -0.74505805969E-08  0.93827000000E+00  0.93827000000E+00 0. -1.
     999902    2    1    2    0    0 -0.30201941287E-02 -0.21109186122E-01 -0.10797284959E-01  0.10200281031E+01  0.10197480230E+01 0.  0.
     999903    2    3    3    0    0 -0.23311812873E-01 -0.29442071408E-01  0.12260740584E+00  0.12970344421E+00  0.19496955762E-01 0.  0.
         14    1    1    2    0    0  0.30201941287E-02  0.21109186122E-01  0.10797284959E-01  0.23901896866E-01  0.00000000000E+00 0.  1.
     999901    1    3    3    0    0  0.20291618744E-01  0.83328852853E-02 -0.13340469080E+00  0.89032465893E+00  0.88000000000E+00 0. -1.
        -11    1    4    4    0    0 -0.13213764486E-01 -0.29262300396E-01  0.96703188985E-01  0.10189530744E+00  0.51100000000E-03 0.  1.
         11    1    4    4    0    0 -0.10098048387E-01 -0.17977101175E-03  0.25904216854E-01  0.27808136770E-01  0.51100000000E-03 0. -1.
</event>
<event>
 7    1  0.1090774E+005  0.1043930E+01  0.7957747E-01            NaN
         13   -1    0    0    0    0  0.00000000000E+00  0.00000000000E+00  0.74505805969E-08  0.10566000000E+00  0.10566000000E+00 0.  1.
     999900   -1    0    0    0    0 -0.00000000000E+00 -0.00000000000E+00 -0.74505805969E-08  0.93827000000E+00  0.93827000000E+00 0. -1.
     999903    2    1    2    0    0 -0.15335884315E-01 -0.96898040345E-01 -0.33238136989E-01  0.10540274628E+00  0.19507578091E-01 0.  0.
         14    1    1    2    0    0 -0.85340017213E-02  0.54212330264E-01  0.15356329813E-01  0.56987918048E-01  0.00000000000E+00 0.  1.
     999901    1    1    2    0    0  0.23869886036E-01  0.42685710081E-01  0.17881807176E-01  0.88153933567E+00  0.88000000000E+00 0.  1.
        -11    1    3    3    0    0 -0.15653938913E-01 -0.55253569518E-01 -0.26354927945E-01  0.63188971316E-01  0.51100000000E-03 0. -1.
         11    1    3    3    0    0  0.31805459821E-03 -0.41644470827E-01 -0.68832090441E-02  0.42213774967E-01  0.51100000000E-03 0.  1.
</event>
<event>
 8    1  0.1090774E+005  0.1043930E+01  0.7957747E-01            NaN
         13   -1    0    0    0    0  0.00000000000E+00  0.00000000000E+00  0.74505805969E-08  0.10566000000E+00  0.10566000000E+00 0. -1.
     999900   -1    0    0    0    0 -0.00000000000E+00 -0.00000000000E+00 -0.74505805969E-08  0.93827000000E+00  0.93827000000E+00 0. -1.
     999902    2    1    2    0    0 -0.44349902136E-03  0.51031194219E-02  0.23195445199E-01  0.10201756910E+01  0.10198990995E+01 0.  0.
     999903    2    3    3    0    0  0.10263238525E-01 -0.10871478554E+00 -0.64351851571E-01  0.12847300572E+00  0.20974120714E-01 0.  0.
         14    1    1    2    0    0  0.44349902136E-03 -0.51031194219E-02 -0.23195445199E-01  0.23754309024E-01  0.00000000000E+00 0.  1.
     999901    1    3    3    0    0 -0.10706737546E-01  0.11381790496E+00  0.87547296770E-01  0.89170268525E+00  0.88000000000E+00 0.  1.
        -11    1    4    4    0    0 -0.54529282968E-02 -0.12206891047E-01 -0.67196256866E-02  0.14971877184E-01  0.51100000000E-03 0. -1.
         11    1    4    4    0    0  0.15716166821E-01 -0.96507894488E-01 -0.57632225884E-01  0.11350112854E+00  0.51100000000E-03 0.  1.
</event>
<event>
 8    1  0.1090774E+005  0.1043930E+01  0.7957747E-01            NaN
         13   -1    0    0    0    0  0.00000000000E+00  0.00000000000E+00  0.74505805969E-08  0.10566000000E+00  0.10566000000E+00 0. -1.
     999900   -1    0    0    0    0 -0.00000000000E+00 -0.00000000000E+00 -0.74505805969E-08  0.93827000000E+00  0.93827000000E+00 0. -1.
     999902    2    1    2    0    0 -0.12995992677E-01 -0.16949369979E-01  0.10210743867E-01  0.10202564650E+01  0.10199817734E+01 0.  0.
     999903    2    3    3    0    0  0.12318814334E+00  0.25672239707E-01 -0.16583532984E-01  0.12835924348E+00  0.19149393471E-01 0.  0.
         14    1    1    2    0    0  0.12995992677E-01  0.16949369979E-01 -0.10210743867E-01  0.23673534984E-01  0.00000000000E+00 0.  1.
     999901    1    3    3    0    0 -0.13618413601E+00 -0.42621609685E-01  0.26794276851E-01  0.89189722154E+00  0.88000000000E+00 0. -1.
        -11    1    4    4    0    0  0.10518239557E+00  0.16831338777E-01 -0.18812310380E-01  0.10817021052E+00  0.51100000000E-03 0. -1.
         11    1    4    4    0    0  0.18005747769E-01  0.88409009290E-02  0.22287773954E-02  0.20189032955E-01  0.51100000000E-03 0.  1.
</event>
<event>
 8    1  0.1090774E+005  0.1043930E+01  0.7957747E-01            NaN
         13   -1    0    0    0    0  0.00000000000E+00  0.00000000000E+00  0.74505805969E-08  0.10566000000E+00  0.10566000000E+00 0. -1.
     999900   -1    0    0    0    0 -0.00000000000E+00 -0.00000000000E+00 -0.74505805969E-08  0.93827000000E+00  0.93827000000E+00 0. -1.
     999902    2    1    2    0    0  0.20180382970E-01  0.12460723254E-01  0.20583143026E-02  0.10201234014E+01  0.10198455765E+01 0.  0.
     999903    2    3    3    0    0 -0.22978556191E-01 -0.62459699351E-01  0.10915709379E+00  0.12942372565E+00  0.20149480074E-01 0.  0.
         14    1    1    2    0    0 -0.20180382970E-01 -0.12460723254E-01 -0.20583143026E-02  0.23806598635E-01  0.00000000000E+00 0.  1.
     999901    1    3    3    0    0  0.43158939161E-01  0.74920422605E-01 -0.10709877949E+00  0.89069967572E+00  0.88000000000E+00 0. -1.
        -11    1    4    4    0    0 -0.10642900325E-01 -0.36787403908E-01  0.79813134727E-01  0.88526730481E-01  0.51100000000E-03 0.  1.
         11    1    4    4    0    0 -0.12335655866E-01 -0.25672295443E-01  0.29343959068E-01  0.40896995167E-01  0.51100000000E-03 0. -1.
</event>
<event>
 8    1  0.1090774E+005  0.1043930E+01  0.7957747E-01            NaN
         13   -1    0    0    0    0  0.00000000000E+00  0.00000000000E+00  0.74505805969E-08  0.10566000000E+00  0.10566000000E+00 0. -1.
     999900   -1    0    0    0    0 -0.00000000000E+00 -0.00000000000E+00 -0.74505805969E-08  0.93827000000E+00  0.93827000000E+00 0.  1.
     999902    2    1    2    0    0 -0.10785947805E-01 -0.70114644237E-02  0.19897880890E-01  0.10202356343E+01  0.10199604534E+01 0.  0.
     999903    2    3    3    0    0 -0.65858442979E-01  0.38611597129E-01 -0.10225084218E+00  0.12892493983E+00  0.18390634585E-01 0.  0.
         14    1    1    2    0    0  0.10785947805E-01  0.70114644237E-02 -0.19897880890E-01  0.23694365730E-01  0.00000000000E+00 0.  1.
     999901    1    3    3    0    0  0.55072495174E-01 -0.45623061552E-01  0.12214872307E+00  0.89131069444E+00  0.88000000000E+00 0.  1.
        -11    1    4    4    0    0 -0.42740971344E-01  0.27842467024E-01 -0.80999428701E-01  0.95724407402E-01  0.51100000000E-03 0. -1.
         11    1    4    4    0    0 -0.23117471635E-01  0.10769130104E-01 -0.21251413477E-01  0.33200532432E-01  0.51100000000E-03 0.  1.
</event>
<event>
 8    1  0.1090774E+005  0.1043930E+01  0.7957747E-01            NaN
         13   -1    0    0    0    0  0.00000000000E+00  0.00000000000E+00  0.74505805969E-08  0.10566000000E+00  0.10566000000E+00 0. -1.
     999900   -1    0    0    0    0 -0.00000000000E+00 -0.00000000000E+00 -0.74505805969E-08  0.93827000000E+00  0.93827000000E+00 0. -1.
     999902    2    1    2    0    0 -0.90575733348E-03  0.76310798989E-02  0.22926156919E-01  0.10197502058E+01  0.10194634960E+01 0.  0.
     999903    2    3    3    0    0  0.37117636796E-01 -0.79278293740E-01 -0.90389323844E-01  0.12742772154E+00  0.20120326335E-01 0.  0.
         14    1    1    2    0    0  0.90575733348E-03 -0.76310798989E-02 -0.22926156919E-01  0.24179794206E-01  0.00000000000E+00 0.  1.
     999901    1    3    3    0    0 -0.38023394129E-01  0.86909373638E-01  0.11331548076E+00  0.89232248426E+00  0.88000000000E+00 0.  1.
        -11    1    4    4    0    0  0.20911062113E-01 -0.25692350138E-01 -0.41483569481E-01  0.53089707404E-01  0.51100000000E-03 0. -1.
         11    1    4    4    0    0  0.16206574683E-01 -0.53585943602E-01 -0.48905754363E-01  0.74338014134E-01  0.51100000000E-03 0.  1.
</event>
<event>
 8    1  0.1090774E+005  0.1043930E+01  0.7957747E-01            NaN
         13   -1    0    0    0    0  0.00000000000E+00  0.00000000000E+00  0.74505805969E-08  0.10566000000E+00  0.10566000000E+00 0. -1.
     999900   -1    0    0    0    0 -0.00000000000E+00 -0.00000000000E+00 -0.74505805969E-08  0.93827000000E+00  0.93827000000E+00 0.  1.
     999902    2    1    2    0    0 -0.16685704949E-01 -0.13575631877E-02  0.16236761072E-01  0.10206085906E+01  0.10203421029E+01 0.  0.
     999903    2    3    3    0    0  0.54793970133E-01 -0.52078026486E-01 -0.10186292835E+00  0.12840376769E+00  0.19924140606E-01 0.  0.
         14    1    1    2    0    0  0.16685704949E-01  0.13575631877E-02 -0.16236761072E-01  0.23321409425E-01  0.00000000000E+00 0.  1.
     999901    1    3    3    0    0 -0.71479675082E-01  0.50720463298E-01  0.11809968942E+00  0.89220482289E+00  0.88000000000E+00 0. -1.
        -11    1    4    4    0    0  0.29154602632E-01 -0.14405721937E-01 -0.45302764055E-01  0.55768425038E-01  0.51100000000E-03 0.  1.
         11    1    4    4    0    0  0.25639367500E-01 -0.37672304549E-01 -0.56560164292E-01  0.72635342648E-01  0.51100000000E-03 0. -1.
</event>
<event>
 8    1  0.1090774E+005  0.1043930E+01  0.7957747E-01            NaN
         13   -1    0    0    0    0  0.00000000000E+00  0.00000000000E+00  0.74505805969E-08  0.10566000000E+00  0.10566000000E+00 0. -1.
     999900   -1    0    0    0    0 -0.00000000000E+00 -0.00000000000E+00 -0.74505805969E-08  0.93827000000E+00  0.93827000000E+00 0. -1.
     999902    2    1    2    0    0  0.22882325203E-01 -0.19042339390E-02  0.62279947892E-02  0.10201389338E+01  0.10198614756E+01 0.  0.
     999903    2    3    3    0    0  0.61967414809E-01  0.62260255058E-01  0.96861536110E-01  0.13229932849E+00  0.20116045426E-01 0.  0.
         14    1    1    2    0    0 -0.22882325203E-01  0.19042339390E-02 -0.62279947892E-02  0.23791066237E-01  0.00000000000E+00 0. -1.
     999901    1    3    3    0    0 -0.39085089606E-01 -0.64164488997E-01 -0.90633541321E-01  0.88783960527E+00  0.88000000000E+00 0. -1.
        -11    1    4    4    0    0  0.20207789866E-01  0.34419420657E-01  0.43784430187E-01  0.59248533631E-01  0.51100000000E-03 0.  1.
         11    1    4    4    0    0  0.41759624943E-01  0.27840834401E-01  0.53077105923E-01  0.73050794860E-01  0.51100000000E-03 0. -1.
</event>
<event>
 8    1  0.1090774E+005  0.1043930E+01  0.7957747E-01            NaN
         13   -1    0    0    0    0  0.00000000000E+00  0.00000000000E+00  0.74505805969E-08  0.10566000000E+00  0.10566000000E+00 0.  1.
     999900   -1    0    0    0    0 -0.00000000000E+00 -0.00000000000E+00 -0.74505805969E-08  0.93827000000E+00  0.93827000000E+00 0.  1.
     999902    2    1    2    0    0  0.15266862982E-01 -0.53137569233E-02 -0.16741168909E-01  0.10206581317E+01  0.10203927881E+01 0.  0.
     999903    2    3    3    0    0 -0.10440337488E+00  0.51660218622E-01  0.49612473403E-01  0.12826258847E+00  0.20519532392E-01 0.  0.
         14    1    1    2    0    0 -0.15266862982E-01  0.53137569233E-02  0.16741168909E-01  0.23271868305E-01  0.00000000000E+00 0.  1.
     999901    1    3    3    0    0  0.11967023786E+00 -0.56973975546E-01 -0.66353642312E-01  0.89239554322E+00  0.88000000000E+00 0.  1.
        -11    1    4    4    0    0 -0.65593466587E-01  0.39505235450E-01  0.24208283452E-01  0.80308583574E-01  0.51100000000E-03 0.  1.
         11    1    4    4    0    0 -0.38809908292E-01  0.12154983173E-01  0.25404189951E-01  0.47954004897E-01  0.51100000000E-03 0. -1.
</event>
<event>
 8    1  0.1090774E+005  0.1043930E+01  0.7957747E-01            NaN
         13   -1    0    0    0    0  0.00000000000E+00  0.00000000000E+00  0.74505805969E-08  0.10566000000E+00  0.10566000000E+00 0. -1.
     999900   -1    0    0    0    0 -0.00000000000E+00 -0.00000000000E+00 -0.74505805969E-08  0.93827000000E+00  0.93827000000E+00 0. -1.
     999902    2    1    2    0    0  0.33959195035E-02  0.21951351147E-01  0.21276558441E-02  0.10216158564E+01  0.10213721344E+01 0.  0.
     999903    2    3    3    0    0 -0.40915308931E-02  0.50338828160E-01 -0.12085495951E+00  0.13257894238E+00  0.20506498443E-01 0.  0.
         14    1    1    2    0    0 -0.33959195035E-02 -0.21951351147E-01 -0.21276558441E-02  0.22314143628E-01  0.00000000000E+00 0. -1.
     999901    1    3    3    0    0  0.74874503966E-02 -0.28387477013E-01  0.12298261535E+00  0.88903691399E+00  0.88000000000E+00 0. -1.
        -11    1    4    4    0    0  0.69442406242E-02  0.29285047137E-01 -0.57365017165E-01  0.64783043916E-01  0.51100000000E-03 0.  1.
         11    1    4    4    0    0 -0.11035771517E-01  0.21053781023E-01 -0.63489942345E-01  0.67795898462E-01  0.51100000000E-03 0. -1.
</event>
<event>
 8    1  0.1090774E+005  0.1043930E+01  0.7957747E-01            NaN
         13   -1    0    0    0    0  0.00000000000E+00  0.00000000000E+00  0.74505805969E-08  0.10566000000E+00  0.10566000000E+00 0.  1.
     999900   -1    0    0    0    0 -0.00000000000E+00 -0.00000000000E+00 -0.74505805969E-08  0.93827000000E+00  0.93827000000E+00 0.  1.
     999902    2    1    2    0    0  0.17772378670E-01  0.12219479035E-01 -0.46291459960E-02  0.10218709405E+01  0.10216328191E+01 0.  0.
     999903    2    3    3    0    0  0.66842629542E-01  0.55586580321E-01 -0.10030376131E+00  0.13426617095E+00  0.20217692545E-01 0.  0.
         14    1    1    2    0    0 -0.17772378670E-01 -0.12219479035E-01  0.46291459960E-02  0.22059059457E-01  0.00000000000E+00 0.  1.
     999901    1    3    3    0    0 -0.49070250872E-01 -0.43367101286E-01  0.95674615315E-01  0.88760476960E+00  0.88000000000E+00 0. -1.
        -11    1    4    4    0    0  0.24156388169E-01  0.33159818175E-01 -0.46819506084E-01  0.62252967011E-01  0.51100000000E-03 0.  1.
         11    1    4    4    0    0  0.42686241373E-01  0.22426762145E-01 -0.53484255227E-01  0.72013203935E-01  0.51100000000E-03 0. -1.
</event>
<event>
 8    1  0.1090774E+005  0.1043930E+01  0.7957747E-01            NaN
         13   -1    0    0    0    0  0.00000000000E+00  0.00000000000E+00  0.74505805969E-08  0.10566000000E+00  0.10566000000E+00 0.  1.
     999900   -1    0    0    0    0 -0.00000000000E+00 -0.00000000000E+00 -0.74505805969E-08  0.93827000000E+00  0.93827000000E+00 0.  1.
     999902    2    1    2    0    0  0.28383578904E-02 -0.85868909143E-02 -0.21577655195E-01  0.10205337145E+01  0.10202654930E+01 0.  0.
     999903    2    3    3    0    0 -0.21038950304E-01  0.12627646858E+00  0.76571459750E-02  0.12945968550E+00  0.17685992680E-01 0.  0.
         14    1    1    2    0    0 -0.28383578904E-02  0.85868909143E-02  0.21577655195E-01  0.23396285491E-01  0.00000000000E+00 0.  1.
     999901    1    3    3    0    0  0.23877308194E-01 -0.13486335950E+00 -0.29234801170E-01  0.89107402901E+00  0.88000000000E+00 0. -1.
        -11    1    4    4    0    0 -0.46359808574E-02  0.78584794192E-01  0.67991373316E-02  0.79016147630E-01  0.51100000000E-03 0.  1.
         11    1    4    4    0    0 -0.16402969447E-01  0.47691674389E-01  0.85800864345E-03  0.50443537867E-01  0.51100000000E-03 0. -1.
</event>
<event>
 8    1  0.1090774E+005  0.1043930E+01  0.7957747E-01            NaN
         13   -1    0    0    0    0  0.00000000000E+00  0.00000000000E+00  0.74505805969E-08  0.10566000000E+00  0.10566000000E+00 0.  1.
     999900   -1    0    0    0    0 -0.00000000000E+00 -0.00000000000E+00 -0.74505805969E-08  0.93827000000E+00  0.93827000000E+00 0.  1.
     999902    2    1    2    0    0  0.84184859829E-02  0.23729660444E-01  0.27986446222E-02  0.10185962260E+01  0.10182811358E+01 0.  0.
     999903    2    3    3    0    0  0.12225817394E-01  0.11204662766E+00 -0.66661250229E-01  0.13144400717E+00  0.11396813472E-01 0.  0.
         14    1    1    2    0    0 -0.84184859829E-02 -0.23729660444E-01 -0.27986446222E-02  0.25333773954E-01  0.00000000000E+00 0. -1.
     999901    1    3    3    0    0 -0.38073314111E-02 -0.88316967214E-01  0.69459894852E-01  0.88715221888E+00  0.88000000000E+00 0. -1.
        -11    1    4    4    0    0  0.67371582390E-02  0.86882534429E-01 -0.55855038503E-01  0.10350850466E+00  0.51100000000E-03 0.  1.
         11    1    4    4    0    0  0.54886591550E-02  0.25164093229E-01 -0.10806211726E-01  0.27935502505E-01  0.51100000000E-03 0. -1.
</event>
<event>
 8    1  0.1090774E+005  0.1043930E+01  0.7957747E-01            NaN
         13   -1    0    0    0    0  0.00000000000E+00  0.00000000000E+00  0.74505805969E-08  0.10566000000E+00  0.10566000000E+00 0. -1.
     999900   -1    0    0    0    0 -0.00000000000E+00 -0.00000000000E+00 -0.74505805969E-08  0.93827000000E+00  0.93827000000E+00 0.  1.
     999902    2    1    2    0    0 -0.62844607995E-02  0.24557969614E-02 -0.22946473460E-01  0.10200120981E+01  0.10197316384E+01 0.  0.
     999903    2    3    3    0    0  0.10796871117E+00 -0.52181242936E-01 -0.47909390713E-01  0.13059535627E+00  0.19486217037E-01 0.  0.
         14    1    1    2    0    0  0.62844607995E-02 -0.24557969614E-02  0.22946473460E-01  0.23917901883E-01  0.00000000000E+00 0. -1.
     999901    1    3    3    0    0 -0.11425317197E+00  0.54637039897E-01  0.24962917253E-01  0.88941674184E+00  0.88000000000E+00 0.  1.
        -11    1    4    4    0    0  0.20257893725E-01 -0.18729021926E-01 -0.11913303450E-01  0.30055722260E-01  0.51100000000E-03 0. -1.
         11    1    4    4    0    0  0.87710817449E-01 -0.33452221010E-01 -0.35996087263E-01  0.10053963401E+00  0.51100000000E-03 0.  1.
</event>
<event>
 8    1  0.1090774E+005  0.1043930E+01  0.7957747E-01            NaN
         13   -1    0    0    0    0  0.00000000000E+00  0.00000000000E+00  0.74505805969E-08  0.10566000000E+00  0.10566000000E+00 0.  1.
     999900   -1    0    0    0    0 -0.00000000000E+00 -0.00000000000E+00 -0.74505805969E-08  0.93827000000E+00  0.93827000000E+00 0. -1.
     999902    2    1    2    0    0  0.27474274946E-02 -0.23033965316E-01  0.53624679071E-02  0.10201210106E+01  0.10198431292E+01 0.  0.
     999903    2    3    3    0    0  0.93877265448E-01 -0.62712541869E-01 -0.65174757952E-01  0.13172102349E+00  0.18891137568E-01 0.  0.
         14    1    1    2    0    0 -0.27474274946E-02  0.23033965316E-01 -0.53624679071E-02  0.23808989438E-01  0.00000000000E+00 0.  1.
     999901    1    3    3    0    0 -0.91129837953E-01  0.39678576553E-01  0.70537225859E-01  0.88839998707E+00  0.88000000000E+00 0.  1.
        -11    1    4    4    0    0  0.29972862124E-01 -0.28052175329E-01 -0.16591736317E-01  0.44281416414E-01  0.51100000000E-03 0. -1.
         11    1    4    4    0    0  0.63904403324E-01 -0.34660366540E-01 -0.48583021635E-01  0.87439607073E-01  0.51100000000E-03 0.  1.
</event>
<event>
 8    1  0.1090774E+005  0.1043930E+01  0.7957747E-01            NaN
         13   -1    0    0    0    0  0.00000000000E+00  0.00000000000E+00  0.74505805969E-08  0.10566000000E+00  0.10566000000E+00 0. -1.
     999900   -1    0    0    0    0 -0.00000000000E+00 -0.00000000000E+00 -0.74505805969E-08  0.93827000000E+00  0.93827000000E+00 0.  1.
     999902    2    1    2    0    0  0.13221891515E-02  0.12881478870E-01  0.17717337208E-01  0.10219849614E+01  0.10217493218E+01 0.  0.
     999903    2    3    3    0    0  0.91609414422E-01 -0.29259744608E-01  0.90258576769E-01  0.13339625045E+00  0.19988283795E-01 0.  0.
         14    1    1    2    0    0 -0.13221891515E-02 -0.12881478870E-01 -0.17717337208E-01  0.21945038614E-01  0.00000000000E+00 0.  1.
     999901    1    3    3    0    0 -0.90287225270E-01  0.42141223477E-01 -0.72541239561E-01  0.88858871093E+00  0.88000000000E+00 0.  1.
        -11    1    4    4    0    0  0.41227186788E-01 -0.30897949752E-02  0.35043820737E-01  0.54199245901E-01  0.51100000000E-03 0. -1.
         11    1    4    4    0    0  0.50382227634E-01 -0.26169949632E-01  0.55214756032E-01  0.79197004551E-01  0.51100000000E-03 0.  1.
</event>
<event>
 8    1  0.1090774E+005  0.1043930E+01  0.7957747E-01            NaN
         13   -1    0    0    0    0  0.00000000000E+00  0.00000000000E+00  0.74505805969E-08  0.10566000000E+00  0.10566000000E+00 0. -1.
     999900   -1    0    0    0    0 -0.00000000000E+00 -0.00000000000E+00 -0.74505805969E-08  0.93827000000E+00  0.93827000000E+00 0. -1.
     999902    2    1    2    0    0  0.11177856040E-02  0.20955743934E-01  0.13118765530E-01  0.10191813706E+01  0.10188808426E+01 0.  0.
     999903    2    3    3    0    0  0.41093055137E-01  0.61484226910E-01 -0.10449752402E+00  0.12953302901E+00  0.19751550318E-01 0.  0.
         14    1    1    2    0    0 -0.11177856040E-02 -0.20955743934E-01 -0.13118765530E-01  0.24748629407E-01  0.00000000000E+00 0.  1.
     999901    1    3    3    0    0 -0.39975269533E-01 -0.40528482976E-01  0.11761628955E+00  0.88964834158E+00  0.88000000000E+00 0.  1.
        -11    1    4    4    0    0 -0.33187373170E-03  0.11407637538E-01 -0.18427369245E-01  0.21681175998E-01  0.51100000000E-03 0. -1.
         11    1    4    4    0    0  0.41424928869E-01  0.50076589372E-01 -0.86070154775E-01  0.10785185302E+00  0.51100000000E-03 0.  1.
</event>
<event>
 8    1  0.1090774E+005  0.1043930E+01  0.7957747E-01            NaN
         13   -1    0    0    0    0  0.00000000000E+00  0.00000000000E+00  0.74505805969E-08  0.10566000000E+00  0.10566000000E+00 0.  1.
     999900   -1    0    0    0    0 -0.00000000000E+00 -0.00000000000E+00 -0.74505805969E-08  0.93827000000E+00  0.93827000000E+00 0.  1.
     999902    2    1    2    0    0 -0.19715381926E-01  0.65192217975E-02 -0.10339639996E-01  0.10207329163E+01  0.10204692948E+01 0.  0.
     999903    2    3    3    0    0 -0.64603147398E-01  0.42376090036E-01  0.10438314598E+00  0.13142872530E+00  0.20208142136E-01 0.  0.
         14    1    1    2    0    0  0.19715381926E-01 -0.65192217975E-02  0.10339639996E-01  0.23197083709E-01  0.00000000000E+00 0.  1.
     999901    1    3    3    0    0  0.44887765472E-01 -0.35856868238E-01 -0.11472278598E+00  0.88930419099E+00  0.88000000000E+00 0.  1.
        -11    1    4    4    0    0 -0.53291755942E-01  0.30201415591E-01  0.92688275997E-01  0.11110136985E+00  0.51100000000E-03 0. -1.
         11    1    4    4    0    0 -0.11311391456E-01  0.12174674445E-01  0.11694869986E-01  0.20327355448E-01  0.51100000000E-03 0.  1.
</event>
<event>
 8    1  0.1090774E+005  0.1043930E+01  0.7957747E-01            NaN
         13   -1    0    0    0    0  0.00000000000E+00  0.00000000000E+00  0.74505805969E-08  0.10566000000E+00  0.10566000000E+00 0. -1.
     999900   -1    0    0    0    0 -0.00000000000E+00 -0.00000000000E+00 -0.74505805969E-08  0.93827000000E+00  0.93827000000E+00 0.  1.
     999902    2    1    2    0    0 -0.19313677446E-01  0.50098681369E-02  0.13082624576E-01  0.10200705788E+01  0.10197915050E+01 0.  0.
     999903    2    3    3    0    0  0.66987391216E-01  0.92689560785E-01  0.59232072695E-01  0.13031478390E+00  0.19870561318E-01 0.  0.
         14    1    1    2    0    0  0.19313677446E-01 -0.50098681369E-02 -0.13082624576E-01  0.23859421221E-01  0.00000000000E+00 0.  1.
     999901    1    3    3    0    0 -0.86301068662E-01 -0.87679692648E-01 -0.46149448119E-01  0.88975579488E+00  0.88000000000E+00 0.  1.
        -11    1    4    4    0    0  0.12740832214E-02  0.30395009685E-02  0.64552755819E-02  0.72659175629E-02  0.51100000000E-03 0. -1.
         11    1    4    4    0    0  0.65713307995E-01  0.89650059817E-01  0.52776797113E-01  0.12304886634E+00  0.51100000000E-03 0.  1.
</event>
<event>
 8    1  0.1090774E+005  0.1043930E+01  0.7957747E-01            NaN
         13   -1    0    0    0    0  0.00000000000E+00  0.00000000000E+00  0.74505805969E-08  0.10566000000E+00  0.10566000000E+00 0.  1.
     999900   -1    0    0    0    0 -0.00000000000E+00 -0.00000000000E+00 -0.74505805969E-08  0.93827000000E+00  0.93827000000E+00 0.  1.
     999902    2    1    2    0    0  0.23434844526E-02 -0.22876492082E-01  0.33835608102E-02  0.10206861988E+01  0.10204215022E+01 0.  0.
     999903    2    3    3    0    0 -0.69833484915E-01  0.39003502095E-02  0.10897375241E+00  0.13103694055E+00  0.20086630568E-01 0.  0.
         14    1    1    2    0    0 -0.23434844526E-02  0.22876492082E-01 -0.33835608102E-02  0.23243801176E-01  0.00000000000E+00 0.  1.
     999901    1    3    3    0    0  0.72176969368E-01 -0.26776842291E-01 -0.10559019160E+00  0.88964925828E+00  0.88000000000E+00 0.  1.
        -11    1    4    4    0    0 -0.21495665208E-01  0.33760878497E-02  0.18971095466E-01  0.28872567882E-01  0.51100000000E-03 0. -1.
         11    1    4    4    0    0 -0.48337819708E-01  0.52426235985E-03  0.90002656940E-01  0.10216437267E+00  0.51100000000E-03 0.  1.
</event>
<event>
 8    1  0.1090774E+005  0.1043930E+01  0.7957747E-01            NaN
         13   -1    0    0    0    0  0.00000000000E+00  0.00000000000E+00  0.74505805969E-08  0.10566000000E+00  0.10566000000E+00 0.  1.
     999900   -1    0    0    0    0 -0.00000000000E+00 -0.00000000000E+00 -0.74505805969E-08  0.93827000000E+00  0.93827000000E+00 0. -1.
     999902    2    1    2    0    0 -0.15663623481E-01  0.17363153206E-01  0.11040086516E-02  0.10205195958E+01  0.10202510467E+01 0.  0.
     999903    2    3    3    0    0  0.10455220356E+00 -0.69770942788E-01  0.12052283956E-01  0.12801522018E+00  0.21059233671E-01 0.  0.
         14    1    1    2    0    0  0.15663623481E-01 -0.17363153206E-01 -0.11040086516E-02  0.23410404203E-01  0.00000000000E+00 0. -1.
     999901    1    3    3    0    0 -0.12021582704E+00  0.87134095994E-01 -0.10948275304E-01  0.89250437561E+00  0.88000000000E+00 0. -1.
        -11    1    4    4    0    0  0.82554339414E-01 -0.45851732514E-01  0.13949670996E-01  0.95459178566E-01  0.51100000000E-03 0.  1.
         11    1    4    4    0    0  0.21997864149E-01 -0.23919210274E-01 -0.18973870401E-02  0.32556041618E-01  0.51100000000E-03 0. -1.
</event>
<event>
 8    1  0.1090774E+005  0.1043930E+01  0.7957747E-01            NaN
         13   -1    0    0    0    0  0.00000000000E+00  0.00000000000E+00  0.74505805969E-08  0.10566000000E+00  0.10566000000E+00 0.  1.
     999900   -1    0    0    0    0 -0.00000000000E+00 -0.00000000000E+00 -0.74505805969E-08  0.93827000000E+00  0.93827000000E+00 0.  1.
     999902    2    1    2    0    0 -0.14428370748E-01 -0.26545233831E-02  0.19169508467E-01  0.10197909356E+01  0.10195052025E+01 0.  0.
     999903    2    3    3    0    0  0.81755829721E-01  0.69750489557E-01  0.70409787193E-01  0.13011714564E+00  0.20586086815E-01 0.  0.
         14    1    1    2    0    0  0.14428370748E-01  0.26545233831E-02 -0.19169508467E-01  0.24139064433E-01  0.00000000000E+00 0. -1.
     999901    1    3    3    0    0 -0.96184200468E-01 -0.72405012940E-01 -0.51240278726E-01  0.88967378993E+00  0.88000000000E+00 0.  1.
        -11    1    4    4    0    0  0.56049677603E-01  0.55947306346E-01  0.59114284891E-01  0.98825235876E-01  0.51100000000E-03 0.  1.
         11    1    4    4    0    0  0.25706152118E-01  0.13803183211E-01  0.11295502302E-01  0.31291909765E-01  0.51100000000E-03 0. -1.
</event>
<event>
 8    1  0.1090774E+005  0.1043930E+01  0.7957747E-01            NaN
         13   -1    0    0    0    0  0.00000000000E+00  0.00000000000E+00  0.74505805969E-08  0.10566000000E+00  0.10566000000E+00 0.  1.
     999900   -1    0    0    0    0 -0.00000000000E+00 -0.00000000000E+00 -0.74505805969E-08  0.93827000000E+00  0.93827000000E+00 0. -1.
     999902    2    1    2    0    0  0.47367182459E-02  0.25608593943E-02 -0.22162507516E-01  0.10211227371E+01  0.10208679998E+01 0.  0.
     999903    2    3    3    0    0 -0.66656186193E-01 -0.39390757618E-01 -0.10629574426E+00  0.13324026376E+00  0.21436037346E-01 0.  0.
         14    1    1    2    0    0 -0.47367182459E-02 -0.25608593943E-02  0.22162507516E-01  0.22807262878E-01  0.00000000000E+00 0.  1.
     999901    1    3    3    0    0  0.71392904439E-01  0.41951617013E-01  0.84133236740E-01  0.88788247336E+00  0.88000000000E+00 0.  1.
        -11    1    4    4    0    0 -0.27061583784E-01 -0.42545238006E-02 -0.36164223941E-01  0.45371163793E-01  0.51100000000E-03 0. -1.
         11    1    4    4    0    0 -0.39594602409E-01 -0.35136233818E-01 -0.70131520315E-01  0.87869099970E-01  0.51100000000E-03 0.  1.
</event>
<event>
 8    1  0.1090774E+005  0.1043930E+01  0.7957747E-01            NaN
         13   -1    0    0    0    0  0.00000000000E+00  0.00000000000E+00  0.74505805969E-08  0.10566000000E+00  0.10566000000E+00 0. -1.
     999900   -1    0    0    0    0 -0.00000000000E+00 -0.00000000000E+00 -0.74505805969E-08  0.93827000000E+00  0.93827000000E+00 0.  1.
     999902    2    1    2    0    0 -0.96663803170E-02  0.20489364837E-01 -0.15700767283E-03  0.10212743687E+01  0.10210230450E+01 0.  0.
     999903    2    3    3    0    0 -0.76320843007E-01 -0.98058060144E-01  0.33185864233E-01  0.13020307159E+00  0.20280138788E-01 0.  0.
         14    1    1    2    0    0  0.96663803170E-02 -0.20489364837E-01  0.15700767283E-03  0.22655631337E-01  0.00000000000E+00 0. -1.
     999901    1    3    3    0    0  0.66654462690E-01  0.11854742498E+00 -0.33342871906E-01  0.89107129708E+00  0.88000000000E+00 0.  1.
        -11    1    4    4    0    0 -0.31844167711E-01 -0.27664024700E-01  0.16386090976E-01  0.45256097692E-01  0.51100000000E-03 0.  1.
         11    1    4    4    0    0 -0.44476675295E-01 -0.70394035444E-01  0.16799773258E-01  0.84946973895E-01  0.51100000000E-03 0. -1.
</event>
<event>
 8    1  0.1090774E+005  0.1043930E+01  0.7957747E-01            NaN
         13   -1    0    0    0    0  0.00000000000E+00  0.00000000000E+00  0.74505805969E-08  0.10566000000E+00  0.10566000000E+00 0.  1.
     999900   -1    0    0    0    0 -0.00000000000E+00 -0.00000000000E+00 -0.74505805969E-08  0.93827000000E+00  0.93827000000E+00 0. -1.
     999902    2    1    2    0    0 -0.28101122529E-02  0.18729613489E-01  0.13754182499E-01  0.10205233196E+01  0.10202548569E+01 0.  0.
     999903    2    3    3    0    0 -0.11904388090E+00 -0.47871394553E-01 -0.74805520512E-02  0.13013189037E+00  0.20377297072E-01 0.  0.
         14    1    1    2    0    0  0.28101122529E-02 -0.18729613489E-01 -0.13754182499E-01  0.23406680426E-01  0.00000000000E+00 0. -1.
     999901    1    3    3    0    0  0.11623376865E+00  0.66601008043E-01  0.21234734550E-01  0.89039142920E+00  0.88000000000E+00 0.  1.
        -11    1    4    4    0    0 -0.82319864190E-01 -0.22723108743E-01 -0.44129668354E-02  0.85513946865E-01  0.51100000000E-03 0. -1.
         11    1    4    4    0    0 -0.36724016712E-01 -0.25148285810E-01 -0.30675852158E-02  0.44617943506E-01  0.51100000000E-03 0.  1.
</event>
<event>
 8    1  0.1090774E+005  0.1043930E+01  0.7957747E-01            NaN
         13   -1    0    0    0    0  0.00000000000E+00  0.00000000000E+00  0.74505805969E-08  0.10566000000E+00  0.10566000000E+00 0.  1.
     999900   -1    0    0    0    0 -0.00000000000E+00 -0.00000000000E+00 -0.74505805969E-08  0.93827000000E+00  0.93827000000E+00 0. -1.
     999902    2    1    2    0    0  0.59248680201E-02  0.22668625598E-01  0.51873222770E-02  0.10199325218E+01  0.10196501704E+01 0.  0.
     999903    2    3    3    0    0  0.33750087028E-02  0.12198602780E+00  0.48785011896E-01  0.13326956064E+00  0.22109200462E-01 0.  0.
         14    1    1    2    0    0 -0.59248680201E-02 -0.22668625598E-01 -0.51873222770E-02  0.23997478200E-01  0.00000000000E+00 0. -1.
     999901    1    3    3    0    0  0.25498593173E-02 -0.99317402198E-01 -0.43597689619E-01  0.88666296117E+00  0.88000000000E+00 0.  1.
        -11    1    4    4    0    0 -0.54691993310E-02  0.54844761686E-01  0.31048162184E-01  0.63262228239E-01  0.51100000000E-03 0. -1.
         11    1    4    4    0    0  0.88442080338E-02  0.67141266110E-01  0.17736849712E-01  0.70007332397E-01  0.51100000000E-03 0.  1.
</event>
<event>
 8    1  0.1090774E+005  0.1043930E+01  0.7957747E-01            NaN
         13   -1    0    0    0    0  0.00000000000E+00  0.00000000000E+00  0.74505805969E-08  0.10566000000E+00  0.10566000000E+00 0.  1.
     999900   -1    0    0    0    0 -0.00000000000E+00 -0.00000000000E+00 -0.74505805969E-08  0.93827000000E+00  0.93827000000E+00 0.  1.
     999902    2    1    2    0    0  0.11084305884E-01  0.20973967526E-01 -0.23108720236E-02  0.10200949569E+01  0.10198164599E+01 0.  0.
     999903    2    3    3    0    0 -0.66166345806E-01 -0.10611051012E+00  0.14294977858E-01  0.12746183970E+00  0.20118362603E-01 0.  0.
         14    1    1    2    0    0 -0.11084305884E-01 -0.20973967526E-01  0.23108720236E-02  0.23835043113E-01  0.00000000000E+00 0.  1.
     999901    1    3    3    0    0  0.77250651689E-01  0.12708447764E+00 -0.16605849881E-01  0.89263311718E+00  0.88000000000E+00 0.  1.
        -11    1    4    4    0    0 -0.14612485361E-01 -0.30069749006E-01  0.12120642977E-01  0.35565230786E-01  0.51100000000E-03 0. -1.
         11    1    4    4    0    0 -0.51553860445E-01 -0.76040761111E-01  0.21743348806E-02  0.91896608916E-01  0.51100000000E-03 0.  1.
</event>
<event>
 8    1  0.1090774E+005  0.1043930E+01  0.7957747E-01            NaN
         13   -1    0    0    0    0  0.00000000000E+00  0.00000000000E+00  0.74505805969E-08  0.10566000000E+00  0.10566000000E+00 0.  1.
     999900   -1    0    0    0    0 -0.00000000000E+00 -0.00000000000E+00 -0.74505805969E-08  0.93827000000E+00  0.93827000000E+00 0.  1.
     999902    2    1    2    0    0  0.16043906257E-01 -0.12719139061E-01  0.12228337048E-01  0.10200822401E+01  0.10198034423E+01 0.  0.
     999903    2    3    3    0    0  0.11849378044E+00 -0.56705895290E-01  0.65854526405E-02  0.13302944932E+00  0.19928161889E-01 0.  0.
         14    1    1    2    0    0 -0.16043906257E-01  0.12719139061E-01 -0.12228337048E-01  0.23847759924E-01  0.00000000000E+00 0. -1.
     999901    1    3    3    0    0 -0.10244987418E+00  0.43986756229E-01  0.56428844070E-02  0.88705279076E+00  0.88000000000E+00 0. -1.
        -11    1    4    4    0    0  0.77647862355E-01 -0.28622008380E-01 -0.16780032649E-02  0.82773707830E-01  0.51100000000E-03 0. -1.
         11    1    4    4    0    0  0.40845918085E-01 -0.28083886910E-01  0.82634559054E-02  0.50255741490E-01  0.51100000000E-03 0.  1.
</event>
<event>
 8    1  0.1090774E+005  0.1043930E+01  0.7957747E-01            NaN
         13   -1    0    0    0    0  0.00000000000E+00  0.00000000000E+00  0.74505805969E-08  0.10566000000E+00  0.10566000000E+00 0. -1.
     999900   -1    0    0    0    0 -0.00000000000E+00 -0.00000000000E+00 -0.74505805969E-08  0.93827000000E+00  0.93827000000E+00 0.  1.
     999902    2    1    2    0    0 -0.49725913316E-02 -0.23409163980E-01 -0.36025140248E-02  0.10197288899E+01  0.10194416683E+01 0.  0.
     999903    2    3    3    0    0 -0.75644149138E-01 -0.47430106659E-01  0.93847513170E-01  0.13120878176E+00  0.20898238350E-01 0.  0.
         14    1    1    2    0    0  0.49725913316E-02  0.23409163980E-01  0.36025140248E-02  0.24201110100E-01  0.00000000000E+00 0. -1.
     999901    1    3    3    0    0  0.70671557806E-01  0.24020942680E-01 -0.97450027195E-01  0.88852010814E+00  0.88000000000E+00 0.  1.
        -11    1    4    4    0    0 -0.54715853781E-01 -0.23502801218E-01  0.55597827173E-01  0.81471380420E-01  0.51100000000E-03 0.  1.
         11    1    4    4    0    0 -0.20928295357E-01 -0.23927305441E-01  0.38249685996E-01  0.49737401340E-01  0.51100000000E-03 0. -1.
</event>
<event>
 8    1  0.1090774E+005  0.1043930E+01  0.7957747E-01            NaN
         13   -1    0    0    0    0  0.00000000000E+00  0.00000000000E+00  0.74505805969E-08  0.10566000000E+00  0.10566000000E+00 0.  1.
     999900   -1    0    0    0    0 -0.00000000000E+00 -0.00000000000E+00 -0.74505805969E-08  0.93827000000E+00  0.93827000000E+00 0.  1.
     999902    2    1    2    0    0 -0.46777412191E-02  0.19135345035E-01 -0.13342727885E-01  0.10201377517E+01  0.10198602656E+01 0.  0.
     999903    2    3    3    0    0  0.94357550055E-01 -0.23344561888E-01 -0.85061641461E-01  0.13066817155E+00  0.19757843693E-01 0.  0.
         14    1    1    2    0    0  0.46777412191E-02 -0.19135345035E-01  0.13342727885E-01  0.23792248316E-01  0.00000000000E+00 0.  1.
     999901    1    3    3    0    0 -0.99035291274E-01  0.42479906923E-01  0.71718913575E-01  0.88946958013E+00  0.88000000000E+00 0. -1.
        -11    1    4    4    0    0  0.83150657060E-01 -0.17020989800E-01 -0.65337037710E-01  0.10711178965E+00  0.51100000000E-03 0. -1.
         11    1    4    4    0    0  0.11206892995E-01 -0.63235720887E-02 -0.19724603751E-01  0.23556381910E-01  0.51100000000E-03 0.  1.
</event>
<event>
 8    1  0.1090774E+005  0.1043930E+01  0.7957747E-01            NaN
         13   -1    0    0    0    0  0.00000000000E+00  0.00000000000E+00  0.74505805969E-08  0.10566000000E+00  0.10566000000E+00 0.  1.
     999900   -1    0    0    0    0 -0.00000000000E+00 -0.00000000000E+00 -0.74505805969E-08  0.93827000000E+00  0.93827000000E+00 0. -1.
     999902    2    1    2    0    0  0.22828017499E-01  0.50179710133E-02  0.38116612208E-02  0.10202482100E+01  0.10199733246E+01 0.  0.
     999903    2    3    3    0    0 -0.27322472867E-01  0.12605774229E+00  0.26315240768E-02  0.13054764766E+00  0.19967260119E-01 0.  0.
         14    1    1    2    0    0 -0.22828017499E-01 -0.50179710133E-02 -0.38116612208E-02  0.23681789993E-01  0.00000000000E+00 0. -1.
     999901    1    3    3    0    0  0.50150490365E-01 -0.12103977127E+00  0.11801371440E-02  0.88970056235E+00  0.88000000000E+00 0.  1.
        -11    1    4    4    0    0 -0.14140712678E-01  0.10282073382E+00  0.14106054801E-02  0.10379939300E+00  0.51100000000E-03 0.  1.
         11    1    4    4    0    0 -0.13181760188E-01  0.23237008466E-01  0.12209185967E-02  0.26748254660E-01  0.51100000000E-03 0. -1.
</event>
<event>
 8    1  0.1090774E+005  0.1043930E+01  0.7957747E-01            NaN
         13   -1    0    0    0    0  0.00000000000E+00  0.00000000000E+00  0.74505805969E-08  0.10566000000E+00  0.10566000000E+00 0.  1.
     999900   -1    0    0    0    0 -0.00000000000E+00 -0.00000000000E+00 -0.74505805969E-08  0.93827000000E+00  0.93827000000E+00 0.  1.
     999902    2    1    2    0    0  0.79129039538E-02 -0.13160257350E-01 -0.18354971231E-01  0.10199986108E+01  0.10197178308E+01 0.  0.
     999903    2    3    3    0    0 -0.89258873945E-01 -0.38249620612E-01 -0.86611540199E-01  0.13166827255E+00  0.20119518996E-01 0.  0.
         14    1    1    2    0    0 -0.79129039538E-02  0.13160257350E-01  0.18354971231E-01  0.23931389249E-01  0.00000000000E+00 0.  1.
     999901    1    3    3    0    0  0.97171777899E-01  0.25089363262E-01  0.68256568968E-01  0.88833033821E+00  0.88000000000E+00 0. -1.
        -11    1    4    4    0    0 -0.30464542977E-01 -0.22843460578E-01 -0.38477867764E-01  0.54136120092E-01  0.51100000000E-03 0.  1.
         11    1    4    4    0    0 -0.58794330968E-01 -0.15406160034E-01 -0.48133672435E-01  0.77532152453E-01  0.51100000000E-03 0. -1.
</event>
<event>
 8    1  0.1090774E+005  0.1043930E+01  0.7957747E-01            NaN
         13   -1    0    0    0    0  0.00000000000E+00  0.00000000000E+00  0.74505805969E-08  0.10566000000E+00  0.10566000000E+00 0.  1.
     999900   -1    0    0    0    0 -0.00000000000E+00 -0.00000000000E+00 -0.74505805969E-08  0.93827000000E+00  0.93827000000E+00 0.  1.
     999902    2    1    2    0    0 -0.15823201154E-01  0.14569597776E-01  0.92683220804E-02  0.10205088841E+01  0.10202400864E+01 0.  0.
     999903    2    3    3    0    0  0.89745085995E-02  0.14663158572E-01  0.12955248272E+00  0.13198020454E+00  0.18422230797E-01 0.  0.
         14    1    1    2    0    0  0.15823201154E-01 -0.14569597776E-01 -0.92683220804E-02  0.23421115864E-01  0.00000000000E+00 0. -1.
     999901    1    3    3    0    0 -0.24797709754E-01 -0.93560796699E-04 -0.12028416064E+00  0.88852867960E+00  0.88000000000E+00 0.  1.
        -11    1    4    4    0    0  0.68212492064E-02 -0.27786379374E-02  0.30614646128E-01  0.31492347452E-01  0.51100000000E-03 0.  1.
         11    1    4    4    0    0  0.21532593931E-02  0.17441796510E-01  0.98937836594E-01  0.10048785709E+00  0.51100000000E-03 0. -1.
</event>
<event>
 8    1  0.1090774E+005  0.1043930E+01  0.7957747E-01            NaN
         13   -1    0    0    0    0  0.00000000000E+00  0.00000000000E+00  0.74505805969E-08  0.10566000000E+00  0.10566000000E+00 0. -1.
     999900   -1    0    0    0    0 -0.00000000000E+00 -0.00000000000E+00 -0.74505805969E-08  0.93827000000E+00  0.93827000000E+00 0. -1.
     999902    2    1    2    0    0 -0.80398587976E-02 -0.20707205829E-01 -0.89597919629E-02  0.10199778482E+01  0.10196965751E+01 0.  0.
     999903    2    3    3    0    0  0.66355821336E-01  0.10420192330E+00 -0.26920012712E-01  0.12786822643E+00  0.19090846028E-01 0.  0.
         14    1    1    2    0    0  0.80398587976E-02  0.20707205829E-01  0.89597919629E-02  0.23952151777E-01  0.00000000000E+00 0. -1.
     999901    1    3    3    0    0 -0.74395680134E-01 -0.12490912913E+00  0.17960220749E-01  0.89210962179E+00  0.88000000000E+00 0. -1.
        -11    1    4    4    0    0  0.35651811382E-01  0.66939613589E-01 -0.23766423804E-01  0.79479982031E-01  0.51100000000E-03 0.  1.
         11    1    4    4    0    0  0.30704009955E-01  0.37262309710E-01 -0.31535889082E-02  0.48388244401E-01  0.51100000000E-03 0. -1.
</event>
<event>
 8    1  0.1090774E+005  0.1043930E+01  0.7957747E-01            NaN
         13   -1    0    0    0    0  0.00000000000E+00  0.00000000000E+00  0.74505805969E-08  0.10566000000E+00  0.10566000000E+00 0. -1.
     999900   -1    0    0    0    0 -0.00000000000E+00 -0.00000000000E+00 -0.74505805969E-08  0.93827000000E+00  0.93827000000E+00 0. -1.
     999902    2    1    2    0    0 -0.22490962012E-01  0.44926464644E-02  0.55516653716E-03  0.10209879980E+01  0.10207302076E+01 0.  0.
     999903    2    3    3    0    0  0.12156972665E+00 -0.32541150870E-01 -0.15685169961E-01  0.12835776513E+00  0.19788036122E-01 0.  0.
         14    1    1    2    0    0  0.22490962012E-01 -0.44926464644E-02 -0.55516653716E-03  0.22942001969E-01  0.00000000000E+00 0.  1.
     999901    1    3    3    0    0 -0.14406068866E+00  0.37033797334E-01  0.16240336498E-01  0.89263023290E+00  0.88000000000E+00 0.  1.
        -11    1    4    4    0    0  0.41683007410E-01 -0.15837236653E-02 -0.55363983924E-02  0.42081992771E-01  0.51100000000E-03 0. -1.
         11    1    4    4    0    0  0.79886719242E-01 -0.30957427204E-01 -0.10148771569E-01  0.86275772357E-01  0.51100000000E-03 0.  1.
</event>
<event>
 8    1  0.1090774E+005  0.1043930E+01  0.7957747E-01            NaN
         13   -1    0    0    0    0  0.00000000000E+00  0.00000000000E+00  0.74505805969E-08  0.10566000000E+00  0.10566000000E+00 0. -1.
     999900   -1    0    0    0    0 -0.00000000000E+00 -0.00000000000E+00 -0.74505805969E-08  0.93827000000E+00  0.93827000000E+00 0. -1.
     999902    2    1    2    0    0  0.34800547572E-02 -0.15196273143E-01 -0.19911723113E-01  0.10186413817E+01  0.10183274278E+01 0.  0.
     999903    2    3    3    0    0  0.62908706018E-01  0.86389637123E-01  0.65135727594E-01  0.12674198679E+00  0.20004837197E-01 0.  0.
         14    1    1    2    0    0 -0.34800547572E-02  0.15196273143E-01  0.19911723113E-01  0.25288618307E-01  0.00000000000E+00 0. -1.
     999901    1    3    3    0    0 -0.59428651260E-01 -0.10158591027E+00 -0.85047450707E-01  0.89189939490E+00  0.88000000000E+00 0. -1.
        -11    1    4    4    0    0  0.24860434879E-01  0.40483979301E-01  0.18270134595E-01  0.50902384439E-01  0.51100000000E-03 0. -1.
         11    1    4    4    0    0  0.38048271138E-01  0.45905657822E-01  0.46865592999E-01  0.75839602351E-01  0.51100000000E-03 0.  1.
</event>
<event>
 8    1  0.1090774E+005  0.1043930E+01  0.7957747E-01            NaN
         13   -1    0    0    0    0  0.00000000000E+00  0.00000000000E+00  0.74505805969E-08  0.10566000000E+00  0.10566000000E+00 0. -1.
     999900   -1    0    0    0    0 -0.00000000000E+00 -0.00000000000E+00 -0.74505805969E-08  0.93827000000E+00  0.93827000000E+00 0. -1.
     999902    2    1    2    0    0 -0.24602737771E-01 -0.63423401787E-02 -0.67231258488E-02  0.10176484398E+01  0.10173090124E+01 0.  0.
     999903    2    3    3    0    0 -0.11874805370E+00  0.26703597403E-01  0.43037047684E-01  0.13061323793E+00  0.19835525673E-01 0.  0.
         14    1    1    2    0    0  0.24602737771E-01  0.63423401787E-02  0.67231258488E-02  0.26281560189E-01  0.00000000000E+00 0. -1.
     999901    1    3    3    0    0  0.94145315926E-01 -0.33045937582E-01 -0.49760173533E-01  0.88703520188E+00  0.88000000000E+00 0. -1.
        -11    1    4    4    0    0 -0.35161479394E-01  0.17093809620E-01  0.15864580198E-01  0.42195663123E-01  0.51100000000E-03 0. -1.
         11    1    4    4    0    0 -0.83586574303E-01  0.96097877829E-02  0.27172467486E-01  0.88417574810E-01  0.51100000000E-03 0.  1.
</event>
<event>
 8    1  0.1090774E+005  0.1043930E+01  0.7957747E-01            NaN
         13   -1    0    0    0    0  0.00000000000E+00  0.00000000000E+00  0.74505805969E-08  0.10566000000E+00  0.10566000000E+00 0. -1.
     999900   -1    0    0    0    0 -0.00000000000E+00 -0.00000000000E+00 -0.74505805969E-08  0.93827000000E+00  0.93827000000E+00 0.  1.
     999902    2    1    2    0    0  0.53364147371E-02  0.21088295721E-01 -0.99859155761E-02  0.10199944188E+01  0.10197135393E+01 0.  0.
     999903    2    3    3    0    0  0.87568186070E-01 -0.54330109145E-01 -0.77366050008E-01  0.13039333822E+00  0.19924080583E-01 0.  0.
         14    1    1    2    0    0 -0.53364147371E-02 -0.21088295721E-01  0.99859155761E-02  0.23935581224E-01  0.00000000000E+00 0. -1.
     999901    1    3    3    0    0 -0.82231771333E-01  0.75418404865E-01  0.67380134432E-01  0.88960108056E+00  0.88000000000E+00 0. -1.
        -11    1    4    4    0    0  0.26849693276E-01 -0.26499501654E-01 -0.33738390907E-01  0.50612940627E-01  0.51100000000E-03 0.  1.
         11    1    4    4    0    0  0.60718492794E-01 -0.27830607491E-01 -0.43627659101E-01  0.79780397593E-01  0.51100000000E-03 0. -1.
</event>
<event>
 8    1  0.1090774E+005  0.1043930E+01  0.7957747E-01            NaN
         13   -1    0    0    0    0  0.00000000000E+00  0.00000000000E+00  0.74505805969E-08  0.10566000000E+00  0.10566000000E+00 0.  1.
     999900   -1    0    0    0    0 -0.00000000000E+00 -0.00000000000E+00 -0.74505805969E-08  0.93827000000E+00  0.93827000000E+00 0. -1.
     999902    2    1    2    0    0  0.17763495243E-01  0.18717011256E-01 -0.62581869041E-02  0.10173775392E+01  0.10170309848E+01 0.  0.
     999903    2    3    3    0    0  0.97272387344E-01  0.26616397004E-01 -0.80577008675E-01  0.13063780762E+00  0.20080650457E-01 0.  0.
         14    1    1    2    0    0 -0.17763495243E-01 -0.18717011256E-01  0.62581869041E-02  0.26552460845E-01  0.00000000000E+00 0.  1.
     999901    1    3    3    0    0 -0.79508892102E-01 -0.78993857479E-02  0.74318821771E-01  0.88673973154E+00  0.88000000000E+00 0.  1.
        -11    1    4    4    0    0  0.21767820985E-01  0.14096780707E-01 -0.15830635022E-01  0.30387947989E-01  0.51100000000E-03 0. -1.
         11    1    4    4    0    0  0.75504566359E-01  0.12519616297E-01 -0.64746373653E-01  0.10024985963E+00  0.51100000000E-03 0.  1.
</event>
<event>
 8    1  0.1090774E+005  0.1043930E+01  0.7957747E-01            NaN
         13   -1    0    0    0    0  0.00000000000E+00  0.00000000000E+00  0.74505805969E-08  0.10566000000E+00  0.10566000000E+00 0. -1.
     999900   -1    0    0    0    0 -0.00000000000E+00 -0.00000000000E+00 -0.74505805969E-08  0.93827000000E+00  0.93827000000E+00 0. -1.
     999902    2    1    2    0    0 -0.17228980465E-02 -0.19022758332E-01  0.13680889087E-01  0.10204353104E+01  0.10201648015E+01 0.  0.
     999903    2    3    3    0    0  0.92932687509E-02  0.69915888594E-01  0.10925570553E+00  0.13073536977E+00  0.13428752620E-01 0.  0.
         14    1    1    2    0    0  0.17228980465E-02  0.19022758332E-01 -0.13680889087E-01  0.23494689580E-01  0.00000000000E+00 0.  1.
     999901    1    3    3    0    0 -0.11016166797E-01 -0.88938646926E-01 -0.95574816444E-01  0.88969994065E+00  0.88000000000E+00 0. -1.
        -11    1    4    4    0    0  0.11046462588E-01  0.42987763312E-01  0.74641298760E-01  0.86842136845E-01  0.51100000000E-03 0. -1.
         11    1    4    4    0    0 -0.17531938374E-02  0.26928125282E-01  0.34614406771E-01  0.43893232929E-01  0.51100000000E-03 0.  1.
</event>
<event>
 8    1  0.1090774E+005  0.1043930E+01  0.7957747E-01            NaN
         13   -1    0    0    0    0  0.00000000000E+00  0.00000000000E+00  0.74505805969E-08  0.10566000000E+00  0.10566000000E+00 0.  1.
     999900   -1    0    0    0    0 -0.00000000000E+00 -0.00000000000E+00 -0.74505805969E-08  0.93827000000E+00  0.93827000000E+00 0. -1.
     999902    2    1    2    0    0  0.22901409851E-01  0.20218200539E-02  0.25874150621E-03  0.10209380606E+01  0.10206791339E+01 0.  0.
     999903    2    3    3    0    0  0.89703197361E-01 -0.89428368225E-01  0.35275500565E-01  0.13298998265E+00  0.19946876560E-01 0.  0.
         14    1    1    2    0    0 -0.22901409851E-01 -0.20218200539E-02 -0.25874150621E-03  0.22991939384E-01  0.00000000000E+00 0.  1.
     999901    1    3    3    0    0 -0.66801787511E-01  0.91450188279E-01 -0.35016759059E-01  0.88794807797E+00  0.88000000000E+00 0. -1.
        -11    1    4    4    0    0  0.45881964404E-01 -0.58463391422E-01  0.16404032287E-01  0.76108318799E-01  0.51100000000E-03 0. -1.
         11    1    4    4    0    0  0.43821232957E-01 -0.30964976803E-01  0.18871468278E-01  0.56881663849E-01  0.51100000000E-03 0.  1.
</event>
<event>
 8    1  0.1090774E+005  0.1043930E+01  0.7957747E-01            NaN
         13   -1    0    0    0    0  0.00000000000E+00  0.00000000000E+00  0.74505805969E-08  0.10566000000E+00  0.10566000000E+00 0. -1.
     999900   -1    0    0    0    0 -0.00000000000E+00 -0.00000000000E+00 -0.74505805969E-08  0.93827000000E+00  0.93827000000E+00 0. -1.
     999902    2    1    2    0    0 -0.10354880009E-01 -0.35779460992E-02 -0.21359180832E-01  0.10199250038E+01  0.10196424734E+01 0.  0.
     999903    2    3    3    0    0 -0.63416635592E-01 -0.10833860019E+00  0.28644392661E-01  0.13071709674E+00  0.22528563837E-01 0.  0.
         14    1    1    2    0    0  0.10354880009E-01  0.35779460992E-02  0.21359180832E-01  0.24004996232E-01  0.00000000000E+00 0. -1.
     999901    1    3    3    0    0  0.53061755582E-01  0.10476065409E+00 -0.50003573493E-01  0.88920790702E+00  0.88000000000E+00 0. -1.
        -11    1    4    4    0    0 -0.29822728519E-01 -0.72451006214E-01  0.18961749853E-01  0.80612359575E-01  0.51100000000E-03 0. -1.
         11    1    4    4    0    0 -0.33593907072E-01 -0.35887593980E-01  0.96826428080E-02  0.50104737169E-01  0.51100000000E-03 0.  1.
</event>
<event>
 8    1  0.1090774E+005  0.1043930E+01  0.7957747E-01            NaN
         13   -1    0    0    0    0  0.00000000000E+00  0.00000000000E+00  0.74505805969E-08  0.10566000000E+00  0.10566000000E+00 0. -1.
     999900   -1    0    0    0    0 -0.00000000000E+00 -0.00000000000E+00 -0.74505805969E-08  0.93827000000E+00  0.93827000000E+00 0.  1.
     999902    2    1    2    0    0  0.12549862467E-02  0.13876476511E-01 -0.15312849374E-01  0.10232269822E+01  0.10230175180E+01 0.  0.
     999903    2    3    3    0    0  0.73113211357E-02 -0.12976551779E+00 -0.16830270707E-02  0.13145600610E+00  0.19629160343E-01 0.  0.
         14    1    1    2    0    0 -0.12549862467E-02 -0.13876476511E-01  0.15312849374E-01  0.20703017818E-01  0.00000000000E+00 0.  1.
     999901    1    3    3    0    0 -0.60563348890E-02  0.14364199430E+00 -0.13629822303E-01  0.89177097608E+00  0.88000000000E+00 0.  1.
        -11    1    4    4    0    0 -0.61677264589E-02 -0.62167124553E-01  0.81454487072E-03  0.62479731347E-01  0.51100000000E-03 0.  1.
         11    1    4    4    0    0  0.13479047595E-01 -0.67598393239E-01 -0.24975719414E-02  0.68976274756E-01  0.51100000000E-03 0. -1.
</event>
<event>
 8    1  0.1090774E+005  0.1043930E+01  0.7957747E-01            NaN
         13   -1    0    0    0    0  0.00000000000E+00  0.00000000000E+00  0.74505805969E-08  0.10566000000E+00  0.10566000000E+00 0.  1.
     999900   -1    0    0    0    0 -0.00000000000E+00 -0.00000000000E+00 -0.74505805969E-08  0.93827000000E+00  0.93827000000E+00 0. -1.
     999902    2    1    2    0    0 -0.12999866252E-01  0.77507768399E-03  0.19173359823E-01  0.10207521012E+01  0.10204889206E+01 0.  0.
     999903    2    3    3    0    0  0.61273103035E-01 -0.79453053975E-01  0.82821732072E-01  0.13170534065E+00  0.20486007675E-01 0.  0.
         14    1    1    2    0    0  0.12999866252E-01 -0.77507768399E-03 -0.19173359823E-01  0.23177898846E-01  0.00000000000E+00 0. -1.
     999901    1    3    3    0    0 -0.74272969287E-01  0.80228131659E-01 -0.63648372248E-01  0.88904676051E+00  0.88000000000E+00 0.  1.
        -11    1    4    4    0    0  0.50838586651E-01 -0.53629491541E-01  0.66530081975E-01  0.99434386327E-01  0.51100000000E-03 0. -1.
         11    1    4    4    0    0  0.10434516384E-01 -0.25823562434E-01  0.16291650097E-01  0.32270954322E-01  0.51100000000E-03 0.  1.
</event>
<event>
 8    1  0.1090774E+005  0.1043930E+01  0.7957747E-01            NaN
         13   -1    0    0    0    0  0.00000000000E+00  0.00000000000E+00  0.74505805969E-08  0.10566000000E+00  0.10566000000E+00 0.  1.
     999900   -1    0    0    0    0 -0.00000000000E+00 -0.00000000000E+00 -0.74505805969E-08  0.93827000000E+00  0.93827000000E+00 0.  1.
     999902    2    1    2    0    0  0.18099317697E-01  0.32511519225E-02 -0.14169696723E-01  0.10207150136E+01  0.10204509804E+01 0.  0.
     999903    2    3    3    0    0  0.43762577995E-01 -0.12175083318E+00 -0.10966556837E-01  0.13150504999E+00  0.20853877153E-01 0.  0.
         14    1    1    2    0    0 -0.18099317697E-01 -0.32511519225E-02  0.14169696723E-01  0.23214986434E-01  0.00000000000E+00 0. -1.
     999901    1    3    3    0    0 -0.25663260298E-01  0.12500198510E+00 -0.32031398858E-02  0.88920996357E+00  0.88000000000E+00 0. -1.
        -11    1    4    4    0    0  0.27877777144E-01 -0.53561596205E-01  0.14194745007E-02  0.60401085052E-01  0.51100000000E-03 0.  1.
         11    1    4    4    0    0  0.15884800851E-01 -0.68189236975E-01 -0.12386031337E-01  0.71103964943E-01  0.51100000000E-03 0. -1.
</event>
<event>
 8    1  0.1090774E+005  0.1043930E+01  0.7957747E-01            NaN
         13   -1    0    0    0    0  0.00000000000E+00  0.00000000000E+00  0.74505805969E-08  0.10566000000E+00  0.10566000000E+00 0. -1.
     999900   -1    0    0    0    0 -0.00000000000E+00 -0.00000000000E+00 -0.74505805969E-08  0.93827000000E+00  0.93827000000E+00 0.  1.
     999902    2    1    2    0    0  0.16033724281E-01  0.15654917543E-01  0.34122109038E-02  0.10212628444E+01  0.10210112622E+01 0.  0.
     999903    2    3    3    0    0  0.11960685073E+00 -0.12538328289E-01 -0.52898181120E-01  0.13295371364E+00  0.20382933720E-01 0.  0.
         14    1    1    2    0    0 -0.16033724281E-01 -0.15654917543E-01 -0.34122109038E-02  0.22667155552E-01  0.00000000000E+00 0.  1.
     999901    1    3    3    0    0 -0.10357312645E+00  0.28193245832E-01  0.56310392024E-01  0.88830913081E+00  0.88000000000E+00 0. -1.
        -11    1    4    4    0    0  0.10211231113E+00 -0.93392526446E-02 -0.36750497412E-01  0.10892660789E+00  0.51100000000E-03 0. -1.
         11    1    4    4    0    0  0.17494539595E-01 -0.31990756441E-02 -0.16147683708E-01  0.24027105751E-01  0.51100000000E-03 0.  1.
</event>
<event>
 8    1  0.1090774E+005  0.1043930E+01  0.7957747E-01            NaN
         13   -1    0    0    0    0  0.00000000000E+00  0.00000000000E+00  0.74505805969E-08  0.10566000000E+00  0.10566000000E+00 0. -1.
     999900   -1    0    0    0    0 -0.00000000000E+00 -0.00000000000E+00 -0.74505805969E-08  0.93827000000E+00  0.93827000000E+00 0. -1.
     999902    2    1    2    0    0  0.11854589623E-01  0.13282176690E-01  0.15254875850E-01  0.10204851978E+01  0.10202158498E+01 0.  0.
     999903    2    3    3    0    0 -0.24193990813E-01 -0.45067856273E-01 -0.11581587230E+00  0.12813786211E+00  0.19736630160E-01 0.  0.
         14    1    1    2    0    0 -0.11854589623E-01 -0.13282176690E-01 -0.15254875850E-01  0.23444802195E-01  0.00000000000E+00 0. -1.
     999901    1    3    3    0    0  0.36048580436E-01  0.58350032963E-01  0.13107074815E+00  0.89234733569E+00  0.88000000000E+00 0. -1.
        -11    1    4    4    0    0 -0.13628868771E-01 -0.87831238493E-02 -0.45546437398E-01  0.48349026973E-01  0.51100000000E-03 0.  1.
         11    1    4    4    0    0 -0.10565122042E-01 -0.36284732424E-01 -0.70269434900E-01  0.79788835140E-01  0.51100000000E-03 0. -1.
</event>
<event>
 8    1  0.1090774E+005  0.1043930E+01  0.7957747E-01            NaN
         13   -1    0    0    0    0  0.00000000000E+00  0.00000000000E+00  0.74505805969E-08  0.10566000000E+00  0.10566000000E+00 0. -1.
     999900   -1    0    0    0    0 -0.00000000000E+00 -0.00000000000E+00 -0.74505805969E-08  0.93827000000E+00  0.93827000000E+00 0. -1.
     999902    2    1    2    0    0  0.19146215018E-01  0.45661031087E-02 -0.13546498335E-01  0.10200357650E+01  0.10197558666E+01 0.  0.
     999903    2    3    3    0    0  0.14668529142E-01 -0.11782350628E+00  0.49477096336E-01  0.12932187178E+00  0.13364844933E-01 0.  0.
         14    1    1    2    0    0 -0.19146215018E-01 -0.45661031087E-02  0.13546498335E-01  0.23894234959E-01  0.00000000000E+00 0. -1.
     999901    1    3    3    0    0  0.44776858760E-02  0.12238960939E+00 -0.63023594671E-01  0.89071389326E+00  0.88000000000E+00 0. -1.
        -11    1    4    4    0    0  0.59812612870E-02 -0.81915372446E-01  0.38958699572E-01  0.90906243585E-01  0.51100000000E-03 0.  1.
         11    1    4    4    0    0  0.86872678552E-02 -0.35908133836E-01  0.10518396764E-01  0.38415628198E-01  0.51100000000E-03 0. -1.
</event>
<event>
 8    1  0.1090774E+005  0.1043930E+01  0.7957747E-01            NaN
         13   -1    0    0    0    0  0.00000000000E+00  0.00000000000E+00  0.74505805969E-08  0.10566000000E+00  0.10566000000E+00 0.  1.
     999900   -1    0    0    0    0 -0.00000000000E+00 -0.00000000000E+00 -0.74505805969E-08  0.93827000000E+00  0.93827000000E+00 0. -1.
     999902    2    1    2    0    0 -0.11605682891E-01  0.20260707585E-01  0.79621931650E-04  0.10205805999E+01  0.10203134647E+01 0.  0.
     999903    2    3    3    0    0  0.85465775382E-01 -0.60651790569E-01 -0.72383258952E-01  0.12860494466E+00  0.17800481824E-01 0.  0.
         14    1    1    2    0    0  0.11605682891E-01 -0.20260707585E-01 -0.79621931650E-04  0.23349400139E-01  0.00000000000E+00 0. -1.
     999901    1    3    3    0    0 -0.97071458273E-01  0.80912498154E-01  0.72462880883E-01  0.89197565520E+00  0.88000000000E+00 0.  1.
        -11    1    4    4    0    0  0.49347871111E-01 -0.24283786625E-01 -0.35675790188E-01  0.65558659249E-01  0.51100000000E-03 0.  1.
         11    1    4    4    0    0  0.36117904271E-01 -0.36368003944E-01 -0.36707468764E-01  0.63046285409E-01  0.51100000000E-03 0. -1.
</event>
<event>
 8    1  0.1090774E+005  0.1043930E+01  0.7957747E-01            NaN
         13   -1    0    0    0    0  0.00000000000E+00  0.00000000000E+00  0.74505805969E-08  0.10566000000E+00  0.10566000000E+00 0.  1.
     999900   -1    0    0    0    0 -0.00000000000E+00 -0.00000000000E+00 -0.74505805969E-08  0.93827000000E+00  0.93827000000E+00 0. -1.
     999902    2    1    2    0    0 -0.60769364109E-02 -0.49655992784E-02 -0.21882756685E-01  0.10206826050E+01  0.10204178256E+01 0.  0.
     999903    2    3    3    0    0  0.11648825764E+00  0.50058605676E-01 -0.24315269785E-01  0.13048273588E+00  0.18950827151E-01 0.  0.
         14    1    1    2    0    0  0.60769364109E-02  0.49655992784E-02  0.21882756685E-01  0.23247394961E-01  0.00000000000E+00 0.  1.
     999901    1    3    3    0    0 -0.12256519405E+00 -0.55024204954E-01  0.24325131001E-02  0.89019986915E+00  0.88000000000E+00 0. -1.
        -11    1    4    4    0    0  0.80759717532E-01  0.43917097499E-01 -0.16662656099E-01  0.93427772412E-01  0.51100000000E-03 0.  1.
         11    1    4    4    0    0  0.35728540105E-01  0.61415081764E-02 -0.76526136860E-02  0.37054963472E-01  0.51100000000E-03 0. -1.
</event>
<event>
 8    1  0.1090774E+005  0.1043930E+01  0.7957747E-01            NaN
         13   -1    0    0    0    0  0.00000000000E+00  0.00000000000E+00  0.74505805969E-08  0.10566000000E+00  0.10566000000E+00 0.  1.
     999900   -1    0    0    0    0 -0.00000000000E+00 -0.00000000000E+00 -0.74505805969E-08  0.93827000000E+00  0.93827000000E+00 0. -1.
     999902    2    1    2    0    0  0.14330832022E-01 -0.18181662370E-01  0.50405673185E-02  0.10202371126E+01  0.10199619665E+01 0.  0.
     999903    2    3    3    0    0 -0.41229490558E-01  0.80344206128E-01  0.89939490586E-01  0.12894472324E+00  0.19559328604E-01 0.  0.
         14    1    1    2    0    0 -0.14330832022E-01  0.18181662370E-01 -0.50405673185E-02  0.23692887369E-01  0.00000000000E+00 0.  1.
     999901    1    3    3    0    0  0.55560322580E-01 -0.98525868498E-01 -0.84898923267E-01  0.89129238939E+00  0.88000000000E+00 0. -1.
        -11    1    4    4    0    0 -0.59795349279E-02  0.31852647931E-01  0.33244709128E-01  0.46430785307E-01  0.51100000000E-03 0.  1.
         11    1    4    4    0    0 -0.35249955630E-01  0.48491558197E-01  0.56694781457E-01  0.82513937937E-01  0.51100000000E-03 0. -1.
</event>
<event>
 8    1  0.1090774E+005  0.1043930E+01  0.7957747E-01            NaN
         13   -1    0    0    0    0  0.00000000000E+00  0.00000000000E+00  0.74505805969E-08  0.10566000000E+00  0.10566000000E+00 0. -1.
     999900   -1    0    0    0    0 -0.00000000000E+00 -0.00000000000E+00 -0.74505805969E-08  0.93827000000E+00  0.93827000000E+00 0.  1.
     999902    2    1    2    0    0  0.14592633615E-01  0.77809201949E-02 -0.15988995465E-01  0.10209270513E+01  0.10206678737E+01 0.  0.
     999903    2    3    3    0    0 -0.11800809881E+00  0.20414272856E-01  0.42652196902E-01  0.12897338358E+00  0.21731770524E-01 0.  0.
         14    1    1    2    0    0 -0.14592633615E-01 -0.77809201949E-02  0.15988995465E-01  0.23002948743E-01  0.00000000000E+00 0. -1.
     999901    1    3    3    0    0  0.13260073243E+00 -0.12633352662E-01 -0.58641192367E-01  0.89195366768E+00  0.88000000000E+00 0.  1.
        -11    1    4    4    0    0 -0.72692016350E-01  0.21491872268E-01  0.20549455835E-01  0.78540251278E-01  0.51100000000E-03 0. -1.
         11    1    4    4    0    0 -0.45316082462E-01 -0.10775994115E-02  0.22102741067E-01  0.50433132303E-01  0.51100000000E-03 0.  1.
</event>
<event>
 8    1  0.1090774E+005  0.1043930E+01  0.7957747E-01            NaN
         13   -1    0    0    0    0  0.00000000000E+00  0.00000000000E+00  0.74505805969E-08  0.10566000000E+00  0.10566000000E+00 0. -1.
     999900   -1    0    0    0    0 -0.00000000000E+00 -0.00000000000E+00 -0.74505805969E-08  0.93827000000E+00  0.93827000000E+00 0. -1.
     999902    2    1    2    0    0  0.13744659020E-01 -0.97701849008E-02  0.54946610760E-02  0.10261940629E+01  0.10260407844E+01 0.  0.
     999903    2    3    3    0    0  0.75751836567E-01  0.10605640596E+00  0.32992151652E-01  0.13601610248E+00  0.20629980041E-01 0.  0.
         14    1    1    2    0    0 -0.13744659020E-01  0.97701849008E-02 -0.54946610760E-02  0.17735937103E-01  0.00000000000E+00 0. -1.
     999901    1    3    3    0    0 -0.62007177547E-01 -0.11582659086E+00 -0.27497490576E-01  0.89017796041E+00  0.88000000000E+00 0.  1.
        -11    1    4    4    0    0  0.32222135665E-01  0.51256256726E-01  0.25260469654E-01  0.65603523751E-01  0.51100000000E-03 0. -1.
         11    1    4    4    0    0  0.43529700901E-01  0.54800149231E-01  0.77316819987E-02  0.70412578733E-01  0.51100000000E-03 0.  1.
</event>
<event>
 8    1  0.1090774E+005  0.1043930E+01  0.7957747E-01            NaN
         13   -1    0    0    0    0  0.00000000000E+00  0.00000000000E+00  0.74505805969E-08  0.10566000000E+00  0.10566000000E+00 0. -1.
     999900   -1    0    0    0    0 -0.00000000000E+00 -0.00000000000E+00 -0.74505805969E-08  0.93827000000E+00  0.93827000000E+00 0. -1.
     999902    2    1    2    0    0  0.11834507921E-01 -0.46187064788E-02  0.18906150177E-01  0.10211521480E+01  0.10208980746E+01 0.  0.
     999903    2    3    3    0    0 -0.92237243121E-01 -0.88129726154E-01  0.24967406621E-01  0.13107251190E+00  0.16795068658E-01 0.  0.
         14    1    1    2    0    0 -0.11834507921E-01  0.46187064788E-02 -0.18906150177E-01  0.22777852001E-01  0.00000000000E+00 0.  1.
     999901    1    3    3    0    0  0.10407175104E+00  0.83511019675E-01 -0.60612564441E-02  0.89007963610E+00  0.88000000000E+00 0. -1.
        -11    1    4    4    0    0 -0.82376157742E-01 -0.81892403046E-01  0.18200036671E-01  0.11757422973E+00  0.51100000000E-03 0. -1.
         11    1    4    4    0    0 -0.98610853799E-02 -0.62373231076E-02  0.67673699505E-02  0.13498282167E-01  0.51100000000E-03 0.  1.
</event>
<event>
 8    1  0.1090774E+005  0.1043930E+01  0.7957747E-01            NaN
         13   -1    0    0    0    0  0.00000000000E+00  0.00000000000E+00  0.74505805969E-08  0.10566000000E+00  0.10566000000E+00 0. -1.
     999900   -1    0    0    0    0 -0.00000000000E+00 -0.00000000000E+00 -0.74505805969E-08  0.93827000000E+00  0.93827000000E+00 0.  1.
     999902    2    1    2    0    0  0.17257362638E-01 -0.13801390558E-01  0.67612085783E-02  0.10208213677E+01  0.10205597757E+01 0.  0.
     999903    2    3    3    0    0  0.78241364514E-01  0.88207642662E-01 -0.52619008584E-01  0.13084895151E+00  0.21222363249E-01 0.  0.
         14    1    1    2    0    0 -0.17257362638E-01  0.13801390558E-01 -0.67612085783E-02  0.23108632326E-01  0.00000000000E+00 0.  1.
     999901    1    3    3    0    0 -0.60984001876E-01 -0.10200903322E+00  0.59380217162E-01  0.88997241616E+00  0.88000000000E+00 0. -1.
        -11    1    4    4    0    0  0.47283994099E-01  0.49448858477E-01 -0.19294952624E-01  0.71088128547E-01  0.51100000000E-03 0. -1.
         11    1    4    4    0    0  0.30957370415E-01  0.38758784185E-01 -0.33324055960E-01  0.59760822963E-01  0.51100000000E-03 0.  1.
</event>
<event>
 8    1  0.1090774E+005  0.1043930E+01  0.7957747E-01            NaN
         13   -1    0    0    0    0  0.00000000000E+00  0.00000000000E+00  0.74505805969E-08  0.10566000000E+00  0.10566000000E+00 0. -1.
     999900   -1    0    0    0    0 -0.00000000000E+00 -0.00000000000E+00 -0.74505805969E-08  0.93827000000E+00  0.93827000000E+00 0. -1.
     999902    2    1    2    0    0  0.14125190525E-01  0.77075183390E-02  0.19251400163E-01  0.10188392994E+01  0.10185303014E+01 0.  0.
     999903    2    3    3    0    0 -0.75187657641E-01  0.99174357724E-01  0.27994459780E-01  0.12955902380E+00  0.22652014871E-01 0.  0.
         14    1    1    2    0    0 -0.14125190525E-01 -0.77075183390E-02 -0.19251400163E-01  0.25090700559E-01  0.00000000000E+00 0.  1.
     999901    1    3    3    0    0  0.89312848166E-01 -0.91466839385E-01 -0.87430596163E-02  0.88928027564E+00  0.88000000000E+00 0. -1.
        -11    1    4    4    0    0 -0.32821787074E-01  0.61905811710E-01  0.15337112030E-01  0.71729264297E-01  0.51100000000E-03 0. -1.
         11    1    4    4    0    0 -0.42365870567E-01  0.37268546014E-01  0.12657347750E-01  0.57829759502E-01  0.51100000000E-03 0.  1.
</event>
<event>
 8    1  0.1090774E+005  0.1043930E+01  0.7957747E-01            NaN
         13   -1    0    0    0    0  0.00000000000E+00  0.00000000000E+00  0.74505805969E-08  0.10566000000E+00  0.10566000000E+00 0.  1.
     999900   -1    0    0    0    0 -0.00000000000E+00 -0.00000000000E+00 -0.74505805969E-08  0.93827000000E+00  0.93827000000E+00 0. -1.
     999902    2    1    2    0    0 -0.10982658730E-01  0.23973581956E-01 -0.53528744909E-02  0.10170226648E+01  0.10166666592E+01 0.  0.
     999903    2    3    3    0    0  0.12074735366E+00  0.25701598849E-01  0.21010337534E-01  0.12682560727E+00  0.20069996950E-01 0.  0.
         14    1    1    2    0    0  0.10982658730E-01 -0.23973581956E-01  0.53528744909E-02  0.26907335243E-01  0.00000000000E+00 0.  1.
     999901    1    3    3    0    0 -0.13173001239E+00 -0.17280168932E-02 -0.26363212025E-01  0.89019705748E+00  0.88000000000E+00 0. -1.
        -11    1    4    4    0    0  0.18993268403E-01  0.14313642244E-02 -0.35245060823E-02  0.19377211159E-01  0.51100000000E-03 0. -1.
         11    1    4    4    0    0  0.10175408526E+00  0.24270234624E-01  0.24534843617E-01  0.10744839611E+00  0.51100000000E-03 0.  1.
</event>
<event>
 8    1  0.1090774E+005  0.1043930E+01  0.7957747E-01            NaN
         13   -1    0    0    0    0  0.00000000000E+00  0.00000000000E+00  0.74505805969E-08  0.10566000000E+00  0.10566000000E+00 0. -1.
     999900   -1    0    0    0    0 -0.00000000000E+00 -0.00000000000E+00 -0.74505805969E-08  0.93827000000E+00  0.93827000000E+00 0. -1.
     999902    2    1    2    0    0 -0.14967756224E-01 -0.14239912568E-02  0.20311475187E-01  0.10186591175E+01  0.10183456094E+01 0.  0.
     999903    2    3    3    0    0  0.11908986517E+00  0.36302428020E-01  0.19716200576E-01  0.12770733267E+00  0.20498097128E-01 0.  0.
         14    1    1    2    0    0  0.14967756224E-01  0.14239912568E-02 -0.20311475187E-01  0.25270882489E-01  0.00000000000E+00 0.  1.
     999901    1    3    3    0    0 -0.13405762139E+00 -0.37726419277E-01  0.59527461098E-03  0.89095178484E+00  0.88000000000E+00 0. -1.
        -11    1    4    4    0    0  0.82916175157E-01  0.34920268371E-01  0.14342845239E-01  0.91107055579E-01  0.51100000000E-03 0. -1.
         11    1    4    4    0    0  0.36173690012E-01  0.13821596488E-02  0.53733553365E-02  0.36600277088E-01  0.51100000000E-03 0.  1.
</event>
<event>
 8    1  0.1090774E+005  0.1043930E+01  0.7957747E-01            NaN
         13   -1    0    0    0    0  0.00000000000E+00  0.00000000000E+00  0.74505805969E-08  0.10566000000E+00  0.10566000000E+00 0. -1.
     999900   -1    0    0    0    0 -0.00000000000E+00 -0.00000000000E+00 -0.74505805969E-08  0.93827000000E+00  0.93827000000E+00 0.  1.
     999902    2    1    2    0    0  0.13193143153E-01 -0.13377839456E-01  0.14326942060E-01  0.10203019048E+01  0.10200282790E+01 0.  0.
     999903    2    3    3    0    0  0.92593389660E-01  0.53150902716E-01 -0.71660203732E-01  0.13006358730E+00  0.19565215903E-01 0.  0.
         14    1    1    2    0    0 -0.13193143153E-01  0.13377839456E-01 -0.14326942060E-01  0.23628095216E-01  0.00000000000E+00 0.  1.
     999901    1    3    3    0    0 -0.79400246507E-01 -0.66528742172E-01  0.85987145792E-01  0.89023831749E+00  0.88000000000E+00 0. -1.
        -11    1    4    4    0    0  0.35156215281E-01  0.10961029016E-01 -0.30080495998E-01  0.47552087130E-01  0.51100000000E-03 0. -1.
         11    1    4    4    0    0  0.57437174379E-01  0.42189873700E-01 -0.41579707734E-01  0.82511500167E-01  0.51100000000E-03 0.  1.
</event>
<event>
 8    1  0.1090774E+005  0.1043930E+01  0.7957747E-01            NaN
         13   -1    0    0    0    0  0.00000000000E+00  0.00000000000E+00  0.74505805969E-08  0.10566000000E+00  0.10566000000E+00 0.  1.
     999900   -1    0    0    0    0 -0.00000000000E+00 -0.00000000000E+00 -0.74505805969E-08  0.93827000000E+00  0.93827000000E+00 0.  1.
     999902    2    1    2    0    0 -0.62663170661E-02 -0.20740731071E-01 -0.70452832348E-02  0.10211466580E+01  0.10208924608E+01 0.  0.
     999903    2    3    3    0    0 -0.42908125883E-01  0.16030022715E-01  0.12054808641E+00  0.13043077828E+00  0.19551928008E-01 0.  0.
         14    1    1    2    0    0  0.62663170661E-02  0.20740731071E-01  0.70452832348E-02  0.22783341958E-01  0.00000000000E+00 0.  1.
     999901    1    3    3    0    0  0.36641808817E-01 -0.36770753786E-01 -0.12759336965E+00  0.89071587977E+00  0.88000000000E+00 0. -1.
        -11    1    4    4    0    0 -0.80591273307E-02  0.10987809815E-01  0.46090023359E-01  0.48064881901E-01  0.51100000000E-03 0.  1.
         11    1    4    4    0    0 -0.34848998552E-01  0.50422129005E-02  0.74458063054E-01  0.82365896376E-01  0.51100000000E-03 0. -1.
</event>
<event>
 8    1  0.1090774E+005  0.1043930E+01  0.7957747E-01            NaN
         13   -1    0    0    0    0  0.00000000000E+00  0.00000000000E+00  0.74505805969E-08  0.10566000000E+00  0.10566000000E+00 0.  1.
     999900   -1    0    0    0    0 -0.00000000000E+00 -0.00000000000E+00 -0.74505805969E-08  0.93827000000E+00  0.93827000000E+00 0.  1.
     999902    2    1    2    0    0 -0.10933579786E-01 -0.16886223472E-01  0.11899370945E-01  0.10205573078E+01  0.10202896333E+01 0.  0.
     999903    2    3    3    0    0 -0.42705217048E-02 -0.21256957222E-01 -0.12655164168E+00  0.12969694697E+00  0.18327150792E-01 0.  0.
         14    1    1    2    0    0  0.10933579786E-01  0.16886223472E-01 -0.11899370945E-01  0.23372692164E-01  0.00000000000E+00 0.  1.
     999901    1    3    3    0    0 -0.66630580814E-02  0.43707337500E-02  0.13845101263E+00  0.89086036086E+00  0.88000000000E+00 0. -1.
        -11    1    4    4    0    0 -0.16034680194E-02 -0.79913572081E-02 -0.95155548258E-01  0.95505352651E-01  0.51100000000E-03 0. -1.
         11    1    4    4    0    0 -0.26670536854E-02 -0.13265600014E-01 -0.31396093424E-01  0.34191594323E-01  0.51100000000E-03 0.  1.
</event>
<event>
 8    1  0.1090774E+005  0.1043930E+01  0.7957747E-01            NaN
         13   -1    0    0    0    0  0.00000000000E+00  0.00000000000E+00  0.74505805969E-08  0.10566000000E+00  0.10566000000E+00 0.  1.
     999900   -1    0    0    0    0 -0.00000000000E+00 -0.00000000000E+00 -0.74505805969E-08  0.93827000000E+00  0.93827000000E+00 0. -1.
     999902    2    1    2    0    0  0.82420777248E-02  0.10063123778E-01 -0.16996774632E-01  0.10225269943E+01  0.10223029714E+01 0.  0.
     999903    2    3    3    0    0  0.31613851006E-01  0.12772293681E+00  0.13961469848E-01  0.13384905247E+00  0.20200545576E-01 0.  0.
         14    1    1    2    0    0 -0.82420777248E-02 -0.10063123778E-01  0.16996774632E-01  0.21403005707E-01  0.00000000000E+00 0.  1.
     999901    1    3    3    0    0 -0.23371773281E-01 -0.11765981304E+00 -0.30958244480E-01  0.88867794183E+00  0.88000000000E+00 0. -1.
        -11    1    4    4    0    0  0.15962709302E-01  0.90552536158E-01  0.27741906722E-02  0.91991995020E-01  0.51100000000E-03 0.  1.
         11    1    4    4    0    0  0.15651141704E-01  0.37170400657E-01  0.11187279176E-01  0.41857057445E-01  0.51100000000E-03 0. -1.
</event>
<event>
 8    1  0.1090774E+005  0.1043930E+01  0.7957747E-01            NaN
         13   -1    0    0    0    0  0.00000000000E+00  0.00000000000E+00  0.74505805969E-08  0.10566000000E+00  0.10566000000E+00 0. -1.
     999900   -1    0    0    0    0 -0.00000000000E+00 -0.00000000000E+00 -0.74505805969E-08  0.93827000000E+00  0.93827000000E+00 0. -1.
     999902    2    1    2    0    0  0.11526765414E-01  0.19742198283E-01  0.82200782400E-02  0.10196361654E+01  0.10193467120E+01 0.  0.
     999903    2    3    3    0    0 -0.16824845715E-01 -0.10406936510E+00 -0.68257392452E-01  0.12723383426E+00  0.20392860768E-01 0.  0.
         14    1    1    2    0    0 -0.11526765414E-01 -0.19742198283E-01 -0.82200782400E-02  0.24293834613E-01  0.00000000000E+00 0. -1.
     999901    1    3    3    0    0  0.28351611129E-01  0.12381156338E+00  0.76477470692E-01  0.89240233113E+00  0.88000000000E+00 0.  1.
        -11    1    4    4    0    0 -0.24537019168E-02 -0.69570906321E-01 -0.39216818853E-01  0.79902138028E-01  0.51100000000E-03 0.  1.
         11    1    4    4    0    0 -0.14371143798E-01 -0.34498458777E-01 -0.29040573599E-01  0.47331696230E-01  0.51100000000E-03 0. -1.
</event>
<event>
 8    1  0.1090774E+005  0.1043930E+01  0.7957747E-01            NaN
         13   -1    0    0    0    0  0.00000000000E+00  0.00000000000E+00  0.74505805969E-08  0.10566000000E+00  0.10566000000E+00 0. -1.
     999900   -1    0    0    0    0 -0.00000000000E+00 -0.00000000000E+00 -0.74505805969E-08  0.93827000000E+00  0.93827000000E+00 0. -1.
     999902    2    1    2    0    0  0.98161206309E-02 -0.19323187963E-02  0.21339865617E-01  0.10203613780E+01  0.10200891440E+01 0.  0.
     999903    2    3    3    0    0 -0.69547123384E-01 -0.10490901698E+00 -0.23942767241E-01  0.12965758786E+00  0.19877871417E-01 0.  0.
         14    1    1    2    0    0 -0.98161206309E-02  0.19323187963E-02 -0.21339865617E-01  0.23568622037E-01  0.00000000000E+00 0.  1.
     999901    1    3    3    0    0  0.79363244015E-01  0.10297669818E+00  0.45282632858E-01  0.89070379010E+00  0.88000000000E+00 0.  1.
        -11    1    4    4    0    0 -0.50646746776E-01 -0.88017438633E-01 -0.14393109171E-01  0.10256502901E+00  0.51100000000E-03 0.  1.
         11    1    4    4    0    0 -0.18900376609E-01 -0.16891578343E-01 -0.95496580696E-02  0.27092558851E-01  0.51100000000E-03 0. -1.
</event>
<event>
 8    1  0.1090774E+005  0.1043930E+01  0.7957747E-01            NaN
         13   -1    0    0    0    0  0.00000000000E+00  0.00000000000E+00  0.74505805969E-08  0.10566000000E+00  0.10566000000E+00 0.  1.
     999900   -1    0    0    0    0 -0.00000000000E+00 -0.00000000000E+00 -0.74505805969E-08  0.93827000000E+00  0.93827000000E+00 0. -1.
     999902    2    1    2    0    0  0.13406093410E-01  0.17420093308E-01  0.94035228582E-02  0.10200216493E+01  0.10197414161E+01 0.  0.
     999903    2    3    3    0    0  0.89090613629E-01  0.77380084323E-01 -0.56279052580E-01  0.13230685960E+00  0.20321379169E-01 0.  0.
         14    1    1    2    0    0 -0.13406093410E-01 -0.17420093308E-01 -0.94035228582E-02  0.23908350707E-01  0.00000000000E+00 0. -1.
     999901    1    3    3    0    0 -0.75684520219E-01 -0.59959991015E-01  0.65682575438E-01  0.88771478969E+00  0.88000000000E+00 0.  1.
        -11    1    4    4    0    0  0.66124827599E-01  0.51754853006E-01 -0.30623180789E-01  0.89381754051E-01  0.51100000000E-03 0.  1.
         11    1    4    4    0    0  0.22965786030E-01  0.25625231317E-01 -0.25655871791E-01  0.42925105549E-01  0.51100000000E-03 0. -1.
</event>
<event>
 8    1  0.1090774E+005  0.1043930E+01  0.7957747E-01            NaN
         13   -1    0    0    0    0  0.00000000000E+00  0.00000000000E+00  0.74505805969E-08  0.10566000000E+00  0.10566000000E+00 0. -1.
     999900   -1    0    0    0    0 -0.00000000000E+00 -0.00000000000E+00 -0.74505805969E-08  0.93827000000E+00  0.93827000000E+00 0. -1.
     999902    2    1    2    0    0  0.34487580047E-02  0.23607303143E-01 -0.24932818451E-02  0.10199421875E+01  0.10196600663E+01 0.  0.
     999903    2    3    3    0    0  0.37467779120E-01  0.91755303154E-01  0.85811506679E-01  0.13224900889E+00  0.17415956603E-01 0.  0.
         14    1    1    2    0    0 -0.34487580047E-02 -0.23607303143E-01  0.24932818451E-02  0.23987812485E-01  0.00000000000E+00 0.  1.
     999901    1    3    3    0    0 -0.34019021116E-01 -0.68148000011E-01 -0.88304788524E-01  0.88769317863E+00  0.88000000000E+00 0. -1.
        -11    1    4    4    0    0  0.20578232946E-02  0.24745778632E-01  0.20972820635E-01  0.32507053438E-01  0.51100000000E-03 0.  1.
         11    1    4    4    0    0  0.35409955826E-01  0.67009524522E-01  0.64838686044E-01  0.99741955451E-01  0.51100000000E-03 0. -1.
</event>
<event>
 8    1  0.1090774E+005  0.1043930E+01  0.7957747E-01            NaN
         13   -1    0    0    0    0  0.00000000000E+00  0.00000000000E+00  0.74505805969E-08  0.10566000000E+00  0.10566000000E+00 0.  1.
     999900   -1    0    0    0    0 -0.00000000000E+00 -0.00000000000E+00 -0.74505805969E-08  0.93827000000E+00  0.93827000000E+00 0.  1.
     999902    2    1    2    0    0  0.56685552153E-02  0.22091656945E-01 -0.21160153571E-02  0.10210247310E+01  0.10207677748E+01 0.  0.
     999903    2    3    3    0    0  0.16226546803E-01 -0.79078705695E-01 -0.99617331512E-01  0.12981576559E+00  0.20292307464E-01 0.  0.
         14    1    1    2    0    0 -0.56685552153E-02 -0.22091656945E-01  0.21160153571E-02  0.22905268952E-01  0.00000000000E+00 0.  1.
     999901    1    3    3    0    0 -0.10557991587E-01  0.10117036264E+00  0.97501316155E-01  0.89120896546E+00  0.88000000000E+00 0. -1.
        -11    1    4    4    0    0  0.43015221531E-02 -0.52725559239E-01 -0.52542225023E-01  0.74561613590E-01  0.51100000000E-03 0.  1.
         11    1    4    4    0    0  0.11925024650E-01 -0.26353146456E-01 -0.47075106489E-01  0.55254151998E-01  0.51100000000E-03 0. -1.
</event>
<event>
 8    1  0.1090774E+005  0.1043930E+01  0.7957747E-01            NaN
         13   -1    0    0    0    0  0.00000000000E+00  0.00000000000E+00  0.74505805969E-08  0.10566000000E+00  0.10566000000E+00 0.  1.
     999900   -1    0    0    0    0 -0.00000000000E+00 -0.00000000000E+00 -0.74505805969E-08  0.93827000000E+00  0.93827000000E+00 0. -1.
     999902    2    1    2    0    0  0.18891523919E-01 -0.13155131298E-01 -0.64472093044E-02  0.10200236481E+01  0.10197434623E+01 0.  0.
     999903    2    3    3    0    0 -0.30696477532E-02 -0.88843628205E-01  0.93814074982E-01  0.13083111168E+00  0.20324519872E-01 0.  0.
         14    1    1    2    0    0 -0.18891523919E-01  0.13155131298E-01  0.64472093044E-02  0.23906351944E-01  0.00000000000E+00 0.  1.
     999901    1    3    3    0    0  0.21961171672E-01  0.75688496907E-01 -0.10026128429E+00  0.88919253638E+00  0.88000000000E+00 0. -1.
        -11    1    4    4    0    0  0.66751313041E-02 -0.29502047650E-01  0.39836162960E-01  0.50021087492E-01  0.51100000000E-03 0.  1.
         11    1    4    4    0    0 -0.97447790573E-02 -0.59341580555E-01  0.53977912022E-01  0.80810024185E-01  0.51100000000E-03 0. -1.
</event>
<event>
 8    1  0.1090774E+005  0.1043930E+01  0.7957747E-01            NaN
         13   -1    0    0    0    0  0.00000000000E+00  0.00000000000E+00  0.74505805969E-08  0.10566000000E+00  0.10566000000E+00 0.  1.
     999900   -1    0    0    0    0 -0.00000000000E+00 -0.00000000000E+00 -0.74505805969E-08  0.93827000000E+00  0.93827000000E+00 0.  1.
     999902    2    1    2    0    0  0.41061494126E-02 -0.25461238101E-01  0.20973591510E-02  0.10180546445E+01  0.10177257612E+01 0.  0.
     999903    2    3    3    0    0 -0.26594638522E-01 -0.94253214311E-02  0.12422244255E+00  0.12894597563E+00  0.19993446840E-01 0.  0.
         14    1    1    2    0    0 -0.41061494126E-02  0.25461238101E-01 -0.20973591510E-02  0.25875355534E-01  0.00000000000E+00 0. -1.
     999901    1    3    3    0    0  0.30700787935E-01 -0.16035916670E-01 -0.12212508340E+00  0.88910866884E+00  0.88000000000E+00 0.  1.
        -11    1    4    4    0    0 -0.16271884556E-01 -0.56221014703E-02  0.10783496819E+00  0.10920175702E+00  0.51100000000E-03 0.  1.
         11    1    4    4    0    0 -0.10322753966E-01 -0.38032199608E-02  0.16387474362E-01  0.19744218609E-01  0.51100000000E-03 0. -1.
</event>
<event>
 8    1  0.1090774E+005  0.1043930E+01  0.7957747E-01            NaN
         13   -1    0    0    0    0  0.00000000000E+00  0.00000000000E+00  0.74505805969E-08  0.10566000000E+00  0.10566000000E+00 0. -1.
     999900   -1    0    0    0    0 -0.00000000000E+00 -0.00000000000E+00 -0.74505805969E-08  0.93827000000E+00  0.93827000000E+00 0.  1.
     999902    2    1    2    0    0  0.28288501173E-03 -0.17003680511E-01 -0.16603509958E-01  0.10201627596E+01  0.10198858634E+01 0.  0.
     999903    2    3    3    0    0 -0.11586408750E+00  0.19570368065E-01 -0.54187114221E-01  0.13098318965E+00  0.20319117675E-01 0.  0.
         14    1    1    2    0    0 -0.28288501173E-03  0.17003680511E-01  0.16603509958E-01  0.23767240432E-01  0.00000000000E+00 0.  1.
     999901    1    3    3    0    0  0.11614697252E+00 -0.36574048576E-01  0.37583604263E-01  0.88917956992E+00  0.88000000000E+00 0.  1.
        -11    1    4    4    0    0 -0.11267483410E+00  0.22379790960E-01 -0.51243855034E-01  0.12578818340E+00  0.51100000000E-03 0.  1.
         11    1    4    4    0    0 -0.31892534045E-02 -0.28094228954E-02 -0.29432591873E-02  0.51950062490E-02  0.51100000000E-03 0. -1.
</event>
<event>
 8    1  0.1090774E+005  0.1043930E+01  0.7957747E-01            NaN
         13   -1    0    0    0    0  0.00000000000E+00  0.00000000000E+00  0.74505805969E-08  0.10566000000E+00  0.10566000000E+00 0. -1.
     999900   -1    0    0    0    0 -0.00000000000E+00 -0.00000000000E+00 -0.74505805969E-08  0.93827000000E+00  0.93827000000E+00 0. -1.
     999902    2    1    2    0    0 -0.56697735523E-02 -0.53837278350E-02 -0.22950876197E-01  0.10196838957E+01  0.10193955922E+01 0.  0.
     999903    2    3    3    0    0  0.11012112255E+00 -0.65809319675E-01 -0.10471392856E-01  0.12995667832E+00  0.17932093674E-01 0.  0.
         14    1    1    2    0    0  0.56697735523E-02  0.53837278350E-02  0.22950876197E-01  0.24246104342E-01  0.00000000000E+00 0. -1.
     999901    1    3    3    0    0 -0.11579089610E+00  0.60425591840E-01 -0.12479483341E-01  0.88972721734E+00  0.88000000000E+00 0.  1.
        -11    1    4    4    0    0  0.85557580744E-01 -0.45296397032E-01 -0.13756124004E-01  0.97782182811E-01  0.51100000000E-03 0. -1.
         11    1    4    4    0    0  0.24563541807E-01 -0.20512922643E-01  0.32847311477E-02  0.32174495508E-01  0.51100000000E-03 0.  1.
</event>
<event>
 8    1  0.1090774E+005  0.1043930E+01  0.7957747E-01            NaN
         13   -1    0    0    0    0  0.00000000000E+00  0.00000000000E+00  0.74505805969E-08  0.10566000000E+00  0.10566000000E+00 0.  1.
     999900   -1    0    0    0    0 -0.00000000000E+00 -0.00000000000E+00 -0.74505805969E-08  0.93827000000E+00  0.93827000000E+00 0.  1.
     999902    2    1    2    0    0 -0.39241183612E-03 -0.27165030885E-02 -0.24127113855E-01  0.10196472695E+01  0.10193580839E+01 0.  0.
     999903    2    3    3    0    0  0.73020150456E-01 -0.61096338011E-01  0.83487888708E-01  0.12814370913E+00  0.19643770967E-01 0.  0.
         14    1    1    2    0    0  0.39241183612E-03  0.27165030885E-02  0.24127113855E-01  0.24282730470E-01  0.00000000000E+00 0.  1.
     999901    1    3    3    0    0 -0.73412562292E-01  0.58379834923E-01 -0.10761500256E+00  0.89150356040E+00  0.88000000000E+00 0. -1.
        -11    1    4    4    0    0  0.31940090644E-01 -0.31231197810E-01  0.51236937867E-01  0.67978246741E-01  0.51100000000E-03 0. -1.
         11    1    4    4    0    0  0.41080059812E-01 -0.29865140202E-01  0.32250950841E-01  0.60165462390E-01  0.51100000000E-03 0.  1.
</event>
<event>
 8    1  0.1090774E+005  0.1043930E+01  0.7957747E-01            NaN
         13   -1    0    0    0    0  0.00000000000E+00  0.00000000000E+00  0.74505805969E-08  0.10566000000E+00  0.10566000000E+00 0. -1.
     999900   -1    0    0    0    0 -0.00000000000E+00 -0.00000000000E+00 -0.74505805969E-08  0.93827000000E+00  0.93827000000E+00 0. -1.
     999902    2    1    2    0    0  0.94215649783E-02 -0.20630012831E-01  0.31952596153E-02  0.10210264413E+01  0.10207695239E+01 0.  0.
     999903    2    3    3    0    0  0.58291833861E-01 -0.87527948438E-01  0.80200334026E-01  0.13378722981E+00  0.20195287292E-01 0.  0.
         14    1    1    2    0    0 -0.94215649783E-02  0.20630012831E-01 -0.31952596153E-02  0.22903558676E-01  0.00000000000E+00 0.  1.
     999901    1    3    3    0    0 -0.48870268882E-01  0.66897935607E-01 -0.77005074411E-01  0.88723921152E+00  0.88000000000E+00 0. -1.
        -11    1    4    4    0    0  0.25605969958E-01 -0.53600432195E-01  0.51497016436E-01  0.78618546488E-01  0.51100000000E-03 0. -1.
         11    1    4    4    0    0  0.32685863903E-01 -0.33927516242E-01  0.28703317590E-01  0.55168683319E-01  0.51100000000E-03 0.  1.
</event>
<event>
 8    1  0.1090774E+005  0.1043930E+01  0.7957747E-01            NaN
         13   -1    0    0    0    0  0.00000000000E+00  0.00000000000E+00  0.74505805969E-08  0.10566000000E+00  0.10566000000E+00 0. -1.
     999900   -1    0    0    0    0 -0.00000000000E+00 -0.00000000000E+00 -0.74505805969E-08  0.93827000000E+00  0.93827000000E+00 0. -1.
     999902    2    1    2    0    0 -0.82924833507E-02 -0.21449559651E-01  0.68202789154E-02  0.10199432309E+01  0.10196611344E+01 0.  0.
     999903    2    3    3    0    0 -0.55169206323E-01 -0.64055479840E-01 -0.98572558505E-01  0.13139365893E+00  0.20024946778E-01 0.  0.
         14    1    1    2    0    0  0.82924833507E-02  0.21449559651E-01 -0.68202789154E-02  0.23986769141E-01  0.00000000000E+00 0.  1.
     999901    1    3    3    0    0  0.46876722972E-01  0.42605920188E-01  0.10539283742E+00  0.88854957193E+00  0.88000000000E+00 0.  1.
        -11    1    4    4    0    0 -0.37124275356E-01 -0.54558785142E-01 -0.69097854457E-01  0.95549188738E-01  0.51100000000E-03 0. -1.
         11    1    4    4    0    0 -0.18044930967E-01 -0.94966946979E-02 -0.29474704048E-01  0.35844470194E-01  0.51100000000E-03 0.  1.
</event>
<event>
 8    1  0.1090774E+005  0.1043930E+01  0.7957747E-01            NaN
         13   -1    0    0    0    0  0.00000000000E+00  0.00000000000E+00  0.74505805969E-08  0.10566000000E+00  0.10566000000E+00 0.  1.
     999900   -1    0    0    0    0 -0.00000000000E+00 -0.00000000000E+00 -0.74505805969E-08  0.93827000000E+00  0.93827000000E+00 0.  1.
     999902    2    1    2    0    0 -0.14117240469E-01  0.12734179056E-02 -0.16632619419E-01  0.10220768057E+01  0.10218431556E+01 0.  0.
     999903    2    3    3    0    0 -0.69172752423E-01  0.10188373925E+00  0.44619763199E-01  0.13252332192E+00  0.20157916183E-01 0.  0.
         14    1    1    2    0    0  0.14117240469E-01 -0.12734179056E-02  0.16632619419E-01  0.21853194283E-01  0.00000000000E+00 0.  1.
     999901    1    3    3    0    0  0.55055511954E-01 -0.10061032134E+00 -0.61252382618E-01  0.88955348380E+00  0.88000000000E+00 0.  1.
        -11    1    4    4    0    0 -0.87885617943E-02  0.18884740179E-01  0.61136458212E-03  0.20844834317E-01  0.51100000000E-03 0. -1.
         11    1    4    4    0    0 -0.60384190629E-01  0.82998999066E-01  0.44008398617E-01  0.11167848760E+00  0.51100000000E-03 0.  1.
</event>
<event>
 8    1  0.1090774E+005  0.1043930E+01  0.7957747E-01            NaN
         13   -1    0    0    0    0  0.00000000000E+00  0.00000000000E+00  0.74505805969E-08  0.10566000000E+00  0.10566000000E+00 0.  1.
     999900   -1    0    0    0    0 -0.00000000000E+00 -0.00000000000E+00 -0.74505805969E-08  0.93827000000E+00  0.93827000000E+00 0.  1.
     999902    2    1    2    0    0  0.26595642829E-03 -0.25156053425E-01 -0.11613038197E-02  0.10187457513E+01  0.10184344158E+01 0.  0.
     999903    2    3    3    0    0  0.19724713528E-01  0.12650295354E-01 -0.12502995398E+00  0.12905400370E+00  0.21756658335E-01 0.  0.
         14    1    1    2    0    0 -0.26595642829E-03  0.25156053425E-01  0.11613038197E-02  0.25184248714E-01  0.00000000000E+00 0. -1.
     999901    1    3    3    0    0 -0.19458757100E-01 -0.37806348779E-01  0.12386865016E+00  0.88969174759E+00  0.88000000000E+00 0. -1.
        -11    1    4    4    0    0  0.19232570964E-01  0.15049803555E-01 -0.73284556887E-01  0.77248144133E-01  0.51100000000E-03 0. -1.
         11    1    4    4    0    0  0.49214256426E-03 -0.23995082011E-02 -0.51745397092E-01  0.51805859563E-01  0.51100000000E-03 0.  1.
</event>
<event>
 8    1  0.1090774E+005  0.1043930E+01  0.7957747E-01            NaN
         13   -1    0    0    0    0  0.00000000000E+00  0.00000000000E+00  0.74505805969E-08  0.10566000000E+00  0.10566000000E+00 0.  1.
     999900   -1    0    0    0    0 -0.00000000000E+00 -0.00000000000E+00 -0.74505805969E-08  0.93827000000E+00  0.93827000000E+00 0. -1.
     999902    2    1    2    0    0  0.16441599816E-01  0.13896451549E-01 -0.99435114959E-02  0.10202169025E+01  0.10199412813E+01 0.  0.
     999903    2    3    3    0    0  0.11870076629E+00  0.51482429367E-01 -0.30811208827E-01  0.13325292151E+00  0.81668874280E-02 0.  0.
         14    1    1    2    0    0 -0.16441599816E-01 -0.13896451549E-01  0.99435114959E-02  0.23713097458E-01  0.00000000000E+00 0.  1.
     999901    1    3    3    0    0 -0.10225916647E+00 -0.37585977818E-01  0.20867697331E-01  0.88696398103E+00  0.88000000000E+00 0.  1.
        -11    1    4    4    0    0  0.58983739322E-01  0.21305602017E-01 -0.13878155783E-01  0.64232970588E-01  0.51100000000E-03 0. -1.
         11    1    4    4    0    0  0.59717026968E-01  0.30176827351E-01 -0.16933053045E-01  0.69019950922E-01  0.51100000000E-03 0.  1.
</event>
<event>
 8    1  0.1090774E+005  0.1043930E+01  0.7957747E-01            NaN
         13   -1    0    0    0    0  0.00000000000E+00  0.00000000000E+00  0.74505805969E-08  0.10566000000E+00  0.10566000000E+00 0. -1.
     999900   -1    0    0    0    0 -0.00000000000E+00 -0.00000000000E+00 -0.74505805969E-08  0.93827000000E+00  0.93827000000E+00 0.  1.
     999902    2    1    2    0    0  0.28031921182E-02  0.15406155224E-01  0.17944718092E-01  0.10201136104E+01  0.10198355543E+01 0.  0.
     999903    2    3    3    0    0  0.98713871705E-01 -0.52528577269E-01  0.65219505080E-01  0.13104168318E+00  0.20363177323E-01 0.  0.
         14    1    1    2    0    0 -0.28031921182E-02 -0.15406155224E-01 -0.17944718092E-01  0.23816389572E-01  0.00000000000E+00 0.  1.
     999901    1    3    3    0    0 -0.95910679586E-01  0.67934732493E-01 -0.47274786987E-01  0.88907192725E+00  0.88000000000E+00 0.  1.
        -11    1    4    4    0    0  0.35650681158E-01 -0.96405253668E-02  0.26880215271E-01  0.45680607378E-01  0.51100000000E-03 0. -1.
         11    1    4    4    0    0  0.63063190547E-01 -0.42888051903E-01  0.38339289808E-01  0.85361075801E-01  0.51100000000E-03 0.  1.
</event>
