<event>
 8    1  0.1191842E+005  0.1043930E+01  0.7957747E-01            NaN
         13   -1    0    0    0    0  0.00000000000E+00  0.00000000000E+00  0.74505805969E-08  0.10566000000E+00  0.10566000000E+00 0. -1.
     999900   -1    0    0    0    0 -0.00000000000E+00 -0.00000000000E+00 -0.74505805969E-08  0.93827000000E+00  0.93827000000E+00 0. -1.
     999902    2    1    2    0    0  0.36376904235E-02  0.10687647081E-01  0.15703337985E-01  0.10245895394E+01  0.10244069850E+01 0.  0.
     999903    2    3    3    0    0  0.27464525771E-02  0.74465449129E-01 -0.10957029831E+00  0.13343192917E+00  0.15677478622E-01 0.  0.
         14    1    1    2    0    0 -0.36376904235E-02 -0.10687647081E-01 -0.15703337985E-01  0.19340460585E-01  0.00000000000E+00 0.  1.
     999901    1    3    3    0    0  0.89123784639E-03 -0.63777802048E-01  0.12527363629E+00  0.89115761024E+00  0.88000000000E+00 0.  1.
        -11    1    4    4    0    0  0.78822827104E-02  0.37279907404E-01 -0.47572742390E-01  0.60953661222E-01  0.51100000000E-03 0. -1.
         11    1    4    4    0    0 -0.51358301333E-02  0.37185541725E-01 -0.61997555919E-01  0.72478267953E-01  0.51100000000E-03 0.  1.
</event>
<event>
 8    1  0.1191842E+005  0.1043930E+01  0.7957747E-01            NaN
         13   -1    0    0    0    0  0.00000000000E+00  0.00000000000E+00  0.74505805969E-08  0.10566000000E+00  0.10566000000E+00 0.  1.
     999900   -1    0    0    0    0 -0.00000000000E+00 -0.00000000000E+00 -0.74505805969E-08  0.93827000000E+00  0.93827000000E+00 0.  1.
     999902    2    1    2    0    0 -0.10420144941E-01 -0.13888557895E-01 -0.15716522970E-01  0.10205103383E+01  0.10202415743E+01 0.  0.
     999903    2    3    3    0    0 -0.47169801090E-01 -0.12269792194E+00 -0.28765107180E-02  0.13295477334E+00  0.19721238747E-01 0.  0.
         14    1    1    2    0    0  0.10420144941E-01  0.13888557895E-01  0.15716522970E-01  0.23419661724E-01  0.00000000000E+00 0.  1.
     999901    1    3    3    0    0  0.36749656149E-01  0.10880936404E+00 -0.12840012252E-01  0.88755556493E+00  0.88000000000E+00 0. -1.
        -11    1    4    4    0    0 -0.21535749822E-01 -0.79573473968E-01 -0.62259450750E-02  0.82672545581E-01  0.51100000000E-03 0. -1.
         11    1    4    4    0    0 -0.25634051267E-01 -0.43124447971E-01  0.33494343571E-02  0.50282227762E-01  0.51100000000E-03 0.  1.
</event>
<event>
 8    1  0.1191842E+005  0.1043930E+01  0.7957747E-01            NaN
         13   -1    0    0    0    0  0.00000000000E+00  0.00000000000E+00  0.74505805969E-08  0.10566000000E+00  0.10566000000E+00 0.  1.
     999900   -1    0    0    0    0 -0.00000000000E+00 -0.00000000000E+00 -0.74505805969E-08  0.93827000000E+00  0.93827000000E+00 0. -1.
     999902    2    1    2    0    0 -0.68111280794E-03  0.20799798122E-01 -0.11597788604E-01  0.10201055542E+01  0.10198273077E+01 0.  0.
     999903    2    3    3    0    0 -0.21088606035E-01 -0.11974096039E+00 -0.35853010528E-01  0.12839008032E+00  0.20394790101E-01 0.  0.
         14    1    1    2    0    0  0.68111280794E-03 -0.20799798122E-01  0.11597788604E-01  0.23824445787E-01  0.00000000000E+00 0.  1.
     999901    1    3    3    0    0  0.20407493227E-01  0.14054075851E+00  0.24255221924E-01  0.89171547389E+00  0.88000000000E+00 0.  1.
        -11    1    4    4    0    0  0.30858169976E-02 -0.34995876565E-01 -0.11265684744E-01  0.36897295522E-01  0.51100000000E-03 0. -1.
         11    1    4    4    0    0 -0.24174423032E-01 -0.84745083821E-01 -0.24587325784E-01  0.91492784803E-01  0.51100000000E-03 0.  1.
</event>
<event>
 8    1  0.1191842E+005  0.1043930E+01  0.7957747E-01            NaN
         13   -1    0    0    0    0  0.00000000000E+00  0.00000000000E+00  0.74505805969E-08  0.10566000000E+00  0.10566000000E+00 0. -1.
     999900   -1    0    0    0    0 -0.00000000000E+00 -0.00000000000E+00 -0.74505805969E-08  0.93827000000E+00  0.93827000000E+00 0. -1.
     999902    2    1    2    0    0 -0.10716908618E-01 -0.15187357306E-01 -0.13985012417E-01  0.10206686904E+01  0.10204035903E+01 0.  0.
     999903    2    3    3    0    0  0.57832905176E-01  0.88677057539E-01 -0.72943453070E-01  0.12995942730E+00  0.18985255928E-01 0.  0.
         14    1    1    2    0    0  0.10716908618E-01  0.15187357306E-01  0.13985012417E-01  0.23261309606E-01  0.00000000000E+00 0. -1.
     999901    1    3    3    0    0 -0.68549813795E-01 -0.10386441485E+00  0.58958440654E-01  0.89070926310E+00  0.88000000000E+00 0.  1.
        -11    1    4    4    0    0  0.27293002640E-01  0.58632954618E-01 -0.45563696337E-01  0.79114113187E-01  0.51100000000E-03 0. -1.
         11    1    4    4    0    0  0.30539902536E-01  0.30044102921E-01 -0.27379756733E-01  0.50845314111E-01  0.51100000000E-03 0.  1.
</event>
<event>
 8    1  0.1191842E+005  0.1043930E+01  0.7957747E-01            NaN
         13   -1    0    0    0    0  0.00000000000E+00  0.00000000000E+00  0.74505805969E-08  0.10566000000E+00  0.10566000000E+00 0. -1.
     999900   -1    0    0    0    0 -0.00000000000E+00 -0.00000000000E+00 -0.74505805969E-08  0.93827000000E+00  0.93827000000E+00 0.  1.
     999902    2    1    2    0    0  0.20145836431E-01 -0.67813405769E-02 -0.84411860774E-02  0.10210587314E+01  0.10208025460E+01 0.  0.
     999903    2    3    3    0    0  0.56869313572E-01  0.47888428116E-01  0.10617715141E+00  0.13118527933E+00  0.20213106117E-01 0.  0.
         14    1    1    2    0    0 -0.20145836431E-01  0.67813405769E-02  0.84411860774E-02  0.22871268612E-01  0.00000000000E+00 0. -1.
     999901    1    3    3    0    0 -0.36723477140E-01 -0.54669768693E-01 -0.11461833749E+00  0.88987345205E+00  0.88000000000E+00 0.  1.
        -11    1    4    4    0    0  0.18201837018E-01  0.28300844781E-01  0.48609430565E-01  0.59121760351E-01  0.51100000000E-03 0.  1.
         11    1    4    4    0    0  0.38667476554E-01  0.19587583335E-01  0.57567720845E-01  0.72063518983E-01  0.51100000000E-03 0. -1.
</event>
<event>
 8    1  0.1191842E+005  0.1043930E+01  0.7957747E-01            NaN
         13   -1    0    0    0    0  0.00000000000E+00  0.00000000000E+00  0.74505805969E-08  0.10566000000E+00  0.10566000000E+00 0.  1.
     999900   -1    0    0    0    0 -0.00000000000E+00 -0.00000000000E+00 -0.74505805969E-08  0.93827000000E+00  0.93827000000E+00 0.  1.
     999902    2    1    2    0    0 -0.22535019104E-01 -0.45170157218E-02 -0.88931944758E-02  0.10192861483E+01  0.10189881907E+01 0.  0.
     999903    2    3    3    0    0  0.10505217900E+00 -0.29779906544E-01 -0.64295718760E-01  0.12800272177E+00  0.18109505321E-01 0.  0.
         14    1    1    2    0    0  0.22535019104E-01  0.45170157218E-02  0.88931944758E-02  0.24643851668E-01  0.00000000000E+00 0. -1.
     999901    1    3    3    0    0 -0.12758719810E+00  0.25262890822E-01  0.55402524284E-01  0.89128342656E+00  0.88000000000E+00 0.  1.
        -11    1    4    4    0    0  0.77000205306E-01 -0.20303663527E-01 -0.55653499560E-01  0.97153710707E-01  0.51100000000E-03 0.  1.
         11    1    4    4    0    0  0.28051973692E-01 -0.94762430162E-02 -0.86422192003E-02  0.30849011061E-01  0.51100000000E-03 0. -1.
</event>
<event>
 8    1  0.1191842E+005  0.1043930E+01  0.7957747E-01            NaN
         13   -1    0    0    0    0  0.00000000000E+00  0.00000000000E+00  0.74505805969E-08  0.10566000000E+00  0.10566000000E+00 0.  1.
     999900   -1    0    0    0    0 -0.00000000000E+00 -0.00000000000E+00 -0.74505805969E-08  0.93827000000E+00  0.93827000000E+00 0. -1.
     999902    2    1    2    0    0 -0.16944806451E-02 -0.22923579586E-01 -0.59373262752E-03  0.10209362121E+01  0.10206772432E+01 0.  0.
     999903    2    3    3    0    0 -0.70978602182E-01 -0.90668129097E-01  0.65952934144E-01  0.13311974884E+00  0.10602188859E-01 0.  0.
         14    1    1    2    0    0  0.16944806451E-02  0.22923579586E-01  0.59373262752E-03  0.22993787947E-01  0.00000000000E+00 0.  1.
     999901    1    3    3    0    0  0.69284121537E-01  0.67744549511E-01 -0.66546666772E-01  0.88781646321E+00  0.88000000000E+00 0.  1.
        -11    1    4    4    0    0 -0.27156420423E-01 -0.41073698713E-01  0.24207924482E-01  0.54870799383E-01  0.51100000000E-03 0. -1.
         11    1    4    4    0    0 -0.43822181759E-01 -0.49594430384E-01  0.41745009663E-01  0.78248949462E-01  0.51100000000E-03 0.  1.
</event>
<event>
 8    1  0.1191842E+005  0.1043930E+01  0.7957747E-01            NaN
         13   -1    0    0    0    0  0.00000000000E+00  0.00000000000E+00  0.74505805969E-08  0.10566000000E+00  0.10566000000E+00 0. -1.
     999900   -1    0    0    0    0 -0.00000000000E+00 -0.00000000000E+00 -0.74505805969E-08  0.93827000000E+00  0.93827000000E+00 0. -1.
     999902    2    1    2    0    0  0.59787457649E-02 -0.21443722979E-01  0.67396811247E-02  0.10206705512E+01  0.10204054940E+01 0.  0.
     999903    2    3    3    0    0  0.89569869950E-01 -0.63810021667E-01  0.72690122581E-01  0.13324064410E+00  0.19358069439E-01 0.  0.
         14    1    1    2    0    0 -0.59787457649E-02  0.21443722979E-01 -0.67396811247E-02  0.23259448785E-01  0.00000000000E+00 0.  1.
     999901    1    3    3    0    0 -0.83591124185E-01  0.42366298688E-01 -0.65950441456E-01  0.88742990711E+00  0.88000000000E+00 0. -1.
        -11    1    4    4    0    0  0.58924505038E-01 -0.32675028164E-01  0.37295214506E-01  0.77012654191E-01  0.51100000000E-03 0. -1.
         11    1    4    4    0    0  0.30645364912E-01 -0.31134993503E-01  0.35394908074E-01  0.56227989912E-01  0.51100000000E-03 0.  1.
</event>
<event>
 8    1  0.1191842E+005  0.1043930E+01  0.7957747E-01            NaN
         13   -1    0    0    0    0  0.00000000000E+00  0.00000000000E+00  0.74505805969E-08  0.10566000000E+00  0.10566000000E+00 0. -1.
     999900   -1    0    0    0    0 -0.00000000000E+00 -0.00000000000E+00 -0.74505805969E-08  0.93827000000E+00  0.93827000000E+00 0. -1.
     999902    2    1    2    0    0 -0.19414245801E-01 -0.16922502595E-01 -0.40034722320E-02  0.10178663889E+01  0.10175326402E+01 0.  0.
     999903    2    3    3    0    0 -0.66215239219E-01  0.66203006513E-01 -0.86877762592E-01  0.12883976879E+00  0.16871408128E-01 0.  0.
         14    1    1    2    0    0  0.19414245801E-01  0.16922502595E-01  0.40034722320E-02  0.26063611109E-01  0.00000000000E+00 0.  1.
     999901    1    3    3    0    0  0.46800993418E-01 -0.83125509109E-01  0.82874290360E-01  0.88902662010E+00  0.88000000000E+00 0.  1.
        -11    1    4    4    0    0 -0.41359665633E-01  0.35226724234E-01 -0.40415592739E-01  0.67714291689E-01  0.51100000000E-03 0.  1.
         11    1    4    4    0    0 -0.24855573586E-01  0.30976282280E-01 -0.46462169853E-01  0.61125477099E-01  0.51100000000E-03 0. -1.
</event>
<event>
 8    1  0.1191842E+005  0.1043930E+01  0.7957747E-01            NaN
         13   -1    0    0    0    0  0.00000000000E+00  0.00000000000E+00  0.74505805969E-08  0.10566000000E+00  0.10566000000E+00 0. -1.
     999900   -1    0    0    0    0 -0.00000000000E+00 -0.00000000000E+00 -0.74505805969E-08  0.93827000000E+00  0.93827000000E+00 0.  1.
     999902    2    1    2    0    0  0.94196856913E-02  0.12703001635E-01  0.16632798589E-01  0.10209790367E+01  0.10207210425E+01 0.  0.
     999903    2    3    3    0    0 -0.25931943291E-01 -0.11705766119E+00 -0.42252045883E-01  0.12881593936E+00  0.20817039327E-01 0.  0.
         14    1    1    2    0    0 -0.94196856913E-02 -0.12703001635E-01 -0.16632798589E-01  0.22950963334E-01  0.00000000000E+00 0. -1.
     999901    1    3    3    0    0  0.35351628982E-01  0.12976066282E+00  0.58884844472E-01  0.89216309731E+00  0.88000000000E+00 0.  1.
        -11    1    4    4    0    0 -0.76009883941E-02 -0.88792453147E-02 -0.16135019593E-02  0.11810187615E-01  0.51100000000E-03 0.  1.
         11    1    4    4    0    0 -0.18330954897E-01 -0.10817841587E+00 -0.40638543923E-01  0.11700575174E+00  0.51100000000E-03 0. -1.
</event>
<event>
 8    1  0.1191842E+005  0.1043930E+01  0.7957747E-01            NaN
         13   -1    0    0    0    0  0.00000000000E+00  0.00000000000E+00  0.74505805969E-08  0.10566000000E+00  0.10566000000E+00 0.  1.
     999900   -1    0    0    0    0 -0.00000000000E+00 -0.00000000000E+00 -0.74505805969E-08  0.93827000000E+00  0.93827000000E+00 0.  1.
     999902    2    1    2    0    0  0.86312132961E-02 -0.20395939504E-01  0.82586368283E-02  0.10202932220E+01  0.10200193928E+01 0.  0.
     999903    2    3    3    0    0  0.65034468648E-01  0.50769267394E-01  0.99507453321E-01  0.13092706548E+00  0.20812558318E-01 0.  0.
         14    1    1    2    0    0 -0.86312132961E-02  0.20395939504E-01 -0.82586368283E-02  0.23636777984E-01  0.00000000000E+00 0. -1.
     999901    1    3    3    0    0 -0.56403255352E-01 -0.71165206898E-01 -0.91248816492E-01  0.88936615654E+00  0.88000000000E+00 0.  1.
        -11    1    4    4    0    0  0.42859889460E-01  0.43341955774E-01  0.79264016011E-01  0.99992702784E-01  0.51100000000E-03 0.  1.
         11    1    4    4    0    0  0.22174579188E-01  0.74273116204E-02  0.20243437310E-01  0.30934362692E-01  0.51100000000E-03 0. -1.
</event>
<event>
 8    1  0.1191842E+005  0.1043930E+01  0.7957747E-01            NaN
         13   -1    0    0    0    0  0.00000000000E+00  0.00000000000E+00  0.74505805969E-08  0.10566000000E+00  0.10566000000E+00 0.  1.
     999900   -1    0    0    0    0 -0.00000000000E+00 -0.00000000000E+00 -0.74505805969E-08  0.93827000000E+00  0.93827000000E+00 0.  1.
     999902    2    1    2    0    0 -0.12445727434E-01  0.13696101420E-03 -0.19329045624E-01  0.10209402872E+01  0.10206814112E+01 0.  0.
     999903    2    3    3    0    0  0.34228748824E-01 -0.11095449623E+00  0.54141867828E-01  0.12969520658E+00  0.20174173592E-01 0.  0.
         14    1    1    2    0    0  0.12445727434E-01 -0.13696101420E-03  0.19329045624E-01  0.22989712796E-01  0.00000000000E+00 0.  1.
     999901    1    3    3    0    0 -0.46674476259E-01  0.11109145724E+00 -0.73470913452E-01  0.89124508062E+00  0.88000000000E+00 0.  1.
        -11    1    4    4    0    0  0.41314572545E-02 -0.46555770683E-01  0.20157003838E-01  0.50902599616E-01  0.51100000000E-03 0. -1.
         11    1    4    4    0    0  0.30097291570E-01 -0.64398725543E-01  0.33984863989E-01  0.78792606968E-01  0.51100000000E-03 0.  1.
</event>
<event>
 8    1  0.1191842E+005  0.1043930E+01  0.7957747E-01            NaN
         13   -1    0    0    0    0  0.00000000000E+00  0.00000000000E+00  0.74505805969E-08  0.10566000000E+00  0.10566000000E+00 0.  1.
     999900   -1    0    0    0    0 -0.00000000000E+00 -0.00000000000E+00 -0.74505805969E-08  0.93827000000E+00  0.93827000000E+00 0.  1.
     999902    2    1    2    0    0  0.24516660999E-01 -0.25574791219E-02 -0.12135143852E-02  0.10192504542E+01  0.10189516222E+01 0.  0.
     999903    2    3    3    0    0  0.71034089692E-01  0.10267722434E+00 -0.34733452549E-01  0.13112782735E+00  0.19991000091E-01 0.  0.
         14    1    1    2    0    0 -0.24516660999E-01  0.25574791219E-02  0.12135143852E-02  0.24679545846E-01  0.00000000000E+00 0. -1.
     999901    1    3    3    0    0 -0.46517428693E-01 -0.10523470346E+00  0.33519938163E-01  0.88812262680E+00  0.88000000000E+00 0. -1.
        -11    1    4    4    0    0  0.63572190475E-01  0.94655625416E-01 -0.25616153548E-01  0.11686556066E+00  0.51100000000E-03 0.  1.
         11    1    4    4    0    0  0.74618992168E-02  0.80215989187E-02 -0.91172990005E-02  0.14262266692E-01  0.51100000000E-03 0. -1.
</event>
<event>
 8    1  0.1191842E+005  0.1043930E+01  0.7957747E-01            NaN
         13   -1    0    0    0    0  0.00000000000E+00  0.00000000000E+00  0.74505805969E-08  0.10566000000E+00  0.10566000000E+00 0. -1.
     999900   -1    0    0    0    0 -0.00000000000E+00 -0.00000000000E+00 -0.74505805969E-08  0.93827000000E+00  0.93827000000E+00 0.  1.
     999902    2    1    2    0    0  0.95038811226E-02 -0.20134690682E-01 -0.19771693831E-01  0.10141533413E+01  0.10137161093E+01 0.  0.
     999903    2    3    3    0    0 -0.66105519223E-01  0.92954363933E-01  0.38366249573E-01  0.12180479050E+00  0.18814474095E-01 0.  0.
         14    1    1    2    0    0 -0.95038811226E-02  0.20134690682E-01  0.19771693831E-01  0.29776658681E-01  0.00000000000E+00 0.  1.
     999901    1    3    3    0    0  0.75609400345E-01 -0.11308905461E+00 -0.58137943404E-01  0.89234855082E+00  0.88000000000E+00 0.  1.
        -11    1    4    4    0    0 -0.26167493056E-01  0.50273606296E-01  0.13394718067E-01  0.58239615177E-01  0.51100000000E-03 0. -1.
         11    1    4    4    0    0 -0.39938026166E-01  0.42680757637E-01  0.24971531506E-01  0.63565175318E-01  0.51100000000E-03 0.  1.
</event>
<event>
 8    1  0.1191842E+005  0.1043930E+01  0.7957747E-01            NaN
         13   -1    0    0    0    0  0.00000000000E+00  0.00000000000E+00  0.74505805969E-08  0.10566000000E+00  0.10566000000E+00 0. -1.
     999900   -1    0    0    0    0 -0.00000000000E+00 -0.00000000000E+00 -0.74505805969E-08  0.93827000000E+00  0.93827000000E+00 0.  1.
     999902    2    1    2    0    0 -0.70395339790E-02  0.24566396026E-01  0.11761437507E-02  0.10183478545E+01  0.10180264764E+01 0.  0.
     999903    2    3    3    0    0 -0.12013399866E+00 -0.40703075548E-01  0.47821001760E-02  0.12870553046E+00  0.21291479418E-01 0.  0.
         14    1    1    2    0    0  0.70395339790E-02 -0.24566396026E-01 -0.11761437507E-02  0.25582145462E-01  0.00000000000E+00 0.  1.
     999901    1    3    3    0    0  0.11309446468E+00  0.65269471574E-01 -0.36059564254E-02  0.88964232407E+00  0.88000000000E+00 0. -1.
        -11    1    4    4    0    0 -0.49379476802E-01 -0.25618365975E-01 -0.42677326328E-02  0.55795233375E-01  0.51100000000E-03 0.  1.
         11    1    4    4    0    0 -0.70754521861E-01 -0.15084709573E-01  0.90498328088E-02  0.72910297089E-01  0.51100000000E-03 0. -1.
</event>
<event>
 8    1  0.1191842E+005  0.1043930E+01  0.7957747E-01            NaN
         13   -1    0    0    0    0  0.00000000000E+00  0.00000000000E+00  0.74505805969E-08  0.10566000000E+00  0.10566000000E+00 0. -1.
     999900   -1    0    0    0    0 -0.00000000000E+00 -0.00000000000E+00 -0.74505805969E-08  0.93827000000E+00  0.93827000000E+00 0.  1.
     999902    2    1    2    0    0  0.14143844687E-01  0.10798826140E-01  0.14995094348E-01  0.10206595070E+01  0.10203941951E+01 0.  0.
     999903    2    3    3    0    0  0.44397270391E-01 -0.10964272965E+00 -0.48268068049E-01  0.12969168166E+00  0.22304262283E-01 0.  0.
         14    1    1    2    0    0 -0.14143844687E-01 -0.10798826140E-01 -0.14995094348E-01  0.23270492970E-01  0.00000000000E+00 0.  1.
     999901    1    3    3    0    0 -0.30253425703E-01  0.12044155579E+00  0.63263162397E-01  0.89096782537E+00  0.88000000000E+00 0. -1.
        -11    1    4    4    0    0  0.22113926375E-03 -0.23129606980E-01 -0.11371702574E-01  0.25779921685E-01  0.51100000000E-03 0. -1.
         11    1    4    4    0    0  0.44176131127E-01 -0.86513122668E-01 -0.36896365475E-01  0.10391175998E+00  0.51100000000E-03 0.  1.
</event>
<event>
 7    1  0.1191842E+005  0.1043930E+01  0.7957747E-01            NaN
         13   -1    0    0    0    0  0.00000000000E+00  0.00000000000E+00  0.74505805969E-08  0.10566000000E+00  0.10566000000E+00 0. -1.
     999900   -1    0    0    0    0 -0.00000000000E+00 -0.00000000000E+00 -0.74505805969E-08  0.93827000000E+00  0.93827000000E+00 0. -1.
     999903    2    1    2    0    0  0.11719296550E+00 -0.72445220177E-02  0.10094237665E-02  0.11900119128E+00  0.19328484896E-01 0.  0.
         14    1    1    2    0    0 -0.19251399557E-01 -0.33411762875E-01  0.17842199828E-03  0.38561562698E-01  0.00000000000E+00 0. -1.
     999901    1    1    2    0    0 -0.97941565942E-01  0.40656284892E-01 -0.11878457648E-02  0.88636724602E+00  0.88000000000E+00 0.  1.
        -11    1    3    3    0    0  0.95283211337E-01 -0.42282857967E-02 -0.66008288105E-02  0.95606489453E-01  0.51100000000E-03 0.  1.
         11    1    3    3    0    0  0.21909754161E-01 -0.30162362210E-02  0.76102525770E-02  0.23394701828E-01  0.51100000000E-03 0. -1.
</event>
<event>
 8    1  0.1191842E+005  0.1043930E+01  0.7957747E-01            NaN
         13   -1    0    0    0    0  0.00000000000E+00  0.00000000000E+00  0.74505805969E-08  0.10566000000E+00  0.10566000000E+00 0.  1.
     999900   -1    0    0    0    0 -0.00000000000E+00 -0.00000000000E+00 -0.74505805969E-08  0.93827000000E+00  0.93827000000E+00 0.  1.
     999902    2    1    2    0    0  0.13418416670E-01  0.19028741113E-01  0.54243393375E-02  0.10200224625E+01  0.10197422486E+01 0.  0.
     999903    2    3    3    0    0  0.80764160896E-01 -0.47378264650E-02  0.10216704391E+00  0.13184486203E+00  0.19991650726E-01 0.  0.
         14    1    1    2    0    0 -0.13418416670E-01 -0.19028741113E-01 -0.54243393375E-02  0.23907537546E-01  0.00000000000E+00 0. -1.
     999901    1    3    3    0    0 -0.67345744226E-01  0.23766567578E-01 -0.96742704571E-01  0.88817760042E+00  0.88000000000E+00 0.  1.
        -11    1    4    4    0    0  0.14170523434E-01 -0.84237655825E-02  0.23473665354E-01  0.28688632717E-01  0.51100000000E-03 0.  1.
         11    1    4    4    0    0  0.66593637462E-01  0.36859391176E-02  0.78693378555E-01  0.10315622932E+00  0.51100000000E-03 0. -1.
</event>
<event>
 8    1  0.1191842E+005  0.1043930E+01  0.7957747E-01            NaN
         13   -1    0    0    0    0  0.00000000000E+00  0.00000000000E+00  0.74505805969E-08  0.10566000000E+00  0.10566000000E+00 0.  1.
     999900   -1    0    0    0    0 -0.00000000000E+00 -0.00000000000E+00 -0.74505805969E-08  0.93827000000E+00  0.93827000000E+00 0. -1.
     999902    2    1    2    0    0  0.20875191832E-01 -0.13048284177E-01 -0.15505338033E-02  0.10192635145E+01  0.10189650025E+01 0.  0.
     999903    2    3    3    0    0 -0.98387057059E-01  0.11305164583E-01 -0.78231952203E-01  0.12758161243E+00  0.18681802414E-01 0.  0.
         14    1    1    2    0    0 -0.20875191832E-01  0.13048284177E-01  0.15505338033E-02  0.24666485543E-01  0.00000000000E+00 0.  1.
     999901    1    3    3    0    0  0.11926224889E+00 -0.24353448759E-01  0.76681418400E-01  0.89168190203E+00  0.88000000000E+00 0.  1.
        -11    1    4    4    0    0 -0.29620268959E-01  0.42058825591E-02 -0.13330510093E-01  0.32756883271E-01  0.51100000000E-03 0.  1.
         11    1    4    4    0    0 -0.68766788100E-01  0.70992820234E-02 -0.64901442110E-01  0.94824729157E-01  0.51100000000E-03 0. -1.
</event>
<event>
 8    1  0.1191842E+005  0.1043930E+01  0.7957747E-01            NaN
         13   -1    0    0    0    0  0.00000000000E+00  0.00000000000E+00  0.74505805969E-08  0.10566000000E+00  0.10566000000E+00 0.  1.
     999900   -1    0    0    0    0 -0.00000000000E+00 -0.00000000000E+00 -0.74505805969E-08  0.93827000000E+00  0.93827000000E+00 0.  1.
     999902    2    1    2    0    0 -0.11108986759E-01  0.29135662287E-02 -0.20415373116E-01  0.10205059544E+01  0.10202370886E+01 0.  0.
     999903    2    3    3    0    0 -0.65638445970E-01 -0.11926142730E-01  0.10890662992E+00  0.12926083692E+00  0.19926651782E-01 0.  0.
         14    1    1    2    0    0  0.11108986759E-01 -0.29135662287E-02  0.20415373116E-01  0.23424045646E-01  0.00000000000E+00 0.  1.
     999901    1    3    3    0    0  0.54529459211E-01  0.14839708958E-01 -0.12932200303E+00  0.89124511744E+00  0.88000000000E+00 0.  1.
        -11    1    4    4    0    0 -0.60333788460E-01 -0.15957310787E-01  0.92919713731E-01  0.11193362372E+00  0.51100000000E-03 0.  1.
         11    1    4    4    0    0 -0.53046575103E-02  0.40311680576E-02  0.15986916186E-01  0.17327213202E-01  0.51100000000E-03 0. -1.
</event>
<event>
 8    1  0.1191842E+005  0.1043930E+01  0.7957747E-01            NaN
         13   -1    0    0    0    0  0.00000000000E+00  0.00000000000E+00  0.74505805969E-08  0.10566000000E+00  0.10566000000E+00 0.  1.
     999900   -1    0    0    0    0 -0.00000000000E+00 -0.00000000000E+00 -0.74505805969E-08  0.93827000000E+00  0.93827000000E+00 0. -1.
     999902    2    1    2    0    0 -0.17550030350E-01  0.14211747547E-01 -0.59230728022E-02  0.10205834772E+01  0.10203164087E+01 0.  0.
     999903    2    3    3    0    0  0.45469917484E-01  0.10513252485E-01  0.11865770327E+00  0.12956969370E+00  0.23035040803E-01 0.  0.
         14    1    1    2    0    0  0.17550030350E-01 -0.14211747547E-01  0.59230728022E-02  0.23346522761E-01  0.00000000000E+00 0. -1.
     999901    1    3    3    0    0 -0.63019947835E-01  0.36984950619E-02 -0.12458077608E+00  0.89101378354E+00  0.88000000000E+00 0. -1.
        -11    1    4    4    0    0  0.20230738844E-01  0.55970254577E-03  0.25607883830E-01  0.32643849289E-01  0.51100000000E-03 0. -1.
         11    1    4    4    0    0  0.25239178640E-01  0.99535499389E-02  0.93049819445E-01  0.96925844410E-01  0.51100000000E-03 0.  1.
</event>
<event>
 8    1  0.1191842E+005  0.1043930E+01  0.7957747E-01            NaN
         13   -1    0    0    0    0  0.00000000000E+00  0.00000000000E+00  0.74505805969E-08  0.10566000000E+00  0.10566000000E+00 0. -1.
     999900   -1    0    0    0    0 -0.00000000000E+00 -0.00000000000E+00 -0.74505805969E-08  0.93827000000E+00  0.93827000000E+00 0. -1.
     999902    2    1    2    0    0 -0.17251522892E-01  0.36483131447E-02 -0.16590923182E-01  0.10197187637E+01  0.10194312989E+01 0.  0.
     999903    2    3    3    0    0  0.66557821174E-01 -0.92284021724E-01  0.54427217894E-01  0.12771506675E+00  0.20063200177E-01 0.  0.
         14    1    1    2    0    0  0.17251522892E-01 -0.36483131447E-02  0.16590923182E-01  0.24211236295E-01  0.00000000000E+00 0. -1.
     999901    1    3    3    0    0 -0.83809344066E-01  0.95932334869E-01 -0.71018141076E-01  0.89200369696E+00  0.88000000000E+00 0. -1.
        -11    1    4    4    0    0  0.50058665714E-01 -0.53587432402E-01  0.31612288205E-01  0.79856626595E-01  0.51100000000E-03 0. -1.
         11    1    4    4    0    0  0.16499155460E-01 -0.38696589322E-01  0.22814929689E-01  0.47858440152E-01  0.51100000000E-03 0.  1.
</event>
<event>
 8    1  0.1191842E+005  0.1043930E+01  0.7957747E-01            NaN
         13   -1    0    0    0    0  0.00000000000E+00  0.00000000000E+00  0.74505805969E-08  0.10566000000E+00  0.10566000000E+00 0. -1.
     999900   -1    0    0    0    0 -0.00000000000E+00 -0.00000000000E+00 -0.74505805969E-08  0.93827000000E+00  0.93827000000E+00 0.  1.
     999902    2    1    2    0    0  0.13748977172E-01 -0.19049546919E-01 -0.10904507632E-02  0.10204117370E+01  0.10201406787E+01 0.  0.
     999903    2    3    3    0    0  0.20365726598E-01  0.98793403024E-01 -0.77571995522E-01  0.12924386904E+00  0.22619988801E-01 0.  0.
         14    1    1    2    0    0 -0.13748977172E-01  0.19049546919E-01  0.10904507632E-02  0.23518262987E-01  0.00000000000E+00 0.  1.
     999901    1    3    3    0    0 -0.66167494259E-02 -0.11784294994E+00  0.76481544759E-01  0.89116786798E+00  0.88000000000E+00 0. -1.
        -11    1    4    4    0    0  0.89037558354E-02  0.68429961811E-01 -0.63807232541E-01  0.93987023503E-01  0.51100000000E-03 0. -1.
         11    1    4    4    0    0  0.11461970762E-01  0.30363441213E-01 -0.13764762981E-01  0.35256845533E-01  0.51100000000E-03 0.  1.
</event>
<event>
 8    1  0.1191842E+005  0.1043930E+01  0.7957747E-01            NaN
         13   -1    0    0    0    0  0.00000000000E+00  0.00000000000E+00  0.74505805969E-08  0.10566000000E+00  0.10566000000E+00 0.  1.
     999900   -1    0    0    0    0 -0.00000000000E+00 -0.00000000000E+00 -0.74505805969E-08  0.93827000000E+00  0.93827000000E+00 0.  1.
     999902    2    1    2    0    0 -0.92918754276E-02  0.47797049454E-02 -0.21317214786E-01  0.10201895667E+01  0.10199133021E+01 0.  0.
     999903    2    3    3    0    0 -0.55797344348E-01 -0.10983824553E+00  0.35451140715E-01  0.12972750718E+00  0.19866024369E-01 0.  0.
         14    1    1    2    0    0  0.92918754276E-02 -0.47797049454E-02  0.21317214786E-01  0.23740433327E-01  0.00000000000E+00 0. -1.
     999901    1    3    3    0    0  0.46505468921E-01  0.11461795047E+00 -0.56768355502E-01  0.89046205949E+00  0.88000000000E+00 0.  1.
        -11    1    4    4    0    0 -0.43634852795E-01 -0.67092734338E-01  0.27140167028E-01  0.84512041548E-01  0.51100000000E-03 0. -1.
         11    1    4    4    0    0 -0.12162491553E-01 -0.42745511189E-01  0.83109736875E-02  0.45215465631E-01  0.51100000000E-03 0.  1.
</event>
<event>
 8    1  0.1191842E+005  0.1043930E+01  0.7957747E-01            NaN
         13   -1    0    0    0    0  0.00000000000E+00  0.00000000000E+00  0.74505805969E-08  0.10566000000E+00  0.10566000000E+00 0. -1.
     999900   -1    0    0    0    0 -0.00000000000E+00 -0.00000000000E+00 -0.74505805969E-08  0.93827000000E+00  0.93827000000E+00 0.  1.
     999902    2    1    2    0    0 -0.17839009196E-01  0.15279184002E-01  0.50428489015E-03  0.10204366389E+01  0.10201661610E+01 0.  0.
     999903    2    3    3    0    0  0.11934075202E-01 -0.12646218831E+00  0.36532211370E-02  0.12859193886E+00  0.19683330323E-01 0.  0.
         14    1    1    2    0    0  0.17839009196E-01 -0.15279184002E-01 -0.50428489015E-03  0.23493361107E-01  0.00000000000E+00 0.  1.
     999901    1    3    3    0    0 -0.29773084398E-01  0.14174137231E+00 -0.31489362469E-02  0.89184470003E+00  0.88000000000E+00 0.  1.
        -11    1    4    4    0    0 -0.28973773192E-02 -0.31358916090E-01 -0.52332438559E-02  0.31928425829E-01  0.51100000000E-03 0.  1.
         11    1    4    4    0    0  0.14831452521E-01 -0.95103272217E-01  0.88864649929E-02  0.96663513030E-01  0.51100000000E-03 0. -1.
</event>
<event>
 8    1  0.1191842E+005  0.1043930E+01  0.7957747E-01            NaN
         13   -1    0    0    0    0  0.00000000000E+00  0.00000000000E+00  0.74505805969E-08  0.10566000000E+00  0.10566000000E+00 0.  1.
     999900   -1    0    0    0    0 -0.00000000000E+00 -0.00000000000E+00 -0.74505805969E-08  0.93827000000E+00  0.93827000000E+00 0.  1.
     999902    2    1    2    0    0 -0.28113406320E-02 -0.13757810243E-01  0.12708638750E-01  0.10249908744E+01  0.10248158870E+01 0.  0.
     999903    2    3    3    0    0 -0.26765842076E-01  0.12628118145E+00  0.27649837525E-01  0.13347083721E+00  0.19662242491E-01 0.  0.
         14    1    1    2    0    0  0.28113406320E-02  0.13757810243E-01 -0.12708638750E-01  0.18939125580E-01  0.00000000000E+00 0. -1.
     999901    1    3    3    0    0  0.23954501444E-01 -0.14003899169E+00 -0.14941198774E-01  0.89152003721E+00  0.88000000000E+00 0.  1.
        -11    1    4    4    0    0 -0.86600779151E-02  0.55099141876E-01  0.21446649078E-01  0.59758951318E-01  0.51100000000E-03 0.  1.
         11    1    4    4    0    0 -0.18105764160E-01  0.71182039571E-01  0.62031884470E-02  0.73711885889E-01  0.51100000000E-03 0. -1.
</event>
<event>
 8    1  0.1191842E+005  0.1043930E+01  0.7957747E-01            NaN
         13   -1    0    0    0    0  0.00000000000E+00  0.00000000000E+00  0.74505805969E-08  0.10566000000E+00  0.10566000000E+00 0. -1.
     999900   -1    0    0    0    0 -0.00000000000E+00 -0.00000000000E+00 -0.74505805969E-08  0.93827000000E+00  0.93827000000E+00 0. -1.
     999902    2    1    2    0    0 -0.14359320736E-01  0.11031317013E-01  0.13841676967E-01  0.10211380701E+01  0.10208836791E+01 0.  0.
     999903    2    3    3    0    0  0.10786271523E+00  0.65857657353E-02 -0.68406744838E-01  0.12888093682E+00  0.15908346542E-01 0.  0.
         14    1    1    2    0    0  0.14359320736E-01 -0.11031317013E-01 -0.13841676967E-01  0.22791929894E-01  0.00000000000E+00 0.  1.
     999901    1    3    3    0    0 -0.12222203597E+00  0.44455512773E-02  0.82248421805E-01  0.89225713328E+00  0.88000000000E+00 0.  1.
        -11    1    4    4    0    0  0.56989868792E-01  0.54143686622E-02 -0.27106950720E-01  0.63341995795E-01  0.51100000000E-03 0. -1.
         11    1    4    4    0    0  0.50872846441E-01  0.11713970731E-02 -0.41299794118E-01  0.65538941030E-01  0.51100000000E-03 0.  1.
</event>
<event>
 8    1  0.1191842E+005  0.1043930E+01  0.7957747E-01            NaN
         13   -1    0    0    0    0  0.00000000000E+00  0.00000000000E+00  0.74505805969E-08  0.10566000000E+00  0.10566000000E+00 0. -1.
     999900   -1    0    0    0    0 -0.00000000000E+00 -0.00000000000E+00 -0.74505805969E-08  0.93827000000E+00  0.93827000000E+00 0. -1.
     999902    2    1    2    0    0 -0.19719287478E-01 -0.13090843430E-01 -0.35898714920E-02  0.10199903330E+01  0.10197093565E+01 0.  0.
     999903    2    3    3    0    0 -0.26404929115E-01  0.12348604710E+00  0.17812072286E-01  0.12917273770E+00  0.20549991187E-01 0.  0.
         14    1    1    2    0    0  0.19719287478E-01  0.13090843430E-01  0.35898714920E-02  0.23939667034E-01  0.00000000000E+00 0. -1.
     999901    1    3    3    0    0  0.66856416370E-02 -0.13657689053E+00 -0.21401943778E-01  0.89081759526E+00  0.88000000000E+00 0. -1.
        -11    1    4    4    0    0 -0.15075011276E-01  0.64510130292E-01 -0.93984041322E-03  0.66256752835E-01  0.51100000000E-03 0. -1.
         11    1    4    4    0    0 -0.11329917839E-01  0.58975916805E-01  0.18751912699E-01  0.62915984870E-01  0.51100000000E-03 0.  1.
</event>
<event>
 8    1  0.1191842E+005  0.1043930E+01  0.7957747E-01            NaN
         13   -1    0    0    0    0  0.00000000000E+00  0.00000000000E+00  0.74505805969E-08  0.10566000000E+00  0.10566000000E+00 0.  1.
     999900   -1    0    0    0    0 -0.00000000000E+00 -0.00000000000E+00 -0.74505805969E-08  0.93827000000E+00  0.93827000000E+00 0. -1.
     999902    2    1    2    0    0 -0.14041349649E-01  0.14953518379E-01  0.81858561364E-02  0.10218443609E+01  0.10216056590E+01 0.  0.
     999903    2    3    3    0    0  0.86746340489E-01  0.56071328030E-01 -0.77796203768E-01  0.13097863179E+00  0.20838216084E-01 0.  0.
         14    1    1    2    0    0  0.14041349649E-01 -0.14953518379E-01 -0.81858561364E-02  0.22085639057E-01  0.00000000000E+00 0. -1.
     999901    1    3    3    0    0 -0.10078769014E+00 -0.41117809651E-01  0.85982059904E-01  0.89086572915E+00  0.88000000000E+00 0.  1.
        -11    1    4    4    0    0  0.40946174516E-01  0.32365843604E-01 -0.50499637161E-01  0.72626520736E-01  0.51100000000E-03 0. -1.
         11    1    4    4    0    0  0.45800165973E-01  0.23705484426E-01 -0.27296566607E-01  0.58352111054E-01  0.51100000000E-03 0.  1.
</event>
<event>
 8    1  0.1191842E+005  0.1043930E+01  0.7957747E-01            NaN
         13   -1    0    0    0    0  0.00000000000E+00  0.00000000000E+00  0.74505805969E-08  0.10566000000E+00  0.10566000000E+00 0. -1.
     999900   -1    0    0    0    0 -0.00000000000E+00 -0.00000000000E+00 -0.74505805969E-08  0.93827000000E+00  0.93827000000E+00 0.  1.
     999902    2    1    2    0    0  0.61224795930E-03 -0.21599861228E-01 -0.11785269908E-01  0.10193165598E+01  0.10190193460E+01 0.  0.
     999903    2    3    3    0    0 -0.12807611571E+00 -0.29636577233E-02 -0.11104834566E-01  0.12976135294E+00  0.17390131750E-01 0.  0.
         14    1    1    2    0    0 -0.61224795930E-03  0.21599861228E-01  0.11785269908E-01  0.24613440219E-01  0.00000000000E+00 0. -1.
     999901    1    3    3    0    0  0.12868836367E+00 -0.18636203504E-01 -0.68043534245E-03  0.88955520684E+00  0.88000000000E+00 0. -1.
        -11    1    4    4    0    0 -0.55529428346E-01  0.10930395820E-02 -0.13122022831E-01  0.57071540650E-01  0.51100000000E-03 0. -1.
         11    1    4    4    0    0 -0.72546687368E-01 -0.40566973053E-02  0.20171882659E-02  0.72689812289E-01  0.51100000000E-03 0.  1.
</event>
<event>
 8    1  0.1191842E+005  0.1043930E+01  0.7957747E-01            NaN
         13   -1    0    0    0    0  0.00000000000E+00  0.00000000000E+00  0.74505805969E-08  0.10566000000E+00  0.10566000000E+00 0.  1.
     999900   -1    0    0    0    0 -0.00000000000E+00 -0.00000000000E+00 -0.74505805969E-08  0.93827000000E+00  0.93827000000E+00 0.  1.
     999902    2    1    2    0    0 -0.19753803358E-01 -0.86577320231E-02  0.12059220880E-01  0.10192198021E+01  0.10189202183E+01 0.  0.
     999903    2    3    3    0    0  0.24462662419E-01  0.10861934784E+00 -0.58728036956E-01  0.12752487381E+00  0.20421227620E-01 0.  0.
         14    1    1    2    0    0  0.19753803358E-01  0.86577320231E-02 -0.12059220880E-01  0.24710197877E-01  0.00000000000E+00 0.  1.
     999901    1    3    3    0    0 -0.44216465777E-01 -0.11727707986E+00  0.70787257836E-01  0.89169492831E+00  0.88000000000E+00 0. -1.
        -11    1    4    4    0    0  0.67136591130E-02  0.22297046544E-01 -0.22031000449E-01  0.32060218419E-01  0.51100000000E-03 0.  1.
         11    1    4    4    0    0  0.17749003306E-01  0.86322301297E-01 -0.36697036507E-01  0.95464655391E-01  0.51100000000E-03 0. -1.
</event>
<event>
 8    1  0.1191842E+005  0.1043930E+01  0.7957747E-01            NaN
         13   -1    0    0    0    0  0.00000000000E+00  0.00000000000E+00  0.74505805969E-08  0.10566000000E+00  0.10566000000E+00 0.  1.
     999900   -1    0    0    0    0 -0.00000000000E+00 -0.00000000000E+00 -0.74505805969E-08  0.93827000000E+00  0.93827000000E+00 0. -1.
     999902    2    1    2    0    0  0.16067256112E-01  0.21728098373E-01 -0.15286750737E-01  0.10128824280E+01  0.10124064704E+01 0.  0.
     999903    2    3    3    0    0  0.68129805862E-01  0.84373170641E-01 -0.64327982936E-01  0.12776099193E+00  0.20598041162E-01 0.  0.
         14    1    1    2    0    0 -0.16067256112E-01 -0.21728098373E-01  0.15286750737E-01  0.31047571982E-01  0.00000000000E+00 0.  1.
     999901    1    3    3    0    0 -0.52062549750E-01 -0.62645072268E-01  0.49041232199E-01  0.88512143609E+00  0.88000000000E+00 0.  1.
        -11    1    4    4    0    0  0.21231719144E-01  0.42208655303E-01 -0.25365602634E-01  0.53628643450E-01  0.51100000000E-03 0. -1.
         11    1    4    4    0    0  0.46898086718E-01  0.42164515338E-01 -0.38962380301E-01  0.74132348480E-01  0.51100000000E-03 0.  1.
</event>
<event>
 8    1  0.1191842E+005  0.1043930E+01  0.7957747E-01            NaN
         13   -1    0    0    0    0  0.00000000000E+00  0.00000000000E+00  0.74505805969E-08  0.10566000000E+00  0.10566000000E+00 0.  1.
     999900   -1    0    0    0    0 -0.00000000000E+00 -0.00000000000E+00 -0.74505805969E-08  0.93827000000E+00  0.93827000000E+00 0. -1.
     999902    2    1    2    0    0 -0.15028617813E-01  0.83498674882E-02 -0.15250365643E-01  0.10209484141E+01  0.10206897231E+01 0.  0.
     999903    2    3    3    0    0 -0.89698457707E-01  0.23751582538E-01 -0.94820034000E-01  0.13407518188E+00  0.19374327368E-01 0.  0.
         14    1    1    2    0    0  0.15028617813E-01 -0.83498674882E-02  0.15250365643E-01  0.22981585948E-01  0.00000000000E+00 0. -1.
     999901    1    3    3    0    0  0.74669839895E-01 -0.15401715050E-01  0.79569668357E-01  0.88687323217E+00  0.88000000000E+00 0.  1.
        -11    1    4    4    0    0 -0.11853253470E-01  0.89708366500E-02 -0.21329937849E-01  0.26003901585E-01  0.51100000000E-03 0.  1.
         11    1    4    4    0    0 -0.77845204238E-01  0.14780745888E-01 -0.73490096151E-01  0.10807128030E+00  0.51100000000E-03 0. -1.
</event>
<event>
 8    1  0.1191842E+005  0.1043930E+01  0.7957747E-01            NaN
         13   -1    0    0    0    0  0.00000000000E+00  0.00000000000E+00  0.74505805969E-08  0.10566000000E+00  0.10566000000E+00 0.  1.
     999900   -1    0    0    0    0 -0.00000000000E+00 -0.00000000000E+00 -0.74505805969E-08  0.93827000000E+00  0.93827000000E+00 0.  1.
     999902    2    1    2    0    0 -0.87742045050E-02  0.92238436434E-02 -0.19937703765E-01  0.10202745992E+01  0.10200003332E+01 0.  0.
     999903    2    3    3    0    0 -0.11463001814E+00  0.58360827970E-01 -0.25556404366E-01  0.13255197004E+00  0.19257924486E-01 0.  0.
         14    1    1    2    0    0  0.87742045050E-02 -0.92238436434E-02  0.19937703765E-01  0.23655400814E-01  0.00000000000E+00 0.  1.
     999901    1    3    3    0    0  0.10585581364E+00 -0.49136984327E-01  0.56187006008E-02  0.88772262915E+00  0.88000000000E+00 0. -1.
        -11    1    4    4    0    0 -0.89434419481E-02  0.53003483051E-03 -0.51924061476E-02  0.10367656119E-01  0.51100000000E-03 0. -1.
         11    1    4    4    0    0 -0.10568657619E+00  0.57830793139E-01 -0.20363998219E-01  0.12218431392E+00  0.51100000000E-03 0.  1.
</event>
<event>
 8    1  0.1191842E+005  0.1043930E+01  0.7957747E-01            NaN
         13   -1    0    0    0    0  0.00000000000E+00  0.00000000000E+00  0.74505805969E-08  0.10566000000E+00  0.10566000000E+00 0.  1.
     999900   -1    0    0    0    0 -0.00000000000E+00 -0.00000000000E+00 -0.74505805969E-08  0.93827000000E+00  0.93827000000E+00 0.  1.
     999902    2    1    2    0    0 -0.67137845954E-02  0.16094051932E-02 -0.21797517152E-01  0.10210652489E+01  0.10208092112E+01 0.  0.
     999903    2    3    3    0    0  0.25514587339E-01 -0.10172431911E+00 -0.78654301169E-01  0.13261197471E+00  0.20015131279E-01 0.  0.
         14    1    1    2    0    0  0.67137845954E-02 -0.16094051932E-02  0.21797517152E-01  0.22864751095E-01  0.00000000000E+00 0.  1.
     999901    1    3    3    0    0 -0.32228371934E-01  0.10333372430E+00  0.56856784017E-01  0.88845327419E+00  0.88000000000E+00 0. -1.
        -11    1    4    4    0    0  0.65325803947E-02 -0.17013485814E-01 -0.53796460369E-02  0.19008814235E-01  0.51100000000E-03 0. -1.
         11    1    4    4    0    0  0.18982006944E-01 -0.84710833292E-01 -0.73274655132E-01  0.11360316048E+00  0.51100000000E-03 0.  1.
</event>
<event>
 8    1  0.1191842E+005  0.1043930E+01  0.7957747E-01            NaN
         13   -1    0    0    0    0  0.00000000000E+00  0.00000000000E+00  0.74505805969E-08  0.10566000000E+00  0.10566000000E+00 0.  1.
     999900   -1    0    0    0    0 -0.00000000000E+00 -0.00000000000E+00 -0.74505805969E-08  0.93827000000E+00  0.93827000000E+00 0.  1.
     999902    2    1    2    0    0 -0.13986665431E-01 -0.13365253662E-01 -0.12652501503E-01  0.10208141481E+01  0.10205523908E+01 0.  0.
     999903    2    3    3    0    0 -0.88950452863E-02 -0.74133456543E-01 -0.10882167732E+00  0.13347700277E+00  0.19976526353E-01 0.  0.
         14    1    1    2    0    0  0.13986665431E-01  0.13365253662E-01  0.12652501503E-01  0.23115851912E-01  0.00000000000E+00 0.  1.
     999901    1    3    3    0    0 -0.50916201446E-02  0.60768202880E-01  0.96169175816E-01  0.88733714531E+00  0.88000000000E+00 0. -1.
        -11    1    4    4    0    0 -0.70156070557E-02 -0.35686949574E-01 -0.69533410576E-01  0.78472501041E-01  0.51100000000E-03 0. -1.
         11    1    4    4    0    0 -0.18794382306E-02 -0.38446506969E-01 -0.39288266743E-01  0.55004501732E-01  0.51100000000E-03 0.  1.
</event>
<event>
 8    1  0.1191842E+005  0.1043930E+01  0.7957747E-01            NaN
         13   -1    0    0    0    0  0.00000000000E+00  0.00000000000E+00  0.74505805969E-08  0.10566000000E+00  0.10566000000E+00 0. -1.
     999900   -1    0    0    0    0 -0.00000000000E+00 -0.00000000000E+00 -0.74505805969E-08  0.93827000000E+00  0.93827000000E+00 0.  1.
     999902    2    1    2    0    0 -0.14640285801E-01 -0.11367410700E-02  0.18238050589E-01  0.10205151193E+01  0.10202464663E+01 0.  0.
     999903    2    3    3    0    0  0.62153975513E-01 -0.11188585644E+00  0.13307466144E-01  0.13024154574E+00  0.20104975477E-01 0.  0.
         14    1    1    2    0    0  0.14640285801E-01  0.11367410700E-02 -0.18238050589E-01  0.23414880693E-01  0.00000000000E+00 0.  1.
     999901    1    3    3    0    0 -0.76794261314E-01  0.11074911537E+00  0.49305844446E-02  0.89027357357E+00  0.88000000000E+00 0. -1.
        -11    1    4    4    0    0  0.32221432828E-01 -0.47634008506E-01  0.14641296793E-01  0.59345161493E-01  0.51100000000E-03 0. -1.
         11    1    4    4    0    0  0.29932542685E-01 -0.64251847933E-01 -0.13338306490E-02  0.70896384249E-01  0.51100000000E-03 0.  1.
</event>
<event>
 8    1  0.1191842E+005  0.1043930E+01  0.7957747E-01            NaN
         13   -1    0    0    0    0  0.00000000000E+00  0.00000000000E+00  0.74505805969E-08  0.10566000000E+00  0.10566000000E+00 0.  1.
     999900   -1    0    0    0    0 -0.00000000000E+00 -0.00000000000E+00 -0.74505805969E-08  0.93827000000E+00  0.93827000000E+00 0. -1.
     999902    2    1    2    0    0  0.15164608766E-01 -0.16181147169E-01 -0.69061291085E-02  0.10207030867E+01  0.10204387790E+01 0.  0.
     999903    2    3    3    0    0  0.47141695415E-01  0.10305102107E+00  0.59984466090E-01  0.12957279557E+00  0.18684774288E-01 0.  0.
         14    1    1    2    0    0 -0.15164608766E-01  0.16181147169E-01  0.69061291085E-02  0.23226913312E-01  0.00000000000E+00 0. -1.
     999901    1    3    3    0    0 -0.31977086650E-01 -0.11923216824E+00 -0.66890595198E-01  0.89113029111E+00  0.88000000000E+00 0.  1.
        -11    1    4    4    0    0  0.38198076140E-02  0.19239885295E-01  0.16717432840E-01  0.25777854801E-01  0.51100000000E-03 0. -1.
         11    1    4    4    0    0  0.43321887801E-01  0.83811135777E-01  0.43267033250E-01  0.10379494077E+00  0.51100000000E-03 0.  1.
</event>
<event>
 8    1  0.1191842E+005  0.1043930E+01  0.7957747E-01            NaN
         13   -1    0    0    0    0  0.00000000000E+00  0.00000000000E+00  0.74505805969E-08  0.10566000000E+00  0.10566000000E+00 0. -1.
     999900   -1    0    0    0    0 -0.00000000000E+00 -0.00000000000E+00 -0.74505805969E-08  0.93827000000E+00  0.93827000000E+00 0.  1.
     999902    2    1    2    0    0  0.74443507499E-02  0.22276065837E-01 -0.25346743799E-02  0.10203065785E+01  0.10200330623E+01 0.  0.
     999903    2    3    3    0    0 -0.38964676374E-02 -0.20668970389E-01 -0.12714403485E+00  0.13041872998E+00  0.20026251134E-01 0.  0.
         14    1    1    2    0    0 -0.74443507499E-02 -0.22276065837E-01  0.25346743799E-02  0.23623421460E-01  0.00000000000E+00 0.  1.
     999901    1    3    3    0    0  0.11340818387E-01  0.42945036226E-01  0.12460936047E+00  0.88988784856E+00  0.88000000000E+00 0. -1.
        -11    1    4    4    0    0 -0.86583285190E-02 -0.11774404517E-02 -0.46323385256E-01  0.47143081797E-01  0.51100000000E-03 0. -1.
         11    1    4    4    0    0  0.47618608816E-02 -0.19491529937E-01 -0.80820649595E-01  0.83275648183E-01  0.51100000000E-03 0.  1.
</event>
<event>
 8    1  0.1191842E+005  0.1043930E+01  0.7957747E-01            NaN
         13   -1    0    0    0    0  0.00000000000E+00  0.00000000000E+00  0.74505805969E-08  0.10566000000E+00  0.10566000000E+00 0.  1.
     999900   -1    0    0    0    0 -0.00000000000E+00 -0.00000000000E+00 -0.74505805969E-08  0.93827000000E+00  0.93827000000E+00 0.  1.
     999902    2    1    2    0    0 -0.15652611422E-01 -0.14922979258E-01 -0.69496990160E-02  0.10212144135E+01  0.10209617429E+01 0.  0.
     999903    2    3    3    0    0  0.43613391691E-01  0.28231112672E-01 -0.11918521372E+00  0.13106187289E+00  0.16521976161E-01 0.  0.
         14    1    1    2    0    0  0.15652611422E-01  0.14922979258E-01  0.69496990160E-02  0.22715586514E-01  0.00000000000E+00 0.  1.
     999901    1    3    3    0    0 -0.59266003113E-01 -0.43154091930E-01  0.11223551471E+00  0.89015254060E+00  0.88000000000E+00 0. -1.
        -11    1    4    4    0    0  0.18707097709E-01  0.88455129187E-02 -0.66471798476E-01  0.69620110005E-01  0.51100000000E-03 0.  1.
         11    1    4    4    0    0  0.24906293983E-01  0.19385599753E-01 -0.52713415248E-01  0.61441762880E-01  0.51100000000E-03 0. -1.
</event>
<event>
 8    1  0.1191842E+005  0.1043930E+01  0.7957747E-01            NaN
         13   -1    0    0    0    0  0.00000000000E+00  0.00000000000E+00  0.74505805969E-08  0.10566000000E+00  0.10566000000E+00 0.  1.
     999900   -1    0    0    0    0 -0.00000000000E+00 -0.00000000000E+00 -0.74505805969E-08  0.93827000000E+00  0.93827000000E+00 0. -1.
     999902    2    1    2    0    0 -0.48321953806E-02 -0.35265767031E-02  0.22073997870E-01  0.10210597521E+01  0.10208035899E+01 0.  0.
     999903    2    3    3    0    0  0.82043583232E-01  0.82558117110E-01  0.58690644381E-01  0.13184731733E+00  0.19802300312E-01 0.  0.
         14    1    1    2    0    0  0.48321953806E-02  0.35265767031E-02 -0.22073997870E-01  0.22870247865E-01  0.00000000000E+00 0. -1.
     999901    1    3    3    0    0 -0.86875778613E-01 -0.86084693813E-01 -0.36616646511E-01  0.88921243481E+00  0.88000000000E+00 0. -1.
        -11    1    4    4    0    0  0.32209858052E-01  0.22149897972E-01  0.26205501107E-01  0.47064661320E-01  0.51100000000E-03 0.  1.
         11    1    4    4    0    0  0.49833725180E-01  0.60408219138E-01  0.32485143274E-01  0.84782656005E-01  0.51100000000E-03 0. -1.
</event>
<event>
 7    1  0.1191842E+005  0.1043930E+01  0.7957747E-01            NaN
         13   -1    0    0    0    0  0.00000000000E+00  0.00000000000E+00  0.74505805969E-08  0.10566000000E+00  0.10566000000E+00 0. -1.
     999900   -1    0    0    0    0 -0.00000000000E+00 -0.00000000000E+00 -0.74505805969E-08  0.93827000000E+00  0.93827000000E+00 0.  1.
     999903    2    1    2    0    0  0.68470618364E-01 -0.70617142607E-01 -0.34373204264E-01  0.10637435830E+00  0.21423830755E-01 0.  0.
         14    1    1    2    0    0  0.33085044681E-01 -0.30185493009E-01  0.87334602287E-02  0.45629568235E-01  0.00000000000E+00 0.  1.
     999901    1    1    2    0    0 -0.10155566305E+00  0.10080263562E+00  0.25639744035E-01  0.89192607346E+00  0.88000000000E+00 0. -1.
        -11    1    3    3    0    0  0.10960936324E-01 -0.24560891057E-01 -0.11161422110E-01  0.29124181690E-01  0.51100000000E-03 0.  1.
         11    1    3    3    0    0  0.57509682040E-01 -0.46056251550E-01 -0.23211782154E-01  0.77250176614E-01  0.51100000000E-03 0. -1.
</event>
<event>
 8    1  0.1191842E+005  0.1043930E+01  0.7957747E-01            NaN
         13   -1    0    0    0    0  0.00000000000E+00  0.00000000000E+00  0.74505805969E-08  0.10566000000E+00  0.10566000000E+00 0.  1.
     999900   -1    0    0    0    0 -0.00000000000E+00 -0.00000000000E+00 -0.74505805969E-08  0.93827000000E+00  0.93827000000E+00 0. -1.
     999902    2    1    2    0    0 -0.15042921483E-02 -0.21518860149E-01 -0.96913987229E-02  0.10202815868E+01  0.10200074848E+01 0.  0.
     999903    2    3    3    0    0 -0.68214851836E-02  0.10018084648E+00 -0.78239112166E-01  0.12924966811E+00  0.22391591569E-01 0.  0.
         14    1    1    2    0    0  0.15042921483E-02  0.21518860149E-01  0.96913987229E-02  0.23648413186E-01  0.00000000000E+00 0.  1.
     999901    1    3    3    0    0  0.53171930353E-02 -0.12169970662E+00  0.68547713443E-01  0.89103191871E+00  0.88000000000E+00 0.  1.
        -11    1    4    4    0    0 -0.14652621022E-01  0.70657411593E-01 -0.51541576208E-01  0.88678995905E-01  0.51100000000E-03 0. -1.
         11    1    4    4    0    0  0.78311358380E-02  0.29523434883E-01 -0.26697535958E-01  0.40570672203E-01  0.51100000000E-03 0.  1.
</event>
<event>
 8    1  0.1191842E+005  0.1043930E+01  0.7957747E-01            NaN
         13   -1    0    0    0    0  0.00000000000E+00  0.00000000000E+00  0.74505805969E-08  0.10566000000E+00  0.10566000000E+00 0.  1.
     999900   -1    0    0    0    0 -0.00000000000E+00 -0.00000000000E+00 -0.74505805969E-08  0.93827000000E+00  0.93827000000E+00 0.  1.
     999902    2    1    2    0    0 -0.21782343945E-01  0.63069042938E-02  0.72829506060E-02  0.10201121722E+01  0.10198340821E+01 0.  0.
     999903    2    3    3    0    0  0.45152253893E-01 -0.85822437073E-01 -0.81490643599E-01  0.12834493414E+00  0.20675598857E-01 0.  0.
         14    1    1    2    0    0  0.21782343945E-01 -0.63069042938E-02 -0.72829506060E-02  0.23817827757E-01  0.00000000000E+00 0. -1.
     999901    1    3    3    0    0 -0.66934597838E-01  0.92129341366E-01  0.88773594205E-01  0.89176723810E+00  0.88000000000E+00 0.  1.
        -11    1    4    4    0    0  0.44860606144E-01 -0.76371430045E-01 -0.67109196168E-01  0.11112594046E+00  0.51100000000E-03 0. -1.
         11    1    4    4    0    0  0.29164774862E-03 -0.94510070273E-02 -0.14381447431E-01  0.17218993683E-01  0.51100000000E-03 0.  1.
</event>
<event>
 8    1  0.1191842E+005  0.1043930E+01  0.7957747E-01            NaN
         13   -1    0    0    0    0  0.00000000000E+00  0.00000000000E+00  0.74505805969E-08  0.10566000000E+00  0.10566000000E+00 0. -1.
     999900   -1    0    0    0    0 -0.00000000000E+00 -0.00000000000E+00 -0.74505805969E-08  0.93827000000E+00  0.93827000000E+00 0.  1.
     999902    2    1    2    0    0  0.14760209827E-01  0.16756552404E-01 -0.46232404027E-02  0.10211260487E+01  0.10208713862E+01 0.  0.
     999903    2    3    3    0    0 -0.58160920636E-01 -0.10135913607E+00 -0.50926044342E-01  0.12904266876E+00  0.20054456197E-01 0.  0.
         14    1    1    2    0    0 -0.14760209827E-01 -0.16756552404E-01  0.46232404027E-02  0.22803951290E-01  0.00000000000E+00 0. -1.
     999901    1    3    3    0    0  0.72921130463E-01  0.11811568848E+00  0.46302803940E-01  0.89208337995E+00  0.88000000000E+00 0. -1.
        -11    1    4    4    0    0 -0.16408264433E-01 -0.43999997772E-01 -0.13692503722E-01  0.48918061335E-01  0.51100000000E-03 0.  1.
         11    1    4    4    0    0 -0.41752656203E-01 -0.57359138301E-01 -0.37233540621E-01  0.80124607424E-01  0.51100000000E-03 0. -1.
</event>
<event>
 8    1  0.1191842E+005  0.1043930E+01  0.7957747E-01            NaN
         13   -1    0    0    0    0  0.00000000000E+00  0.00000000000E+00  0.74505805969E-08  0.10566000000E+00  0.10566000000E+00 0. -1.
     999900   -1    0    0    0    0 -0.00000000000E+00 -0.00000000000E+00 -0.74505805969E-08  0.93827000000E+00  0.93827000000E+00 0.  1.
     999902    2    1    2    0    0  0.18204272173E-02  0.24119813747E-01 -0.61347226854E-02  0.10189757580E+01  0.10186701533E+01 0.  0.
     999903    2    3    3    0    0  0.99150393349E-01 -0.56285940315E-01 -0.56467714494E-01  0.12854237047E+00  0.18320225108E-01 0.  0.
         14    1    1    2    0    0 -0.18204272173E-02 -0.24119813747E-01  0.61347226854E-02  0.24954241981E-01  0.00000000000E+00 0. -1.
     999901    1    3    3    0    0 -0.97329966132E-01  0.80405754062E-01  0.50332991808E-01  0.89043338755E+00  0.88000000000E+00 0.  1.
        -11    1    4    4    0    0  0.25172563769E-01 -0.22252119211E-01 -0.21690628007E-01  0.39994490126E-01  0.51100000000E-03 0.  1.
         11    1    4    4    0    0  0.73977829580E-01 -0.34033821104E-01 -0.34777086486E-01  0.88547880346E-01  0.51100000000E-03 0. -1.
</event>
<event>
 8    1  0.1191842E+005  0.1043930E+01  0.7957747E-01            NaN
         13   -1    0    0    0    0  0.00000000000E+00  0.00000000000E+00  0.74505805969E-08  0.10566000000E+00  0.10566000000E+00 0. -1.
     999900   -1    0    0    0    0 -0.00000000000E+00 -0.00000000000E+00 -0.74505805969E-08  0.93827000000E+00  0.93827000000E+00 0.  1.
     999902    2    1    2    0    0 -0.58249433971E-02  0.98623100457E-02  0.20294147744E-01  0.10206266192E+01  0.10203605481E+01 0.  0.
     999903    2    3    3    0    0 -0.98877165514E-01 -0.67633262869E-01  0.49244859923E-01  0.13186207016E+00  0.24730491522E-01 0.  0.
         14    1    1    2    0    0  0.58249433971E-02 -0.98623100457E-02 -0.20294147744E-01  0.23303380821E-01  0.00000000000E+00 0.  1.
     999901    1    3    3    0    0  0.93052222117E-01  0.77495572914E-01 -0.28950712179E-01  0.88876454902E+00  0.88000000000E+00 0.  1.
        -11    1    4    4    0    0  0.13094724568E-02 -0.10861071117E-03  0.47561799134E-04  0.14106372767E-02  0.51100000000E-03 0. -1.
         11    1    4    4    0    0 -0.10018663797E+00 -0.67524652158E-01  0.49197298124E-01  0.13045143288E+00  0.51100000000E-03 0. -1.
</event>
<event>
 8    1  0.1191842E+005  0.1043930E+01  0.7957747E-01            NaN
         13   -1    0    0    0    0  0.00000000000E+00  0.00000000000E+00  0.74505805969E-08  0.10566000000E+00  0.10566000000E+00 0.  1.
     999900   -1    0    0    0    0 -0.00000000000E+00 -0.00000000000E+00 -0.74505805969E-08  0.93827000000E+00  0.93827000000E+00 0. -1.
     999902    2    1    2    0    0 -0.16294576909E-01  0.39487676922E-03 -0.17753554419E-01  0.10198290071E+01  0.10195441853E+01 0.  0.
     999903    2    3    3    0    0  0.22139961272E-02  0.12742797440E+00  0.15633896517E-01  0.12988816803E+00  0.19588951807E-01 0.  0.
         14    1    1    2    0    0  0.16294576909E-01 -0.39487676922E-03  0.17753554419E-01  0.24100992901E-01  0.00000000000E+00 0.  1.
     999901    1    3    3    0    0 -0.18508573036E-01 -0.12703309764E+00 -0.33387450936E-01  0.88994083907E+00  0.88000000000E+00 0.  1.
        -11    1    4    4    0    0 -0.52426544028E-02  0.79429609464E-01  0.28395752705E-02  0.79654708546E-01  0.51100000000E-03 0.  1.
         11    1    4    4    0    0  0.74566505300E-02  0.47998364941E-01  0.12794321246E-01  0.50233459480E-01  0.51100000000E-03 0. -1.
</event>
<event>
 8    1  0.1191842E+005  0.1043930E+01  0.7957747E-01            NaN
         13   -1    0    0    0    0  0.00000000000E+00  0.00000000000E+00  0.74505805969E-08  0.10566000000E+00  0.10566000000E+00 0. -1.
     999900   -1    0    0    0    0 -0.00000000000E+00 -0.00000000000E+00 -0.74505805969E-08  0.93827000000E+00  0.93827000000E+00 0.  1.
     999902    2    1    2    0    0  0.29694388163E-02  0.19643771420E-01  0.15396712496E-02  0.10240034873E+01  0.10238095897E+01 0.  0.
     999903    2    3    3    0    0  0.72626402082E-01  0.33415289556E-01 -0.10587303211E+00  0.13463335279E+00  0.22931744353E-01 0.  0.
         14    1    1    2    0    0 -0.29694388163E-02 -0.19643771420E-01 -0.15396712496E-02  0.19926512742E-01  0.00000000000E+00 0.  1.
     999901    1    3    3    0    0 -0.69656963266E-01 -0.13771518135E-01  0.10741270336E+00  0.88937013447E+00  0.88000000000E+00 0. -1.
        -11    1    4    4    0    0  0.43183135862E-01  0.28459602946E-01 -0.53957795605E-01  0.74742471529E-01  0.51100000000E-03 0.  1.
         11    1    4    4    0    0  0.29443266221E-01  0.49556866092E-02 -0.51915236506E-01  0.59890881259E-01  0.51100000000E-03 0. -1.
</event>
<event>
 8    1  0.1191842E+005  0.1043930E+01  0.7957747E-01            NaN
         13   -1    0    0    0    0  0.00000000000E+00  0.00000000000E+00  0.74505805969E-08  0.10566000000E+00  0.10566000000E+00 0.  1.
     999900   -1    0    0    0    0 -0.00000000000E+00 -0.00000000000E+00 -0.74505805969E-08  0.93827000000E+00  0.93827000000E+00 0. -1.
     999902    2    1    2    0    0  0.63812137032E-02  0.21572719091E-01 -0.43952092343E-02  0.10210079590E+01  0.10207506221E+01 0.  0.
     999903    2    3    3    0    0 -0.63225628622E-01 -0.72571147814E-01  0.83147256374E-01  0.12894749951E+00  0.21211783957E-01 0.  0.
         14    1    1    2    0    0 -0.63812137032E-02 -0.21572719091E-01  0.43952092343E-02  0.22922040955E-01  0.00000000000E+00 0. -1.
     999901    1    3    3    0    0  0.69606842325E-01  0.94143866905E-01 -0.87542465609E-01  0.89206045953E+00  0.88000000000E+00 0. -1.
        -11    1    4    4    0    0 -0.47161280839E-01 -0.63191819530E-01  0.59104573755E-01  0.98544427674E-01  0.51100000000E-03 0.  1.
         11    1    4    4    0    0 -0.16064347783E-01 -0.93793282838E-02  0.24042682620E-01  0.30403071840E-01  0.51100000000E-03 0. -1.
</event>
<event>
 8    1  0.1191842E+005  0.1043930E+01  0.7957747E-01            NaN
         13   -1    0    0    0    0  0.00000000000E+00  0.00000000000E+00  0.74505805969E-08  0.10566000000E+00  0.10566000000E+00 0.  1.
     999900   -1    0    0    0    0 -0.00000000000E+00 -0.00000000000E+00 -0.74505805969E-08  0.93827000000E+00  0.93827000000E+00 0.  1.
     999902    2    1    2    0    0 -0.29772415480E-02 -0.14012269989E-01  0.18740203875E-01  0.10203418055E+01  0.10200691139E+01 0.  0.
     999903    2    3    3    0    0 -0.28082646146E-01  0.11655853417E+00  0.46043553908E-01  0.12993488217E+00  0.19711363346E-01 0.  0.
         14    1    1    2    0    0  0.29772415480E-02  0.14012269989E-01 -0.18740203875E-01  0.23588194478E-01  0.00000000000E+00 0. -1.
     999901    1    3    3    0    0  0.25105404598E-01 -0.13057080416E+00 -0.27303350033E-01  0.89040692336E+00  0.88000000000E+00 0.  1.
        -11    1    4    4    0    0 -0.30648204141E-01  0.10696311143E+00  0.39701668301E-01  0.11813933812E+00  0.51100000000E-03 0.  1.
         11    1    4    4    0    0  0.25655579952E-02  0.95954227358E-02  0.63418856064E-02  0.11795544046E-01  0.51100000000E-03 0. -1.
</event>
<event>
 8    1  0.1191842E+005  0.1043930E+01  0.7957747E-01            NaN
         13   -1    0    0    0    0  0.00000000000E+00  0.00000000000E+00  0.74505805969E-08  0.10566000000E+00  0.10566000000E+00 0.  1.
     999900   -1    0    0    0    0 -0.00000000000E+00 -0.00000000000E+00 -0.74505805969E-08  0.93827000000E+00  0.93827000000E+00 0. -1.
     999902    2    1    2    0    0  0.98084268899E-02  0.10848472297E-01 -0.19137283824E-01  0.10198441074E+01  0.10195596467E+01 0.  0.
     999903    2    3    3    0    0 -0.74280336650E-02 -0.12628574234E+00  0.10166016998E-01  0.12857446706E+00  0.20610222588E-01 0.  0.
         14    1    1    2    0    0 -0.98084268899E-02 -0.10848472297E-01  0.19137283824E-01  0.24085892581E-01  0.00000000000E+00 0.  1.
     999901    1    3    3    0    0  0.17236460555E-01  0.13713421463E+00 -0.29303300823E-01  0.89126964036E+00  0.88000000000E+00 0.  1.
        -11    1    4    4    0    0 -0.10475490379E-03 -0.63086473371E-01  0.14734612609E-01  0.64786449399E-01  0.51100000000E-03 0. -1.
         11    1    4    4    0    0 -0.73232787613E-02 -0.63199268966E-01 -0.45685956104E-02  0.63788017656E-01  0.51100000000E-03 0.  1.
</event>
<event>
 8    1  0.1191842E+005  0.1043930E+01  0.7957747E-01            NaN
         13   -1    0    0    0    0  0.00000000000E+00  0.00000000000E+00  0.74505805969E-08  0.10566000000E+00  0.10566000000E+00 0. -1.
     999900   -1    0    0    0    0 -0.00000000000E+00 -0.00000000000E+00 -0.74505805969E-08  0.93827000000E+00  0.93827000000E+00 0.  1.
     999902    2    1    2    0    0  0.10038244383E-01  0.16436586837E-01 -0.13091406589E-01  0.10206423925E+01  0.10203766857E+01 0.  0.
     999903    2    3    3    0    0 -0.15347658555E-01 -0.12607947013E+00 -0.54362729577E-02  0.12878260999E+00  0.20586990085E-01 0.  0.
         14    1    1    2    0    0 -0.10038244383E-01 -0.16436586837E-01  0.13091406589E-01  0.23287607512E-01  0.00000000000E+00 0. -1.
     999901    1    3    3    0    0  0.25385902938E-01  0.14251605697E+00 -0.76551336309E-02  0.89185978250E+00  0.88000000000E+00 0. -1.
        -11    1    4    4    0    0 -0.65763470270E-02 -0.30564743607E-01 -0.97919917594E-02  0.32765776591E-01  0.51100000000E-03 0. -1.
         11    1    4    4    0    0 -0.87713115276E-02 -0.95514726526E-01  0.43557188017E-02  0.96016833402E-01  0.51100000000E-03 0.  1.
</event>
<event>
 8    1  0.1191842E+005  0.1043930E+01  0.7957747E-01            NaN
         13   -1    0    0    0    0  0.00000000000E+00  0.00000000000E+00  0.74505805969E-08  0.10566000000E+00  0.10566000000E+00 0.  1.
     999900   -1    0    0    0    0 -0.00000000000E+00 -0.00000000000E+00 -0.74505805969E-08  0.93827000000E+00  0.93827000000E+00 0. -1.
     999902    2    1    2    0    0  0.12623945185E-01 -0.14872845049E-01 -0.77608120628E-02  0.10229348645E+01  0.10227193854E+01 0.  0.
     999903    2    3    3    0    0 -0.97582644115E-01  0.48997094587E-01 -0.68992748142E-01  0.13165813331E+00  0.25510332428E-01 0.  0.
         14    1    1    2    0    0 -0.12623945185E-01  0.14872845049E-01  0.77608120628E-02  0.20995135526E-01  0.00000000000E+00 0.  1.
     999901    1    3    3    0    0  0.11020658930E+00 -0.63869939637E-01  0.61231936079E-01  0.89127673116E+00  0.88000000000E+00 0.  1.
        -11    1    4    4    0    0 -0.45152236655E-01  0.10263245844E-01 -0.21808079651E-01  0.51185077408E-01  0.51100000000E-03 0.  1.
         11    1    4    4    0    0 -0.52430407459E-01  0.38733848744E-01 -0.47184668491E-01  0.80473055904E-01  0.51100000000E-03 0. -1.
</event>
<event>
 8    1  0.1191842E+005  0.1043930E+01  0.7957747E-01            NaN
         13   -1    0    0    0    0  0.00000000000E+00  0.00000000000E+00  0.74505805969E-08  0.10566000000E+00  0.10566000000E+00 0.  1.
     999900   -1    0    0    0    0 -0.00000000000E+00 -0.00000000000E+00 -0.74505805969E-08  0.93827000000E+00  0.93827000000E+00 0.  1.
     999902    2    1    2    0    0  0.14061812692E-01 -0.63712467115E-03 -0.22216951028E-01  0.10176291746E+01  0.10172892428E+01 0.  0.
     999903    2    3    3    0    0  0.85306191947E-01  0.30102073014E-01  0.87778510518E-01  0.12739344098E+00  0.18459163329E-01 0.  0.
         14    1    1    2    0    0 -0.14061812692E-01  0.63712467115E-03  0.22216951028E-01  0.26300825405E-01  0.00000000000E+00 0.  1.
     999901    1    3    3    0    0 -0.71244379255E-01 -0.30739197685E-01 -0.10999546155E+00  0.89023573362E+00  0.88000000000E+00 0.  1.
        -11    1    4    4    0    0  0.15665260178E-01  0.13597634228E-01  0.20225706578E-01  0.28976479438E-01  0.51100000000E-03 0. -1.
         11    1    4    4    0    0  0.69640931769E-01  0.16504438786E-01  0.67552803940E-01  0.98416961539E-01  0.51100000000E-03 0.  1.
</event>
<event>
 8    1  0.1191842E+005  0.1043930E+01  0.7957747E-01            NaN
         13   -1    0    0    0    0  0.00000000000E+00  0.00000000000E+00  0.74505805969E-08  0.10566000000E+00  0.10566000000E+00 0. -1.
     999900   -1    0    0    0    0 -0.00000000000E+00 -0.00000000000E+00 -0.74505805969E-08  0.93827000000E+00  0.93827000000E+00 0.  1.
     999902    2    1    2    0    0 -0.16234199499E-01 -0.64555361785E-02 -0.14631575849E-01  0.10211417093E+01  0.10208874004E+01 0.  0.
     999903    2    3    3    0    0  0.71100957774E-01 -0.10808289598E+00 -0.19360870526E-02  0.13090762471E+00  0.19894702114E-01 0.  0.
         14    1    1    2    0    0  0.16234199499E-01  0.64555361785E-02  0.14631575849E-01  0.22788290689E-01  0.00000000000E+00 0. -1.
     999901    1    3    3    0    0 -0.87335157273E-01  0.10162735981E+00 -0.12695488796E-01  0.89023408461E+00  0.88000000000E+00 0. -1.
        -11    1    4    4    0    0  0.38488052562E-01 -0.63319139344E-01 -0.10575315633E-01  0.74851466379E-01  0.51100000000E-03 0. -1.
         11    1    4    4    0    0  0.32612905211E-01 -0.44763756640E-01  0.86392285802E-02  0.56056158327E-01  0.51100000000E-03 0.  1.
</event>
<event>
 8    1  0.1191842E+005  0.1043930E+01  0.7957747E-01            NaN
         13   -1    0    0    0    0  0.00000000000E+00  0.00000000000E+00  0.74505805969E-08  0.10566000000E+00  0.10566000000E+00 0.  1.
     999900   -1    0    0    0    0 -0.00000000000E+00 -0.00000000000E+00 -0.74505805969E-08  0.93827000000E+00  0.93827000000E+00 0. -1.
     999902    2    1    2    0    0 -0.23731566401E-01  0.33235808530E-02 -0.32624136794E-02  0.10197457742E+01  0.10194589581E+01 0.  0.
     999903    2    3    3    0    0  0.67152399982E-01 -0.88153037011E-01 -0.61709356810E-01  0.12842994236E+00  0.20144543166E-01 0.  0.
         14    1    1    2    0    0  0.23731566401E-01 -0.33235808530E-02  0.32624136794E-02  0.24184225780E-01  0.00000000000E+00 0.  1.
     999901    1    3    3    0    0 -0.90883966383E-01  0.91476617864E-01  0.58446943131E-01  0.89131583186E+00  0.88000000000E+00 0.  1.
        -11    1    4    4    0    0  0.10140173143E-01 -0.13569038605E-01 -0.18483228480E-01  0.25076538359E-01  0.51100000000E-03 0. -1.
         11    1    4    4    0    0  0.57012226839E-01 -0.74583998406E-01 -0.43226128330E-01  0.10335340400E+00  0.51100000000E-03 0.  1.
</event>
<event>
 8    1  0.1191842E+005  0.1043930E+01  0.7957747E-01            NaN
         13   -1    0    0    0    0  0.00000000000E+00  0.00000000000E+00  0.74505805969E-08  0.10566000000E+00  0.10566000000E+00 0.  1.
     999900   -1    0    0    0    0 -0.00000000000E+00 -0.00000000000E+00 -0.74505805969E-08  0.93827000000E+00  0.93827000000E+00 0. -1.
     999902    2    1    2    0    0  0.31694218027E-02  0.65500950989E-02 -0.22765023450E-01  0.10200303081E+01  0.10197502803E+01 0.  0.
     999903    2    3    3    0    0 -0.93969368632E-01 -0.68422397711E-01  0.51455075617E-01  0.12842196225E+00  0.18240307860E-01 0.  0.
         14    1    1    2    0    0 -0.31694218027E-02 -0.65500950989E-02  0.22765023450E-01  0.23899691903E-01  0.00000000000E+00 0.  1.
     999901    1    3    3    0    0  0.97138790435E-01  0.74972492810E-01 -0.74220099067E-01  0.89160834585E+00  0.88000000000E+00 0. -1.
        -11    1    4    4    0    0 -0.39409768307E-01 -0.21768534512E-01  0.12418503695E-01  0.46706308865E-01  0.51100000000E-03 0.  1.
         11    1    4    4    0    0 -0.54559600325E-01 -0.46653863199E-01  0.39036571923E-01  0.81715653381E-01  0.51100000000E-03 0. -1.
</event>
<event>
 8    1  0.1191842E+005  0.1043930E+01  0.7957747E-01            NaN
         13   -1    0    0    0    0  0.00000000000E+00  0.00000000000E+00  0.74505805969E-08  0.10566000000E+00  0.10566000000E+00 0.  1.
     999900   -1    0    0    0    0 -0.00000000000E+00 -0.00000000000E+00 -0.74505805969E-08  0.93827000000E+00  0.93827000000E+00 0. -1.
     999902    2    1    2    0    0  0.19217255516E-01  0.21898186467E-01  0.55611196903E-02  0.10142692594E+01  0.10138354753E+01 0.  0.
     999903    2    3    3    0    0 -0.86630497260E-01  0.71630691934E-01 -0.50280849173E-01  0.12477761001E+00  0.20136759511E-01 0.  0.
         14    1    1    2    0    0 -0.19217255516E-01 -0.21898186467E-01 -0.55611196903E-02  0.29660740590E-01  0.00000000000E+00 0.  1.
     999901    1    3    3    0    0  0.10584775278E+00 -0.49732505467E-01  0.55841968863E-01  0.88949164940E+00  0.88000000000E+00 0.  1.
        -11    1    4    4    0    0 -0.30329335612E-01  0.36099364167E-01 -0.26448790723E-01  0.54063225428E-01  0.51100000000E-03 0.  1.
         11    1    4    4    0    0 -0.56301161648E-01  0.35531327767E-01 -0.23832058450E-01  0.70714384582E-01  0.51100000000E-03 0. -1.
</event>
<event>
 8    1  0.1191842E+005  0.1043930E+01  0.7957747E-01            NaN
         13   -1    0    0    0    0  0.00000000000E+00  0.00000000000E+00  0.74505805969E-08  0.10566000000E+00  0.10566000000E+00 0. -1.
     999900   -1    0    0    0    0 -0.00000000000E+00 -0.00000000000E+00 -0.74505805969E-08  0.93827000000E+00  0.93827000000E+00 0. -1.
     999902    2    1    2    0    0 -0.55714464224E-02  0.21693994394E-01  0.75163345252E-02  0.10203044695E+01  0.10200309038E+01 0.  0.
     999903    2    3    3    0    0 -0.74014457318E-01  0.10543885026E+00  0.28113664002E-01  0.13344377207E+00  0.20527327254E-01 0.  0.
         14    1    1    2    0    0  0.55714464224E-02 -0.21693994394E-01 -0.75163345252E-02  0.23625530527E-01  0.00000000000E+00 0.  1.
     999901    1    3    3    0    0  0.68443010896E-01 -0.83744855862E-01 -0.20597329477E-01  0.88686069741E+00  0.88000000000E+00 0. -1.
        -11    1    4    4    0    0 -0.39377522648E-01  0.40508914078E-01  0.17129430463E-01  0.59035920580E-01  0.51100000000E-03 0.  1.
         11    1    4    4    0    0 -0.34636934670E-01  0.64929936177E-01  0.10984233539E-01  0.74407851486E-01  0.51100000000E-03 0. -1.
</event>
<event>
 8    1  0.1191842E+005  0.1043930E+01  0.7957747E-01            NaN
         13   -1    0    0    0    0  0.00000000000E+00  0.00000000000E+00  0.74505805969E-08  0.10566000000E+00  0.10566000000E+00 0. -1.
     999900   -1    0    0    0    0 -0.00000000000E+00 -0.00000000000E+00 -0.74505805969E-08  0.93827000000E+00  0.93827000000E+00 0. -1.
     999902    2    1    2    0    0 -0.18873823199E-01 -0.10684732685E-01 -0.10651387379E-01  0.10197672856E+01  0.10194809856E+01 0.  0.
     999903    2    3    3    0    0  0.10155933777E+00 -0.69549764777E-01  0.32076620340E-01  0.12859114087E+00  0.18849484613E-01 0.  0.
         14    1    1    2    0    0  0.18873823199E-01  0.10684732685E-01  0.10651387379E-01  0.24162714413E-01  0.00000000000E+00 0.  1.
     999901    1    3    3    0    0 -0.12043316097E+00  0.58865032092E-01 -0.42728007719E-01  0.89117614471E+00  0.88000000000E+00 0.  1.
        -11    1    4    4    0    0  0.60193883920E-01 -0.39678956288E-01  0.92347922603E-02  0.72686076676E-01  0.51100000000E-03 0.  1.
         11    1    4    4    0    0  0.41365453849E-01 -0.29870808489E-01  0.22841828080E-01  0.55905064197E-01  0.51100000000E-03 0. -1.
</event>
<event>
 8    1  0.1191842E+005  0.1043930E+01  0.7957747E-01            NaN
         13   -1    0    0    0    0  0.00000000000E+00  0.00000000000E+00  0.74505805969E-08  0.10566000000E+00  0.10566000000E+00 0. -1.
     999900   -1    0    0    0    0 -0.00000000000E+00 -0.00000000000E+00 -0.74505805969E-08  0.93827000000E+00  0.93827000000E+00 0. -1.
     999902    2    1    2    0    0 -0.16785408047E-01  0.16015893505E-01 -0.22488370520E-02  0.10206208594E+01  0.10203546553E+01 0.  0.
     999903    2    3    3    0    0 -0.43827565308E-01  0.10212178557E+00 -0.70530619431E-01  0.13337348423E+00  0.21545381160E-01 0.  0.
         14    1    1    2    0    0  0.16785408047E-01 -0.16015893505E-01  0.22488370520E-02  0.23309140614E-01  0.00000000000E+00 0.  1.
     999901    1    3    3    0    0  0.27042157261E-01 -0.86105892065E-01  0.68281782379E-01  0.88724737516E+00  0.88000000000E+00 0.  1.
        -11    1    4    4    0    0 -0.38725261991E-01  0.87983434983E-01 -0.51304897711E-01  0.10896414272E+00  0.51100000000E-03 0. -1.
         11    1    4    4    0    0 -0.51023033175E-02  0.14138350587E-01 -0.19225721720E-01  0.24409341514E-01  0.51100000000E-03 0.  1.
</event>
<event>
 8    1  0.1191842E+005  0.1043930E+01  0.7957747E-01            NaN
         13   -1    0    0    0    0  0.00000000000E+00  0.00000000000E+00  0.74505805969E-08  0.10566000000E+00  0.10566000000E+00 0.  1.
     999900   -1    0    0    0    0 -0.00000000000E+00 -0.00000000000E+00 -0.74505805969E-08  0.93827000000E+00  0.93827000000E+00 0.  1.
     999902    2    1    2    0    0 -0.15279136019E-01  0.61634682334E-02  0.19137256682E-01  0.10186777737E+01  0.10183647342E+01 0.  0.
     999903    2    3    3    0    0 -0.21215097317E-01 -0.10992437369E+00 -0.57849073033E-01  0.12770161376E+00  0.20681842773E-01 0.  0.
         14    1    1    2    0    0  0.15279136019E-01 -0.61634682334E-02 -0.19137256682E-01  0.25252226268E-01  0.00000000000E+00 0. -1.
     999901    1    3    3    0    0  0.59359612981E-02  0.11608784192E+00  0.76986329716E-01  0.89097615997E+00  0.88000000000E+00 0. -1.
        -11    1    4    4    0    0 -0.14772503585E-02 -0.34924887780E-01 -0.27262082357E-01  0.44332970919E-01  0.51100000000E-03 0.  1.
         11    1    4    4    0    0 -0.19737846959E-01 -0.74999485909E-01 -0.30586990677E-01  0.83368642839E-01  0.51100000000E-03 0. -1.
</event>
<event>
 8    1  0.1191842E+005  0.1043930E+01  0.7957747E-01            NaN
         13   -1    0    0    0    0  0.00000000000E+00  0.00000000000E+00  0.74505805969E-08  0.10566000000E+00  0.10566000000E+00 0. -1.
     999900   -1    0    0    0    0 -0.00000000000E+00 -0.00000000000E+00 -0.74505805969E-08  0.93827000000E+00  0.93827000000E+00 0. -1.
     999902    2    1    2    0    0 -0.56363169813E-02  0.99100535344E-02  0.19721516712E-01  0.10211502842E+01  0.10208961688E+01 0.  0.
     999903    2    3    3    0    0  0.60828750303E-01 -0.11863365320E-01  0.11645935985E+00  0.13309065939E+00  0.17591612222E-01 0.  0.
         14    1    1    2    0    0  0.56363169813E-02 -0.99100535344E-02 -0.19721516712E-01  0.22779715792E-01  0.00000000000E+00 0.  1.
     999901    1    3    3    0    0 -0.66465067285E-01  0.21773418855E-01 -0.96737843135E-01  0.88805962482E+00  0.88000000000E+00 0. -1.
        -11    1    4    4    0    0  0.39189739917E-01 -0.11672616752E-01  0.90360568856E-01  0.99183563263E-01  0.51100000000E-03 0. -1.
         11    1    4    4    0    0  0.21639010387E-01 -0.19074856840E-03  0.26098790991E-01  0.33907096126E-01  0.51100000000E-03 0.  1.
</event>
<event>
 8    1  0.1191842E+005  0.1043930E+01  0.7957747E-01            NaN
         13   -1    0    0    0    0  0.00000000000E+00  0.00000000000E+00  0.74505805969E-08  0.10566000000E+00  0.10566000000E+00 0.  1.
     999900   -1    0    0    0    0 -0.00000000000E+00 -0.00000000000E+00 -0.74505805969E-08  0.93827000000E+00  0.93827000000E+00 0.  1.
     999902    2    1    2    0    0 -0.21989613296E-01  0.10425120226E-01  0.47452920327E-04  0.10195942552E+01  0.10193037902E+01 0.  0.
     999903    2    3    3    0    0 -0.78482125892E-01  0.10440343235E+00  0.13272132550E-01  0.13269052912E+00  0.19264118060E-01 0.  0.
         14    1    1    2    0    0  0.21989613296E-01 -0.10425120226E-01 -0.47452920327E-04  0.24335744829E-01  0.00000000000E+00 0. -1.
     999901    1    3    3    0    0  0.56492512596E-01 -0.93978312126E-01 -0.13224679630E-01  0.88690372605E+00  0.88000000000E+00 0.  1.
        -11    1    4    4    0    0 -0.68256115894E-01  0.99476131549E-01  0.11484644003E-01  0.12118810286E+00  0.51100000000E-03 0. -1.
         11    1    4    4    0    0 -0.10226009998E-01  0.49273008027E-02  0.17874885466E-02  0.11502426265E-01  0.51100000000E-03 0.  1.
</event>
<event>
 8    1  0.1191842E+005  0.1043930E+01  0.7957747E-01            NaN
         13   -1    0    0    0    0  0.00000000000E+00  0.00000000000E+00  0.74505805969E-08  0.10566000000E+00  0.10566000000E+00 0. -1.
     999900   -1    0    0    0    0 -0.00000000000E+00 -0.00000000000E+00 -0.74505805969E-08  0.93827000000E+00  0.93827000000E+00 0.  1.
     999902    2    1    2    0    0 -0.10584486210E-01  0.35751104529E-03 -0.23228722576E-01  0.10184009437E+01  0.10180809150E+01 0.  0.
     999903    2    3    3    0    0  0.52878837767E-01 -0.67510176359E-01 -0.96276554191E-01  0.13049914611E+00  0.20175649990E-01 0.  0.
         14    1    1    2    0    0  0.10584486210E-01 -0.35751104529E-03  0.23228722576E-01  0.25529056289E-01  0.00000000000E+00 0. -1.
     999901    1    3    3    0    0 -0.63463323977E-01  0.67867687404E-01  0.73047831615E-01  0.88790179760E+00  0.88000000000E+00 0. -1.
        -11    1    4    4    0    0  0.13608925767E-01 -0.30355876895E-01 -0.45195070417E-01  0.56120741563E-01  0.51100000000E-03 0. -1.
         11    1    4    4    0    0  0.39269912000E-01 -0.37154299463E-01 -0.51081483774E-01  0.74378404545E-01  0.51100000000E-03 0.  1.
</event>
<event>
 8    1  0.1191842E+005  0.1043930E+01  0.7957747E-01            NaN
         13   -1    0    0    0    0  0.00000000000E+00  0.00000000000E+00  0.74505805969E-08  0.10566000000E+00  0.10566000000E+00 0. -1.
     999900   -1    0    0    0    0 -0.00000000000E+00 -0.00000000000E+00 -0.74505805969E-08  0.93827000000E+00  0.93827000000E+00 0. -1.
     999902    2    1    2    0    0 -0.69020138684E-02  0.21859060317E-01 -0.67829126891E-02  0.10200246822E+01  0.10197445210E+01 0.  0.
     999903    2    3    3    0    0 -0.35116239529E-01 -0.41898617522E-01  0.11486730710E+00  0.12892431751E+00  0.20936498686E-01 0.  0.
         14    1    1    2    0    0  0.69020138684E-02 -0.21859060317E-01  0.67829126891E-02  0.23905317775E-01  0.00000000000E+00 0. -1.
     999901    1    3    3    0    0  0.28214225661E-01  0.63757677839E-01 -0.12165021979E+00  0.89110036471E+00  0.88000000000E+00 0. -1.
        -11    1    4    4    0    0 -0.80957476250E-02  0.11724007275E-03  0.22416066284E-01  0.23838960202E-01  0.51100000000E-03 0. -1.
         11    1    4    4    0    0 -0.27020491904E-01 -0.42015857595E-01  0.92451240816E-01  0.10508535731E+00  0.51100000000E-03 0.  1.
</event>
<event>
 7    1  0.1191842E+005  0.1043930E+01  0.7957747E-01            NaN
         13   -1    0    0    0    0  0.00000000000E+00  0.00000000000E+00  0.74505805969E-08  0.10566000000E+00  0.10566000000E+00 0. -1.
     999900   -1    0    0    0    0 -0.00000000000E+00 -0.00000000000E+00 -0.74505805969E-08  0.93827000000E+00  0.93827000000E+00 0. -1.
     999903    2    1    2    0    0  0.75538208963E-01 -0.54238269941E-01 -0.23229308949E-01  0.96729151424E-01  0.13004499276E-01 0.  0.
         14    1    1    2    0    0  0.46049699566E-01  0.33524775434E-01 -0.10678138265E-01  0.57952636134E-01  0.00000000000E+00 0.  1.
     999901    1    1    2    0    0 -0.12158790853E+00  0.20713494506E-01  0.33907447214E-01  0.88924821244E+00  0.88000000000E+00 0. -1.
        -11    1    3    3    0    0  0.19638109595E-01 -0.75071396760E-02 -0.56645831531E-02  0.21779832825E-01  0.51100000000E-03 0.  1.
         11    1    3    3    0    0  0.55900099368E-01 -0.46731130265E-01 -0.17564725796E-01  0.74949318599E-01  0.51100000000E-03 0. -1.
</event>
<event>
 8    1  0.1191842E+005  0.1043930E+01  0.7957747E-01            NaN
         13   -1    0    0    0    0  0.00000000000E+00  0.00000000000E+00  0.74505805969E-08  0.10566000000E+00  0.10566000000E+00 0. -1.
     999900   -1    0    0    0    0 -0.00000000000E+00 -0.00000000000E+00 -0.74505805969E-08  0.93827000000E+00  0.93827000000E+00 0.  1.
     999902    2    1    2    0    0  0.47639847986E-03  0.22592358179E-01 -0.86626078687E-02  0.10197291244E+01  0.10194419085E+01 0.  0.
     999903    2    3    3    0    0 -0.11617088211E+00 -0.15405421292E-01  0.49872984992E-01  0.12929280725E+00  0.22278117509E-01 0.  0.
         14    1    1    2    0    0 -0.47639847986E-03 -0.22592358179E-01  0.86626078687E-02  0.24200875577E-01  0.00000000000E+00 0. -1.
     999901    1    3    3    0    0  0.11664728059E+00  0.37997779472E-01 -0.58535592861E-01  0.89043631718E+00  0.88000000000E+00 0.  1.
        -11    1    4    4    0    0 -0.79261635377E-01 -0.25993831965E-02  0.40785091859E-01  0.89178744522E-01  0.51100000000E-03 0.  1.
         11    1    4    4    0    0 -0.36909246728E-01 -0.12806038096E-01  0.90878931332E-02  0.40114062726E-01  0.51100000000E-03 0. -1.
</event>
<event>
 8    1  0.1191842E+005  0.1043930E+01  0.7957747E-01            NaN
         13   -1    0    0    0    0  0.00000000000E+00  0.00000000000E+00  0.74505805969E-08  0.10566000000E+00  0.10566000000E+00 0.  1.
     999900   -1    0    0    0    0 -0.00000000000E+00 -0.00000000000E+00 -0.74505805969E-08  0.93827000000E+00  0.93827000000E+00 0. -1.
     999902    2    1    2    0    0  0.52399882395E-02  0.10302165304E-01  0.20253559437E-01  0.10206105069E+01  0.10203440636E+01 0.  0.
     999903    2    3    3    0    0 -0.23713518516E-02  0.13005417552E+00 -0.96097358741E-02  0.13196530617E+00  0.20069457606E-01 0.  0.
         14    1    1    2    0    0 -0.52399882395E-02 -0.10302165304E-01 -0.20253559437E-01  0.23319493060E-01  0.00000000000E+00 0. -1.
     999901    1    3    3    0    0  0.76113400911E-02 -0.11975201022E+00  0.29863295311E-01  0.88864520077E+00  0.88000000000E+00 0.  1.
        -11    1    4    4    0    0 -0.80230264571E-04  0.17860815242E-01  0.55908860941E-02  0.18722560891E-01  0.51100000000E-03 0.  1.
         11    1    4    4    0    0 -0.22911215871E-02  0.11219336028E+00 -0.15200621968E-01  0.11324274528E+00  0.51100000000E-03 0. -1.
</event>
<event>
 8    1  0.1191842E+005  0.1043930E+01  0.7957747E-01            NaN
         13   -1    0    0    0    0  0.00000000000E+00  0.00000000000E+00  0.74505805969E-08  0.10566000000E+00  0.10566000000E+00 0.  1.
     999900   -1    0    0    0    0 -0.00000000000E+00 -0.00000000000E+00 -0.74505805969E-08  0.93827000000E+00  0.93827000000E+00 0.  1.
     999902    2    1    2    0    0 -0.84157890573E-02  0.91293563813E-04  0.22001674106E-01  0.10203735252E+01  0.10201015751E+01 0.  0.
     999903    2    3    3    0    0 -0.24188225677E-01  0.86701933021E-01 -0.87015242206E-01  0.12928718785E+00  0.32268081995E-01 0.  0.
         14    1    1    2    0    0  0.84157890573E-02 -0.91293563813E-04 -0.22001674106E-01  0.23556474767E-01  0.00000000000E+00 0. -1.
     999901    1    3    3    0    0  0.15772436620E-01 -0.86610639457E-01  0.10901691631E+00  0.89108633738E+00  0.88000000000E+00 0. -1.
        -11    1    4    4    0    0 -0.11744327288E-01  0.50883359465E-01 -0.70961628333E-01  0.88107090013E-01  0.51100000000E-03 0. -1.
         11    1    4    4    0    0 -0.12443898389E-01  0.35818573556E-01 -0.16053613874E-01  0.41180097840E-01  0.51100000000E-03 0.  1.
</event>
<event>
 7    1  0.1191842E+005  0.1043930E+01  0.7957747E-01            NaN
         13   -1    0    0    0    0  0.00000000000E+00  0.00000000000E+00  0.74505805969E-08  0.10566000000E+00  0.10566000000E+00 0.  1.
     999900   -1    0    0    0    0 -0.00000000000E+00 -0.00000000000E+00 -0.74505805969E-08  0.93827000000E+00  0.93827000000E+00 0. -1.
     999903    2    1    2    0    0  0.50700412330E-01  0.16076119682E-01 -0.58221588289E-01  0.81299215199E-01  0.19769562832E-01 0.  0.
         14    1    1    2    0    0 -0.76629389683E-01 -0.52129491014E-03  0.28021411778E-01  0.81593716851E-01  0.00000000000E+00 0. -1.
     999901    1    1    2    0    0  0.25928977353E-01 -0.15554824772E-01  0.30200176511E-01  0.88103706795E+00  0.88000000000E+00 0.  1.
        -11    1    3    3    0    0  0.42070423883E-01  0.51246145639E-02 -0.47795164800E-01  0.63881305085E-01  0.51100000000E-03 0. -1.
         11    1    3    3    0    0  0.86299884464E-02  0.10951505118E-01 -0.10426423489E-01  0.17417910113E-01  0.51100000000E-03 0.  1.
</event>
<event>
 8    1  0.1191842E+005  0.1043930E+01  0.7957747E-01            NaN
         13   -1    0    0    0    0  0.00000000000E+00  0.00000000000E+00  0.74505805969E-08  0.10566000000E+00  0.10566000000E+00 0. -1.
     999900   -1    0    0    0    0 -0.00000000000E+00 -0.00000000000E+00 -0.74505805969E-08  0.93827000000E+00  0.93827000000E+00 0. -1.
     999902    2    1    2    0    0  0.88556737168E-02 -0.13601738551E-01  0.17540017561E-01  0.10200326683E+01  0.10197526964E+01 0.  0.
     999903    2    3    3    0    0  0.29613766922E-01  0.12393571722E+00 -0.75847512411E-02  0.12875341674E+00  0.16818938005E-01 0.  0.
         14    1    1    2    0    0 -0.88556737168E-02  0.13601738551E-01 -0.17540017561E-01  0.23897331748E-01  0.00000000000E+00 0.  1.
     999901    1    3    3    0    0 -0.20758093205E-01 -0.13753745577E+00  0.25124768803E-01  0.89127925152E+00  0.88000000000E+00 0.  1.
        -11    1    4    4    0    0  0.53414213287E-02  0.57380868660E-01 -0.15462630602E-02  0.57651946371E-01  0.51100000000E-03 0. -1.
         11    1    4    4    0    0  0.24272345593E-01  0.66554848562E-01 -0.60384881809E-02  0.71101470366E-01  0.51100000000E-03 0.  1.
</event>
<event>
 8    1  0.1191842E+005  0.1043930E+01  0.7957747E-01            NaN
         13   -1    0    0    0    0  0.00000000000E+00  0.00000000000E+00  0.74505805969E-08  0.10566000000E+00  0.10566000000E+00 0.  1.
     999900   -1    0    0    0    0 -0.00000000000E+00 -0.00000000000E+00 -0.74505805969E-08  0.93827000000E+00  0.93827000000E+00 0.  1.
     999902    2    1    2    0    0  0.13675917322E-01  0.19068495137E-01  0.42707231653E-02  0.10200788512E+01  0.10197999732E+01 0.  0.
     999903    2    3    3    0    0 -0.28133386388E-01  0.10130562288E+00 -0.76632151327E-01  0.13156535209E+00  0.19561150170E-01 0.  0.
         14    1    1    2    0    0 -0.13675917322E-01 -0.19068495137E-01 -0.42707231653E-02  0.23851148771E-01  0.00000000000E+00 0. -1.
     999901    1    3    3    0    0  0.41809303710E-01 -0.82237127743E-01  0.80902874492E-01  0.88851349914E+00  0.88000000000E+00 0.  1.
        -11    1    4    4    0    0 -0.21797524959E-01  0.94410361895E-01 -0.73701581870E-01  0.12174002143E+00  0.51100000000E-03 0. -1.
         11    1    4    4    0    0 -0.63358614295E-02  0.68952609846E-02 -0.29305694565E-02  0.98253306529E-02  0.51100000000E-03 0.  1.
</event>
<event>
 8    1  0.1191842E+005  0.1043930E+01  0.7957747E-01            NaN
         13   -1    0    0    0    0  0.00000000000E+00  0.00000000000E+00  0.74505805969E-08  0.10566000000E+00  0.10566000000E+00 0. -1.
     999900   -1    0    0    0    0 -0.00000000000E+00 -0.00000000000E+00 -0.74505805969E-08  0.93827000000E+00  0.93827000000E+00 0. -1.
     999902    2    1    2    0    0 -0.77306839793E-02 -0.20284332635E-01 -0.75062842525E-02  0.10209612837E+01  0.10207028857E+01 0.  0.
     999903    2    3    3    0    0  0.11288073280E+00 -0.33850236694E-01 -0.54738770461E-01  0.13137595594E+00  0.19375511471E-01 0.  0.
         14    1    1    2    0    0  0.77306839793E-02  0.20284332635E-01  0.75062842525E-02  0.22968716301E-01  0.00000000000E+00 0. -1.
     999901    1    3    3    0    0 -0.12061141678E+00  0.13565904059E-01  0.47232486209E-01  0.88958532776E+00  0.88000000000E+00 0.  1.
        -11    1    4    4    0    0  0.44879991618E-01 -0.19938304828E-01 -0.14795621036E-01  0.51292505982E-01  0.51100000000E-03 0.  1.
         11    1    4    4    0    0  0.68000741186E-01 -0.13911931866E-01 -0.39943149426E-01  0.80083449958E-01  0.51100000000E-03 0. -1.
</event>
<event>
 8    1  0.1191842E+005  0.1043930E+01  0.7957747E-01            NaN
         13   -1    0    0    0    0  0.00000000000E+00  0.00000000000E+00  0.74505805969E-08  0.10566000000E+00  0.10566000000E+00 0. -1.
     999900   -1    0    0    0    0 -0.00000000000E+00 -0.00000000000E+00 -0.74505805969E-08  0.93827000000E+00  0.93827000000E+00 0.  1.
     999902    2    1    2    0    0 -0.10902666085E-01 -0.19477163979E-01 -0.61932086990E-02  0.10207657198E+01  0.10205028519E+01 0.  0.
     999903    2    3    3    0    0 -0.73490150494E-01  0.10437687711E+00 -0.14675311629E-01  0.12985104217E+00  0.18724147150E-01 0.  0.
         14    1    1    2    0    0  0.10902666085E-01  0.19477163979E-01  0.61932086990E-02  0.23164280227E-01  0.00000000000E+00 0.  1.
     999901    1    3    3    0    0  0.62587484409E-01 -0.12385404109E+00  0.84821029303E-02  0.89091467760E+00  0.88000000000E+00 0. -1.
        -11    1    4    4    0    0 -0.33112309112E-01  0.33397713923E-01 -0.94174368486E-03  0.47042324689E-01  0.51100000000E-03 0.  1.
         11    1    4    4    0    0 -0.40377841382E-01  0.70979163186E-01 -0.13733567944E-01  0.82808717481E-01  0.51100000000E-03 0. -1.
</event>
<event>
 8    1  0.1191842E+005  0.1043930E+01  0.7957747E-01            NaN
         13   -1    0    0    0    0  0.00000000000E+00  0.00000000000E+00  0.74505805969E-08  0.10566000000E+00  0.10566000000E+00 0. -1.
     999900   -1    0    0    0    0 -0.00000000000E+00 -0.00000000000E+00 -0.74505805969E-08  0.93827000000E+00  0.93827000000E+00 0.  1.
     999902    2    1    2    0    0 -0.22208071780E-01 -0.22731747495E-01  0.70226505619E-02  0.10113839032E+01  0.10108601047E+01 0.  0.
     999903    2    3    3    0    0  0.77715831692E-01 -0.38980921350E-01  0.83505561090E-01  0.12228410129E+00  0.20517309070E-01 0.  0.
         14    1    1    2    0    0  0.22208071780E-01  0.22731747495E-01 -0.70226505619E-02  0.32546096806E-01  0.00000000000E+00 0.  1.
     999901    1    3    3    0    0 -0.99923903472E-01  0.16249173855E-01 -0.76482910528E-01  0.88909980190E+00  0.88000000000E+00 0.  1.
        -11    1    4    4    0    0  0.34912534104E-01 -0.15056942068E-01  0.50325734643E-01  0.63075646889E-01  0.51100000000E-03 0.  1.
         11    1    4    4    0    0  0.42803297588E-01 -0.23923979281E-01  0.33179826447E-01  0.59208454406E-01  0.51100000000E-03 0. -1.
</event>
<event>
 8    1  0.1191842E+005  0.1043930E+01  0.7957747E-01            NaN
         13   -1    0    0    0    0  0.00000000000E+00  0.00000000000E+00  0.74505805969E-08  0.10566000000E+00  0.10566000000E+00 0. -1.
     999900   -1    0    0    0    0 -0.00000000000E+00 -0.00000000000E+00 -0.74505805969E-08  0.93827000000E+00  0.93827000000E+00 0.  1.
     999902    2    1    2    0    0 -0.19378975788E-01 -0.77644946421E-02  0.12104802306E-01  0.10197978986E+01  0.10195123323E+01 0.  0.
     999903    2    3    3    0    0 -0.83273516310E-01 -0.65147968627E-01 -0.75150512337E-01  0.13132231348E+00  0.20474720494E-01 0.  0.
         14    1    1    2    0    0  0.19378975788E-01  0.77644946421E-02 -0.12104802306E-01  0.24132101411E-01  0.00000000000E+00 0.  1.
     999901    1    3    3    0    0  0.63894540522E-01  0.57383473985E-01  0.87255314643E-01  0.88847558511E+00  0.88000000000E+00 0. -1.
        -11    1    4    4    0    0 -0.63543075371E-01 -0.59741925824E-01 -0.61605925066E-01  0.10678188635E+00  0.51100000000E-03 0. -1.
         11    1    4    4    0    0 -0.19730440939E-01 -0.54060428029E-02 -0.13544587271E-01  0.24540427131E-01  0.51100000000E-03 0.  1.
</event>
<event>
 8    1  0.1191842E+005  0.1043930E+01  0.7957747E-01            NaN
         13   -1    0    0    0    0  0.00000000000E+00  0.00000000000E+00  0.74505805969E-08  0.10566000000E+00  0.10566000000E+00 0. -1.
     999900   -1    0    0    0    0 -0.00000000000E+00 -0.00000000000E+00 -0.74505805969E-08  0.93827000000E+00  0.93827000000E+00 0.  1.
     999902    2    1    2    0    0 -0.23369794193E-01 -0.10930729701E-02 -0.22976013939E-02  0.10204221064E+01  0.10201512898E+01 0.  0.
     999903    2    3    3    0    0 -0.12058290435E+00  0.46777813127E-01  0.26255534364E-01  0.13331597291E+00  0.18851921026E-01 0.  0.
         14    1    1    2    0    0  0.23369794193E-01  0.10930729701E-02  0.22976013939E-02  0.23507893596E-01  0.00000000000E+00 0. -1.
     999901    1    3    3    0    0  0.97213110154E-01 -0.47870886098E-01 -0.28553135758E-01  0.88710613349E+00  0.88000000000E+00 0. -1.
        -11    1    4    4    0    0 -0.94561771133E-01  0.40212536011E-01  0.27730265714E-01  0.10643404234E+00  0.51100000000E-03 0.  1.
         11    1    4    4    0    0 -0.26021133214E-01  0.65652771167E-02 -0.14747313498E-02  0.26881930565E-01  0.51100000000E-03 0. -1.
</event>
<event>
 8    1  0.1191842E+005  0.1043930E+01  0.7957747E-01            NaN
         13   -1    0    0    0    0  0.00000000000E+00  0.00000000000E+00  0.74505805969E-08  0.10566000000E+00  0.10566000000E+00 0. -1.
     999900   -1    0    0    0    0 -0.00000000000E+00 -0.00000000000E+00 -0.74505805969E-08  0.93827000000E+00  0.93827000000E+00 0.  1.
     999902    2    1    2    0    0  0.61723656041E-02  0.17607805403E-01 -0.15292182891E-01  0.10198056603E+01  0.10195202798E+01 0.  0.
     999903    2    3    3    0    0  0.74511889012E-01  0.78313354301E-01  0.70961229250E-01  0.13087647008E+00  0.20202754702E-01 0.  0.
         14    1    1    2    0    0 -0.61723656041E-02 -0.17607805403E-01  0.15292182891E-01  0.24124339697E-01  0.00000000000E+00 0. -1.
     999901    1    3    3    0    0 -0.68339523408E-01 -0.60705548898E-01 -0.86253412141E-01  0.88892919022E+00  0.88000000000E+00 0.  1.
        -11    1    4    4    0    0  0.43220177337E-01  0.57117794834E-01  0.52517057853E-01  0.88818515537E-01  0.51100000000E-03 0.  1.
         11    1    4    4    0    0  0.31291711675E-01  0.21195559467E-01  0.18444171397E-01  0.42057954541E-01  0.51100000000E-03 0. -1.
</event>
<event>
 8    1  0.1191842E+005  0.1043930E+01  0.7957747E-01            NaN
         13   -1    0    0    0    0  0.00000000000E+00  0.00000000000E+00  0.74505805969E-08  0.10566000000E+00  0.10566000000E+00 0. -1.
     999900   -1    0    0    0    0 -0.00000000000E+00 -0.00000000000E+00 -0.74505805969E-08  0.93827000000E+00  0.93827000000E+00 0. -1.
     999902    2    1    2    0    0  0.10680699131E-01  0.16422249558E-01 -0.17723618623E-01  0.10175123114E+01  0.10171693121E+01 0.  0.
     999903    2    3    3    0    0  0.12552320863E+00 -0.20493711017E-01 -0.11457701759E-01  0.12926074125E+00  0.20024789716E-01 0.  0.
         14    1    1    2    0    0 -0.10680699131E-01 -0.16422249558E-01  0.17723618623E-01  0.26417688612E-01  0.00000000000E+00 0. -1.
     999901    1    3    3    0    0 -0.11484250950E+00  0.36915960576E-01 -0.62659168645E-02  0.88825157014E+00  0.88000000000E+00 0.  1.
        -11    1    4    4    0    0  0.71343395949E-01 -0.97289151121E-02  0.33037137922E-02  0.72081256791E-01  0.51100000000E-03 0.  1.
         11    1    4    4    0    0  0.54179812683E-01 -0.10764795905E-01 -0.14761415551E-01  0.57179484461E-01  0.51100000000E-03 0. -1.
</event>
<event>
 8    1  0.1191842E+005  0.1043930E+01  0.7957747E-01            NaN
         13   -1    0    0    0    0  0.00000000000E+00  0.00000000000E+00  0.74505805969E-08  0.10566000000E+00  0.10566000000E+00 0.  1.
     999900   -1    0    0    0    0 -0.00000000000E+00 -0.00000000000E+00 -0.74505805969E-08  0.93827000000E+00  0.93827000000E+00 0.  1.
     999902    2    1    2    0    0  0.14343084133E-01 -0.18756834344E-01 -0.31469955876E-02  0.10201088649E+01  0.10198306966E+01 0.  0.
     999903    2    3    3    0    0  0.12837156783E-01  0.10669920535E+00 -0.67180869849E-01  0.12890640597E+00  0.23538887179E-01 0.  0.
         14    1    1    2    0    0 -0.14343084133E-01  0.18756834344E-01  0.31469955876E-02  0.23821135118E-01  0.00000000000E+00 0. -1.
     999901    1    3    3    0    0  0.15059273506E-02 -0.12545603970E+00  0.64033874261E-01  0.89120245891E+00  0.88000000000E+00 0. -1.
        -11    1    4    4    0    0 -0.81394729923E-03  0.19674231177E-01 -0.30226506079E-02  0.19928256831E-01  0.51100000000E-03 0. -1.
         11    1    4    4    0    0  0.13651104082E-01  0.87024974177E-01 -0.64158219241E-01  0.10897814914E+00  0.51100000000E-03 0.  1.
</event>
<event>
 8    1  0.1191842E+005  0.1043930E+01  0.7957747E-01            NaN
         13   -1    0    0    0    0  0.00000000000E+00  0.00000000000E+00  0.74505805969E-08  0.10566000000E+00  0.10566000000E+00 0.  1.
     999900   -1    0    0    0    0 -0.00000000000E+00 -0.00000000000E+00 -0.74505805969E-08  0.93827000000E+00  0.93827000000E+00 0. -1.
     999902    2    1    2    0    0  0.78219600594E-02  0.18968005903E-01  0.11554727318E-01  0.10203826003E+01  0.10201108621E+01 0.  0.
     999903    2    3    3    0    0  0.11196496293E+00  0.46586023356E-01 -0.47644192380E-01  0.13183714173E+00  0.20115973118E-01 0.  0.
         14    1    1    2    0    0 -0.78219600594E-02 -0.18968005903E-01 -0.11554727318E-01  0.23547399655E-01  0.00000000000E+00 0. -1.
     999901    1    3    3    0    0 -0.10414300287E+00 -0.27618017453E-01  0.59198919698E-01  0.88854545862E+00  0.88000000000E+00 0.  1.
        -11    1    4    4    0    0  0.78289404826E-01  0.42015133892E-01 -0.32235695594E-01  0.94519329110E-01  0.51100000000E-03 0.  1.
         11    1    4    4    0    0  0.33675558108E-01  0.45708894641E-02 -0.15408496787E-01  0.37317812618E-01  0.51100000000E-03 0. -1.
</event>
<event>
 8    1  0.1191842E+005  0.1043930E+01  0.7957747E-01            NaN
         13   -1    0    0    0    0  0.00000000000E+00  0.00000000000E+00  0.74505805969E-08  0.10566000000E+00  0.10566000000E+00 0.  1.
     999900   -1    0    0    0    0 -0.00000000000E+00 -0.00000000000E+00 -0.74505805969E-08  0.93827000000E+00  0.93827000000E+00 0. -1.
     999902    2    1    2    0    0  0.79197612976E-02 -0.22274822875E-02 -0.22591767969E-01  0.10198868663E+01  0.10196034268E+01 0.  0.
     999903    2    3    3    0    0 -0.76353657824E-01 -0.10150786063E+00 -0.19007775873E-01  0.13029625954E+00  0.21956613448E-01 0.  0.
         14    1    1    2    0    0 -0.79197612976E-02  0.22274822875E-02  0.22591767969E-01  0.24043133662E-01  0.00000000000E+00 0.  1.
     999901    1    3    3    0    0  0.84273419121E-01  0.99280378347E-01 -0.35839920956E-02  0.88959060679E+00  0.88000000000E+00 0. -1.
        -11    1    4    4    0    0 -0.48193830722E-01 -0.56870542395E-01 -0.21099432519E-01  0.77474841630E-01  0.51100000000E-03 0. -1.
         11    1    4    4    0    0 -0.28159827102E-01 -0.44637318239E-01  0.20916566464E-02  0.52821417915E-01  0.51100000000E-03 0.  1.
</event>
<event>
 8    1  0.1191842E+005  0.1043930E+01  0.7957747E-01            NaN
         13   -1    0    0    0    0  0.00000000000E+00  0.00000000000E+00  0.74505805969E-08  0.10566000000E+00  0.10566000000E+00 0.  1.
     999900   -1    0    0    0    0 -0.00000000000E+00 -0.00000000000E+00 -0.74505805969E-08  0.93827000000E+00  0.93827000000E+00 0.  1.
     999902    2    1    2    0    0  0.26201826556E-02 -0.13777198108E-01  0.17130795266E-01  0.10217908787E+01  0.10215510066E+01 0.  0.
     999903    2    3    3    0    0 -0.51153945111E-01 -0.45728703859E-01 -0.10926152702E+00  0.13056275154E+00  0.20017750740E-01 0.  0.
         14    1    1    2    0    0 -0.26201826556E-02  0.13777198108E-01 -0.17130795266E-01  0.22139121286E-01  0.00000000000E+00 0. -1.
     999901    1    3    3    0    0  0.53774127766E-01  0.31951505751E-01  0.12639232229E+00  0.89122812718E+00  0.88000000000E+00 0. -1.
        -11    1    4    4    0    0 -0.14473167079E-01 -0.13360938309E-01 -0.16538438863E-01  0.25724857994E-01  0.51100000000E-03 0.  1.
         11    1    4    4    0    0 -0.36680778032E-01 -0.32367765550E-01 -0.92723088160E-01  0.10483789354E+00  0.51100000000E-03 0. -1.
</event>
<event>
 8    1  0.1191842E+005  0.1043930E+01  0.7957747E-01            NaN
         13   -1    0    0    0    0  0.00000000000E+00  0.00000000000E+00  0.74505805969E-08  0.10566000000E+00  0.10566000000E+00 0.  1.
     999900   -1    0    0    0    0 -0.00000000000E+00 -0.00000000000E+00 -0.74505805969E-08  0.93827000000E+00  0.93827000000E+00 0.  1.
     999902    2    1    2    0    0 -0.71354005050E-02  0.21873478705E-01  0.55689872187E-02  0.10202577245E+01  0.10199830624E+01 0.  0.
     999903    2    3    3    0    0  0.78965872695E-01  0.37742395701E-01 -0.94689841623E-01  0.13024812645E+00  0.18393228467E-01 0.  0.
         14    1    1    2    0    0  0.71354005050E-02 -0.21873478705E-01 -0.55689872187E-02  0.23672275549E-01  0.00000000000E+00 0. -1.
     999901    1    3    3    0    0 -0.86101273200E-01 -0.15868916996E-01  0.10025882884E+00  0.89000959800E+00  0.88000000000E+00 0. -1.
        -11    1    4    4    0    0  0.18232467291E-01  0.11197148354E-01 -0.35133760291E-01  0.41139290562E-01  0.51100000000E-03 0. -1.
         11    1    4    4    0    0  0.60733405404E-01  0.26545247346E-01 -0.59556081332E-01  0.89108835888E-01  0.51100000000E-03 0.  1.
</event>
<event>
 8    1  0.1191842E+005  0.1043930E+01  0.7957747E-01            NaN
         13   -1    0    0    0    0  0.00000000000E+00  0.00000000000E+00  0.74505805969E-08  0.10566000000E+00  0.10566000000E+00 0. -1.
     999900   -1    0    0    0    0 -0.00000000000E+00 -0.00000000000E+00 -0.74505805969E-08  0.93827000000E+00  0.93827000000E+00 0. -1.
     999902    2    1    2    0    0 -0.13974694269E-01  0.17336021646E-01 -0.87345879293E-02  0.10200109124E+01  0.10197304245E+01 0.  0.
     999903    2    3    3    0    0  0.74722821170E-01 -0.92976461834E-01  0.39845175733E-01  0.12737656020E+00  0.20224430756E-01 0.  0.
         14    1    1    2    0    0  0.13974694269E-01 -0.17336021646E-01  0.87345879293E-02  0.23919087623E-01  0.00000000000E+00 0.  1.
     999901    1    3    3    0    0 -0.88697515439E-01  0.11031248348E+00 -0.48579763662E-01  0.89263435218E+00  0.88000000000E+00 0.  1.
        -11    1    4    4    0    0  0.45667967704E-01 -0.65514051476E-01  0.18194961925E-01  0.81908314447E-01  0.51100000000E-03 0. -1.
         11    1    4    4    0    0  0.29054853465E-01 -0.27462410358E-01  0.21650213808E-01  0.45468245749E-01  0.51100000000E-03 0.  1.
</event>
<event>
 8    1  0.1191842E+005  0.1043930E+01  0.7957747E-01            NaN
         13   -1    0    0    0    0  0.00000000000E+00  0.00000000000E+00  0.74505805969E-08  0.10566000000E+00  0.10566000000E+00 0.  1.
     999900   -1    0    0    0    0 -0.00000000000E+00 -0.00000000000E+00 -0.74505805969E-08  0.93827000000E+00  0.93827000000E+00 0. -1.
     999902    2    1    2    0    0  0.12995869076E-01 -0.13826081804E-01 -0.13438215295E-01  0.10206783596E+01  0.10204134824E+01 0.  0.
     999903    2    3    3    0    0  0.74486332830E-01  0.10211985411E+00  0.23672717196E-01  0.13017189780E+00  0.20190271299E-01 0.  0.
         14    1    1    2    0    0 -0.12995869076E-01  0.13826081804E-01  0.13438215295E-01  0.23251640403E-01  0.00000000000E+00 0.  1.
     999901    1    3    3    0    0 -0.61490463754E-01 -0.11594593592E+00 -0.37110932492E-01  0.89050646180E+00  0.88000000000E+00 0.  1.
        -11    1    4    4    0    0  0.62012496571E-02  0.61092778827E-02  0.69951758034E-02  0.11179104574E-01  0.51100000000E-03 0. -1.
         11    1    4    4    0    0  0.68285083173E-01  0.96010576232E-01  0.16677541393E-01  0.11899279323E+00  0.51100000000E-03 0.  1.
</event>
<event>
 8    1  0.1191842E+005  0.1043930E+01  0.7957747E-01            NaN
         13   -1    0    0    0    0  0.00000000000E+00  0.00000000000E+00  0.74505805969E-08  0.10566000000E+00  0.10566000000E+00 0.  1.
     999900   -1    0    0    0    0 -0.00000000000E+00 -0.00000000000E+00 -0.74505805969E-08  0.93827000000E+00  0.93827000000E+00 0.  1.
     999902    2    1    2    0    0  0.15786437697E-01 -0.10117818334E-01 -0.13303123334E-01  0.10209396770E+01  0.10206807870E+01 0.  0.
     999903    2    3    3    0    0 -0.10336770941E+00  0.43787707312E-01  0.58697531450E-01  0.12836608853E+00  0.20741403663E-01 0.  0.
         14    1    1    2    0    0 -0.15786437697E-01  0.10117818334E-01  0.13303123334E-01  0.22990323039E-01  0.00000000000E+00 0.  1.
     999901    1    3    3    0    0  0.11915414711E+00 -0.53905525646E-01 -0.72000654784E-01  0.89257358843E+00  0.88000000000E+00 0.  1.
        -11    1    4    4    0    0 -0.38069883185E-01  0.25828760374E-01  0.18336980156E-01  0.49527233220E-01  0.51100000000E-03 0.  1.
         11    1    4    4    0    0 -0.65297826229E-01  0.17958946937E-01  0.40360551294E-01  0.78838855313E-01  0.51100000000E-03 0. -1.
</event>
<event>
 8    1  0.1191842E+005  0.1043930E+01  0.7957747E-01            NaN
         13   -1    0    0    0    0  0.00000000000E+00  0.00000000000E+00  0.74505805969E-08  0.10566000000E+00  0.10566000000E+00 0. -1.
     999900   -1    0    0    0    0 -0.00000000000E+00 -0.00000000000E+00 -0.74505805969E-08  0.93827000000E+00  0.93827000000E+00 0. -1.
     999902    2    1    2    0    0 -0.36792811504E-02  0.50588637436E-02  0.22297869862E-01  0.10207713253E+01  0.10205085861E+01 0.  0.
     999903    2    3    3    0    0 -0.98397982287E-01 -0.58378682668E-01 -0.56939087920E-01  0.12988724189E+00  0.23203498986E-01 0.  0.
         14    1    1    2    0    0  0.36792811504E-02 -0.50588637436E-02 -0.22297869862E-01  0.23158674672E-01  0.00000000000E+00 0.  1.
     999901    1    3    3    0    0  0.94718701137E-01  0.63437546412E-01  0.79236957782E-01  0.89088408344E+00  0.88000000000E+00 0.  1.
        -11    1    4    4    0    0 -0.81751512211E-01 -0.43679492162E-01 -0.54537535080E-01  0.10754446354E+00  0.51100000000E-03 0. -1.
         11    1    4    4    0    0 -0.16646470076E-01 -0.14699190506E-01 -0.24015528399E-02  0.22342778354E-01  0.51100000000E-03 0.  1.
</event>
<event>
 8    1  0.1191842E+005  0.1043930E+01  0.7957747E-01            NaN
         13   -1    0    0    0    0  0.00000000000E+00  0.00000000000E+00  0.74505805969E-08  0.10566000000E+00  0.10566000000E+00 0.  1.
     999900   -1    0    0    0    0 -0.00000000000E+00 -0.00000000000E+00 -0.74505805969E-08  0.93827000000E+00  0.93827000000E+00 0. -1.
     999902    2    1    2    0    0  0.24777792503E-01  0.65053268950E-02  0.27340885480E-02  0.10181669738E+01  0.10178409763E+01 0.  0.
     999903    2    3    3    0    0 -0.64970404564E-01  0.99131472859E-01 -0.42920387647E-01  0.12759486947E+00  0.19750662243E-01 0.  0.
         14    1    1    2    0    0 -0.24777792503E-01 -0.65053268950E-02 -0.27340885480E-02  0.25763026211E-01  0.00000000000E+00 0. -1.
     999901    1    3    3    0    0  0.89748197068E-01 -0.92626145964E-01  0.45654476195E-01  0.89057210432E+00  0.88000000000E+00 0.  1.
        -11    1    4    4    0    0 -0.29228099429E-01  0.34521053699E-01 -0.80916906128E-02  0.45953471280E-01  0.51100000000E-03 0. -1.
         11    1    4    4    0    0 -0.35742305135E-01  0.64610419160E-01 -0.34828697034E-01  0.81641398191E-01  0.51100000000E-03 0.  1.
</event>
<event>
 7    1  0.1191842E+005  0.1043930E+01  0.7957747E-01            NaN
         13   -1    0    0    0    0  0.00000000000E+00  0.00000000000E+00  0.74505805969E-08  0.10566000000E+00  0.10566000000E+00 0.  1.
     999900   -1    0    0    0    0 -0.00000000000E+00 -0.00000000000E+00 -0.74505805969E-08  0.93827000000E+00  0.93827000000E+00 0.  1.
     999903    2    1    2    0    0 -0.60837224127E-01  0.98204895943E-01 -0.10737648143E-01  0.11785285037E+00  0.20703328852E-01 0.  0.
         14    1    1    2    0    0  0.57307064171E-02 -0.26488933214E-01 -0.30095336984E-01  0.40499801075E-01  0.00000000000E+00 0. -1.
     999901    1    1    2    0    0  0.55106517710E-01 -0.71715962728E-01  0.40832985128E-01  0.88557734856E+00  0.88000000000E+00 0.  1.
        -11    1    3    3    0    0 -0.64774651797E-02  0.27036853973E-01 -0.23576411570E-02  0.27906426154E-01  0.51100000000E-03 0. -1.
         11    1    3    3    0    0 -0.54359758947E-01  0.71168041970E-01 -0.83800069863E-02  0.89946424213E-01  0.51100000000E-03 0.  1.
</event>
<event>
 8    1  0.1191842E+005  0.1043930E+01  0.7957747E-01            NaN
         13   -1    0    0    0    0  0.00000000000E+00  0.00000000000E+00  0.74505805969E-08  0.10566000000E+00  0.10566000000E+00 0. -1.
     999900   -1    0    0    0    0 -0.00000000000E+00 -0.00000000000E+00 -0.74505805969E-08  0.93827000000E+00  0.93827000000E+00 0. -1.
     999902    2    1    2    0    0 -0.52280608284E-02 -0.45324305886E-02 -0.23146825069E-01  0.10197711288E+01  0.10194849210E+01 0.  0.
     999903    2    3    3    0    0  0.16215369534E-01  0.88859095147E-01 -0.94324390077E-01  0.13171254765E+00  0.17094667176E-01 0.  0.
         14    1    1    2    0    0  0.52280608284E-02  0.45324305886E-02  0.23146825069E-01  0.24158871204E-01  0.00000000000E+00 0. -1.
     999901    1    3    3    0    0 -0.21443430362E-01 -0.93391525736E-01  0.71177565008E-01  0.88805858115E+00  0.88000000000E+00 0.  1.
        -11    1    4    4    0    0  0.13872820455E-01  0.72168126342E-01 -0.85282038177E-01  0.11257877581E+00  0.51100000000E-03 0. -1.
         11    1    4    4    0    0  0.23425490787E-02  0.16690968805E-01 -0.90423519003E-02  0.19133771838E-01  0.51100000000E-03 0.  1.
</event>
<event>
 8    1  0.1191842E+005  0.1043930E+01  0.7957747E-01            NaN
         13   -1    0    0    0    0  0.00000000000E+00  0.00000000000E+00  0.74505805969E-08  0.10566000000E+00  0.10566000000E+00 0.  1.
     999900   -1    0    0    0    0 -0.00000000000E+00 -0.00000000000E+00 -0.74505805969E-08  0.93827000000E+00  0.93827000000E+00 0. -1.
     999902    2    1    2    0    0  0.26030308549E-02  0.12671784637E-01  0.20362723155E-01  0.10198055230E+01  0.10195201393E+01 0.  0.
     999903    2    3    3    0    0  0.57680334839E-01 -0.13167165109E-01  0.11678275739E+00  0.13245103706E+00  0.20116399566E-01 0.  0.
         14    1    1    2    0    0 -0.26030308549E-02 -0.12671784637E-01 -0.20362723155E-01  0.24124476985E-01  0.00000000000E+00 0. -1.
     999901    1    3    3    0    0 -0.55077303984E-01  0.25838949746E-01 -0.96420034234E-01  0.88735448595E+00  0.88000000000E+00 0. -1.
        -11    1    4    4    0    0  0.48719800364E-01 -0.13641961327E-01  0.11035623596E+00  0.12140214987E+00  0.51100000000E-03 0. -1.
         11    1    4    4    0    0  0.89605344753E-02  0.47479621832E-03  0.64265214246E-02  0.11048887191E-01  0.51100000000E-03 0.  1.
</event>
<event>
 8    1  0.1191842E+005  0.1043930E+01  0.7957747E-01            NaN
         13   -1    0    0    0    0  0.00000000000E+00  0.00000000000E+00  0.74505805969E-08  0.10566000000E+00  0.10566000000E+00 0.  1.
     999900   -1    0    0    0    0 -0.00000000000E+00 -0.00000000000E+00 -0.74505805969E-08  0.93827000000E+00  0.93827000000E+00 0. -1.
     999902    2    1    2    0    0  0.73051371720E-02  0.20206867777E-01 -0.96288092480E-02  0.10203843740E+01  0.10201126772E+01 0.  0.
     999903    2    3    3    0    0 -0.76887551764E-01  0.10242077174E+00 -0.26566603182E-01  0.13238976609E+00  0.20483057917E-01 0.  0.
         14    1    1    2    0    0 -0.73051371720E-02 -0.20206867777E-01  0.96288092480E-02  0.23545625963E-01  0.00000000000E+00 0.  1.
     999901    1    3    3    0    0  0.84192688936E-01 -0.82213903961E-01  0.16937793934E-01  0.88799460794E+00  0.88000000000E+00 0. -1.
        -11    1    4    4    0    0 -0.17314226047E-01  0.35782826461E-01 -0.25658132615E-02  0.39837640641E-01  0.51100000000E-03 0.  1.
         11    1    4    4    0    0 -0.59573325717E-01  0.66637945278E-01 -0.24000789921E-01  0.92552125452E-01  0.51100000000E-03 0. -1.
</event>
<event>
 7    1  0.1191842E+005  0.1043930E+01  0.7957747E-01            NaN
         13   -1    0    0    0    0  0.00000000000E+00  0.00000000000E+00  0.74505805969E-08  0.10566000000E+00  0.10566000000E+00 0.  1.
     999900   -1    0    0    0    0 -0.00000000000E+00 -0.00000000000E+00 -0.74505805969E-08  0.93827000000E+00  0.93827000000E+00 0.  1.
     999902    2    1    2    0    0 -0.80948889831E-02  0.18308649971E-01 -0.12636712049E-01  0.10202568003E+01  0.10199821166E+01 0.  0.
         14    1    1    2    0    0  0.80948889831E-02 -0.18308649971E-01  0.12636712049E-01  0.23673199674E-01  0.00000000000E+00 0.  1.
     999901    1    3    3    0    0  0.51254557759E-01 -0.63363656081E-01 -0.89101382312E-01  0.88824604639E+00  0.88000000000E+00 0. -1.
        -11    1    3    3    0    0 -0.19780444642E-01  0.62979867165E-02  0.63240550910E-02  0.21706805861E-01  0.51100000000E-03 0. -1.
         11    1    3    3    0    0 -0.39569002100E-01  0.75374319335E-01  0.70140615172E-01  0.11030394807E+00  0.51100000000E-03 0.  1.
</event>
<event>
 8    1  0.1191842E+005  0.1043930E+01  0.7957747E-01            NaN
         13   -1    0    0    0    0  0.00000000000E+00  0.00000000000E+00  0.74505805969E-08  0.10566000000E+00  0.10566000000E+00 0. -1.
     999900   -1    0    0    0    0 -0.00000000000E+00 -0.00000000000E+00 -0.74505805969E-08  0.93827000000E+00  0.93827000000E+00 0.  1.
     999902    2    1    2    0    0 -0.12096275625E-01  0.16189609447E-01 -0.13000118687E-01  0.10199003012E+01  0.10196171821E+01 0.  0.
     999903    2    3    3    0    0  0.29376803249E-01 -0.12265821090E+00  0.50902981160E-02  0.12786555039E+00  0.20387608270E-01 0.  0.
         14    1    1    2    0    0  0.12096275625E-01 -0.16189609447E-01  0.13000118687E-01  0.24029698790E-01  0.00000000000E+00 0. -1.
     999901    1    3    3    0    0 -0.41473078874E-01  0.13884782035E+00 -0.18090416803E-01  0.89203475082E+00  0.88000000000E+00 0. -1.
        -11    1    4    4    0    0  0.29557691029E-01 -0.10050093098E+00 -0.14101425452E-02  0.10476804785E+00  0.51100000000E-03 0.  1.
         11    1    4    4    0    0 -0.18088778005E-03 -0.22157279926E-01  0.65004406612E-02  0.23097502547E-01  0.51100000000E-03 0. -1.
</event>
<event>
 8    1  0.1191842E+005  0.1043930E+01  0.7957747E-01            NaN
         13   -1    0    0    0    0  0.00000000000E+00  0.00000000000E+00  0.74505805969E-08  0.10566000000E+00  0.10566000000E+00 0.  1.
     999900   -1    0    0    0    0 -0.00000000000E+00 -0.00000000000E+00 -0.74505805969E-08  0.93827000000E+00  0.93827000000E+00 0. -1.
     999902    2    1    2    0    0  0.19043291597E-01  0.13261601810E-01 -0.64857737723E-02  0.10198347246E+01  0.10195500395E+01 0.  0.
     999903    2    3    3    0    0 -0.65253618700E-01 -0.38067785868E-01  0.10187769656E+00  0.12771179758E+00  0.14968203362E-01 0.  0.
         14    1    1    2    0    0 -0.19043291597E-01 -0.13261601810E-01  0.64857737723E-02  0.24095275446E-01  0.00000000000E+00 0. -1.
     999901    1    3    3    0    0  0.84296910296E-01  0.51329387677E-01 -0.10836347033E+00  0.89212292697E+00  0.88000000000E+00 0. -1.
        -11    1    4    4    0    0 -0.25406354257E-01 -0.11830826735E-01  0.49309523252E-01  0.56719851042E-01  0.51100000000E-03 0.  1.
         11    1    4    4    0    0 -0.39847264443E-01 -0.26236959133E-01  0.52568173305E-01  0.70991946542E-01  0.51100000000E-03 0. -1.
</event>
<event>
 8    1  0.1191842E+005  0.1043930E+01  0.7957747E-01            NaN
         13   -1    0    0    0    0  0.00000000000E+00  0.00000000000E+00  0.74505805969E-08  0.10566000000E+00  0.10566000000E+00 0.  1.
     999900   -1    0    0    0    0 -0.00000000000E+00 -0.00000000000E+00 -0.74505805969E-08  0.93827000000E+00  0.93827000000E+00 0.  1.
     999902    2    1    2    0    0 -0.19099782033E-01  0.71838527984E-02 -0.11665546678E-01  0.10204248007E+01  0.10201540469E+01 0.  0.
     999903    2    3    3    0    0 -0.34276297298E-01  0.75200692198E-01 -0.10273399535E+00  0.13298461714E+00  0.17338567727E-01 0.  0.
         14    1    1    2    0    0  0.19099782033E-01 -0.71838527984E-02  0.11665546678E-01  0.23505199298E-01  0.00000000000E+00 0.  1.
     999901    1    3    3    0    0  0.15176515265E-01 -0.68016839400E-01  0.91068448675E-01  0.88744018356E+00  0.88000000000E+00 0. -1.
        -11    1    4    4    0    0 -0.20451902515E-01  0.50152136023E-01 -0.54083460776E-01  0.76542791396E-01  0.51100000000E-03 0. -1.
         11    1    4    4    0    0 -0.13824394784E-01  0.25048556175E-01 -0.48650534577E-01  0.56441825743E-01  0.51100000000E-03 0.  1.
</event>
<event>
 8    1  0.1191842E+005  0.1043930E+01  0.7957747E-01            NaN
         13   -1    0    0    0    0  0.00000000000E+00  0.00000000000E+00  0.74505805969E-08  0.10566000000E+00  0.10566000000E+00 0. -1.
     999900   -1    0    0    0    0 -0.00000000000E+00 -0.00000000000E+00 -0.74505805969E-08  0.93827000000E+00  0.93827000000E+00 0.  1.
     999902    2    1    2    0    0 -0.12082136302E-01  0.19799605738E-01  0.64772277994E-02  0.10198477060E+01  0.10195633313E+01 0.  0.
     999903    2    3    3    0    0 -0.78877083941E-02 -0.78844542189E-01  0.10026411311E+00  0.12937353960E+00  0.20148017126E-01 0.  0.
         14    1    1    2    0    0  0.12082136302E-01 -0.19799605738E-01 -0.64772277994E-02  0.24082294014E-01  0.00000000000E+00 0. -1.
     999901    1    3    3    0    0 -0.41944279075E-02  0.98644147927E-01 -0.93786885311E-01  0.89047416639E+00  0.88000000000E+00 0.  1.
        -11    1    4    4    0    0  0.52115146157E-02 -0.43837227985E-01  0.59095030765E-01  0.73765481250E-01  0.51100000000E-03 0. -1.
         11    1    4    4    0    0 -0.13099223010E-01 -0.35007314204E-01  0.41169082345E-01  0.55608058349E-01  0.51100000000E-03 0.  1.
</event>
<event>
 8    1  0.1191842E+005  0.1043930E+01  0.7957747E-01            NaN
         13   -1    0    0    0    0  0.00000000000E+00  0.00000000000E+00  0.74505805969E-08  0.10566000000E+00  0.10566000000E+00 0.  1.
     999900   -1    0    0    0    0 -0.00000000000E+00 -0.00000000000E+00 -0.74505805969E-08  0.93827000000E+00  0.93827000000E+00 0. -1.
     999902    2    1    2    0    0 -0.14624456204E-01 -0.46228105904E-02 -0.16975669031E-01  0.10210516601E+01  0.10207953145E+01 0.  0.
     999903    2    3    3    0    0 -0.61956883454E-01  0.80597695705E-01  0.79416911635E-01  0.13043702798E+00  0.19290631240E-01 0.  0.
         14    1    1    2    0    0  0.14624456204E-01  0.46228105904E-02  0.16975669031E-01  0.22878339889E-01  0.00000000000E+00 0.  1.
     999901    1    3    3    0    0  0.47332427249E-01 -0.85220506295E-01 -0.96392580667E-01  0.89061463213E+00  0.88000000000E+00 0.  1.
        -11    1    4    4    0    0 -0.15209956881E-01  0.16475299160E-01  0.84166344662E-02  0.23955774408E-01  0.51100000000E-03 0.  1.
         11    1    4    4    0    0 -0.46746926572E-01  0.64122396545E-01  0.71000277169E-01  0.10648125357E+00  0.51100000000E-03 0. -1.
</event>
<event>
 8    1  0.1191842E+005  0.1043930E+01  0.7957747E-01            NaN
         13   -1    0    0    0    0  0.00000000000E+00  0.00000000000E+00  0.74505805969E-08  0.10566000000E+00  0.10566000000E+00 0. -1.
     999900   -1    0    0    0    0 -0.00000000000E+00 -0.00000000000E+00 -0.74505805969E-08  0.93827000000E+00  0.93827000000E+00 0. -1.
     999902    2    1    2    0    0 -0.14798235360E-01 -0.18546331683E-01  0.11260877734E-02  0.10201766368E+01  0.10199000677E+01 0.  0.
     999903    2    3    3    0    0  0.11223303891E+00 -0.53878874585E-01  0.30844900307E-01  0.12985728903E+00  0.20305651693E-01 0.  0.
         14    1    1    2    0    0  0.14798235360E-01  0.18546331683E-01 -0.11260877734E-02  0.23753363179E-01  0.00000000000E+00 0. -1.
     999901    1    3    3    0    0 -0.12703127427E+00  0.35332542902E-01 -0.29718812533E-01  0.89031934779E+00  0.88000000000E+00 0. -1.
        -11    1    4    4    0    0  0.36323675475E-01 -0.77745394672E-02  0.12241950628E-01  0.39114950340E-01  0.51100000000E-03 0.  1.
         11    1    4    4    0    0  0.75909363432E-01 -0.46104335118E-01  0.18602949679E-01  0.90742338691E-01  0.51100000000E-03 0. -1.
</event>
<event>
 8    1  0.1191842E+005  0.1043930E+01  0.7957747E-01            NaN
         13   -1    0    0    0    0  0.00000000000E+00  0.00000000000E+00  0.74505805969E-08  0.10566000000E+00  0.10566000000E+00 0. -1.
     999900   -1    0    0    0    0 -0.00000000000E+00 -0.00000000000E+00 -0.74505805969E-08  0.93827000000E+00  0.93827000000E+00 0. -1.
     999902    2    1    2    0    0  0.22255066003E-01  0.83079433612E-03 -0.70193466764E-02  0.10205794238E+01  0.10203122614E+01 0.  0.
     999903    2    3    3    0    0  0.11034179886E+00  0.71131218642E-01 -0.89957439249E-02  0.13338985649E+00  0.21839587091E-01 0.  0.
         14    1    1    2    0    0 -0.22255066003E-01 -0.83079433612E-03  0.70193466764E-02  0.23350576219E-01  0.00000000000E+00 0. -1.
     999901    1    3    3    0    0 -0.88086732858E-01 -0.70300424306E-01  0.19763972485E-02  0.88718956729E+00  0.88000000000E+00 0. -1.
        -11    1    4    4    0    0  0.69617165273E-01  0.48033757488E-01 -0.15896819852E-01  0.86062544475E-01  0.51100000000E-03 0. -1.
         11    1    4    4    0    0  0.40724633587E-01  0.23097461154E-01  0.69010759276E-02  0.47327312015E-01  0.51100000000E-03 0.  1.
</event>
<event>
 8    1  0.1191842E+005  0.1043930E+01  0.7957747E-01            NaN
         13   -1    0    0    0    0  0.00000000000E+00  0.00000000000E+00  0.74505805969E-08  0.10566000000E+00  0.10566000000E+00 0. -1.
     999900   -1    0    0    0    0 -0.00000000000E+00 -0.00000000000E+00 -0.74505805969E-08  0.93827000000E+00  0.93827000000E+00 0. -1.
     999902    2    1    2    0    0  0.22058330867E-01  0.47915025077E-02  0.39279869740E-02  0.10210180481E+01  0.10207609402E+01 0.  0.
     999903    2    3    3    0    0  0.10452610260E+00  0.70623313165E-01 -0.40445319643E-01  0.13360396721E+00  0.17344673128E-01 0.  0.
         14    1    1    2    0    0 -0.22058330867E-01 -0.47915025077E-02 -0.39279869740E-02  0.22911951872E-01  0.00000000000E+00 0. -1.
     999901    1    3    3    0    0 -0.82467771735E-01 -0.65831810657E-01  0.44373306617E-01  0.88741408092E+00  0.88000000000E+00 0.  1.
        -11    1    4    4    0    0  0.73186704359E-01  0.44297838020E-01 -0.34488660227E-01  0.92240560240E-01  0.51100000000E-03 0.  1.
         11    1    4    4    0    0  0.31339398243E-01  0.26325475144E-01 -0.59566594165E-02  0.41363406971E-01  0.51100000000E-03 0. -1.
</event>
<event>
 8    1  0.1191842E+005  0.1043930E+01  0.7957747E-01            NaN
         13   -1    0    0    0    0  0.00000000000E+00  0.00000000000E+00  0.74505805969E-08  0.10566000000E+00  0.10566000000E+00 0.  1.
     999900   -1    0    0    0    0 -0.00000000000E+00 -0.00000000000E+00 -0.74505805969E-08  0.93827000000E+00  0.93827000000E+00 0. -1.
     999902    2    1    2    0    0  0.95788873886E-02 -0.24718518515E-01 -0.14000228055E-02  0.10173834314E+01  0.10170370328E+01 0.  0.
     999903    2    3    3    0    0  0.54330866220E-03  0.60102588739E-01 -0.10973309430E+00  0.12664648015E+00  0.19630654405E-01 0.  0.
         14    1    1    2    0    0 -0.95788873886E-02  0.24718518515E-01  0.14000228055E-02  0.26546568611E-01  0.00000000000E+00 0.  1.
     999901    1    3    3    0    0  0.90355787264E-02 -0.84821107253E-01  0.10833307150E+00  0.89073695124E+00  0.88000000000E+00 0. -1.
        -11    1    4    4    0    0 -0.15697406305E-02  0.47731208865E-02 -0.18421748733E-02  0.53760113381E-02  0.51100000000E-03 0. -1.
         11    1    4    4    0    0  0.21130492927E-02  0.55329467852E-01 -0.10789091943E+00  0.12127046881E+00  0.51100000000E-03 0.  1.
</event>
<event>
 6    1  0.1191842E+005  0.1043930E+01  0.7957747E-01            NaN
         13   -1    0    0    0    0  0.00000000000E+00  0.00000000000E+00  0.74505805969E-08  0.10566000000E+00  0.10566000000E+00 0.  1.
     999900   -1    0    0    0    0 -0.00000000000E+00 -0.00000000000E+00 -0.74505805969E-08  0.93827000000E+00  0.93827000000E+00 0. -1.
         14    1    1    2    0    0  0.49927010223E-02  0.35836041045E-01  0.18677579044E-01  0.40718556706E-01  0.00000000000E+00 0.  1.
     999901    1    1    2    0    0  0.63543015395E-01 -0.80104549395E-01 -0.75645328802E-01  0.88914378444E+00  0.88000000000E+00 0. -1.
        -11    1    1    2    0    0 -0.29755909073E-01 -0.73252521121E-02  0.46857681521E-02  0.31004692991E-01  0.51100000000E-03 0. -1.
         11    1    1    2    0    0 -0.38779807344E-01  0.51593760462E-01  0.52281981606E-01  0.83062965863E-01  0.51100000000E-03 0.  1.
</event>
<event>
 8    1  0.1191842E+005  0.1043930E+01  0.7957747E-01            NaN
         13   -1    0    0    0    0  0.00000000000E+00  0.00000000000E+00  0.74505805969E-08  0.10566000000E+00  0.10566000000E+00 0.  1.
     999900   -1    0    0    0    0 -0.00000000000E+00 -0.00000000000E+00 -0.74505805969E-08  0.93827000000E+00  0.93827000000E+00 0.  1.
     999902    2    1    2    0    0 -0.19308695330E-01  0.11625473090E-01 -0.55073739889E-03  0.10213849196E+01  0.10211360699E+01 0.  0.
     999903    2    3    3    0    0  0.64623570258E-02 -0.11361260144E+00  0.59716230070E-01  0.13010447559E+00  0.20286970446E-01 0.  0.
         14    1    1    2    0    0  0.19308695330E-01 -0.11625473090E-01  0.55073739889E-03  0.22545080430E-01  0.00000000000E+00 0. -1.
     999901    1    3    3    0    0 -0.25771052356E-01  0.12523807453E+00 -0.60266967469E-01  0.89128044398E+00  0.88000000000E+00 0.  1.
        -11    1    4    4    0    0  0.12004681624E-01 -0.41146530443E-01  0.23930811196E-01  0.49092710191E-01  0.51100000000E-03 0. -1.
         11    1    4    4    0    0 -0.55423245985E-02 -0.72466071000E-01  0.35785418874E-01  0.81011765400E-01  0.51100000000E-03 0.  1.
</event>
<event>
 8    1  0.1191842E+005  0.1043930E+01  0.7957747E-01            NaN
         13   -1    0    0    0    0  0.00000000000E+00  0.00000000000E+00  0.74505805969E-08  0.10566000000E+00  0.10566000000E+00 0. -1.
     999900   -1    0    0    0    0 -0.00000000000E+00 -0.00000000000E+00 -0.74505805969E-08  0.93827000000E+00  0.93827000000E+00 0. -1.
     999902    2    1    2    0    0 -0.13991809695E-01  0.18564722429E-01  0.47759795503E-02  0.10201975404E+01  0.10199214636E+01 0.  0.
     999903    2    3    3    0    0 -0.51210640417E-01 -0.99462198367E-01  0.62558025727E-01  0.12966154437E+00  0.19579349043E-01 0.  0.
         14    1    1    2    0    0  0.13991809695E-01 -0.18564722429E-01 -0.47759795503E-02  0.23732459587E-01  0.00000000000E+00 0.  1.
     999901    1    3    3    0    0  0.37218830722E-01  0.11802692080E+00 -0.57782046177E-01  0.89053599605E+00  0.88000000000E+00 0. -1.
        -11    1    4    4    0    0 -0.21352509169E-01 -0.52324747354E-01  0.21861591196E-01  0.60597022403E-01  0.51100000000E-03 0. -1.
         11    1    4    4    0    0 -0.29858131248E-01 -0.47137451013E-01  0.40696434531E-01  0.69064521964E-01  0.51100000000E-03 0.  1.
</event>
<event>
 8    1  0.1191842E+005  0.1043930E+01  0.7957747E-01            NaN
         13   -1    0    0    0    0  0.00000000000E+00  0.00000000000E+00  0.74505805969E-08  0.10566000000E+00  0.10566000000E+00 0. -1.
     999900   -1    0    0    0    0 -0.00000000000E+00 -0.00000000000E+00 -0.74505805969E-08  0.93827000000E+00  0.93827000000E+00 0.  1.
     999902    2    1    2    0    0  0.19879075546E-01 -0.12561240222E-01  0.14380349003E-02  0.10203709180E+01  0.10200989069E+01 0.  0.
     999903    2    3    3    0    0  0.32380800045E-01  0.11693247112E+00 -0.39664914928E-01  0.12985737690E+00  0.23830943037E-01 0.  0.
         14    1    1    2    0    0 -0.19879075546E-01  0.12561240222E-01 -0.14380349003E-02  0.23559082004E-01  0.00000000000E+00 0.  1.
     999901    1    3    3    0    0 -0.12501724498E-01 -0.12949371134E+00  0.41102949829E-01  0.89051354110E+00  0.88000000000E+00 0. -1.
        -11    1    4    4    0    0  0.24679155765E-01  0.45367062327E-01 -0.15335570964E-01  0.53876450619E-01  0.51100000000E-03 0. -1.
         11    1    4    4    0    0  0.77016442797E-02  0.71565408789E-01 -0.24329343965E-01  0.75980926281E-01  0.51100000000E-03 0.  1.
</event>
<event>
 8    1  0.1191842E+005  0.1043930E+01  0.7957747E-01            NaN
         13   -1    0    0    0    0  0.00000000000E+00  0.00000000000E+00  0.74505805969E-08  0.10566000000E+00  0.10566000000E+00 0. -1.
     999900   -1    0    0    0    0 -0.00000000000E+00 -0.00000000000E+00 -0.74505805969E-08  0.93827000000E+00  0.93827000000E+00 0. -1.
     999902    2    1    2    0    0  0.19186394462E-01 -0.14793029042E-01  0.11747325697E-01  0.10170050840E+01  0.10166486068E+01 0.  0.
     999903    2    3    3    0    0 -0.27416849273E-01 -0.91834488070E-01  0.84730138647E-01  0.12940509542E+00  0.19524996869E-01 0.  0.
         14    1    1    2    0    0 -0.19186394462E-01  0.14793029042E-01 -0.11747325697E-01  0.26924916002E-01  0.00000000000E+00 0. -1.
     999901    1    3    3    0    0  0.46603243735E-01  0.77041459028E-01 -0.72982812950E-01  0.88759998858E+00  0.88000000000E+00 0. -1.
        -11    1    4    4    0    0 -0.92475919352E-02 -0.17733980161E-01  0.27602791448E-01  0.34090867188E-01  0.51100000000E-03 0. -1.
         11    1    4    4    0    0 -0.18169257338E-01 -0.74100507909E-01  0.57127347199E-01  0.95314228232E-01  0.51100000000E-03 0.  1.
</event>
<event>
 8    1  0.1191842E+005  0.1043930E+01  0.7957747E-01            NaN
         13   -1    0    0    0    0  0.00000000000E+00  0.00000000000E+00  0.74505805969E-08  0.10566000000E+00  0.10566000000E+00 0. -1.
     999900   -1    0    0    0    0 -0.00000000000E+00 -0.00000000000E+00 -0.74505805969E-08  0.93827000000E+00  0.93827000000E+00 0.  1.
     999902    2    1    2    0    0  0.21952699982E-01  0.19730122444E-02  0.88987108939E-02  0.10201602531E+01  0.10198832978E+01 0.  0.
     999903    2    3    3    0    0 -0.11181617349E+00 -0.57561184972E-01 -0.96080520059E-02  0.12787053979E+00  0.21033630532E-01 0.  0.
         14    1    1    2    0    0 -0.21952699982E-01 -0.19730122444E-02 -0.88987108939E-02  0.23769746936E-01  0.00000000000E+00 0.  1.
     999901    1    3    3    0    0  0.13376887347E+00  0.59534197216E-01  0.18506762900E-01  0.89228971328E+00  0.88000000000E+00 0.  1.
        -11    1    4    4    0    0 -0.79934882953E-01 -0.30666435816E-01 -0.32794270406E-02  0.85679820034E-01  0.51100000000E-03 0. -1.
         11    1    4    4    0    0 -0.31881290534E-01 -0.26894749157E-01 -0.63286249653E-02  0.42190719753E-01  0.51100000000E-03 0.  1.
</event>
<event>
 8    1  0.1191842E+005  0.1043930E+01  0.7957747E-01            NaN
         13   -1    0    0    0    0  0.00000000000E+00  0.00000000000E+00  0.74505805969E-08  0.10566000000E+00  0.10566000000E+00 0.  1.
     999900   -1    0    0    0    0 -0.00000000000E+00 -0.00000000000E+00 -0.74505805969E-08  0.93827000000E+00  0.93827000000E+00 0. -1.
     999902    2    1    2    0    0  0.10792190157E-01  0.19888074223E-01 -0.89112218780E-02  0.10196109388E+01  0.10193208767E+01 0.  0.
     999903    2    3    3    0    0  0.49472520977E-01 -0.17596513550E-01  0.11618073692E+00  0.12913395394E+00  0.20504799648E-01 0.  0.
         14    1    1    2    0    0 -0.10792190157E-01 -0.19888074223E-01  0.89112218780E-02  0.24319061249E-01  0.00000000000E+00 0.  1.
     999901    1    3    3    0    0 -0.38680330821E-01  0.37484587773E-01 -0.12509195880E+00  0.89047698481E+00  0.88000000000E+00 0. -1.
        -11    1    4    4    0    0  0.40252028722E-01 -0.13987582024E-01  0.10857154513E+00  0.11663584269E+00  0.51100000000E-03 0. -1.
         11    1    4    4    0    0  0.92204922551E-02 -0.36089315263E-02  0.76091917913E-02  0.12498111254E-01  0.51100000000E-03 0.  1.
</event>
<event>
 8    1  0.1191842E+005  0.1043930E+01  0.7957747E-01            NaN
         13   -1    0    0    0    0  0.00000000000E+00  0.00000000000E+00  0.74505805969E-08  0.10566000000E+00  0.10566000000E+00 0.  1.
     999900   -1    0    0    0    0 -0.00000000000E+00 -0.00000000000E+00 -0.74505805969E-08  0.93827000000E+00  0.93827000000E+00 0.  1.
     999902    2    1    2    0    0  0.22139100225E-01 -0.55959337477E-02 -0.24139377752E-02  0.10209673928E+01  0.10207091338E+01 0.  0.
     999903    2    3    3    0    0 -0.10098721118E-01  0.12712630689E+00 -0.17727597870E-01  0.13029967785E+00  0.20016399542E-01 0.  0.
         14    1    1    2    0    0 -0.22139100225E-01  0.55959337477E-02  0.24139377752E-02  0.22962607187E-01  0.00000000000E+00 0. -1.
     999901    1    3    3    0    0  0.32237821343E-01 -0.13272224064E+00  0.15313660095E-01  0.89066771496E+00  0.88000000000E+00 0.  1.
        -11    1    4    4    0    0 -0.16111968942E-01  0.87154108262E-01 -0.13487729370E-01  0.89652741702E-01  0.51100000000E-03 0.  1.
         11    1    4    4    0    0  0.60132478245E-02  0.39972198628E-01 -0.42398685005E-02  0.40646936151E-01  0.51100000000E-03 0. -1.
</event>
<event>
 8    1  0.1191842E+005  0.1043930E+01  0.7957747E-01            NaN
         13   -1    0    0    0    0  0.00000000000E+00  0.00000000000E+00  0.74505805969E-08  0.10566000000E+00  0.10566000000E+00 0. -1.
     999900   -1    0    0    0    0 -0.00000000000E+00 -0.00000000000E+00 -0.74505805969E-08  0.93827000000E+00  0.93827000000E+00 0. -1.
     999902    2    1    2    0    0  0.22188091987E-01 -0.82023602324E-02  0.68516717261E-04  0.10202742431E+01  0.10199999688E+01 0.  0.
     999903    2    3    3    0    0 -0.40641192660E-01  0.83360751164E-01  0.87495758545E-01  0.12899715657E+00  0.19596868749E-01 0.  0.
         14    1    1    2    0    0 -0.22188091987E-01  0.82023602324E-02 -0.68516717261E-04  0.23655756888E-01  0.00000000000E+00 0. -1.
     999901    1    3    3    0    0  0.62829284647E-01 -0.91563111397E-01 -0.87427241828E-01  0.89127708654E+00  0.88000000000E+00 0. -1.
        -11    1    4    4    0    0 -0.22483421113E-01  0.65228077324E-01  0.66670713360E-01  0.95945043839E-01  0.51100000000E-03 0.  1.
         11    1    4    4    0    0 -0.18157771547E-01  0.18132673840E-01  0.20825045185E-01  0.33052112733E-01  0.51100000000E-03 0. -1.
</event>
<event>
 8    1  0.1191842E+005  0.1043930E+01  0.7957747E-01            NaN
         13   -1    0    0    0    0  0.00000000000E+00  0.00000000000E+00  0.74505805969E-08  0.10566000000E+00  0.10566000000E+00 0. -1.
     999900   -1    0    0    0    0 -0.00000000000E+00 -0.00000000000E+00 -0.74505805969E-08  0.93827000000E+00  0.93827000000E+00 0.  1.
     999902    2    1    2    0    0  0.18510819735E-01  0.86645135220E-02  0.50320789318E-02  0.10228813407E+01  0.10226647501E+01 0.  0.
     999903    2    3    3    0    0  0.26519075110E-01 -0.79357593661E-01 -0.98104221563E-01  0.13246058619E+00  0.30339406524E-01 0.  0.
         14    1    1    2    0    0 -0.18510819735E-01 -0.86645135220E-02 -0.50320789318E-02  0.21048659345E-01  0.00000000000E+00 0.  1.
     999901    1    3    3    0    0 -0.80082553751E-02  0.88022107183E-01  0.10313630050E+00  0.89042075447E+00  0.88000000000E+00 0. -1.
        -11    1    4    4    0    0 -0.45391613840E-03  0.18021964387E-02 -0.80003588136E-02  0.82292657030E-02  0.51100000000E-03 0. -1.
         11    1    4    4    0    0  0.26972991249E-01 -0.81159790099E-01 -0.90103862750E-01  0.12423132048E+00  0.51100000000E-03 0.  1.
</event>
<event>
 8    1  0.1191842E+005  0.1043930E+01  0.7957747E-01            NaN
         13   -1    0    0    0    0  0.00000000000E+00  0.00000000000E+00  0.74505805969E-08  0.10566000000E+00  0.10566000000E+00 0.  1.
     999900   -1    0    0    0    0 -0.00000000000E+00 -0.00000000000E+00 -0.74505805969E-08  0.93827000000E+00  0.93827000000E+00 0.  1.
     999902    2    1    2    0    0 -0.19781545411E-01  0.94443306893E-02  0.52941996923E-02  0.10213793133E+01  0.10211303385E+01 0.  0.
     999903    2    3    3    0    0 -0.75202624626E-01  0.10271422378E+00  0.37035833600E-01  0.13414862158E+00  0.20458572403E-01 0.  0.
         14    1    1    2    0    0  0.19781545411E-01 -0.94443306893E-02 -0.52941996923E-02  0.22550686717E-01  0.00000000000E+00 0.  1.
     999901    1    3    3    0    0  0.55421079215E-01 -0.93269893086E-01 -0.31741633908E-01  0.88723069170E+00  0.88000000000E+00 0. -1.
        -11    1    4    4    0    0 -0.56355103316E-01  0.84634697037E-01  0.22091703917E-01  0.10405399615E+00  0.51100000000E-03 0.  1.
         11    1    4    4    0    0 -0.18847521310E-01  0.18079526738E-01  0.14944129683E-01  0.30094625427E-01  0.51100000000E-03 0. -1.
</event>
<event>
 8    1  0.1191842E+005  0.1043930E+01  0.7957747E-01            NaN
         13   -1    0    0    0    0  0.00000000000E+00  0.00000000000E+00  0.74505805969E-08  0.10566000000E+00  0.10566000000E+00 0.  1.
     999900   -1    0    0    0    0 -0.00000000000E+00 -0.00000000000E+00 -0.74505805969E-08  0.93827000000E+00  0.93827000000E+00 0. -1.
     999902    2    1    2    0    0 -0.57215485276E-02 -0.13631799056E-01  0.18784128882E-01  0.10200259091E+01  0.10197457770E+01 0.  0.
     999903    2    3    3    0    0  0.48584070548E-01 -0.12041701108E+00 -0.83371833335E-02  0.13149467875E+00  0.18991404491E-01 0.  0.
         14    1    1    2    0    0  0.57215485276E-02  0.13631799056E-01 -0.18784128882E-01  0.23904090882E-01  0.00000000000E+00 0. -1.
     999901    1    3    3    0    0 -0.54305619075E-01  0.10678521202E+00  0.27121312216E-01  0.88853123037E+00  0.88000000000E+00 0. -1.
        -11    1    4    4    0    0  0.11129772143E-01 -0.15560643291E-01  0.37248141466E-02  0.19497200030E-01  0.51100000000E-03 0.  1.
         11    1    4    4    0    0  0.37454298405E-01 -0.10485636779E+00 -0.12061997480E-01  0.11199747872E+00  0.51100000000E-03 0. -1.
</event>
<event>
 8    1  0.1191842E+005  0.1043930E+01  0.7957747E-01            NaN
         13   -1    0    0    0    0  0.00000000000E+00  0.00000000000E+00  0.74505805969E-08  0.10566000000E+00  0.10566000000E+00 0. -1.
     999900   -1    0    0    0    0 -0.00000000000E+00 -0.00000000000E+00 -0.74505805969E-08  0.93827000000E+00  0.93827000000E+00 0.  1.
     999902    2    1    2    0    0  0.15561321798E-02 -0.92940063325E-02  0.22162881981E-01  0.10198469471E+01  0.10195625542E+01 0.  0.
     999903    2    3    3    0    0 -0.97704091100E-01  0.53706281753E-01 -0.60079636941E-01  0.12822737564E+00  0.20055995900E-01 0.  0.
         14    1    1    2    0    0 -0.15561321798E-02  0.92940063325E-02 -0.22162881981E-01  0.24083052937E-01  0.00000000000E+00 0.  1.
     999901    1    3    3    0    0  0.99260223279E-01 -0.63000288086E-01  0.82242518921E-01  0.89161957142E+00  0.88000000000E+00 0. -1.
        -11    1    4    4    0    0 -0.47116652154E-01  0.17733912016E-01 -0.34795491143E-01  0.61200146000E-01  0.51100000000E-03 0.  1.
         11    1    4    4    0    0 -0.50587438946E-01  0.35972369738E-01 -0.25284145798E-01  0.67027229641E-01  0.51100000000E-03 0. -1.
</event>
<event>
 8    1  0.1191842E+005  0.1043930E+01  0.7957747E-01            NaN
         13   -1    0    0    0    0  0.00000000000E+00  0.00000000000E+00  0.74505805969E-08  0.10566000000E+00  0.10566000000E+00 0.  1.
     999900   -1    0    0    0    0 -0.00000000000E+00 -0.00000000000E+00 -0.74505805969E-08  0.93827000000E+00  0.93827000000E+00 0. -1.
     999902    2    1    2    0    0  0.19085784026E-01  0.69136796553E-02 -0.12242298045E-01  0.10202247268E+01  0.10199492895E+01 0.  0.
     999903    2    3    3    0    0 -0.90584454838E-01  0.38367630642E-01  0.79732110332E-01  0.12810578618E+00  0.19397538415E-01 0.  0.
         14    1    1    2    0    0 -0.19085784026E-01 -0.69136796553E-02  0.12242298045E-01  0.23705273247E-01  0.00000000000E+00 0. -1.
     999901    1    3    3    0    0  0.10967023886E+00 -0.31453950987E-01 -0.91974408377E-01  0.89211894057E+00  0.88000000000E+00 0.  1.
        -11    1    4    4    0    0 -0.76148336089E-02  0.66237155581E-02  0.15410062955E-01  0.18427980355E-01  0.51100000000E-03 0.  1.
         11    1    4    4    0    0 -0.82969621229E-01  0.31743915084E-01  0.64322047376E-01  0.10967780583E+00  0.51100000000E-03 0. -1.
</event>
<event>
 8    1  0.1191842E+005  0.1043930E+01  0.7957747E-01            NaN
         13   -1    0    0    0    0  0.00000000000E+00  0.00000000000E+00  0.74505805969E-08  0.10566000000E+00  0.10566000000E+00 0.  1.
     999900   -1    0    0    0    0 -0.00000000000E+00 -0.00000000000E+00 -0.74505805969E-08  0.93827000000E+00  0.93827000000E+00 0.  1.
     999902    2    1    2    0    0 -0.70271431359E-02 -0.11457541989E-03 -0.23032726745E-01  0.10198488794E+01  0.10195645327E+01 0.  0.
     999903    2    3    3    0    0 -0.94120353321E-01 -0.11389177963E-01  0.85920755630E-01  0.12879152701E+00  0.14714852956E-01 0.  0.
         14    1    1    2    0    0  0.70271431359E-02  0.11457541989E-03  0.23032726745E-01  0.24081120603E-01  0.00000000000E+00 0.  1.
     999901    1    3    3    0    0  0.87093210185E-01  0.11274602543E-01 -0.10895348237E+00  0.89105735239E+00  0.88000000000E+00 0.  1.
        -11    1    4    4    0    0 -0.24411464400E-01  0.28693099061E-02  0.18489499118E-01  0.30761586957E-01  0.51100000000E-03 0. -1.
         11    1    4    4    0    0 -0.69708888921E-01 -0.14258487869E-01  0.67431256512E-01  0.98029940053E-01  0.51100000000E-03 0.  1.
</event>
<event>
 8    1  0.1191842E+005  0.1043930E+01  0.7957747E-01            NaN
         13   -1    0    0    0    0  0.00000000000E+00  0.00000000000E+00  0.74505805969E-08  0.10566000000E+00  0.10566000000E+00 0.  1.
     999900   -1    0    0    0    0 -0.00000000000E+00 -0.00000000000E+00 -0.74505805969E-08  0.93827000000E+00  0.93827000000E+00 0. -1.
     999902    2    1    2    0    0 -0.62076289162E-02  0.21575010537E-01  0.62389978308E-02  0.10206289092E+01  0.10203628911E+01 0.  0.
     999903    2    3    3    0    0 -0.37994035343E-01 -0.93286026425E-01  0.79106588967E-01  0.12961088514E+00  0.19882144768E-01 0.  0.
         14    1    1    2    0    0  0.62076289162E-02 -0.21575010537E-01 -0.62389978308E-02  0.23301090755E-01  0.00000000000E+00 0. -1.
     999901    1    3    3    0    0  0.31786406427E-01  0.11486103696E+00 -0.72867591137E-01  0.89101802411E+00  0.88000000000E+00 0. -1.
        -11    1    4    4    0    0 -0.32077714054E-01 -0.85973176090E-01  0.77378133294E-01  0.12003334278E+00  0.51100000000E-03 0.  1.
         11    1    4    4    0    0 -0.59163212891E-02 -0.73128503344E-02  0.17284556737E-02  0.95775423583E-02  0.51100000000E-03 0. -1.
</event>
<event>
 8    1  0.1191842E+005  0.1043930E+01  0.7957747E-01            NaN
         13   -1    0    0    0    0  0.00000000000E+00  0.00000000000E+00  0.74505805969E-08  0.10566000000E+00  0.10566000000E+00 0. -1.
     999900   -1    0    0    0    0 -0.00000000000E+00 -0.00000000000E+00 -0.74505805969E-08  0.93827000000E+00  0.93827000000E+00 0. -1.
     999902    2    1    2    0    0 -0.19496237337E-01  0.17875589945E-01 -0.48005629908E-02  0.10170471915E+01  0.10166918434E+01 0.  0.
     999903    2    3    3    0    0 -0.10874457088E+00 -0.45484208002E-01 -0.48817239261E-01  0.12917490520E+00  0.20219753021E-01 0.  0.
         14    1    1    2    0    0  0.19496237337E-01 -0.17875589945E-01  0.48005629908E-02  0.26882808470E-01  0.00000000000E+00 0.  1.
     999901    1    3    3    0    0  0.89248333542E-01  0.63359797946E-01  0.44016676270E-01  0.88787228633E+00  0.88000000000E+00 0.  1.
        -11    1    4    4    0    0 -0.19290289818E-01 -0.75394750094E-02 -0.17389387765E-01  0.27048306648E-01  0.51100000000E-03 0.  1.
         11    1    4    4    0    0 -0.89454281061E-01 -0.37944732992E-01 -0.31427851496E-01  0.10212659856E+00  0.51100000000E-03 0. -1.
</event>
<event>
 8    1  0.1191842E+005  0.1043930E+01  0.7957747E-01            NaN
         13   -1    0    0    0    0  0.00000000000E+00  0.00000000000E+00  0.74505805969E-08  0.10566000000E+00  0.10566000000E+00 0. -1.
     999900   -1    0    0    0    0 -0.00000000000E+00 -0.00000000000E+00 -0.74505805969E-08  0.93827000000E+00  0.93827000000E+00 0.  1.
     999902    2    1    2    0    0  0.20104179826E-01  0.97520382497E-02  0.90283288215E-02  0.10198303938E+01  0.10195456052E+01 0.  0.
     999903    2    3    3    0    0  0.73204260395E-01  0.36415472604E-01  0.10285292686E+00  0.13285034191E+00  0.19635131708E-01 0.  0.
         14    1    1    2    0    0 -0.20104179826E-01 -0.97520382497E-02 -0.90283288215E-02  0.24099606176E-01  0.00000000000E+00 0. -1.
     999901    1    3    3    0    0 -0.53100080569E-01 -0.26663434354E-01 -0.93824598043E-01  0.88698005191E+00  0.88000000000E+00 0.  1.
        -11    1    4    4    0    0  0.33484282293E-01  0.23799923635E-01  0.39328635567E-01  0.56873862382E-01  0.51100000000E-03 0.  1.
         11    1    4    4    0    0  0.39719978102E-01  0.12615548969E-01  0.63524291298E-01  0.75976479533E-01  0.51100000000E-03 0. -1.
</event>
<event>
 8    1  0.1191842E+005  0.1043930E+01  0.7957747E-01            NaN
         13   -1    0    0    0    0  0.00000000000E+00  0.00000000000E+00  0.74505805969E-08  0.10566000000E+00  0.10566000000E+00 0.  1.
     999900   -1    0    0    0    0 -0.00000000000E+00 -0.00000000000E+00 -0.74505805969E-08  0.93827000000E+00  0.93827000000E+00 0.  1.
     999902    2    1    2    0    0 -0.93459179041E-02 -0.10201447059E-01  0.18684635777E-01  0.10206806706E+01  0.10204158466E+01 0.  0.
     999903    2    3    3    0    0 -0.12926584751E+00 -0.18604999316E-01  0.10920547919E-01  0.13247366192E+00  0.19344441162E-01 0.  0.
         14    1    1    2    0    0  0.93459179041E-02  0.10201447059E-01 -0.18684635777E-01  0.23249329403E-01  0.00000000000E+00 0. -1.
     999901    1    3    3    0    0  0.11991992960E+00  0.84035522578E-02  0.77640878580E-02  0.88820700868E+00  0.88000000000E+00 0.  1.
        -11    1    4    4    0    0 -0.41248805813E-01 -0.14793859278E-01  0.12349224819E-02  0.43841856803E-01  0.51100000000E-03 0. -1.
         11    1    4    4    0    0 -0.88017041694E-01 -0.38111400379E-02  0.96856254373E-02  0.88631805115E-01  0.51100000000E-03 0.  1.
</event>
<event>
 8    1  0.1191842E+005  0.1043930E+01  0.7957747E-01            NaN
         13   -1    0    0    0    0  0.00000000000E+00  0.00000000000E+00  0.74505805969E-08  0.10566000000E+00  0.10566000000E+00 0. -1.
     999900   -1    0    0    0    0 -0.00000000000E+00 -0.00000000000E+00 -0.74505805969E-08  0.93827000000E+00  0.93827000000E+00 0.  1.
     999902    2    1    2    0    0 -0.21397535756E-01  0.81159695275E-04 -0.88249617572E-02  0.10207839188E+01  0.10205214686E+01 0.  0.
     999903    2    3    3    0    0  0.12116676208E+00  0.30787117116E-01  0.19790113109E-01  0.12832313127E+00  0.21117448425E-01 0.  0.
         14    1    1    2    0    0  0.21397535756E-01 -0.81159695275E-04  0.88249617572E-02  0.23146081166E-01  0.00000000000E+00 0.  1.
     999901    1    3    3    0    0 -0.14256429783E+00 -0.30705957420E-01 -0.28615074866E-01  0.89246078757E+00  0.88000000000E+00 0. -1.
        -11    1    4    4    0    0  0.11066659713E+00  0.31153699096E-01  0.23157673278E-01  0.11727824879E+00  0.51100000000E-03 0. -1.
         11    1    4    4    0    0  0.10500164952E-01 -0.36658198038E-03 -0.33675601694E-02  0.11044882474E-01  0.51100000000E-03 0.  1.
</event>
<event>
 8    1  0.1191842E+005  0.1043930E+01  0.7957747E-01            NaN
         13   -1    0    0    0    0  0.00000000000E+00  0.00000000000E+00  0.74505805969E-08  0.10566000000E+00  0.10566000000E+00 0. -1.
     999900   -1    0    0    0    0 -0.00000000000E+00 -0.00000000000E+00 -0.74505805969E-08  0.93827000000E+00  0.93827000000E+00 0. -1.
     999902    2    1    2    0    0  0.15356300066E-01  0.34603077845E-02  0.43834534639E-02  0.10275897324E+01  0.10274598064E+01 0.  0.
     999903    2    3    3    0    0 -0.77015641616E-01 -0.10197183389E+00 -0.39821908969E-01  0.13539993969E+00  0.20437594613E-01 0.  0.
         14    1    1    2    0    0 -0.15356300066E-01 -0.34603077845E-02 -0.43834534639E-02  0.16340267622E-01  0.00000000000E+00 0. -1.
     999901    1    3    3    0    0  0.92371941682E-01  0.10543214168E+00  0.44205362433E-01  0.89218979269E+00  0.88000000000E+00 0.  1.
        -11    1    4    4    0    0 -0.54722544823E-01 -0.85334810375E-01 -0.27996863933E-01  0.10516973084E+00  0.51100000000E-03 0.  1.
         11    1    4    4    0    0 -0.22293096793E-01 -0.16637023516E-01 -0.11825045036E-01  0.30230208852E-01  0.51100000000E-03 0. -1.
</event>
<event>
 8    1  0.1694079E+005  0.1043930E+01  0.7957747E-01            NaN
         13   -1    0    0    0    0  0.00000000000E+00  0.00000000000E+00  0.74505805969E-08  0.10566000000E+00  0.10566000000E+00 0.  1.
     999900   -1    0    0    0    0 -0.00000000000E+00 -0.00000000000E+00 -0.74505805969E-08  0.93827000000E+00  0.93827000000E+00 0. -1.
     999902    2    1    2    0    0  0.21181965735E-01 -0.13344589941E-01  0.28628221109E-02  0.10187317956E+01  0.10184201107E+01 0.  0.
     999903    2    3    3    0    0  0.10502442567E-02  0.24016280035E-01 -0.12465408776E+00  0.12852862606E+00  0.20076887217E-01 0.  0.
         14    1    1    2    0    0 -0.21181965735E-01  0.13344589941E-01 -0.28628221109E-02  0.25198204371E-01  0.00000000000E+00 0. -1.
     999901    1    3    3    0    0  0.20131721479E-01 -0.37360869975E-01  0.12751690987E+00  0.89020316957E+00  0.88000000000E+00 0.  1.
        -11    1    4    4    0    0 -0.66347879653E-02  0.36830871606E-02 -0.55989758149E-01  0.56503979337E-01  0.51100000000E-03 0.  1.
         11    1    4    4    0    0  0.76850322220E-02  0.20333192874E-01 -0.68664329613E-01  0.72024646718E-01  0.51100000000E-03 0. -1.
</event>
<event>
 8    1  0.1191842E+005  0.1043930E+01  0.7957747E-01            NaN
         13   -1    0    0    0    0  0.00000000000E+00  0.00000000000E+00  0.74505805969E-08  0.10566000000E+00  0.10566000000E+00 0.  1.
     999900   -1    0    0    0    0 -0.00000000000E+00 -0.00000000000E+00 -0.74505805969E-08  0.93827000000E+00  0.93827000000E+00 0. -1.
     999902    2    1    2    0    0  0.24139224250E-01 -0.20897208582E-02  0.40311882933E-02  0.10193674358E+01  0.10190714644E+01 0.  0.
     999903    2    3    3    0    0  0.62127746282E-01 -0.81410218229E-01 -0.79153709888E-01  0.13107998436E+00  0.20716467393E-01 0.  0.
         14    1    1    2    0    0 -0.24139224250E-01  0.20897208582E-02 -0.40311882933E-02  0.24562564192E-01  0.00000000000E+00 0. -1.
     999901    1    3    3    0    0 -0.37988522032E-01  0.79320497371E-01  0.83184898181E-01  0.88828745145E+00  0.88000000000E+00 0.  1.
        -11    1    4    4    0    0  0.91237026357E-02 -0.61893464890E-02 -0.16135237367E-01  0.19548835404E-01  0.51100000000E-03 0.  1.
         11    1    4    4    0    0  0.53004043646E-01 -0.75220871740E-01 -0.63018472520E-01  0.11153114896E+00  0.51100000000E-03 0. -1.
</event>
<event>
 8    1  0.1191842E+005  0.1043930E+01  0.7957747E-01            NaN
         13   -1    0    0    0    0  0.00000000000E+00  0.00000000000E+00  0.74505805969E-08  0.10566000000E+00  0.10566000000E+00 0. -1.
     999900   -1    0    0    0    0 -0.00000000000E+00 -0.00000000000E+00 -0.74505805969E-08  0.93827000000E+00  0.93827000000E+00 0.  1.
     999902    2    1    2    0    0 -0.15084506207E-01 -0.17515822775E-01 -0.19020003389E-02  0.10207359495E+01  0.10204723977E+01 0.  0.
     999903    2    3    3    0    0 -0.13066199619E+00  0.70054752813E-02  0.10042974443E-01  0.13275952372E+00  0.20064791815E-01 0.  0.
         14    1    1    2    0    0  0.15084506207E-01  0.17515822775E-01  0.19020003389E-02  0.23194050537E-01  0.00000000000E+00 0. -1.
     999901    1    3    3    0    0  0.11557748998E+00 -0.24521298057E-01 -0.11944974781E-01  0.88797642574E+00  0.88000000000E+00 0. -1.
        -11    1    4    4    0    0 -0.32189202473E-01  0.10299063990E-01  0.98551920428E-03  0.33814905649E-01  0.51100000000E-03 0.  1.
         11    1    4    4    0    0 -0.98472793718E-01 -0.32935887089E-02  0.90574552383E-02  0.98944618073E-01  0.51100000000E-03 0. -1.
</event>
<event>
 8    1  0.1191842E+005  0.1043930E+01  0.7957747E-01            NaN
         13   -1    0    0    0    0  0.00000000000E+00  0.00000000000E+00  0.74505805969E-08  0.10566000000E+00  0.10566000000E+00 0. -1.
     999900   -1    0    0    0    0 -0.00000000000E+00 -0.00000000000E+00 -0.74505805969E-08  0.93827000000E+00  0.93827000000E+00 0. -1.
     999902    2    1    2    0    0  0.88946942782E-02  0.49944317947E-02  0.18703992197E-01  0.10226250884E+01  0.10224031358E+01 0.  0.
     999903    2    3    3    0    0  0.10957312038E+00  0.74252858399E-01  0.71681208473E-02  0.13410612321E+00  0.20330141031E-01 0.  0.
         14    1    1    2    0    0 -0.88946942782E-02 -0.49944317947E-02 -0.18703992197E-01  0.21304911625E-01  0.00000000000E+00 0.  1.
     999901    1    3    3    0    0 -0.10067842610E+00 -0.69258426604E-01  0.11535871350E-01  0.88851896517E+00  0.88000000000E+00 0. -1.
        -11    1    4    4    0    0  0.28003221742E-01  0.26163505169E-01  0.91087143287E-02  0.39394659897E-01  0.51100000000E-03 0. -1.
         11    1    4    4    0    0  0.81569898639E-01  0.48089353229E-01 -0.19405934814E-02  0.94711463308E-01  0.51100000000E-03 0.  1.
</event>
<event>
 8    1  0.1191842E+005  0.1043930E+01  0.7957747E-01            NaN
         13   -1    0    0    0    0  0.00000000000E+00  0.00000000000E+00  0.74505805969E-08  0.10566000000E+00  0.10566000000E+00 0. -1.
     999900   -1    0    0    0    0 -0.00000000000E+00 -0.00000000000E+00 -0.74505805969E-08  0.93827000000E+00  0.93827000000E+00 0.  1.
     999902    2    1    2    0    0 -0.86574629322E-02  0.13915125229E-01  0.17424003413E-01  0.10200097519E+01  0.10197292365E+01 0.  0.
     999903    2    3    3    0    0  0.73583163631E-01 -0.94352414668E-01 -0.40291300736E-01  0.12770014353E+00  0.19159269761E-01 0.  0.
         14    1    1    2    0    0  0.86574629322E-02 -0.13915125229E-01 -0.17424003413E-01  0.23920248107E-01  0.00000000000E+00 0.  1.
     999901    1    3    3    0    0 -0.82240626564E-01  0.10826753990E+00  0.57715304149E-01  0.89230960837E+00  0.88000000000E+00 0.  1.
        -11    1    4    4    0    0  0.42512197824E-01 -0.55284066391E-01 -0.13467624625E-01  0.71029944351E-01  0.51100000000E-03 0.  1.
         11    1    4    4    0    0  0.31070965807E-01 -0.39068348277E-01 -0.26823676112E-01  0.56670199174E-01  0.51100000000E-03 0. -1.
</event>
<event>
 8    1  0.1191842E+005  0.1043930E+01  0.7957747E-01            NaN
         13   -1    0    0    0    0  0.00000000000E+00  0.00000000000E+00  0.74505805969E-08  0.10566000000E+00  0.10566000000E+00 0. -1.
     999900   -1    0    0    0    0 -0.00000000000E+00 -0.00000000000E+00 -0.74505805969E-08  0.93827000000E+00  0.93827000000E+00 0. -1.
     999902    2    1    2    0    0  0.11956668711E-01  0.18510174280E-01  0.85001640223E-02  0.10203113365E+01  0.10200379317E+01 0.  0.
     999903    2    3    3    0    0 -0.84451679898E-01  0.97149415316E-01 -0.15589721440E-01  0.13123371191E+00  0.20227520685E-01 0.  0.
         14    1    1    2    0    0 -0.11956668711E-01 -0.18510174280E-01 -0.85001640223E-02  0.23618663530E-01  0.00000000000E+00 0.  1.
     999901    1    3    3    0    0  0.96408348609E-01 -0.78639241036E-01  0.24089885463E-01  0.88907762456E+00  0.88000000000E+00 0.  1.
        -11    1    4    4    0    0 -0.59864081027E-01  0.71195457130E-01 -0.20183743823E-01  0.95184798938E-01  0.51100000000E-03 0.  1.
         11    1    4    4    0    0 -0.24587598871E-01  0.25953958186E-01  0.45940223823E-02  0.36048912972E-01  0.51100000000E-03 0. -1.
</event>
<event>
 8    1  0.1191842E+005  0.1043930E+01  0.7957747E-01            NaN
         13   -1    0    0    0    0  0.00000000000E+00  0.00000000000E+00  0.74505805969E-08  0.10566000000E+00  0.10566000000E+00 0. -1.
     999900   -1    0    0    0    0 -0.00000000000E+00 -0.00000000000E+00 -0.74505805969E-08  0.93827000000E+00  0.93827000000E+00 0. -1.
     999902    2    1    2    0    0 -0.43461300515E-02 -0.11961878840E-01  0.20284620908E-01  0.10199833669E+01  0.10197022249E+01 0.  0.
     999903    2    3    3    0    0 -0.46938710656E-01 -0.25725459046E-01  0.12008429485E+00  0.13321195385E+00  0.21450990153E-01 0.  0.
         14    1    1    2    0    0  0.43461300515E-02  0.11961878840E-01 -0.20284620908E-01  0.23946633107E-01  0.00000000000E+00 0.  1.
     999901    1    3    3    0    0  0.42592580605E-01  0.13763580206E-01 -0.99799673944E-01  0.88677141304E+00  0.88000000000E+00 0. -1.
        -11    1    4    4    0    0 -0.29946339170E-01 -0.52683439845E-02  0.53976348825E-01  0.61953579651E-01  0.51100000000E-03 0.  1.
         11    1    4    4    0    0 -0.16992371487E-01 -0.20457115061E-01  0.66107946026E-01  0.71258374204E-01  0.51100000000E-03 0. -1.
</event>
<event>
 8    1  0.1191842E+005  0.1043930E+01  0.7957747E-01            NaN
         13   -1    0    0    0    0  0.00000000000E+00  0.00000000000E+00  0.74505805969E-08  0.10566000000E+00  0.10566000000E+00 0. -1.
     999900   -1    0    0    0    0 -0.00000000000E+00 -0.00000000000E+00 -0.74505805969E-08  0.93827000000E+00  0.93827000000E+00 0.  1.
     999902    2    1    2    0    0  0.19405393426E-01 -0.53176838886E-02  0.10265048539E-01  0.10213419882E+01  0.10210921793E+01 0.  0.
     999903    2    3    3    0    0  0.22186111949E-01  0.38195667148E-01 -0.12114606294E+00  0.13051651464E+00  0.20175715005E-01 0.  0.
         14    1    1    2    0    0 -0.19405393426E-01  0.53176838886E-02 -0.10265048539E-01  0.22588011808E-01  0.00000000000E+00 0.  1.
     999901    1    3    3    0    0 -0.27807185232E-02 -0.43513351037E-01  0.13141111147E+00  0.89082547355E+00  0.88000000000E+00 0. -1.
        -11    1    4    4    0    0 -0.63461594028E-04  0.18297235791E-01 -0.54434451284E-01  0.57429639321E-01  0.51100000000E-03 0.  1.
         11    1    4    4    0    0  0.22249573543E-01  0.19898431357E-01 -0.66711611652E-01  0.73086875317E-01  0.51100000000E-03 0. -1.
</event>
<event>
 8    1  0.1191842E+005  0.1043930E+01  0.7957747E-01            NaN
         13   -1    0    0    0    0  0.00000000000E+00  0.00000000000E+00  0.74505805969E-08  0.10566000000E+00  0.10566000000E+00 0. -1.
     999900   -1    0    0    0    0 -0.00000000000E+00 -0.00000000000E+00 -0.74505805969E-08  0.93827000000E+00  0.93827000000E+00 0.  1.
     999902    2    1    2    0    0 -0.18035610829E-01 -0.73777983105E-02 -0.93551709094E-02  0.10223143948E+01  0.10220858513E+01 0.  0.
     999903    2    3    3    0    0  0.43071059991E-01  0.10431954689E+00  0.61775494721E-01  0.13031109113E+00  0.20666026522E-01 0.  0.
         14    1    1    2    0    0  0.18035610829E-01  0.73777983105E-02  0.93551709094E-02  0.21615605211E-01  0.00000000000E+00 0. -1.
     999901    1    3    3    0    0 -0.61106670819E-01 -0.11169734520E+00 -0.71130665631E-01  0.89200330366E+00  0.88000000000E+00 0.  1.
        -11    1    4    4    0    0  0.38307768468E-01  0.75929481831E-01  0.38817908333E-01  0.93487231559E-01  0.51100000000E-03 0.  1.
         11    1    4    4    0    0  0.47632915222E-02  0.28390065057E-01  0.22957586388E-01  0.36823859573E-01  0.51100000000E-03 0. -1.
</event>
<event>
 8    1  0.1191842E+005  0.1043930E+01  0.7957747E-01            NaN
         13   -1    0    0    0    0  0.00000000000E+00  0.00000000000E+00  0.74505805969E-08  0.10566000000E+00  0.10566000000E+00 0.  1.
     999900   -1    0    0    0    0 -0.00000000000E+00 -0.00000000000E+00 -0.74505805969E-08  0.93827000000E+00  0.93827000000E+00 0.  1.
     999902    2    1    2    0    0 -0.20709210653E-01 -0.13953728601E-01  0.78317072918E-03  0.10189461792E+01  0.10186398405E+01 0.  0.
     999903    2    3    3    0    0  0.80237804737E-01  0.80833206411E-02  0.96946050757E-01  0.12769804819E+00  0.20119875037E-01 0.  0.
         14    1    1    2    0    0  0.20709210653E-01  0.13953728601E-01 -0.78317072918E-03  0.24983820848E-01  0.00000000000E+00 0. -1.
     999901    1    3    3    0    0 -0.10094701539E+00 -0.22037049243E-01 -0.96162880027E-01  0.89124813097E+00  0.88000000000E+00 0.  1.
        -11    1    4    4    0    0  0.20147652613E-01  0.96259741531E-02  0.33819442873E-01  0.40529040471E-01  0.51100000000E-03 0.  1.
         11    1    4    4    0    0  0.60090152125E-01 -0.15426535120E-02  0.63126607883E-01  0.87169007715E-01  0.51100000000E-03 0. -1.
</event>
<event>
 8    1  0.1191842E+005  0.1043930E+01  0.7957747E-01            NaN
         13   -1    0    0    0    0  0.00000000000E+00  0.00000000000E+00  0.74505805969E-08  0.10566000000E+00  0.10566000000E+00 0. -1.
     999900   -1    0    0    0    0 -0.00000000000E+00 -0.00000000000E+00 -0.74505805969E-08  0.93827000000E+00  0.93827000000E+00 0. -1.
     999902    2    1    2    0    0  0.11057721584E-01 -0.20434173695E-01 -0.91745547347E-02  0.10189499857E+01  0.10186437415E+01 0.  0.
     999903    2    3    3    0    0 -0.46568898205E-02 -0.80508596637E-01 -0.10245051939E+00  0.13184441648E+00  0.19583678914E-01 0.  0.
         14    1    1    2    0    0 -0.11057721584E-01  0.20434173695E-01  0.91745547347E-02  0.24980014328E-01  0.00000000000E+00 0. -1.
     999901    1    3    3    0    0  0.15714611405E-01  0.60074422941E-01  0.93275964653E-01  0.88710556919E+00  0.88000000000E+00 0.  1.
        -11    1    4    4    0    0 -0.37627251390E-02 -0.17246762809E-02 -0.44601937852E-02  0.61063129913E-02  0.51100000000E-03 0.  1.
         11    1    4    4    0    0 -0.89416468144E-03 -0.78783920356E-01 -0.97990325603E-01  0.12573810349E+00  0.51100000000E-03 0. -1.
</event>
<event>
 8    1  0.1191842E+005  0.1043930E+01  0.7957747E-01            NaN
         13   -1    0    0    0    0  0.00000000000E+00  0.00000000000E+00  0.74505805969E-08  0.10566000000E+00  0.10566000000E+00 0.  1.
     999900   -1    0    0    0    0 -0.00000000000E+00 -0.00000000000E+00 -0.74505805969E-08  0.93827000000E+00  0.93827000000E+00 0.  1.
     999902    2    1    2    0    0 -0.45560612615E-02  0.79044862517E-02 -0.21145508374E-01  0.10209002123E+01  0.10206404227E+01 0.  0.
     999903    2    3    3    0    0  0.11341023049E+00 -0.77569026978E-02  0.58229707001E-01  0.12935001746E+00  0.20461630457E-01 0.  0.
         14    1    1    2    0    0  0.45560612615E-02 -0.79044862517E-02  0.21145508374E-01  0.23029787701E-01  0.00000000000E+00 0.  1.
     999901    1    3    3    0    0 -0.11796629175E+00  0.15661388949E-01 -0.79375215375E-01  0.89155019483E+00  0.88000000000E+00 0.  1.
        -11    1    4    4    0    0  0.61777440377E-01 -0.76299300659E-02  0.21012007632E-01  0.65699570455E-01  0.51100000000E-03 0. -1.
         11    1    4    4    0    0  0.51632790116E-01 -0.12697263192E-03  0.37217699369E-01  0.63650447009E-01  0.51100000000E-03 0.  1.
</event>
<event>
 8    1  0.1191842E+005  0.1043930E+01  0.7957747E-01            NaN
         13   -1    0    0    0    0  0.00000000000E+00  0.00000000000E+00  0.74505805969E-08  0.10566000000E+00  0.10566000000E+00 0. -1.
     999900   -1    0    0    0    0 -0.00000000000E+00 -0.00000000000E+00 -0.74505805969E-08  0.93827000000E+00  0.93827000000E+00 0.  1.
     999902    2    1    2    0    0  0.71605738417E-02 -0.22101657533E-01 -0.50531754032E-03  0.10206918325E+01  0.10204272656E+01 0.  0.
     999903    2    3    3    0    0  0.12732384094E+00 -0.18359815395E-01  0.22858482764E-01  0.13221049937E+00  0.20215405387E-01 0.  0.
         14    1    1    2    0    0 -0.71605738417E-02  0.22101657533E-01  0.50531754032E-03  0.23238167511E-01  0.00000000000E+00 0.  1.
     999901    1    3    3    0    0 -0.12016326710E+00 -0.37418421376E-02 -0.23363800304E-01  0.88848133312E+00  0.88000000000E+00 0.  1.
        -11    1    4    4    0    0  0.58936992553E-01 -0.12572064323E-02  0.32629738357E-02  0.59042846971E-01  0.51100000000E-03 0.  1.
         11    1    4    4    0    0  0.68386848389E-01 -0.17102608963E-01  0.19595508928E-01  0.73167652396E-01  0.51100000000E-03 0. -1.
</event>
<event>
 8    1  0.1191842E+005  0.1043930E+01  0.7957747E-01            NaN
         13   -1    0    0    0    0  0.00000000000E+00  0.00000000000E+00  0.74505805969E-08  0.10566000000E+00  0.10566000000E+00 0.  1.
     999900   -1    0    0    0    0 -0.00000000000E+00 -0.00000000000E+00 -0.74505805969E-08  0.93827000000E+00  0.93827000000E+00 0. -1.
     999902    2    1    2    0    0  0.86987496031E-02  0.94450698950E-02  0.19116843393E-01  0.10209010771E+01  0.10206413072E+01 0.  0.
     999903    2    3    3    0    0  0.11080037782E+00  0.11356595088E-01  0.70841173623E-01  0.13348696700E+00  0.19864604270E-01 0.  0.
         14    1    1    2    0    0 -0.86987496031E-02 -0.94450698950E-02 -0.19116843393E-01  0.23028922929E-01  0.00000000000E+00 0. -1.
     999901    1    3    3    0    0 -0.10210162821E+00 -0.19115251932E-02 -0.51724330230E-01  0.88741411007E+00  0.88000000000E+00 0.  1.
        -11    1    4    4    0    0  0.63749543705E-01  0.71591444733E-02  0.52181554670E-01  0.82694821126E-01  0.51100000000E-03 0. -1.
         11    1    4    4    0    0  0.47050834111E-01  0.41974506150E-02  0.18659618952E-01  0.50792145876E-01  0.51100000000E-03 0.  1.
</event>
<event>
 8    1  0.1191842E+005  0.1043930E+01  0.7957747E-01            NaN
         13   -1    0    0    0    0  0.00000000000E+00  0.00000000000E+00  0.74505805969E-08  0.10566000000E+00  0.10566000000E+00 0. -1.
     999900   -1    0    0    0    0 -0.00000000000E+00 -0.00000000000E+00 -0.74505805969E-08  0.93827000000E+00  0.93827000000E+00 0. -1.
     999902    2    1    2    0    0  0.21511960466E-01  0.28832488155E-02 -0.10048095243E-01  0.10200126050E+01  0.10197321572E+01 0.  0.
     999903    2    3    3    0    0  0.70645125194E-01  0.10029461702E+00  0.43157120938E-01  0.13168055131E+00  0.20675748850E-01 0.  0.
         14    1    1    2    0    0 -0.21511960466E-01 -0.28832488155E-02  0.10048095243E-01  0.23917395026E-01  0.00000000000E+00 0. -1.
     999901    1    3    3    0    0 -0.49133164727E-01 -0.97411368201E-01 -0.53205216181E-01  0.88833205366E+00  0.88000000000E+00 0. -1.
        -11    1    4    4    0    0  0.30361981225E-01  0.26897190553E-01  0.11443434409E-01  0.42148808709E-01  0.51100000000E-03 0.  1.
         11    1    4    4    0    0  0.40283143968E-01  0.73397426464E-01  0.31713686529E-01  0.89531742604E-01  0.51100000000E-03 0. -1.
</event>
<event>
 8    1  0.1191842E+005  0.1043930E+01  0.7957747E-01            NaN
         13   -1    0    0    0    0  0.00000000000E+00  0.00000000000E+00  0.74505805969E-08  0.10566000000E+00  0.10566000000E+00 0. -1.
     999900   -1    0    0    0    0 -0.00000000000E+00 -0.00000000000E+00 -0.74505805969E-08  0.93827000000E+00  0.93827000000E+00 0.  1.
     999902    2    1    2    0    0  0.54956242396E-02  0.13287479849E-01 -0.15217457586E-01  0.10229936674E+01  0.10227794061E+01 0.  0.
     999903    2    3    3    0    0 -0.11109465975E+00 -0.63615028938E-01 -0.25175730637E-01  0.13192326763E+00  0.19520138243E-01 0.  0.
         14    1    1    2    0    0 -0.54956242396E-02 -0.13287479849E-01  0.15217457586E-01  0.20936332579E-01  0.00000000000E+00 0. -1.
     999901    1    3    3    0    0  0.11659028399E+00  0.76902508786E-01  0.99582730513E-02  0.89107039979E+00  0.88000000000E+00 0. -1.
        -11    1    4    4    0    0 -0.35726419091E-01 -0.20577317158E-01 -0.17501541299E-01  0.44792500168E-01  0.51100000000E-03 0. -1.
         11    1    4    4    0    0 -0.75368240661E-01 -0.43037711780E-01 -0.76741893382E-02  0.87130767463E-01  0.51100000000E-03 0.  1.
</event>
<event>
 8    1  0.1191842E+005  0.1043930E+01  0.7957747E-01            NaN
         13   -1    0    0    0    0  0.00000000000E+00  0.00000000000E+00  0.74505805969E-08  0.10566000000E+00  0.10566000000E+00 0. -1.
     999900   -1    0    0    0    0 -0.00000000000E+00 -0.00000000000E+00 -0.74505805969E-08  0.93827000000E+00  0.93827000000E+00 0.  1.
     999902    2    1    2    0    0 -0.64442482029E-02  0.21152674530E-01  0.27148547859E-02  0.10216514361E+01  0.10214084993E+01 0.  0.
     999903    2    3    3    0    0  0.97686467453E-01  0.45449405032E-01  0.74149575512E-01  0.13230535248E+00  0.19956262304E-01 0.  0.
         14    1    1    2    0    0  0.64442482029E-02 -0.21152674530E-01 -0.27148547859E-02  0.22278563939E-01  0.00000000000E+00 0.  1.
     999901    1    3    3    0    0 -0.10413071566E+00 -0.24296730502E-01 -0.71434720726E-01  0.88934608358E+00  0.88000000000E+00 0.  1.
        -11    1    4    4    0    0  0.68516412508E-01  0.25060863658E-01  0.58081284234E-01  0.93253645342E-01  0.51100000000E-03 0. -1.
         11    1    4    4    0    0  0.29170054945E-01  0.20388541374E-01  0.16068291278E-01  0.39051707138E-01  0.51100000000E-03 0.  1.
</event>
<event>
 8    1  0.1191842E+005  0.1043930E+01  0.7957747E-01            NaN
         13   -1    0    0    0    0  0.00000000000E+00  0.00000000000E+00  0.74505805969E-08  0.10566000000E+00  0.10566000000E+00 0. -1.
     999900   -1    0    0    0    0 -0.00000000000E+00 -0.00000000000E+00 -0.74505805969E-08  0.93827000000E+00  0.93827000000E+00 0.  1.
     999902    2    1    2    0    0 -0.48923448698E-02 -0.21131312351E-01 -0.92208645225E-02  0.10203611277E+01  0.10200888879E+01 0.  0.
     999903    2    3    3    0    0  0.57152742966E-01  0.83883425488E-01 -0.77282794622E-01  0.12934478977E+00  0.21320862931E-01 0.  0.
         14    1    1    2    0    0  0.48923448698E-02  0.21131312351E-01  0.92208645225E-02  0.23568872322E-01  0.00000000000E+00 0.  1.
     999901    1    3    3    0    0 -0.62045087835E-01 -0.10501473784E+00  0.68061930100E-01  0.89101633791E+00  0.88000000000E+00 0. -1.
        -11    1    4    4    0    0  0.29256302544E-01  0.40208389153E-01 -0.51013172677E-01  0.71240793822E-01  0.51100000000E-03 0.  1.
         11    1    4    4    0    0  0.27896440421E-01  0.43675036335E-01 -0.26269621945E-01  0.58103995949E-01  0.51100000000E-03 0. -1.
</event>
<event>
 7    1  0.1191842E+005  0.1043930E+01  0.7957747E-01            NaN
         13   -1    0    0    0    0  0.00000000000E+00  0.00000000000E+00  0.74505805969E-08  0.10566000000E+00  0.10566000000E+00 0.  1.
     999900   -1    0    0    0    0 -0.00000000000E+00 -0.00000000000E+00 -0.74505805969E-08  0.93827000000E+00  0.93827000000E+00 0.  1.
     999903    2    1    2    0    0 -0.94727119283E-01  0.47814745808E-01  0.43580987141E-01  0.11649810897E+00  0.20323137295E-01 0.  0.
         14    1    1    2    0    0  0.13892784900E-01  0.10906212555E-01 -0.37840648405E-01  0.41759664945E-01  0.00000000000E+00 0. -1.
     999901    1    1    2    0    0  0.80834334383E-01 -0.58720958363E-01 -0.57403387360E-02  0.88567222608E+00  0.88000000000E+00 0. -1.
        -11    1    3    3    0    0 -0.38915058700E-01  0.23033877422E-01  0.28966849055E-01  0.53705500351E-01  0.51100000000E-03 0.  1.
         11    1    3    3    0    0 -0.55812060583E-01  0.24780868386E-01  0.14614138085E-01  0.62792608622E-01  0.51100000000E-03 0. -1.
</event>
<event>
 8    1  0.1191842E+005  0.1043930E+01  0.7957747E-01            NaN
         13   -1    0    0    0    0  0.00000000000E+00  0.00000000000E+00  0.74505805969E-08  0.10566000000E+00  0.10566000000E+00 0. -1.
     999900   -1    0    0    0    0 -0.00000000000E+00 -0.00000000000E+00 -0.74505805969E-08  0.93827000000E+00  0.93827000000E+00 0.  1.
     999902    2    1    2    0    0  0.53348146358E-02 -0.19181472215E-01 -0.13184771649E-01  0.10200505669E+01  0.10197710192E+01 0.  0.
     999903    2    3    3    0    0  0.10495438953E+00  0.25786240932E-01  0.68279749492E-01  0.12955484922E+00  0.21023336154E-01 0.  0.
         14    1    1    2    0    0 -0.53348146358E-02  0.19181472215E-01  0.13184771649E-01  0.23879433138E-01  0.00000000000E+00 0. -1.
     999901    1    3    3    0    0 -0.99619574897E-01 -0.44967713148E-01 -0.81464521140E-01  0.89049571764E+00  0.88000000000E+00 0.  1.
        -11    1    4    4    0    0  0.60805733486E-01  0.49593360100E-02  0.42453728046E-01  0.74327063607E-01  0.51100000000E-03 0. -1.
         11    1    4    4    0    0  0.44148656047E-01  0.20826904922E-01  0.25826021445E-01  0.55227785617E-01  0.51100000000E-03 0.  1.
</event>
<event>
 8    1  0.1191842E+005  0.1043930E+01  0.7957747E-01            NaN
         13   -1    0    0    0    0  0.00000000000E+00  0.00000000000E+00  0.74505805969E-08  0.10566000000E+00  0.10566000000E+00 0.  1.
     999900   -1    0    0    0    0 -0.00000000000E+00 -0.00000000000E+00 -0.74505805969E-08  0.93827000000E+00  0.93827000000E+00 0.  1.
     999902    2    1    2    0    0  0.65942212227E-02  0.98649766736E-02  0.20394902168E-01  0.10203343743E+01  0.10200615088E+01 0.  0.
     999903    2    3    3    0    0  0.11732729447E+00  0.77287664557E-02 -0.52456448276E-01  0.13040533433E+00  0.20698898410E-01 0.  0.
         14    1    1    2    0    0 -0.65942212227E-02 -0.98649766736E-02 -0.20394902168E-01  0.23595625712E-01  0.00000000000E+00 0. -1.
     999901    1    3    3    0    0 -0.11073307325E+00  0.21362102178E-02  0.72851350444E-01  0.88992903996E+00  0.88000000000E+00 0. -1.
        -11    1    4    4    0    0  0.49264611879E-01  0.86749390304E-02 -0.12845695047E-01  0.51648132135E-01  0.51100000000E-03 0. -1.
         11    1    4    4    0    0  0.68062682595E-01 -0.94617257465E-03 -0.39610753230E-01  0.78757202191E-01  0.51100000000E-03 0.  1.
</event>
<event>
 8    1  0.1191842E+005  0.1043930E+01  0.7957747E-01            NaN
         13   -1    0    0    0    0  0.00000000000E+00  0.00000000000E+00  0.74505805969E-08  0.10566000000E+00  0.10566000000E+00 0. -1.
     999900   -1    0    0    0    0 -0.00000000000E+00 -0.00000000000E+00 -0.74505805969E-08  0.93827000000E+00  0.93827000000E+00 0.  1.
     999902    2    1    2    0    0  0.46731379805E-02  0.10830697430E-01  0.20591246694E-01  0.10201993939E+01  0.10199233607E+01 0.  0.
     999903    2    3    3    0    0 -0.98645029934E-01  0.28989701748E-01  0.80230118239E-01  0.13196452166E+00  0.20162300648E-01 0.  0.
         14    1    1    2    0    0 -0.46731379805E-02 -0.10830697430E-01 -0.20591246694E-01  0.23730606098E-01  0.00000000000E+00 0.  1.
     999901    1    3    3    0    0  0.10331816791E+00 -0.18159004318E-01 -0.59638871545E-01  0.88823487224E+00  0.88000000000E+00 0.  1.
        -11    1    4    4    0    0 -0.66333623061E-01  0.10170995717E-01  0.55989032603E-01  0.87399265415E-01  0.51100000000E-03 0. -1.
         11    1    4    4    0    0 -0.32311406873E-01  0.18818706030E-01  0.24241085636E-01  0.44565256250E-01  0.51100000000E-03 0.  1.
</event>
<event>
 8    1  0.1191842E+005  0.1043930E+01  0.7957747E-01            NaN
         13   -1    0    0    0    0  0.00000000000E+00  0.00000000000E+00  0.74505805969E-08  0.10566000000E+00  0.10566000000E+00 0. -1.
     999900   -1    0    0    0    0 -0.00000000000E+00 -0.00000000000E+00 -0.74505805969E-08  0.93827000000E+00  0.93827000000E+00 0. -1.
     999902    2    1    2    0    0  0.15122644550E-01  0.18423977604E-01 -0.47181823715E-02  0.10196318813E+01  0.10193423246E+01 0.  0.
     999903    2    3    3    0    0 -0.26137829598E-01 -0.62124352141E-01 -0.10820262700E+00  0.12895826516E+00  0.19488571000E-01 0.  0.
         14    1    1    2    0    0 -0.15122644550E-01 -0.18423977604E-01  0.47181823715E-02  0.24298118730E-01  0.00000000000E+00 0. -1.
     999901    1    3    3    0    0  0.41260474148E-01  0.80548329745E-01  0.10348444463E+00  0.89067361611E+00  0.88000000000E+00 0.  1.
        -11    1    4    4    0    0 -0.13631806760E-01 -0.51255871844E-01 -0.75159163519E-01  0.91989953451E-01  0.51100000000E-03 0.  1.
         11    1    4    4    0    0 -0.12506022838E-01 -0.10868480298E-01 -0.33043463477E-01  0.36968311712E-01  0.51100000000E-03 0. -1.
</event>
<event>
 8    1  0.1191842E+005  0.1043930E+01  0.7957747E-01            NaN
         13   -1    0    0    0    0  0.00000000000E+00  0.00000000000E+00  0.74505805969E-08  0.10566000000E+00  0.10566000000E+00 0. -1.
     999900   -1    0    0    0    0 -0.00000000000E+00 -0.00000000000E+00 -0.74505805969E-08  0.93827000000E+00  0.93827000000E+00 0. -1.
     999902    2    1    2    0    0 -0.33967555410E-02  0.22456228686E-01  0.79895105975E-02  0.10198540279E+01  0.10195698042E+01 0.  0.
     999903    2    3    3    0    0 -0.64597636324E-01  0.27391720724E-01  0.10974847917E+00  0.13186484179E+00  0.20504800352E-01 0.  0.
         14    1    1    2    0    0  0.33967555410E-02 -0.22456228686E-01 -0.79895105975E-02  0.24075972142E-01  0.00000000000E+00 0.  1.
     999901    1    3    3    0    0  0.61200880783E-01 -0.49354920380E-02 -0.10175896857E+00  0.88798918607E+00  0.88000000000E+00 0. -1.
        -11    1    4    4    0    0 -0.24025652289E-01  0.13280126717E-01  0.60965005357E-01  0.66862446356E-01  0.51100000000E-03 0. -1.
         11    1    4    4    0    0 -0.40571984035E-01  0.14111594007E-01  0.48783473811E-01  0.65002395433E-01  0.51100000000E-03 0.  1.
</event>
<event>
 8    1  0.1191842E+005  0.1043930E+01  0.7957747E-01            NaN
         13   -1    0    0    0    0  0.00000000000E+00  0.00000000000E+00  0.74505805969E-08  0.10566000000E+00  0.10566000000E+00 0.  1.
     999900   -1    0    0    0    0 -0.00000000000E+00 -0.00000000000E+00 -0.74505805969E-08  0.93827000000E+00  0.93827000000E+00 0.  1.
     999902    2    1    2    0    0  0.10901671216E-01  0.18639745866E-01  0.33356893774E-03  0.10223337543E+01  0.10221056243E+01 0.  0.
     999903    2    3    3    0    0  0.68728288716E-02  0.83713220496E-01  0.10244576594E+00  0.13403330429E+00  0.20363021323E-01 0.  0.
         14    1    1    2    0    0 -0.10901671216E-01 -0.18639745866E-01 -0.33356893774E-03  0.21596245727E-01  0.00000000000E+00 0. -1.
     999901    1    3    3    0    0  0.40288423445E-02 -0.65073474630E-01 -0.10211219700E+00  0.88830044999E+00  0.88000000000E+00 0.  1.
        -11    1    4    4    0    0 -0.49183549244E-02  0.37605144655E-01  0.35944835446E-01  0.52255424943E-01  0.51100000000E-03 0. -1.
         11    1    4    4    0    0  0.11791183796E-01  0.46108075841E-01  0.66500930489E-01  0.81777879344E-01  0.51100000000E-03 0.  1.
</event>
<event>
 8    1  0.1191842E+005  0.1043930E+01  0.7957747E-01            NaN
         13   -1    0    0    0    0  0.00000000000E+00  0.00000000000E+00  0.74505805969E-08  0.10566000000E+00  0.10566000000E+00 0. -1.
     999900   -1    0    0    0    0 -0.00000000000E+00 -0.00000000000E+00 -0.74505805969E-08  0.93827000000E+00  0.93827000000E+00 0. -1.
     999902    2    1    2    0    0 -0.86232466226E-02  0.75221251613E-02  0.23720121842E-01  0.10175939614E+01  0.10172531068E+01 0.  0.
     999903    2    3    3    0    0 -0.15470077470E-02  0.87070297201E-01  0.95913820801E-01  0.13103323871E+00  0.19662622900E-01 0.  0.
         14    1    1    2    0    0  0.86232466226E-02 -0.75221251613E-02 -0.23720121842E-01  0.26336038606E-01  0.00000000000E+00 0.  1.
     999901    1    3    3    0    0 -0.70762388757E-02 -0.79548172040E-01 -0.72193698959E-01  0.88656072268E+00  0.88000000000E+00 0. -1.
        -11    1    4    4    0    0 -0.88837811364E-02  0.39268188606E-01  0.35790677571E-01  0.53871568806E-01  0.51100000000E-03 0.  1.
         11    1    4    4    0    0  0.73367733895E-02  0.47802108596E-01  0.60123143230E-01  0.77161669907E-01  0.51100000000E-03 0. -1.
</event>
<event>
 8    1  0.1191842E+005  0.1043930E+01  0.7957747E-01            NaN
         13   -1    0    0    0    0  0.00000000000E+00  0.00000000000E+00  0.74505805969E-08  0.10566000000E+00  0.10566000000E+00 0.  1.
     999900   -1    0    0    0    0 -0.00000000000E+00 -0.00000000000E+00 -0.74505805969E-08  0.93827000000E+00  0.93827000000E+00 0. -1.
     999902    2    1    2    0    0 -0.16510375410E-01 -0.13100324118E-01  0.10827922885E-01  0.10202349604E+01  0.10199597637E+01 0.  0.
     999903    2    3    3    0    0 -0.11706279339E+00 -0.59807302957E-01 -0.21236572956E-02  0.13318362362E+00  0.21278077844E-01 0.  0.
         14    1    1    2    0    0  0.16510375410E-01  0.13100324118E-01 -0.10827922885E-01  0.23695039611E-01  0.00000000000E+00 0. -1.
     999901    1    3    3    0    0  0.10055241798E+00  0.46706978839E-01  0.12951580181E-01  0.88705133677E+00  0.88000000000E+00 0.  1.
        -11    1    4    4    0    0 -0.76960954748E-01 -0.38788577856E-01  0.87181118410E-02  0.86624528414E-01  0.51100000000E-03 0.  1.
         11    1    4    4    0    0 -0.40101838643E-01 -0.21018725101E-01 -0.10841769137E-01  0.46559095206E-01  0.51100000000E-03 0. -1.
</event>
<event>
 8    1  0.1191842E+005  0.1043930E+01  0.7957747E-01            NaN
         13   -1    0    0    0    0  0.00000000000E+00  0.00000000000E+00  0.74505805969E-08  0.10566000000E+00  0.10566000000E+00 0. -1.
     999900   -1    0    0    0    0 -0.00000000000E+00 -0.00000000000E+00 -0.74505805969E-08  0.93827000000E+00  0.93827000000E+00 0. -1.
     999902    2    1    2    0    0 -0.10866215837E-01 -0.21774576140E-01 -0.23917526454E-03  0.10195935250E+01  0.10193030423E+01 0.  0.
     999903    2    3    3    0    0 -0.88435308925E-01  0.78153263560E-01  0.48556416496E-01  0.12920959253E+00  0.20215260302E-01 0.  0.
         14    1    1    2    0    0  0.10866215837E-01  0.21774576140E-01  0.23917526454E-03  0.24336475043E-01  0.00000000000E+00 0.  1.
     999901    1    3    3    0    0  0.77569093088E-01 -0.99927839700E-01 -0.48795591760E-01  0.89038393243E+00  0.88000000000E+00 0. -1.
        -11    1    4    4    0    0 -0.60700573468E-01  0.54612097478E-01  0.23275160378E-01  0.84906036428E-01  0.51100000000E-03 0.  1.
         11    1    4    4    0    0 -0.27734735457E-01  0.23541166082E-01  0.25281256118E-01  0.44303556102E-01  0.51100000000E-03 0. -1.
</event>
<event>
 8    1  0.1191842E+005  0.1043930E+01  0.7957747E-01            NaN
         13   -1    0    0    0    0  0.00000000000E+00  0.00000000000E+00  0.74505805969E-08  0.10566000000E+00  0.10566000000E+00 0. -1.
     999900   -1    0    0    0    0 -0.00000000000E+00 -0.00000000000E+00 -0.74505805969E-08  0.93827000000E+00  0.93827000000E+00 0.  1.
     999902    2    1    2    0    0  0.16143756313E-01  0.17549301493E-01 -0.28413565887E-02  0.10199160008E+01  0.10196332559E+01 0.  0.
     999903    2    3    3    0    0  0.35161788184E-02 -0.98235415450E-01  0.80128640427E-01  0.12837263292E+00  0.19909131158E-01 0.  0.
         14    1    1    2    0    0 -0.16143756313E-01 -0.17549301493E-01  0.28413565887E-02  0.24013999210E-01  0.00000000000E+00 0.  1.
     999901    1    3    3    0    0  0.12627577494E-01  0.11578471694E+00 -0.82969997016E-01  0.89154336787E+00  0.88000000000E+00 0.  1.
        -11    1    4    4    0    0  0.17461261140E-02 -0.72561061598E-01  0.47215571986E-01  0.86589421846E-01  0.51100000000E-03 0. -1.
         11    1    4    4    0    0  0.17700527044E-02 -0.25674353853E-01  0.32913068441E-01  0.41783211073E-01  0.51100000000E-03 0.  1.
</event>
<event>
 8    1  0.1191842E+005  0.1043930E+01  0.7957747E-01            NaN
         13   -1    0    0    0    0  0.00000000000E+00  0.00000000000E+00  0.74505805969E-08  0.10566000000E+00  0.10566000000E+00 0. -1.
     999900   -1    0    0    0    0 -0.00000000000E+00 -0.00000000000E+00 -0.74505805969E-08  0.93827000000E+00  0.93827000000E+00 0.  1.
     999902    2    1    2    0    0  0.14294416106E-01 -0.55405156787E-02  0.17305225023E-01  0.10208107773E+01  0.10205489428E+01 0.  0.
     999903    2    3    3    0    0 -0.58203715019E-01  0.11388372485E+00  0.60419316915E-02  0.12971875621E+00  0.20815271944E-01 0.  0.
         14    1    1    2    0    0 -0.14294416106E-01  0.55405156787E-02 -0.17305225023E-01  0.23119222714E-01  0.00000000000E+00 0.  1.
     999901    1    3    3    0    0  0.72498131126E-01 -0.11942424053E+00  0.11263293331E-01  0.89109202107E+00  0.88000000000E+00 0. -1.
        -11    1    4    4    0    0 -0.18009276174E-01  0.55192881976E-01  0.76680448291E-02  0.58563199039E-01  0.51100000000E-03 0.  1.
         11    1    4    4    0    0 -0.40194438845E-01  0.58690842878E-01 -0.16261131375E-02  0.71155557174E-01  0.51100000000E-03 0. -1.
</event>
<event>
 8    1  0.1191842E+005  0.1043930E+01  0.7957747E-01            NaN
         13   -1    0    0    0    0  0.00000000000E+00  0.00000000000E+00  0.74505805969E-08  0.10566000000E+00  0.10566000000E+00 0. -1.
     999900   -1    0    0    0    0 -0.00000000000E+00 -0.00000000000E+00 -0.74505805969E-08  0.93827000000E+00  0.93827000000E+00 0. -1.
     999902    2    1    2    0    0  0.21648164288E-01 -0.34173471972E-03  0.80798884354E-02  0.10208205994E+01  0.10205589898E+01 0.  0.
     999903    2    3    3    0    0  0.41719002304E-01  0.45817128894E-01 -0.11375226888E+00  0.13100232930E+00  0.19553699174E-01 0.  0.
         14    1    1    2    0    0 -0.21648164288E-01  0.34173471972E-03 -0.80798884354E-02  0.23109400615E-01  0.00000000000E+00 0.  1.
     999901    1    3    3    0    0 -0.20070838016E-01 -0.46158863613E-01  0.12183215732E+00  0.88981827009E+00  0.88000000000E+00 0.  1.
        -11    1    4    4    0    0  0.26767773719E-01  0.15110399263E-01 -0.57087836200E-01  0.64839185981E-01  0.51100000000E-03 0. -1.
         11    1    4    4    0    0  0.14951228585E-01  0.30706729631E-01 -0.56664432683E-01  0.66163143314E-01  0.51100000000E-03 0.  1.
</event>
<event>
 8    1  0.1191842E+005  0.1043930E+01  0.7957747E-01            NaN
         13   -1    0    0    0    0  0.00000000000E+00  0.00000000000E+00  0.74505805969E-08  0.10566000000E+00  0.10566000000E+00 0.  1.
     999900   -1    0    0    0    0 -0.00000000000E+00 -0.00000000000E+00 -0.74505805969E-08  0.93827000000E+00  0.93827000000E+00 0. -1.
     999902    2    1    2    0    0  0.96063807254E-02 -0.21279800880E-01 -0.74101642672E-02  0.10194346329E+01  0.10191402983E+01 0.  0.
     999903    2    3    3    0    0  0.54785869523E-01  0.10677264128E+00 -0.41121644492E-01  0.12838184092E+00  0.19723564777E-01 0.  0.
         14    1    1    2    0    0 -0.96063807254E-02  0.21279800880E-01  0.74101642672E-02  0.24495367125E-01  0.00000000000E+00 0.  1.
     999901    1    3    3    0    0 -0.45179488798E-01 -0.12805244216E+00  0.33711480225E-01  0.89105279195E+00  0.88000000000E+00 0.  1.
        -11    1    4    4    0    0  0.37060369810E-01  0.82472738484E-01 -0.38204941942E-01  0.98158557005E-01  0.51100000000E-03 0.  1.
         11    1    4    4    0    0  0.17725499713E-01  0.24299902794E-01 -0.29167025501E-02  0.30223283915E-01  0.51100000000E-03 0. -1.
</event>
<event>
 8    1  0.1191842E+005  0.1043930E+01  0.7957747E-01            NaN
         13   -1    0    0    0    0  0.00000000000E+00  0.00000000000E+00  0.74505805969E-08  0.10566000000E+00  0.10566000000E+00 0.  1.
     999900   -1    0    0    0    0 -0.00000000000E+00 -0.00000000000E+00 -0.74505805969E-08  0.93827000000E+00  0.93827000000E+00 0. -1.
     999902    2    1    2    0    0  0.41471120778E-02 -0.17688646646E-01  0.14535537900E-01  0.10206626705E+01  0.10203974316E+01 0.  0.
     999903    2    3    3    0    0  0.73615987353E-01 -0.83195131939E-01 -0.67596829332E-01  0.13169543266E+00  0.20823354113E-01 0.  0.
         14    1    1    2    0    0 -0.41471120778E-02  0.17688646646E-01 -0.14535537900E-01  0.23267329473E-01  0.00000000000E+00 0. -1.
     999901    1    3    3    0    0 -0.69468875275E-01  0.65506485293E-01  0.82132367232E-01  0.88896723786E+00  0.88000000000E+00 0.  1.
        -11    1    4    4    0    0  0.38289662907E-01 -0.47407362690E-01 -0.25300679641E-01  0.65984405991E-01  0.51100000000E-03 0. -1.
         11    1    4    4    0    0  0.35326324446E-01 -0.35787769249E-01 -0.42296149691E-01  0.65711026673E-01  0.51100000000E-03 0.  1.
</event>
<event>
 8    1  0.1191842E+005  0.1043930E+01  0.7957747E-01            NaN
         13   -1    0    0    0    0  0.00000000000E+00  0.00000000000E+00  0.74505805969E-08  0.10566000000E+00  0.10566000000E+00 0. -1.
     999900   -1    0    0    0    0 -0.00000000000E+00 -0.00000000000E+00 -0.74505805969E-08  0.93827000000E+00  0.93827000000E+00 0. -1.
     999902    2    1    2    0    0  0.78083460976E-02 -0.16295099747E-01 -0.10873333596E-01  0.10228413792E+01  0.10226239568E+01 0.  0.
     999903    2    3    3    0    0  0.39678627007E-01  0.84588300834E-01 -0.92249260028E-01  0.13277665304E+00  0.19751950219E-01 0.  0.
         14    1    1    2    0    0 -0.78083460976E-02  0.16295099747E-01  0.10873333596E-01  0.21088620819E-01  0.00000000000E+00 0. -1.
     999901    1    3    3    0    0 -0.31870280910E-01 -0.10088340058E+00  0.81375926432E-01  0.89006472614E+00  0.88000000000E+00 0.  1.
        -11    1    4    4    0    0  0.33378470371E-01  0.67510639089E-01 -0.62371230117E-01  0.97786707388E-01  0.51100000000E-03 0.  1.
         11    1    4    4    0    0  0.63001566368E-02  0.17077661745E-01 -0.29878029911E-01  0.34989945652E-01  0.51100000000E-03 0. -1.
</event>
<event>
 8    1  0.1191842E+005  0.1043930E+01  0.7957747E-01            NaN
         13   -1    0    0    0    0  0.00000000000E+00  0.00000000000E+00  0.74505805969E-08  0.10566000000E+00  0.10566000000E+00 0. -1.
     999900   -1    0    0    0    0 -0.00000000000E+00 -0.00000000000E+00 -0.74505805969E-08  0.93827000000E+00  0.93827000000E+00 0.  1.
     999902    2    1    2    0    0  0.20520834194E-01 -0.36524851062E-02 -0.12736351219E-01  0.10195033767E+01  0.10192107119E+01 0.  0.
     999903    2    3    3    0    0  0.56494085255E-04 -0.38924326890E-01 -0.12399129397E+00  0.13156162505E+00  0.20482035794E-01 0.  0.
         14    1    1    2    0    0 -0.20520834194E-01  0.36524851062E-02  0.12736351219E-01  0.24426623300E-01  0.00000000000E+00 0.  1.
     999901    1    3    3    0    0  0.20464340109E-01  0.35271841784E-01  0.11125494275E+00  0.88794175165E+00  0.88000000000E+00 0. -1.
        -11    1    4    4    0    0  0.60140872008E-02 -0.34219737549E-02 -0.32693578568E-01  0.33421704771E-01  0.51100000000E-03 0. -1.
         11    1    4    4    0    0 -0.59575931155E-02 -0.35502353135E-01 -0.91297715400E-01  0.98139920278E-01  0.51100000000E-03 0.  1.
</event>
<event>
 8    1  0.1191842E+005  0.1043930E+01  0.7957747E-01            NaN
         13   -1    0    0    0    0  0.00000000000E+00  0.00000000000E+00  0.74505805969E-08  0.10566000000E+00  0.10566000000E+00 0. -1.
     999900   -1    0    0    0    0 -0.00000000000E+00 -0.00000000000E+00 -0.74505805969E-08  0.93827000000E+00  0.93827000000E+00 0.  1.
     999902    2    1    2    0    0  0.10365563126E-01 -0.20162523060E-01  0.41981889818E-02  0.10208736120E+01  0.10206132150E+01 0.  0.
     999903    2    3    3    0    0  0.79471420087E-01 -0.31097841453E-01 -0.98934848552E-01  0.13209263560E+00  0.19431360411E-01 0.  0.
         14    1    1    2    0    0 -0.10365563126E-01  0.20162523060E-01 -0.41981889818E-02  0.23056387960E-01  0.00000000000E+00 0.  1.
     999901    1    3    3    0    0 -0.69105856961E-01  0.10935318393E-01  0.10313303753E+00  0.88878097644E+00  0.88000000000E+00 0. -1.
        -11    1    4    4    0    0  0.21320633512E-01 -0.16730464874E-01 -0.37679512251E-01  0.46416426325E-01  0.51100000000E-03 0. -1.
         11    1    4    4    0    0  0.58150786575E-01 -0.14367376579E-01 -0.61255336301E-01  0.85676209273E-01  0.51100000000E-03 0.  1.
</event>
<event>
 8    1  0.1191842E+005  0.1043930E+01  0.7957747E-01            NaN
         13   -1    0    0    0    0  0.00000000000E+00  0.00000000000E+00  0.74505805969E-08  0.10566000000E+00  0.10566000000E+00 0.  1.
     999900   -1    0    0    0    0 -0.00000000000E+00 -0.00000000000E+00 -0.74505805969E-08  0.93827000000E+00  0.93827000000E+00 0.  1.
     999902    2    1    2    0    0  0.62435712057E-02  0.18828110226E-01 -0.13198292448E-01  0.10201040721E+01  0.10198257906E+01 0.  0.
     999903    2    3    3    0    0  0.83684900575E-01 -0.59625266018E-01 -0.78573238516E-01  0.13082010436E+00  0.19539983641E-01 0.  0.
         14    1    1    2    0    0 -0.62435712057E-02 -0.18828110226E-01  0.13198292448E-01  0.23825927886E-01  0.00000000000E+00 0.  1.
     999901    1    3    3    0    0 -0.77441329370E-01  0.78453376245E-01  0.65374946068E-01  0.88928396776E+00  0.88000000000E+00 0. -1.
        -11    1    4    4    0    0  0.15490258879E-01 -0.21322420272E-01 -0.20871507114E-01  0.33622531978E-01  0.51100000000E-03 0.  1.
         11    1    4    4    0    0  0.68194641696E-01 -0.38302845747E-01 -0.57701731402E-01  0.97197572378E-01  0.51100000000E-03 0. -1.
</event>
<event>
 8    1  0.1191842E+005  0.1043930E+01  0.7957747E-01            NaN
         13   -1    0    0    0    0  0.00000000000E+00  0.00000000000E+00  0.74505805969E-08  0.10566000000E+00  0.10566000000E+00 0.  1.
     999900   -1    0    0    0    0 -0.00000000000E+00 -0.00000000000E+00 -0.74505805969E-08  0.93827000000E+00  0.93827000000E+00 0.  1.
     999902    2    1    2    0    0  0.14299138194E-01  0.37454537477E-02  0.18296007544E-01  0.10204089952E+01  0.10201378729E+01 0.  0.
     999903    2    3    3    0    0 -0.11657946075E+00  0.27038792819E-01  0.46402670644E-01  0.12998113630E+00  0.20494413042E-01 0.  0.
         14    1    1    2    0    0 -0.14299138194E-01 -0.37454537477E-02 -0.18296007544E-01  0.23521004844E-01  0.00000000000E+00 0. -1.
     999901    1    3    3    0    0  0.13087859895E+00 -0.23293339071E-01 -0.28106663100E-01  0.89042785885E+00  0.88000000000E+00 0. -1.
        -11    1    4    4    0    0 -0.10726099557E+00  0.29557050936E-01  0.45730145312E-01  0.12029151151E+00  0.51100000000E-03 0.  1.
         11    1    4    4    0    0 -0.93184651851E-02 -0.25182581171E-02  0.67252533181E-03  0.96896247953E-02  0.51100000000E-03 0. -1.
</event>
<event>
 8    1  0.1191842E+005  0.1043930E+01  0.7957747E-01            NaN
         13   -1    0    0    0    0  0.00000000000E+00  0.00000000000E+00  0.74505805969E-08  0.10566000000E+00  0.10566000000E+00 0.  1.
     999900   -1    0    0    0    0 -0.00000000000E+00 -0.00000000000E+00 -0.74505805969E-08  0.93827000000E+00  0.93827000000E+00 0.  1.
     999902    2    1    2    0    0 -0.34310159084E-02  0.76334065304E-02  0.20801652136E-01  0.10215079239E+01  0.10212618122E+01 0.  0.
     999903    2    3    3    0    0 -0.51659109035E-01 -0.11168538796E+00 -0.38599851202E-01  0.13016541829E+00  0.17629468981E-01 0.  0.
         14    1    1    2    0    0  0.34310159084E-02 -0.76334065304E-02 -0.20801652136E-01  0.22422076108E-01  0.00000000000E+00 0. -1.
     999901    1    3    3    0    0  0.48228093126E-01  0.11931879449E+00  0.59401503338E-01  0.89134250560E+00  0.88000000000E+00 0.  1.
        -11    1    4    4    0    0 -0.10331831923E-01 -0.23653837170E-01 -0.15832347586E-01  0.30284899122E-01  0.51100000000E-03 0. -1.
         11    1    4    4    0    0 -0.41327277112E-01 -0.88031550791E-01 -0.22767503616E-01  0.99880519172E-01  0.51100000000E-03 0.  1.
</event>
<event>
 8    1  0.1191842E+005  0.1043930E+01  0.7957747E-01            NaN
         13   -1    0    0    0    0  0.00000000000E+00  0.00000000000E+00  0.74505805969E-08  0.10566000000E+00  0.10566000000E+00 0. -1.
     999900   -1    0    0    0    0 -0.00000000000E+00 -0.00000000000E+00 -0.74505805969E-08  0.93827000000E+00  0.93827000000E+00 0. -1.
     999902    2    1    2    0    0 -0.52872968329E-02  0.19087562258E-01  0.14585791065E-01  0.10193325237E+01  0.10190357000E+01 0.  0.
     999903    2    3    3    0    0  0.64633382379E-01 -0.46523979302E-01  0.10094304306E+00  0.12992184758E+00  0.18661022747E-01 0.  0.
         14    1    1    2    0    0  0.52872968329E-02 -0.19087562258E-01 -0.14585791065E-01  0.24597476329E-01  0.00000000000E+00 0.  1.
     999901    1    3    3    0    0 -0.69920679212E-01  0.65611541560E-01 -0.86357251993E-01  0.88941067609E+00  0.88000000000E+00 0. -1.
        -11    1    4    4    0    0  0.45936146719E-01 -0.40759969605E-01  0.68216401084E-01  0.91789123514E-01  0.51100000000E-03 0. -1.
         11    1    4    4    0    0  0.18697235660E-01 -0.57640096966E-02  0.32726641973E-01  0.38132724069E-01  0.51100000000E-03 0.  1.
</event>
<event>
 8    1  0.1191842E+005  0.1043930E+01  0.7957747E-01            NaN
         13   -1    0    0    0    0  0.00000000000E+00  0.00000000000E+00  0.74505805969E-08  0.10566000000E+00  0.10566000000E+00 0.  1.
     999900   -1    0    0    0    0 -0.00000000000E+00 -0.00000000000E+00 -0.74505805969E-08  0.93827000000E+00  0.93827000000E+00 0.  1.
     999902    2    1    2    0    0  0.16320670791E-01  0.10745752657E-01  0.13425169628E-01  0.10202219702E+01  0.10199464682E+01 0.  0.
     999903    2    3    3    0    0 -0.76440993468E-01  0.24835765396E-01 -0.97984686334E-01  0.12824920675E+00  0.19667728665E-01 0.  0.
         14    1    1    2    0    0 -0.16320670791E-01 -0.10745752657E-01 -0.13425169628E-01  0.23708029753E-01  0.00000000000E+00 0.  1.
     999901    1    3    3    0    0  0.92761664259E-01 -0.14090012739E-01  0.11140985596E+00  0.89197276350E+00  0.88000000000E+00 0. -1.
        -11    1    4    4    0    0 -0.40087159058E-01  0.22653994261E-01 -0.59857253204E-01  0.75520432066E-01  0.51100000000E-03 0. -1.
         11    1    4    4    0    0 -0.36353834409E-01  0.21817711349E-02 -0.38127433131E-01  0.52728774684E-01  0.51100000000E-03 0.  1.
</event>
<event>
 8    1  0.1191842E+005  0.1043930E+01  0.7957747E-01            NaN
         13   -1    0    0    0    0  0.00000000000E+00  0.00000000000E+00  0.74505805969E-08  0.10566000000E+00  0.10566000000E+00 0.  1.
     999900   -1    0    0    0    0 -0.00000000000E+00 -0.00000000000E+00 -0.74505805969E-08  0.93827000000E+00  0.93827000000E+00 0.  1.
     999902    2    1    2    0    0  0.14540667156E-01 -0.10771019830E-01 -0.15438752354E-01  0.10201434293E+01  0.10198660772E+01 0.  0.
     999903    2    3    3    0    0  0.11623206400E-01  0.11652669197E+00  0.49054711053E-01  0.12864321855E+00  0.20715794336E-01 0.  0.
         14    1    1    2    0    0 -0.14540667156E-01  0.10771019830E-01  0.15438752354E-01  0.23786570660E-01  0.00000000000E+00 0.  1.
     999901    1    3    3    0    0  0.29174607563E-02 -0.12729771180E+00 -0.64493463407E-01  0.89150021078E+00  0.88000000000E+00 0. -1.
        -11    1    4    4    0    0  0.24043768163E-02  0.74828576586E-01  0.21794458167E-01  0.77976640281E-01  0.51100000000E-03 0.  1.
         11    1    4    4    0    0  0.92188295835E-02  0.41698115385E-01  0.27260252886E-01  0.50666578274E-01  0.51100000000E-03 0. -1.
</event>
<event>
 8    1  0.1191842E+005  0.1043930E+01  0.7957747E-01            NaN
         13   -1    0    0    0    0  0.00000000000E+00  0.00000000000E+00  0.74505805969E-08  0.10566000000E+00  0.10566000000E+00 0.  1.
     999900   -1    0    0    0    0 -0.00000000000E+00 -0.00000000000E+00 -0.74505805969E-08  0.93827000000E+00  0.93827000000E+00 0.  1.
     999902    2    1    2    0    0  0.17814687309E-01 -0.11106024393E-01  0.96005278991E-02  0.10208458713E+01  0.10205848402E+01 0.  0.
     999903    2    3    3    0    0 -0.27565388696E-02  0.11888840511E+00  0.49018436433E-01  0.13018572368E+00  0.20086417403E-01 0.  0.
         14    1    1    2    0    0 -0.17814687309E-01  0.11106024393E-01 -0.96005278991E-02  0.23084128696E-01  0.00000000000E+00 0. -1.
     999901    1    3    3    0    0  0.20571226178E-01 -0.12999442950E+00 -0.39417908534E-01  0.89066014762E+00  0.88000000000E+00 0.  1.
        -11    1    4    4    0    0 -0.11038685153E-01  0.66954762776E-01  0.24368813860E-01  0.72103349702E-01  0.51100000000E-03 0. -1.
         11    1    4    4    0    0  0.82821462838E-02  0.51933642335E-01  0.24649622573E-01  0.58082373980E-01  0.51100000000E-03 0.  1.
</event>
<event>
 8    1  0.1191842E+005  0.1043930E+01  0.7957747E-01            NaN
         13   -1    0    0    0    0  0.00000000000E+00  0.00000000000E+00  0.74505805969E-08  0.10566000000E+00  0.10566000000E+00 0. -1.
     999900   -1    0    0    0    0 -0.00000000000E+00 -0.00000000000E+00 -0.74505805969E-08  0.93827000000E+00  0.93827000000E+00 0.  1.
     999902    2    1    2    0    0 -0.11354137201E-01 -0.16462782509E-01  0.14177727042E-01  0.10194157677E+01  0.10191209741E+01 0.  0.
     999903    2    3    3    0    0  0.14232231511E-02 -0.66731041870E-01  0.11252676181E+00  0.13241932384E+00  0.20433983719E-01 0.  0.
         14    1    1    2    0    0  0.11354137201E-01  0.16462782509E-01 -0.14177727042E-01  0.24514232266E-01  0.00000000000E+00 0.  1.
     999901    1    3    3    0    0 -0.12777360352E-01  0.50268259360E-01 -0.98349034767E-01  0.88699644389E+00  0.88000000000E+00 0.  1.
        -11    1    4    4    0    0 -0.68829508533E-02 -0.23988534645E-01  0.53809889544E-01  0.59317705119E-01  0.51100000000E-03 0.  1.
         11    1    4    4    0    0  0.83061740045E-02 -0.42742507225E-01  0.58716872265E-01  0.73101618723E-01  0.51100000000E-03 0. -1.
</event>
<event>
 8    1  0.1191842E+005  0.1043930E+01  0.7957747E-01            NaN
         13   -1    0    0    0    0  0.00000000000E+00  0.00000000000E+00  0.74505805969E-08  0.10566000000E+00  0.10566000000E+00 0.  1.
     999900   -1    0    0    0    0 -0.00000000000E+00 -0.00000000000E+00 -0.74505805969E-08  0.93827000000E+00  0.93827000000E+00 0. -1.
     999902    2    1    2    0    0  0.20856945815E-01  0.11350116226E-01 -0.37320124466E-02  0.10198932522E+01  0.10196099650E+01 0.  0.
     999903    2    3    3    0    0 -0.75190868903E-01  0.23432727476E-01  0.99750954902E-01  0.12855723436E+00  0.19337787308E-01 0.  0.
         14    1    1    2    0    0 -0.20856945815E-01 -0.11350116226E-01  0.37320124466E-02  0.24036747783E-01  0.00000000000E+00 0.  1.
     999901    1    3    3    0    0  0.96047814718E-01 -0.12082611249E-01 -0.10348296735E+00  0.89133601786E+00  0.88000000000E+00 0. -1.
        -11    1    4    4    0    0 -0.46381463369E-01  0.94416548841E-02  0.46116997953E-01  0.66086485853E-01  0.51100000000E-03 0.  1.
         11    1    4    4    0    0 -0.28809405534E-01  0.13991072591E-01  0.53633956949E-01  0.62470748503E-01  0.51100000000E-03 0. -1.
</event>
<event>
 8    1  0.1191842E+005  0.1043930E+01  0.7957747E-01            NaN
         13   -1    0    0    0    0  0.00000000000E+00  0.00000000000E+00  0.74505805969E-08  0.10566000000E+00  0.10566000000E+00 0.  1.
     999900   -1    0    0    0    0 -0.00000000000E+00 -0.00000000000E+00 -0.74505805969E-08  0.93827000000E+00  0.93827000000E+00 0. -1.
     999902    2    1    2    0    0 -0.58362911131E-02  0.19032040000E-01  0.11080303339E-01  0.10211472442E+01  0.10208930602E+01 0.  0.
     999903    2    3    3    0    0  0.11556257653E+00  0.48856847995E-01  0.35921746967E-01  0.13196542838E+00  0.19565318620E-01 0.  0.
         14    1    1    2    0    0  0.58362911131E-02 -0.19032040000E-01 -0.11080303339E-01  0.22782755817E-01  0.00000000000E+00 0.  1.
     999901    1    3    3    0    0 -0.12139886764E+00 -0.29824807994E-01 -0.24841443628E-01  0.88918181580E+00  0.88000000000E+00 0.  1.
        -11    1    4    4    0    0  0.61853861148E-01  0.19627667035E-01  0.26487159863E-01  0.70092625937E-01  0.51100000000E-03 0.  1.
         11    1    4    4    0    0  0.53708715378E-01  0.29229180960E-01  0.94345871031E-02  0.61872802441E-01  0.51100000000E-03 0. -1.
</event>
<event>
 8    1  0.1191842E+005  0.1043930E+01  0.7957747E-01            NaN
         13   -1    0    0    0    0  0.00000000000E+00  0.00000000000E+00  0.74505805969E-08  0.10566000000E+00  0.10566000000E+00 0.  1.
     999900   -1    0    0    0    0 -0.00000000000E+00 -0.00000000000E+00 -0.74505805969E-08  0.93827000000E+00  0.93827000000E+00 0. -1.
     999902    2    1    2    0    0  0.99285704476E-02 -0.21601062322E-01 -0.45997971305E-02  0.10197155304E+01  0.10194279878E+01 0.  0.
     999903    2    3    3    0    0  0.11334521483E+00  0.13960897996E-01 -0.61414626785E-01  0.13112812320E+00  0.19513685297E-01 0.  0.
         14    1    1    2    0    0 -0.99285704476E-02  0.21601062322E-01  0.45997971305E-02  0.24214469604E-01  0.00000000000E+00 0. -1.
     999901    1    3    3    0    0 -0.10341664438E+00 -0.35561960319E-01  0.56814829654E-01  0.88858740719E+00  0.88000000000E+00 0.  1.
        -11    1    4    4    0    0  0.19127009063E-01  0.83045634301E-02 -0.61309808809E-02  0.21740705992E-01  0.51100000000E-03 0. -1.
         11    1    4    4    0    0  0.94218205764E-01  0.56563345664E-02 -0.55283645904E-01  0.10938741721E+00  0.51100000000E-03 0.  1.
</event>
<event>
 8    1  0.1191842E+005  0.1043930E+01  0.7957747E-01            NaN
         13   -1    0    0    0    0  0.00000000000E+00  0.00000000000E+00  0.74505805969E-08  0.10566000000E+00  0.10566000000E+00 0. -1.
     999900   -1    0    0    0    0 -0.00000000000E+00 -0.00000000000E+00 -0.74505805969E-08  0.93827000000E+00  0.93827000000E+00 0. -1.
     999902    2    1    2    0    0  0.66643589270E-02 -0.13829679689E-02  0.21900601200E-01  0.10209961252E+01  0.10207385194E+01 0.  0.
     999903    2    3    3    0    0  0.26477269947E-01 -0.47271735097E-01 -0.11534773095E+00  0.12895608402E+00  0.19720796363E-01 0.  0.
         14    1    1    2    0    0 -0.66643589270E-02  0.13829679689E-02 -0.21900601200E-01  0.22933874798E-01  0.00000000000E+00 0. -1.
     999901    1    3    3    0    0 -0.19812911020E-01  0.45888767128E-01  0.13724833215E+00  0.89204004118E+00  0.88000000000E+00 0.  1.
        -11    1    4    4    0    0  0.13435634081E-01 -0.77066411483E-02 -0.39275315967E-01  0.42222270738E-01  0.51100000000E-03 0. -1.
         11    1    4    4    0    0  0.13041635866E-01 -0.39565093949E-01 -0.76072414978E-01  0.86733813284E-01  0.51100000000E-03 0.  1.
</event>
<event>
 8    1  0.1191842E+005  0.1043930E+01  0.7957747E-01            NaN
         13   -1    0    0    0    0  0.00000000000E+00  0.00000000000E+00  0.74505805969E-08  0.10566000000E+00  0.10566000000E+00 0.  1.
     999900   -1    0    0    0    0 -0.00000000000E+00 -0.00000000000E+00 -0.74505805969E-08  0.93827000000E+00  0.93827000000E+00 0. -1.
     999902    2    1    2    0    0  0.24247148812E-01 -0.56313266709E-02 -0.10848512368E-01  0.10167762473E+01  0.10164136022E+01 0.  0.
     999903    2    3    3    0    0  0.10140953234E+00 -0.71170251341E-01  0.33327366566E-01  0.12987101427E+00  0.20166037318E-01 0.  0.
         14    1    1    2    0    0 -0.24247148812E-01  0.56313266709E-02  0.10848512368E-01  0.27153752709E-01  0.00000000000E+00 0.  1.
     999901    1    3    3    0    0 -0.77162383523E-01  0.65538924670E-01 -0.44175878934E-01  0.88690523302E+00  0.88000000000E+00 0. -1.
        -11    1    4    4    0    0  0.48688795972E-01 -0.42801909034E-01  0.99051502042E-02  0.65581822113E-01  0.51100000000E-03 0.  1.
         11    1    4    4    0    0  0.52720736364E-01 -0.28368342306E-01  0.23422216362E-01  0.64289192158E-01  0.51100000000E-03 0. -1.
</event>
<event>
 7    1  0.1191842E+005  0.1043930E+01  0.7957747E-01            NaN
         13   -1    0    0    0    0  0.00000000000E+00  0.00000000000E+00  0.74505805969E-08  0.10566000000E+00  0.10566000000E+00 0.  1.
     999900   -1    0    0    0    0 -0.00000000000E+00 -0.00000000000E+00 -0.74505805969E-08  0.93827000000E+00  0.93827000000E+00 0.  1.
     999903    2    1    2    0    0  0.70079918729E-02 -0.10457451901E+00  0.40387905808E-03  0.10655191605E+00  0.19188687306E-01 0.  0.
         14    1    1    2    0    0  0.12403300906E-01  0.34705200237E-02 -0.48393180245E-01  0.50077802236E-01  0.00000000000E+00 0. -1.
     999901    1    1    2    0    0 -0.19411292778E-01  0.10110399898E+00  0.47989301187E-01  0.88730028171E+00  0.88000000000E+00 0. -1.
        -11    1    3    3    0    0  0.13349655870E-01 -0.56551789646E-01  0.37761333340E-03  0.58109568376E-01  0.51100000000E-03 0. -1.
         11    1    3    3    0    0 -0.63416639970E-02 -0.48022729361E-01  0.26265724682E-04  0.48442347677E-01  0.51100000000E-03 0.  1.
</event>
<event>
 8    1  0.1191842E+005  0.1043930E+01  0.7957747E-01            NaN
         13   -1    0    0    0    0  0.00000000000E+00  0.00000000000E+00  0.74505805969E-08  0.10566000000E+00  0.10566000000E+00 0. -1.
     999900   -1    0    0    0    0 -0.00000000000E+00 -0.00000000000E+00 -0.74505805969E-08  0.93827000000E+00  0.93827000000E+00 0. -1.
     999902    2    1    2    0    0  0.34191433032E-02  0.14629496220E-01 -0.19105429047E-01  0.10196250598E+01  0.10193353385E+01 0.  0.
     999903    2    3    3    0    0 -0.43202211819E-01  0.11097752791E+00 -0.54526094249E-01  0.13243222983E+00  0.19564195283E-01 0.  0.
         14    1    1    2    0    0 -0.34191433032E-02 -0.14629496220E-01  0.19105429047E-01  0.24304940231E-01  0.00000000000E+00 0. -1.
     999901    1    3    3    0    0  0.46621355122E-01 -0.96348031693E-01  0.35420665202E-01  0.88719282993E+00  0.88000000000E+00 0.  1.
        -11    1    4    4    0    0 -0.35051196136E-03  0.10960668506E-01 -0.10044934657E-01  0.14880219957E-01  0.51100000000E-03 0.  1.
         11    1    4    4    0    0 -0.42851699857E-01  0.10001685941E+00 -0.44481159592E-01  0.11755200988E+00  0.51100000000E-03 0. -1.
</event>
<event>
 8    1  0.1191842E+005  0.1043930E+01  0.7957747E-01            NaN
         13   -1    0    0    0    0  0.00000000000E+00  0.00000000000E+00  0.74505805969E-08  0.10566000000E+00  0.10566000000E+00 0.  1.
     999900   -1    0    0    0    0 -0.00000000000E+00 -0.00000000000E+00 -0.74505805969E-08  0.93827000000E+00  0.93827000000E+00 0. -1.
     999902    2    1    2    0    0 -0.17352815587E-01  0.14454393667E-01  0.45958304762E-02  0.10208828448E+01  0.10206226587E+01 0.  0.
     999903    2    3    3    0    0  0.34517068190E-02  0.12092005778E+00 -0.50305866663E-01  0.13252370451E+00  0.19956888097E-01 0.  0.
         14    1    1    2    0    0  0.17352815587E-01 -0.14454393667E-01 -0.45958304762E-02  0.23047155200E-01  0.00000000000E+00 0.  1.
     999901    1    3    3    0    0 -0.20804522406E-01 -0.10646566411E+00  0.54901697139E-01  0.88835914029E+00  0.88000000000E+00 0.  1.
        -11    1    4    4    0    0 -0.58404998209E-02  0.67216634969E-01 -0.21134926394E-01  0.70704552112E-01  0.51100000000E-03 0.  1.
         11    1    4    4    0    0  0.92922066398E-02  0.53703422812E-01 -0.29170940269E-01  0.61819152398E-01  0.51100000000E-03 0. -1.
</event>
<event>
 8    1  0.1191842E+005  0.1043930E+01  0.7957747E-01            NaN
         13   -1    0    0    0    0  0.00000000000E+00  0.00000000000E+00  0.74505805969E-08  0.10566000000E+00  0.10566000000E+00 0.  1.
     999900   -1    0    0    0    0 -0.00000000000E+00 -0.00000000000E+00 -0.74505805969E-08  0.93827000000E+00  0.93827000000E+00 0.  1.
     999902    2    1    2    0    0  0.37802661169E-02 -0.18486526885E-01  0.11730420071E-01  0.10217118803E+01  0.10214702744E+01 0.  0.
     999903    2    3    3    0    0  0.37918796546E-01  0.10907066169E+00 -0.54605196675E-01  0.12939092365E+00  0.20640718150E-01 0.  0.
         14    1    1    2    0    0 -0.37802661169E-02  0.18486526885E-01 -0.11730420071E-01  0.22218119705E-01  0.00000000000E+00 0. -1.
     999901    1    3    3    0    0 -0.34138530429E-01 -0.12755718858E+00  0.66335616746E-01  0.89232095664E+00  0.88000000000E+00 0. -1.
        -11    1    4    4    0    0  0.33353828998E-02  0.29041343392E-01 -0.20809867273E-01  0.35886433398E-01  0.51100000000E-03 0. -1.
         11    1    4    4    0    0  0.34583413646E-01  0.80029318300E-01 -0.33795329402E-01  0.93504490253E-01  0.51100000000E-03 0.  1.
</event>
<event>
 8    1  0.1191842E+005  0.1043930E+01  0.7957747E-01            NaN
         13   -1    0    0    0    0  0.00000000000E+00  0.00000000000E+00  0.74505805969E-08  0.10566000000E+00  0.10566000000E+00 0.  1.
     999900   -1    0    0    0    0 -0.00000000000E+00 -0.00000000000E+00 -0.74505805969E-08  0.93827000000E+00  0.93827000000E+00 0. -1.
     999902    2    1    2    0    0  0.71322441360E-02 -0.74926754269E-02  0.21266659511E-01  0.10202809007E+01  0.10200067825E+01 0.  0.
     999903    2    3    3    0    0  0.34951379099E-01  0.25127646631E-01 -0.11898213787E+00  0.12814429969E+00  0.20278433945E-01 0.  0.
         14    1    1    2    0    0 -0.71322441360E-02  0.74926754269E-02 -0.21266659511E-01  0.23649099311E-01  0.00000000000E+00 0. -1.
     999901    1    3    3    0    0 -0.27819134963E-01 -0.32620322058E-01  0.14024879738E+00  0.89213660100E+00  0.88000000000E+00 0.  1.
        -11    1    4    4    0    0  0.56758841998E-02  0.12694752592E-01 -0.54420787828E-01  0.56171662550E-01  0.51100000000E-03 0. -1.
         11    1    4    4    0    0  0.29275494899E-01  0.12432894039E-01 -0.64561350044E-01  0.71972637136E-01  0.51100000000E-03 0.  1.
</event>
<event>
 8    1  0.1191842E+005  0.1043930E+01  0.7957747E-01            NaN
         13   -1    0    0    0    0  0.00000000000E+00  0.00000000000E+00  0.74505805969E-08  0.10566000000E+00  0.10566000000E+00 0.  1.
     999900   -1    0    0    0    0 -0.00000000000E+00 -0.00000000000E+00 -0.74505805969E-08  0.93827000000E+00  0.93827000000E+00 0.  1.
     999902    2    1    2    0    0  0.17141738456E-01 -0.79349002310E-02 -0.13413998664E-01  0.10207624106E+01  0.10204994668E+01 0.  0.
     999903    2    3    3    0    0  0.12592348983E-01  0.53401870303E-01  0.11534225300E+00  0.12926868167E+00  0.19905520038E-01 0.  0.
         14    1    1    2    0    0 -0.17141738456E-01  0.79349002310E-02  0.13413998664E-01  0.23167589412E-01  0.00000000000E+00 0.  1.
     999901    1    3    3    0    0  0.45493894732E-02 -0.61336770534E-01 -0.12875625166E+00  0.89149372892E+00  0.88000000000E+00 0.  1.
        -11    1    4    4    0    0  0.27383461426E-02  0.30621207630E-01  0.82892994001E-01  0.88411913630E-01  0.51100000000E-03 0.  1.
         11    1    4    4    0    0  0.98540028405E-02  0.22780662673E-01  0.32449258999E-01  0.40856768036E-01  0.51100000000E-03 0. -1.
</event>
<event>
 8    1  0.1191842E+005  0.1043930E+01  0.7957747E-01            NaN
         13   -1    0    0    0    0  0.00000000000E+00  0.00000000000E+00  0.74505805969E-08  0.10566000000E+00  0.10566000000E+00 0.  1.
     999900   -1    0    0    0    0 -0.00000000000E+00 -0.00000000000E+00 -0.74505805969E-08  0.93827000000E+00  0.93827000000E+00 0. -1.
     999902    2    1    2    0    0 -0.18728462858E-01  0.13113848312E-01  0.51193798273E-02  0.10205006085E+01  0.10202316185E+01 0.  0.
     999903    2    3    3    0    0  0.21809930884E-01 -0.86315264745E-01  0.92013222255E-01  0.12972563701E+00  0.20888030428E-01 0.  0.
         14    1    1    2    0    0  0.18728462858E-01 -0.13113848312E-01 -0.51193798273E-02  0.23429391550E-01  0.00000000000E+00 0. -1.
     999901    1    3    3    0    0 -0.40538393742E-01  0.99429113057E-01 -0.86893842427E-01  0.89077497144E+00  0.88000000000E+00 0. -1.
        -11    1    4    4    0    0  0.16137665104E-01 -0.40715594691E-01  0.32528053318E-01  0.54557485827E-01  0.51100000000E-03 0. -1.
         11    1    4    4    0    0  0.56722657794E-02 -0.45599670053E-01  0.59485168936E-01  0.75168151184E-01  0.51100000000E-03 0.  1.
</event>
<event>
 8    1  0.1191842E+005  0.1043930E+01  0.7957747E-01            NaN
         13   -1    0    0    0    0  0.00000000000E+00  0.00000000000E+00  0.74505805969E-08  0.10566000000E+00  0.10566000000E+00 0.  1.
     999900   -1    0    0    0    0 -0.00000000000E+00 -0.00000000000E+00 -0.74505805969E-08  0.93827000000E+00  0.93827000000E+00 0. -1.
     999902    2    1    2    0    0 -0.99987173391E-03 -0.31848518190E-01 -0.26107462960E-02  0.10119590155E+01  0.10114538572E+01 0.  0.
     999903    2    3    3    0    0 -0.21968120803E-01 -0.74736755495E-01  0.95838265809E-01  0.12518323980E+00  0.20437450411E-01 0.  0.
         14    1    1    2    0    0  0.99987173391E-03  0.31848518190E-01  0.26107462960E-02  0.31970984512E-01  0.00000000000E+00 0. -1.
     999901    1    3    3    0    0  0.20968249069E-01  0.42888237304E-01 -0.98449012105E-01  0.88677577569E+00  0.88000000000E+00 0. -1.
        -11    1    4    4    0    0 -0.56236199661E-02 -0.31225839606E-01  0.54059556025E-01  0.62684726044E-01  0.51100000000E-03 0. -1.
         11    1    4    4    0    0 -0.16344500837E-01 -0.43510915889E-01  0.41778709784E-01  0.62498513753E-01  0.51100000000E-03 0.  1.
</event>
<event>
 8    1  0.1191842E+005  0.1043930E+01  0.7957747E-01            NaN
         13   -1    0    0    0    0  0.00000000000E+00  0.00000000000E+00  0.74505805969E-08  0.10566000000E+00  0.10566000000E+00 0. -1.
     999900   -1    0    0    0    0 -0.00000000000E+00 -0.00000000000E+00 -0.74505805969E-08  0.93827000000E+00  0.93827000000E+00 0. -1.
     999902    2    1    2    0    0  0.26104427087E-02  0.25197317534E-01 -0.81706760006E-02  0.10173127280E+01  0.10169644573E+01 0.  0.
     999903    2    3    3    0    0  0.11234479850E+00  0.55973201427E-01 -0.21165378334E-01  0.12986828121E+00  0.25757410501E-01 0.  0.
         14    1    1    2    0    0 -0.26104427087E-02 -0.25197317534E-01  0.81706760006E-02  0.26617271993E-01  0.00000000000E+00 0.  1.
     999901    1    3    3    0    0 -0.10973435579E+00 -0.30775883893E-01  0.12994702333E-01  0.88744444680E+00  0.88000000000E+00 0.  1.
        -11    1    4    4    0    0  0.55321982568E-01  0.19172030413E-01  0.72452909671E-03  0.58556592873E-01  0.51100000000E-03 0.  1.
         11    1    4    4    0    0  0.57022815930E-01  0.36801171014E-01 -0.21889907431E-01  0.71311688333E-01  0.51100000000E-03 0. -1.
</event>
<event>
 8    1  0.1191842E+005  0.1043930E+01  0.7957747E-01            NaN
         13   -1    0    0    0    0  0.00000000000E+00  0.00000000000E+00  0.74505805969E-08  0.10566000000E+00  0.10566000000E+00 0. -1.
     999900   -1    0    0    0    0 -0.00000000000E+00 -0.00000000000E+00 -0.74505805969E-08  0.93827000000E+00  0.93827000000E+00 0.  1.
     999902    2    1    2    0    0  0.18613558269E-01  0.58417050893E-02  0.10979989053E-01  0.10215436151E+01  0.10212982950E+01 0.  0.
     999903    2    3    3    0    0  0.72794058405E-01 -0.20851741744E-01 -0.10591214360E+00  0.13176171070E+00  0.20248362221E-01 0.  0.
         14    1    1    2    0    0 -0.18613558269E-01 -0.58417050893E-02 -0.10979989053E-01  0.22386384911E-01  0.00000000000E+00 0.  1.
     999901    1    3    3    0    0 -0.54180500136E-01  0.26693446834E-01  0.11689213265E+00  0.88978190439E+00  0.88000000000E+00 0. -1.
        -11    1    4    4    0    0  0.56688952514E-01 -0.23604402896E-01 -0.76355463063E-01  0.97985830781E-01  0.51100000000E-03 0. -1.
         11    1    4    4    0    0  0.16105105891E-01  0.27526611522E-02 -0.29556680535E-01  0.33775879921E-01  0.51100000000E-03 0.  1.
</event>
<event>
 8    1  0.1191842E+005  0.1043930E+01  0.7957747E-01            NaN
         13   -1    0    0    0    0  0.00000000000E+00  0.00000000000E+00  0.74505805969E-08  0.10566000000E+00  0.10566000000E+00 0.  1.
     999900   -1    0    0    0    0 -0.00000000000E+00 -0.00000000000E+00 -0.74505805969E-08  0.93827000000E+00  0.93827000000E+00 0. -1.
     999902    2    1    2    0    0 -0.14653347124E-01 -0.98210634940E-02  0.15711270974E-01  0.10203075974E+01  0.10200341050E+01 0.  0.
     999903    2    3    3    0    0 -0.10018975953E-01 -0.12850018574E+00  0.20544928931E-01  0.13231571920E+00  0.21741155219E-01 0.  0.
         14    1    1    2    0    0  0.14653347124E-01  0.98210634940E-02 -0.15711270974E-01  0.23622402623E-01  0.00000000000E+00 0. -1.
     999901    1    3    3    0    0 -0.46343711707E-02  0.11867912224E+00 -0.48336579569E-02  0.88799187817E+00  0.88000000000E+00 0. -1.
        -11    1    4    4    0    0  0.31599687539E-02 -0.78070215510E-01  0.69397773004E-02  0.78443390941E-01  0.51100000000E-03 0. -1.
         11    1    4    4    0    0 -0.13178944707E-01 -0.50429970226E-01  0.13605151630E-01  0.53872328263E-01  0.51100000000E-03 0.  1.
</event>
<event>
 8    1  0.1191842E+005  0.1043930E+01  0.7957747E-01            NaN
         13   -1    0    0    0    0  0.00000000000E+00  0.00000000000E+00  0.74505805969E-08  0.10566000000E+00  0.10566000000E+00 0.  1.
     999900   -1    0    0    0    0 -0.00000000000E+00 -0.00000000000E+00 -0.74505805969E-08  0.93827000000E+00  0.93827000000E+00 0.  1.
     999902    2    1    2    0    0 -0.18151034497E-01 -0.12754459711E-01  0.11185043018E-01  0.10190856549E+01  0.10187827691E+01 0.  0.
     999903    2    3    3    0    0  0.89274397834E-01  0.64222729478E-01  0.61929205191E-01  0.12777163552E+00  0.19896916758E-01 0.  0.
         14    1    1    2    0    0  0.18151034497E-01  0.12754459711E-01 -0.11185043018E-01  0.24844345094E-01  0.00000000000E+00 0. -1.
     999901    1    3    3    0    0 -0.10742543233E+00 -0.76977189189E-01 -0.50744162173E-01  0.89131401939E+00  0.88000000000E+00 0. -1.
        -11    1    4    4    0    0  0.83697623188E-01  0.53609431995E-01  0.51887026445E-01  0.11212398477E+00  0.51100000000E-03 0. -1.
         11    1    4    4    0    0  0.55767746459E-02  0.10613297484E-01  0.10042178746E-01  0.15647650747E-01  0.51100000000E-03 0.  1.
</event>
<event>
 8    1  0.1191842E+005  0.1043930E+01  0.7957747E-01            NaN
         13   -1    0    0    0    0  0.00000000000E+00  0.00000000000E+00  0.74505805969E-08  0.10566000000E+00  0.10566000000E+00 0. -1.
     999900   -1    0    0    0    0 -0.00000000000E+00 -0.00000000000E+00 -0.74505805969E-08  0.93827000000E+00  0.93827000000E+00 0.  1.
     999902    2    1    2    0    0 -0.22966920121E-01  0.11967219007E-02  0.40583355538E-02  0.10205765923E+01  0.10203093644E+01 0.  0.
     999903    2    3    3    0    0 -0.15958388770E-01  0.11489165228E+00  0.58742274566E-01  0.13155128902E+00  0.20008120481E-01 0.  0.
         14    1    1    2    0    0  0.22966920121E-01 -0.11967219007E-02 -0.40583355538E-02  0.23353407688E-01  0.00000000000E+00 0. -1.
     999901    1    3    3    0    0 -0.70085313512E-02 -0.11369493038E+00 -0.54683939012E-01  0.88902530329E+00  0.88000000000E+00 0.  1.
        -11    1    4    4    0    0 -0.80136680495E-02  0.73280667605E-01  0.26596185919E-01  0.78370232529E-01  0.51100000000E-03 0. -1.
         11    1    4    4    0    0 -0.79447207205E-02  0.41610984679E-01  0.32146088646E-01  0.53181056492E-01  0.51100000000E-03 0.  1.
</event>
<event>
 8    1  0.1191842E+005  0.1043930E+01  0.7957747E-01            NaN
         13   -1    0    0    0    0  0.00000000000E+00  0.00000000000E+00  0.74505805969E-08  0.10566000000E+00  0.10566000000E+00 0. -1.
     999900   -1    0    0    0    0 -0.00000000000E+00 -0.00000000000E+00 -0.74505805969E-08  0.93827000000E+00  0.93827000000E+00 0. -1.
     999902    2    1    2    0    0  0.10456053498E-01  0.21105179771E-01 -0.49018025284E-02  0.10198720421E+01  0.10195882488E+01 0.  0.
     999903    2    3    3    0    0  0.49624500791E-01 -0.92211525059E-01  0.72129402660E-01  0.12840771340E+00  0.17897868602E-01 0.  0.
         14    1    1    2    0    0 -0.10456053498E-01 -0.21105179771E-01  0.49018025284E-02  0.24057957851E-01  0.00000000000E+00 0. -1.
     999901    1    3    3    0    0 -0.39168447293E-01  0.11331670483E+00 -0.77031205189E-01  0.89146432875E+00  0.88000000000E+00 0. -1.
        -11    1    4    4    0    0  0.15344419160E-01 -0.21534829332E-01  0.27086974280E-01  0.37857170660E-01  0.51100000000E-03 0.  1.
         11    1    4    4    0    0  0.34280081631E-01 -0.70676695726E-01  0.45042428380E-01  0.90550542742E-01  0.51100000000E-03 0. -1.
</event>
<event>
 8    1  0.1191842E+005  0.1043930E+01  0.7957747E-01            NaN
         13   -1    0    0    0    0  0.00000000000E+00  0.00000000000E+00  0.74505805969E-08  0.10566000000E+00  0.10566000000E+00 0. -1.
     999900   -1    0    0    0    0 -0.00000000000E+00 -0.00000000000E+00 -0.74505805969E-08  0.93827000000E+00  0.93827000000E+00 0. -1.
     999902    2    1    2    0    0  0.12274424049E-01 -0.16085521918E-01  0.92162246517E-03  0.10236752502E+01  0.10234748473E+01 0.  0.
     999903    2    3    3    0    0  0.74696774215E-01 -0.79587357053E-01  0.78705351197E-01  0.13576796827E+00  0.18018141424E-01 0.  0.
         14    1    1    2    0    0 -0.12274424049E-01  0.16085521918E-01 -0.92162246517E-03  0.20254749791E-01  0.00000000000E+00 0.  1.
     999901    1    3    3    0    0 -0.62422350166E-01  0.63501835135E-01 -0.77783728731E-01  0.88790728194E+00  0.88000000000E+00 0. -1.
        -11    1    4    4    0    0  0.74701397232E-02 -0.89669495890E-02  0.16115268919E-01  0.19904074602E-01  0.51100000000E-03 0.  1.
         11    1    4    4    0    0  0.67226634492E-01 -0.70620407464E-01  0.62590082278E-01  0.11586389367E+00  0.51100000000E-03 0. -1.
</event>
<event>
 8    1  0.1191842E+005  0.1043930E+01  0.7957747E-01            NaN
         13   -1    0    0    0    0  0.00000000000E+00  0.00000000000E+00  0.74505805969E-08  0.10566000000E+00  0.10566000000E+00 0.  1.
     999900   -1    0    0    0    0 -0.00000000000E+00 -0.00000000000E+00 -0.74505805969E-08  0.93827000000E+00  0.93827000000E+00 0. -1.
     999902    2    1    2    0    0 -0.16104600237E-01  0.12935616554E-01  0.79407577520E-02  0.10217998405E+01  0.10215601647E+01 0.  0.
     999903    2    3    3    0    0 -0.34859797586E-01 -0.43096109288E-01  0.11911000348E+00  0.13283982291E+00  0.19665845993E-01 0.  0.
         14    1    1    2    0    0  0.16104600237E-01 -0.12935616554E-01 -0.79407577520E-02  0.22130159468E-01  0.00000000000E+00 0.  1.
     999901    1    3    3    0    0  0.18755197350E-01  0.56031725842E-01 -0.11116924573E+00  0.88896001762E+00  0.88000000000E+00 0. -1.
        -11    1    4    4    0    0 -0.87533634711E-02 -0.53778520849E-02  0.40852783145E-01  0.42127825446E-01  0.51100000000E-03 0.  1.
         11    1    4    4    0    0 -0.26106434115E-01 -0.37718257203E-01  0.78257220336E-01  0.90711997467E-01  0.51100000000E-03 0. -1.
</event>
<event>
 8    1  0.1191842E+005  0.1043930E+01  0.7957747E-01            NaN
         13   -1    0    0    0    0  0.00000000000E+00  0.00000000000E+00  0.74505805969E-08  0.10566000000E+00  0.10566000000E+00 0.  1.
     999900   -1    0    0    0    0 -0.00000000000E+00 -0.00000000000E+00 -0.74505805969E-08  0.93827000000E+00  0.93827000000E+00 0.  1.
     999902    2    1    2    0    0  0.24594025555E-02 -0.50034115281E-02  0.23333285886E-01  0.10199398975E+01  0.10196577217E+01 0.  0.
     999903    2    3    3    0    0  0.71341665577E-01  0.78382049240E-01 -0.69715453881E-01  0.12844902867E+00  0.20137764690E-01 0.  0.
         14    1    1    2    0    0 -0.24594025555E-02  0.50034115281E-02 -0.23333285886E-01  0.23990102502E-01  0.00000000000E+00 0. -1.
     999901    1    3    3    0    0 -0.68882263022E-01 -0.83385460768E-01  0.93048739767E-01  0.89149086883E+00  0.88000000000E+00 0. -1.
        -11    1    4    4    0    0  0.60637720670E-01  0.53832798283E-01 -0.51639006142E-01  0.96134028394E-01  0.51100000000E-03 0. -1.
         11    1    4    4    0    0  0.10703944908E-01  0.24549250956E-01 -0.18076447739E-01  0.32315000278E-01  0.51100000000E-03 0.  1.
</event>
<event>
 7    1  0.1191842E+005  0.1043930E+01  0.7957747E-01            NaN
         13   -1    0    0    0    0  0.00000000000E+00  0.00000000000E+00  0.74505805969E-08  0.10566000000E+00  0.10566000000E+00 0.  1.
     999900   -1    0    0    0    0 -0.00000000000E+00 -0.00000000000E+00 -0.74505805969E-08  0.93827000000E+00  0.93827000000E+00 0. -1.
     999903    2    1    2    0    0 -0.58221296732E-01 -0.53215493004E-01  0.32059207361E-01  0.87201642053E-01  0.18834158099E-01 0.  0.
         14    1    1    2    0    0  0.13213055215E-01  0.72272005592E-01 -0.16172879590E-01  0.75228915016E-01  0.00000000000E+00 0. -1.
     999901    1    1    2    0    0  0.45008241517E-01 -0.19056512587E-01 -0.15886327771E-01  0.88149944293E+00  0.88000000000E+00 0. -1.
        -11    1    3    3    0    0 -0.27356521748E-01 -0.13263502796E-01  0.15033553032E-01  0.33920032817E-01  0.51100000000E-03 0. -1.
         11    1    3    3    0    0 -0.30864774984E-01 -0.39951990208E-01  0.17025654330E-01  0.53281609236E-01  0.51100000000E-03 0.  1.
</event>
<event>
 8    1  0.1191842E+005  0.1043930E+01  0.7957747E-01            NaN
         13   -1    0    0    0    0  0.00000000000E+00  0.00000000000E+00  0.74505805969E-08  0.10566000000E+00  0.10566000000E+00 0.  1.
     999900   -1    0    0    0    0 -0.00000000000E+00 -0.00000000000E+00 -0.74505805969E-08  0.93827000000E+00  0.93827000000E+00 0.  1.
     999902    2    1    2    0    0 -0.19638355160E-01 -0.13974034833E-01  0.35710501735E-02  0.10195642240E+01  0.10192730330E+01 0.  0.
     999903    2    3    3    0    0 -0.97994432678E-01 -0.93028114265E-02  0.85983630424E-01  0.13223490031E+00  0.20085642228E-01 0.  0.
         14    1    1    2    0    0  0.19638355160E-01  0.13974034833E-01 -0.35710501735E-02  0.24365776044E-01  0.00000000000E+00 0.  1.
     999901    1    3    3    0    0  0.78356077518E-01 -0.46712234061E-02 -0.82412580251E-01  0.88732932364E+00  0.88000000000E+00 0.  1.
        -11    1    4    4    0    0 -0.64441547708E-01 -0.10492686947E-01  0.67477108239E-01  0.93894785839E-01  0.51100000000E-03 0.  1.
         11    1    4    4    0    0 -0.33552884970E-01  0.11898755207E-02  0.18506522185E-01  0.38340114474E-01  0.51100000000E-03 0. -1.
</event>
<event>
 8    1  0.1191842E+005  0.1043930E+01  0.7957747E-01            NaN
         13   -1    0    0    0    0  0.00000000000E+00  0.00000000000E+00  0.74505805969E-08  0.10566000000E+00  0.10566000000E+00 0.  1.
     999900   -1    0    0    0    0 -0.00000000000E+00 -0.00000000000E+00 -0.74505805969E-08  0.93827000000E+00  0.93827000000E+00 0.  1.
     999902    2    1    2    0    0  0.22755327019E-01  0.12391028009E-02  0.23860470939E-02  0.10210163904E+01  0.10207592449E+01 0.  0.
     999903    2    3    3    0    0 -0.76085638785E-01  0.10250843796E+00  0.10266670799E-01  0.12967632120E+00  0.20335669804E-01 0.  0.
         14    1    1    2    0    0 -0.22755327019E-01 -0.12391028009E-02 -0.23860470939E-02  0.22913609585E-01  0.00000000000E+00 0. -1.
     999901    1    3    3    0    0  0.98840965804E-01 -0.10126933516E+00 -0.78806237049E-02  0.89134006922E+00  0.88000000000E+00 0.  1.
        -11    1    4    4    0    0 -0.60273233046E-01  0.78067046749E-01  0.16235615384E-01  0.99955903967E-01  0.51100000000E-03 0.  1.
         11    1    4    4    0    0 -0.15812405738E-01  0.24441391216E-01 -0.59689445856E-02  0.29720417229E-01  0.51100000000E-03 0. -1.
</event>
<event>
 8    1  0.1191842E+005  0.1043930E+01  0.7957747E-01            NaN
         13   -1    0    0    0    0  0.00000000000E+00  0.00000000000E+00  0.74505805969E-08  0.10566000000E+00  0.10566000000E+00 0. -1.
     999900   -1    0    0    0    0 -0.00000000000E+00 -0.00000000000E+00 -0.74505805969E-08  0.93827000000E+00  0.93827000000E+00 0.  1.
     999902    2    1    2    0    0 -0.21769821862E-01 -0.89614709273E-02  0.93044549757E-02  0.10186158540E+01  0.10183012580E+01 0.  0.
     999903    2    3    3    0    0 -0.76087539033E-01  0.10189862261E+00  0.17859931944E-01  0.12995755582E+00  0.19933546103E-01 0.  0.
         14    1    1    2    0    0  0.21769821862E-01  0.89614709273E-02 -0.93044549757E-02  0.25314145996E-01  0.00000000000E+00 0.  1.
     999901    1    3    3    0    0  0.54317717171E-01 -0.11086009354E+00 -0.85554769679E-02  0.88865829818E+00  0.88000000000E+00 0. -1.
        -11    1    4    4    0    0 -0.46920403667E-01  0.77532087988E-01  0.10367057499E-01  0.91216697760E-01  0.51100000000E-03 0. -1.
         11    1    4    4    0    0 -0.29167135367E-01  0.24366534625E-01  0.74928744441E-02  0.38740858064E-01  0.51100000000E-03 0.  1.
</event>
<event>
 8    1  0.1191842E+005  0.1043930E+01  0.7957747E-01            NaN
         13   -1    0    0    0    0  0.00000000000E+00  0.00000000000E+00  0.74505805969E-08  0.10566000000E+00  0.10566000000E+00 0.  1.
     999900   -1    0    0    0    0 -0.00000000000E+00 -0.00000000000E+00 -0.74505805969E-08  0.93827000000E+00  0.93827000000E+00 0. -1.
     999902    2    1    2    0    0 -0.18433943771E-02  0.85592240473E-02 -0.21051815797E-01  0.10211300577E+01  0.10208754858E+01 0.  0.
     999903    2    3    3    0    0 -0.65759636120E-01  0.33633836140E-01 -0.10991934454E+00  0.13399339419E+00  0.20405947829E-01 0.  0.
         14    1    1    2    0    0  0.18433943771E-02 -0.85592240473E-02  0.21051815797E-01  0.22799942269E-01  0.00000000000E+00 0.  1.
     999901    1    3    3    0    0  0.63916241743E-01 -0.25074612092E-01  0.88867528744E-01  0.88713666354E+00  0.88000000000E+00 0.  1.
        -11    1    4    4    0    0 -0.23879189523E-01  0.53222875728E-02 -0.49463279459E-01  0.55185320268E-01  0.51100000000E-03 0.  1.
         11    1    4    4    0    0 -0.41880446598E-01  0.28311548567E-01 -0.60456065082E-01  0.78808073924E-01  0.51100000000E-03 0. -1.
</event>
<event>
 8    1  0.1191842E+005  0.1043930E+01  0.7957747E-01            NaN
         13   -1    0    0    0    0  0.00000000000E+00  0.00000000000E+00  0.74505805969E-08  0.10566000000E+00  0.10566000000E+00 0.  1.
     999900   -1    0    0    0    0 -0.00000000000E+00 -0.00000000000E+00 -0.74505805969E-08  0.93827000000E+00  0.93827000000E+00 0. -1.
     999902    2    1    2    0    0  0.62047315800E-02  0.21831889162E-01  0.97308467738E-02  0.10192354772E+01  0.10189362779E+01 0.  0.
     999903    2    3    3    0    0  0.76120113890E-01 -0.20582888536E-01  0.10109351672E+00  0.13073431707E+00  0.25566296162E-01 0.  0.
         14    1    1    2    0    0 -0.62047315800E-02 -0.21831889162E-01 -0.97308467738E-02  0.24694522820E-01  0.00000000000E+00 0. -1.
     999901    1    3    3    0    0 -0.69915382310E-01  0.42414777699E-01 -0.91362669943E-01  0.88850116011E+00  0.88000000000E+00 0. -1.
        -11    1    4    4    0    0  0.10519013788E-01 -0.12480217941E-01  0.25886572383E-01  0.30606882259E-01  0.51100000000E-03 0. -1.
         11    1    4    4    0    0  0.65601100103E-01 -0.81026705955E-02  0.75206944334E-01  0.10012743481E+00  0.51100000000E-03 0.  1.
</event>
<event>
 8    1  0.1191842E+005  0.1043930E+01  0.7957747E-01            NaN
         13   -1    0    0    0    0  0.00000000000E+00  0.00000000000E+00  0.74505805969E-08  0.10566000000E+00  0.10566000000E+00 0.  1.
     999900   -1    0    0    0    0 -0.00000000000E+00 -0.00000000000E+00 -0.74505805969E-08  0.93827000000E+00  0.93827000000E+00 0.  1.
     999902    2    1    2    0    0  0.13154061081E-01  0.16151402480E-01  0.59124953664E-02  0.10222769465E+01  0.10220476019E+01 0.  0.
     999903    2    3    3    0    0 -0.76525149790E-01 -0.24106186610E-01  0.10246928088E+00  0.13155462883E+00  0.19221343854E-01 0.  0.
         14    1    1    2    0    0 -0.13154061081E-01 -0.16151402480E-01 -0.59124953664E-02  0.21653053514E-01  0.00000000000E+00 0.  1.
     999901    1    3    3    0    0  0.89679210871E-01  0.40257589090E-01 -0.96556785512E-01  0.89072231766E+00  0.88000000000E+00 0.  1.
        -11    1    4    4    0    0 -0.47653177537E-01 -0.23355672524E-01  0.73370282011E-01  0.90552593402E-01  0.51100000000E-03 0.  1.
         11    1    4    4    0    0 -0.28871972253E-01 -0.75051408639E-03  0.29098998868E-01  0.41002035429E-01  0.51100000000E-03 0. -1.
</event>
<event>
 8    1  0.1191842E+005  0.1043930E+01  0.7957747E-01            NaN
         13   -1    0    0    0    0  0.00000000000E+00  0.00000000000E+00  0.74505805969E-08  0.10566000000E+00  0.10566000000E+00 0.  1.
     999900   -1    0    0    0    0 -0.00000000000E+00 -0.00000000000E+00 -0.74505805969E-08  0.93827000000E+00  0.93827000000E+00 0.  1.
     999902    2    1    2    0    0 -0.16908688194E-01 -0.41448174519E-02 -0.15830955479E-01  0.10203991182E+01  0.10201277655E+01 0.  0.
     999903    2    3    3    0    0 -0.91166848664E-01  0.83379056239E-01 -0.43659808582E-01  0.13250883896E+00  0.19721871153E-01 0.  0.
         14    1    1    2    0    0  0.16908688194E-01  0.41448174519E-02  0.15830955479E-01  0.23530881826E-01  0.00000000000E+00 0.  1.
     999901    1    3    3    0    0  0.74258160470E-01 -0.87523873691E-01  0.27828853102E-01  0.88789027922E+00  0.88000000000E+00 0.  1.
        -11    1    4    4    0    0 -0.54724350220E-01  0.46865991997E-01 -0.35341958691E-01  0.80252668977E-01  0.51100000000E-03 0.  1.
         11    1    4    4    0    0 -0.36442498444E-01  0.36513064242E-01 -0.83178498911E-02  0.52256169980E-01  0.51100000000E-03 0. -1.
</event>
<event>
 8    1  0.1191842E+005  0.1043930E+01  0.7957747E-01            NaN
         13   -1    0    0    0    0  0.00000000000E+00  0.00000000000E+00  0.74505805969E-08  0.10566000000E+00  0.10566000000E+00 0. -1.
     999900   -1    0    0    0    0 -0.00000000000E+00 -0.00000000000E+00 -0.74505805969E-08  0.93827000000E+00  0.93827000000E+00 0. -1.
     999902    2    1    2    0    0 -0.20756298603E-01 -0.60289906277E-02 -0.89226173657E-02  0.10205465494E+01  0.10202786256E+01 0.  0.
     999903    2    3    3    0    0 -0.40148353709E-01 -0.52046440026E-01 -0.11378780846E+00  0.13291466303E+00  0.19947933982E-01 0.  0.
         14    1    1    2    0    0  0.20756298603E-01  0.60289906277E-02  0.89226173657E-02  0.23383450566E-01  0.00000000000E+00 0. -1.
     999901    1    3    3    0    0  0.19392055106E-01  0.46017449398E-01  0.10486519110E+00  0.88763188640E+00  0.88000000000E+00 0.  1.
        -11    1    4    4    0    0 -0.30279257397E-01 -0.49298458767E-01 -0.10218951108E+00  0.11743137895E+00  0.51100000000E-03 0.  1.
         11    1    4    4    0    0 -0.98690963120E-02 -0.27479812589E-02 -0.11598297380E-01  0.15483284087E-01  0.51100000000E-03 0. -1.
</event>
<event>
 8    1  0.1191842E+005  0.1043930E+01  0.7957747E-01            NaN
         13   -1    0    0    0    0  0.00000000000E+00  0.00000000000E+00  0.74505805969E-08  0.10566000000E+00  0.10566000000E+00 0. -1.
     999900   -1    0    0    0    0 -0.00000000000E+00 -0.00000000000E+00 -0.74505805969E-08  0.93827000000E+00  0.93827000000E+00 0.  1.
     999902    2    1    2    0    0 -0.21604382028E-01  0.87202724385E-02  0.48068215243E-02  0.10201413891E+01  0.10198639889E+01 0.  0.
     999903    2    3    3    0    0  0.89963813752E-01  0.82384743035E-01 -0.36420972465E-01  0.12908939988E+00  0.21374102474E-01 0.  0.
         14    1    1    2    0    0  0.21604382028E-01 -0.87202724385E-02 -0.48068215243E-02  0.23788610875E-01  0.00000000000E+00 0.  1.
     999901    1    3    3    0    0 -0.11156819578E+00 -0.73664470596E-01  0.41227793990E-01  0.89105198924E+00  0.88000000000E+00 0. -1.
        -11    1    4    4    0    0  0.14213847847E-01  0.24916194936E-01 -0.66064958110E-02  0.29440739607E-01  0.51100000000E-03 0. -1.
         11    1    4    4    0    0  0.75749965905E-01  0.57468548099E-01 -0.29814476654E-01  0.99648660274E-01  0.51100000000E-03 0.  1.
</event>
<event>
 8    1  0.1191842E+005  0.1043930E+01  0.7957747E-01            NaN
         13   -1    0    0    0    0  0.00000000000E+00  0.00000000000E+00  0.74505805969E-08  0.10566000000E+00  0.10566000000E+00 0.  1.
     999900   -1    0    0    0    0 -0.00000000000E+00 -0.00000000000E+00 -0.74505805969E-08  0.93827000000E+00  0.93827000000E+00 0.  1.
     999902    2    1    2    0    0 -0.41093172283E-02  0.25714084160E-01 -0.16177684185E-02  0.10178394311E+01  0.10175049826E+01 0.  0.
     999903    2    3    3    0    0  0.35559373417E-01 -0.19502005447E-01 -0.11975086373E+00  0.12791048560E+00  0.19391382361E-01 0.  0.
         14    1    1    2    0    0  0.41093172283E-02 -0.25714084160E-01  0.16177684185E-02  0.26090568927E-01  0.00000000000E+00 0.  1.
     999901    1    3    3    0    0 -0.39668690646E-01  0.45216089607E-01  0.11813309531E+00  0.88992894547E+00  0.88000000000E+00 0. -1.
        -11    1    4    4    0    0  0.24803097606E-01 -0.82939225841E-02 -0.49781578092E-01  0.56235659870E-01  0.51100000000E-03 0. -1.
         11    1    4    4    0    0  0.10756275812E-01 -0.11208082862E-01 -0.69969285634E-01  0.71674825733E-01  0.51100000000E-03 0.  1.
</event>
<event>
 8    1  0.1191842E+005  0.1043930E+01  0.7957747E-01            NaN
         13   -1    0    0    0    0  0.00000000000E+00  0.00000000000E+00  0.74505805969E-08  0.10566000000E+00  0.10566000000E+00 0. -1.
     999900   -1    0    0    0    0 -0.00000000000E+00 -0.00000000000E+00 -0.74505805969E-08  0.93827000000E+00  0.93827000000E+00 0.  1.
     999902    2    1    2    0    0  0.10658727017E-01  0.20792907519E-01  0.28431755021E-02  0.10203920071E+01  0.10201204885E+01 0.  0.
     999903    2    3    3    0    0  0.99859564341E-02  0.93554442803E-01  0.91694738881E-01  0.13292972958E+00  0.20254253212E-01 0.  0.
         14    1    1    2    0    0 -0.10658727017E-01 -0.20792907519E-01 -0.28431755021E-02  0.23537992940E-01  0.00000000000E+00 0.  1.
     999901    1    3    3    0    0  0.67277058294E-03 -0.72761535284E-01 -0.88851563379E-01  0.88746227748E+00  0.88000000000E+00 0.  1.
        -11    1    4    4    0    0  0.51995938330E-02  0.68090503981E-01  0.77816310573E-01  0.10353256406E+00  0.51100000000E-03 0.  1.
         11    1    4    4    0    0  0.47863626011E-02  0.25463938822E-01  0.13878428309E-01  0.29397165520E-01  0.51100000000E-03 0. -1.
</event>
<event>
 8    1  0.1191842E+005  0.1043930E+01  0.7957747E-01            NaN
         13   -1    0    0    0    0  0.00000000000E+00  0.00000000000E+00  0.74505805969E-08  0.10566000000E+00  0.10566000000E+00 0. -1.
     999900   -1    0    0    0    0 -0.00000000000E+00 -0.00000000000E+00 -0.74505805969E-08  0.93827000000E+00  0.93827000000E+00 0.  1.
     999902    2    1    2    0    0  0.11993778400E-01 -0.39483945526E-03  0.20359217079E-01  0.10202973036E+01  0.10200235700E+01 0.  0.
     999903    2    3    3    0    0 -0.10450415159E+00 -0.68471075652E-01 -0.24429419959E-01  0.12888709297E+00  0.20141506258E-01 0.  0.
         14    1    1    2    0    0 -0.11993778400E-01  0.39483945526E-03 -0.20359217079E-01  0.23632696388E-01  0.00000000000E+00 0. -1.
     999901    1    3    3    0    0  0.11649792999E+00  0.68076236197E-01  0.44788637038E-01  0.89141021064E+00  0.88000000000E+00 0. -1.
        -11    1    4    4    0    0 -0.33276745426E-01 -0.32661142558E-01 -0.12490467264E-01  0.48273853304E-01  0.51100000000E-03 0. -1.
         11    1    4    4    0    0 -0.71227406165E-01 -0.35809933094E-01 -0.11938952695E-01  0.80613239668E-01  0.51100000000E-03 0.  1.
</event>
<event>
 8    1  0.1191842E+005  0.1043930E+01  0.7957747E-01            NaN
         13   -1    0    0    0    0  0.00000000000E+00  0.00000000000E+00  0.74505805969E-08  0.10566000000E+00  0.10566000000E+00 0. -1.
     999900   -1    0    0    0    0 -0.00000000000E+00 -0.00000000000E+00 -0.74505805969E-08  0.93827000000E+00  0.93827000000E+00 0. -1.
     999902    2    1    2    0    0  0.36245658439E-02  0.23073151967E-01 -0.41737204583E-02  0.10202039013E+01  0.10199279741E+01 0.  0.
     999903    2    3    3    0    0 -0.94067812634E-01 -0.84017482639E-01 -0.65974744948E-02  0.12834175977E+00  0.22812055319E-01 0.  0.
         14    1    1    2    0    0 -0.36245658439E-02 -0.23073151967E-01  0.41737204583E-02  0.23726098746E-01  0.00000000000E+00 0. -1.
     999901    1    3    3    0    0  0.97692378478E-01  0.10709063461E+00  0.24237540366E-02  0.89186214149E+00  0.88000000000E+00 0. -1.
        -11    1    4    4    0    0 -0.88614987701E-02 -0.26939360130E-02 -0.50122530979E-02  0.10543588280E-01  0.51100000000E-03 0. -1.
         11    1    4    4    0    0 -0.85206313864E-01 -0.81323546626E-01 -0.15852213969E-02  0.11779817149E+00  0.51100000000E-03 0.  1.
</event>
<event>
 8    1  0.1191842E+005  0.1043930E+01  0.7957747E-01            NaN
         13   -1    0    0    0    0  0.00000000000E+00  0.00000000000E+00  0.74505805969E-08  0.10566000000E+00  0.10566000000E+00 0. -1.
     999900   -1    0    0    0    0 -0.00000000000E+00 -0.00000000000E+00 -0.74505805969E-08  0.93827000000E+00  0.93827000000E+00 0.  1.
     999902    2    1    2    0    0  0.17590116469E-01 -0.13310977018E-01 -0.13009659020E-01  0.10183205187E+01  0.10179984446E+01 0.  0.
     999903    2    3    3    0    0 -0.11515550132E-01  0.12248961849E+00 -0.26036622424E-01  0.12733306457E+00  0.19987223240E-01 0.  0.
         14    1    1    2    0    0 -0.17590116469E-01  0.13310977018E-01  0.13009659020E-01  0.25609481338E-01  0.00000000000E+00 0. -1.
     999901    1    3    3    0    0  0.29105666602E-01 -0.13580059551E+00  0.13026963405E-01  0.89098745409E+00  0.88000000000E+00 0.  1.
        -11    1    4    4    0    0 -0.53858443415E-02  0.84795873549E-01 -0.87722048530E-02  0.85419905111E-01  0.51100000000E-03 0.  1.
         11    1    4    4    0    0 -0.61297057907E-02  0.37693744943E-01 -0.17264417571E-01  0.41913159461E-01  0.51100000000E-03 0. -1.
</event>
<event>
 8    1  0.1191842E+005  0.1043930E+01  0.7957747E-01            NaN
         13   -1    0    0    0    0  0.00000000000E+00  0.00000000000E+00  0.74505805969E-08  0.10566000000E+00  0.10566000000E+00 0. -1.
     999900   -1    0    0    0    0 -0.00000000000E+00 -0.00000000000E+00 -0.74505805969E-08  0.93827000000E+00  0.93827000000E+00 0.  1.
     999902    2    1    2    0    0 -0.11628922385E-01  0.19135826886E-01  0.54307184512E-02  0.10208886370E+01  0.10206285831E+01 0.  0.
     999903    2    3    3    0    0 -0.11381453013E-01 -0.12212503587E+00  0.35062464484E-01  0.12913041137E+00  0.20030598273E-01 0.  0.
         14    1    1    2    0    0  0.11628922385E-01 -0.19135826886E-01 -0.54307184512E-02  0.23041363010E-01  0.00000000000E+00 0.  1.
     999901    1    3    3    0    0 -0.24746937166E-03  0.14126086275E+00 -0.29631746033E-01  0.89175822562E+00  0.88000000000E+00 0.  1.
        -11    1    4    4    0    0 -0.17046355518E-01 -0.91095479822E-01  0.24487342557E-01  0.95858519428E-01  0.51100000000E-03 0. -1.
         11    1    4    4    0    0  0.56649025050E-02 -0.31029556044E-01  0.10575121927E-01  0.33271891943E-01  0.51100000000E-03 0.  1.
</event>
<event>
 8    1  0.1191842E+005  0.1043930E+01  0.7957747E-01            NaN
         13   -1    0    0    0    0  0.00000000000E+00  0.00000000000E+00  0.74505805969E-08  0.10566000000E+00  0.10566000000E+00 0.  1.
     999900   -1    0    0    0    0 -0.00000000000E+00 -0.00000000000E+00 -0.74505805969E-08  0.93827000000E+00  0.93827000000E+00 0.  1.
     999902    2    1    2    0    0  0.14869564052E-01  0.13311806748E-02 -0.18238366188E-01  0.10203606560E+01  0.10200884051E+01 0.  0.
     999903    2    3    3    0    0 -0.10510711012E+00 -0.71005899128E-01 -0.14917827161E-01  0.12927251137E+00  0.19987454049E-01 0.  0.
         14    1    1    2    0    0 -0.14869564052E-01 -0.13311806748E-02  0.18238366188E-01  0.23569344036E-01  0.00000000000E+00 0.  1.
     999901    1    3    3    0    0  0.11997667417E+00  0.72337079802E-01 -0.33205390269E-02  0.89108814460E+00  0.88000000000E+00 0. -1.
        -11    1    4    4    0    0 -0.42018606242E-01 -0.19949282083E-01  0.11722541624E-02  0.46531413335E-01  0.51100000000E-03 0.  1.
         11    1    4    4    0    0 -0.63088503878E-01 -0.51056617044E-01 -0.16090081323E-01  0.82741098033E-01  0.51100000000E-03 0. -1.
</event>
<event>
 8    1  0.1191842E+005  0.1043930E+01  0.7957747E-01            NaN
         13   -1    0    0    0    0  0.00000000000E+00  0.00000000000E+00  0.74505805969E-08  0.10566000000E+00  0.10566000000E+00 0. -1.
     999900   -1    0    0    0    0 -0.00000000000E+00 -0.00000000000E+00 -0.74505805969E-08  0.93827000000E+00  0.93827000000E+00 0.  1.
     999902    2    1    2    0    0  0.17738102084E-01  0.54401327639E-02 -0.14992621651E-01  0.10200759854E+01  0.10197970396E+01 0.  0.
     999903    2    3    3    0    0  0.54280449634E-01  0.11505271876E+00  0.27045389600E-01  0.13152803699E+00  0.19613161660E-01 0.  0.
         14    1    1    2    0    0 -0.17738102084E-01 -0.54401327639E-02  0.14992621651E-01  0.23854014630E-01  0.00000000000E+00 0.  1.
     999901    1    3    3    0    0 -0.36542347550E-01 -0.10961258600E+00 -0.42038011251E-01  0.88854794838E+00  0.88000000000E+00 0. -1.
        -11    1    4    4    0    0  0.41749791299E-01  0.92625259901E-01  0.29278699266E-01  0.10573545856E+00  0.51100000000E-03 0. -1.
         11    1    4    4    0    0  0.12530658334E-01  0.22427458859E-01 -0.22333096666E-02  0.25792578433E-01  0.51100000000E-03 0.  1.
</event>
<event>
 8    1  0.1191842E+005  0.1043930E+01  0.7957747E-01            NaN
         13   -1    0    0    0    0  0.00000000000E+00  0.00000000000E+00  0.74505805969E-08  0.10566000000E+00  0.10566000000E+00 0.  1.
     999900   -1    0    0    0    0 -0.00000000000E+00 -0.00000000000E+00 -0.74505805969E-08  0.93827000000E+00  0.93827000000E+00 0.  1.
     999902    2    1    2    0    0  0.10401026619E-01 -0.15958173496E-01 -0.14379418954E-01  0.10200634471E+01  0.10197842045E+01 0.  0.
     999903    2    3    3    0    0 -0.26065113000E-01 -0.24830190946E-01 -0.12599757725E+00  0.13221937001E+00  0.17625091033E-01 0.  0.
         14    1    1    2    0    0 -0.10401026619E-01  0.15958173496E-01  0.14379418954E-01  0.23866552862E-01  0.00000000000E+00 0.  1.
     999901    1    3    3    0    0  0.36466139618E-01  0.88720174494E-02  0.11161815830E+00  0.88784407713E+00  0.88000000000E+00 0. -1.
        -11    1    4    4    0    0 -0.15241737656E-01 -0.24662900996E-01 -0.84816020147E-01  0.89635861389E-01  0.51100000000E-03 0. -1.
         11    1    4    4    0    0 -0.10823375344E-01 -0.16728994973E-03 -0.41181557105E-01  0.42583508619E-01  0.51100000000E-03 0.  1.
</event>
<event>
 8    1  0.1191842E+005  0.1043930E+01  0.7957747E-01            NaN
         13   -1    0    0    0    0  0.00000000000E+00  0.00000000000E+00  0.74505805969E-08  0.10566000000E+00  0.10566000000E+00 0.  1.
     999900   -1    0    0    0    0 -0.00000000000E+00 -0.00000000000E+00 -0.74505805969E-08  0.93827000000E+00  0.93827000000E+00 0.  1.
     999902    2    1    2    0    0 -0.67791990561E-02 -0.35717987394E-02  0.22516127195E-01  0.10201457348E+01  0.10198684371E+01 0.  0.
     999903    2    3    3    0    0 -0.92322954794E-01  0.21037589680E-01  0.91225783032E-01  0.13299052126E+00  0.19955628144E-01 0.  0.
         14    1    1    2    0    0  0.67791990561E-02  0.35717987394E-02 -0.22516127195E-01  0.23784265175E-01  0.00000000000E+00 0. -1.
     999901    1    3    3    0    0  0.85543755738E-01 -0.24609388420E-01 -0.68709655838E-01  0.88715521356E+00  0.88000000000E+00 0. -1.
        -11    1    4    4    0    0 -0.65345954752E-01  0.20008474931E-01  0.54530455923E-01  0.87431485265E-01  0.51100000000E-03 0.  1.
         11    1    4    4    0    0 -0.26977000042E-01  0.10291147493E-02  0.36695327109E-01  0.45559035998E-01  0.51100000000E-03 0. -1.
</event>
<event>
 8    1  0.1191842E+005  0.1043930E+01  0.7957747E-01            NaN
         13   -1    0    0    0    0  0.00000000000E+00  0.00000000000E+00  0.74505805969E-08  0.10566000000E+00  0.10566000000E+00 0.  1.
     999900   -1    0    0    0    0 -0.00000000000E+00 -0.00000000000E+00 -0.74505805969E-08  0.93827000000E+00  0.93827000000E+00 0.  1.
     999902    2    1    2    0    0 -0.73793674562E-02  0.22312248146E-01 -0.44589525195E-02  0.10200098466E+01  0.10197293334E+01 0.  0.
     999903    2    3    3    0    0  0.17221562963E-01 -0.65179646388E-01  0.10716327512E+00  0.12831507870E+00  0.20876382642E-01 0.  0.
         14    1    1    2    0    0  0.73793674562E-02 -0.22312248146E-01  0.44589525195E-02  0.23920153406E-01  0.00000000000E+00 0.  1.
     999901    1    3    3    0    0 -0.24600930419E-01  0.87491894534E-01 -0.11162222764E+00  0.89169476789E+00  0.88000000000E+00 0.  1.
        -11    1    4    4    0    0  0.48262669347E-02 -0.30185176437E-01  0.30764764243E-01  0.43372451729E-01  0.51100000000E-03 0.  1.
         11    1    4    4    0    0  0.12395296028E-01 -0.34994469951E-01  0.76398510881E-01  0.84942626971E-01  0.51100000000E-03 0. -1.
</event>
<event>
 8    1  0.1191842E+005  0.1043930E+01  0.7957747E-01            NaN
         13   -1    0    0    0    0  0.00000000000E+00  0.00000000000E+00  0.74505805969E-08  0.10566000000E+00  0.10566000000E+00 0.  1.
     999900   -1    0    0    0    0 -0.00000000000E+00 -0.00000000000E+00 -0.74505805969E-08  0.93827000000E+00  0.93827000000E+00 0. -1.
     999902    2    1    2    0    0 -0.20602799453E-01 -0.22548510303E-01 -0.11029467300E-01  0.10114560133E+01  0.10109345711E+01 0.  0.
     999903    2    3    3    0    0  0.11329925993E+00 -0.32995328265E-01 -0.19910335058E-01  0.12122134351E+00  0.19307477641E-01 0.  0.
         14    1    1    2    0    0  0.20602799453E-01  0.22548510303E-01  0.11029467300E-01  0.32473986684E-01  0.00000000000E+00 0.  1.
     999901    1    3    3    0    0 -0.13390205938E+00  0.10446817961E-01  0.88808677583E-02  0.89023466981E+00  0.88000000000E+00 0.  1.
        -11    1    4    4    0    0  0.58583236405E-01 -0.85038878922E-02 -0.15005584852E-01  0.61071600558E-01  0.51100000000E-03 0. -1.
         11    1    4    4    0    0  0.54716023523E-01 -0.24491440372E-01 -0.49047502065E-02  0.60149742953E-01  0.51100000000E-03 0.  1.
</event>
<event>
 8    1  0.1191842E+005  0.1043930E+01  0.7957747E-01            NaN
         13   -1    0    0    0    0  0.00000000000E+00  0.00000000000E+00  0.74505805969E-08  0.10566000000E+00  0.10566000000E+00 0. -1.
     999900   -1    0    0    0    0 -0.00000000000E+00 -0.00000000000E+00 -0.74505805969E-08  0.93827000000E+00  0.93827000000E+00 0. -1.
     999902    2    1    2    0    0  0.18652230479E-01 -0.62757237315E-02  0.14192316908E-01  0.10196666064E+01  0.10193778867E+01 0.  0.
     999903    2    3    3    0    0  0.56044327287E-01 -0.35320243335E-01 -0.11000905291E+00  0.12968473394E+00  0.18101168035E-01 0.  0.
         14    1    1    2    0    0 -0.18652230479E-01  0.62757237315E-02 -0.14192316908E-01  0.24263393609E-01  0.00000000000E+00 0.  1.
     999901    1    3    3    0    0 -0.37392096808E-01  0.29044519603E-01  0.12420136982E+00  0.88998187245E+00  0.88000000000E+00 0.  1.
        -11    1    4    4    0    0  0.33708805216E-01 -0.21169271749E-01 -0.48593538154E-01  0.62817311999E-01  0.51100000000E-03 0.  1.
         11    1    4    4    0    0  0.22335522071E-01 -0.14150971586E-01 -0.61415514761E-01  0.66867421943E-01  0.51100000000E-03 0. -1.
</event>
<event>
 8    1  0.1191842E+005  0.1043930E+01  0.7957747E-01            NaN
         13   -1    0    0    0    0  0.00000000000E+00  0.00000000000E+00  0.74505805969E-08  0.10566000000E+00  0.10566000000E+00 0. -1.
     999900   -1    0    0    0    0 -0.00000000000E+00 -0.00000000000E+00 -0.74505805969E-08  0.93827000000E+00  0.93827000000E+00 0.  1.
     999902    2    1    2    0    0 -0.18954412944E-01  0.12511593720E-01 -0.70465251199E-02  0.10201505285E+01  0.10198733439E+01 0.  0.
     999903    2    3    3    0    0  0.72898412734E-01 -0.10111237542E+00  0.20583485910E-01  0.12767601042E+00  0.18428041194E-01 0.  0.
         14    1    1    2    0    0  0.18954412944E-01 -0.12511593720E-01  0.70465251199E-02  0.23779471477E-01  0.00000000000E+00 0.  1.
     999901    1    3    3    0    0 -0.91852825679E-01  0.11362396914E+00 -0.27630011030E-01  0.89247451810E+00  0.88000000000E+00 0.  1.
        -11    1    4    4    0    0  0.12571032612E-01 -0.29395547628E-01  0.91851691981E-02  0.33267965605E-01  0.51100000000E-03 0.  1.
         11    1    4    4    0    0  0.60327380122E-01 -0.71716827796E-01  0.11398316712E-01  0.94408044818E-01  0.51100000000E-03 0. -1.
</event>
<event>
 8    1  0.1191842E+005  0.1043930E+01  0.7957747E-01            NaN
         13   -1    0    0    0    0  0.00000000000E+00  0.00000000000E+00  0.74505805969E-08  0.10566000000E+00  0.10566000000E+00 0.  1.
     999900   -1    0    0    0    0 -0.00000000000E+00 -0.00000000000E+00 -0.74505805969E-08  0.93827000000E+00  0.93827000000E+00 0.  1.
     999902    2    1    2    0    0 -0.19262665137E-01  0.12249003474E-01  0.45319759721E-02  0.10206571153E+01  0.10203917483E+01 0.  0.
     999903    2    3    3    0    0  0.30900905020E-01 -0.82723934113E-01 -0.91669713863E-01  0.12892228492E+00  0.20481794461E-01 0.  0.
         14    1    1    2    0    0  0.19262665137E-01 -0.12249003474E-01 -0.45319759721E-02  0.23272884662E-01  0.00000000000E+00 0. -1.
     999901    1    3    3    0    0 -0.50163570157E-01  0.94972937587E-01  0.96201689835E-01  0.89173483041E+00  0.88000000000E+00 0. -1.
        -11    1    4    4    0    0  0.46897512802E-02 -0.40404175443E-01 -0.45396715064E-01  0.60955836635E-01  0.51100000000E-03 0.  1.
         11    1    4    4    0    0  0.26211153739E-01 -0.42319758670E-01 -0.46272998799E-01  0.67966448290E-01  0.51100000000E-03 0. -1.
</event>
<event>
 8    1  0.1191842E+005  0.1043930E+01  0.7957747E-01            NaN
         13   -1    0    0    0    0  0.00000000000E+00  0.00000000000E+00  0.74505805969E-08  0.10566000000E+00  0.10566000000E+00 0.  1.
     999900   -1    0    0    0    0 -0.00000000000E+00 -0.00000000000E+00 -0.74505805969E-08  0.93827000000E+00  0.93827000000E+00 0. -1.
     999902    2    1    2    0    0 -0.13096139618E-01 -0.67869302106E-02  0.20296524299E-01  0.10188397590E+01  0.10185307724E+01 0.  0.
     999903    2    3    3    0    0 -0.11000988206E+00 -0.91318594262E-02 -0.64430092046E-01  0.12947123489E+00  0.20639740680E-01 0.  0.
         14    1    1    2    0    0  0.13096139618E-01  0.67869302106E-02 -0.20296524299E-01  0.25090240995E-01  0.00000000000E+00 0. -1.
     999901    1    3    3    0    0  0.96913742443E-01  0.23449292157E-02  0.84726616346E-01  0.88936852411E+00  0.88000000000E+00 0.  1.
        -11    1    4    4    0    0 -0.10377304717E+00 -0.92171794168E-02 -0.54096693232E-01  0.11739043852E+00  0.51100000000E-03 0. -1.
         11    1    4    4    0    0 -0.62368348875E-02  0.85319990598E-04 -0.10333398814E-01  0.12080796371E-01  0.51100000000E-03 0.  1.
</event>
<event>
 8    1  0.1191842E+005  0.1043930E+01  0.7957747E-01            NaN
         13   -1    0    0    0    0  0.00000000000E+00  0.00000000000E+00  0.74505805969E-08  0.10566000000E+00  0.10566000000E+00 0. -1.
     999900   -1    0    0    0    0 -0.00000000000E+00 -0.00000000000E+00 -0.74505805969E-08  0.93827000000E+00  0.93827000000E+00 0. -1.
     999902    2    1    2    0    0  0.10488390624E-01 -0.12547366382E-01 -0.17510989595E-01  0.10199700856E+01  0.10196886280E+01 0.  0.
     999903    2    3    3    0    0 -0.54903861475E-02 -0.13029773537E+00  0.36003717037E-02  0.13173241456E+00  0.18243414850E-01 0.  0.
         14    1    1    2    0    0 -0.10488390624E-01  0.12547366382E-01  0.17510989595E-01  0.23959914391E-01  0.00000000000E+00 0.  1.
     999901    1    3    3    0    0  0.15978776771E-01  0.11775036899E+00 -0.21111361299E-01  0.88823767105E+00  0.88000000000E+00 0.  1.
        -11    1    4    4    0    0  0.44205655236E-02 -0.56614853081E-01  0.74968981562E-02  0.57282175168E-01  0.51100000000E-03 0. -1.
         11    1    4    4    0    0 -0.99109516711E-02 -0.73682882289E-01 -0.38965264525E-02  0.74450239388E-01  0.51100000000E-03 0.  1.
</event>
<event>
 8    1  0.1191842E+005  0.1043930E+01  0.7957747E-01            NaN
         13   -1    0    0    0    0  0.00000000000E+00  0.00000000000E+00  0.74505805969E-08  0.10566000000E+00  0.10566000000E+00 0. -1.
     999900   -1    0    0    0    0 -0.00000000000E+00 -0.00000000000E+00 -0.74505805969E-08  0.93827000000E+00  0.93827000000E+00 0. -1.
     999902    2    1    2    0    0  0.12193799327E-01  0.14358176762E-01 -0.14361999216E-01  0.10202421761E+01  0.10199671489E+01 0.  0.
     999903    2    3    3    0    0 -0.11993653956E+00 -0.17050879363E-01  0.37305230541E-01  0.12832600404E+00  0.20009424782E-01 0.  0.
         14    1    1    2    0    0 -0.12193799327E-01 -0.14358176762E-01  0.14361999216E-01  0.23687823949E-01  0.00000000000E+00 0.  1.
     999901    1    3    3    0    0  0.13213033888E+00  0.31409056126E-01 -0.51667229757E-01  0.89191617201E+00  0.88000000000E+00 0. -1.
        -11    1    4    4    0    0 -0.76139132229E-01 -0.17228360381E-02  0.26877464115E-01  0.80763821225E-01  0.51100000000E-03 0. -1.
         11    1    4    4    0    0 -0.43797407326E-01 -0.15328043325E-01  0.10427766425E-01  0.47562182817E-01  0.51100000000E-03 0.  1.
</event>
<event>
 8    1  0.1191842E+005  0.1043930E+01  0.7957747E-01            NaN
         13   -1    0    0    0    0  0.00000000000E+00  0.00000000000E+00  0.74505805969E-08  0.10566000000E+00  0.10566000000E+00 0. -1.
     999900   -1    0    0    0    0 -0.00000000000E+00 -0.00000000000E+00 -0.74505805969E-08  0.93827000000E+00  0.93827000000E+00 0.  1.
     999902    2    1    2    0    0  0.15344750691E-01 -0.58031930412E-02 -0.16031290425E-01  0.10209922430E+01  0.10207345490E+01 0.  0.
     999903    2    3    3    0    0 -0.22211828368E-01  0.26162245240E-01  0.12251606023E+00  0.12878842422E+00  0.19961082224E-01 0.  0.
         14    1    1    2    0    0 -0.15344750691E-01  0.58031930412E-02  0.16031290425E-01  0.22937756994E-01  0.00000000000E+00 0. -1.
     999901    1    3    3    0    0  0.37556579060E-01 -0.31965438281E-01 -0.13854735066E+00  0.89220381878E+00  0.88000000000E+00 0.  1.
        -11    1    4    4    0    0 -0.16791176372E-01  0.12715608744E-01  0.98522843977E-01  0.10075039561E+00  0.51100000000E-03 0. -1.
         11    1    4    4    0    0 -0.54206519964E-02  0.13446636496E-01  0.23993216256E-01  0.28038028611E-01  0.51100000000E-03 0.  1.
</event>
<event>
 8    1  0.1191842E+005  0.1043930E+01  0.7957747E-01            NaN
         13   -1    0    0    0    0  0.00000000000E+00  0.00000000000E+00  0.74505805969E-08  0.10566000000E+00  0.10566000000E+00 0. -1.
     999900   -1    0    0    0    0 -0.00000000000E+00 -0.00000000000E+00 -0.74505805969E-08  0.93827000000E+00  0.93827000000E+00 0. -1.
     999902    2    1    2    0    0  0.16195823151E-01 -0.38064689870E-02  0.16280002685E-01  0.10206527067E+01  0.10203872380E+01 0.  0.
     999903    2    3    3    0    0  0.99643154714E-01 -0.82216684236E-01 -0.22033755204E-01  0.13240749114E+00  0.18918665246E-01 0.  0.
         14    1    1    2    0    0 -0.16195823151E-01  0.38064689870E-02 -0.16280002685E-01  0.23277293251E-01  0.00000000000E+00 0. -1.
     999901    1    3    3    0    0 -0.83447331563E-01  0.78410215249E-01  0.38313757889E-01  0.88824521560E+00  0.88000000000E+00 0.  1.
        -11    1    4    4    0    0  0.14100752327E-01 -0.11369697776E-01  0.34572507456E-02  0.18447627149E-01  0.51100000000E-03 0. -1.
         11    1    4    4    0    0  0.85542402387E-01 -0.70846986460E-01 -0.25491005950E-01  0.11395986400E+00  0.51100000000E-03 0.  1.
</event>
<event>
 8    1  0.1191842E+005  0.1043930E+01  0.7957747E-01            NaN
         13   -1    0    0    0    0  0.00000000000E+00  0.00000000000E+00  0.74505805969E-08  0.10566000000E+00  0.10566000000E+00 0.  1.
     999900   -1    0    0    0    0 -0.00000000000E+00 -0.00000000000E+00 -0.74505805969E-08  0.93827000000E+00  0.93827000000E+00 0. -1.
     999902    2    1    2    0    0 -0.28512750286E-02 -0.22269793103E-01 -0.83079057344E-02  0.10199906025E+01  0.10197096324E+01 0.  0.
     999903    2    3    3    0    0 -0.10064245320E+00  0.43142565906E-02 -0.82700591059E-01  0.13105635419E+00  0.13742780495E-01 0.  0.
         14    1    1    2    0    0  0.28512750286E-02  0.22269793103E-01  0.83079057344E-02  0.23939397482E-01  0.00000000000E+00 0. -1.
     999901    1    3    3    0    0  0.97791178168E-01 -0.26584049693E-01  0.74392685325E-01  0.88893424833E+00  0.88000000000E+00 0.  1.
        -11    1    4    4    0    0 -0.33914100948E-01  0.29370447899E-02 -0.20026253124E-01  0.39498157050E-01  0.51100000000E-03 0.  1.
         11    1    4    4    0    0 -0.66728352249E-01  0.13772118007E-02 -0.62674337935E-01  0.91558197136E-01  0.51100000000E-03 0. -1.
</event>
<event>
 8    1  0.1191842E+005  0.1043930E+01  0.7957747E-01            NaN
         13   -1    0    0    0    0  0.00000000000E+00  0.00000000000E+00  0.74505805969E-08  0.10566000000E+00  0.10566000000E+00 0.  1.
     999900   -1    0    0    0    0 -0.00000000000E+00 -0.00000000000E+00 -0.74505805969E-08  0.93827000000E+00  0.93827000000E+00 0.  1.
     999902    2    1    2    0    0 -0.56410490244E-02  0.11228989618E-02  0.22290929198E-01  0.10209089692E+01  0.10206493793E+01 0.  0.
     999903    2    3    3    0    0  0.10573681046E+00  0.52175341936E-02  0.75321192578E-01  0.13229544099E+00  0.24926008651E-01 0.  0.
         14    1    1    2    0    0  0.56410490244E-02 -0.11228989618E-02 -0.22290929198E-01  0.23021030835E-01  0.00000000000E+00 0. -1.
     999901    1    3    3    0    0 -0.11137785948E+00 -0.40946352318E-02 -0.53030263380E-01  0.88861352817E+00  0.88000000000E+00 0.  1.
        -11    1    4    4    0    0  0.77150278739E-01 -0.61049297246E-02  0.47370181663E-01  0.90739356997E-01  0.51100000000E-03 0.  1.
         11    1    4    4    0    0  0.28586531717E-01  0.11322463918E-01  0.27951010915E-01  0.41556083994E-01  0.51100000000E-03 0. -1.
</event>
<event>
 8    1  0.1191842E+005  0.1043930E+01  0.7957747E-01            NaN
         13   -1    0    0    0    0  0.00000000000E+00  0.00000000000E+00  0.74505805969E-08  0.10566000000E+00  0.10566000000E+00 0. -1.
     999900   -1    0    0    0    0 -0.00000000000E+00 -0.00000000000E+00 -0.74505805969E-08  0.93827000000E+00  0.93827000000E+00 0.  1.
     999902    2    1    2    0    0 -0.70352485820E-02 -0.18981867347E-01 -0.12484291147E-01  0.10201463179E+01  0.10198690339E+01 0.  0.
     999903    2    3    3    0    0 -0.80064557233E-01  0.55424059184E-01  0.81084826354E-01  0.12906568090E+00  0.24516142825E-01 0.  0.
         14    1    1    2    0    0  0.70352485820E-02  0.18981867347E-01  0.12484291147E-01  0.23783682138E-01  0.00000000000E+00 0. -1.
     999901    1    3    3    0    0  0.73029308651E-01 -0.74405926531E-01 -0.93569117501E-01  0.89108063697E+00  0.88000000000E+00 0.  1.
        -11    1    4    4    0    0 -0.39530067322E-01  0.31306852128E-01  0.56993087056E-01  0.76100054572E-01  0.51100000000E-03 0.  1.
         11    1    4    4    0    0 -0.40534489912E-01  0.24117207057E-01  0.24091739298E-01  0.52965626325E-01  0.51100000000E-03 0. -1.
</event>
<event>
 8    1  0.1191842E+005  0.1043930E+01  0.7957747E-01            NaN
         13   -1    0    0    0    0  0.00000000000E+00  0.00000000000E+00  0.74505805969E-08  0.10566000000E+00  0.10566000000E+00 0.  1.
     999900   -1    0    0    0    0 -0.00000000000E+00 -0.00000000000E+00 -0.74505805969E-08  0.93827000000E+00  0.93827000000E+00 0.  1.
     999902    2    1    2    0    0 -0.34664873811E-02 -0.21626246072E-01 -0.91994884708E-02  0.10201741241E+01  0.10198974957E+01 0.  0.
     999903    2    3    3    0    0  0.11956363707E-01  0.10819423199E+00 -0.65939506527E-01  0.12870867295E+00  0.19208266498E-01 0.  0.
         14    1    1    2    0    0  0.34664873811E-02  0.21626246072E-01  0.91994884708E-02  0.23755875948E-01  0.00000000000E+00 0. -1.
     999901    1    3    3    0    0 -0.15422851088E-01 -0.12982047806E+00  0.56740018056E-01  0.89146545110E+00  0.88000000000E+00 0. -1.
        -11    1    4    4    0    0  0.34510094399E-02  0.49958219591E-02 -0.28618954253E-03  0.61000597256E-02  0.51100000000E-03 0.  1.
         11    1    4    4    0    0  0.85053542669E-02  0.10319841003E+00 -0.65653316984E-01  0.12260861322E+00  0.51100000000E-03 0. -1.
</event>
<event>
 8    1  0.1191842E+005  0.1043930E+01  0.7957747E-01            NaN
         13   -1    0    0    0    0  0.00000000000E+00  0.00000000000E+00  0.74505805969E-08  0.10566000000E+00  0.10566000000E+00 0. -1.
     999900   -1    0    0    0    0 -0.00000000000E+00 -0.00000000000E+00 -0.74505805969E-08  0.93827000000E+00  0.93827000000E+00 0.  1.
     999902    2    1    2    0    0 -0.57514569142E-02 -0.22706436702E-01 -0.59305024744E-02  0.10197673763E+01  0.10194810785E+01 0.  0.
     999903    2    3    3    0    0  0.11409524204E-01 -0.65568754237E-01 -0.11239057055E+00  0.13214953983E+00  0.20060452457E-01 0.  0.
         14    1    1    2    0    0  0.57514569142E-02  0.22706436702E-01  0.59305024744E-02  0.24162623697E-01  0.00000000000E+00 0. -1.
     999901    1    3    3    0    0 -0.17160981119E-01  0.42862317536E-01  0.10646006808E+00  0.88761783648E+00  0.88000000000E+00 0. -1.
        -11    1    4    4    0    0  0.16633012134E-03 -0.25386467364E-01 -0.60141139237E-01  0.65281836223E-01  0.51100000000E-03 0. -1.
         11    1    4    4    0    0  0.11243194083E-01 -0.40182286873E-01 -0.52249431313E-01  0.66867703603E-01  0.51100000000E-03 0.  1.
</event>
<event>
 8    1  0.1205474E+005  0.1043930E+01  0.7957747E-01            NaN
         13   -1    0    0    0    0  0.00000000000E+00  0.00000000000E+00  0.74505805969E-08  0.10566000000E+00  0.10566000000E+00 0.  1.
     999900   -1    0    0    0    0 -0.00000000000E+00 -0.00000000000E+00 -0.74505805969E-08  0.93827000000E+00  0.93827000000E+00 0.  1.
     999902    2    1    2    0    0 -0.41982723511E-02  0.20433596381E-01 -0.11747299744E-01  0.10199893149E+01  0.10197083142E+01 0.  0.
     999903    2    3    3    0    0  0.10479991005E+00  0.18349105030E-01  0.70890984092E-01  0.12941981462E+00  0.20105869527E-01 0.  0.
         14    1    1    2    0    0  0.41982723511E-02 -0.20433596381E-01  0.11747299744E-01  0.23940685101E-01  0.00000000000E+00 0.  1.
     999901    1    3    3    0    0 -0.10899818240E+00  0.20844913517E-02 -0.82638283836E-01  0.89056950028E+00  0.88000000000E+00 0. -1.
        -11    1    4    4    0    0  0.78694711952E-01  0.19820930295E-01  0.45839657191E-01  0.93205484063E-01  0.51100000000E-03 0. -1.
         11    1    4    4    0    0  0.26105198096E-01 -0.14718252659E-02  0.25051326902E-01  0.36214330558E-01  0.51100000000E-03 0.  1.
</event>
<event>
 8    1  0.1191842E+005  0.1043930E+01  0.7957747E-01            NaN
         13   -1    0    0    0    0  0.00000000000E+00  0.00000000000E+00  0.74505805969E-08  0.10566000000E+00  0.10566000000E+00 0. -1.
     999900   -1    0    0    0    0 -0.00000000000E+00 -0.00000000000E+00 -0.74505805969E-08  0.93827000000E+00  0.93827000000E+00 0. -1.
     999902    2    1    2    0    0  0.89198047155E-02 -0.71132153050E-02  0.19348263719E-01  0.10214685651E+01  0.10212215790E+01 0.  0.
     999903    2    3    3    0    0 -0.73563725312E-01 -0.69605897557E-01 -0.78826890383E-01  0.12998259835E+00  0.20620246584E-01 0.  0.
         14    1    1    2    0    0 -0.89198047155E-02  0.71132153050E-02 -0.19348263719E-01  0.22461434885E-01  0.00000000000E+00 0.  1.
     999901    1    3    3    0    0  0.82483530028E-01  0.62492682252E-01  0.98175154102E-01  0.89148596677E+00  0.88000000000E+00 0.  1.
        -11    1    4    4    0    0 -0.43757125099E-01 -0.28247884762E-01 -0.44657735714E-01  0.68609062598E-01  0.51100000000E-03 0.  1.
         11    1    4    4    0    0 -0.29806600213E-01 -0.41358012795E-01 -0.34169154669E-01  0.61373535749E-01  0.51100000000E-03 0. -1.
</event>
<event>
 8    1  0.1191842E+005  0.1043930E+01  0.7957747E-01            NaN
         13   -1    0    0    0    0  0.00000000000E+00  0.00000000000E+00  0.74505805969E-08  0.10566000000E+00  0.10566000000E+00 0.  1.
     999900   -1    0    0    0    0 -0.00000000000E+00 -0.00000000000E+00 -0.74505805969E-08  0.93827000000E+00  0.93827000000E+00 0. -1.
     999902    2    1    2    0    0  0.81697971912E-02  0.15639211083E-01  0.13825689632E-01  0.10215139298E+01  0.10212679514E+01 0.  0.
     999903    2    3    3    0    0 -0.21021438182E-01 -0.39685874132E-01  0.12307466790E+00  0.13255480108E+00  0.20162637281E-01 0.  0.
         14    1    1    2    0    0 -0.81697971912E-02 -0.15639211083E-01 -0.13825689632E-01  0.22416070201E-01  0.00000000000E+00 0. -1.
     999901    1    3    3    0    0  0.29191235373E-01  0.55325085215E-01 -0.10924897827E+00  0.88895912872E+00  0.88000000000E+00 0. -1.
        -11    1    4    4    0    0 -0.20461454478E-02 -0.66816129378E-02  0.53184939721E-02  0.87964857628E-02  0.51100000000E-03 0.  1.
         11    1    4    4    0    0 -0.18975292734E-01 -0.33004261194E-01  0.11775617393E+00  0.12375831532E+00  0.51100000000E-03 0. -1.
</event>
<event>
 8    1  0.1191842E+005  0.1043930E+01  0.7957747E-01            NaN
         13   -1    0    0    0    0  0.00000000000E+00  0.00000000000E+00  0.74505805969E-08  0.10566000000E+00  0.10566000000E+00 0.  1.
     999900   -1    0    0    0    0 -0.00000000000E+00 -0.00000000000E+00 -0.74505805969E-08  0.93827000000E+00  0.93827000000E+00 0. -1.
     999902    2    1    2    0    0  0.51862842225E-02 -0.19129394090E-01  0.14430948400E-01  0.10194129950E+01  0.10191181339E+01 0.  0.
     999903    2    3    3    0    0 -0.19204910866E-01 -0.12873063424E+00 -0.99523374962E-02  0.13194361138E+00  0.19226616149E-01 0.  0.
         14    1    1    2    0    0 -0.51862842225E-02  0.19129394090E-01 -0.14430948400E-01  0.24517004997E-01  0.00000000000E+00 0. -1.
     999901    1    3    3    0    0  0.24391195089E-01  0.10960124015E+00  0.24383285897E-01  0.88746938362E+00  0.88000000000E+00 0.  1.
        -11    1    4    4    0    0 -0.12501093400E-01 -0.11849291963E+00 -0.70708913908E-02  0.11936124985E+00  0.51100000000E-03 0. -1.
         11    1    4    4    0    0 -0.67038174662E-02 -0.10237714608E-01 -0.28814461054E-02  0.12582361530E-01  0.51100000000E-03 0.  1.
</event>
<event>
 8    1  0.1191842E+005  0.1043930E+01  0.7957747E-01            NaN
         13   -1    0    0    0    0  0.00000000000E+00  0.00000000000E+00  0.74505805969E-08  0.10566000000E+00  0.10566000000E+00 0.  1.
     999900   -1    0    0    0    0 -0.00000000000E+00 -0.00000000000E+00 -0.74505805969E-08  0.93827000000E+00  0.93827000000E+00 0. -1.
     999902    2    1    2    0    0 -0.23481047512E-01  0.31933751675E-02 -0.37116022298E-02  0.10199438951E+01  0.10196618145E+01 0.  0.
     999903    2    3    3    0    0  0.58130040184E-01 -0.13153316854E-01  0.11194926025E+00  0.12848160252E+00  0.20561468847E-01 0.  0.
         14    1    1    2    0    0  0.23481047512E-01 -0.31933751675E-02  0.37116022298E-02  0.23986104902E-01  0.00000000000E+00 0.  1.
     999901    1    3    3    0    0 -0.81611087697E-01  0.16346692022E-01 -0.11566086248E+00  0.89146229258E+00  0.88000000000E+00 0. -1.
        -11    1    4    4    0    0  0.98711725842E-02 -0.12406209484E-02  0.38669659591E-01  0.39932228618E-01  0.51100000000E-03 0.  1.
         11    1    4    4    0    0  0.48258867600E-01 -0.11912695906E-01  0.73279600655E-01  0.88549373905E-01  0.51100000000E-03 0. -1.
</event>
<event>
 8    1  0.1191842E+005  0.1043930E+01  0.7957747E-01            NaN
         13   -1    0    0    0    0  0.00000000000E+00  0.00000000000E+00  0.74505805969E-08  0.10566000000E+00  0.10566000000E+00 0. -1.
     999900   -1    0    0    0    0 -0.00000000000E+00 -0.00000000000E+00 -0.74505805969E-08  0.93827000000E+00  0.93827000000E+00 0.  1.
     999902    2    1    2    0    0 -0.12087357503E-01  0.20168977717E-01  0.13184219012E-01  0.10169723387E+01  0.10166149822E+01 0.  0.
     999903    2    3    3    0    0 -0.43321170024E-01 -0.20043701860E-03  0.12052346781E+00  0.12966620298E+00  0.20264598578E-01 0.  0.
         14    1    1    2    0    0  0.12087357503E-01 -0.20168977717E-01 -0.13184219012E-01  0.26957661332E-01  0.00000000000E+00 0. -1.
     999901    1    3    3    0    0  0.31233812521E-01  0.20369414736E-01 -0.10733924879E+00  0.88730613569E+00  0.88000000000E+00 0.  1.
        -11    1    4    4    0    0 -0.16979365096E-01 -0.60566783038E-02  0.71120428510E-01  0.73371374960E-01  0.51100000000E-03 0.  1.
         11    1    4    4    0    0 -0.26341804928E-01  0.58562412852E-02  0.49403039296E-01  0.56294828018E-01  0.51100000000E-03 0. -1.
</event>
<event>
 8    1  0.1191842E+005  0.1043930E+01  0.7957747E-01            NaN
         13   -1    0    0    0    0  0.00000000000E+00  0.00000000000E+00  0.74505805969E-08  0.10566000000E+00  0.10566000000E+00 0.  1.
     999900   -1    0    0    0    0 -0.00000000000E+00 -0.00000000000E+00 -0.74505805969E-08  0.93827000000E+00  0.93827000000E+00 0. -1.
     999902    2    1    2    0    0  0.22490707526E-02 -0.19160194869E-01  0.86336140729E-02  0.10227944688E+01  0.10225760680E+01 0.  0.
     999903    2    3    3    0    0  0.92122937509E-01 -0.36131595228E-01  0.88716201952E-01  0.13443724267E+00  0.20265239670E-01 0.  0.
         14    1    1    2    0    0 -0.22490707526E-02  0.19160194869E-01 -0.86336140729E-02  0.21135531189E-01  0.00000000000E+00 0. -1.
     999901    1    3    3    0    0 -0.89873866757E-01  0.16971400359E-01 -0.80082587879E-01  0.88835722614E+00  0.88000000000E+00 0. -1.
        -11    1    4    4    0    0  0.65147951334E-01 -0.15523883745E-01  0.56239556331E-01  0.87455104751E-01  0.51100000000E-03 0. -1.
         11    1    4    4    0    0  0.26974986175E-01 -0.20607711483E-01  0.32476645620E-01  0.46982137919E-01  0.51100000000E-03 0.  1.
</event>
<event>
 8    1  0.1191842E+005  0.1043930E+01  0.7957747E-01            NaN
         13   -1    0    0    0    0  0.00000000000E+00  0.00000000000E+00  0.74505805969E-08  0.10566000000E+00  0.10566000000E+00 0.  1.
     999900   -1    0    0    0    0 -0.00000000000E+00 -0.00000000000E+00 -0.74505805969E-08  0.93827000000E+00  0.93827000000E+00 0.  1.
     999902    2    1    2    0    0 -0.25203602988E-01  0.10330935055E-02  0.31541779890E-02  0.10185087938E+01  0.10181914974E+01 0.  0.
     999903    2    3    3    0    0 -0.77857495630E-02 -0.10103590010E+00  0.77922994449E-01  0.12928900264E+00  0.19359290676E-01 0.  0.
         14    1    1    2    0    0  0.25203602988E-01 -0.10330935055E-02 -0.31541779890E-02  0.25421206198E-01  0.00000000000E+00 0.  1.
     999901    1    3    3    0    0 -0.17417853425E-01  0.10206899360E+00 -0.74768816460E-01  0.88921979116E+00  0.88000000000E+00 0.  1.
        -11    1    4    4    0    0  0.41219320401E-02 -0.65115552316E-01  0.51664383904E-01  0.83225567960E-01  0.51100000000E-03 0. -1.
         11    1    4    4    0    0 -0.11907681603E-01 -0.35920347784E-01  0.26258610545E-01  0.46063434684E-01  0.51100000000E-03 0.  1.
</event>
<event>
 8    1  0.1191842E+005  0.1043930E+01  0.7957747E-01            NaN
         13   -1    0    0    0    0  0.00000000000E+00  0.00000000000E+00  0.74505805969E-08  0.10566000000E+00  0.10566000000E+00 0.  1.
     999900   -1    0    0    0    0 -0.00000000000E+00 -0.00000000000E+00 -0.74505805969E-08  0.93827000000E+00  0.93827000000E+00 0.  1.
     999902    2    1    2    0    0  0.13973892366E-01 -0.15871823556E-01 -0.88888872670E-02  0.10209910208E+01  0.10207332990E+01 0.  0.
     999903    2    3    3    0    0  0.39823375370E-01 -0.12090504770E+00 -0.36593730847E-01  0.13393536734E+00  0.19890945178E-01 0.  0.
         14    1    1    2    0    0 -0.13973892366E-01  0.15871823556E-01  0.88888872670E-02  0.22938979221E-01  0.00000000000E+00 0.  1.
     999901    1    3    3    0    0 -0.25849483003E-01  0.10503322415E+00  0.27704843580E-01  0.88705565344E+00  0.88000000000E+00 0. -1.
        -11    1    4    4    0    0  0.73253680704E-02 -0.28984719946E-01 -0.17309144337E-01  0.34549133222E-01  0.51100000000E-03 0.  1.
         11    1    4    4    0    0  0.32498007299E-01 -0.91920327759E-01 -0.19284586510E-01  0.99386234115E-01  0.51100000000E-03 0. -1.
</event>
<event>
 8    1  0.1191842E+005  0.1043930E+01  0.7957747E-01            NaN
         13   -1    0    0    0    0  0.00000000000E+00  0.00000000000E+00  0.74505805969E-08  0.10566000000E+00  0.10566000000E+00 0.  1.
     999900   -1    0    0    0    0 -0.00000000000E+00 -0.00000000000E+00 -0.74505805969E-08  0.93827000000E+00  0.93827000000E+00 0. -1.
     999902    2    1    2    0    0  0.28414067007E-01 -0.92565778160E-03 -0.57036493059E-03  0.10154951383E+01  0.10150969582E+01 0.  0.
     999903    2    3    3    0    0  0.14152010833E-01 -0.11044720361E-01  0.12391503053E+00  0.12656183628E+00  0.18458015948E-01 0.  0.
         14    1    1    2    0    0 -0.28414067007E-01  0.92565778160E-03  0.57036493059E-03  0.28434861743E-01  0.00000000000E+00 0.  1.
     999901    1    3    3    0    0  0.14262056174E-01  0.10119062579E-01 -0.12448539546E+00  0.88893330197E+00  0.88000000000E+00 0. -1.
        -11    1    4    4    0    0  0.12377586858E-01 -0.32937636598E-02  0.34704320673E-01  0.36996006945E-01  0.51100000000E-03 0. -1.
         11    1    4    4    0    0  0.17744239742E-02 -0.77509567012E-02  0.89210709861E-01  0.89565829339E-01  0.51100000000E-03 0.  1.
</event>
<event>
 8    1  0.1191842E+005  0.1043930E+01  0.7957747E-01            NaN
         13   -1    0    0    0    0  0.00000000000E+00  0.00000000000E+00  0.74505805969E-08  0.10566000000E+00  0.10566000000E+00 0.  1.
     999900   -1    0    0    0    0 -0.00000000000E+00 -0.00000000000E+00 -0.74505805969E-08  0.93827000000E+00  0.93827000000E+00 0.  1.
     999902    2    1    2    0    0 -0.20753937823E-01 -0.28391245301E-02 -0.10164620670E-01  0.10206468285E+01  0.10203812240E+01 0.  0.
     999903    2    3    3    0    0  0.55994362630E-01  0.93390959612E-01  0.65682624953E-01  0.12884901765E+00  0.20751437156E-01 0.  0.
         14    1    1    2    0    0  0.20753937823E-01  0.28391245301E-02  0.10164620670E-01  0.23283171533E-01  0.00000000000E+00 0.  1.
     999901    1    3    3    0    0 -0.76748300453E-01 -0.96230084143E-01 -0.75847245623E-01  0.89179781082E+00  0.88000000000E+00 0.  1.
        -11    1    4    4    0    0  0.45164057050E-01  0.86851832251E-01  0.55024144804E-01  0.11229848818E+00  0.51100000000E-03 0.  1.
         11    1    4    4    0    0  0.10830305581E-01  0.65391273616E-02  0.10658480148E-01  0.16550529469E-01  0.51100000000E-03 0. -1.
</event>
<event>
 8    1  0.1191842E+005  0.1043930E+01  0.7957747E-01            NaN
         13   -1    0    0    0    0  0.00000000000E+00  0.00000000000E+00  0.74505805969E-08  0.10566000000E+00  0.10566000000E+00 0.  1.
     999900   -1    0    0    0    0 -0.00000000000E+00 -0.00000000000E+00 -0.74505805969E-08  0.93827000000E+00  0.93827000000E+00 0. -1.
     999902    2    1    2    0    0 -0.22633170862E-01  0.75023313733E-02  0.14853324413E-02  0.10200395916E+01  0.10197597839E+01 0.  0.
     999903    2    3    3    0    0 -0.75457508350E-02 -0.25607010052E-01 -0.12580086722E+00  0.13013755469E+00  0.19931573639E-01 0.  0.
         14    1    1    2    0    0  0.22633170862E-01 -0.75023313733E-02 -0.14853324413E-02  0.23890408363E-01  0.00000000000E+00 0. -1.
     999901    1    3    3    0    0 -0.15087420027E-01  0.33109341425E-01  0.12728619966E+00  0.88990203694E+00  0.88000000000E+00 0.  1.
        -11    1    4    4    0    0  0.63191327706E-02 -0.44701214307E-02 -0.37173615818E-01  0.37974363175E-01  0.51100000000E-03 0. -1.
         11    1    4    4    0    0 -0.13864883606E-01 -0.21136888621E-01 -0.88627251405E-01  0.92163191517E-01  0.51100000000E-03 0.  1.
</event>
<event>
 8    1  0.1191842E+005  0.1043930E+01  0.7957747E-01            NaN
         13   -1    0    0    0    0  0.00000000000E+00  0.00000000000E+00  0.74505805969E-08  0.10566000000E+00  0.10566000000E+00 0.  1.
     999900   -1    0    0    0    0 -0.00000000000E+00 -0.00000000000E+00 -0.74505805969E-08  0.93827000000E+00  0.93827000000E+00 0. -1.
     999902    2    1    2    0    0  0.47617016366E-02 -0.12709993691E-01  0.19014977531E-01  0.10205679129E+01  0.10203004841E+01 0.  0.
     999903    2    3    3    0    0  0.81704199139E-01 -0.98178547835E-01  0.30492203204E-01  0.13301129592E+00  0.21157196770E-01 0.  0.
         14    1    1    2    0    0 -0.47617016366E-02  0.12709993691E-01 -0.19014977531E-01  0.23362087077E-01  0.00000000000E+00 0. -1.
     999901    1    3    3    0    0 -0.76942497503E-01  0.85468554144E-01 -0.11477225673E-01  0.88755661700E+00  0.88000000000E+00 0.  1.
        -11    1    4    4    0    0  0.26011857147E-01 -0.20490387441E-01  0.14245790325E-01  0.36051024295E-01  0.51100000000E-03 0.  1.
         11    1    4    4    0    0  0.55692341992E-01 -0.77688160393E-01  0.16246412879E-01  0.96960271629E-01  0.51100000000E-03 0. -1.
</event>
<event>
 8    1  0.1191842E+005  0.1043930E+01  0.7957747E-01            NaN
         13   -1    0    0    0    0  0.00000000000E+00  0.00000000000E+00  0.74505805969E-08  0.10566000000E+00  0.10566000000E+00 0.  1.
     999900   -1    0    0    0    0 -0.00000000000E+00 -0.00000000000E+00 -0.74505805969E-08  0.93827000000E+00  0.93827000000E+00 0.  1.
     999902    2    1    2    0    0  0.18699252831E-01 -0.99028991181E-02  0.10238547885E-01  0.10204234620E+01  0.10201526770E+01 0.  0.
     999903    2    3    3    0    0 -0.67870109350E-01  0.41230386773E-01 -0.96969812291E-01  0.12823374006E+00  0.27100757492E-01 0.  0.
         14    1    1    2    0    0 -0.18699252831E-01  0.99028991181E-02 -0.10238547885E-01  0.23506538031E-01  0.00000000000E+00 0.  1.
     999901    1    3    3    0    0  0.86569362181E-01 -0.51133285891E-01  0.10720836018E+00  0.89218972191E+00  0.88000000000E+00 0. -1.
        -11    1    4    4    0    0 -0.31262221921E-01  0.26246039145E-01 -0.30789890221E-01  0.51131786112E-01  0.51100000000E-03 0. -1.
         11    1    4    4    0    0 -0.36607887429E-01  0.14984347628E-01 -0.66179922070E-01  0.77101953945E-01  0.51100000000E-03 0.  1.
</event>
<event>
 8    1  0.1191842E+005  0.1043930E+01  0.7957747E-01            NaN
         13   -1    0    0    0    0  0.00000000000E+00  0.00000000000E+00  0.74505805969E-08  0.10566000000E+00  0.10566000000E+00 0.  1.
     999900   -1    0    0    0    0 -0.00000000000E+00 -0.00000000000E+00 -0.74505805969E-08  0.93827000000E+00  0.93827000000E+00 0. -1.
     999902    2    1    2    0    0  0.20974377852E-01  0.94744141049E-02 -0.23503529778E-02  0.10207953246E+01  0.10205331359E+01 0.  0.
     999903    2    3    3    0    0 -0.16849114513E-01 -0.12591225424E+00  0.15108808189E-01  0.12946766940E+00  0.19895047282E-01 0.  0.
         14    1    1    2    0    0 -0.20974377852E-01 -0.94744141049E-02  0.23503529778E-02  0.23134675447E-01  0.00000000000E+00 0. -1.
     999901    1    3    3    0    0  0.37823492365E-01  0.13538666834E+00 -0.17459161167E-01  0.89132765516E+00  0.88000000000E+00 0. -1.
        -11    1    4    4    0    0 -0.14135722792E-01 -0.36924543688E-01  0.54418906951E-02  0.39913855749E-01  0.51100000000E-03 0. -1.
         11    1    4    4    0    0 -0.27133917205E-02 -0.88987710551E-01  0.96669174936E-02  0.89553813646E-01  0.51100000000E-03 0.  1.
</event>
<event>
 8    1  0.1191842E+005  0.1043930E+01  0.7957747E-01            NaN
         13   -1    0    0    0    0  0.00000000000E+00  0.00000000000E+00  0.74505805969E-08  0.10566000000E+00  0.10566000000E+00 0. -1.
     999900   -1    0    0    0    0 -0.00000000000E+00 -0.00000000000E+00 -0.74505805969E-08  0.93827000000E+00  0.93827000000E+00 0.  1.
     999902    2    1    2    0    0 -0.68394243160E-02  0.14361744406E-01  0.17050655289E-01  0.10206112892E+01  0.10203448639E+01 0.  0.
     999903    2    3    3    0    0 -0.40532913028E-01 -0.11381594412E+00 -0.40278031796E-01  0.12884262560E+00  0.19522196441E-01 0.  0.
         14    1    1    2    0    0  0.68394243160E-02 -0.14361744406E-01 -0.17050655289E-01  0.23318710795E-01  0.00000000000E+00 0. -1.
     999901    1    3    3    0    0  0.33693488712E-01  0.12817768852E+00  0.57328687085E-01  0.89176866360E+00  0.88000000000E+00 0. -1.
        -11    1    4    4    0    0 -0.42682180974E-01 -0.10732228073E+00 -0.37394728017E-01  0.12140208943E+00  0.51100000000E-03 0. -1.
         11    1    4    4    0    0  0.21492679459E-02 -0.64936633892E-02 -0.28833037788E-02  0.74405361766E-02  0.51100000000E-03 0.  1.
</event>
<event>
 8    1  0.1191842E+005  0.1043930E+01  0.7957747E-01            NaN
         13   -1    0    0    0    0  0.00000000000E+00  0.00000000000E+00  0.74505805969E-08  0.10566000000E+00  0.10566000000E+00 0.  1.
     999900   -1    0    0    0    0 -0.00000000000E+00 -0.00000000000E+00 -0.74505805969E-08  0.93827000000E+00  0.93827000000E+00 0. -1.
     999902    2    1    2    0    0 -0.23184443606E-01  0.67945251894E-02  0.73814244828E-04  0.10197703343E+01  0.10194841074E+01 0.  0.
     999903    2    3    3    0    0  0.99022215143E-01 -0.21305228363E-01 -0.75685209741E-01  0.12765851771E+00  0.17582216113E-01 0.  0.
         14    1    1    2    0    0  0.23184443606E-01 -0.67945251894E-02 -0.73814244828E-04  0.24159665694E-01  0.00000000000E+00 0. -1.
     999901    1    3    3    0    0 -0.12220665875E+00  0.28099753552E-01  0.75759023986E-01  0.89211181659E+00  0.88000000000E+00 0.  1.
        -11    1    4    4    0    0  0.11620632020E-01 -0.20599007769E-02 -0.25622079201E-02  0.12087527050E-01  0.51100000000E-03 0. -1.
         11    1    4    4    0    0  0.87401583122E-01 -0.19245327586E-01 -0.73123001821E-01  0.11557099066E+00  0.51100000000E-03 0.  1.
</event>
<event>
 8    1  0.1191842E+005  0.1043930E+01  0.7957747E-01            NaN
         13   -1    0    0    0    0  0.00000000000E+00  0.00000000000E+00  0.74505805969E-08  0.10566000000E+00  0.10566000000E+00 0.  1.
     999900   -1    0    0    0    0 -0.00000000000E+00 -0.00000000000E+00 -0.74505805969E-08  0.93827000000E+00  0.93827000000E+00 0.  1.
     999902    2    1    2    0    0  0.64720097604E-02  0.15855939222E-01 -0.16542393744E-01  0.10201193194E+01  0.10198413981E+01 0.  0.
     999903    2    3    3    0    0 -0.56797253712E-01 -0.25378824771E-01 -0.11400394503E+00  0.13152376494E+00  0.20774707822E-01 0.  0.
         14    1    1    2    0    0 -0.64720097604E-02 -0.15855939222E-01  0.16542393744E-01  0.23810680581E-01  0.00000000000E+00 0.  1.
     999901    1    3    3    0    0  0.63269263472E-01  0.41234763992E-01  0.97461551288E-01  0.88859555448E+00  0.88000000000E+00 0. -1.
        -11    1    4    4    0    0 -0.45327289358E-01 -0.25417332876E-01 -0.10413895794E+00  0.11638637228E+00  0.51100000000E-03 0.  1.
         11    1    4    4    0    0 -0.11469964354E-01  0.38508105918E-04 -0.98649870931E-02  0.15137392659E-01  0.51100000000E-03 0. -1.
</event>
<event>
 8    1  0.1191842E+005  0.1043930E+01  0.7957747E-01            NaN
         13   -1    0    0    0    0  0.00000000000E+00  0.00000000000E+00  0.74505805969E-08  0.10566000000E+00  0.10566000000E+00 0. -1.
     999900   -1    0    0    0    0 -0.00000000000E+00 -0.00000000000E+00 -0.74505805969E-08  0.93827000000E+00  0.93827000000E+00 0. -1.
     999902    2    1    2    0    0 -0.13279200179E-01  0.58009124592E-02  0.19515510214E-01  0.10196227401E+01  0.10193329629E+01 0.  0.
     999903    2    3    3    0    0  0.35222154538E-02  0.24883066510E-02 -0.12548085026E+00  0.12759291695E+00  0.22713674343E-01 0.  0.
         14    1    1    2    0    0  0.13279200179E-01 -0.58009124592E-02 -0.19515510214E-01  0.24307259855E-01  0.00000000000E+00 0.  1.
     999901    1    3    3    0    0 -0.16801415633E-01  0.33126058082E-02  0.14499636047E+00  0.89202982320E+00  0.88000000000E+00 0.  1.
        -11    1    4    4    0    0  0.82660392631E-02 -0.79503764486E-02 -0.55215135629E-01  0.56395994665E-01  0.51100000000E-03 0. -1.
         11    1    4    4    0    0 -0.47438238094E-02  0.10438683100E-01 -0.70265714628E-01  0.71196922282E-01  0.51100000000E-03 0.  1.
</event>
<event>
 8    1  0.1191842E+005  0.1043930E+01  0.7957747E-01            NaN
         13   -1    0    0    0    0  0.00000000000E+00  0.00000000000E+00  0.74505805969E-08  0.10566000000E+00  0.10566000000E+00 0. -1.
     999900   -1    0    0    0    0 -0.00000000000E+00 -0.00000000000E+00 -0.74505805969E-08  0.93827000000E+00  0.93827000000E+00 0. -1.
     999902    2    1    2    0    0  0.16209697791E-01 -0.14328489694E-01  0.86394441552E-02  0.10206340794E+01  0.10203681807E+01 0.  0.
     999903    2    3    3    0    0  0.89415819157E-01 -0.87370734102E-01 -0.41501214880E-01  0.13316104246E+00  0.19510984090E-01 0.  0.
         14    1    1    2    0    0 -0.16209697791E-01  0.14328489694E-01 -0.86394441552E-02  0.23295920560E-01  0.00000000000E+00 0. -1.
     999901    1    3    3    0    0 -0.73206121366E-01  0.73042244408E-01  0.50140659035E-01  0.88747303698E+00  0.88000000000E+00 0.  1.
        -11    1    4    4    0    0  0.49685463676E-01 -0.57386106205E-01 -0.32512591590E-01  0.82578085586E-01  0.51100000000E-03 0. -1.
         11    1    4    4    0    0  0.39730355481E-01 -0.29984627897E-01 -0.89886232897E-02  0.50582956877E-01  0.51100000000E-03 0.  1.
</event>
<event>
 8    1  0.1191842E+005  0.1043930E+01  0.7957747E-01            NaN
         13   -1    0    0    0    0  0.00000000000E+00  0.00000000000E+00  0.74505805969E-08  0.10566000000E+00  0.10566000000E+00 0. -1.
     999900   -1    0    0    0    0 -0.00000000000E+00 -0.00000000000E+00 -0.74505805969E-08  0.93827000000E+00  0.93827000000E+00 0. -1.
     999902    2    1    2    0    0  0.10746472351E-01  0.14339509738E-01  0.15091034261E-01  0.10205025050E+01  0.10202335591E+01 0.  0.
     999903    2    3    3    0    0  0.11603590176E+00 -0.27393978352E-02  0.61265611131E-01  0.13285975896E+00  0.20649591865E-01 0.  0.
         14    1    1    2    0    0 -0.10746472351E-01 -0.14339509738E-01 -0.15091034261E-01  0.23427495013E-01  0.00000000000E+00 0. -1.
     999901    1    3    3    0    0 -0.10528942941E+00  0.17078907573E-01 -0.46174576870E-01  0.88764274603E+00  0.88000000000E+00 0. -1.
        -11    1    4    4    0    0  0.17378441119E-01 -0.74437494633E-02  0.70209950050E-02  0.20173624207E-01  0.51100000000E-03 0.  1.
         11    1    4    4    0    0  0.98657460645E-01  0.47043516282E-02  0.54244616126E-01  0.11268613475E+00  0.51100000000E-03 0. -1.
</event>
<event>
 8    1  0.1191842E+005  0.1043930E+01  0.7957747E-01            NaN
         13   -1    0    0    0    0  0.00000000000E+00  0.00000000000E+00  0.74505805969E-08  0.10566000000E+00  0.10566000000E+00 0.  1.
     999900   -1    0    0    0    0 -0.00000000000E+00 -0.00000000000E+00 -0.74505805969E-08  0.93827000000E+00  0.93827000000E+00 0. -1.
     999902    2    1    2    0    0  0.83914691606E-02 -0.11626673068E-01  0.19153886932E-01  0.10200037035E+01  0.10197230445E+01 0.  0.
     999903    2    3    3    0    0 -0.30746996328E-01 -0.86541559144E-01  0.93854199542E-01  0.13280350264E+00  0.19832808674E-01 0.  0.
         14    1    1    2    0    0 -0.83914691606E-02  0.11626673068E-01 -0.19153886932E-01  0.23926296536E-01  0.00000000000E+00 0. -1.
     999901    1    3    3    0    0  0.39138465489E-01  0.74914886076E-01 -0.74700312609E-01  0.88720020082E+00  0.88000000000E+00 0. -1.
        -11    1    4    4    0    0 -0.14965820144E-01 -0.41651134715E-01  0.59290644363E-01  0.73989421038E-01  0.51100000000E-03 0. -1.
         11    1    4    4    0    0 -0.15781176184E-01 -0.44890424429E-01  0.34563555178E-01  0.58814081603E-01  0.51100000000E-03 0.  1.
</event>
<event>
 8    1  0.1191842E+005  0.1043930E+01  0.7957747E-01            NaN
         13   -1    0    0    0    0  0.00000000000E+00  0.00000000000E+00  0.74505805969E-08  0.10566000000E+00  0.10566000000E+00 0. -1.
     999900   -1    0    0    0    0 -0.00000000000E+00 -0.00000000000E+00 -0.74505805969E-08  0.93827000000E+00  0.93827000000E+00 0. -1.
     999902    2    1    2    0    0  0.63360426820E-02  0.18130289364E-01  0.18925754449E-01  0.10169663762E+01  0.10166088595E+01 0.  0.
     999903    2    3    3    0    0 -0.72202866883E-01 -0.62527004199E-01 -0.76248482955E-01  0.12470402977E+00  0.24786763545E-01 0.  0.
         14    1    1    2    0    0 -0.63360426820E-02 -0.18130289364E-01 -0.18925754449E-01  0.26963623843E-01  0.00000000000E+00 0.  1.
     999901    1    3    3    0    0  0.78538909564E-01  0.80657293563E-01  0.95174237404E-01  0.89226234639E+00  0.88000000000E+00 0.  1.
        -11    1    4    4    0    0 -0.44179180356E-01 -0.32769751402E-01 -0.28857599806E-01  0.62118264395E-01  0.51100000000E-03 0.  1.
         11    1    4    4    0    0 -0.28023686526E-01 -0.29757252797E-01 -0.47390883149E-01  0.62585765372E-01  0.51100000000E-03 0. -1.
</event>
<event>
 8    1  0.1191842E+005  0.1043930E+01  0.7957747E-01            NaN
         13   -1    0    0    0    0  0.00000000000E+00  0.00000000000E+00  0.74505805969E-08  0.10566000000E+00  0.10566000000E+00 0.  1.
     999900   -1    0    0    0    0 -0.00000000000E+00 -0.00000000000E+00 -0.74505805969E-08  0.93827000000E+00  0.93827000000E+00 0. -1.
     999902    2    1    2    0    0 -0.86676248164E-02 -0.23122090577E-01 -0.35023520424E-02  0.10189895657E+01  0.10186843033E+01 0.  0.
     999903    2    3    3    0    0  0.10501512317E+00 -0.60545998726E-01  0.41739743924E-01  0.12973641653E+00  0.19883095710E-01 0.  0.
         14    1    1    2    0    0  0.86676248164E-02  0.23122090577E-01  0.35023520424E-02  0.24940434288E-01  0.00000000000E+00 0.  1.
     999901    1    3    3    0    0 -0.11368274798E+00  0.37423908149E-01 -0.45242095966E-01  0.88925314919E+00  0.88000000000E+00 0.  1.
        -11    1    4    4    0    0  0.49717527134E-01 -0.17458640445E-01  0.16313756415E-01  0.55163723586E-01  0.51100000000E-03 0.  1.
         11    1    4    4    0    0  0.55297596031E-01 -0.43087358282E-01  0.25425987509E-01  0.74572692940E-01  0.51100000000E-03 0. -1.
</event>
<event>
 8    1  0.1191842E+005  0.1043930E+01  0.7957747E-01            NaN
         13   -1    0    0    0    0  0.00000000000E+00  0.00000000000E+00  0.74505805969E-08  0.10566000000E+00  0.10566000000E+00 0.  1.
     999900   -1    0    0    0    0 -0.00000000000E+00 -0.00000000000E+00 -0.74505805969E-08  0.93827000000E+00  0.93827000000E+00 0. -1.
     999902    2    1    2    0    0 -0.17701825922E-01  0.80325215486E-02 -0.12638293910E-01  0.10207437429E+01  0.10204803703E+01 0.  0.
     999903    2    3    3    0    0  0.96865384057E-01 -0.60429528766E-01  0.54511700088E-01  0.12815099167E+00  0.20408837382E-01 0.  0.
         14    1    1    2    0    0  0.17701825922E-01 -0.80325215486E-02  0.12638293910E-01  0.23186257058E-01  0.00000000000E+00 0.  1.
     999901    1    3    3    0    0 -0.11456720998E+00  0.68462050315E-01 -0.67149993997E-01  0.89259275128E+00  0.88000000000E+00 0. -1.
        -11    1    4    4    0    0  0.44900016691E-01 -0.34312515404E-01  0.17286729770E-01  0.59096974198E-01  0.51100000000E-03 0.  1.
         11    1    4    4    0    0  0.51965367366E-01 -0.26117013362E-01  0.37224970317E-01  0.69054017469E-01  0.51100000000E-03 0. -1.
</event>
<event>
 8    1  0.1191842E+005  0.1043930E+01  0.7957747E-01            NaN
         13   -1    0    0    0    0  0.00000000000E+00  0.00000000000E+00  0.74505805969E-08  0.10566000000E+00  0.10566000000E+00 0.  1.
     999900   -1    0    0    0    0 -0.00000000000E+00 -0.00000000000E+00 -0.74505805969E-08  0.93827000000E+00  0.93827000000E+00 0. -1.
     999902    2    1    2    0    0  0.11229445037E-01  0.19924630838E-01  0.82529938528E-03  0.10210439241E+01  0.10207874032E+01 0.  0.
     999903    2    3    3    0    0  0.10347295720E+00 -0.71210373972E-01  0.31610682082E-01  0.13100898412E+00  0.19660835837E-01 0.  0.
         14    1    1    2    0    0 -0.11229445037E-01 -0.19924630838E-01 -0.82529938528E-03  0.22886075875E-01  0.00000000000E+00 0. -1.
     999901    1    3    3    0    0 -0.92243512165E-01  0.91135004810E-01 -0.30785382697E-01  0.89003494000E+00  0.88000000000E+00 0. -1.
        -11    1    4    4    0    0  0.33930709345E-01 -0.23385998703E-01  0.20013341325E-01  0.45814767532E-01  0.51100000000E-03 0.  1.
         11    1    4    4    0    0  0.69542247857E-01 -0.47824375269E-01  0.11597340756E-01  0.85194216591E-01  0.51100000000E-03 0. -1.
</event>
<event>
 8    1  0.1191842E+005  0.1043930E+01  0.7957747E-01            NaN
         13   -1    0    0    0    0  0.00000000000E+00  0.00000000000E+00  0.74505805969E-08  0.10566000000E+00  0.10566000000E+00 0. -1.
     999900   -1    0    0    0    0 -0.00000000000E+00 -0.00000000000E+00 -0.74505805969E-08  0.93827000000E+00  0.93827000000E+00 0. -1.
     999902    2    1    2    0    0 -0.15360825112E-02 -0.20793260487E-01 -0.10059970996E-01  0.10207800055E+01  0.10205174654E+01 0.  0.
     999903    2    3    3    0    0 -0.11259359149E-01 -0.74905276504E-04  0.12798540675E+00  0.12972427281E+00  0.17926065799E-01 0.  0.
         14    1    1    2    0    0  0.15360825112E-02  0.20793260487E-01  0.10059970996E-01  0.23149994549E-01  0.00000000000E+00 0. -1.
     999901    1    3    3    0    0  0.97232766377E-02 -0.20718355211E-01 -0.13804537775E+00  0.89105573264E+00  0.88000000000E+00 0. -1.
        -11    1    4    4    0    0  0.33468121951E-03 -0.72362238943E-02  0.54813355526E-01  0.55292314229E-01  0.51100000000E-03 0. -1.
         11    1    4    4    0    0 -0.11594040368E-01  0.71613186178E-02  0.73172051229E-01  0.74431958583E-01  0.51100000000E-03 0.  1.
</event>
<event>
 8    1  0.1191842E+005  0.1043930E+01  0.7957747E-01            NaN
         13   -1    0    0    0    0  0.00000000000E+00  0.00000000000E+00  0.74505805969E-08  0.10566000000E+00  0.10566000000E+00 0. -1.
     999900   -1    0    0    0    0 -0.00000000000E+00 -0.00000000000E+00 -0.74505805969E-08  0.93827000000E+00  0.93827000000E+00 0. -1.
     999902    2    1    2    0    0  0.17028602871E-01  0.15707537611E-01 -0.13950443373E-01  0.10168871650E+01  0.10165275163E+01 0.  0.
     999903    2    3    3    0    0 -0.90488634535E-01  0.14108079472E-01  0.82823354976E-01  0.12507570364E+00  0.19924673756E-01 0.  0.
         14    1    1    2    0    0 -0.17028602871E-01 -0.15707537611E-01  0.13950443373E-01  0.27042834982E-01  0.00000000000E+00 0.  1.
     999901    1    3    3    0    0  0.10751723741E+00  0.15994581395E-02 -0.96773798349E-01  0.89181146138E+00  0.88000000000E+00 0. -1.
        -11    1    4    4    0    0 -0.70745568142E-01  0.24639923189E-02  0.61893877469E-01  0.94032546807E-01  0.51100000000E-03 0.  1.
         11    1    4    4    0    0 -0.19743066393E-01  0.11644087153E-01  0.20929477507E-01  0.31043156829E-01  0.51100000000E-03 0. -1.
</event>
<event>
 8    1  0.1191842E+005  0.1043930E+01  0.7957747E-01            NaN
         13   -1    0    0    0    0  0.00000000000E+00  0.00000000000E+00  0.74505805969E-08  0.10566000000E+00  0.10566000000E+00 0. -1.
     999900   -1    0    0    0    0 -0.00000000000E+00 -0.00000000000E+00 -0.74505805969E-08  0.93827000000E+00  0.93827000000E+00 0. -1.
     999902    2    1    2    0    0 -0.17423097947E-01 -0.15417577401E-01  0.39814790051E-02  0.10203266483E+01  0.10200536021E+01 0.  0.
     999903    2    3    3    0    0 -0.64019142336E-01 -0.72352800901E-02 -0.11238909164E+00  0.13140581324E+00  0.22031340647E-01 0.  0.
         14    1    1    2    0    0  0.17423097947E-01  0.15417577401E-01 -0.39814790051E-02  0.23603351670E-01  0.00000000000E+00 0. -1.
     999901    1    3    3    0    0  0.46596044388E-01 -0.81822973106E-02  0.11637057064E+00  0.88892083509E+00  0.88000000000E+00 0.  1.
        -11    1    4    4    0    0 -0.39295395453E-01 -0.85797590911E-02 -0.87458154852E-01  0.96264896723E-01  0.51100000000E-03 0. -1.
         11    1    4    4    0    0 -0.24723746882E-01  0.13444790010E-02 -0.24930936788E-01  0.35140916519E-01  0.51100000000E-03 0.  1.
</event>
<event>
 8    1  0.1191842E+005  0.1043930E+01  0.7957747E-01            NaN
         13   -1    0    0    0    0  0.00000000000E+00  0.00000000000E+00  0.74505805969E-08  0.10566000000E+00  0.10566000000E+00 0. -1.
     999900   -1    0    0    0    0 -0.00000000000E+00 -0.00000000000E+00 -0.74505805969E-08  0.93827000000E+00  0.93827000000E+00 0. -1.
     999902    2    1    2    0    0 -0.22026042032E-01 -0.14028568394E-03 -0.82975582510E-02  0.10203924623E+01  0.10201209543E+01 0.  0.
     999903    2    3    3    0    0  0.52219655991E-01  0.90348690460E-02 -0.11741730554E+00  0.13050273521E+00  0.20871486006E-01 0.  0.
         14    1    1    2    0    0  0.22026042032E-01  0.14028568394E-03  0.82975582510E-02  0.23537537692E-01  0.00000000000E+00 0. -1.
     999901    1    3    3    0    0 -0.74245698023E-01 -0.91751547299E-02  0.10911974729E+00  0.88988972709E+00  0.88000000000E+00 0.  1.
        -11    1    4    4    0    0  0.39916383692E-01  0.94893736860E-03 -0.67192617010E-01  0.78162184405E-01  0.51100000000E-03 0.  1.
         11    1    4    4    0    0  0.12303272299E-01  0.80859316774E-02 -0.50224688528E-01  0.52340550810E-01  0.51100000000E-03 0. -1.
</event>
<event>
 8    1  0.1191842E+005  0.1043930E+01  0.7957747E-01            NaN
         13   -1    0    0    0    0  0.00000000000E+00  0.00000000000E+00  0.74505805969E-08  0.10566000000E+00  0.10566000000E+00 0.  1.
     999900   -1    0    0    0    0 -0.00000000000E+00 -0.00000000000E+00 -0.74505805969E-08  0.93827000000E+00  0.93827000000E+00 0. -1.
     999902    2    1    2    0    0 -0.54021188840E-02 -0.11775759001E-01 -0.20725812760E-01  0.10194880135E+01  0.10191949760E+01 0.  0.
     999903    2    3    3    0    0 -0.77288143665E-01  0.99167943011E-01 -0.24361678042E-01  0.12960637808E+00  0.19914412123E-01 0.  0.
         14    1    1    2    0    0  0.54021188840E-02  0.11775759001E-01  0.20725812760E-01  0.24441986479E-01  0.00000000000E+00 0.  1.
     999901    1    3    3    0    0  0.71886024781E-01 -0.11094370201E+00  0.36358652819E-02  0.88988163544E+00  0.88000000000E+00 0.  1.
        -11    1    4    4    0    0 -0.28564349084E-01  0.52793403398E-01 -0.11190259399E-01  0.61061841664E-01  0.51100000000E-03 0.  1.
         11    1    4    4    0    0 -0.48723794581E-01  0.46374539613E-01 -0.13171418643E-01  0.68544536418E-01  0.51100000000E-03 0. -1.
</event>
<event>
 7    1  0.1191842E+005  0.1043930E+01  0.7957747E-01            NaN
         13   -1    0    0    0    0  0.00000000000E+00  0.00000000000E+00  0.74505805969E-08  0.10566000000E+00  0.10566000000E+00 0. -1.
     999900   -1    0    0    0    0 -0.00000000000E+00 -0.00000000000E+00 -0.74505805969E-08  0.93827000000E+00  0.93827000000E+00 0. -1.
     999902    2    1    2    0    0  0.64118076458E-02 -0.15468683265E-01  0.95776119658E-02  0.10246395337E+01  0.10244579308E+01 0.  0.
         14    1    1    2    0    0 -0.64118076458E-02  0.15468683265E-01 -0.95776119658E-02  0.19290466304E-01  0.00000000000E+00 0.  1.
     999901    1    3    3    0    0  0.85239822093E-01 -0.62263860509E-01  0.70131796841E-01  0.88907878421E+00  0.88000000000E+00 0.  1.
        -11    1    3    3    0    0 -0.39861085138E-01 -0.19038782064E-01 -0.28756209782E-01  0.52712067431E-01  0.51100000000E-03 0.  1.
         11    1    3    3    0    0 -0.38966929310E-01  0.65833959308E-01 -0.31797975093E-01  0.82848682060E-01  0.51100000000E-03 0. -1.
</event>
<event>
 8    1  0.1191842E+005  0.1043930E+01  0.7957747E-01            NaN
         13   -1    0    0    0    0  0.00000000000E+00  0.00000000000E+00  0.74505805969E-08  0.10566000000E+00  0.10566000000E+00 0. -1.
     999900   -1    0    0    0    0 -0.00000000000E+00 -0.00000000000E+00 -0.74505805969E-08  0.93827000000E+00  0.93827000000E+00 0. -1.
     999902    2    1    2    0    0 -0.15111196914E-01  0.16135565685E-01 -0.91385309086E-02  0.10200089319E+01  0.10197283970E+01 0.  0.
     999903    2    3    3    0    0 -0.90407223239E-01 -0.77310001624E-01  0.48262295000E-01  0.13001094288E+00  0.20574104732E-01 0.  0.
         14    1    1    2    0    0  0.15111196914E-01 -0.16135565685E-01  0.91385309086E-02  0.23921068106E-01  0.00000000000E+00 0. -1.
     999901    1    3    3    0    0  0.75296026325E-01  0.93445567309E-01 -0.57400825909E-01  0.88999798901E+00  0.88000000000E+00 0. -1.
        -11    1    4    4    0    0 -0.20177977828E-01 -0.29381830977E-01  0.15930898198E-01  0.39044812962E-01  0.51100000000E-03 0.  1.
         11    1    4    4    0    0 -0.70229245411E-01 -0.47928170647E-01  0.32331396802E-01  0.90966129921E-01  0.51100000000E-03 0. -1.
</event>
<event>
 8    1  0.1191842E+005  0.1043930E+01  0.7957747E-01            NaN
         13   -1    0    0    0    0  0.00000000000E+00  0.00000000000E+00  0.74505805969E-08  0.10566000000E+00  0.10566000000E+00 0. -1.
     999900   -1    0    0    0    0 -0.00000000000E+00 -0.00000000000E+00 -0.74505805969E-08  0.93827000000E+00  0.93827000000E+00 0.  1.
     999902    2    1    2    0    0 -0.12943624161E-01 -0.10629198334E-01 -0.17385175584E-01  0.10197895445E+01  0.10195037780E+01 0.  0.
     999903    2    3    3    0    0  0.59964508771E-01  0.11033686811E+00 -0.17418634460E-01  0.12852730123E+00  0.21116144524E-01 0.  0.
         14    1    1    2    0    0  0.12943624161E-01  0.10629198334E-01  0.17385175584E-01  0.24140455541E-01  0.00000000000E+00 0. -1.
     999901    1    3    3    0    0 -0.72908132932E-01 -0.12096606644E+00  0.33458876568E-04  0.89126224322E+00  0.88000000000E+00 0. -1.
        -11    1    4    4    0    0  0.51081614976E-01  0.93500368488E-01 -0.22332192259E-01  0.10886063672E+00  0.51100000000E-03 0. -1.
         11    1    4    4    0    0  0.88828937953E-02  0.16836499622E-01  0.49135577984E-02  0.19666664510E-01  0.51100000000E-03 0.  1.
</event>
<event>
 8    1  0.1191842E+005  0.1043930E+01  0.7957747E-01            NaN
         13   -1    0    0    0    0  0.00000000000E+00  0.00000000000E+00  0.74505805969E-08  0.10566000000E+00  0.10566000000E+00 0. -1.
     999900   -1    0    0    0    0 -0.00000000000E+00 -0.00000000000E+00 -0.74505805969E-08  0.93827000000E+00  0.93827000000E+00 0. -1.
     999902    2    1    2    0    0 -0.20047540700E-01  0.38336164388E-02 -0.13354891569E-01  0.10195383286E+01  0.10192465109E+01 0.  0.
     999903    2    3    3    0    0 -0.84237309821E-01  0.46866270418E-01  0.86082368704E-01  0.13057269122E+00  0.18619393738E-01 0.  0.
         14    1    1    2    0    0  0.20047540700E-01 -0.38336164388E-02  0.13354891569E-01  0.24391671364E-01  0.00000000000E+00 0.  1.
     999901    1    3    3    0    0  0.64189769121E-01 -0.43032653979E-01 -0.99437260273E-01  0.88896563741E+00  0.88000000000E+00 0. -1.
        -11    1    4    4    0    0 -0.67602903464E-01  0.43987684748E-01  0.65184628078E-01  0.10370325851E+00  0.51100000000E-03 0. -1.
         11    1    4    4    0    0 -0.16634406357E-01  0.28785856697E-02  0.20897740626E-01  0.26869432717E-01  0.51100000000E-03 0.  1.
</event>
<event>
 8    1  0.1191842E+005  0.1043930E+01  0.7957747E-01            NaN
         13   -1    0    0    0    0  0.00000000000E+00  0.00000000000E+00  0.74505805969E-08  0.10566000000E+00  0.10566000000E+00 0.  1.
     999900   -1    0    0    0    0 -0.00000000000E+00 -0.00000000000E+00 -0.74505805969E-08  0.93827000000E+00  0.93827000000E+00 0.  1.
     999902    2    1    2    0    0 -0.20742143609E-01 -0.50134286119E-03 -0.12422577514E-01  0.10197471900E+01  0.10194604079E+01 0.  0.
     999903    2    3    3    0    0  0.10511508229E+00 -0.68512828465E-01 -0.16704497800E-01  0.12818455155E+00  0.20225004843E-01 0.  0.
         14    1    1    2    0    0  0.20742143609E-01  0.50134286119E-03  0.12422577514E-01  0.24182809974E-01  0.00000000000E+00 0.  1.
     999901    1    3    3    0    0 -0.12585722590E+00  0.68011485604E-01  0.42819202860E-02  0.89156263848E+00  0.88000000000E+00 0. -1.
        -11    1    4    4    0    0  0.74893518618E-01 -0.58285387439E-01 -0.16173541158E-01  0.96270816318E-01  0.51100000000E-03 0. -1.
         11    1    4    4    0    0  0.30221563669E-01 -0.10227441026E-01 -0.53095664188E-03  0.31913735232E-01  0.51100000000E-03 0.  1.
</event>
<event>
 8    1  0.1191842E+005  0.1043930E+01  0.7957747E-01            NaN
         13   -1    0    0    0    0  0.00000000000E+00  0.00000000000E+00  0.74505805969E-08  0.10566000000E+00  0.10566000000E+00 0.  1.
     999900   -1    0    0    0    0 -0.00000000000E+00 -0.00000000000E+00 -0.74505805969E-08  0.93827000000E+00  0.93827000000E+00 0.  1.
     999902    2    1    2    0    0  0.19989525259E-01  0.11262456410E-01  0.15928531953E-02  0.10209308429E+01  0.10206717518E+01 0.  0.
     999903    2    3    3    0    0 -0.88392508072E-01 -0.12087661098E-01 -0.91223159436E-01  0.12913114270E+00  0.19845406611E-01 0.  0.
         14    1    1    2    0    0 -0.19989525259E-01 -0.11262456410E-01 -0.15928531953E-02  0.22999157066E-01  0.00000000000E+00 0. -1.
     999901    1    3    3    0    0  0.10838203333E+00  0.23350117507E-01  0.92816012631E-01  0.89179970023E+00  0.88000000000E+00 0. -1.
        -11    1    4    4    0    0 -0.46443078444E-01 -0.27486315603E-02 -0.34295638938E-01  0.57801094125E-01  0.51100000000E-03 0. -1.
         11    1    4    4    0    0 -0.41949429628E-01 -0.93390295374E-02 -0.56927520497E-01  0.71330048575E-01  0.51100000000E-03 0.  1.
</event>
<event>
 8    1  0.1191842E+005  0.1043930E+01  0.7957747E-01            NaN
         13   -1    0    0    0    0  0.00000000000E+00  0.00000000000E+00  0.74505805969E-08  0.10566000000E+00  0.10566000000E+00 0.  1.
     999900   -1    0    0    0    0 -0.00000000000E+00 -0.00000000000E+00 -0.74505805969E-08  0.93827000000E+00  0.93827000000E+00 0. -1.
     999902    2    1    2    0    0  0.18758506036E-02  0.13170251145E-01  0.20475286698E-01  0.10195125534E+01  0.10192201111E+01 0.  0.
     999903    2    3    3    0    0 -0.88628390836E-02  0.12343086570E+00  0.42656359226E-01  0.13228951353E+00  0.19163034321E-01 0.  0.
         14    1    1    2    0    0 -0.18758506036E-02 -0.13170251145E-01 -0.20475286698E-01  0.24417446552E-01  0.00000000000E+00 0. -1.
     999901    1    3    3    0    0  0.10738689687E-01 -0.11026061455E+00 -0.22181072528E-01  0.88722303992E+00  0.88000000000E+00 0. -1.
        -11    1    4    4    0    0 -0.98457751095E-03  0.57618220877E-01  0.29389906676E-01  0.64690466881E-01  0.51100000000E-03 0. -1.
         11    1    4    4    0    0 -0.78782615727E-02  0.65812644823E-01  0.13266452550E-01  0.67599046652E-01  0.51100000000E-03 0.  1.
</event>
<event>
 8    1  0.1191842E+005  0.1043930E+01  0.7957747E-01            NaN
         13   -1    0    0    0    0  0.00000000000E+00  0.00000000000E+00  0.74505805969E-08  0.10566000000E+00  0.10566000000E+00 0. -1.
     999900   -1    0    0    0    0 -0.00000000000E+00 -0.00000000000E+00 -0.74505805969E-08  0.93827000000E+00  0.93827000000E+00 0. -1.
     999902    2    1    2    0    0 -0.77947679846E-02 -0.13236268705E-01 -0.18161098579E-01  0.10201438124E+01  0.10198664694E+01 0.  0.
     999903    2    3    3    0    0 -0.11714809859E+00 -0.52744740555E-01 -0.25494253320E-01  0.13246546674E+00  0.19785304307E-01 0.  0.
         14    1    1    2    0    0  0.77947679846E-02  0.13236268705E-01  0.18161098579E-01  0.23786187562E-01  0.00000000000E+00 0. -1.
     999901    1    3    3    0    0  0.10935333061E+00  0.39508471850E-01  0.73331547410E-02  0.88767834570E+00  0.88000000000E+00 0.  1.
        -11    1    4    4    0    0 -0.54672131410E-01 -0.34642340951E-01 -0.89010206615E-02  0.65334700040E-01  0.51100000000E-03 0.  1.
         11    1    4    4    0    0 -0.62475967181E-01 -0.18102399603E-01 -0.16593232658E-01  0.67130766700E-01  0.51100000000E-03 0. -1.
</event>
<event>
 8    1  0.1191842E+005  0.1043930E+01  0.7957747E-01            NaN
         13   -1    0    0    0    0  0.00000000000E+00  0.00000000000E+00  0.74505805969E-08  0.10566000000E+00  0.10566000000E+00 0.  1.
     999900   -1    0    0    0    0 -0.00000000000E+00 -0.00000000000E+00 -0.74505805969E-08  0.93827000000E+00  0.93827000000E+00 0. -1.
     999902    2    1    2    0    0 -0.12014382860E-02  0.76479686412E-03 -0.22576831832E-01  0.10213082913E+01  0.10210577281E+01 0.  0.
     999903    2    3    3    0    0 -0.11283215417E+00  0.20787797252E-01  0.58286115422E-01  0.13035309967E+00  0.20770936765E-01 0.  0.
         14    1    1    2    0    0  0.12014382860E-02 -0.76479686412E-03  0.22576831832E-01  0.22621708684E-01  0.00000000000E+00 0.  1.
     999901    1    3    3    0    0  0.11163071589E+00 -0.20023000388E-01 -0.80862947255E-01  0.89095519164E+00  0.88000000000E+00 0.  1.
        -11    1    4    4    0    0 -0.82019844291E-01  0.22505712224E-01  0.48826223207E-01  0.98071520504E-01  0.51100000000E-03 0.  1.
         11    1    4    4    0    0 -0.30812309881E-01 -0.17179149723E-02  0.94598922157E-02  0.32281579171E-01  0.51100000000E-03 0. -1.
</event>
<event>
 8    1  0.1191842E+005  0.1043930E+01  0.7957747E-01            NaN
         13   -1    0    0    0    0  0.00000000000E+00  0.00000000000E+00  0.74505805969E-08  0.10566000000E+00  0.10566000000E+00 0.  1.
     999900   -1    0    0    0    0 -0.00000000000E+00 -0.00000000000E+00 -0.74505805969E-08  0.93827000000E+00  0.93827000000E+00 0.  1.
     999902    2    1    2    0    0 -0.36467016057E-02  0.91077038551E-02 -0.21662249292E-01  0.10201497194E+01  0.10198725157E+01 0.  0.
     999903    2    3    3    0    0 -0.44979597476E-01 -0.26140842639E-01  0.11509230650E+00  0.12793187779E+00  0.20342529278E-01 0.  0.
         14    1    1    2    0    0  0.36467016057E-02 -0.91077038551E-02  0.21662249292E-01  0.23780280623E-01  0.00000000000E+00 0.  1.
     999901    1    3    3    0    0  0.41332895870E-01  0.35248546494E-01 -0.13675455579E+00  0.89221784158E+00  0.88000000000E+00 0.  1.
        -11    1    4    4    0    0 -0.31060406410E-01 -0.68353476189E-02  0.71694619968E-01  0.78433733028E-01  0.51100000000E-03 0.  1.
         11    1    4    4    0    0 -0.13919191066E-01 -0.19305495020E-01  0.43397686531E-01  0.49498144765E-01  0.51100000000E-03 0. -1.
</event>
<event>
 8    1  0.1191842E+005  0.1043930E+01  0.7957747E-01            NaN
         13   -1    0    0    0    0  0.00000000000E+00  0.00000000000E+00  0.74505805969E-08  0.10566000000E+00  0.10566000000E+00 0.  1.
     999900   -1    0    0    0    0 -0.00000000000E+00 -0.00000000000E+00 -0.74505805969E-08  0.93827000000E+00  0.93827000000E+00 0.  1.
     999902    2    1    2    0    0  0.84336773993E-02  0.16401699253E-01 -0.14768812869E-01  0.10203024634E+01  0.10200288507E+01 0.  0.
     999903    2    3    3    0    0 -0.11726559161E+00 -0.45882046492E-01 -0.19107097266E-01  0.12918047851E+00  0.21590129652E-01 0.  0.
         14    1    1    2    0    0 -0.84336773993E-02 -0.16401699253E-01  0.14768812869E-01  0.23627536613E-01  0.00000000000E+00 0.  1.
     999901    1    3    3    0    0  0.12569926900E+00  0.62283745745E-01  0.43382843971E-02  0.89112198487E+00  0.88000000000E+00 0. -1.
        -11    1    4    4    0    0 -0.99498936172E-01 -0.39956755985E-01 -0.82827479998E-02  0.10754276212E+00  0.51100000000E-03 0. -1.
         11    1    4    4    0    0 -0.17766655433E-01 -0.59252905075E-02 -0.10824349266E-01  0.21637716398E-01  0.51100000000E-03 0.  1.
</event>
<event>
 8    1  0.1191842E+005  0.1043930E+01  0.7957747E-01            NaN
         13   -1    0    0    0    0  0.00000000000E+00  0.00000000000E+00  0.74505805969E-08  0.10566000000E+00  0.10566000000E+00 0.  1.
     999900   -1    0    0    0    0 -0.00000000000E+00 -0.00000000000E+00 -0.74505805969E-08  0.93827000000E+00  0.93827000000E+00 0. -1.
     999902    2    1    2    0    0  0.23923713967E-01 -0.70158269928E-02 -0.13545994743E-02  0.10189620033E+01  0.10186560574E+01 0.  0.
     999903    2    3    3    0    0  0.56639939961E-01 -0.11453788294E+00  0.23460121061E-01  0.13146715020E+00  0.20155021110E-01 0.  0.
         14    1    1    2    0    0 -0.23923713967E-01  0.70158269928E-02  0.13545994743E-02  0.24967996678E-01  0.00000000000E+00 0. -1.
     999901    1    3    3    0    0 -0.32716225994E-01  0.10752205594E+00 -0.24814720535E-01  0.88749485312E+00  0.88000000000E+00 0. -1.
        -11    1    4    4    0    0  0.31834338490E-01 -0.78984908569E-01  0.22583526340E-01  0.88104016206E-01  0.51100000000E-03 0. -1.
         11    1    4    4    0    0  0.24805601471E-01 -0.35552974368E-01  0.87659472135E-03  0.43363133997E-01  0.51100000000E-03 0.  1.
</event>
<event>
 8    1  0.1191842E+005  0.1043930E+01  0.7957747E-01            NaN
         13   -1    0    0    0    0  0.00000000000E+00  0.00000000000E+00  0.74505805969E-08  0.10566000000E+00  0.10566000000E+00 0.  1.
     999900   -1    0    0    0    0 -0.00000000000E+00 -0.00000000000E+00 -0.74505805969E-08  0.93827000000E+00  0.93827000000E+00 0. -1.
     999902    2    1    2    0    0 -0.92988229553E-02 -0.18668512440E-01 -0.11310519920E-01  0.10202042898E+01  0.10199283718E+01 0.  0.
     999903    2    3    3    0    0  0.11896644350E+00  0.15083002678E-01 -0.45233056956E-01  0.12961915523E+00  0.19354180736E-01 0.  0.
         14    1    1    2    0    0  0.92988229553E-02  0.18668512440E-01  0.11310519920E-01  0.23725710230E-01  0.00000000000E+00 0.  1.
     999901    1    3    3    0    0 -0.12826526645E+00 -0.33751515118E-01  0.33922537036E-01  0.89058513454E+00  0.88000000000E+00 0.  1.
        -11    1    4    4    0    0  0.51415526693E-01  0.31679193984E-02 -0.98992607484E-02  0.52458064993E-01  0.51100000000E-03 0.  1.
         11    1    4    4    0    0  0.67550916804E-01  0.11915083279E-01 -0.35333796208E-01  0.77161090234E-01  0.51100000000E-03 0. -1.
</event>
<event>
 8    1  0.1191842E+005  0.1043930E+01  0.7957747E-01            NaN
         13   -1    0    0    0    0  0.00000000000E+00  0.00000000000E+00  0.74505805969E-08  0.10566000000E+00  0.10566000000E+00 0. -1.
     999900   -1    0    0    0    0 -0.00000000000E+00 -0.00000000000E+00 -0.74505805969E-08  0.93827000000E+00  0.93827000000E+00 0. -1.
     999902    2    1    2    0    0  0.13551248426E-01  0.62123139273E-02  0.96846636984E-02  0.10261529955E+01  0.10259990001E+01 0.  0.
     999903    2    3    3    0    0 -0.12366247928E+00 -0.14434513644E-01  0.46812788181E-01  0.13450710379E+00  0.19998996683E-01 0.  0.
         14    1    1    2    0    0 -0.13551248426E-01 -0.62123139273E-02 -0.96846636984E-02  0.17777004505E-01  0.00000000000E+00 0. -1.
     999901    1    3    3    0    0  0.13721372770E+00  0.20646827571E-01 -0.37128124482E-01  0.89164589170E+00  0.88000000000E+00 0. -1.
        -11    1    4    4    0    0 -0.30322783391E-01  0.18730801729E-02  0.18664775309E-01  0.35659705274E-01  0.51100000000E-03 0.  1.
         11    1    4    4    0    0 -0.93339695888E-01 -0.16307593816E-01  0.28148012871E-01  0.98847398520E-01  0.51100000000E-03 0. -1.
</event>
<event>
 8    1  0.1191842E+005  0.1043930E+01  0.7957747E-01            NaN
         13   -1    0    0    0    0  0.00000000000E+00  0.00000000000E+00  0.74505805969E-08  0.10566000000E+00  0.10566000000E+00 0. -1.
     999900   -1    0    0    0    0 -0.00000000000E+00 -0.00000000000E+00 -0.74505805969E-08  0.93827000000E+00  0.93827000000E+00 0.  1.
     999902    2    1    2    0    0 -0.17644801450E-02  0.13512655265E-02  0.24069608999E-01  0.10197580041E+01  0.10194714815E+01 0.  0.
     999903    2    3    3    0    0  0.12342178774E-01 -0.13415969467E-01 -0.12428668268E+00  0.12710652769E+00  0.19405470239E-01 0.  0.
         14    1    1    2    0    0  0.17644801450E-02 -0.13512655265E-02 -0.24069608999E-01  0.24171995905E-01  0.00000000000E+00 0.  1.
     999901    1    3    3    0    0 -0.14106658919E-01  0.14767234993E-01  0.14835629168E+00  0.89265147641E+00  0.88000000000E+00 0. -1.
        -11    1    4    4    0    0  0.17648996119E-01 -0.10441413422E-01 -0.94515478865E-01  0.96715805556E-01  0.51100000000E-03 0.  1.
         11    1    4    4    0    0 -0.53068173451E-02 -0.29745560447E-02 -0.29771203814E-01  0.30390722129E-01  0.51100000000E-03 0. -1.
</event>
<event>
 8    1  0.1191842E+005  0.1043930E+01  0.7957747E-01            NaN
         13   -1    0    0    0    0  0.00000000000E+00  0.00000000000E+00  0.74505805969E-08  0.10566000000E+00  0.10566000000E+00 0.  1.
     999900   -1    0    0    0    0 -0.00000000000E+00 -0.00000000000E+00 -0.74505805969E-08  0.93827000000E+00  0.93827000000E+00 0. -1.
     999902    2    1    2    0    0 -0.20177224509E-01  0.12900213134E-01 -0.25048145500E-02  0.10198507562E+01  0.10195664544E+01 0.  0.
     999903    2    3    3    0    0  0.29327124737E-01 -0.11694356774E+00 -0.38805329702E-01  0.12820743318E+00  0.19885020170E-01 0.  0.
         14    1    1    2    0    0  0.20177224509E-01 -0.12900213134E-01  0.25048145500E-02  0.24079243836E-01  0.00000000000E+00 0. -1.
     999901    1    3    3    0    0 -0.49504349246E-01  0.12984378088E+00  0.36300515152E-01  0.89164332299E+00  0.88000000000E+00 0.  1.
        -11    1    4    4    0    0  0.77421012656E-02 -0.22470019895E-01 -0.15987776640E-01  0.28648072343E-01  0.51100000000E-03 0. -1.
         11    1    4    4    0    0  0.21585023471E-01 -0.94473547847E-01 -0.22817553063E-01  0.99559360835E-01  0.51100000000E-03 0.  1.
</event>
<event>
 8    1  0.1191842E+005  0.1043930E+01  0.7957747E-01            NaN
         13   -1    0    0    0    0  0.00000000000E+00  0.00000000000E+00  0.74505805969E-08  0.10566000000E+00  0.10566000000E+00 0. -1.
     999900   -1    0    0    0    0 -0.00000000000E+00 -0.00000000000E+00 -0.74505805969E-08  0.93827000000E+00  0.93827000000E+00 0.  1.
     999902    2    1    2    0    0  0.63771876359E-02 -0.22435639750E-01 -0.19383266209E-02  0.10205252235E+01  0.10202568050E+01 0.  0.
     999903    2    3    3    0    0 -0.91793541839E-03 -0.94682747732E-01 -0.91293188988E-01  0.13302471372E+00  0.19886245996E-01 0.  0.
         14    1    1    2    0    0 -0.63771876359E-02  0.22435639750E-01  0.19383266209E-02  0.23404776504E-01  0.00000000000E+00 0.  1.
     999901    1    3    3    0    0  0.72951230543E-02  0.72247107983E-01  0.89354862367E-01  0.88750050978E+00  0.88000000000E+00 0. -1.
        -11    1    4    4    0    0 -0.73196838291E-02 -0.50145723271E-01 -0.38424696368E-01  0.63599447684E-01  0.51100000000E-03 0. -1.
         11    1    4    4    0    0  0.64017484107E-02 -0.44537024461E-01 -0.52868492620E-01  0.69425266031E-01  0.51100000000E-03 0.  1.
</event>
<event>
 8    1  0.1191842E+005  0.1043930E+01  0.7957747E-01            NaN
         13   -1    0    0    0    0  0.00000000000E+00  0.00000000000E+00  0.74505805969E-08  0.10566000000E+00  0.10566000000E+00 0.  1.
     999900   -1    0    0    0    0 -0.00000000000E+00 -0.00000000000E+00 -0.74505805969E-08  0.93827000000E+00  0.93827000000E+00 0. -1.
     999902    2    1    2    0    0 -0.32388167447E-03 -0.11202143120E-01  0.24096582703E-01  0.10173548573E+01  0.10170077028E+01 0.  0.
     999903    2    3    3    0    0 -0.72050323916E-01  0.73934584823E-01  0.74411286378E-01  0.12891548722E+00  0.20605613193E-01 0.  0.
         14    1    1    2    0    0  0.32388167447E-03  0.11202143120E-01 -0.24096582703E-01  0.26575142668E-01  0.00000000000E+00 0. -1.
     999901    1    3    3    0    0  0.71726442242E-01 -0.85136727943E-01 -0.50314703675E-01  0.88843937011E+00  0.88000000000E+00 0.  1.
        -11    1    4    4    0    0 -0.51666118092E-01  0.39742650450E-01  0.41622005723E-01  0.77340277378E-01  0.51100000000E-03 0. -1.
         11    1    4    4    0    0 -0.20384205824E-01  0.34191934374E-01  0.32789280655E-01  0.51575209841E-01  0.51100000000E-03 0.  1.
</event>
<event>
 8    1  0.1191842E+005  0.1043930E+01  0.7957747E-01            NaN
         13   -1    0    0    0    0  0.00000000000E+00  0.00000000000E+00  0.74505805969E-08  0.10566000000E+00  0.10566000000E+00 0.  1.
     999900   -1    0    0    0    0 -0.00000000000E+00 -0.00000000000E+00 -0.74505805969E-08  0.93827000000E+00  0.93827000000E+00 0. -1.
     999902    2    1    2    0    0  0.13993017193E-01 -0.13432181763E-01 -0.13650486954E-01  0.10202115719E+01  0.10199358252E+01 0.  0.
     999903    2    3    3    0    0  0.19749378925E-01 -0.11593750218E+00  0.57466012440E-01  0.13139323676E+00  0.11414801844E-01 0.  0.
         14    1    1    2    0    0 -0.13993017193E-01  0.13432181763E-01  0.13650486954E-01  0.23718428092E-01  0.00000000000E+00 0.  1.
     999901    1    3    3    0    0 -0.57563617325E-02  0.10250532041E+00 -0.71116499394E-01  0.88881833515E+00  0.88000000000E+00 0. -1.
        -11    1    4    4    0    0 -0.89004506962E-03 -0.16284904957E-01  0.95748344418E-02  0.18919008570E-01  0.51100000000E-03 0.  1.
         11    1    4    4    0    0  0.20639423995E-01 -0.99652597219E-01  0.47891177998E-01  0.11247422819E+00  0.51100000000E-03 0. -1.
</event>
<event>
 8    1  0.1191842E+005  0.1043930E+01  0.7957747E-01            NaN
         13   -1    0    0    0    0  0.00000000000E+00  0.00000000000E+00  0.74505805969E-08  0.10566000000E+00  0.10566000000E+00 0. -1.
     999900   -1    0    0    0    0 -0.00000000000E+00 -0.00000000000E+00 -0.74505805969E-08  0.93827000000E+00  0.93827000000E+00 0.  1.
     999902    2    1    2    0    0 -0.30717047769E-03 -0.21420575444E-01 -0.95664801642E-02  0.10204682663E+01  0.10201985246E+01 0.  0.
     999903    2    3    3    0    0  0.41561315711E-01  0.46757493359E-01  0.11057592682E+00  0.12870853567E+00  0.20621479390E-01 0.  0.
         14    1    1    2    0    0  0.30717047769E-03  0.21420575444E-01  0.95664801642E-02  0.23461733712E-01  0.00000000000E+00 0. -1.
     999901    1    3    3    0    0 -0.41868486189E-01 -0.68178068803E-01 -0.12014240699E+00  0.89175973062E+00  0.88000000000E+00 0.  1.
        -11    1    4    4    0    0  0.11245247939E-01  0.17286773181E-01  0.55937966240E-01  0.59620510869E-01  0.51100000000E-03 0.  1.
         11    1    4    4    0    0  0.30316067772E-01  0.29470720178E-01  0.54637960581E-01  0.69088024798E-01  0.51100000000E-03 0. -1.
</event>
<event>
 8    1  0.1191842E+005  0.1043930E+01  0.7957747E-01            NaN
         13   -1    0    0    0    0  0.00000000000E+00  0.00000000000E+00  0.74505805969E-08  0.10566000000E+00  0.10566000000E+00 0. -1.
     999900   -1    0    0    0    0 -0.00000000000E+00 -0.00000000000E+00 -0.74505805969E-08  0.93827000000E+00  0.93827000000E+00 0. -1.
     999902    2    1    2    0    0  0.15677103512E-01  0.65365919184E-02  0.16410707663E-01  0.10203119998E+01  0.10200386105E+01 0.  0.
     999903    2    3    3    0    0 -0.87952050162E-02 -0.12110402915E+00  0.41290342092E-01  0.13041873751E+00  0.23677272552E-01 0.  0.
         14    1    1    2    0    0 -0.15677103512E-01 -0.65365919184E-02 -0.16410707663E-01  0.23618000221E-01  0.00000000000E+00 0.  1.
     999901    1    3    3    0    0  0.24472308528E-01  0.12764062107E+00 -0.24879634429E-01  0.88989326227E+00  0.88000000000E+00 0.  1.
        -11    1    4    4    0    0  0.80065633126E-02 -0.35098661767E-01  0.99935439063E-02  0.37365132874E-01  0.51100000000E-03 0. -1.
         11    1    4    4    0    0 -0.16801768329E-01 -0.86005367380E-01  0.31296798186E-01  0.93053604631E-01  0.51100000000E-03 0.  1.
</event>
<event>
 8    1  0.1191842E+005  0.1043930E+01  0.7957747E-01            NaN
         13   -1    0    0    0    0  0.00000000000E+00  0.00000000000E+00  0.74505805969E-08  0.10566000000E+00  0.10566000000E+00 0. -1.
     999900   -1    0    0    0    0 -0.00000000000E+00 -0.00000000000E+00 -0.74505805969E-08  0.93827000000E+00  0.93827000000E+00 0. -1.
     999902    2    1    2    0    0  0.11743913491E-01 -0.19472768750E-01  0.37448223911E-02  0.10208837005E+01  0.10206235339E+01 0.  0.
     999903    2    3    3    0    0 -0.45707754928E-01  0.11071492016E+00  0.42375626942E-01  0.12861587768E+00  0.19983939175E-01 0.  0.
         14    1    1    2    0    0 -0.11743913491E-01  0.19472768750E-01 -0.37448223911E-02  0.23046299521E-01  0.00000000000E+00 0.  1.
     999901    1    3    3    0    0  0.57451668420E-01 -0.13018768891E+00 -0.38630804551E-01  0.89226782280E+00  0.88000000000E+00 0.  1.
        -11    1    4    4    0    0 -0.25647463395E-01  0.76471640897E-01  0.36347481694E-01  0.88470926222E-01  0.51100000000E-03 0.  1.
         11    1    4    4    0    0 -0.20060291534E-01  0.34243279264E-01  0.60281452475E-02  0.40144951455E-01  0.51100000000E-03 0. -1.
</event>
<event>
 8    1  0.1191842E+005  0.1043930E+01  0.7957747E-01            NaN
         13   -1    0    0    0    0  0.00000000000E+00  0.00000000000E+00  0.74505805969E-08  0.10566000000E+00  0.10566000000E+00 0.  1.
     999900   -1    0    0    0    0 -0.00000000000E+00 -0.00000000000E+00 -0.74505805969E-08  0.93827000000E+00  0.93827000000E+00 0.  1.
     999902    2    1    2    0    0  0.21675676673E-01  0.75135674817E-03 -0.98144569590E-02  0.10201240541E+01  0.10198462446E+01 0.  0.
     999903    2    3    3    0    0  0.76492748136E-01  0.26477311026E-02 -0.10709423079E+00  0.13306607290E+00  0.19474457393E-01 0.  0.
         14    1    1    2    0    0 -0.21675676673E-01 -0.75135674817E-03  0.98144569590E-02  0.23805945930E-01  0.00000000000E+00 0.  1.
     999901    1    3    3    0    0 -0.54817071463E-01 -0.18963743544E-02  0.97279773834E-01  0.88705798117E+00  0.88000000000E+00 0. -1.
        -11    1    4    4    0    0  0.21676778281E-01 -0.73993906308E-02 -0.25819210958E-01  0.34518494664E-01  0.51100000000E-03 0.  1.
         11    1    4    4    0    0  0.54815969856E-01  0.10047121733E-01 -0.81275019834E-01  0.98547578237E-01  0.51100000000E-03 0. -1.
</event>
<event>
 8    1  0.1191842E+005  0.1043930E+01  0.7957747E-01            NaN
         13   -1    0    0    0    0  0.00000000000E+00  0.00000000000E+00  0.74505805969E-08  0.10566000000E+00  0.10566000000E+00 0. -1.
     999900   -1    0    0    0    0 -0.00000000000E+00 -0.00000000000E+00 -0.74505805969E-08  0.93827000000E+00  0.93827000000E+00 0.  1.
     999902    2    1    2    0    0 -0.10915211816E-02  0.67636246620E-02  0.22578935335E-01  0.10203345267E+01  0.10200616649E+01 0.  0.
     999903    2    3    3    0    0 -0.40375923528E-01  0.92908065867E-01 -0.78121023475E-01  0.12954576912E+00  0.20422734480E-01 0.  0.
         14    1    1    2    0    0  0.10915211816E-02 -0.67636246620E-02 -0.22578935335E-01  0.23595473251E-01  0.00000000000E+00 0.  1.
     999901    1    3    3    0    0  0.39284402346E-01 -0.86144441205E-01  0.10069995881E+00  0.89078875763E+00  0.88000000000E+00 0. -1.
        -11    1    4    4    0    0 -0.24290714952E-01  0.76147787673E-01 -0.57306771188E-01  0.98350656050E-01  0.51100000000E-03 0.  1.
         11    1    4    4    0    0 -0.16085208576E-01  0.16760278194E-01 -0.20814252287E-01  0.31195113068E-01  0.51100000000E-03 0. -1.
</event>
<event>
 8    1  0.1191842E+005  0.1043930E+01  0.7957747E-01            NaN
         13   -1    0    0    0    0  0.00000000000E+00  0.00000000000E+00  0.74505805969E-08  0.10566000000E+00  0.10566000000E+00 0. -1.
     999900   -1    0    0    0    0 -0.00000000000E+00 -0.00000000000E+00 -0.74505805969E-08  0.93827000000E+00  0.93827000000E+00 0. -1.
     999902    2    1    2    0    0  0.19952162383E-01 -0.10860951018E-01 -0.86665677296E-02  0.10196162500E+01  0.10193263162E+01 0.  0.
     999903    2    3    3    0    0  0.16419104752E-02 -0.91023878499E-01 -0.93954304432E-01  0.13167742428E+00  0.14949595866E-01 0.  0.
         14    1    1    2    0    0 -0.19952162383E-01  0.10860951018E-01  0.86665677296E-02  0.24313749957E-01  0.00000000000E+00 0. -1.
     999901    1    3    3    0    0  0.18310251907E-01  0.80162927481E-01  0.85287736702E-01  0.88793882576E+00  0.88000000000E+00 0. -1.
        -11    1    4    4    0    0 -0.20503666228E-02 -0.10980672778E-01 -0.59811269295E-02  0.12681253025E-01  0.51100000000E-03 0.  1.
         11    1    4    4    0    0  0.36922770980E-02 -0.80043205721E-01 -0.87973177502E-01  0.11899617125E+00  0.51100000000E-03 0. -1.
</event>
<event>
 8    1  0.1191842E+005  0.1043930E+01  0.7957747E-01            NaN
         13   -1    0    0    0    0  0.00000000000E+00  0.00000000000E+00  0.74505805969E-08  0.10566000000E+00  0.10566000000E+00 0. -1.
     999900   -1    0    0    0    0 -0.00000000000E+00 -0.00000000000E+00 -0.74505805969E-08  0.93827000000E+00  0.93827000000E+00 0.  1.
     999902    2    1    2    0    0  0.37159984530E-02  0.22620355113E-01  0.31395256204E-02  0.10207924606E+01  0.10205302062E+01 0.  0.
     999903    2    3    3    0    0 -0.69877773959E-01  0.99227543548E-01  0.50770747748E-01  0.13312504651E+00  0.20386281889E-01 0.  0.
         14    1    1    2    0    0 -0.37159984530E-02 -0.22620355113E-01 -0.31395256204E-02  0.23137539434E-01  0.00000000000E+00 0.  1.
     999901    1    3    3    0    0  0.73593772412E-01 -0.76607188435E-01 -0.47631222127E-01  0.88766741406E+00  0.88000000000E+00 0.  1.
        -11    1    4    4    0    0 -0.54114666128E-01  0.85726176578E-01  0.35740149519E-01  0.10749415728E+00  0.51100000000E-03 0. -1.
         11    1    4    4    0    0 -0.15763107831E-01  0.13501366969E-01  0.15030598228E-01  0.25630889228E-01  0.51100000000E-03 0.  1.
</event>
<event>
 8    1  0.1191842E+005  0.1043930E+01  0.7957747E-01            NaN
         13   -1    0    0    0    0  0.00000000000E+00  0.00000000000E+00  0.74505805969E-08  0.10566000000E+00  0.10566000000E+00 0.  1.
     999900   -1    0    0    0    0 -0.00000000000E+00 -0.00000000000E+00 -0.74505805969E-08  0.93827000000E+00  0.93827000000E+00 0. -1.
     999902    2    1    2    0    0 -0.35891150402E-03 -0.10313355073E-02  0.24597092989E-01  0.10193086789E+01  0.10190112724E+01 0.  0.
     999903    2    3    3    0    0  0.89564978237E-01 -0.30069950723E-01  0.89629233566E-01  0.13186362343E+00  0.20700927817E-01 0.  0.
         14    1    1    2    0    0  0.35891150402E-03  0.10313355073E-02 -0.24597092989E-01  0.24621321124E-01  0.00000000000E+00 0. -1.
     999901    1    3    3    0    0 -0.89923889741E-01  0.29038615216E-01 -0.65032140577E-01  0.88744505544E+00  0.88000000000E+00 0. -1.
        -11    1    4    4    0    0  0.24123528250E-01  0.12610468678E-02  0.22605790191E-01  0.33088029945E-01  0.51100000000E-03 0.  1.
         11    1    4    4    0    0  0.65441449987E-01 -0.31330997591E-01  0.67023443374E-01  0.98775593489E-01  0.51100000000E-03 0. -1.
</event>
<event>
 8    1  0.1191842E+005  0.1043930E+01  0.7957747E-01            NaN
         13   -1    0    0    0    0  0.00000000000E+00  0.00000000000E+00  0.74505805969E-08  0.10566000000E+00  0.10566000000E+00 0.  1.
     999900   -1    0    0    0    0 -0.00000000000E+00 -0.00000000000E+00 -0.74505805969E-08  0.93827000000E+00  0.93827000000E+00 0.  1.
     999902    2    1    2    0    0 -0.60736658500E-02 -0.66193505697E-02 -0.22023574947E-01  0.10201446458E+01  0.10198673224E+01 0.  0.
     999903    2    3    3    0    0  0.19633694559E-01  0.17181006397E-01  0.12329259253E+00  0.12753940617E+00  0.19610400529E-01 0.  0.
         14    1    1    2    0    0  0.60736658500E-02  0.66193505697E-02  0.22023574947E-01  0.23785354155E-01  0.00000000000E+00 0.  1.
     999901    1    3    3    0    0 -0.25707360409E-01 -0.23800356966E-01 -0.14531616748E+00  0.89260523968E+00  0.88000000000E+00 0.  1.
        -11    1    4    4    0    0  0.97873056413E-03  0.96036855011E-02  0.68174382943E-01  0.68856345382E-01  0.51100000000E-03 0. -1.
         11    1    4    4    0    0  0.18654963995E-01  0.75773208956E-02  0.55118209591E-01  0.58683060785E-01  0.51100000000E-03 0.  1.
</event>
<event>
 8    1  0.1191842E+005  0.1043930E+01  0.7957747E-01            NaN
         13   -1    0    0    0    0  0.00000000000E+00  0.00000000000E+00  0.74505805969E-08  0.10566000000E+00  0.10566000000E+00 0.  1.
     999900   -1    0    0    0    0 -0.00000000000E+00 -0.00000000000E+00 -0.74505805969E-08  0.93827000000E+00  0.93827000000E+00 0. -1.
     999902    2    1    2    0    0  0.93976209245E-04  0.92309829458E-03  0.23702496607E-01  0.10202093489E+01  0.10199335500E+01 0.  0.
     999903    2    3    3    0    0  0.10101281647E+00  0.60313460194E-01  0.56208628183E-01  0.13185779915E+00  0.19640945531E-01 0.  0.
         14    1    1    2    0    0 -0.93976209245E-04 -0.92309829458E-03 -0.23702496607E-01  0.23720651075E-01  0.00000000000E+00 0. -1.
     999901    1    3    3    0    0 -0.10091884026E+00 -0.59390361900E-01 -0.32506131576E-01  0.88835154978E+00  0.88000000000E+00 0. -1.
        -11    1    4    4    0    0  0.62803702335E-01  0.42182334934E-01  0.45285745066E-01  0.88174340001E-01  0.51100000000E-03 0.  1.
         11    1    4    4    0    0  0.38209114135E-01  0.18131125260E-01  0.10922883118E-01  0.43683459144E-01  0.51100000000E-03 0. -1.
</event>
<event>
 8    1  0.1191842E+005  0.1043930E+01  0.7957747E-01            NaN
         13   -1    0    0    0    0  0.00000000000E+00  0.00000000000E+00  0.74505805969E-08  0.10566000000E+00  0.10566000000E+00 0.  1.
     999900   -1    0    0    0    0 -0.00000000000E+00 -0.00000000000E+00 -0.74505805969E-08  0.93827000000E+00  0.93827000000E+00 0.  1.
     999902    2    1    2    0    0  0.12145763115E-01 -0.96770444724E-02  0.19357543845E-01  0.10191130853E+01  0.10188108762E+01 0.  0.
     999903    2    3    3    0    0 -0.44211042957E-01  0.83647782338E-01 -0.81823860107E-01  0.12663155082E+00  0.19718969814E-01 0.  0.
         14    1    1    2    0    0 -0.12145763115E-01  0.96770444724E-02 -0.19357543845E-01  0.24816914697E-01  0.00000000000E+00 0. -1.
     999901    1    3    3    0    0  0.56356806071E-01 -0.93324826810E-01  0.10118140395E+00  0.89248153448E+00  0.88000000000E+00 0. -1.
        -11    1    4    4    0    0 -0.37868540537E-01  0.55631399846E-01 -0.50585045958E-01  0.84190183553E-01  0.51100000000E-03 0.  1.
         11    1    4    4    0    0 -0.63425024199E-02  0.28016382492E-01 -0.31238814149E-01  0.42441367265E-01  0.51100000000E-03 0. -1.
</event>
<event>
 8    1  0.1191842E+005  0.1043930E+01  0.7957747E-01            NaN
         13   -1    0    0    0    0  0.00000000000E+00  0.00000000000E+00  0.74505805969E-08  0.10566000000E+00  0.10566000000E+00 0. -1.
     999900   -1    0    0    0    0 -0.00000000000E+00 -0.00000000000E+00 -0.74505805969E-08  0.93827000000E+00  0.93827000000E+00 0. -1.
     999902    2    1    2    0    0  0.83611661007E-02 -0.11031925344E-01  0.19510123967E-01  0.10200080976E+01  0.10197275429E+01 0.  0.
     999903    2    3    3    0    0 -0.70125433275E-01  0.44048079222E-01  0.99849176021E-01  0.13116147619E+00  0.19382084713E-01 0.  0.
         14    1    1    2    0    0 -0.83611661007E-02  0.11031925344E-01 -0.19510123967E-01  0.23921902361E-01  0.00000000000E+00 0.  1.
     999901    1    3    3    0    0  0.78486599376E-01 -0.55080004566E-01 -0.80339052053E-01  0.88884662145E+00  0.88000000000E+00 0. -1.
        -11    1    4    4    0    0 -0.33505363110E-02 -0.55637403695E-03  0.10406943313E-01  0.10959070935E-01  0.51100000000E-03 0.  1.
         11    1    4    4    0    0 -0.66774896964E-01  0.44604453259E-01  0.89442232708E-01  0.12020240525E+00  0.51100000000E-03 0. -1.
</event>
<event>
 8    1  0.1191842E+005  0.1043930E+01  0.7957747E-01            NaN
         13   -1    0    0    0    0  0.00000000000E+00  0.00000000000E+00  0.74505805969E-08  0.10566000000E+00  0.10566000000E+00 0. -1.
     999900   -1    0    0    0    0 -0.00000000000E+00 -0.00000000000E+00 -0.74505805969E-08  0.93827000000E+00  0.93827000000E+00 0.  1.
     999902    2    1    2    0    0 -0.21245534338E-01 -0.39764818989E-02 -0.10004446039E-01  0.10201124838E+01  0.10198344010E+01 0.  0.
     999903    2    3    3    0    0  0.10599519329E+00  0.58828710796E-01  0.33857450966E-01  0.12766721320E+00  0.21372695804E-01 0.  0.
         14    1    1    2    0    0  0.21245534338E-01  0.39764818989E-02  0.10004446039E-01  0.23817516204E-01  0.00000000000E+00 0. -1.
     999901    1    3    3    0    0 -0.12724072763E+00 -0.62805192695E-01 -0.43861897006E-01  0.89244527059E+00  0.88000000000E+00 0.  1.
        -11    1    4    4    0    0  0.67061516684E-02  0.17327126274E-02  0.73329106514E-02  0.10099874399E-01  0.51100000000E-03 0.  1.
         11    1    4    4    0    0  0.99289041623E-01  0.57095998168E-01  0.26524540315E-01  0.11756733880E+00  0.51100000000E-03 0. -1.
</event>
<event>
 8    1  0.1191842E+005  0.1043930E+01  0.7957747E-01            NaN
         13   -1    0    0    0    0  0.00000000000E+00  0.00000000000E+00  0.74505805969E-08  0.10566000000E+00  0.10566000000E+00 0.  1.
     999900   -1    0    0    0    0 -0.00000000000E+00 -0.00000000000E+00 -0.74505805969E-08  0.93827000000E+00  0.93827000000E+00 0.  1.
     999902    2    1    2    0    0  0.17311977896E-01  0.17068395806E-01 -0.20589704813E-02  0.10195317609E+01  0.10192397840E+01 0.  0.
     999903    2    3    3    0    0  0.10603347731E+00  0.75452152923E-01 -0.19618803403E-01  0.13297182758E+00  0.18986410709E-01 0.  0.
         14    1    1    2    0    0 -0.17311977896E-01 -0.17068395806E-01  0.20589704813E-02  0.24398239148E-01  0.00000000000E+00 0. -1.
     999901    1    3    3    0    0 -0.88721499414E-01 -0.58383757117E-01  0.17559832922E-01  0.88655993327E+00  0.88000000000E+00 0. -1.
        -11    1    4    4    0    0  0.24290998798E-01  0.10307636486E-01  0.10822902081E-02  0.26414625979E-01  0.51100000000E-03 0. -1.
         11    1    4    4    0    0  0.81742478512E-01  0.65144516437E-01 -0.20701093611E-01  0.10655720160E+00  0.51100000000E-03 0.  1.
</event>
<event>
 8    1  0.1191842E+005  0.1043930E+01  0.7957747E-01            NaN
         13   -1    0    0    0    0  0.00000000000E+00  0.00000000000E+00  0.74505805969E-08  0.10566000000E+00  0.10566000000E+00 0. -1.
     999900   -1    0    0    0    0 -0.00000000000E+00 -0.00000000000E+00 -0.74505805969E-08  0.93827000000E+00  0.93827000000E+00 0.  1.
     999902    2    1    2    0    0  0.54699292784E-02 -0.18399437004E-01  0.51782271642E-02  0.10240485150E+01  0.10238555014E+01 0.  0.
     999903    2    3    3    0    0  0.12888837762E+00 -0.32735064479E-01 -0.10400120255E-01  0.13518389737E+00  0.21971009902E-01 0.  0.
         14    1    1    2    0    0 -0.54699292784E-02  0.18399437004E-01 -0.51782271642E-02  0.19881484978E-01  0.00000000000E+00 0.  1.
     999901    1    3    3    0    0 -0.12341844834E+00  0.14335627476E-01  0.15578347419E-01  0.88886461765E+00  0.88000000000E+00 0.  1.
        -11    1    4    4    0    0  0.97601082916E-01 -0.16248240423E-01 -0.26791316130E-02  0.98981895165E-01  0.51100000000E-03 0.  1.
         11    1    4    4    0    0  0.31287294699E-01 -0.16486824057E-01 -0.77209886418E-02  0.36202002205E-01  0.51100000000E-03 0. -1.
</event>
<event>
 8    1  0.1191842E+005  0.1043930E+01  0.7957747E-01            NaN
         13   -1    0    0    0    0  0.00000000000E+00  0.00000000000E+00  0.74505805969E-08  0.10566000000E+00  0.10566000000E+00 0.  1.
     999900   -1    0    0    0    0 -0.00000000000E+00 -0.00000000000E+00 -0.74505805969E-08  0.93827000000E+00  0.93827000000E+00 0.  1.
     999902    2    1    2    0    0 -0.13086823048E-03  0.18747465440E-01 -0.12381757358E-01  0.10214624122E+01  0.10212152893E+01 0.  0.
     999903    2    3    3    0    0 -0.76001057186E-01 -0.63270160377E-01  0.81150039418E-01  0.12948070076E+00  0.20016220501E-01 0.  0.
         14    1    1    2    0    0  0.13086823048E-03 -0.18747465440E-01  0.12381757358E-01  0.22467587814E-01  0.00000000000E+00 0.  1.
     999901    1    3    3    0    0  0.75870188956E-01  0.82017625817E-01 -0.93531796776E-01  0.89198171143E+00  0.88000000000E+00 0.  1.
        -11    1    4    4    0    0 -0.69849547297E-01 -0.61460049752E-01  0.80470215195E-01  0.12301224991E+00  0.51100000000E-03 0.  1.
         11    1    4    4    0    0 -0.61515098888E-02 -0.18101106257E-02  0.67982422330E-03  0.64684508473E-02  0.51100000000E-03 0. -1.
</event>
<event>
 8    1  0.1191842E+005  0.1043930E+01  0.7957747E-01            NaN
         13   -1    0    0    0    0  0.00000000000E+00  0.00000000000E+00  0.74505805969E-08  0.10566000000E+00  0.10566000000E+00 0. -1.
     999900   -1    0    0    0    0 -0.00000000000E+00 -0.00000000000E+00 -0.74505805969E-08  0.93827000000E+00  0.93827000000E+00 0. -1.
     999902    2    1    2    0    0  0.23922729606E-01 -0.77123291706E-04  0.57948842571E-03  0.10200001286E+01  0.10197193847E+01 0.  0.
     999903    2    3    3    0    0 -0.12407646024E+00 -0.76282664715E-02 -0.12980208320E-01  0.12750662981E+00  0.25224916302E-01 0.  0.
         14    1    1    2    0    0 -0.23922729606E-01  0.77123291706E-04 -0.57948842571E-03  0.23929871430E-01  0.00000000000E+00 0. -1.
     999901    1    3    3    0    0  0.14799918984E+00  0.75511431798E-02  0.13559696746E-01  0.89249349876E+00  0.88000000000E+00 0.  1.
        -11    1    4    4    0    0 -0.90378018400E-01 -0.51265441695E-02 -0.20654577994E-01  0.92851173273E-01  0.51100000000E-03 0. -1.
         11    1    4    4    0    0 -0.33698441838E-01 -0.25017223020E-02  0.76743696736E-02  0.34655456535E-01  0.51100000000E-03 0.  1.
</event>
<event>
 8    1  0.1191842E+005  0.1043930E+01  0.7957747E-01            NaN
         13   -1    0    0    0    0  0.00000000000E+00  0.00000000000E+00  0.74505805969E-08  0.10566000000E+00  0.10566000000E+00 0.  1.
     999900   -1    0    0    0    0 -0.00000000000E+00 -0.00000000000E+00 -0.74505805969E-08  0.93827000000E+00  0.93827000000E+00 0.  1.
     999902    2    1    2    0    0  0.19073801929E-01  0.11637668835E-01  0.89354413143E-02  0.10198657658E+01  0.10195818226E+01 0.  0.
     999903    2    3    3    0    0  0.11097930651E+00  0.61594007848E-01  0.34224065934E-01  0.13330963554E+00  0.22134677790E-01 0.  0.
         14    1    1    2    0    0 -0.19073801929E-01 -0.11637668835E-01 -0.89354413143E-02  0.24064234195E-01  0.00000000000E+00 0. -1.
     999901    1    3    3    0    0 -0.91905504584E-01 -0.49956339013E-01 -0.25288624619E-01  0.88655613027E+00  0.88000000000E+00 0.  1.
        -11    1    4    4    0    0  0.10148584822E+00  0.58866632494E-01  0.25371742831E-01  0.12003601237E+00  0.51100000000E-03 0.  1.
         11    1    4    4    0    0  0.94934582953E-02  0.27273753540E-02  0.88523231029E-02  0.13273623169E-01  0.51100000000E-03 0. -1.
</event>
<event>
 8    1  0.1191842E+005  0.1043930E+01  0.7957747E-01            NaN
         13   -1    0    0    0    0  0.00000000000E+00  0.00000000000E+00  0.74505805969E-08  0.10566000000E+00  0.10566000000E+00 0. -1.
     999900   -1    0    0    0    0 -0.00000000000E+00 -0.00000000000E+00 -0.74505805969E-08  0.93827000000E+00  0.93827000000E+00 0. -1.
     999902    2    1    2    0    0  0.43699270592E-02  0.17298891979E-01  0.11806713293E-01  0.10225349911E+01  0.10223111374E+01 0.  0.
     999903    2    3    3    0    0  0.55569811706E-01 -0.75178536553E-01 -0.88817309901E-01  0.13051554233E+00  0.20148844143E-01 0.  0.
         14    1    1    2    0    0 -0.43699270592E-02 -0.17298891979E-01 -0.11806713293E-01  0.21395008880E-01  0.00000000000E+00 0.  1.
     999901    1    3    3    0    0 -0.51199884646E-01  0.92477428532E-01  0.10062402319E+00  0.89201944879E+00  0.88000000000E+00 0. -1.
        -11    1    4    4    0    0  0.40535634011E-01 -0.39960707624E-01 -0.58973151212E-01  0.81963952219E-01  0.51100000000E-03 0.  1.
         11    1    4    4    0    0  0.15034177694E-01 -0.35217828929E-01 -0.29844158689E-01  0.48551590111E-01  0.51100000000E-03 0. -1.
</event>
<event>
 8    1  0.1191842E+005  0.1043930E+01  0.7957747E-01            NaN
         13   -1    0    0    0    0  0.00000000000E+00  0.00000000000E+00  0.74505805969E-08  0.10566000000E+00  0.10566000000E+00 0.  1.
     999900   -1    0    0    0    0 -0.00000000000E+00 -0.00000000000E+00 -0.74505805969E-08  0.93827000000E+00  0.93827000000E+00 0.  1.
     999902    2    1    2    0    0  0.13055938315E-02  0.58171246819E-02 -0.23765012074E-01  0.10194285855E+01  0.10191341038E+01 0.  0.
     999903    2    3    3    0    0 -0.51420806902E-01  0.30524852438E-01 -0.11661358002E+00  0.13263018577E+00  0.20400321888E-01 0.  0.
         14    1    1    2    0    0 -0.13055938315E-02 -0.58171246819E-02  0.23765012074E-01  0.24501414524E-01  0.00000000000E+00 0.  1.
     999901    1    3    3    0    0  0.52726400734E-01 -0.24707727757E-01  0.92848567951E-01  0.88679839970E+00  0.88000000000E+00 0. -1.
        -11    1    4    4    0    0 -0.24041869000E-01  0.68025924186E-02 -0.32122487057E-01  0.40698919204E-01  0.51100000000E-03 0.  1.
         11    1    4    4    0    0 -0.27378937902E-01  0.23722260020E-01 -0.84491092968E-01  0.91931266569E-01  0.51100000000E-03 0. -1.
</event>
<event>
 8    1  0.1191842E+005  0.1043930E+01  0.7957747E-01            NaN
         13   -1    0    0    0    0  0.00000000000E+00  0.00000000000E+00  0.74505805969E-08  0.10566000000E+00  0.10566000000E+00 0.  1.
     999900   -1    0    0    0    0 -0.00000000000E+00 -0.00000000000E+00 -0.74505805969E-08  0.93827000000E+00  0.93827000000E+00 0. -1.
     999902    2    1    2    0    0  0.17488457793E-01 -0.66280570649E-02 -0.14911385882E-01  0.10200108293E+01  0.10197303395E+01 0.  0.
     999903    2    3    3    0    0  0.58704959365E-01 -0.10795670528E+00 -0.45845758568E-01  0.13269846587E+00  0.20152587821E-01 0.  0.
         14    1    1    2    0    0 -0.17488457793E-01  0.66280570649E-02  0.14911385882E-01  0.23919170666E-01  0.00000000000E+00 0.  1.
     999901    1    3    3    0    0 -0.41216501572E-01  0.10132864821E+00  0.30934372686E-01  0.88731236347E+00  0.88000000000E+00 0. -1.
        -11    1    4    4    0    0  0.30556278131E-01 -0.48507419470E-01 -0.31343600074E-01  0.65340173426E-01  0.51100000000E-03 0. -1.
         11    1    4    4    0    0  0.28148681234E-01 -0.59449285808E-01 -0.14502158495E-01  0.67358292439E-01  0.51100000000E-03 0.  1.
</event>
<event>
 8    1  0.1191842E+005  0.1043930E+01  0.7957747E-01            NaN
         13   -1    0    0    0    0  0.00000000000E+00  0.00000000000E+00  0.74505805969E-08  0.10566000000E+00  0.10566000000E+00 0.  1.
     999900   -1    0    0    0    0 -0.00000000000E+00 -0.00000000000E+00 -0.74505805969E-08  0.93827000000E+00  0.93827000000E+00 0. -1.
     999902    2    1    2    0    0  0.22672161297E-01  0.64245491362E-02 -0.66377677274E-02  0.10194481355E+01  0.10191541293E+01 0.  0.
     999903    2    3    3    0    0 -0.30314699420E-01  0.10341131808E+00  0.68504587389E-01  0.12935801966E+00  0.20681804830E-01 0.  0.
         14    1    1    2    0    0 -0.22672161297E-01 -0.64245491362E-02  0.66377677274E-02  0.24481864510E-01  0.00000000000E+00 0. -1.
     999901    1    3    3    0    0  0.52986860717E-01 -0.96986768940E-01 -0.75142355116E-01  0.89009011583E+00  0.88000000000E+00 0. -1.
        -11    1    4    4    0    0 -0.28460410112E-01  0.71767614087E-01  0.55536978822E-01  0.95106269578E-01  0.51100000000E-03 0.  1.
         11    1    4    4    0    0 -0.18542893077E-02  0.31643703990E-01  0.12967608567E-01  0.34251750087E-01  0.51100000000E-03 0. -1.
</event>
<event>
 8    1  0.1191842E+005  0.1043930E+01  0.7957747E-01            NaN
         13   -1    0    0    0    0  0.00000000000E+00  0.00000000000E+00  0.74505805969E-08  0.10566000000E+00  0.10566000000E+00 0.  1.
     999900   -1    0    0    0    0 -0.00000000000E+00 -0.00000000000E+00 -0.74505805969E-08  0.93827000000E+00  0.93827000000E+00 0.  1.
     999902    2    1    2    0    0  0.10870712493E-01  0.59449868170E-02 -0.19562196990E-01  0.10207741193E+01  0.10205114443E+01 0.  0.
     999903    2    3    3    0    0  0.69269208974E-01  0.28536596401E-01 -0.10924231452E+00  0.13400284742E+00  0.20256337024E-01 0.  0.
         14    1    1    2    0    0 -0.10870712493E-01 -0.59449868170E-02  0.19562196990E-01  0.23155880666E-01  0.00000000000E+00 0.  1.
     999901    1    3    3    0    0 -0.58398496481E-01 -0.22591609584E-01  0.89680117525E-01  0.88677127192E+00  0.88000000000E+00 0. -1.
        -11    1    4    4    0    0  0.11187520261E-01  0.31505709793E-02 -0.32184105767E-01  0.34222280638E-01  0.51100000000E-03 0. -1.
         11    1    4    4    0    0  0.58081688713E-01  0.25386025421E-01 -0.77058208748E-01  0.99780566780E-01  0.51100000000E-03 0.  1.
</event>
<event>
 8    1  0.1191842E+005  0.1043930E+01  0.7957747E-01            NaN
         13   -1    0    0    0    0  0.00000000000E+00  0.00000000000E+00  0.74505805969E-08  0.10566000000E+00  0.10566000000E+00 0.  1.
     999900   -1    0    0    0    0 -0.00000000000E+00 -0.00000000000E+00 -0.74505805969E-08  0.93827000000E+00  0.93827000000E+00 0. -1.
     999902    2    1    2    0    0 -0.13692779585E-01  0.54376685609E-02  0.18332204266E-01  0.10204112805E+01  0.10201402116E+01 0.  0.
     999903    2    3    3    0    0  0.77665658433E-01  0.26408760767E-01  0.10109285705E+00  0.13157188190E+00  0.19026749998E-01 0.  0.
         14    1    1    2    0    0  0.13692779585E-01 -0.54376685609E-02 -0.18332204266E-01  0.23518719467E-01  0.00000000000E+00 0.  1.
     999901    1    3    3    0    0 -0.91358438018E-01 -0.20971092206E-01 -0.82760652787E-01  0.88883939863E+00  0.88000000000E+00 0. -1.
        -11    1    4    4    0    0  0.31943449756E-01  0.18532671016E-01  0.35508654323E-01  0.51234456474E-01  0.51100000000E-03 0. -1.
         11    1    4    4    0    0  0.45722208677E-01  0.78760897517E-02  0.65584202729E-01  0.80337425430E-01  0.51100000000E-03 0.  1.
</event>
<event>
 8    1  0.1191842E+005  0.1043930E+01  0.7957747E-01            NaN
         13   -1    0    0    0    0  0.00000000000E+00  0.00000000000E+00  0.74505805969E-08  0.10566000000E+00  0.10566000000E+00 0.  1.
     999900   -1    0    0    0    0 -0.00000000000E+00 -0.00000000000E+00 -0.74505805969E-08  0.93827000000E+00  0.93827000000E+00 0.  1.
     999902    2    1    2    0    0 -0.51880408995E-02  0.20130126248E-01  0.11612546382E-01  0.10201184695E+01  0.10198405281E+01 0.  0.
     999903    2    3    3    0    0  0.23421398389E-01  0.10435209163E+00 -0.73894375879E-01  0.13151097841E+00  0.19920786315E-01 0.  0.
         14    1    1    2    0    0  0.51880408995E-02 -0.20130126248E-01 -0.11612546382E-01  0.23811530497E-01  0.00000000000E+00 0. -1.
     999901    1    3    3    0    0 -0.28609439288E-01 -0.84221965377E-01  0.85506922261E-01  0.88860749109E+00  0.88000000000E+00 0. -1.
        -11    1    4    4    0    0  0.18494391888E-01  0.60301951508E-01 -0.53530928519E-01  0.82729615713E-01  0.51100000000E-03 0. -1.
         11    1    4    4    0    0  0.49270065013E-02  0.44050140117E-01 -0.20363447360E-01  0.48781362699E-01  0.51100000000E-03 0.  1.
</event>
<event>
 8    1  0.1191842E+005  0.1043930E+01  0.7957747E-01            NaN
         13   -1    0    0    0    0  0.00000000000E+00  0.00000000000E+00  0.74505805969E-08  0.10566000000E+00  0.10566000000E+00 0.  1.
     999900   -1    0    0    0    0 -0.00000000000E+00 -0.00000000000E+00 -0.74505805969E-08  0.93827000000E+00  0.93827000000E+00 0.  1.
     999902    2    1    2    0    0  0.23551063726E-01  0.35030850160E-02  0.41196029929E-02  0.10197660737E+01  0.10194797446E+01 0.  0.
     999903    2    3    3    0    0  0.29569568695E-01  0.13753203577E-01 -0.12426614797E+00  0.13037066757E+00  0.22156837058E-01 0.  0.
         14    1    1    2    0    0 -0.23551063726E-01 -0.35030850160E-02 -0.41196029929E-02  0.24163926338E-01  0.00000000000E+00 0. -1.
     999901    1    3    3    0    0 -0.60185049692E-02 -0.10250118561E-01  0.12838575097E+00  0.88939540610E+00  0.88000000000E+00 0. -1.
        -11    1    4    4    0    0  0.26948778733E-01  0.47117994048E-02 -0.67635410536E-01  0.72960589418E-01  0.51100000000E-03 0. -1.
         11    1    4    4    0    0  0.26207899616E-02  0.90414041720E-02 -0.56630737437E-01  0.57410078149E-01  0.51100000000E-03 0.  1.
</event>
<event>
 8    1  0.1191842E+005  0.1043930E+01  0.7957747E-01            NaN
         13   -1    0    0    0    0  0.00000000000E+00  0.00000000000E+00  0.74505805969E-08  0.10566000000E+00  0.10566000000E+00 0.  1.
     999900   -1    0    0    0    0 -0.00000000000E+00 -0.00000000000E+00 -0.74505805969E-08  0.93827000000E+00  0.93827000000E+00 0.  1.
     999902    2    1    2    0    0  0.84389069725E-02  0.21692525146E-01 -0.81479076180E-03  0.10206395581E+01  0.10203737859E+01 0.  0.
     999903    2    3    3    0    0 -0.61565038212E-01  0.10543838450E+00  0.47625806447E-01  0.13257401283E+00  0.20003614267E-01 0.  0.
         14    1    1    2    0    0 -0.84389069725E-02 -0.21692525146E-01  0.81479076180E-03  0.23290441861E-01  0.00000000000E+00 0. -1.
     999901    1    3    3    0    0  0.70003945184E-01 -0.83745859352E-01 -0.48440597209E-01  0.88806554531E+00  0.88000000000E+00 0.  1.
        -11    1    4    4    0    0 -0.36965527550E-01  0.52654812490E-01  0.33984123055E-01  0.72760987117E-01  0.51100000000E-03 0. -1.
         11    1    4    4    0    0 -0.24599510662E-01  0.52783572007E-01  0.13641683392E-01  0.59813025717E-01  0.51100000000E-03 0.  1.
</event>
<event>
 8    1  0.1191842E+005  0.1043930E+01  0.7957747E-01            NaN
         13   -1    0    0    0    0  0.00000000000E+00  0.00000000000E+00  0.74505805969E-08  0.10566000000E+00  0.10566000000E+00 0. -1.
     999900   -1    0    0    0    0 -0.00000000000E+00 -0.00000000000E+00 -0.74505805969E-08  0.93827000000E+00  0.93827000000E+00 0. -1.
     999902    2    1    2    0    0  0.22787103504E-01  0.47934141832E-02  0.47908066861E-02  0.10201564699E+01  0.10198794254E+01 0.  0.
     999903    2    3    3    0    0  0.10513429819E+00  0.51539457115E-01  0.59747217491E-01  0.13337213303E+00  0.22557916017E-01 0.  0.
         14    1    1    2    0    0 -0.22787103504E-01 -0.47934141832E-02 -0.47908066861E-02  0.23773530119E-01  0.00000000000E+00 0.  1.
     999901    1    3    3    0    0 -0.82347194683E-01 -0.46746042931E-01 -0.54956410805E-01  0.88678433685E+00  0.88000000000E+00 0. -1.
        -11    1    4    4    0    0  0.42349722585E-01  0.32162571856E-01  0.31832607288E-01  0.61979884149E-01  0.51100000000E-03 0.  1.
         11    1    4    4    0    0  0.62784575603E-01  0.19376885258E-01  0.27914610203E-01  0.71392248877E-01  0.51100000000E-03 0. -1.
</event>
<event>
 7    1  0.1191842E+005  0.1043930E+01  0.7957747E-01            NaN
         13   -1    0    0    0    0  0.00000000000E+00  0.00000000000E+00  0.74505805969E-08  0.10566000000E+00  0.10566000000E+00 0.  1.
     999900   -1    0    0    0    0 -0.00000000000E+00 -0.00000000000E+00 -0.74505805969E-08  0.93827000000E+00  0.93827000000E+00 0.  1.
     999902    2    1    2    0    0 -0.12343733392E-01 -0.19623316263E-01  0.58719961357E-02  0.10200150960E+01  0.10197347074E+01 0.  0.
         14    1    1    2    0    0  0.12343733392E-01  0.19623316263E-01 -0.58719961357E-02  0.23914904011E-01  0.00000000000E+00 0. -1.
     999901    1    3    3    0    0  0.14802109536E-01  0.10322299347E+00  0.16835945981E-01  0.88631683833E+00  0.88000000000E+00 0.  1.
        -11    1    3    3    0    0 -0.37837731273E-01 -0.99927668798E-01 -0.15588891539E-01  0.10798383008E+00  0.51100000000E-03 0. -1.
         11    1    3    3    0    0  0.10691888345E-01 -0.22918640940E-01  0.46249416939E-02  0.25714427576E-01  0.51100000000E-03 0.  1.
</event>
<event>
 8    1  0.1191842E+005  0.1043930E+01  0.7957747E-01            NaN
         13   -1    0    0    0    0  0.00000000000E+00  0.00000000000E+00  0.74505805969E-08  0.10566000000E+00  0.10566000000E+00 0.  1.
     999900   -1    0    0    0    0 -0.00000000000E+00 -0.00000000000E+00 -0.74505805969E-08  0.93827000000E+00  0.93827000000E+00 0.  1.
     999902    2    1    2    0    0 -0.22648180756E-01  0.82922998512E-02  0.38434130817E-02  0.10195071797E+01  0.10192146071E+01 0.  0.
     999903    2    3    3    0    0 -0.19663384432E-01 -0.35277852823E-01 -0.12149004343E+00  0.12955451659E+00  0.19833469922E-01 0.  0.
         14    1    1    2    0    0  0.22648180756E-01 -0.82922998512E-02 -0.38434130817E-02  0.24422820322E-01  0.00000000000E+00 0.  1.
     999901    1    3    3    0    0 -0.29847963235E-02  0.43570152674E-01  0.12533345651E+00  0.88995266309E+00  0.88000000000E+00 0. -1.
        -11    1    4    4    0    0 -0.48191209551E-02 -0.26618801499E-01 -0.62381245639E-01  0.67996069360E-01  0.51100000000E-03 0. -1.
         11    1    4    4    0    0 -0.14844263477E-01 -0.86590513243E-02 -0.59108797792E-01  0.61558447231E-01  0.51100000000E-03 0.  1.
</event>
<event>
 8    1  0.1191842E+005  0.1043930E+01  0.7957747E-01            NaN
         13   -1    0    0    0    0  0.00000000000E+00  0.00000000000E+00  0.74505805969E-08  0.10566000000E+00  0.10566000000E+00 0.  1.
     999900   -1    0    0    0    0 -0.00000000000E+00 -0.00000000000E+00 -0.74505805969E-08  0.93827000000E+00  0.93827000000E+00 0. -1.
     999902    2    1    2    0    0  0.12250769728E-01 -0.13570483637E-01  0.15795011605E-01  0.10197696652E+01  0.10194834223E+01 0.  0.
     999903    2    3    3    0    0  0.79879529694E-01  0.15108681920E-01 -0.98537086038E-01  0.12933832465E+00  0.20244341577E-01 0.  0.
         14    1    1    2    0    0 -0.12250769728E-01  0.13570483637E-01 -0.15795011605E-01  0.24160334780E-01  0.00000000000E+00 0. -1.
     999901    1    3    3    0    0 -0.67628759966E-01 -0.28679165557E-01  0.11433209764E+00  0.89043134057E+00  0.88000000000E+00 0.  1.
        -11    1    4    4    0    0  0.46152490659E-01  0.92154970458E-02 -0.41183281796E-01  0.62540399746E-01  0.51100000000E-03 0. -1.
         11    1    4    4    0    0  0.33727039035E-01  0.58931848742E-02 -0.57353804242E-01  0.66797924908E-01  0.51100000000E-03 0.  1.
</event>
<event>
 8    1  0.1191842E+005  0.1043930E+01  0.7957747E-01            NaN
         13   -1    0    0    0    0  0.00000000000E+00  0.00000000000E+00  0.74505805969E-08  0.10566000000E+00  0.10566000000E+00 0. -1.
     999900   -1    0    0    0    0 -0.00000000000E+00 -0.00000000000E+00 -0.74505805969E-08  0.93827000000E+00  0.93827000000E+00 0.  1.
     999902    2    1    2    0    0 -0.21512795503E-01  0.63485397868E-02 -0.75938397761E-02  0.10202494018E+01  0.10199745444E+01 0.  0.
     999903    2    3    3    0    0  0.88889195480E-01  0.52906297834E-01  0.73726932122E-01  0.12841461196E+00  0.18822503086E-01 0.  0.
         14    1    1    2    0    0  0.21512795503E-01 -0.63485397868E-02  0.75938397761E-02  0.23680598184E-01  0.00000000000E+00 0.  1.
     999901    1    3    3    0    0 -0.11040199098E+00 -0.46557758047E-01 -0.81320771898E-01  0.89183478985E+00  0.88000000000E+00 0. -1.
        -11    1    4    4    0    0  0.35495571868E-01  0.29248092825E-01  0.40108081018E-01  0.61027091034E-01  0.51100000000E-03 0.  1.
         11    1    4    4    0    0  0.53393623612E-01  0.23658205009E-01  0.33618851104E-01  0.67387520931E-01  0.51100000000E-03 0. -1.
</event>
<event>
 8    1  0.1191842E+005  0.1043930E+01  0.7957747E-01            NaN
         13   -1    0    0    0    0  0.00000000000E+00  0.00000000000E+00  0.74505805969E-08  0.10566000000E+00  0.10566000000E+00 0.  1.
     999900   -1    0    0    0    0 -0.00000000000E+00 -0.00000000000E+00 -0.74505805969E-08  0.93827000000E+00  0.93827000000E+00 0.  1.
     999902    2    1    2    0    0  0.37789247922E-02 -0.97201481072E-02  0.21650473979E-01  0.10198986751E+01  0.10196155172E+01 0.  0.
     999903    2    3    3    0    0 -0.85529529992E-02  0.10323783190E+00 -0.71948771530E-01  0.12766978116E+00  0.19792532853E-01 0.  0.
         14    1    1    2    0    0 -0.37789247922E-02  0.97201481072E-02 -0.21650473979E-01  0.24031324877E-01  0.00000000000E+00 0. -1.
     999901    1    3    3    0    0  0.12331877791E-01 -0.11295798001E+00  0.93599245509E-01  0.89222889396E+00  0.88000000000E+00 0. -1.
        -11    1    4    4    0    0 -0.91369154793E-02  0.79658967932E-01 -0.45361252326E-01  0.92124582658E-01  0.51100000000E-03 0. -1.
         11    1    4    4    0    0  0.58396248006E-03  0.23578863970E-01 -0.26587519204E-01  0.35545198505E-01  0.51100000000E-03 0.  1.
</event>
<event>
 8    1  0.1191842E+005  0.1043930E+01  0.7957747E-01            NaN
         13   -1    0    0    0    0  0.00000000000E+00  0.00000000000E+00  0.74505805969E-08  0.10566000000E+00  0.10566000000E+00 0. -1.
     999900   -1    0    0    0    0 -0.00000000000E+00 -0.00000000000E+00 -0.74505805969E-08  0.93827000000E+00  0.93827000000E+00 0.  1.
     999902    2    1    2    0    0  0.53545968497E-02 -0.17890181016E-02 -0.24790989754E-01  0.10185043148E+01  0.10181869052E+01 0.  0.
     999903    2    3    3    0    0 -0.82185280208E-01 -0.93443858090E-01 -0.29554422703E-01  0.12941122069E+00  0.19688200540E-01 0.  0.
         14    1    1    2    0    0 -0.53545968497E-02  0.17890181016E-02  0.24790989754E-01  0.25425685166E-01  0.00000000000E+00 0. -1.
     999901    1    3    3    0    0  0.87539877057E-01  0.91654839989E-01  0.47634329491E-02  0.88909309415E+00  0.88000000000E+00 0. -1.
        -11    1    4    4    0    0 -0.22533937847E-01 -0.20435846484E-01 -0.15315343957E-01  0.34062047178E-01  0.51100000000E-03 0. -1.
         11    1    4    4    0    0 -0.59651342361E-01 -0.73008011607E-01 -0.14239078745E-01  0.95349173508E-01  0.51100000000E-03 0.  1.
</event>
<event>
 8    1  0.1191842E+005  0.1043930E+01  0.7957747E-01            NaN
         13   -1    0    0    0    0  0.00000000000E+00  0.00000000000E+00  0.74505805969E-08  0.10566000000E+00  0.10566000000E+00 0. -1.
     999900   -1    0    0    0    0 -0.00000000000E+00 -0.00000000000E+00 -0.74505805969E-08  0.93827000000E+00  0.93827000000E+00 0.  1.
     999902    2    1    2    0    0 -0.20792650801E-01 -0.10888258073E-01 -0.46991660208E-02  0.10199931946E+01  0.10197122861E+01 0.  0.
     999903    2    3    3    0    0 -0.67489961088E-01 -0.34430752085E-01  0.10577716066E+00  0.13154516204E+00  0.19363636080E-01 0.  0.
         14    1    1    2    0    0  0.20792650801E-01  0.10888258073E-01  0.46991660208E-02  0.23936805394E-01  0.00000000000E+00 0. -1.
     999901    1    3    3    0    0  0.46697310287E-01  0.23542494012E-01 -0.11047632668E+00  0.88844803257E+00  0.88000000000E+00 0.  1.
        -11    1    4    4    0    0 -0.51750905977E-01 -0.27311896691E-01  0.66180069869E-01  0.88341149750E-01  0.51100000000E-03 0.  1.
         11    1    4    4    0    0 -0.15739055111E-01 -0.71188553938E-02  0.39597090791E-01  0.43204012290E-01  0.51100000000E-03 0. -1.
</event>
<event>
 8    1  0.1191842E+005  0.1043930E+01  0.7957747E-01            NaN
         13   -1    0    0    0    0  0.00000000000E+00  0.00000000000E+00  0.74505805969E-08  0.10566000000E+00  0.10566000000E+00 0. -1.
     999900   -1    0    0    0    0 -0.00000000000E+00 -0.00000000000E+00 -0.74505805969E-08  0.93827000000E+00  0.93827000000E+00 0.  1.
     999902    2    1    2    0    0 -0.11542632524E-01  0.13806666888E-01  0.16480439680E-01  0.10195279241E+01  0.10192358543E+01 0.  0.
     999903    2    3    3    0    0  0.34305203256E-01  0.69382611700E-01 -0.10121146181E+00  0.12877425817E+00  0.18661612737E-01 0.  0.
         14    1    1    2    0    0  0.11542632524E-01 -0.13806666888E-01 -0.16480439680E-01  0.24402075899E-01  0.00000000000E+00 0.  1.
     999901    1    3    3    0    0 -0.45847835780E-01 -0.55575944813E-01  0.11769190149E+00  0.89075366593E+00  0.88000000000E+00 0. -1.
        -11    1    4    4    0    0  0.13852075322E-01  0.35272034707E-01 -0.63579508052E-01  0.74017642412E-01  0.51100000000E-03 0. -1.
         11    1    4    4    0    0  0.20453127934E-01  0.34110576994E-01 -0.37631953756E-01  0.54756615761E-01  0.51100000000E-03 0.  1.
</event>
<event>
 8    1  0.1191842E+005  0.1043930E+01  0.7957747E-01            NaN
         13   -1    0    0    0    0  0.00000000000E+00  0.00000000000E+00  0.74505805969E-08  0.10566000000E+00  0.10566000000E+00 0. -1.
     999900   -1    0    0    0    0 -0.00000000000E+00 -0.00000000000E+00 -0.74505805969E-08  0.93827000000E+00  0.93827000000E+00 0.  1.
     999902    2    1    2    0    0 -0.11134194808E-01  0.16105277406E-01  0.12685753087E-01  0.10206002211E+01  0.10203335399E+01 0.  0.
     999903    2    3    3    0    0  0.62835014860E-01 -0.93858098672E-01  0.60106062050E-01  0.12941445267E+00  0.19436565724E-01 0.  0.
         14    1    1    2    0    0  0.11134194808E-01 -0.16105277406E-01 -0.12685753087E-01  0.23329778948E-01  0.00000000000E+00 0.  1.
     999901    1    3    3    0    0 -0.73969209668E-01  0.10996337608E+00 -0.47420308963E-01  0.89118576838E+00  0.88000000000E+00 0.  1.
        -11    1    4    4    0    0  0.36525168410E-01 -0.64481775396E-01  0.30688052544E-01  0.80212249536E-01  0.51100000000E-03 0. -1.
         11    1    4    4    0    0  0.26309846450E-01 -0.29376323275E-01  0.29418009506E-01  0.49202203139E-01  0.51100000000E-03 0.  1.
</event>
<event>
 8    1  0.1191842E+005  0.1043930E+01  0.7957747E-01            NaN
         13   -1    0    0    0    0  0.00000000000E+00  0.00000000000E+00  0.74505805969E-08  0.10566000000E+00  0.10566000000E+00 0. -1.
     999900   -1    0    0    0    0 -0.00000000000E+00 -0.00000000000E+00 -0.74505805969E-08  0.93827000000E+00  0.93827000000E+00 0.  1.
     999902    2    1    2    0    0 -0.91121064951E-02 -0.15499940798E-01  0.16069933070E-01  0.10198152452E+01  0.10195300942E+01 0.  0.
     999903    2    3    3    0    0 -0.84112064021E-01 -0.34608807446E-01 -0.90685482782E-01  0.12999118326E+00  0.20031027734E-01 0.  0.
         14    1    1    2    0    0  0.91121064951E-02  0.15499940798E-01 -0.16069933070E-01  0.24114754786E-01  0.00000000000E+00 0.  1.
     999901    1    3    3    0    0  0.74999957526E-01  0.19108866648E-01  0.10675541585E+00  0.88982406195E+00  0.88000000000E+00 0. -1.
        -11    1    4    4    0    0 -0.22131875458E-01 -0.73958314486E-04 -0.23242740912E-01  0.32098465808E-01  0.51100000000E-03 0.  1.
         11    1    4    4    0    0 -0.61980188563E-01 -0.34534849131E-01 -0.67442741870E-01  0.97892717455E-01  0.51100000000E-03 0. -1.
</event>
<event>
 8    1  0.1191842E+005  0.1043930E+01  0.7957747E-01            NaN
         13   -1    0    0    0    0  0.00000000000E+00  0.00000000000E+00  0.74505805969E-08  0.10566000000E+00  0.10566000000E+00 0.  1.
     999900   -1    0    0    0    0 -0.00000000000E+00 -0.00000000000E+00 -0.74505805969E-08  0.93827000000E+00  0.93827000000E+00 0. -1.
     999902    2    1    2    0    0  0.11501856806E-01  0.16836981415E-01  0.10968703088E-01  0.10207764020E+01  0.10205137793E+01 0.  0.
     999903    2    3    3    0    0 -0.11848263765E+00  0.48391495379E-01 -0.13850552026E-01  0.13032278076E+00  0.20305593864E-01 0.  0.
         14    1    1    2    0    0 -0.11501856806E-01 -0.16836981415E-01 -0.10968703088E-01  0.23153598005E-01  0.00000000000E+00 0.  1.
     999901    1    3    3    0    0  0.12998449446E+00 -0.31554513964E-01  0.24819255114E-01  0.89045362124E+00  0.88000000000E+00 0.  1.
        -11    1    4    4    0    0 -0.45924668604E-01  0.93397290526E-02 -0.65793892435E-03  0.46872163698E-01  0.51100000000E-03 0. -1.
         11    1    4    4    0    0 -0.72557969051E-01  0.39051766327E-01 -0.13192613102E-01  0.83450617059E-01  0.51100000000E-03 0.  1.
</event>
<event>
 8    1  0.1191842E+005  0.1043930E+01  0.7957747E-01            NaN
         13   -1    0    0    0    0  0.00000000000E+00  0.00000000000E+00  0.74505805969E-08  0.10566000000E+00  0.10566000000E+00 0.  1.
     999900   -1    0    0    0    0 -0.00000000000E+00 -0.00000000000E+00 -0.74505805969E-08  0.93827000000E+00  0.93827000000E+00 0. -1.
     999902    2    1    2    0    0  0.20961343777E-01 -0.10081081016E-01  0.43286980655E-02  0.10202710957E+01  0.10199967475E+01 0.  0.
     999903    2    3    3    0    0 -0.66531321966E-01 -0.82365536597E-02  0.10925592226E+00  0.12972739027E+00  0.19951982816E-01 0.  0.
         14    1    1    2    0    0 -0.20961343777E-01  0.10081081016E-01 -0.43286980655E-02  0.23658904334E-01  0.00000000000E+00 0. -1.
     999901    1    3    3    0    0  0.87492665742E-01 -0.18445273558E-02 -0.10492722420E+00  0.89054370539E+00  0.88000000000E+00 0. -1.
        -11    1    4    4    0    0 -0.37737246107E-01 -0.29031834133E-02  0.79095327094E-01  0.87686145467E-01  0.51100000000E-03 0. -1.
         11    1    4    4    0    0 -0.28794075859E-01 -0.53333702464E-02  0.30160595169E-01  0.42041244804E-01  0.51100000000E-03 0.  1.
</event>
<event>
 8    1  0.1191842E+005  0.1043930E+01  0.7957747E-01            NaN
         13   -1    0    0    0    0  0.00000000000E+00  0.00000000000E+00  0.74505805969E-08  0.10566000000E+00  0.10566000000E+00 0. -1.
     999900   -1    0    0    0    0 -0.00000000000E+00 -0.00000000000E+00 -0.74505805969E-08  0.93827000000E+00  0.93827000000E+00 0.  1.
     999902    2    1    2    0    0  0.23158258058E-01  0.17088495326E-02 -0.19936358501E-02  0.10206233557E+01  0.10203572093E+01 0.  0.
     999903    2    3    3    0    0  0.24249428171E-02  0.12824584250E+00 -0.18427136955E-01  0.13117884318E+00  0.20382665613E-01 0.  0.
         14    1    1    2    0    0 -0.23158258058E-01 -0.17088495326E-02  0.19936358501E-02  0.23306644266E-01  0.00000000000E+00 0.  1.
     999901    1    3    3    0    0  0.20733315241E-01 -0.12653699296E+00  0.16433501105E-01  0.88944451255E+00  0.88000000000E+00 0. -1.
        -11    1    4    4    0    0 -0.44270740622E-02  0.86136316221E-01 -0.19781770733E-01  0.88490923439E-01  0.51100000000E-03 0. -1.
         11    1    4    4    0    0  0.68520168793E-02  0.42109526274E-01  0.13546337773E-02  0.42687919744E-01  0.51100000000E-03 0.  1.
</event>
<event>
 8    1  0.1191842E+005  0.1043930E+01  0.7957747E-01            NaN
         13   -1    0    0    0    0  0.00000000000E+00  0.00000000000E+00  0.74505805969E-08  0.10566000000E+00  0.10566000000E+00 0. -1.
     999900   -1    0    0    0    0 -0.00000000000E+00 -0.00000000000E+00 -0.74505805969E-08  0.93827000000E+00  0.93827000000E+00 0.  1.
     999902    2    1    2    0    0  0.14404956898E-01 -0.15245769122E-01 -0.10587224558E-01  0.10204347753E+01  0.10201642540E+01 0.  0.
     999903    2    3    3    0    0  0.90106090659E-01  0.90218467774E-01  0.18718475531E-01  0.13042792648E+00  0.20064475497E-01 0.  0.
         14    1    1    2    0    0 -0.14404956898E-01  0.15245769122E-01  0.10587224558E-01  0.23495224689E-01  0.00000000000E+00 0. -1.
     999901    1    3    3    0    0 -0.75701133761E-01 -0.10546423690E+00 -0.29305700088E-01  0.89000684884E+00  0.88000000000E+00 0.  1.
        -11    1    4    4    0    0 -0.25802614370E-03  0.29768462370E-02  0.21872155989E-02  0.37380775922E-02  0.51100000000E-03 0.  1.
         11    1    4    4    0    0  0.90364116803E-01  0.87241621537E-01  0.16531259932E-01  0.12668984888E+00  0.51100000000E-03 0. -1.
</event>
<event>
 8    1  0.1191842E+005  0.1043930E+01  0.7957747E-01            NaN
         13   -1    0    0    0    0  0.00000000000E+00  0.00000000000E+00  0.74505805969E-08  0.10566000000E+00  0.10566000000E+00 0. -1.
     999900   -1    0    0    0    0 -0.00000000000E+00 -0.00000000000E+00 -0.74505805969E-08  0.93827000000E+00  0.93827000000E+00 0. -1.
     999902    2    1    2    0    0 -0.71597588996E-02 -0.13217424466E-01 -0.17598020774E-01  0.10207858260E+01  0.10205234195E+01 0.  0.
     999903    2    3    3    0    0 -0.89770684833E-01 -0.89692868239E-01  0.31606341038E-01  0.13225100514E+00  0.19692158288E-01 0.  0.
         14    1    1    2    0    0  0.71597588996E-02  0.13217424466E-01  0.17598020774E-01  0.23144174044E-01  0.00000000000E+00 0. -1.
     999901    1    3    3    0    0  0.82610925934E-01  0.76475443773E-01 -0.49204361812E-01  0.88853482082E+00  0.88000000000E+00 0.  1.
        -11    1    4    4    0    0 -0.56244376449E-01 -0.42948412204E-01  0.14553154162E-01  0.72249923253E-01  0.51100000000E-03 0. -1.
         11    1    4    4    0    0 -0.33526308385E-01 -0.46744456034E-01  0.17053186876E-01  0.60001081886E-01  0.51100000000E-03 0.  1.
</event>
<event>
 8    1  0.1191842E+005  0.1043930E+01  0.7957747E-01            NaN
         13   -1    0    0    0    0  0.00000000000E+00  0.00000000000E+00  0.74505805969E-08  0.10566000000E+00  0.10566000000E+00 0. -1.
     999900   -1    0    0    0    0 -0.00000000000E+00 -0.00000000000E+00 -0.74505805969E-08  0.93827000000E+00  0.93827000000E+00 0. -1.
     999902    2    1    2    0    0  0.12635542705E-01 -0.79108028970E-02  0.17861814782E-01  0.10206645284E+01  0.10203993323E+01 0.  0.
     999903    2    3    3    0    0 -0.15587137342E-01  0.12289911675E+00 -0.30669320056E-01  0.12922578916E+00  0.20286587772E-01 0.  0.
         14    1    1    2    0    0 -0.12635542705E-01  0.79108028970E-02 -0.17861814782E-01  0.23265471610E-01  0.00000000000E+00 0. -1.
     999901    1    3    3    0    0  0.28222680047E-01 -0.13080991965E+00  0.48531134837E-01  0.89143873923E+00  0.88000000000E+00 0. -1.
        -11    1    4    4    0    0  0.30649232948E-02  0.26840341642E-01 -0.12651369720E-02  0.27049203072E-01  0.51100000000E-03 0. -1.
         11    1    4    4    0    0 -0.18652060636E-01  0.96058775108E-01 -0.29404183084E-01  0.10217658609E+00  0.51100000000E-03 0.  1.
</event>
<event>
 8    1  0.1191842E+005  0.1043930E+01  0.7957747E-01            NaN
         13   -1    0    0    0    0  0.00000000000E+00  0.00000000000E+00  0.74505805969E-08  0.10566000000E+00  0.10566000000E+00 0.  1.
     999900   -1    0    0    0    0 -0.00000000000E+00 -0.00000000000E+00 -0.74505805969E-08  0.93827000000E+00  0.93827000000E+00 0.  1.
     999902    2    1    2    0    0 -0.15706526122E-01  0.16992560234E-01 -0.10165779535E-03  0.10207901556E+01  0.10205278484E+01 0.  0.
     999903    2    3    3    0    0 -0.12727168997E+00 -0.32540476480E-01 -0.42340244697E-02  0.13235479834E+00  0.15585249533E-01 0.  0.
         14    1    1    2    0    0  0.15706526122E-01 -0.16992560234E-01  0.10165779535E-03  0.23139844434E-01  0.00000000000E+00 0. -1.
     999901    1    3    3    0    0  0.11156516385E+00  0.49533036714E-01  0.41323666743E-02  0.88843535722E+00  0.88000000000E+00 0. -1.
        -11    1    4    4    0    0 -0.21393201791E-01 -0.25893838554E-02 -0.57527767050E-02  0.22309853259E-01  0.51100000000E-03 0. -1.
         11    1    4    4    0    0 -0.10587848818E+00 -0.29951092625E-01  0.15187522353E-02  0.11004494508E+00  0.51100000000E-03 0.  1.
</event>
<event>
 8    1  0.1191842E+005  0.1043930E+01  0.7957747E-01            NaN
         13   -1    0    0    0    0  0.00000000000E+00  0.00000000000E+00  0.74505805969E-08  0.10566000000E+00  0.10566000000E+00 0.  1.
     999900   -1    0    0    0    0 -0.00000000000E+00 -0.00000000000E+00 -0.74505805969E-08  0.93827000000E+00  0.93827000000E+00 0.  1.
     999902    2    1    2    0    0 -0.10665659510E-01 -0.20438190935E-01  0.58161647859E-02  0.10201538835E+01  0.10198767780E+01 0.  0.
     999903    2    3    3    0    0 -0.10997113096E+00  0.57610752223E-01 -0.35656128752E-01  0.13016895932E+00  0.16122966156E-01 0.  0.
         14    1    1    2    0    0  0.10665659510E-01  0.20438190935E-01 -0.58161647859E-02  0.23776116468E-01  0.00000000000E+00 0.  1.
     999901    1    3    3    0    0  0.99305471449E-01 -0.78048943157E-01  0.41472293538E-01  0.88998492421E+00  0.88000000000E+00 0.  1.
        -11    1    4    4    0    0 -0.68403437074E-01  0.41284904065E-01 -0.16561823626E-01  0.81596743991E-01  0.51100000000E-03 0. -1.
         11    1    4    4    0    0 -0.41567693885E-01  0.16325848158E-01 -0.19094305127E-01  0.48572215333E-01  0.51100000000E-03 0.  1.
</event>
<event>
 8    1  0.1191842E+005  0.1043930E+01  0.7957747E-01            NaN
         13   -1    0    0    0    0  0.00000000000E+00  0.00000000000E+00  0.74505805969E-08  0.10566000000E+00  0.10566000000E+00 0.  1.
     999900   -1    0    0    0    0 -0.00000000000E+00 -0.00000000000E+00 -0.74505805969E-08  0.93827000000E+00  0.93827000000E+00 0. -1.
     999902    2    1    2    0    0 -0.17755387361E-01 -0.19402329017E-01  0.18658558738E-01  0.10116833573E+01  0.10111693080E+01 0.  0.
     999903    2    3    3    0    0  0.49621897618E-01  0.10436040972E+00  0.27737230719E-01  0.12042619109E+00  0.19485525181E-01 0.  0.
         14    1    1    2    0    0  0.17755387361E-01  0.19402329017E-01 -0.18658558738E-01  0.32246642706E-01  0.00000000000E+00 0. -1.
     999901    1    3    3    0    0 -0.67377284979E-01 -0.12376273874E+00 -0.90786719809E-02  0.89125716621E+00  0.88000000000E+00 0.  1.
        -11    1    4    4    0    0  0.24132147910E-01  0.39113831915E-01  0.19372103755E-01  0.49877769945E-01  0.51100000000E-03 0. -1.
         11    1    4    4    0    0  0.25489749708E-01  0.65246577805E-01  0.83651269645E-02  0.70548421142E-01  0.51100000000E-03 0.  1.
</event>
<event>
 8    1  0.1191842E+005  0.1043930E+01  0.7957747E-01            NaN
         13   -1    0    0    0    0  0.00000000000E+00  0.00000000000E+00  0.74505805969E-08  0.10566000000E+00  0.10566000000E+00 0.  1.
     999900   -1    0    0    0    0 -0.00000000000E+00 -0.00000000000E+00 -0.74505805969E-08  0.93827000000E+00  0.93827000000E+00 0.  1.
     999902    2    1    2    0    0 -0.23516937287E-01 -0.55006887318E-02 -0.12893184365E-02  0.10197439243E+01  0.10194570638E+01 0.  0.
     999903    2    3    3    0    0  0.11046131867E+00  0.59204543512E-01 -0.72021203271E-02  0.12723515606E+00  0.20737249256E-01 0.  0.
         14    1    1    2    0    0  0.23516937287E-01  0.55006887318E-02  0.12893184365E-02  0.24186075704E-01  0.00000000000E+00 0. -1.
     999901    1    3    3    0    0 -0.13397825596E+00 -0.64705232244E-01  0.59128018906E-02  0.89250876823E+00  0.88000000000E+00 0.  1.
        -11    1    4    4    0    0  0.60095235914E-01  0.41882414118E-01 -0.98180858287E-02  0.73906900370E-01  0.51100000000E-03 0.  1.
         11    1    4    4    0    0  0.50366082754E-01  0.17322129394E-01  0.26159655015E-02  0.53328255692E-01  0.51100000000E-03 0. -1.
</event>
<event>
 8    1  0.1191842E+005  0.1043930E+01  0.7957747E-01            NaN
         13   -1    0    0    0    0  0.00000000000E+00  0.00000000000E+00  0.74505805969E-08  0.10566000000E+00  0.10566000000E+00 0.  1.
     999900   -1    0    0    0    0 -0.00000000000E+00 -0.00000000000E+00 -0.74505805969E-08  0.93827000000E+00  0.93827000000E+00 0.  1.
     999902    2    1    2    0    0  0.21640748414E-01 -0.78438313807E-02 -0.44272880972E-03  0.10209073222E+01  0.10206476948E+01 0.  0.
     999903    2    3    3    0    0  0.53080716506E-01  0.10187307562E+00  0.58677512587E-01  0.13156966183E+00  0.25919865542E-01 0.  0.
         14    1    1    2    0    0 -0.21640748414E-01  0.78438313807E-02  0.44272880972E-03  0.23022677765E-01  0.00000000000E+00 0. -1.
     999901    1    3    3    0    0 -0.31439968092E-01 -0.10971690700E+00 -0.59120241397E-01  0.88933766041E+00  0.88000000000E+00 0.  1.
        -11    1    4    4    0    0  0.14589949255E-02  0.21477896456E-01  0.16514648265E-01  0.27137122741E-01  0.51100000000E-03 0.  1.
         11    1    4    4    0    0  0.51621721580E-01  0.80395179162E-01  0.42162864322E-01  0.10443253909E+00  0.51100000000E-03 0. -1.
</event>
<event>
 8    1  0.1191842E+005  0.1043930E+01  0.7957747E-01            NaN
         13   -1    0    0    0    0  0.00000000000E+00  0.00000000000E+00  0.74505805969E-08  0.10566000000E+00  0.10566000000E+00 0. -1.
     999900   -1    0    0    0    0 -0.00000000000E+00 -0.00000000000E+00 -0.74505805969E-08  0.93827000000E+00  0.93827000000E+00 0.  1.
     999902    2    1    2    0    0 -0.78357377488E-03  0.16341539547E-01 -0.17734287196E-01  0.10198019076E+01  0.10195164372E+01 0.  0.
     999903    2    3    3    0    0  0.12764348186E+00  0.12482803059E-01 -0.10750597520E-01  0.13044417841E+00  0.21246870416E-01 0.  0.
         14    1    1    2    0    0  0.78357377488E-03 -0.16341539547E-01  0.17734287196E-01  0.24128092444E-01  0.00000000000E+00 0. -1.
     999901    1    3    3    0    0 -0.12842705563E+00  0.38587364886E-02 -0.69836896752E-02  0.88935772914E+00  0.88000000000E+00 0.  1.
        -11    1    4    4    0    0  0.84560676382E-01  0.17091508460E-01 -0.23402778667E-02  0.86303914587E-01  0.51100000000E-03 0. -1.
         11    1    4    4    0    0  0.43082805473E-01 -0.46087054012E-02 -0.84103196538E-02  0.44140263826E-01  0.51100000000E-03 0.  1.
</event>
<event>
 8    1  0.1191842E+005  0.1043930E+01  0.7957747E-01            NaN
         13   -1    0    0    0    0  0.00000000000E+00  0.00000000000E+00  0.74505805969E-08  0.10566000000E+00  0.10566000000E+00 0. -1.
     999900   -1    0    0    0    0 -0.00000000000E+00 -0.00000000000E+00 -0.74505805969E-08  0.93827000000E+00  0.93827000000E+00 0.  1.
     999902    2    1    2    0    0  0.14516819576E-01 -0.17148922034E-01  0.89625990731E-02  0.10197400897E+01  0.10194531371E+01 0.  0.
     999903    2    3    3    0    0 -0.51457879452E-01 -0.60650187382E-01 -0.10009831906E+00  0.12949332344E+00  0.20554531114E-01 0.  0.
         14    1    1    2    0    0 -0.14516819576E-01  0.17148922034E-01 -0.89625990731E-02  0.24189910287E-01  0.00000000000E+00 0.  1.
     999901    1    3    3    0    0  0.65974699028E-01  0.43501265348E-01  0.10906091813E+00  0.89024676627E+00  0.88000000000E+00 0. -1.
        -11    1    4    4    0    0 -0.20426617940E-01 -0.37872936258E-01 -0.44856624594E-01  0.62160951668E-01  0.51100000000E-03 0. -1.
         11    1    4    4    0    0 -0.31031261512E-01 -0.22777251124E-01 -0.55241694466E-01  0.67332371771E-01  0.51100000000E-03 0.  1.
</event>
<event>
 8    1  0.1191842E+005  0.1043930E+01  0.7957747E-01            NaN
         13   -1    0    0    0    0  0.00000000000E+00  0.00000000000E+00  0.74505805969E-08  0.10566000000E+00  0.10566000000E+00 0.  1.
     999900   -1    0    0    0    0 -0.00000000000E+00 -0.00000000000E+00 -0.74505805969E-08  0.93827000000E+00  0.93827000000E+00 0.  1.
     999902    2    1    2    0    0 -0.42619057426E-02 -0.22209353380E-01  0.70588543923E-02  0.10202393554E+01  0.10199642619E+01 0.  0.
     999903    2    3    3    0    0 -0.15660615489E-01 -0.84677874127E-01  0.99321115908E-01  0.13314039156E+00  0.21120666574E-01 0.  0.
         14    1    1    2    0    0  0.42619057426E-02  0.22209353380E-01 -0.70588543923E-02  0.23690644640E-01  0.00000000000E+00 0.  1.
     999901    1    3    3    0    0  0.11398709746E-01  0.62468520747E-01 -0.92262261515E-01  0.88709896380E+00  0.88000000000E+00 0. -1.
        -11    1    4    4    0    0 -0.67143122281E-02 -0.20655367254E-01  0.13077692843E-01  0.25357708023E-01  0.51100000000E-03 0.  1.
         11    1    4    4    0    0 -0.89463032609E-02 -0.64022506873E-01  0.86243423065E-01  0.10778268354E+00  0.51100000000E-03 0. -1.
</event>
<event>
 8    1  0.1191842E+005  0.1043930E+01  0.7957747E-01            NaN
         13   -1    0    0    0    0  0.00000000000E+00  0.00000000000E+00  0.74505805969E-08  0.10566000000E+00  0.10566000000E+00 0.  1.
     999900   -1    0    0    0    0 -0.00000000000E+00 -0.00000000000E+00 -0.74505805969E-08  0.93827000000E+00  0.93827000000E+00 0. -1.
     999902    2    1    2    0    0  0.80220844269E-02 -0.62857726738E-02  0.21419041747E-01  0.10202099636E+01  0.10199341791E+01 0.  0.
     999903    2    3    3    0    0 -0.10978231633E-01 -0.12076692340E+00  0.48655641830E-01  0.13217349012E+00  0.19932100974E-01 0.  0.
         14    1    1    2    0    0 -0.80220844269E-02  0.62857726738E-02 -0.21419041747E-01  0.23720036383E-01  0.00000000000E+00 0. -1.
     999901    1    3    3    0    0  0.19000316059E-01  0.11448115073E+00 -0.27236600083E-01  0.88803647350E+00  0.88000000000E+00 0. -1.
        -11    1    4    4    0    0 -0.15397445608E-01 -0.80982835302E-01  0.37846112932E-01  0.90707719241E-01  0.51100000000E-03 0. -1.
         11    1    4    4    0    0  0.44192139750E-02 -0.39784088102E-01  0.10809528899E-01  0.41465770876E-01  0.51100000000E-03 0.  1.
</event>
<event>
 8    1  0.1191842E+005  0.1043930E+01  0.7957747E-01            NaN
         13   -1    0    0    0    0  0.00000000000E+00  0.00000000000E+00  0.74505805969E-08  0.10566000000E+00  0.10566000000E+00 0.  1.
     999900   -1    0    0    0    0 -0.00000000000E+00 -0.00000000000E+00 -0.74505805969E-08  0.93827000000E+00  0.93827000000E+00 0.  1.
     999902    2    1    2    0    0 -0.91233715774E-02 -0.27040206436E-01 -0.70334996321E-02  0.10145381850E+01  0.10141123458E+01 0.  0.
     999903    2    3    3    0    0  0.11987205746E+00 -0.32394383780E-01 -0.68085593346E-02  0.12511784649E+00  0.13762731197E-01 0.  0.
         14    1    1    2    0    0  0.91233715774E-02  0.27040206436E-01  0.70334996321E-02  0.29391815020E-01  0.00000000000E+00 0.  1.
     999901    1    3    3    0    0 -0.12899542903E+00  0.53541773431E-02 -0.22494029751E-03  0.88942033849E+00  0.88000000000E+00 0.  1.
        -11    1    4    4    0    0  0.63643393249E-01 -0.11333758033E-01 -0.74038439752E-02  0.65069298460E-01  0.51100000000E-03 0. -1.
         11    1    4    4    0    0  0.56228664208E-01 -0.21060625747E-01  0.59528464062E-03  0.60048548028E-01  0.51100000000E-03 0.  1.
</event>
<event>
 8    1  0.1191842E+005  0.1043930E+01  0.7957747E-01            NaN
         13   -1    0    0    0    0  0.00000000000E+00  0.00000000000E+00  0.74505805969E-08  0.10566000000E+00  0.10566000000E+00 0. -1.
     999900   -1    0    0    0    0 -0.00000000000E+00 -0.00000000000E+00 -0.74505805969E-08  0.93827000000E+00  0.93827000000E+00 0.  1.
     999902    2    1    2    0    0 -0.10492339013E-01  0.15665384253E-01  0.13707536552E-01  0.10206192729E+01  0.10203530321E+01 0.  0.
     999903    2    3    3    0    0 -0.83332298648E-01  0.73161639512E-01 -0.68641696965E-01  0.13191635548E+00  0.19832921793E-01 0.  0.
         14    1    1    2    0    0  0.10492339013E-01 -0.15665384253E-01 -0.13707536552E-01  0.23310727147E-01  0.00000000000E+00 0.  1.
     999901    1    3    3    0    0  0.72839959634E-01 -0.57496255259E-01  0.82349233517E-01  0.88870291737E+00  0.88000000000E+00 0. -1.
        -11    1    4    4    0    0 -0.28049649969E-01  0.12931766913E-01 -0.19287104875E-01  0.36417948794E-01  0.51100000000E-03 0. -1.
         11    1    4    4    0    0 -0.55282648679E-01  0.60229872599E-01 -0.49354592090E-01  0.95498406686E-01  0.51100000000E-03 0.  1.
</event>
<event>
 8    1  0.1191842E+005  0.1043930E+01  0.7957747E-01            NaN
         13   -1    0    0    0    0  0.00000000000E+00  0.00000000000E+00  0.74505805969E-08  0.10566000000E+00  0.10566000000E+00 0. -1.
     999900   -1    0    0    0    0 -0.00000000000E+00 -0.00000000000E+00 -0.74505805969E-08  0.93827000000E+00  0.93827000000E+00 0.  1.
     999902    2    1    2    0    0  0.41122024437E-03 -0.15956567120E-01 -0.15948096234E-01  0.10213662479E+01  0.10211169812E+01 0.  0.
     999903    2    3    3    0    0  0.35549840691E-01  0.11576592064E+00 -0.43881334290E-01  0.13043089544E+00  0.20520902311E-01 0.  0.
         14    1    1    2    0    0 -0.41122024437E-03  0.15956567120E-01  0.15948096234E-01  0.22563752123E-01  0.00000000000E+00 0. -1.
     999901    1    3    3    0    0 -0.35138620447E-01 -0.13172248776E+00  0.27933238055E-01  0.89093535243E+00  0.88000000000E+00 0. -1.
        -11    1    4    4    0    0  0.76109263434E-02  0.12949993524E-01 -0.11955909976E-01  0.19205036746E-01  0.51100000000E-03 0. -1.
         11    1    4    4    0    0  0.27938914348E-01  0.10281592712E+00 -0.31925424313E-01  0.11122585870E+00  0.51100000000E-03 0.  1.
</event>
<event>
 7    1  0.1191842E+005  0.1043930E+01  0.7957747E-01            NaN
         13   -1    0    0    0    0  0.00000000000E+00  0.00000000000E+00  0.74505805969E-08  0.10566000000E+00  0.10566000000E+00 0. -1.
     999900   -1    0    0    0    0 -0.00000000000E+00 -0.00000000000E+00 -0.74505805969E-08  0.93827000000E+00  0.93827000000E+00 0. -1.
     999902    2    1    2    0    0 -0.17132812078E-01 -0.11895675360E-01 -0.47273119278E-02  0.10225433729E+01  0.10223196964E+01 0.  0.
         14    1    1    2    0    0  0.17132812078E-01  0.11895675360E-01  0.47273119278E-02  0.21386627131E-01  0.00000000000E+00 0.  1.
     999901    1    3    3    0    0  0.85523226370E-01 -0.92309725117E-01  0.22795410939E-01  0.88924402633E+00  0.88000000000E+00 0. -1.
        -11    1    3    3    0    0 -0.41980954423E-01  0.31830482740E-01 -0.11925645839E-01  0.54019092138E-01  0.51100000000E-03 0.  1.
         11    1    3    3    0    0 -0.60675084024E-01  0.48583567017E-01 -0.15597077028E-01  0.79280254403E-01  0.51100000000E-03 0. -1.
</event>
<event>
 8    1  0.1191842E+005  0.1043930E+01  0.7957747E-01            NaN
         13   -1    0    0    0    0  0.00000000000E+00  0.00000000000E+00  0.74505805969E-08  0.10566000000E+00  0.10566000000E+00 0.  1.
     999900   -1    0    0    0    0 -0.00000000000E+00 -0.00000000000E+00 -0.74505805969E-08  0.93827000000E+00  0.93827000000E+00 0. -1.
     999902    2    1    2    0    0 -0.21767028090E-02 -0.23513572140E-01  0.16897004792E-01  0.10148932150E+01  0.10144777489E+01 0.  0.
     999903    2    3    3    0    0 -0.49269764796E-01 -0.73946072105E-01  0.91311468191E-01  0.12906100412E+00  0.20577348189E-01 0.  0.
         14    1    1    2    0    0  0.21767028090E-02  0.23513572140E-01 -0.16897004792E-01  0.29036784960E-01  0.00000000000E+00 0. -1.
     999901    1    3    3    0    0  0.47093061987E-01  0.50432499965E-01 -0.74414463400E-01  0.88583221092E+00  0.88000000000E+00 0. -1.
        -11    1    4    4    0    0 -0.25435088723E-01 -0.25731972862E-01  0.26570408664E-01  0.44892381350E-01  0.51100000000E-03 0.  1.
         11    1    4    4    0    0 -0.23834676073E-01 -0.48214099243E-01  0.64741059527E-01  0.84168622770E-01  0.51100000000E-03 0. -1.
</event>
<event>
 8    1  0.1191842E+005  0.1043930E+01  0.7957747E-01            NaN
         13   -1    0    0    0    0  0.00000000000E+00  0.00000000000E+00  0.74505805969E-08  0.10566000000E+00  0.10566000000E+00 0.  1.
     999900   -1    0    0    0    0 -0.00000000000E+00 -0.00000000000E+00 -0.74505805969E-08  0.93827000000E+00  0.93827000000E+00 0. -1.
     999902    2    1    2    0    0  0.82909293484E-02 -0.18193804444E-01 -0.10866389193E-01  0.10211740679E+01  0.10209204889E+01 0.  0.
     999903    2    3    3    0    0 -0.80439699756E-01 -0.63292261791E-01  0.79187466966E-01  0.13099616864E+00  0.20319586003E-01 0.  0.
         14    1    1    2    0    0 -0.82909293484E-02  0.18193804444E-01  0.10866389193E-01  0.22755932055E-01  0.00000000000E+00 0.  1.
     999901    1    3    3    0    0  0.88730629104E-01  0.45098457347E-01 -0.90053856159E-01  0.89017789930E+00  0.88000000000E+00 0.  1.
        -11    1    4    4    0    0 -0.19009434417E-01 -0.22555492251E-01  0.14263452069E-01  0.32769132021E-01  0.51100000000E-03 0.  1.
         11    1    4    4    0    0 -0.61430265339E-01 -0.40736769540E-01  0.64924014896E-01  0.98227036622E-01  0.51100000000E-03 0. -1.
</event>
<event>
 8    1  0.1191842E+005  0.1043930E+01  0.7957747E-01            NaN
         13   -1    0    0    0    0  0.00000000000E+00  0.00000000000E+00  0.74505805969E-08  0.10566000000E+00  0.10566000000E+00 0. -1.
     999900   -1    0    0    0    0 -0.00000000000E+00 -0.00000000000E+00 -0.74505805969E-08  0.93827000000E+00  0.93827000000E+00 0.  1.
     999902    2    1    2    0    0  0.44021020998E-02 -0.83631209662E-02  0.22392915873E-01  0.10196243838E+01  0.10193346463E+01 0.  0.
     999903    2    3    3    0    0 -0.25763336827E-01  0.12410341800E+00  0.13718492577E-01  0.12915676329E+00  0.20684887706E-01 0.  0.
         14    1    1    2    0    0 -0.44021020998E-02  0.83631209662E-02 -0.22392915873E-01  0.24305616151E-01  0.00000000000E+00 0. -1.
     999901    1    3    3    0    0  0.30165438927E-01 -0.13246653897E+00  0.86744232954E-02  0.89046762056E+00  0.88000000000E+00 0. -1.
        -11    1    4    4    0    0 -0.12276295661E-01  0.43388220979E-01 -0.44972737999E-02  0.45318117210E-01  0.51100000000E-03 0.  1.
         11    1    4    4    0    0 -0.13487041166E-01  0.80715197024E-01  0.18215766377E-01  0.83838646075E-01  0.51100000000E-03 0. -1.
</event>
<event>
 8    1  0.1191842E+005  0.1043930E+01  0.7957747E-01            NaN
         13   -1    0    0    0    0  0.00000000000E+00  0.00000000000E+00  0.74505805969E-08  0.10566000000E+00  0.10566000000E+00 0.  1.
     999900   -1    0    0    0    0 -0.00000000000E+00 -0.00000000000E+00 -0.74505805969E-08  0.93827000000E+00  0.93827000000E+00 0. -1.
     999902    2    1    2    0    0 -0.12412491339E-01  0.13274771808E-01 -0.13458760976E-01  0.10213152315E+01  0.10210648238E+01 0.  0.
     999903    2    3    3    0    0  0.16366103835E-01  0.67291343563E-01 -0.11238892175E+00  0.13365923152E+00  0.20917604209E-01 0.  0.
         14    1    1    2    0    0  0.12412491339E-01 -0.13274771808E-01  0.13458760976E-01  0.22614768511E-01  0.00000000000E+00 0. -1.
     999901    1    3    3    0    0 -0.28778595174E-01 -0.54016571755E-01  0.98930160775E-01  0.88765599997E+00  0.88000000000E+00 0.  1.
        -11    1    4    4    0    0  0.21258355997E-01  0.56326456356E-01 -0.90710955913E-01  0.10887298117E+00  0.51100000000E-03 0.  1.
         11    1    4    4    0    0 -0.48922521622E-02  0.10964887207E-01 -0.21677965838E-01  0.24786250353E-01  0.51100000000E-03 0. -1.
</event>
<event>
 8    1  0.1191842E+005  0.1043930E+01  0.7957747E-01            NaN
         13   -1    0    0    0    0  0.00000000000E+00  0.00000000000E+00  0.74505805969E-08  0.10566000000E+00  0.10566000000E+00 0.  1.
     999900   -1    0    0    0    0 -0.00000000000E+00 -0.00000000000E+00 -0.74505805969E-08  0.93827000000E+00  0.93827000000E+00 0.  1.
     999902    2    1    2    0    0 -0.15963437877E-01  0.42832319586E-02  0.16920412527E-01  0.10202767172E+01  0.10200025010E+01 0.  0.
     999903    2    3    3    0    0 -0.50844720600E-01 -0.11665376988E+00  0.25080091160E-01  0.13128344244E+00  0.20323475235E-01 0.  0.
         14    1    1    2    0    0  0.15963437877E-01 -0.42832319586E-02 -0.16920412527E-01  0.23653282752E-01  0.00000000000E+00 0. -1.
     999901    1    3    3    0    0  0.34881282723E-01  0.12093700184E+00 -0.81596786326E-02  0.88899327481E+00  0.88000000000E+00 0.  1.
        -11    1    4    4    0    0 -0.25029278741E-01 -0.64829560123E-01  0.23501670777E-01  0.73361613330E-01  0.51100000000E-03 0.  1.
         11    1    4    4    0    0 -0.25815441859E-01 -0.51824209759E-01  0.15784203829E-02  0.57921829110E-01  0.51100000000E-03 0. -1.
</event>
<event>
 7    1  0.1191842E+005  0.1043930E+01  0.7957747E-01            NaN
         13   -1    0    0    0    0  0.00000000000E+00  0.00000000000E+00  0.74505805969E-08  0.10566000000E+00  0.10566000000E+00 0.  1.
     999900   -1    0    0    0    0 -0.00000000000E+00 -0.00000000000E+00 -0.74505805969E-08  0.93827000000E+00  0.93827000000E+00 0.  1.
     999902    2    1    2    0    0 -0.21218260089E-01 -0.11808408027E-01 -0.91852110747E-02  0.10179680824E+01  0.10176369665E+01 0.  0.
         14    1    1    2    0    0  0.21218260089E-01  0.11808408027E-01  0.91852110747E-02  0.25961917568E-01  0.00000000000E+00 0.  1.
     999901    1    3    3    0    0  0.50402350460E-01 -0.11198729406E+00 -0.45035190770E-01  0.88966831986E+00  0.88000000000E+00 0. -1.
        -11    1    3    3    0    0 -0.45311316116E-01  0.60938054259E-01  0.22511029163E-01  0.79205867080E-01  0.51100000000E-03 0. -1.
         11    1    3    3    0    0 -0.26309294433E-01  0.39240831773E-01  0.13338950533E-01  0.49093895487E-01  0.51100000000E-03 0.  1.
</event>
<event>
 8    1  0.1191842E+005  0.1043930E+01  0.7957747E-01            NaN
         13   -1    0    0    0    0  0.00000000000E+00  0.00000000000E+00  0.74505805969E-08  0.10566000000E+00  0.10566000000E+00 0. -1.
     999900   -1    0    0    0    0 -0.00000000000E+00 -0.00000000000E+00 -0.74505805969E-08  0.93827000000E+00  0.93827000000E+00 0. -1.
     999902    2    1    2    0    0 -0.18205823156E-01  0.13098874659E-01 -0.90829120101E-02  0.10197322355E+01  0.10194450944E+01 0.  0.
     999903    2    3    3    0    0  0.41152477269E-01  0.10304864464E+00 -0.67243882871E-01  0.13125203459E+00  0.19819365649E-01 0.  0.
         14    1    1    2    0    0  0.18205823156E-01 -0.13098874659E-01  0.90829120101E-02  0.24197764457E-01  0.00000000000E+00 0.  1.
     999901    1    3    3    0    0 -0.59358300425E-01 -0.89949769977E-01  0.58160970861E-01  0.88848020095E+00  0.88000000000E+00 0. -1.
        -11    1    4    4    0    0  0.26638671076E-01  0.54063086243E-01 -0.46431521643E-01  0.76082740578E-01  0.51100000000E-03 0.  1.
         11    1    4    4    0    0  0.14513806193E-01  0.48985558393E-01 -0.20812361228E-01  0.55169294015E-01  0.51100000000E-03 0. -1.
</event>
<event>
 8    1  0.1191842E+005  0.1043930E+01  0.7957747E-01            NaN
         13   -1    0    0    0    0  0.00000000000E+00  0.00000000000E+00  0.74505805969E-08  0.10566000000E+00  0.10566000000E+00 0.  1.
     999900   -1    0    0    0    0 -0.00000000000E+00 -0.00000000000E+00 -0.74505805969E-08  0.93827000000E+00  0.93827000000E+00 0. -1.
     999902    2    1    2    0    0 -0.21398158276E-01 -0.15327924818E-01 -0.10697354843E-02  0.10175866746E+01  0.10172456290E+01 0.  0.
     999903    2    3    3    0    0 -0.17516247923E-01  0.94429306563E-01 -0.81032727491E-01  0.12716216961E+00  0.19498758338E-01 0.  0.
         14    1    1    2    0    0  0.21398158276E-01  0.15327924818E-01  0.10697354843E-02  0.26343325357E-01  0.00000000000E+00 0.  1.
     999901    1    3    3    0    0 -0.38819103527E-02 -0.10975723138E+00  0.79962992007E-01  0.89042450503E+00  0.88000000000E+00 0. -1.
        -11    1    4    4    0    0 -0.95856040931E-02  0.30853357991E-01 -0.16722280438E-01  0.36382815851E-01  0.51100000000E-03 0.  1.
         11    1    4    4    0    0 -0.79306438303E-02  0.63575948571E-01 -0.64310447053E-01  0.90779353762E-01  0.51100000000E-03 0. -1.
</event>
<event>
 8    1  0.1191842E+005  0.1043930E+01  0.7957747E-01            NaN
         13   -1    0    0    0    0  0.00000000000E+00  0.00000000000E+00  0.74505805969E-08  0.10566000000E+00  0.10566000000E+00 0.  1.
     999900   -1    0    0    0    0 -0.00000000000E+00 -0.00000000000E+00 -0.74505805969E-08  0.93827000000E+00  0.93827000000E+00 0.  1.
     999902    2    1    2    0    0  0.78741442266E-02  0.14816702719E-01  0.16805098449E-01  0.10201824073E+01  0.10199059741E+01 0.  0.
     999903    2    3    3    0    0 -0.47501449539E-01 -0.44422975841E-01 -0.10811466096E+00  0.12766868626E+00  0.19512176835E-01 0.  0.
         14    1    1    2    0    0 -0.78741442266E-02 -0.14816702719E-01 -0.16805098449E-01  0.23747592734E-01  0.00000000000E+00 0.  1.
     999901    1    3    3    0    0  0.55375593765E-01  0.59239678560E-01  0.12491975941E+00  0.89251372101E+00  0.88000000000E+00 0. -1.
        -11    1    4    4    0    0 -0.17264418347E-01 -0.22426401689E-01 -0.63025436827E-01  0.69090306424E-01  0.51100000000E-03 0.  1.
         11    1    4    4    0    0 -0.30237031192E-01 -0.21996574152E-01 -0.45089224134E-01  0.58578379832E-01  0.51100000000E-03 0. -1.
</event>
<event>
 8    1  0.1191842E+005  0.1043930E+01  0.7957747E-01            NaN
         13   -1    0    0    0    0  0.00000000000E+00  0.00000000000E+00  0.74505805969E-08  0.10566000000E+00  0.10566000000E+00 0. -1.
     999900   -1    0    0    0    0 -0.00000000000E+00 -0.00000000000E+00 -0.74505805969E-08  0.93827000000E+00  0.93827000000E+00 0.  1.
     999902    2    1    2    0    0 -0.40892756952E-03  0.11534180000E-01  0.20362814122E-01  0.10205238314E+01  0.10202553806E+01 0.  0.
     999903    2    3    3    0    0  0.74355410116E-01  0.79410835096E-01 -0.68797256820E-01  0.13027304383E+00  0.20079732549E-01 0.  0.
         14    1    1    2    0    0  0.40892756952E-03 -0.11534180000E-01 -0.20362814122E-01  0.23406168610E-01  0.00000000000E+00 0.  1.
     999901    1    3    3    0    0 -0.74764337685E-01 -0.67876655096E-01  0.89160070943E-01  0.89025078756E+00  0.88000000000E+00 0.  1.
        -11    1    4    4    0    0  0.69060591664E-01  0.72801258886E-01 -0.55991416606E-01  0.11491165507E+00  0.51100000000E-03 0. -1.
         11    1    4    4    0    0  0.52948184513E-02  0.66095762101E-02 -0.12805840215E-01  0.15361388763E-01  0.51100000000E-03 0.  1.
</event>
<event>
 8    1  0.1191842E+005  0.1043930E+01  0.7957747E-01            NaN
         13   -1    0    0    0    0  0.00000000000E+00  0.00000000000E+00  0.74505805969E-08  0.10566000000E+00  0.10566000000E+00 0.  1.
     999900   -1    0    0    0    0 -0.00000000000E+00 -0.00000000000E+00 -0.74505805969E-08  0.93827000000E+00  0.93827000000E+00 0.  1.
     999902    2    1    2    0    0 -0.74543934684E-02  0.18576520456E-01  0.13475668947E-01  0.10198001689E+01  0.10195146570E+01 0.  0.
     999903    2    3    3    0    0  0.66781654988E-01  0.25528016474E-01 -0.10516421878E+00  0.12871390085E+00  0.19906940841E-01 0.  0.
         14    1    1    2    0    0  0.74543934684E-02 -0.18576520456E-01 -0.13475668947E-01  0.24129831077E-01  0.00000000000E+00 0. -1.
     999901    1    3    3    0    0 -0.74236048456E-01 -0.69514960180E-02  0.11863988772E+00  0.89108626807E+00  0.88000000000E+00 0. -1.
        -11    1    4    4    0    0  0.44118267793E-01  0.20183851068E-01 -0.54594624656E-01  0.73038644288E-01  0.51100000000E-03 0. -1.
         11    1    4    4    0    0  0.22663387195E-01  0.53441654055E-02 -0.50569594120E-01  0.55675256564E-01  0.51100000000E-03 0.  1.
</event>
<event>
 8    1  0.1191842E+005  0.1043930E+01  0.7957747E-01            NaN
         13   -1    0    0    0    0  0.00000000000E+00  0.00000000000E+00  0.74505805969E-08  0.10566000000E+00  0.10566000000E+00 0.  1.
     999900   -1    0    0    0    0 -0.00000000000E+00 -0.00000000000E+00 -0.74505805969E-08  0.93827000000E+00  0.93827000000E+00 0.  1.
     999902    2    1    2    0    0 -0.19822491004E-01  0.11723950307E-01  0.46161349523E-02  0.10204418996E+01  0.10201715442E+01 0.  0.
     999903    2    3    3    0    0  0.27503713289E-01 -0.11248353161E+00  0.53570055877E-01  0.12911493679E+00  0.19796890874E-01 0.  0.
         14    1    1    2    0    0  0.19822491004E-01 -0.11723950307E-01 -0.46161349523E-02  0.23488100441E-01  0.00000000000E+00 0. -1.
     999901    1    3    3    0    0 -0.47326204293E-01  0.12420748192E+00 -0.48953920925E-01  0.89132696276E+00  0.88000000000E+00 0.  1.
        -11    1    4    4    0    0 -0.15043564015E-02 -0.70789539119E-02  0.76345224622E-02  0.10531938610E-01  0.51100000000E-03 0.  1.
         11    1    4    4    0    0  0.29008069690E-01 -0.10540457770E+00  0.45935533415E-01  0.11858299818E+00  0.51100000000E-03 0. -1.
</event>
<event>
 8    1  0.1191842E+005  0.1043930E+01  0.7957747E-01            NaN
         13   -1    0    0    0    0  0.00000000000E+00  0.00000000000E+00  0.74505805969E-08  0.10566000000E+00  0.10566000000E+00 0.  1.
     999900   -1    0    0    0    0 -0.00000000000E+00 -0.00000000000E+00 -0.74505805969E-08  0.93827000000E+00  0.93827000000E+00 0. -1.
     999902    2    1    2    0    0  0.92770389441E-02 -0.45977382733E-03 -0.18606701760E-01  0.10231337457E+01  0.10229223711E+01 0.  0.
     999903    2    3    3    0    0 -0.11889205803E+00 -0.53789907325E-01 -0.59957584396E-02  0.13216210951E+00  0.20054886649E-01 0.  0.
         14    1    1    2    0    0 -0.92770389441E-02  0.45977382733E-03  0.18606701760E-01  0.20796254324E-01  0.00000000000E+00 0.  1.
     999901    1    3    3    0    0  0.12816909697E+00  0.53330133498E-01 -0.12610943320E-01  0.89097163616E+00  0.88000000000E+00 0. -1.
        -11    1    4    4    0    0 -0.23779724525E-01 -0.92576681665E-02  0.66648503899E-02  0.26379178722E-01  0.51100000000E-03 0. -1.
         11    1    4    4    0    0 -0.95112333506E-01 -0.44532239159E-01 -0.12660608830E-01  0.10578293079E+00  0.51100000000E-03 0.  1.
</event>
<event>
 8    1  0.1191842E+005  0.1043930E+01  0.7957747E-01            NaN
         13   -1    0    0    0    0  0.00000000000E+00  0.00000000000E+00  0.74505805969E-08  0.10566000000E+00  0.10566000000E+00 0. -1.
     999900   -1    0    0    0    0 -0.00000000000E+00 -0.00000000000E+00 -0.74505805969E-08  0.93827000000E+00  0.93827000000E+00 0. -1.
     999902    2    1    2    0    0  0.25215350820E-02 -0.22446661565E-01 -0.15291237978E-02  0.10212904555E+01  0.10210394927E+01 0.  0.
     999903    2    3    3    0    0  0.10597132900E+00 -0.77780376535E-01 -0.11067672721E-01  0.13345338500E+00  0.20189181396E-01 0.  0.
         14    1    1    2    0    0 -0.25215350820E-02  0.22446661565E-01  0.15291237978E-02  0.22639544479E-01  0.00000000000E+00 0. -1.
     999901    1    3    3    0    0 -0.10344979392E+00  0.55333714970E-01  0.95385489236E-02  0.88783707052E+00  0.88000000000E+00 0. -1.
        -11    1    4    4    0    0  0.25774103370E-01 -0.29817593594E-01 -0.59886584216E-02  0.39868765255E-01  0.51100000000E-03 0.  1.
         11    1    4    4    0    0  0.80197225628E-01 -0.47962782941E-01 -0.50790142998E-02  0.93584619747E-01  0.51100000000E-03 0. -1.
</event>
<event>
 8    1  0.1191842E+005  0.1043930E+01  0.7957747E-01            NaN
         13   -1    0    0    0    0  0.00000000000E+00  0.00000000000E+00  0.74505805969E-08  0.10566000000E+00  0.10566000000E+00 0. -1.
     999900   -1    0    0    0    0 -0.00000000000E+00 -0.00000000000E+00 -0.74505805969E-08  0.93827000000E+00  0.93827000000E+00 0.  1.
     999902    2    1    2    0    0  0.22861776477E-01  0.78203183613E-02 -0.26933439992E-03  0.10197661687E+01  0.10194798419E+01 0.  0.
     999903    2    3    3    0    0 -0.28549658018E-02  0.88721800978E-01  0.94035177623E-01  0.13066564472E+00  0.18739991484E-01 0.  0.
         14    1    1    2    0    0 -0.22861776477E-01 -0.78203183613E-02  0.26933439992E-03  0.24163831318E-01  0.00000000000E+00 0.  1.
     999901    1    3    3    0    0  0.25716742278E-01 -0.80901482617E-01 -0.94304512023E-01  0.88910052396E+00  0.88000000000E+00 0. -1.
        -11    1    4    4    0    0  0.29925795710E-02  0.75745141498E-01  0.84531604390E-01  0.11354353903E+00  0.51100000000E-03 0.  1.
         11    1    4    4    0    0 -0.58475453728E-02  0.12976659480E-01  0.95035732334E-02  0.17122105692E-01  0.51100000000E-03 0. -1.
</event>
<event>
 8    1  0.1191842E+005  0.1043930E+01  0.7957747E-01            NaN
         13   -1    0    0    0    0  0.00000000000E+00  0.00000000000E+00  0.74505805969E-08  0.10566000000E+00  0.10566000000E+00 0.  1.
     999900   -1    0    0    0    0 -0.00000000000E+00 -0.00000000000E+00 -0.74505805969E-08  0.93827000000E+00  0.93827000000E+00 0. -1.
     999902    2    1    2    0    0  0.10437427489E-02  0.16340095368E-01 -0.17386845751E-01  0.10200471501E+01  0.10197675215E+01 0.  0.
     999903    2    3    3    0    0 -0.11374064474E+00 -0.22901676673E-01  0.52513372179E-01  0.12897958094E+00  0.20412177308E-01 0.  0.
         14    1    1    2    0    0 -0.10437427489E-02 -0.16340095368E-01  0.17386845751E-01  0.23882849929E-01  0.00000000000E+00 0.  1.
     999901    1    3    3    0    0  0.11478438749E+00  0.39241772041E-01 -0.69900217930E-01  0.89106756913E+00  0.88000000000E+00 0. -1.
        -11    1    4    4    0    0 -0.97465586509E-01 -0.14650455628E-01  0.37904314450E-01  0.10559912205E+00  0.51100000000E-03 0.  1.
         11    1    4    4    0    0 -0.16275058231E-01 -0.82512210451E-02  0.14609057729E-01  0.23380458890E-01  0.51100000000E-03 0. -1.
</event>
<event>
 8    1  0.1191842E+005  0.1043930E+01  0.7957747E-01            NaN
         13   -1    0    0    0    0  0.00000000000E+00  0.00000000000E+00  0.74505805969E-08  0.10566000000E+00  0.10566000000E+00 0.  1.
     999900   -1    0    0    0    0 -0.00000000000E+00 -0.00000000000E+00 -0.74505805969E-08  0.93827000000E+00  0.93827000000E+00 0.  1.
     999902    2    1    2    0    0 -0.35996942119E-02 -0.22920164714E-01 -0.44676032405E-02  0.10203026593E+01  0.10200290512E+01 0.  0.
     999903    2    3    3    0    0 -0.11063073159E+00  0.45475058964E-01 -0.47135240201E-01  0.13015993097E+00  0.20315929777E-01 0.  0.
         14    1    1    2    0    0  0.35996942119E-02  0.22920164714E-01  0.44676032405E-02  0.23627340681E-01  0.00000000000E+00 0. -1.
     999901    1    3    3    0    0  0.10703103738E+00 -0.68395223678E-01  0.42667636961E-01  0.89014272835E+00  0.88000000000E+00 0.  1.
        -11    1    4    4    0    0 -0.90965812622E-01  0.28504626284E-01 -0.36149915087E-01  0.10195278450E+00  0.51100000000E-03 0. -1.
         11    1    4    4    0    0 -0.19664918965E-01  0.16970432680E-01 -0.10985325114E-01  0.28207146473E-01  0.51100000000E-03 0.  1.
</event>
<event>
 8    1  0.1191842E+005  0.1043930E+01  0.7957747E-01            NaN
         13   -1    0    0    0    0  0.00000000000E+00  0.00000000000E+00  0.74505805969E-08  0.10566000000E+00  0.10566000000E+00 0.  1.
     999900   -1    0    0    0    0 -0.00000000000E+00 -0.00000000000E+00 -0.74505805969E-08  0.93827000000E+00  0.93827000000E+00 0.  1.
     999902    2    1    2    0    0  0.22930656211E-01  0.85951448787E-03  0.51672039524E-02  0.10204086532E+01  0.10201375230E+01 0.  0.
     999903    2    3    3    0    0  0.85816387807E-01 -0.96005837316E-01 -0.23789307111E-01  0.13239064033E+00  0.19487875696E-01 0.  0.
         14    1    1    2    0    0 -0.22930656211E-01 -0.85951448787E-03 -0.51672039524E-02  0.23521346817E-01  0.00000000000E+00 0. -1.
     999901    1    3    3    0    0 -0.62885731596E-01  0.96865351804E-01  0.28956511063E-01  0.88801801285E+00  0.88000000000E+00 0.  1.
        -11    1    4    4    0    0  0.33704696418E-01 -0.50792298286E-01 -0.68181374777E-02  0.61340135682E-01  0.51100000000E-03 0.  1.
         11    1    4    4    0    0  0.52111691388E-01 -0.45213539030E-01 -0.16971169633E-01  0.71050504648E-01  0.51100000000E-03 0. -1.
</event>
<event>
 8    1  0.1191842E+005  0.1043930E+01  0.7957747E-01            NaN
         13   -1    0    0    0    0  0.00000000000E+00  0.00000000000E+00  0.74505805969E-08  0.10566000000E+00  0.10566000000E+00 0.  1.
     999900   -1    0    0    0    0 -0.00000000000E+00 -0.00000000000E+00 -0.74505805969E-08  0.93827000000E+00  0.93827000000E+00 0. -1.
     999902    2    1    2    0    0 -0.54071290185E-02  0.21105236719E-01  0.83610342812E-02  0.10205938702E+01  0.10203270421E+01 0.  0.
     999903    2    3    3    0    0 -0.56314564215E-01  0.42554060128E-01 -0.10872324833E+00  0.13112192108E+00  0.19749310956E-01 0.  0.
         14    1    1    2    0    0  0.54071290185E-02 -0.21105236719E-01 -0.83610342812E-02  0.23336129830E-01  0.00000000000E+00 0.  1.
     999901    1    3    3    0    0  0.50907435197E-01 -0.21448823409E-01  0.11708428261E+00  0.88947194909E+00  0.88000000000E+00 0.  1.
        -11    1    4    4    0    0 -0.40775382942E-01  0.21906733885E-01 -0.58134850406E-01  0.74313247785E-01  0.51100000000E-03 0.  1.
         11    1    4    4    0    0 -0.15539181273E-01  0.20647326243E-01 -0.50588397927E-01  0.56808673294E-01  0.51100000000E-03 0. -1.
</event>
<event>
 8    1  0.1191842E+005  0.1043930E+01  0.7957747E-01            NaN
         13   -1    0    0    0    0  0.00000000000E+00  0.00000000000E+00  0.74505805969E-08  0.10566000000E+00  0.10566000000E+00 0.  1.
     999900   -1    0    0    0    0 -0.00000000000E+00 -0.00000000000E+00 -0.74505805969E-08  0.93827000000E+00  0.93827000000E+00 0. -1.
     999902    2    1    2    0    0 -0.11347640795E-01  0.56182453486E-02  0.20232786285E-01  0.10200616261E+01  0.10197823404E+01 0.  0.
     999903    2    3    3    0    0 -0.21220782789E-01 -0.10341322667E+00 -0.70123781422E-01  0.12868648051E+00  0.22321480101E-01 0.  0.
         14    1    1    2    0    0  0.11347640795E-01 -0.56182453486E-02 -0.20232786285E-01  0.23868373913E-01  0.00000000000E+00 0. -1.
     999901    1    3    3    0    0  0.98731419942E-02  0.10903147201E+00  0.90356567707E-01  0.89137514558E+00  0.88000000000E+00 0.  1.
        -11    1    4    4    0    0 -0.76978011542E-02 -0.78824843811E-01 -0.45445772618E-01  0.91313698394E-01  0.51100000000E-03 0.  1.
         11    1    4    4    0    0 -0.13522981635E-01 -0.24588382854E-01 -0.24678008804E-01  0.37372782118E-01  0.51100000000E-03 0. -1.
</event>
<event>
 8    1  0.1191842E+005  0.1043930E+01  0.7957747E-01            NaN
         13   -1    0    0    0    0  0.00000000000E+00  0.00000000000E+00  0.74505805969E-08  0.10566000000E+00  0.10566000000E+00 0.  1.
     999900   -1    0    0    0    0 -0.00000000000E+00 -0.00000000000E+00 -0.74505805969E-08  0.93827000000E+00  0.93827000000E+00 0.  1.
     999902    2    1    2    0    0 -0.52063365667E-02  0.15238071228E-01 -0.16214757843E-01  0.10210777982E+01  0.10208220447E+01 0.  0.
     999903    2    3    3    0    0 -0.95500345921E-01  0.77938100891E-01 -0.47528025135E-01  0.13368565120E+00  0.20451809756E-01 0.  0.
         14    1    1    2    0    0  0.52063365667E-02 -0.15238071228E-01  0.16214757843E-01  0.22852201800E-01  0.00000000000E+00 0.  1.
     999901    1    3    3    0    0  0.90294009355E-01 -0.62700029663E-01  0.31313267292E-01  0.88739214700E+00  0.88000000000E+00 0. -1.
        -11    1    4    4    0    0 -0.46865263618E-01  0.39528099168E-01 -0.12764269928E-01  0.62625963191E-01  0.51100000000E-03 0. -1.
         11    1    4    4    0    0 -0.48635082304E-01  0.38410001723E-01 -0.34763755208E-01  0.71059688011E-01  0.51100000000E-03 0.  1.
</event>
<event>
 8    1  0.1191842E+005  0.1043930E+01  0.7957747E-01            NaN
         13   -1    0    0    0    0  0.00000000000E+00  0.00000000000E+00  0.74505805969E-08  0.10566000000E+00  0.10566000000E+00 0. -1.
     999900   -1    0    0    0    0 -0.00000000000E+00 -0.00000000000E+00 -0.74505805969E-08  0.93827000000E+00  0.93827000000E+00 0.  1.
     999902    2    1    2    0    0  0.21333916860E-01  0.98071354362E-02  0.11611236174E-02  0.10204211905E+01  0.10201503526E+01 0.  0.
     999903    2    3    3    0    0 -0.68714803290E-01 -0.27494937500E-01  0.10408617781E+00  0.12907738290E+00  0.18690708507E-01 0.  0.
         14    1    1    2    0    0 -0.21333916860E-01 -0.98071354362E-02 -0.11611236174E-02  0.23508809457E-01  0.00000000000E+00 0. -1.
     999901    1    3    3    0    0  0.90048720149E-01  0.37302072936E-01 -0.10292505420E+00  0.89134380765E+00  0.88000000000E+00 0.  1.
        -11    1    4    4    0    0 -0.46847459903E-02  0.54288759608E-03  0.15638896760E-01  0.16342514642E-01  0.51100000000E-03 0. -1.
         11    1    4    4    0    0 -0.64030057299E-01 -0.28037825096E-01  0.88447281054E-01  0.11273486826E+00  0.51100000000E-03 0.  1.
</event>
<event>
 8    1  0.1191842E+005  0.1043930E+01  0.7957747E-01            NaN
         13   -1    0    0    0    0  0.00000000000E+00  0.00000000000E+00  0.74505805969E-08  0.10566000000E+00  0.10566000000E+00 0.  1.
     999900   -1    0    0    0    0 -0.00000000000E+00 -0.00000000000E+00 -0.74505805969E-08  0.93827000000E+00  0.93827000000E+00 0. -1.
     999902    2    1    2    0    0 -0.36394029847E-02 -0.94223364521E-02 -0.22508733629E-01  0.10192587867E+01  0.10189601589E+01 0.  0.
     999903    2    3    3    0    0  0.13439365120E-02  0.10577982093E+00 -0.73480772340E-01  0.13027368022E+00  0.19509771219E-01 0.  0.
         14    1    1    2    0    0  0.36394029847E-02  0.94223364521E-02  0.22508733629E-01  0.24671213345E-01  0.00000000000E+00 0.  1.
     999901    1    3    3    0    0 -0.49833394967E-02 -0.11520215738E+00  0.50972038710E-01  0.88898510644E+00  0.88000000000E+00 0. -1.
        -11    1    4    4    0    0 -0.22014217051E-02  0.21717661894E-01 -0.24898748777E-01  0.33116640943E-01  0.51100000000E-03 0.  1.
         11    1    4    4    0    0  0.35453582171E-02  0.84062159034E-01 -0.48582023563E-01  0.97157039275E-01  0.51100000000E-03 0. -1.
</event>
<event>
 8    1  0.1191842E+005  0.1043930E+01  0.7957747E-01            NaN
         13   -1    0    0    0    0  0.00000000000E+00  0.00000000000E+00  0.74505805969E-08  0.10566000000E+00  0.10566000000E+00 0.  1.
     999900   -1    0    0    0    0 -0.00000000000E+00 -0.00000000000E+00 -0.74505805969E-08  0.93827000000E+00  0.93827000000E+00 0. -1.
     999902    2    1    2    0    0  0.10045947547E-01  0.19939658449E-01 -0.36264388693E-02  0.10213100508E+01  0.10210595271E+01 0.  0.
     999903    2    3    3    0    0  0.10133017189E-01  0.13134078272E+00  0.15420268055E-01  0.13408234888E+00  0.19677712550E-01 0.  0.
         14    1    1    2    0    0 -0.10045947547E-01 -0.19939658449E-01  0.36264388693E-02  0.22619949161E-01  0.00000000000E+00 0. -1.
     999901    1    3    3    0    0 -0.87069641999E-04 -0.11140112428E+00 -0.19046706924E-01  0.88722770195E+00  0.88000000000E+00 0.  1.
        -11    1    4    4    0    0  0.10229466289E-01  0.13195025599E+00  0.15593569281E-01  0.13326264503E+00  0.51100000000E-03 0.  1.
         11    1    4    4    0    0 -0.96449099551E-04 -0.60947326643E-03 -0.17330122642E-03  0.81970385285E-03  0.51100000000E-03 0.  1.
</event>
<event>
 8    1  0.1191842E+005  0.1043930E+01  0.7957747E-01            NaN
         13   -1    0    0    0    0  0.00000000000E+00  0.00000000000E+00  0.74505805969E-08  0.10566000000E+00  0.10566000000E+00 0. -1.
     999900   -1    0    0    0    0 -0.00000000000E+00 -0.00000000000E+00 -0.74505805969E-08  0.93827000000E+00  0.93827000000E+00 0.  1.
     999902    2    1    2    0    0  0.92075743975E-02 -0.12617519614E-01 -0.17102694963E-01  0.10207678886E+01  0.10205050706E+01 0.  0.
     999903    2    3    3    0    0 -0.31729676171E-01  0.17403478351E-01 -0.12602819523E+00  0.13260017733E+00  0.19749623452E-01 0.  0.
         14    1    1    2    0    0 -0.92075743975E-02  0.12617519614E-01  0.17102694963E-01  0.23162111357E-01  0.00000000000E+00 0. -1.
     999901    1    3    3    0    0  0.40937250568E-01 -0.30020997966E-01  0.10892550027E+00  0.88816771131E+00  0.88000000000E+00 0. -1.
        -11    1    4    4    0    0 -0.15582293776E-01  0.18972004478E-01 -0.85061926514E-01  0.88535514323E-01  0.51100000000E-03 0.  1.
         11    1    4    4    0    0 -0.16147382395E-01 -0.15685261269E-02 -0.40966268720E-01  0.44064663011E-01  0.51100000000E-03 0. -1.
</event>
<event>
 8    1  0.1191842E+005  0.1043930E+01  0.7957747E-01            NaN
         13   -1    0    0    0    0  0.00000000000E+00  0.00000000000E+00  0.74505805969E-08  0.10566000000E+00  0.10566000000E+00 0.  1.
     999900   -1    0    0    0    0 -0.00000000000E+00 -0.00000000000E+00 -0.74505805969E-08  0.93827000000E+00  0.93827000000E+00 0.  1.
     999902    2    1    2    0    0  0.39605643359E-02  0.10245894461E-01  0.20157230201E-01  0.10209739909E+01  0.10207158820E+01 0.  0.
     999903    2    3    3    0    0 -0.40063315000E-01 -0.63008292045E-01 -0.10242411165E+00  0.12837639785E+00  0.20363860240E-01 0.  0.
         14    1    1    2    0    0 -0.39605643359E-02 -0.10245894461E-01 -0.20157230201E-01  0.22956009073E-01  0.00000000000E+00 0. -1.
     999901    1    3    3    0    0  0.44023879335E-01  0.73254186506E-01  0.12258134185E+00  0.89259759307E+00  0.88000000000E+00 0. -1.
        -11    1    4    4    0    0 -0.96992420010E-02 -0.32995990802E-01 -0.40111777021E-01  0.52839629836E-01  0.51100000000E-03 0. -1.
         11    1    4    4    0    0 -0.30364072999E-01 -0.30012301243E-01 -0.62312334626E-01  0.75536768017E-01  0.51100000000E-03 0.  1.
</event>
<event>
 8    1  0.1191842E+005  0.1043930E+01  0.7957747E-01            NaN
         13   -1    0    0    0    0  0.00000000000E+00  0.00000000000E+00  0.74505805969E-08  0.10566000000E+00  0.10566000000E+00 0. -1.
     999900   -1    0    0    0    0 -0.00000000000E+00 -0.00000000000E+00 -0.74505805969E-08  0.93827000000E+00  0.93827000000E+00 0. -1.
     999902    2    1    2    0    0 -0.70261957221E-02 -0.21427833733E-01 -0.82395394132E-02  0.10199214704E+01  0.10196388558E+01 0.  0.
     999903    2    3    3    0    0  0.13257930286E-02  0.28122203105E-01 -0.12592373592E+00  0.13066642711E+00  0.20598831809E-01 0.  0.
         14    1    1    2    0    0  0.70261957221E-02  0.21427833733E-01  0.82395394132E-02  0.24008529621E-01  0.00000000000E+00 0. -1.
     999901    1    3    3    0    0 -0.83519887507E-02 -0.49550036838E-01  0.11768419651E+00  0.88925504327E+00  0.88000000000E+00 0.  1.
        -11    1    4    4    0    0 -0.45714521400E-02 -0.10476113521E-02 -0.25165087575E-01  0.25603484486E-01  0.51100000000E-03 0. -1.
         11    1    4    4    0    0  0.58972451687E-02  0.29169814457E-01 -0.10075864834E+00  0.10506294263E+00  0.51100000000E-03 0.  1.
</event>
<event>
 8    1  0.1191842E+005  0.1043930E+01  0.7957747E-01            NaN
         13   -1    0    0    0    0  0.00000000000E+00  0.00000000000E+00  0.74505805969E-08  0.10566000000E+00  0.10566000000E+00 0. -1.
     999900   -1    0    0    0    0 -0.00000000000E+00 -0.00000000000E+00 -0.74505805969E-08  0.93827000000E+00  0.93827000000E+00 0.  1.
     999902    2    1    2    0    0 -0.11716159444E-01  0.10428642835E-01  0.15796201220E-01  0.10216691609E+01  0.10214266148E+01 0.  0.
     999903    2    3    3    0    0  0.12399915986E+00 -0.16369747245E-01 -0.27981560258E-01  0.12978727748E+00  0.20445278489E-01 0.  0.
         14    1    1    2    0    0  0.11716159444E-01 -0.10428642835E-01 -0.15796201220E-01  0.22260839079E-01  0.00000000000E+00 0.  1.
     999901    1    3    3    0    0 -0.13571531930E+00  0.26798390079E-01  0.43777761478E-01  0.89188188344E+00  0.88000000000E+00 0.  1.
        -11    1    4    4    0    0  0.20514558800E-01  0.47310843412E-02 -0.31659933900E-02  0.21295889673E-01  0.51100000000E-03 0.  1.
         11    1    4    4    0    0  0.10348460106E+00 -0.21100831586E-01 -0.24815566868E-01  0.10849138781E+00  0.51100000000E-03 0. -1.
</event>
<event>
 8    1  0.1191842E+005  0.1043930E+01  0.7957747E-01            NaN
         13   -1    0    0    0    0  0.00000000000E+00  0.00000000000E+00  0.74505805969E-08  0.10566000000E+00  0.10566000000E+00 0.  1.
     999900   -1    0    0    0    0 -0.00000000000E+00 -0.00000000000E+00 -0.74505805969E-08  0.93827000000E+00  0.93827000000E+00 0.  1.
     999902    2    1    2    0    0  0.14287182992E-02  0.41553105153E-02  0.23103782487E-01  0.10204120790E+01  0.10201410287E+01 0.  0.
     999903    2    3    3    0    0 -0.70845217205E-01  0.10139874966E+00  0.42272879974E-01  0.13190363084E+00  0.17630093980E-01 0.  0.
         14    1    1    2    0    0 -0.14287182992E-02 -0.41553105153E-02 -0.23103782487E-01  0.23517920968E-01  0.00000000000E+00 0. -1.
     999901    1    3    3    0    0  0.72273935505E-01 -0.97243439145E-01 -0.19169097486E-01  0.88850844819E+00  0.88000000000E+00 0.  1.
        -11    1    4    4    0    0 -0.11766572893E-01  0.96467261014E-02  0.95636424078E-02  0.17978763562E-01  0.51100000000E-03 0.  1.
         11    1    4    4    0    0 -0.59078644312E-01  0.91752023559E-01  0.32709237566E-01  0.11392486728E+00  0.51100000000E-03 0. -1.
</event>
<event>
 8    1  0.1191842E+005  0.1043930E+01  0.7957747E-01            NaN
         13   -1    0    0    0    0  0.00000000000E+00  0.00000000000E+00  0.74505805969E-08  0.10566000000E+00  0.10566000000E+00 0.  1.
     999900   -1    0    0    0    0 -0.00000000000E+00 -0.00000000000E+00 -0.74505805969E-08  0.93827000000E+00  0.93827000000E+00 0. -1.
     999902    2    1    2    0    0  0.90975940579E-02 -0.16963281286E-01 -0.14738857629E-01  0.10196863812E+01  0.10193981376E+01 0.  0.
     999903    2    3    3    0    0 -0.81520824333E-01 -0.15753247926E-01 -0.10015989841E+00  0.13091761702E+00  0.14615319898E-01 0.  0.
         14    1    1    2    0    0 -0.90975940579E-02  0.16963281286E-01  0.14738857629E-01  0.24243618827E-01  0.00000000000E+00 0.  1.
     999901    1    3    3    0    0  0.90618418391E-01 -0.12100333599E-02  0.85421040780E-01  0.88876876416E+00  0.88000000000E+00 0. -1.
        -11    1    4    4    0    0 -0.35944119953E-01 -0.43971188262E-02 -0.54307339374E-01  0.65275283562E-01  0.51100000000E-03 0.  1.
         11    1    4    4    0    0 -0.45576704380E-01 -0.11356129100E-01 -0.45852559035E-01  0.65642333454E-01  0.51100000000E-03 0. -1.
</event>
<event>
 8    1  0.1191842E+005  0.1043930E+01  0.7957747E-01            NaN
         13   -1    0    0    0    0  0.00000000000E+00  0.00000000000E+00  0.74505805969E-08  0.10566000000E+00  0.10566000000E+00 0. -1.
     999900   -1    0    0    0    0 -0.00000000000E+00 -0.00000000000E+00 -0.74505805969E-08  0.93827000000E+00  0.93827000000E+00 0.  1.
     999902    2    1    2    0    0 -0.60387244483E-02 -0.11426115252E-01  0.19362251585E-01  0.10206508443E+01  0.10203853326E+01 0.  0.
     999903    2    3    3    0    0  0.12192063205E+00 -0.41673963615E-01  0.17306222022E-02  0.13070736095E+00  0.21910257615E-01 0.  0.
         14    1    1    2    0    0  0.60387244483E-02  0.11426115252E-01 -0.19362251585E-01  0.23279155680E-01  0.00000000000E+00 0.  1.
     999901    1    3    3    0    0 -0.12795935650E+00  0.30247848363E-01  0.17631629383E-01  0.88994348337E+00  0.88000000000E+00 0. -1.
        -11    1    4    4    0    0  0.53267166823E-01 -0.26979700069E-01  0.78723586295E-02  0.60228983293E-01  0.51100000000E-03 0. -1.
         11    1    4    4    0    0  0.68653465229E-01 -0.14694263546E-01 -0.61417364272E-02  0.70478377652E-01  0.51100000000E-03 0.  1.
</event>
<event>
 8    1  0.1191842E+005  0.1043930E+01  0.7957747E-01            NaN
         13   -1    0    0    0    0  0.00000000000E+00  0.00000000000E+00  0.74505805969E-08  0.10566000000E+00  0.10566000000E+00 0. -1.
     999900   -1    0    0    0    0 -0.00000000000E+00 -0.00000000000E+00 -0.74505805969E-08  0.93827000000E+00  0.93827000000E+00 0.  1.
     999902    2    1    2    0    0  0.15721421277E-01 -0.12541218899E-01 -0.10118501255E-01  0.10214171298E+01  0.10211689986E+01 0.  0.
     999903    2    3    3    0    0 -0.87323531644E-01 -0.88157873123E-01  0.35623673784E-01  0.13100796130E+00  0.22289684099E-01 0.  0.
         14    1    1    2    0    0 -0.15721421277E-01  0.12541218899E-01  0.10118501255E-01  0.22512870232E-01  0.00000000000E+00 0.  1.
     999901    1    3    3    0    0  0.10304495292E+00  0.75616654224E-01 -0.45742175039E-01  0.89040916847E+00  0.88000000000E+00 0.  1.
        -11    1    4    4    0    0 -0.68728922028E-01 -0.56526499584E-01  0.29839708991E-01  0.93859358787E-01  0.51100000000E-03 0.  1.
         11    1    4    4    0    0 -0.18594609615E-01 -0.31631373539E-01  0.57839647932E-02  0.37148602510E-01  0.51100000000E-03 0. -1.
</event>
<event>
 8    1  0.1191842E+005  0.1043930E+01  0.7957747E-01            NaN
         13   -1    0    0    0    0  0.00000000000E+00  0.00000000000E+00  0.74505805969E-08  0.10566000000E+00  0.10566000000E+00 0. -1.
     999900   -1    0    0    0    0 -0.00000000000E+00 -0.00000000000E+00 -0.74505805969E-08  0.93827000000E+00  0.93827000000E+00 0. -1.
     999902    2    1    2    0    0 -0.53603672499E-02  0.22140492013E-01 -0.48499258779E-02  0.10206393000E+01  0.10203735218E+01 0.  0.
     999903    2    3    3    0    0 -0.11356391613E+00 -0.12674333907E-01 -0.61733386002E-01  0.13150724678E+00  0.20633546017E-01 0.  0.
         14    1    1    2    0    0  0.53603672499E-02 -0.22140492013E-01  0.48499258779E-02  0.23290699961E-01  0.00000000000E+00 0. -1.
     999901    1    3    3    0    0  0.10820354888E+00  0.34814825920E-01  0.56883460124E-01  0.88913205326E+00  0.88000000000E+00 0.  1.
        -11    1    4    4    0    0 -0.58653740757E-01 -0.16320244248E-01 -0.36266139906E-01  0.70866816648E-01  0.51100000000E-03 0.  1.
         11    1    4    4    0    0 -0.54910175376E-01  0.36459103412E-02 -0.25467246096E-01  0.60640430133E-01  0.51100000000E-03 0. -1.
</event>
<event>
 8    1  0.1191842E+005  0.1043930E+01  0.7957747E-01            NaN
         13   -1    0    0    0    0  0.00000000000E+00  0.00000000000E+00  0.74505805969E-08  0.10566000000E+00  0.10566000000E+00 0.  1.
     999900   -1    0    0    0    0 -0.00000000000E+00 -0.00000000000E+00 -0.74505805969E-08  0.93827000000E+00  0.93827000000E+00 0.  1.
     999902    2    1    2    0    0  0.49117529512E-02  0.22624681269E-01  0.31751509753E-02  0.10205615789E+01  0.10202940034E+01 0.  0.
     999903    2    3    3    0    0 -0.19482028831E-01  0.12934990253E+00  0.18582803658E-01  0.13364403755E+00  0.20111226968E-01 0.  0.
         14    1    1    2    0    0 -0.49117529512E-02 -0.22624681269E-01 -0.31751509753E-02  0.23368421070E-01  0.00000000000E+00 0. -1.
     999901    1    3    3    0    0  0.24393781782E-01 -0.10672522126E+00 -0.15407652683E-01  0.88691754138E+00  0.88000000000E+00 0.  1.
        -11    1    4    4    0    0 -0.21792213157E-01  0.84586034966E-01  0.15477357354E-01  0.88710245052E-01  0.51100000000E-03 0. -1.
         11    1    4    4    0    0  0.23101843255E-02  0.44763867562E-01  0.31054463042E-02  0.44933792500E-01  0.51100000000E-03 0.  1.
</event>
<event>
 8    1  0.1191842E+005  0.1043930E+01  0.7957747E-01            NaN
         13   -1    0    0    0    0  0.00000000000E+00  0.00000000000E+00  0.74505805969E-08  0.10566000000E+00  0.10566000000E+00 0. -1.
     999900   -1    0    0    0    0 -0.00000000000E+00 -0.00000000000E+00 -0.74505805969E-08  0.93827000000E+00  0.93827000000E+00 0. -1.
     999902    2    1    2    0    0  0.16617161960E-01  0.98638170507E-02  0.13655241537E-01  0.10202679929E+01  0.10199935719E+01 0.  0.
     999903    2    3    3    0    0 -0.46510082175E-01 -0.10885475988E+00 -0.44702363489E-01  0.12814425736E+00  0.20250997508E-01 0.  0.
         14    1    1    2    0    0 -0.16617161960E-01 -0.98638170507E-02 -0.13655241537E-01  0.23662007097E-01  0.00000000000E+00 0.  1.
     999901    1    3    3    0    0  0.63127244135E-01  0.11871857693E+00  0.58357605026E-01  0.89212373555E+00  0.88000000000E+00 0.  1.
        -11    1    4    4    0    0 -0.38344629340E-01 -0.64939697965E-01 -0.27424426573E-01  0.80248584193E-01  0.51100000000E-03 0.  1.
         11    1    4    4    0    0 -0.81654528347E-02 -0.43915061913E-01 -0.17277936916E-01  0.47895673165E-01  0.51100000000E-03 0. -1.
</event>
<event>
 8    1  0.1191842E+005  0.1043930E+01  0.7957747E-01            NaN
         13   -1    0    0    0    0  0.00000000000E+00  0.00000000000E+00  0.74505805969E-08  0.10566000000E+00  0.10566000000E+00 0. -1.
     999900   -1    0    0    0    0 -0.00000000000E+00 -0.00000000000E+00 -0.74505805969E-08  0.93827000000E+00  0.93827000000E+00 0. -1.
     999902    2    1    2    0    0 -0.71312290311E-03 -0.32519089114E-02  0.23844010948E-01  0.10198546949E+01  0.10195704872E+01 0.  0.
     999903    2    3    3    0    0 -0.80922295347E-01 -0.70426738738E-01 -0.68432903413E-01  0.12886591946E+00  0.20372027740E-01 0.  0.
         14    1    1    2    0    0  0.71312290311E-03  0.32519089114E-02 -0.23844010948E-01  0.24075305064E-01  0.00000000000E+00 0.  1.
     999901    1    3    3    0    0  0.80209172444E-01  0.67174829827E-01  0.92276914361E-01  0.89098877548E+00  0.88000000000E+00 0.  1.
        -11    1    4    4    0    0 -0.47980913708E-01 -0.33983874930E-01 -0.27460055459E-01  0.64895204771E-01  0.51100000000E-03 0. -1.
         11    1    4    4    0    0 -0.32941381639E-01 -0.36442863809E-01 -0.40972847954E-01  0.63970714685E-01  0.51100000000E-03 0.  1.
</event>
<event>
 8    1  0.1191842E+005  0.1043930E+01  0.7957747E-01            NaN
         13   -1    0    0    0    0  0.00000000000E+00  0.00000000000E+00  0.74505805969E-08  0.10566000000E+00  0.10566000000E+00 0.  1.
     999900   -1    0    0    0    0 -0.00000000000E+00 -0.00000000000E+00 -0.74505805969E-08  0.93827000000E+00  0.93827000000E+00 0. -1.
     999902    2    1    2    0    0 -0.13935332551E-01 -0.18327300034E-01 -0.65356092571E-02  0.10199968095E+01  0.10197159868E+01 0.  0.
     999903    2    3    3    0    0  0.10588484334E+00 -0.43513613277E-01  0.56726141661E-01  0.12927054735E+00  0.19697326580E-01 0.  0.
         14    1    1    2    0    0  0.13935332551E-01  0.18327300034E-01  0.65356092571E-02  0.23933190514E-01  0.00000000000E+00 0.  1.
     999901    1    3    3    0    0 -0.11982017590E+00  0.25186313243E-01 -0.63261750918E-01  0.89072626213E+00  0.88000000000E+00 0. -1.
        -11    1    4    4    0    0  0.86587612662E-02 -0.76419086390E-02  0.11138783156E-01  0.16053240343E-01  0.51100000000E-03 0.  1.
         11    1    4    4    0    0  0.97226082078E-01 -0.35871704638E-01  0.45587358505E-01  0.11321730701E+00  0.51100000000E-03 0. -1.
</event>
<event>
 8    1  0.1191842E+005  0.1043930E+01  0.7957747E-01            NaN
         13   -1    0    0    0    0  0.00000000000E+00  0.00000000000E+00  0.74505805969E-08  0.10566000000E+00  0.10566000000E+00 0.  1.
     999900   -1    0    0    0    0 -0.00000000000E+00 -0.00000000000E+00 -0.74505805969E-08  0.93827000000E+00  0.93827000000E+00 0.  1.
     999902    2    1    2    0    0 -0.18660980031E-01  0.80549268812E-02 -0.10993770122E-01  0.10208220576E+01  0.10205604814E+01 0.  0.
     999903    2    3    3    0    0 -0.11695187510E+00  0.61491329398E-01 -0.50449554541E-02  0.13371894203E+00  0.19909274275E-01 0.  0.
         14    1    1    2    0    0  0.18660980031E-01 -0.80549268812E-02  0.10993770122E-01  0.23107942450E-01  0.00000000000E+00 0.  1.
     999901    1    3    3    0    0  0.98290895068E-01 -0.53436402517E-01 -0.59488146678E-02  0.88710311552E+00  0.88000000000E+00 0. -1.
        -11    1    4    4    0    0 -0.44533995114E-01  0.34314578030E-01 -0.32407461211E-03  0.56223955140E-01  0.51100000000E-03 0. -1.
         11    1    4    4    0    0 -0.72417879985E-01  0.27176751368E-01 -0.47208808420E-02  0.77494986892E-01  0.51100000000E-03 0.  1.
</event>
<event>
 8    1  0.1191842E+005  0.1043930E+01  0.7957747E-01            NaN
         13   -1    0    0    0    0  0.00000000000E+00  0.00000000000E+00  0.74505805969E-08  0.10566000000E+00  0.10566000000E+00 0.  1.
     999900   -1    0    0    0    0 -0.00000000000E+00 -0.00000000000E+00 -0.74505805969E-08  0.93827000000E+00  0.93827000000E+00 0.  1.
     999902    2    1    2    0    0 -0.12680470588E-01  0.11488824333E-01  0.16516083672E-01  0.10201483172E+01  0.10198710804E+01 0.  0.
     999903    2    3    3    0    0  0.11945406203E+00 -0.41536382680E-01  0.64036817429E-02  0.12864763406E+00  0.22686176154E-01 0.  0.
         14    1    1    2    0    0  0.12680470588E-01 -0.11488824333E-01 -0.16516083672E-01  0.23781682841E-01  0.00000000000E+00 0.  1.
     999901    1    3    3    0    0 -0.13213453262E+00  0.53025207013E-01  0.10112401929E-01  0.89150068310E+00  0.88000000000E+00 0. -1.
        -11    1    4    4    0    0  0.77881470906E-01 -0.16731134690E-01 -0.10321446245E-02  0.79666685773E-01  0.51100000000E-03 0.  1.
         11    1    4    4    0    0  0.41572591124E-01 -0.24805247990E-01  0.74358263674E-02  0.48980948290E-01  0.51100000000E-03 0. -1.
</event>
<event>
 8    1  0.1191842E+005  0.1043930E+01  0.7957747E-01            NaN
         13   -1    0    0    0    0  0.00000000000E+00  0.00000000000E+00  0.74505805969E-08  0.10566000000E+00  0.10566000000E+00 0. -1.
     999900   -1    0    0    0    0 -0.00000000000E+00 -0.00000000000E+00 -0.74505805969E-08  0.93827000000E+00  0.93827000000E+00 0. -1.
     999902    2    1    2    0    0 -0.22214810992E-01  0.61861697953E-02  0.56420662130E-02  0.10201897507E+01  0.10199134905E+01 0.  0.
     999903    2    3    3    0    0  0.12191773171E+00  0.24965047474E-01 -0.21620523480E-01  0.12785008171E+00  0.19773959098E-01 0.  0.
         14    1    1    2    0    0  0.22214810992E-01 -0.61861697953E-02 -0.56420662130E-02  0.23740249268E-01  0.00000000000E+00 0. -1.
     999901    1    3    3    0    0 -0.14413254270E+00 -0.18778877679E-01  0.27262589693E-01  0.89233966902E+00  0.88000000000E+00 0. -1.
        -11    1    4    4    0    0  0.71483057418E-01  0.19985182872E-01 -0.45318303635E-02  0.74364195953E-01  0.51100000000E-03 0. -1.
         11    1    4    4    0    0  0.50434674288E-01  0.49798646023E-02 -0.17088693117E-01  0.53485885759E-01  0.51100000000E-03 0.  1.
</event>
<event>
 8    1  0.1191842E+005  0.1043930E+01  0.7957747E-01            NaN
         13   -1    0    0    0    0  0.00000000000E+00  0.00000000000E+00  0.74505805969E-08  0.10566000000E+00  0.10566000000E+00 0. -1.
     999900   -1    0    0    0    0 -0.00000000000E+00 -0.00000000000E+00 -0.74505805969E-08  0.93827000000E+00  0.93827000000E+00 0. -1.
     999902    2    1    2    0    0 -0.32996555539E-02 -0.99484000808E-02  0.20574254409E-01  0.10208397784E+01  0.10205786078E+01 0.  0.
     999903    2    3    3    0    0  0.77510023099E-01  0.16819941471E-01  0.10476350640E+00  0.13273247717E+00  0.18756441875E-01 0.  0.
         14    1    1    2    0    0  0.32996555539E-02  0.99484000808E-02 -0.20574254409E-01  0.23090221641E-01  0.00000000000E+00 0.  1.
     999901    1    3    3    0    0 -0.80809678653E-01 -0.26768341552E-01 -0.84189251987E-01  0.88810730119E+00  0.88000000000E+00 0. -1.
        -11    1    4    4    0    0  0.44967026449E-01  0.84875897617E-03  0.52610835412E-01  0.69216435789E-01  0.51100000000E-03 0. -1.
         11    1    4    4    0    0  0.32542996649E-01  0.15971182495E-01  0.52152670983E-01  0.63516041383E-01  0.51100000000E-03 0.  1.
</event>
<event>
 8    1  0.1297725E+005  0.1043930E+01  0.7957747E-01            NaN
         13   -1    0    0    0    0  0.00000000000E+00  0.00000000000E+00  0.74505805969E-08  0.10566000000E+00  0.10566000000E+00 0.  1.
     999900   -1    0    0    0    0 -0.00000000000E+00 -0.00000000000E+00 -0.74505805969E-08  0.93827000000E+00  0.93827000000E+00 0.  1.
     999902    2    1    2    0    0  0.15053442345E-01 -0.13718797842E-01 -0.10954159832E-01  0.10208041452E+01  0.10205421587E+01 0.  0.
     999903    2    3    3    0    0 -0.89406999882E-01  0.59218167455E-01 -0.70267161275E-01  0.12965330670E+00  0.19289971476E-01 0.  0.
         14    1    1    2    0    0 -0.15053442345E-01  0.13718797842E-01  0.10954159832E-01  0.23125854758E-01  0.00000000000E+00 0.  1.
     999901    1    3    3    0    0  0.10446044223E+00 -0.72936965297E-01  0.59313001443E-01  0.89115083854E+00  0.88000000000E+00 0.  1.
        -11    1    4    4    0    0 -0.50263452439E-01  0.21902517986E-01 -0.33455927326E-01  0.64231574319E-01  0.51100000000E-03 0. -1.
         11    1    4    4    0    0 -0.39143547443E-01  0.37315649468E-01 -0.36811233949E-01  0.65421732380E-01  0.51100000000E-03 0.  1.
</event>
<event>
 8    1  0.1191842E+005  0.1043930E+01  0.7957747E-01            NaN
         13   -1    0    0    0    0  0.00000000000E+00  0.00000000000E+00  0.74505805969E-08  0.10566000000E+00  0.10566000000E+00 0.  1.
     999900   -1    0    0    0    0 -0.00000000000E+00 -0.00000000000E+00 -0.74505805969E-08  0.93827000000E+00  0.93827000000E+00 0. -1.
     999902    2    1    2    0    0 -0.19899837952E-02 -0.11729179149E-01 -0.19971991683E-01  0.10206831910E+01  0.10204184250E+01 0.  0.
     999903    2    3    3    0    0  0.66687894874E-01 -0.21073873660E-01  0.10656566316E+00  0.12893448620E+00  0.19403033076E-01 0.  0.
         14    1    1    2    0    0  0.19899837952E-02  0.11729179149E-01  0.19971991683E-01  0.23246809045E-01  0.00000000000E+00 0.  1.
     999901    1    3    3    0    0 -0.68677878670E-01  0.93446945115E-02 -0.12653765485E+00  0.89174870475E+00  0.88000000000E+00 0. -1.
        -11    1    4    4    0    0  0.31177884591E-01 -0.16042293822E-01  0.39061284306E-01  0.52492482617E-01  0.51100000000E-03 0.  1.
         11    1    4    4    0    0  0.35510010284E-01 -0.50315798383E-02  0.67504378859E-01  0.76442003585E-01  0.51100000000E-03 0. -1.
</event>
<event>
 8    1  0.1191842E+005  0.1043930E+01  0.7957747E-01            NaN
         13   -1    0    0    0    0  0.00000000000E+00  0.00000000000E+00  0.74505805969E-08  0.10566000000E+00  0.10566000000E+00 0. -1.
     999900   -1    0    0    0    0 -0.00000000000E+00 -0.00000000000E+00 -0.74505805969E-08  0.93827000000E+00  0.93827000000E+00 0.  1.
     999902    2    1    2    0    0 -0.25228641951E-01  0.13217059940E-02 -0.10430402683E-01  0.10165982496E+01  0.10162307693E+01 0.  0.
     999903    2    3    3    0    0  0.29150620398E-01 -0.98162168887E-01  0.70016280369E-01  0.12568533893E+00  0.20222631744E-01 0.  0.
         14    1    1    2    0    0  0.25228641951E-01 -0.13217059940E-02  0.10430402683E-01  0.27331750430E-01  0.00000000000E+00 0. -1.
     999901    1    3    3    0    0 -0.54379262348E-01  0.99483874881E-01 -0.80446683052E-01  0.89091291064E+00  0.88000000000E+00 0.  1.
        -11    1    4    4    0    0  0.17873550388E-01 -0.62903323768E-01  0.32682357974E-01  0.73107383952E-01  0.51100000000E-03 0. -1.
         11    1    4    4    0    0  0.11277070009E-01 -0.35258845119E-01  0.37333922395E-01  0.52577954976E-01  0.51100000000E-03 0.  1.
</event>
<event>
 8    1  0.1191842E+005  0.1043930E+01  0.7957747E-01            NaN
         13   -1    0    0    0    0  0.00000000000E+00  0.00000000000E+00  0.74505805969E-08  0.10566000000E+00  0.10566000000E+00 0. -1.
     999900   -1    0    0    0    0 -0.00000000000E+00 -0.00000000000E+00 -0.74505805969E-08  0.93827000000E+00  0.93827000000E+00 0. -1.
     999902    2    1    2    0    0  0.14486655933E-01  0.17843534839E-01  0.96228283266E-02  0.10190130628E+01  0.10187083824E+01 0.  0.
     999903    2    3    3    0    0 -0.74039999185E-02  0.38523325154E-02 -0.12634794882E+00  0.12819152801E+00  0.19990097620E-01 0.  0.
         14    1    1    2    0    0 -0.14486655933E-01 -0.17843534839E-01 -0.96228283266E-02  0.24916937225E-01  0.00000000000E+00 0.  1.
     999901    1    3    3    0    0  0.21890655852E-01  0.13991202324E-01  0.13597077715E+00  0.89082153476E+00  0.88000000000E+00 0.  1.
        -11    1    4    4    0    0 -0.12449677072E-01  0.28681530564E-02 -0.48009880602E-01  0.49683302201E-01  0.51100000000E-03 0. -1.
         11    1    4    4    0    0  0.50456771539E-02  0.98417945891E-03 -0.78338068218E-01  0.78508225813E-01  0.51100000000E-03 0.  1.
</event>
<event>
 8    1  0.1191842E+005  0.1043930E+01  0.7957747E-01            NaN
         13   -1    0    0    0    0  0.00000000000E+00  0.00000000000E+00  0.74505805969E-08  0.10566000000E+00  0.10566000000E+00 0.  1.
     999900   -1    0    0    0    0 -0.00000000000E+00 -0.00000000000E+00 -0.74505805969E-08  0.93827000000E+00  0.93827000000E+00 0.  1.
     999902    2    1    2    0    0 -0.69187397249E-02 -0.10584561828E-02 -0.22850122096E-01  0.10200319380E+01  0.10197519488E+01 0.  0.
     999903    2    3    3    0    0  0.19022980344E-01  0.90929092282E-01  0.86152771565E-01  0.12817078693E+00  0.19377228119E-01 0.  0.
         14    1    1    2    0    0  0.69187397249E-02  0.10584561828E-02  0.22850122096E-01  0.23898062027E-01  0.00000000000E+00 0.  1.
     999901    1    3    3    0    0 -0.25941720069E-01 -0.91987548465E-01 -0.10900289366E+00  0.89186115104E+00  0.88000000000E+00 0.  1.
        -11    1    4    4    0    0  0.94749180285E-02  0.48572887995E-01  0.58782691603E-01  0.76842471804E-01  0.51100000000E-03 0. -1.
         11    1    4    4    0    0  0.95480623154E-02  0.42356204286E-01  0.27370079962E-01  0.51328315126E-01  0.51100000000E-03 0.  1.
</event>
<event>
 8    1  0.1191842E+005  0.1043930E+01  0.7957747E-01            NaN
         13   -1    0    0    0    0  0.00000000000E+00  0.00000000000E+00  0.74505805969E-08  0.10566000000E+00  0.10566000000E+00 0. -1.
     999900   -1    0    0    0    0 -0.00000000000E+00 -0.00000000000E+00 -0.74505805969E-08  0.93827000000E+00  0.93827000000E+00 0.  1.
     999902    2    1    2    0    0 -0.76693192127E-02 -0.32488157647E-02  0.20503337920E-01  0.10217994752E+01  0.10215597914E+01 0.  0.
     999903    2    3    3    0    0 -0.30564671097E-01 -0.79461398384E-01  0.10201581611E+00  0.13445690384E+00  0.20569863919E-01 0.  0.
         14    1    1    2    0    0  0.76693192127E-02  0.32488157647E-02 -0.20503337920E-01  0.22130524778E-01  0.00000000000E+00 0.  1.
     999901    1    3    3    0    0  0.22895351884E-01  0.76212582619E-01 -0.81512478188E-01  0.88734257138E+00  0.88000000000E+00 0.  1.
        -11    1    4    4    0    0 -0.21989508258E-01 -0.38668791727E-01  0.40592621363E-01  0.60223217758E-01  0.51100000000E-03 0. -1.
         11    1    4    4    0    0 -0.85751628392E-02 -0.40792606657E-01  0.61423194745E-01  0.74233686082E-01  0.51100000000E-03 0.  1.
</event>
<event>
 8    1  0.1191842E+005  0.1043930E+01  0.7957747E-01            NaN
         13   -1    0    0    0    0  0.00000000000E+00  0.00000000000E+00  0.74505805969E-08  0.10566000000E+00  0.10566000000E+00 0.  1.
     999900   -1    0    0    0    0 -0.00000000000E+00 -0.00000000000E+00 -0.74505805969E-08  0.93827000000E+00  0.93827000000E+00 0. -1.
     999902    2    1    2    0    0 -0.18368328690E-01 -0.10954692571E-01  0.13925408280E-01  0.10184090716E+01  0.10180892492E+01 0.  0.
     999903    2    3    3    0    0  0.10074838163E+00  0.71244186714E-01  0.51381723087E-02  0.12654436108E+00  0.27588112780E-01 0.  0.
         14    1    1    2    0    0  0.18368328690E-01  0.10954692571E-01 -0.13925408280E-01  0.25520928352E-01  0.00000000000E+00 0. -1.
     999901    1    3    3    0    0 -0.11911671032E+00 -0.82198879285E-01  0.87872359718E-02  0.89186471056E+00  0.88000000000E+00 0. -1.
        -11    1    4    4    0    0  0.45910840519E-01  0.46565882395E-01  0.10240412379E-01  0.66191493767E-01  0.51100000000E-03 0.  1.
         11    1    4    4    0    0  0.54837541107E-01  0.24678304319E-01 -0.51022400703E-02  0.60352867318E-01  0.51100000000E-03 0. -1.
</event>
<event>
 8    1  0.1191842E+005  0.1043930E+01  0.7957747E-01            NaN
         13   -1    0    0    0    0  0.00000000000E+00  0.00000000000E+00  0.74505805969E-08  0.10566000000E+00  0.10566000000E+00 0.  1.
     999900   -1    0    0    0    0 -0.00000000000E+00 -0.00000000000E+00 -0.74505805969E-08  0.93827000000E+00  0.93827000000E+00 0. -1.
     999902    2    1    2    0    0 -0.71992725778E-02 -0.50919286513E-02  0.21730168861E-01  0.10204788273E+01  0.10202093312E+01 0.  0.
     999903    2    3    3    0    0  0.21485967407E-01  0.12650760238E+00 -0.17665632970E-02  0.12992092575E+00  0.20260946326E-01 0.  0.
         14    1    1    2    0    0  0.71992725778E-02  0.50919286513E-02 -0.21730168861E-01  0.23451172717E-01  0.00000000000E+00 0. -1.
     999901    1    3    3    0    0 -0.28685239985E-01 -0.13159953103E+00  0.23496732158E-01  0.89055790153E+00  0.88000000000E+00 0. -1.
        -11    1    4    4    0    0  0.36124927995E-02  0.63570525809E-01 -0.80956524158E-02  0.64187713504E-01  0.51100000000E-03 0. -1.
         11    1    4    4    0    0  0.17873474607E-01  0.62937076573E-01  0.63290891188E-02  0.65733212246E-01  0.51100000000E-03 0.  1.
</event>
<event>
 8    1  0.1191842E+005  0.1043930E+01  0.7957747E-01            NaN
         13   -1    0    0    0    0  0.00000000000E+00  0.00000000000E+00  0.74505805969E-08  0.10566000000E+00  0.10566000000E+00 0.  1.
     999900   -1    0    0    0    0 -0.00000000000E+00 -0.00000000000E+00 -0.74505805969E-08  0.93827000000E+00  0.93827000000E+00 0.  1.
     999902    2    1    2    0    0 -0.30819957600E-02 -0.19116090901E-01 -0.13721368819E-01  0.10201981734E+01  0.10199221115E+01 0.  0.
     999903    2    3    3    0    0 -0.12741863780E+00 -0.24865244775E-01 -0.16579463592E-02  0.13135725434E+00  0.19954694327E-01 0.  0.
         14    1    1    2    0    0  0.30819957600E-02  0.19116090901E-01  0.13721368819E-01  0.23731826551E-01  0.00000000000E+00 0.  1.
     999901    1    3    3    0    0  0.12433664204E+00  0.57491538742E-02 -0.12063422460E-01  0.88884091911E+00  0.88000000000E+00 0.  1.
        -11    1    4    4    0    0 -0.22210199305E-01 -0.43254104982E-02  0.73162545107E-02  0.23786358070E-01  0.51100000000E-03 0.  1.
         11    1    4    4    0    0 -0.10520843849E+00 -0.20539834277E-01 -0.89742008699E-02  0.10757089627E+00  0.51100000000E-03 0. -1.
</event>
<event>
 8    1  0.1191842E+005  0.1043930E+01  0.7957747E-01            NaN
         13   -1    0    0    0    0  0.00000000000E+00  0.00000000000E+00  0.74505805969E-08  0.10566000000E+00  0.10566000000E+00 0. -1.
     999900   -1    0    0    0    0 -0.00000000000E+00 -0.00000000000E+00 -0.74505805969E-08  0.93827000000E+00  0.93827000000E+00 0. -1.
     999902    2    1    2    0    0  0.11418817001E-01  0.18848429342E-01  0.10576417921E-01  0.10194859151E+01  0.10191928266E+01 0.  0.
     999903    2    3    3    0    0  0.36366461270E-01  0.90659559020E-02  0.12469580712E+00  0.13171268013E+00  0.19861387984E-01 0.  0.
         14    1    1    2    0    0 -0.11418817001E-01 -0.18848429342E-01 -0.10576417921E-01  0.24444084896E-01  0.00000000000E+00 0. -1.
     999901    1    3    3    0    0 -0.24947644268E-01  0.97824734395E-02 -0.11411938920E+00  0.88777323497E+00  0.88000000000E+00 0. -1.
        -11    1    4    4    0    0  0.37215093303E-01  0.11511691807E-01  0.12135769785E+00  0.12745757791E+00  0.51100000000E-03 0.  1.
         11    1    4    4    0    0 -0.84863203306E-03 -0.24457359049E-02  0.33381092734E-02  0.42551022274E-02  0.51100000000E-03 0. -1.
</event>
<event>
 8    1  0.1191842E+005  0.1043930E+01  0.7957747E-01            NaN
         13   -1    0    0    0    0  0.00000000000E+00  0.00000000000E+00  0.74505805969E-08  0.10566000000E+00  0.10566000000E+00 0. -1.
     999900   -1    0    0    0    0 -0.00000000000E+00 -0.00000000000E+00 -0.74505805969E-08  0.93827000000E+00  0.93827000000E+00 0.  1.
     999902    2    1    2    0    0 -0.18683674649E-01  0.13838840975E-01  0.46504702679E-02  0.10202188193E+01  0.10199432431E+01 0.  0.
     999903    2    3    3    0    0 -0.31918505934E-01 -0.12319715647E+00 -0.11491908834E-01  0.12936832578E+00  0.20193299936E-01 0.  0.
         14    1    1    2    0    0  0.18683674649E-01 -0.13838840975E-01 -0.46504702679E-02  0.23711180730E-01  0.00000000000E+00 0. -1.
     999901    1    3    3    0    0  0.13234831285E-01  0.13703599744E+00  0.16142379102E-01  0.89085049349E+00  0.88000000000E+00 0. -1.
        -11    1    4    4    0    0  0.21445966346E-03 -0.33819419853E-01 -0.46544468051E-02  0.34142702708E-01  0.51100000000E-03 0.  1.
         11    1    4    4    0    0 -0.32132965598E-01 -0.89377736616E-01 -0.68374620289E-02  0.95225623068E-01  0.51100000000E-03 0. -1.
</event>
<event>
 8    1  0.1191842E+005  0.1043930E+01  0.7957747E-01            NaN
         13   -1    0    0    0    0  0.00000000000E+00  0.00000000000E+00  0.74505805969E-08  0.10566000000E+00  0.10566000000E+00 0. -1.
     999900   -1    0    0    0    0 -0.00000000000E+00 -0.00000000000E+00 -0.74505805969E-08  0.93827000000E+00  0.93827000000E+00 0.  1.
     999902    2    1    2    0    0 -0.22154596894E-01 -0.10666312457E-02  0.14140305329E-01  0.10176257779E+01  0.10172857572E+01 0.  0.
     999903    2    3    3    0    0  0.44953279405E-02 -0.18135598624E-01  0.12695460234E+00  0.12985968610E+00  0.19923832660E-01 0.  0.
         14    1    1    2    0    0  0.22154596894E-01  0.10666312457E-02 -0.14140305329E-01  0.26304222105E-01  0.00000000000E+00 0.  1.
     999901    1    3    3    0    0 -0.26649924834E-01  0.17068967378E-01 -0.11281429701E+00  0.88776609180E+00  0.88000000000E+00 0.  1.
        -11    1    4    4    0    0  0.10821350918E-01 -0.17460482753E-01  0.10520638170E+00  0.10719428140E+00  0.51100000000E-03 0. -1.
         11    1    4    4    0    0 -0.63260229777E-02 -0.67511587116E-03  0.21748220639E-01  0.22665404698E-01  0.51100000000E-03 0.  1.
</event>
<event>
 8    1  0.1191842E+005  0.1043930E+01  0.7957747E-01            NaN
         13   -1    0    0    0    0  0.00000000000E+00  0.00000000000E+00  0.74505805969E-08  0.10566000000E+00  0.10566000000E+00 0. -1.
     999900   -1    0    0    0    0 -0.00000000000E+00 -0.00000000000E+00 -0.74505805969E-08  0.93827000000E+00  0.93827000000E+00 0. -1.
     999902    2    1    2    0    0  0.19145517105E-01  0.49665387145E-02 -0.11898818201E-01  0.10208475563E+01  0.10205865637E+01 0.  0.
     999903    2    3    3    0    0  0.10627437844E+00 -0.75889281035E-01 -0.13162845185E-01  0.13285504518E+00  0.20585821516E-01 0.  0.
         14    1    1    2    0    0 -0.19145517105E-01 -0.49665387145E-02  0.11898818201E-01  0.23082443688E-01  0.00000000000E+00 0. -1.
     999901    1    3    3    0    0 -0.87128861334E-01  0.80855819750E-01  0.12640269840E-02  0.88799251113E+00  0.88000000000E+00 0.  1.
        -11    1    4    4    0    0  0.62675541605E-01 -0.56187803168E-01 -0.11713329797E-01  0.84986798718E-01  0.51100000000E-03 0. -1.
         11    1    4    4    0    0  0.43598836834E-01 -0.19701477868E-01 -0.14495153875E-02  0.47868246461E-01  0.51100000000E-03 0.  1.
</event>
<event>
 8    1  0.1191842E+005  0.1043930E+01  0.7957747E-01            NaN
         13   -1    0    0    0    0  0.00000000000E+00  0.00000000000E+00  0.74505805969E-08  0.10566000000E+00  0.10566000000E+00 0.  1.
     999900   -1    0    0    0    0 -0.00000000000E+00 -0.00000000000E+00 -0.74505805969E-08  0.93827000000E+00  0.93827000000E+00 0. -1.
     999902    2    1    2    0    0 -0.22572076033E-01 -0.40887945443E-02  0.45985961708E-02  0.10205341896E+01  0.10202659792E+01 0.  0.
     999903    2    3    3    0    0 -0.10809492310E+00  0.69709048513E-01  0.27532996004E-01  0.13301727951E+00  0.19790576890E-01 0.  0.
         14    1    1    2    0    0  0.22572076033E-01  0.40887945443E-02 -0.45985961708E-02  0.23395810394E-01  0.00000000000E+00 0. -1.
     999901    1    3    3    0    0  0.85522847072E-01 -0.73797843058E-01 -0.22934399833E-01  0.88751691010E+00  0.88000000000E+00 0.  1.
        -11    1    4    4    0    0 -0.64264364622E-01  0.32036009113E-01  0.92824966163E-02  0.72406079196E-01  0.51100000000E-03 0.  1.
         11    1    4    4    0    0 -0.43830558483E-01  0.37673039400E-01  0.18250499388E-01  0.60611200314E-01  0.51100000000E-03 0. -1.
</event>
<event>
 8    1  0.1191842E+005  0.1043930E+01  0.7957747E-01            NaN
         13   -1    0    0    0    0  0.00000000000E+00  0.00000000000E+00  0.74505805969E-08  0.10566000000E+00  0.10566000000E+00 0.  1.
     999900   -1    0    0    0    0 -0.00000000000E+00 -0.00000000000E+00 -0.74505805969E-08  0.93827000000E+00  0.93827000000E+00 0. -1.
     999902    2    1    2    0    0 -0.18913910423E-01 -0.12135889065E-01  0.57982769363E-03  0.10214499642E+01  0.10212025643E+01 0.  0.
     999903    2    3    3    0    0  0.39956815786E-01 -0.12353085709E+00 -0.16068237978E-01  0.13232018770E+00  0.19850038302E-01 0.  0.
         14    1    1    2    0    0  0.18913910423E-01  0.12135889065E-01 -0.57982769363E-03  0.22480035833E-01  0.00000000000E+00 0. -1.
     999901    1    3    3    0    0 -0.58870726210E-01  0.11139496803E+00  0.16648065672E-01  0.88912977646E+00  0.88000000000E+00 0.  1.
        -11    1    4    4    0    0  0.14338687022E-01 -0.35148766142E-01 -0.13400790527E-01  0.40260104502E-01  0.51100000000E-03 0.  1.
         11    1    4    4    0    0  0.25618128764E-01 -0.88382090949E-01 -0.26674474513E-02  0.92060083200E-01  0.51100000000E-03 0. -1.
</event>
<event>
 8    1  0.1191842E+005  0.1043930E+01  0.7957747E-01            NaN
         13   -1    0    0    0    0  0.00000000000E+00  0.00000000000E+00  0.74505805969E-08  0.10566000000E+00  0.10566000000E+00 0. -1.
     999900   -1    0    0    0    0 -0.00000000000E+00 -0.00000000000E+00 -0.74505805969E-08  0.93827000000E+00  0.93827000000E+00 0. -1.
     999902    2    1    2    0    0 -0.12604451174E-01  0.20784412302E-01 -0.58233744978E-02  0.10189344869E+01  0.10186278579E+01 0.  0.
     999903    2    3    3    0    0 -0.12590262234E+00 -0.26770966409E-01 -0.48678628921E-02  0.13039697918E+00  0.20285983711E-01 0.  0.
         14    1    1    2    0    0  0.12604451174E-01 -0.20784412302E-01  0.58233744978E-02  0.24995513091E-01  0.00000000000E+00 0. -1.
     999901    1    3    3    0    0  0.11329817117E+00  0.47555378712E-01 -0.95551160571E-03  0.88853750773E+00  0.88000000000E+00 0. -1.
        -11    1    4    4    0    0 -0.10268967787E+00 -0.16926355721E-01  0.25548180329E-02  0.10410792321E+00  0.51100000000E-03 0. -1.
         11    1    4    4    0    0 -0.23212944472E-01 -0.98446106880E-02 -0.74226809249E-02  0.26289055970E-01  0.51100000000E-03 0.  1.
</event>
<event>
 8    1  0.1191842E+005  0.1043930E+01  0.7957747E-01            NaN
         13   -1    0    0    0    0  0.00000000000E+00  0.00000000000E+00  0.74505805969E-08  0.10566000000E+00  0.10566000000E+00 0. -1.
     999900   -1    0    0    0    0 -0.00000000000E+00 -0.00000000000E+00 -0.74505805969E-08  0.93827000000E+00  0.93827000000E+00 0.  1.
     999902    2    1    2    0    0 -0.18070422790E-01  0.12711545532E-01  0.11095105178E-01  0.10192070364E+01  0.10189071391E+01 0.  0.
     999903    2    3    3    0    0  0.11254383223E+00  0.51046128794E-01  0.32078368500E-01  0.12849388324E+00  0.14485677977E-01 0.  0.
         14    1    1    2    0    0  0.18070422790E-01 -0.12711545532E-01 -0.11095105178E-01  0.24722963587E-01  0.00000000000E+00 0. -1.
     999901    1    3    3    0    0 -0.13061425502E+00 -0.38334583262E-01 -0.20983263322E-01  0.89071315317E+00  0.88000000000E+00 0.  1.
        -11    1    4    4    0    0  0.47385092880E-01  0.16579432392E-01  0.18705064199E-01  0.53575788874E-01  0.51100000000E-03 0.  1.
         11    1    4    4    0    0  0.65158739354E-01  0.34466696402E-01  0.13373304301E-01  0.74918094370E-01  0.51100000000E-03 0. -1.
</event>
<event>
 8    1  0.1191842E+005  0.1043930E+01  0.7957747E-01            NaN
         13   -1    0    0    0    0  0.00000000000E+00  0.00000000000E+00  0.74505805969E-08  0.10566000000E+00  0.10566000000E+00 0.  1.
     999900   -1    0    0    0    0 -0.00000000000E+00 -0.00000000000E+00 -0.74505805969E-08  0.93827000000E+00  0.93827000000E+00 0. -1.
     999902    2    1    2    0    0 -0.14659331940E-02 -0.23996948403E-01  0.17814957819E-02  0.10198224033E+01  0.10195374235E+01 0.  0.
     999903    2    3    3    0    0 -0.87107369695E-01 -0.49280946347E-01 -0.82542966027E-01  0.13129308408E+00  0.20204632133E-01 0.  0.
         14    1    1    2    0    0  0.14659331940E-02  0.23996948403E-01 -0.17814957819E-02  0.24107596728E-01  0.00000000000E+00 0.  1.
     999901    1    3    3    0    0  0.85641436501E-01  0.25283997943E-01  0.84324461809E-01  0.88852931919E+00  0.88000000000E+00 0.  1.
        -11    1    4    4    0    0 -0.19693597205E-01 -0.14261913503E-01 -0.10145339430E-01  0.26352020430E-01  0.51100000000E-03 0. -1.
         11    1    4    4    0    0 -0.67413772490E-01 -0.35019032844E-01 -0.72397626598E-01  0.10494106365E+00  0.51100000000E-03 0.  1.
</event>
<event>
 8    1  0.1191842E+005  0.1043930E+01  0.7957747E-01            NaN
         13   -1    0    0    0    0  0.00000000000E+00  0.00000000000E+00  0.74505805969E-08  0.10566000000E+00  0.10566000000E+00 0. -1.
     999900   -1    0    0    0    0 -0.00000000000E+00 -0.00000000000E+00 -0.74505805969E-08  0.93827000000E+00  0.93827000000E+00 0. -1.
     999902    2    1    2    0    0 -0.11198262088E-01 -0.17462120789E-01  0.13202734893E-01  0.10193405928E+01  0.10190439663E+01 0.  0.
     999903    2    3    3    0    0 -0.55245196893E-01  0.82498978591E-01 -0.78088782388E-01  0.12789990777E+00  0.20060289740E-01 0.  0.
         14    1    1    2    0    0  0.11198262088E-01  0.17462120789E-01 -0.13202734893E-01  0.24589407169E-01  0.00000000000E+00 0.  1.
     999901    1    3    3    0    0  0.44046934805E-01 -0.99961099379E-01  0.91291517281E-01  0.89144068506E+00  0.88000000000E+00 0.  1.
        -11    1    4    4    0    0 -0.35922043207E-01  0.59397520973E-01 -0.43002620835E-01  0.81657487137E-01  0.51100000000E-03 0. -1.
         11    1    4    4    0    0 -0.19323153687E-01  0.23101457618E-01 -0.35086161553E-01  0.46242420633E-01  0.51100000000E-03 0.  1.
</event>
<event>
 8    1  0.1191842E+005  0.1043930E+01  0.7957747E-01            NaN
         13   -1    0    0    0    0  0.00000000000E+00  0.00000000000E+00  0.74505805969E-08  0.10566000000E+00  0.10566000000E+00 0.  1.
     999900   -1    0    0    0    0 -0.00000000000E+00 -0.00000000000E+00 -0.74505805969E-08  0.93827000000E+00  0.93827000000E+00 0. -1.
     999902    2    1    2    0    0  0.17173441056E-01  0.13693126110E-01  0.96525888559E-02  0.10199383087E+01  0.10196560951E+01 0.  0.
     999903    2    3    3    0    0 -0.39566083743E-01 -0.10456903012E+00 -0.58237976772E-01  0.12762981933E+00  0.19938701095E-01 0.  0.
         14    1    1    2    0    0 -0.17173441056E-01 -0.13693126110E-01 -0.96525888559E-02  0.23991691312E-01  0.00000000000E+00 0.  1.
     999901    1    3    3    0    0  0.56739524799E-01  0.11826215623E+00  0.67890565628E-01  0.89230848935E+00  0.88000000000E+00 0.  1.
        -11    1    4    4    0    0 -0.11475449413E-01 -0.58406628639E-01 -0.30085969595E-01  0.66696678296E-01  0.51100000000E-03 0.  1.
         11    1    4    4    0    0 -0.28090634330E-01 -0.46162401484E-01 -0.28152007177E-01  0.60933141039E-01  0.51100000000E-03 0. -1.
</event>
<event>
 8    1  0.1191842E+005  0.1043930E+01  0.7957747E-01            NaN
         13   -1    0    0    0    0  0.00000000000E+00  0.00000000000E+00  0.74505805969E-08  0.10566000000E+00  0.10566000000E+00 0. -1.
     999900   -1    0    0    0    0 -0.00000000000E+00 -0.00000000000E+00 -0.74505805969E-08  0.93827000000E+00  0.93827000000E+00 0.  1.
     999902    2    1    2    0    0 -0.67733961515E-02 -0.10935768105E-01  0.20038175796E-01  0.10201182716E+01  0.10198403256E+01 0.  0.
     999903    2    3    3    0    0 -0.12422727066E+00  0.32629767797E-01 -0.13360824842E-01  0.13061905194E+00  0.19639464572E-01 0.  0.
         14    1    1    2    0    0  0.67733961515E-02  0.10935768105E-01 -0.20038175796E-01  0.23811728385E-01  0.00000000000E+00 0.  1.
     999901    1    3    3    0    0  0.11745387450E+00 -0.43565535901E-01  0.33399000638E-01  0.88949921967E+00  0.88000000000E+00 0.  1.
        -11    1    4    4    0    0 -0.72784695332E-01  0.14002271240E-01 -0.16051744330E-01  0.75839271433E-01  0.51100000000E-03 0. -1.
         11    1    4    4    0    0 -0.51442575324E-01  0.18627496556E-01  0.26909194881E-02  0.54779780509E-01  0.51100000000E-03 0.  1.
</event>
<event>
 8    1  0.1191842E+005  0.1043930E+01  0.7957747E-01            NaN
         13   -1    0    0    0    0  0.00000000000E+00  0.00000000000E+00  0.74505805969E-08  0.10566000000E+00  0.10566000000E+00 0.  1.
     999900   -1    0    0    0    0 -0.00000000000E+00 -0.00000000000E+00 -0.74505805969E-08  0.93827000000E+00  0.93827000000E+00 0. -1.
     999902    2    1    2    0    0  0.16067012359E-01  0.13979891018E-01  0.13790245902E-01  0.10185576308E+01  0.10182415676E+01 0.  0.
     999903    2    3    3    0    0 -0.22309582676E-02  0.12054136037E+00  0.47975679676E-01  0.13128157092E+00  0.19949643805E-01 0.  0.
         14    1    1    2    0    0 -0.16067012359E-01 -0.13979891018E-01 -0.13790245902E-01  0.25372369244E-01  0.00000000000E+00 0. -1.
     999901    1    3    3    0    0  0.18297970626E-01 -0.10656146935E+00 -0.34185433774E-01  0.88727605984E+00  0.88000000000E+00 0. -1.
        -11    1    4    4    0    0 -0.21900927985E-03  0.42956359066E-01  0.70335409782E-02  0.43531925858E-01  0.51100000000E-03 0. -1.
         11    1    4    4    0    0 -0.20119489877E-02  0.77585001303E-01  0.40942138698E-01  0.87749645060E-01  0.51100000000E-03 0.  1.
</event>
<event>
 8    1  0.1191842E+005  0.1043930E+01  0.7957747E-01            NaN
         13   -1    0    0    0    0  0.00000000000E+00  0.00000000000E+00  0.74505805969E-08  0.10566000000E+00  0.10566000000E+00 0. -1.
     999900   -1    0    0    0    0 -0.00000000000E+00 -0.00000000000E+00 -0.74505805969E-08  0.93827000000E+00  0.93827000000E+00 0.  1.
     999902    2    1    2    0    0  0.21829822590E-01 -0.44256946719E-03 -0.93061255762E-02  0.10201951944E+01  0.10199190624E+01 0.  0.
     999903    2    3    3    0    0 -0.99813481071E-01  0.53977049092E-01  0.56151797066E-01  0.12775845839E+00  0.17115681207E-01 0.  0.
         14    1    1    2    0    0 -0.21829822590E-01  0.44256946719E-03  0.93061255762E-02  0.23734805567E-01  0.00000000000E+00 0. -1.
     999901    1    3    3    0    0  0.12164330366E+00 -0.54419618559E-01 -0.65457922642E-01  0.89243673605E+00  0.88000000000E+00 0.  1.
        -11    1    4    4    0    0 -0.85422831677E-01  0.50268944990E-01  0.53565683854E-01  0.11266574728E+00  0.51100000000E-03 0. -1.
         11    1    4    4    0    0 -0.14390649395E-01  0.37081041011E-02  0.25861132124E-02  0.15092711107E-01  0.51100000000E-03 0.  1.
</event>
<event>
 8    1  0.1191842E+005  0.1043930E+01  0.7957747E-01            NaN
         13   -1    0    0    0    0  0.00000000000E+00  0.00000000000E+00  0.74505805969E-08  0.10566000000E+00  0.10566000000E+00 0. -1.
     999900   -1    0    0    0    0 -0.00000000000E+00 -0.00000000000E+00 -0.74505805969E-08  0.93827000000E+00  0.93827000000E+00 0. -1.
     999902    2    1    2    0    0 -0.14850930522E-01  0.26790669215E-02  0.18656082584E-01  0.10199346472E+01  0.10196523465E+01 0.  0.
     999903    2    3    3    0    0  0.20342104711E-01  0.54314611843E-01  0.11716096307E+00  0.13223650557E+00  0.19897835426E-01 0.  0.
         14    1    1    2    0    0  0.14850930522E-01 -0.26790669215E-02 -0.18656082584E-01  0.23995352765E-01  0.00000000000E+00 0.  1.
     999901    1    3    3    0    0 -0.35193035233E-01 -0.51635544922E-01 -0.98504880489E-01  0.88769814166E+00  0.88000000000E+00 0.  1.
        -11    1    4    4    0    0  0.27580087662E-02  0.12094432598E-01  0.45983953083E-01  0.47630525656E-01  0.51100000000E-03 0.  1.
         11    1    4    4    0    0  0.17584095945E-01  0.42220179245E-01  0.71177009990E-01  0.84605979918E-01  0.51100000000E-03 0. -1.
</event>
<event>
 8    1  0.1191842E+005  0.1043930E+01  0.7957747E-01            NaN
         13   -1    0    0    0    0  0.00000000000E+00  0.00000000000E+00  0.74505805969E-08  0.10566000000E+00  0.10566000000E+00 0.  1.
     999900   -1    0    0    0    0 -0.00000000000E+00 -0.00000000000E+00 -0.74505805969E-08  0.93827000000E+00  0.93827000000E+00 0. -1.
     999902    2    1    2    0    0  0.12121345032E-01 -0.53442845554E-04  0.21315913472E-01  0.10194086210E+01  0.10191136534E+01 0.  0.
     999903    2    3    3    0    0  0.10531674190E+00  0.82809955655E-03  0.77789956104E-01  0.13268686271E+00  0.21499404469E-01 0.  0.
         14    1    1    2    0    0 -0.12121345032E-01  0.53442845554E-04 -0.21315913472E-01  0.24521379012E-01  0.00000000000E+00 0. -1.
     999901    1    3    3    0    0 -0.93195396864E-01 -0.88154240211E-03 -0.56474042632E-01  0.88672175828E+00  0.88000000000E+00 0.  1.
        -11    1    4    4    0    0  0.35870397235E-01  0.73550351660E-02  0.36107150086E-01  0.51427321031E-01  0.51100000000E-03 0. -1.
         11    1    4    4    0    0  0.69446344661E-01 -0.65269356094E-02  0.41682806018E-01  0.81259541678E-01  0.51100000000E-03 0.  1.
</event>
<event>
 8    1  0.1191842E+005  0.1043930E+01  0.7957747E-01            NaN
         13   -1    0    0    0    0  0.00000000000E+00  0.00000000000E+00  0.74505805969E-08  0.10566000000E+00  0.10566000000E+00 0.  1.
     999900   -1    0    0    0    0 -0.00000000000E+00 -0.00000000000E+00 -0.74505805969E-08  0.93827000000E+00  0.93827000000E+00 0.  1.
     999902    2    1    2    0    0  0.23265572074E-01  0.11643452499E-02 -0.64390339484E-02  0.10197617625E+01  0.10194753301E+01 0.  0.
     999903    2    3    3    0    0 -0.28299280762E-01  0.12390942955E-01  0.12321336157E+00  0.12869795214E+00  0.20669921508E-01 0.  0.
         14    1    1    2    0    0 -0.23265572074E-01 -0.11643452499E-02  0.64390339484E-02  0.24168237461E-01  0.00000000000E+00 0. -1.
     999901    1    3    3    0    0  0.51564852836E-01 -0.11226597705E-01 -0.12965239552E+00  0.89106381040E+00  0.88000000000E+00 0. -1.
        -11    1    4    4    0    0 -0.16969101459E-01  0.29630002470E-02  0.97868427482E-01  0.99374141473E-01  0.51100000000E-03 0.  1.
         11    1    4    4    0    0 -0.11330179304E-01  0.94279427076E-02  0.25344934091E-01  0.29323810663E-01  0.51100000000E-03 0. -1.
</event>
<event>
 8    1  0.1191842E+005  0.1043930E+01  0.7957747E-01            NaN
         13   -1    0    0    0    0  0.00000000000E+00  0.00000000000E+00  0.74505805969E-08  0.10566000000E+00  0.10566000000E+00 0.  1.
     999900   -1    0    0    0    0 -0.00000000000E+00 -0.00000000000E+00 -0.74505805969E-08  0.93827000000E+00  0.93827000000E+00 0.  1.
     999902    2    1    2    0    0  0.23306632581E-01  0.18092248688E-02  0.58029951775E-02  0.10198437556E+01  0.10195592865E+01 0.  0.
     999903    2    3    3    0    0 -0.10373153048E+00  0.45542866080E-01  0.56606622452E-01  0.12819789831E+00  0.19899958775E-01 0.  0.
         14    1    1    2    0    0 -0.23306632581E-01 -0.18092248688E-02 -0.58029951775E-02  0.24086244413E-01  0.00000000000E+00 0. -1.
     999901    1    3    3    0    0  0.12703816307E+00 -0.43733641211E-01 -0.50803627274E-01  0.89164585727E+00  0.88000000000E+00 0.  1.
        -11    1    4    4    0    0 -0.36776862192E-01  0.14526595094E-01  0.30440848659E-01  0.49904568386E-01  0.51100000000E-03 0.  1.
         11    1    4    4    0    0 -0.66954668293E-01  0.31016270986E-01  0.26165773793E-01  0.78293329928E-01  0.51100000000E-03 0. -1.
</event>
<event>
 8    1  0.1191842E+005  0.1043930E+01  0.7957747E-01            NaN
         13   -1    0    0    0    0  0.00000000000E+00  0.00000000000E+00  0.74505805969E-08  0.10566000000E+00  0.10566000000E+00 0. -1.
     999900   -1    0    0    0    0 -0.00000000000E+00 -0.00000000000E+00 -0.74505805969E-08  0.93827000000E+00  0.93827000000E+00 0.  1.
     999902    2    1    2    0    0 -0.19571139474E-01 -0.82668110631E-02  0.10729063206E-01  0.10201291079E+01  0.10198514178E+01 0.  0.
     999903    2    3    3    0    0  0.23958524816E-01 -0.64223030281E-01  0.11071432902E+00  0.13163432263E+00  0.19269761661E-01 0.  0.
         14    1    1    2    0    0  0.19571139474E-01  0.82668110631E-02 -0.10729063206E-01  0.23800892058E-01  0.00000000000E+00 0. -1.
     999901    1    3    3    0    0 -0.43529664291E-01  0.55956219218E-01 -0.99985265814E-01  0.88849478531E+00  0.88000000000E+00 0.  1.
        -11    1    4    4    0    0  0.10727223584E-01 -0.28468690837E-01  0.31911778829E-01  0.44092657357E-01  0.51100000000E-03 0.  1.
         11    1    4    4    0    0  0.13231301232E-01 -0.35754339444E-01  0.78802550192E-01  0.87541665275E-01  0.51100000000E-03 0. -1.
</event>
<event>
 8    1  0.1191842E+005  0.1043930E+01  0.7957747E-01            NaN
         13   -1    0    0    0    0  0.00000000000E+00  0.00000000000E+00  0.74505805969E-08  0.10566000000E+00  0.10566000000E+00 0. -1.
     999900   -1    0    0    0    0 -0.00000000000E+00 -0.00000000000E+00 -0.74505805969E-08  0.93827000000E+00  0.93827000000E+00 0. -1.
     999902    2    1    2    0    0  0.17193448850E-01 -0.65881910200E-02  0.12795513787E-01  0.10215080439E+01  0.10212619348E+01 0.  0.
     999903    2    3    3    0    0  0.10543868967E+00  0.20909990541E-01 -0.73824471724E-01  0.13243752111E+00  0.23132215402E-01 0.  0.
         14    1    1    2    0    0 -0.17193448850E-01  0.65881910200E-02 -0.12795513787E-01  0.22421956144E-01  0.00000000000E+00 0.  1.
     999901    1    3    3    0    0 -0.88245240823E-01 -0.27498181561E-01  0.86619985510E-01  0.88907052274E+00  0.88000000000E+00 0. -1.
        -11    1    4    4    0    0  0.63523844177E-01  0.20804047134E-01 -0.54649708370E-01  0.86341988059E-01  0.51100000000E-03 0. -1.
         11    1    4    4    0    0  0.41914845496E-01  0.10594340675E-03 -0.19174763354E-01  0.46095533056E-01  0.51100000000E-03 0.  1.
</event>
<event>
 8    1  0.1191842E+005  0.1043930E+01  0.7957747E-01            NaN
         13   -1    0    0    0    0  0.00000000000E+00  0.00000000000E+00  0.74505805969E-08  0.10566000000E+00  0.10566000000E+00 0. -1.
     999900   -1    0    0    0    0 -0.00000000000E+00 -0.00000000000E+00 -0.74505805969E-08  0.93827000000E+00  0.93827000000E+00 0.  1.
     999902    2    1    2    0    0  0.23910159052E-01  0.90090166032E-03  0.38332241665E-02  0.10196977707E+01  0.10194098011E+01 0.  0.
     999903    2    3    3    0    0  0.12821306120E+00  0.15875020998E-01  0.25518988887E-01  0.13314625384E+00  0.19649446927E-01 0.  0.
         14    1    1    2    0    0 -0.23910159052E-01 -0.90090166032E-03 -0.38332241665E-02  0.24232229307E-01  0.00000000000E+00 0.  1.
     999901    1    3    3    0    0 -0.10430290214E+00 -0.14974119338E-01 -0.21685764721E-01  0.88655151685E+00  0.88000000000E+00 0.  1.
        -11    1    4    4    0    0  0.43077969593E-01  0.10407018269E-01  0.80831170562E-03  0.44327553309E-01  0.51100000000E-03 0. -1.
         11    1    4    4    0    0  0.85135091602E-01  0.54680027287E-02  0.24710677181E-01  0.88818700529E-01  0.51100000000E-03 0.  1.
</event>
<event>
 8    1  0.1191842E+005  0.1043930E+01  0.7957747E-01            NaN
         13   -1    0    0    0    0  0.00000000000E+00  0.00000000000E+00  0.74505805969E-08  0.10566000000E+00  0.10566000000E+00 0.  1.
     999900   -1    0    0    0    0 -0.00000000000E+00 -0.00000000000E+00 -0.74505805969E-08  0.93827000000E+00  0.93827000000E+00 0. -1.
     999902    2    1    2    0    0  0.16153013959E-01 -0.12210620103E-01 -0.10044822151E-01  0.10213265145E+01  0.10210763594E+01 0.  0.
     999903    2    3    3    0    0  0.13309256739E-01 -0.26407968772E-01  0.12485429742E+00  0.13092917394E+00  0.26064072509E-01 0.  0.
         14    1    1    2    0    0 -0.16153013959E-01  0.12210620103E-01  0.10044822151E-01  0.22603485468E-01  0.00000000000E+00 0.  1.
     999901    1    3    3    0    0  0.28437572203E-02  0.14197348669E-01 -0.13489911957E+00  0.89039734059E+00  0.88000000000E+00 0. -1.
        -11    1    4    4    0    0  0.15069352759E-02 -0.22931172015E-01  0.49518040390E-01  0.54593103493E-01  0.51100000000E-03 0.  1.
         11    1    4    4    0    0  0.11802321463E-01 -0.34767967571E-02  0.75336257030E-01  0.76336070451E-01  0.51100000000E-03 0. -1.
</event>
<event>
 8    1  0.1191842E+005  0.1043930E+01  0.7957747E-01            NaN
         13   -1    0    0    0    0  0.00000000000E+00  0.00000000000E+00  0.74505805969E-08  0.10566000000E+00  0.10566000000E+00 0. -1.
     999900   -1    0    0    0    0 -0.00000000000E+00 -0.00000000000E+00 -0.74505805969E-08  0.93827000000E+00  0.93827000000E+00 0.  1.
     999902    2    1    2    0    0  0.66684393387E-02  0.86996054383E-02 -0.19991816147E-01  0.10211303524E+01  0.10208757871E+01 0.  0.
     999903    2    3    3    0    0 -0.12670894782E+00  0.23607987878E-01  0.62385917285E-02  0.13056883202E+00  0.19919972888E-01 0.  0.
         14    1    1    2    0    0 -0.66684393387E-02 -0.86996054383E-02  0.19991816147E-01  0.22799647604E-01  0.00000000000E+00 0.  1.
     999901    1    3    3    0    0  0.13337738716E+00 -0.14908382440E-01 -0.26230407875E-01  0.89056152037E+00  0.88000000000E+00 0.  1.
        -11    1    4    4    0    0 -0.62103071135E-01  0.16384679806E-02  0.48123073179E-02  0.62312883455E-01  0.51100000000E-03 0. -1.
         11    1    4    4    0    0 -0.64605876685E-01  0.21969519897E-01  0.14262844106E-02  0.68255948568E-01  0.51100000000E-03 0.  1.
</event>
<event>
 8    1  0.1191842E+005  0.1043930E+01  0.7957747E-01            NaN
         13   -1    0    0    0    0  0.00000000000E+00  0.00000000000E+00  0.74505805969E-08  0.10566000000E+00  0.10566000000E+00 0. -1.
     999900   -1    0    0    0    0 -0.00000000000E+00 -0.00000000000E+00 -0.74505805969E-08  0.93827000000E+00  0.93827000000E+00 0.  1.
     999902    2    1    2    0    0 -0.85540172186E-02  0.13065422568E-01  0.16920980906E-01  0.10209040131E+01  0.10206443102E+01 0.  0.
     999903    2    3    3    0    0 -0.64549834443E-01  0.11322155263E+00  0.20057925361E-01  0.13344887489E+00  0.20505626844E-01 0.  0.
         14    1    1    2    0    0  0.85540172186E-02 -0.13065422568E-01 -0.16920980906E-01  0.23025986890E-01  0.00000000000E+00 0.  1.
     999901    1    3    3    0    0  0.55995817225E-01 -0.10015613006E+00 -0.31369444550E-02  0.88745513822E+00  0.88000000000E+00 0. -1.
        -11    1    4    4    0    0 -0.15989783032E-01  0.27693981914E-01 -0.39011626129E-02  0.32219714250E-01  0.51100000000E-03 0.  1.
         11    1    4    4    0    0 -0.48560051411E-01  0.85527570717E-01  0.23959087974E-01  0.10122916064E+00  0.51100000000E-03 0. -1.
</event>
<event>
 8    1  0.1191842E+005  0.1043930E+01  0.7957747E-01            NaN
         13   -1    0    0    0    0  0.00000000000E+00  0.00000000000E+00  0.74505805969E-08  0.10566000000E+00  0.10566000000E+00 0. -1.
     999900   -1    0    0    0    0 -0.00000000000E+00 -0.00000000000E+00 -0.74505805969E-08  0.93827000000E+00  0.93827000000E+00 0.  1.
     999902    2    1    2    0    0  0.19999713926E-01  0.12444656948E-01  0.39607911944E-02  0.10200438971E+01  0.10197641914E+01 0.  0.
     999903    2    3    3    0    0  0.45278183785E-02  0.10397715586E+00  0.78713471242E-01  0.13200924629E+00  0.19971992190E-01 0.  0.
         14    1    1    2    0    0 -0.19999713926E-01 -0.12444656948E-01 -0.39607911944E-02  0.23886102875E-01  0.00000000000E+00 0.  1.
     999901    1    3    3    0    0  0.15471895547E-01 -0.91532498909E-01 -0.74752680047E-01  0.88803465083E+00  0.88000000000E+00 0.  1.
        -11    1    4    4    0    0 -0.66846150130E-02  0.18116470752E-01  0.12584118127E-01  0.23054538391E-01  0.51100000000E-03 0.  1.
         11    1    4    4    0    0  0.11212433391E-01  0.85860685105E-01  0.66129353115E-01  0.10895470790E+00  0.51100000000E-03 0. -1.
</event>
<event>
 8    1  0.1191842E+005  0.1043930E+01  0.7957747E-01            NaN
         13   -1    0    0    0    0  0.00000000000E+00  0.00000000000E+00  0.74505805969E-08  0.10566000000E+00  0.10566000000E+00 0.  1.
     999900   -1    0    0    0    0 -0.00000000000E+00 -0.00000000000E+00 -0.74505805969E-08  0.93827000000E+00  0.93827000000E+00 0.  1.
     999902    2    1    2    0    0 -0.19980889919E-01 -0.51015556151E-02  0.48260301304E-02  0.10227509443E+01  0.10225316336E+01 0.  0.
     999903    2    3    3    0    0  0.10819268863E+00 -0.73403957020E-02 -0.69868815616E-01  0.13033131288E+00  0.18575802491E-01 0.  0.
         14    1    1    2    0    0  0.19980889919E-01  0.51015556151E-02 -0.48260301304E-02  0.21179055656E-01  0.00000000000E+00 0.  1.
     999901    1    3    3    0    0 -0.12817357855E+00  0.22388400868E-02  0.74694845746E-01  0.89241963147E+00  0.88000000000E+00 0. -1.
        -11    1    4    4    0    0  0.45423702784E-01 -0.59334149668E-02 -0.19297293831E-01  0.49710812285E-01  0.51100000000E-03 0.  1.
         11    1    4    4    0    0  0.62768985850E-01 -0.14069807352E-02 -0.50571521785E-01  0.80620500594E-01  0.51100000000E-03 0. -1.
</event>
<event>
 8    1  0.1191842E+005  0.1043930E+01  0.7957747E-01            NaN
         13   -1    0    0    0    0  0.00000000000E+00  0.00000000000E+00  0.74505805969E-08  0.10566000000E+00  0.10566000000E+00 0. -1.
     999900   -1    0    0    0    0 -0.00000000000E+00 -0.00000000000E+00 -0.74505805969E-08  0.93827000000E+00  0.93827000000E+00 0.  1.
     999902    2    1    2    0    0  0.17455815401E-01 -0.61923192621E-02  0.14669806182E-01  0.10203026108E+01  0.10200290015E+01 0.  0.
     999903    2    3    3    0    0 -0.11945126051E+00 -0.41557018329E-01 -0.11929735520E-01  0.12861783181E+00  0.20115632271E-01 0.  0.
         14    1    1    2    0    0 -0.17455815401E-01  0.61923192621E-02 -0.14669806182E-01  0.23627389246E-01  0.00000000000E+00 0.  1.
     999901    1    3    3    0    0  0.13690707591E+00  0.35364699067E-01  0.26599541702E-01  0.89168477894E+00  0.88000000000E+00 0.  1.
        -11    1    4    4    0    0 -0.14556234259E-01 -0.11842390528E-01 -0.47179155966E-02  0.19355774792E-01  0.51100000000E-03 0. -1.
         11    1    4    4    0    0 -0.10489502625E+00 -0.29714627801E-01 -0.72118199230E-02  0.10926205702E+00  0.51100000000E-03 0.  1.
</event>
<event>
 8    1  0.1191842E+005  0.1043930E+01  0.7957747E-01            NaN
         13   -1    0    0    0    0  0.00000000000E+00  0.00000000000E+00  0.74505805969E-08  0.10566000000E+00  0.10566000000E+00 0. -1.
     999900   -1    0    0    0    0 -0.00000000000E+00 -0.00000000000E+00 -0.74505805969E-08  0.93827000000E+00  0.93827000000E+00 0.  1.
     999902    2    1    2    0    0  0.69315210840E-02  0.76083134069E-02 -0.20261847517E-01  0.10212039163E+01  0.10209510095E+01 0.  0.
     999903    2    3    3    0    0  0.90590033986E-01 -0.14622147950E-02  0.91369197358E-01  0.13016939872E+00  0.19673581476E-01 0.  0.
         14    1    1    2    0    0 -0.69315210840E-02 -0.76083134069E-02  0.20261847517E-01  0.22726083742E-01  0.00000000000E+00 0. -1.
     999901    1    3    3    0    0 -0.83658512902E-01  0.90705282019E-02 -0.11163104487E+00  0.89103451754E+00  0.88000000000E+00 0.  1.
        -11    1    4    4    0    0  0.58660416656E-01  0.15461468292E-02  0.45782932109E-01  0.74429651657E-01  0.51100000000E-03 0. -1.
         11    1    4    4    0    0  0.31929617329E-01 -0.30083616241E-02  0.45586265249E-01  0.55739747064E-01  0.51100000000E-03 0.  1.
</event>
<event>
 8    1  0.1191842E+005  0.1043930E+01  0.7957747E-01            NaN
         13   -1    0    0    0    0  0.00000000000E+00  0.00000000000E+00  0.74505805969E-08  0.10566000000E+00  0.10566000000E+00 0.  1.
     999900   -1    0    0    0    0 -0.00000000000E+00 -0.00000000000E+00 -0.74505805969E-08  0.93827000000E+00  0.93827000000E+00 0.  1.
     999902    2    1    2    0    0  0.14970624127E-01  0.10186770970E-01 -0.16022092139E-01  0.10197515524E+01  0.10194648750E+01 0.  0.
     999903    2    3    3    0    0  0.81991944081E-01  0.89494659623E-01 -0.50503204240E-01  0.13297618877E+00  0.20003003438E-01 0.  0.
         14    1    1    2    0    0 -0.14970624127E-01 -0.10186770970E-01  0.16022092139E-01  0.24178447553E-01  0.00000000000E+00 0. -1.
     999901    1    3    3    0    0 -0.67021319954E-01 -0.79307888653E-01  0.34481112101E-01  0.88677536368E+00  0.88000000000E+00 0. -1.
        -11    1    4    4    0    0  0.58914920353E-01  0.68229246339E-01 -0.28133577876E-01  0.94434936445E-01  0.51100000000E-03 0.  1.
         11    1    4    4    0    0  0.23077023728E-01  0.21265413283E-01 -0.22369626364E-01  0.38541252327E-01  0.51100000000E-03 0. -1.
</event>
<event>
 8    1  0.1191842E+005  0.1043930E+01  0.7957747E-01            NaN
         13   -1    0    0    0    0  0.00000000000E+00  0.00000000000E+00  0.74505805969E-08  0.10566000000E+00  0.10566000000E+00 0.  1.
     999900   -1    0    0    0    0 -0.00000000000E+00 -0.00000000000E+00 -0.74505805969E-08  0.93827000000E+00  0.93827000000E+00 0.  1.
     999902    2    1    2    0    0 -0.81421577582E-02  0.21489488519E-01  0.10209839582E-02  0.10209270598E+01  0.10206678824E+01 0.  0.
     999903    2    3    3    0    0 -0.25901885409E-01  0.47968552564E-01 -0.11831438242E+00  0.13230032239E+00  0.23090961743E-01 0.  0.
         14    1    1    2    0    0  0.81421577582E-02 -0.21489488519E-01 -0.10209839582E-02  0.23002940204E-01  0.00000000000E+00 0.  1.
     999901    1    3    3    0    0  0.17759727651E-01 -0.26479064045E-01  0.11933536638E+00  0.88862673740E+00  0.88000000000E+00 0. -1.
        -11    1    4    4    0    0 -0.27966146227E-01  0.30052709903E-01 -0.85772048836E-01  0.95091409653E-01  0.51100000000E-03 0. -1.
         11    1    4    4    0    0  0.20642608177E-02  0.17915842660E-01 -0.32542333588E-01  0.37208912740E-01  0.51100000000E-03 0.  1.
</event>
<event>
 8    1  0.1191842E+005  0.1043930E+01  0.7957747E-01            NaN
         13   -1    0    0    0    0  0.00000000000E+00  0.00000000000E+00  0.74505805969E-08  0.10566000000E+00  0.10566000000E+00 0. -1.
     999900   -1    0    0    0    0 -0.00000000000E+00 -0.00000000000E+00 -0.74505805969E-08  0.93827000000E+00  0.93827000000E+00 0.  1.
     999902    2    1    2    0    0 -0.14303737711E-02 -0.77778773948E-02  0.22751340463E-01  0.10198433888E+01  0.10195589109E+01 0.  0.
     999903    2    3    3    0    0 -0.10700768782E+00 -0.50234739814E-01  0.54989449515E-01  0.13193097754E+00  0.20193289453E-01 0.  0.
         14    1    1    2    0    0  0.14303737711E-02  0.77778773948E-02 -0.22751340463E-01  0.24086611193E-01  0.00000000000E+00 0.  1.
     999901    1    3    3    0    0  0.10557731405E+00  0.42456862419E-01 -0.32238109052E-01  0.88791241127E+00  0.88000000000E+00 0. -1.
        -11    1    4    4    0    0 -0.45282987950E-01 -0.10498860389E-01  0.19958591198E-01  0.50590330606E-01  0.51100000000E-03 0.  1.
         11    1    4    4    0    0 -0.61724699872E-01 -0.39735879425E-01  0.35030858318E-01  0.81340646933E-01  0.51100000000E-03 0. -1.
</event>
<event>
 8    1  0.1191842E+005  0.1043930E+01  0.7957747E-01            NaN
         13   -1    0    0    0    0  0.00000000000E+00  0.00000000000E+00  0.74505805969E-08  0.10566000000E+00  0.10566000000E+00 0.  1.
     999900   -1    0    0    0    0 -0.00000000000E+00 -0.00000000000E+00 -0.74505805969E-08  0.93827000000E+00  0.93827000000E+00 0.  1.
     999902    2    1    2    0    0  0.33865883376E-03 -0.39429813503E-02  0.25406952422E-01  0.10182166762E+01  0.10178919513E+01 0.  0.
     999903    2    3    3    0    0 -0.44477891269E-01 -0.29872172599E-01  0.11883383506E+00  0.13175774957E+00  0.19183188225E-01 0.  0.
         14    1    1    2    0    0 -0.33865883376E-03  0.39429813503E-02 -0.25406952422E-01  0.25713323844E-01  0.00000000000E+00 0. -1.
     999901    1    3    3    0    0  0.44816550103E-01  0.25929191249E-01 -0.93426882634E-01  0.88645892658E+00  0.88000000000E+00 0.  1.
        -11    1    4    4    0    0 -0.36171632581E-01 -0.31985182606E-01  0.99182670911E-01  0.11031274740E+00  0.51100000000E-03 0.  1.
         11    1    4    4    0    0 -0.83062586883E-02  0.21130100066E-02  0.19651164145E-01  0.21445002167E-01  0.51100000000E-03 0. -1.
</event>
<event>
 8    1  0.1191842E+005  0.1043930E+01  0.7957747E-01            NaN
         13   -1    0    0    0    0  0.00000000000E+00  0.00000000000E+00  0.74505805969E-08  0.10566000000E+00  0.10566000000E+00 0.  1.
     999900   -1    0    0    0    0 -0.00000000000E+00 -0.00000000000E+00 -0.74505805969E-08  0.93827000000E+00  0.93827000000E+00 0. -1.
     999902    2    1    2    0    0 -0.21397914940E-01  0.93507560831E-02  0.58192382190E-04  0.10205781095E+01  0.10203109167E+01 0.  0.
     999903    2    3    3    0    0  0.47222101285E-01 -0.10609430111E+00 -0.52214888270E-01  0.12885576325E+00  0.19785994754E-01 0.  0.
         14    1    1    2    0    0  0.21397914940E-01 -0.93507560831E-02 -0.58192382190E-04  0.23351890490E-01  0.00000000000E+00 0.  1.
     999901    1    3    3    0    0 -0.68620016226E-01  0.11544505719E+00  0.52273080652E-01  0.89172234626E+00  0.88000000000E+00 0. -1.
        -11    1    4    4    0    0  0.10502158093E-01 -0.21173837464E-01 -0.19747949468E-01  0.30803722937E-01  0.51100000000E-03 0.  1.
         11    1    4    4    0    0  0.36719943192E-01 -0.84920463644E-01 -0.32466938803E-01  0.98052040314E-01  0.51100000000E-03 0. -1.
</event>
<event>
 8    1  0.1191842E+005  0.1043930E+01  0.7957747E-01            NaN
         13   -1    0    0    0    0  0.00000000000E+00  0.00000000000E+00  0.74505805969E-08  0.10566000000E+00  0.10566000000E+00 0.  1.
     999900   -1    0    0    0    0 -0.00000000000E+00 -0.00000000000E+00 -0.74505805969E-08  0.93827000000E+00  0.93827000000E+00 0. -1.
     999902    2    1    2    0    0 -0.85664014938E-02  0.21749101765E-01 -0.48547830042E-02  0.10200558386E+01  0.10197764159E+01 0.  0.
     999903    2    3    3    0    0  0.10933096135E+00 -0.53047991320E-01 -0.36771499575E-01  0.12847686285E+00  0.19667552316E-01 0.  0.
         14    1    1    2    0    0  0.85664014938E-02 -0.21749101765E-01  0.48547830042E-02  0.23874161350E-01  0.00000000000E+00 0.  1.
     999901    1    3    3    0    0 -0.11789736284E+00  0.74797093086E-01  0.31916716570E-01  0.89157897580E+00  0.88000000000E+00 0.  1.
        -11    1    4    4    0    0  0.86656738394E-01 -0.36589253704E-01 -0.21226402130E-01  0.96431245269E-01  0.51100000000E-03 0. -1.
         11    1    4    4    0    0  0.22674222951E-01 -0.16458737616E-01 -0.15545097445E-01  0.32045617578E-01  0.51100000000E-03 0.  1.
</event>
<event>
 8    1  0.1191842E+005  0.1043930E+01  0.7957747E-01            NaN
         13   -1    0    0    0    0  0.00000000000E+00  0.00000000000E+00  0.74505805969E-08  0.10566000000E+00  0.10566000000E+00 0. -1.
     999900   -1    0    0    0    0 -0.00000000000E+00 -0.00000000000E+00 -0.74505805969E-08  0.93827000000E+00  0.93827000000E+00 0.  1.
     999902    2    1    2    0    0  0.14355086739E-01  0.77355964723E-02  0.17152301208E-01  0.10202633694E+01  0.10199888399E+01 0.  0.
     999903    2    3    3    0    0 -0.23489150980E-01  0.27010204450E-01 -0.12162574452E+00  0.12837602066E+00  0.20156626516E-01 0.  0.
         14    1    1    2    0    0 -0.14355086739E-01 -0.77355964723E-02 -0.17152301208E-01  0.23666630617E-01  0.00000000000E+00 0.  1.
     999901    1    3    3    0    0  0.37844237719E-01 -0.19274607978E-01  0.13877804572E+00  0.89188734873E+00  0.88000000000E+00 0. -1.
        -11    1    4    4    0    0 -0.99707441895E-02  0.98026297589E-02 -0.81276967277E-01  0.82472503421E-01  0.51100000000E-03 0.  1.
         11    1    4    4    0    0 -0.13518406790E-01  0.17207574692E-01 -0.40348777239E-01  0.45903517236E-01  0.51100000000E-03 0. -1.
</event>
<event>
 8    1  0.1191842E+005  0.1043930E+01  0.7957747E-01            NaN
         13   -1    0    0    0    0  0.00000000000E+00  0.00000000000E+00  0.74505805969E-08  0.10566000000E+00  0.10566000000E+00 0.  1.
     999900   -1    0    0    0    0 -0.00000000000E+00 -0.00000000000E+00 -0.74505805969E-08  0.93827000000E+00  0.93827000000E+00 0. -1.
     999902    2    1    2    0    0 -0.32690564244E-01  0.12673802883E-01 -0.11312450716E-01  0.10070888571E+01  0.10064147735E+01 0.  0.
     999903    2    3    3    0    0 -0.23019262323E-01 -0.10448707711E+00 -0.47213507430E-01  0.11854561573E+00  0.19403917272E-01 0.  0.
         14    1    1    2    0    0  0.32690564244E-01 -0.12673802883E-01  0.11312450716E-01  0.36841142915E-01  0.00000000000E+00 0. -1.
     999901    1    3    3    0    0 -0.96713019211E-02  0.11716087999E+00  0.35901056714E-01  0.88854324135E+00  0.88000000000E+00 0.  1.
        -11    1    4    4    0    0 -0.13319447996E-01 -0.71981280958E-01 -0.22541165350E-01  0.76596852152E-01  0.51100000000E-03 0.  1.
         11    1    4    4    0    0 -0.96998143266E-02 -0.32505796147E-01 -0.24672342080E-01  0.41948763579E-01  0.51100000000E-03 0. -1.
</event>
<event>
 8    1  0.1191842E+005  0.1043930E+01  0.7957747E-01            NaN
         13   -1    0    0    0    0  0.00000000000E+00  0.00000000000E+00  0.74505805969E-08  0.10566000000E+00  0.10566000000E+00 0. -1.
     999900   -1    0    0    0    0 -0.00000000000E+00 -0.00000000000E+00 -0.74505805969E-08  0.93827000000E+00  0.93827000000E+00 0. -1.
     999902    2    1    2    0    0  0.14119831914E-01  0.15325678624E-01 -0.13128259582E-01  0.10193008044E+01  0.10190032053E+01 0.  0.
     999903    2    3    3    0    0 -0.21047820538E-01  0.12303736703E+00 -0.37084507940E-01  0.13171279551E+00  0.19793820706E-01 0.  0.
         14    1    1    2    0    0 -0.14119831914E-01 -0.15325678624E-01  0.13128259582E-01  0.24629195647E-01  0.00000000000E+00 0. -1.
     999901    1    3    3    0    0  0.35167652452E-01 -0.10771168841E+00  0.23956248358E-01  0.88758800884E+00  0.88000000000E+00 0. -1.
        -11    1    4    4    0    0 -0.24236479150E-01  0.10268448937E+00 -0.27786604119E-01  0.10910484759E+00  0.51100000000E-03 0. -1.
         11    1    4    4    0    0  0.31886586122E-02  0.20352877661E-01 -0.92979038212E-02  0.22607947923E-01  0.51100000000E-03 0.  1.
</event>
<event>
 8    1  0.1191842E+005  0.1043930E+01  0.7957747E-01            NaN
         13   -1    0    0    0    0  0.00000000000E+00  0.00000000000E+00  0.74505805969E-08  0.10566000000E+00  0.10566000000E+00 0.  1.
     999900   -1    0    0    0    0 -0.00000000000E+00 -0.00000000000E+00 -0.74505805969E-08  0.93827000000E+00  0.93827000000E+00 0. -1.
     999902    2    1    2    0    0  0.14669391968E-01  0.16050954298E-01  0.80375204940E-02  0.10207475512E+01  0.10204842661E+01 0.  0.
     999903    2    3    3    0    0  0.57869963400E-02 -0.20734058941E-01 -0.12642432076E+00  0.12973014350E+00  0.19580876524E-01 0.  0.
         14    1    1    2    0    0 -0.14669391968E-01 -0.16050954298E-01 -0.80375204940E-02  0.23182448755E-01  0.00000000000E+00 0.  1.
     999901    1    3    3    0    0  0.88823956283E-02  0.36785013239E-01  0.13446184126E+00  0.89101740775E+00  0.88000000000E+00 0.  1.
        -11    1    4    4    0    0 -0.36018456128E-03  0.28103580649E-02 -0.35108382760E-01  0.35226233213E-01  0.51100000000E-03 0. -1.
         11    1    4    4    0    0  0.61471809013E-02 -0.23544417006E-01 -0.91315938002E-01  0.94503910286E-01  0.51100000000E-03 0.  1.
</event>
<event>
 8    1  0.1191842E+005  0.1043930E+01  0.7957747E-01            NaN
         13   -1    0    0    0    0  0.00000000000E+00  0.00000000000E+00  0.74505805969E-08  0.10566000000E+00  0.10566000000E+00 0. -1.
     999900   -1    0    0    0    0 -0.00000000000E+00 -0.00000000000E+00 -0.74505805969E-08  0.93827000000E+00  0.93827000000E+00 0.  1.
     999902    2    1    2    0    0 -0.15607156492E-01 -0.66417139414E-02 -0.14789279436E-01  0.10214262562E+01  0.10211783284E+01 0.  0.
     999903    2    3    3    0    0  0.59711789610E-01 -0.11420964455E+00 -0.17939850650E-01  0.13167700534E+00  0.20190462336E-01 0.  0.
         14    1    1    2    0    0  0.15607156492E-01  0.66417139414E-02  0.14789279436E-01  0.22503743779E-01  0.00000000000E+00 0.  1.
     999901    1    3    3    0    0 -0.75318946102E-01  0.10756793060E+00  0.31505712143E-02  0.88974925088E+00  0.88000000000E+00 0. -1.
        -11    1    4    4    0    0  0.22684171740E-01 -0.44909232206E-01  0.28592634869E-02  0.50396897657E-01  0.51100000000E-03 0. -1.
         11    1    4    4    0    0  0.37027617870E-01 -0.69300412340E-01 -0.20799114137E-01  0.81280107687E-01  0.51100000000E-03 0.  1.
</event>
<event>
 8    1  0.1191842E+005  0.1043930E+01  0.7957747E-01            NaN
         13   -1    0    0    0    0  0.00000000000E+00  0.00000000000E+00  0.74505805969E-08  0.10566000000E+00  0.10566000000E+00 0. -1.
     999900   -1    0    0    0    0 -0.00000000000E+00 -0.00000000000E+00 -0.74505805969E-08  0.93827000000E+00  0.93827000000E+00 0. -1.
     999902    2    1    2    0    0  0.18911511341E-01  0.60003209318E-03  0.13421178216E-01  0.10207322992E+01  0.10204686635E+01 0.  0.
     999903    2    3    3    0    0  0.19280933996E-01  0.12214145760E+00 -0.36471026883E-01  0.13097857665E+00  0.23129238166E-01 0.  0.
         14    1    1    2    0    0 -0.18911511341E-01 -0.60003209318E-03 -0.13421178216E-01  0.23197700843E-01  0.00000000000E+00 0.  1.
     999901    1    3    3    0    0 -0.36942265583E-03 -0.12154142551E+00  0.49892205099E-01  0.88975372251E+00  0.88000000000E+00 0.  1.
        -11    1    4    4    0    0  0.17082038236E-01  0.76784918280E-01 -0.33404376749E-01  0.85462466689E-01  0.51100000000E-03 0. -1.
         11    1    4    4    0    0  0.21988957600E-02  0.45356539322E-01 -0.30666501341E-02  0.45516109959E-01  0.51100000000E-03 0.  1.
</event>
<event>
 8    1  0.1191842E+005  0.1043930E+01  0.7957747E-01            NaN
         13   -1    0    0    0    0  0.00000000000E+00  0.00000000000E+00  0.74505805969E-08  0.10566000000E+00  0.10566000000E+00 0. -1.
     999900   -1    0    0    0    0 -0.00000000000E+00 -0.00000000000E+00 -0.74505805969E-08  0.93827000000E+00  0.93827000000E+00 0. -1.
     999902    2    1    2    0    0 -0.66269910203E-02  0.19625872368E-01  0.66009850454E-02  0.10221891426E+01  0.10219579142E+01 0.  0.
     999903    2    3    3    0    0  0.35212896678E-01  0.65639767065E-01  0.10965826197E+00  0.13399510017E+00  0.19524992680E-01 0.  0.
         14    1    1    2    0    0  0.66269910203E-02 -0.19625872368E-01 -0.66009850454E-02  0.21740857383E-01  0.00000000000E+00 0. -1.
     999901    1    3    3    0    0 -0.41839887698E-01 -0.46013894697E-01 -0.10305727692E+00  0.88819404244E+00  0.88000000000E+00 0. -1.
        -11    1    4    4    0    0  0.15237840173E-01  0.38560427648E-01  0.45592919085E-01  0.61628514060E-01  0.51100000000E-03 0. -1.
         11    1    4    4    0    0  0.19975056505E-01  0.27079339417E-01  0.64065342884E-01  0.72366586111E-01  0.51100000000E-03 0.  1.
</event>
<event>
 8    1  0.1191842E+005  0.1043930E+01  0.7957747E-01            NaN
         13   -1    0    0    0    0  0.00000000000E+00  0.00000000000E+00  0.74505805969E-08  0.10566000000E+00  0.10566000000E+00 0. -1.
     999900   -1    0    0    0    0 -0.00000000000E+00 -0.00000000000E+00 -0.74505805969E-08  0.93827000000E+00  0.93827000000E+00 0. -1.
     999902    2    1    2    0    0 -0.24183165519E-02 -0.22831991620E-01 -0.67894586504E-02  0.10199874679E+01  0.10197064233E+01 0.  0.
     999903    2    3    3    0    0 -0.52017614641E-01  0.10856480694E+00  0.37427615953E-01  0.12775411345E+00  0.20691484468E-01 0.  0.
         14    1    1    2    0    0  0.24183165519E-02  0.22831991620E-01  0.67894586504E-02  0.23942532135E-01  0.00000000000E+00 0.  1.
     999901    1    3    3    0    0  0.49599298089E-01 -0.13139679856E+00 -0.44217074604E-01  0.89223335441E+00  0.88000000000E+00 0. -1.
        -11    1    4    4    0    0  0.18221613585E-02  0.28908436973E-02  0.19200173038E-02  0.39528264249E-02  0.51100000000E-03 0. -1.
         11    1    4    4    0    0 -0.53839776000E-01  0.10567396324E+00  0.35507598649E-01  0.12380128703E+00  0.51100000000E-03 0.  1.
</event>
<event>
 8    1  0.1191842E+005  0.1043930E+01  0.7957747E-01            NaN
         13   -1    0    0    0    0  0.00000000000E+00  0.00000000000E+00  0.74505805969E-08  0.10566000000E+00  0.10566000000E+00 0.  1.
     999900   -1    0    0    0    0 -0.00000000000E+00 -0.00000000000E+00 -0.74505805969E-08  0.93827000000E+00  0.93827000000E+00 0.  1.
     999902    2    1    2    0    0 -0.99577845458E-02  0.73795208091E-02 -0.20679183979E-01  0.10198210089E+01  0.10195359958E+01 0.  0.
     999903    2    3    3    0    0  0.38568457445E-01  0.12320322326E+00 -0.74534212100E-02  0.13080759676E+00  0.19710752203E-01 0.  0.
         14    1    1    2    0    0  0.99577845458E-02 -0.73795208091E-02  0.20679183979E-01  0.24108991071E-01  0.00000000000E+00 0. -1.
     999901    1    3    3    0    0 -0.48526241991E-01 -0.11582370245E+00 -0.13225762769E-01  0.88901341217E+00  0.88000000000E+00 0. -1.
        -11    1    4    4    0    0  0.64414872137E-02  0.51384461749E-01 -0.57844737560E-02  0.52111197687E-01  0.51100000000E-03 0.  1.
         11    1    4    4    0    0  0.32126970231E-01  0.71818761508E-01 -0.16689474540E-02  0.78696399075E-01  0.51100000000E-03 0. -1.
</event>
<event>
 8    1  0.1191842E+005  0.1043930E+01  0.7957747E-01            NaN
         13   -1    0    0    0    0  0.00000000000E+00  0.00000000000E+00  0.74505805969E-08  0.10566000000E+00  0.10566000000E+00 0. -1.
     999900   -1    0    0    0    0 -0.00000000000E+00 -0.00000000000E+00 -0.74505805969E-08  0.93827000000E+00  0.93827000000E+00 0.  1.
     999902    2    1    2    0    0 -0.87955724658E-02 -0.21089268206E-01  0.10757837848E-01  0.10186742996E+01  0.10183611728E+01 0.  0.
     999903    2    3    3    0    0  0.92033023562E-01  0.33467342559E-01  0.80731138154E-01  0.12848381867E+00  0.20010860745E-01 0.  0.
         14    1    1    2    0    0  0.87955724658E-02  0.21089268206E-01 -0.10757837848E-01  0.25255700419E-01  0.00000000000E+00 0. -1.
     999901    1    3    3    0    0 -0.10082859603E+00 -0.54556610765E-01 -0.69973300306E-01  0.89019048091E+00  0.88000000000E+00 0.  1.
        -11    1    4    4    0    0  0.42476613379E-01  0.10520869625E-01  0.24756242544E-01  0.50280056163E-01  0.51100000000E-03 0.  1.
         11    1    4    4    0    0  0.49556410182E-01  0.22946472934E-01  0.55974895610E-01  0.78203762504E-01  0.51100000000E-03 0. -1.
</event>
<event>
 8    1  0.1191842E+005  0.1043930E+01  0.7957747E-01            NaN
         13   -1    0    0    0    0  0.00000000000E+00  0.00000000000E+00  0.74505805969E-08  0.10566000000E+00  0.10566000000E+00 0. -1.
     999900   -1    0    0    0    0 -0.00000000000E+00 -0.00000000000E+00 -0.74505805969E-08  0.93827000000E+00  0.93827000000E+00 0. -1.
     999902    2    1    2    0    0  0.59123537274E-02 -0.13697079058E-01 -0.21347725711E-01  0.10178859739E+01  0.10175527331E+01 0.  0.
     999903    2    3    3    0    0 -0.91287732473E-01 -0.38790848088E-01 -0.81836884627E-01  0.13011545608E+00  0.19863942973E-01 0.  0.
         14    1    1    2    0    0 -0.59123537274E-02  0.13697079058E-01  0.21347725711E-01  0.26044026078E-01  0.00000000000E+00 0. -1.
     999901    1    3    3    0    0  0.97200086200E-01  0.25093769030E-01  0.60489158916E-01  0.88777051784E+00  0.88000000000E+00 0.  1.
        -11    1    4    4    0    0 -0.47401497104E-01 -0.15192212401E-01 -0.29564810060E-01  0.57896842403E-01  0.51100000000E-03 0. -1.
         11    1    4    4    0    0 -0.43886235368E-01 -0.23598635687E-01 -0.52272074566E-01  0.72218613678E-01  0.51100000000E-03 0.  1.
</event>
<event>
 8    1  0.1191842E+005  0.1043930E+01  0.7957747E-01            NaN
         13   -1    0    0    0    0  0.00000000000E+00  0.00000000000E+00  0.74505805969E-08  0.10566000000E+00  0.10566000000E+00 0. -1.
     999900   -1    0    0    0    0 -0.00000000000E+00 -0.00000000000E+00 -0.74505805969E-08  0.93827000000E+00  0.93827000000E+00 0.  1.
     999902    2    1    2    0    0 -0.49235895914E-02 -0.11931815930E-01  0.16982262031E-01  0.10225991025E+01  0.10223766024E+01 0.  0.
     999903    2    3    3    0    0 -0.14412118607E-01 -0.10328805627E+00 -0.79353135792E-01  0.13258983077E+00  0.20174521863E-01 0.  0.
         14    1    1    2    0    0  0.49235895914E-02  0.11931815930E-01 -0.16982262031E-01  0.21330897533E-01  0.00000000000E+00 0.  1.
     999901    1    3    3    0    0  0.94885290155E-02  0.91356240342E-01  0.96335397824E-01  0.89000927170E+00  0.88000000000E+00 0. -1.
        -11    1    4    4    0    0 -0.11227258876E-01 -0.45376947601E-01 -0.24590578073E-01  0.52821173467E-01  0.51100000000E-03 0. -1.
         11    1    4    4    0    0 -0.31848597310E-02 -0.57911108671E-01 -0.54762557720E-01  0.79768657304E-01  0.51100000000E-03 0.  1.
</event>
<event>
 8    1  0.1191842E+005  0.1043930E+01  0.7957747E-01            NaN
         13   -1    0    0    0    0  0.00000000000E+00  0.00000000000E+00  0.74505805969E-08  0.10566000000E+00  0.10566000000E+00 0. -1.
     999900   -1    0    0    0    0 -0.00000000000E+00 -0.00000000000E+00 -0.74505805969E-08  0.93827000000E+00  0.93827000000E+00 0. -1.
     999902    2    1    2    0    0 -0.47972079620E-02 -0.20964277780E-01 -0.10760248975E-01  0.10198821913E+01  0.10195986401E+01 0.  0.
     999903    2    3    3    0    0  0.17078369255E-01 -0.12099426905E+00  0.45892650794E-01  0.13213555450E+00  0.20552020005E-01 0.  0.
         14    1    1    2    0    0  0.47972079620E-02  0.20964277780E-01  0.10760248975E-01  0.24047808737E-01  0.00000000000E+00 0. -1.
     999901    1    3    3    0    0 -0.21875577217E-01  0.10002999127E+00 -0.56652899769E-01  0.88774663676E+00  0.88000000000E+00 0. -1.
        -11    1    4    4    0    0  0.30712652708E-02 -0.84542223226E-01  0.27412383832E-01  0.88929860490E-01  0.51100000000E-03 0. -1.
         11    1    4    4    0    0  0.14007103984E-01 -0.36452045825E-01  0.18480266962E-01  0.43205694009E-01  0.51100000000E-03 0.  1.
</event>
<event>
 8    1  0.1191842E+005  0.1043930E+01  0.7957747E-01            NaN
         13   -1    0    0    0    0  0.00000000000E+00  0.00000000000E+00  0.74505805969E-08  0.10566000000E+00  0.10566000000E+00 0.  1.
     999900   -1    0    0    0    0 -0.00000000000E+00 -0.00000000000E+00 -0.74505805969E-08  0.93827000000E+00  0.93827000000E+00 0.  1.
     999902    2    1    2    0    0  0.17093765345E-01  0.41346706628E-02 -0.14750636742E-01  0.10209762726E+01  0.10207182156E+01 0.  0.
     999903    2    3    3    0    0 -0.81789867677E-01 -0.26450572371E-01 -0.96880642887E-01  0.13111180663E+00  0.20377233320E-01 0.  0.
         14    1    1    2    0    0 -0.17093765345E-01 -0.41346706628E-02  0.14750636742E-01  0.22953727354E-01  0.00000000000E+00 0. -1.
     999901    1    3    3    0    0  0.98883633022E-01  0.30585243034E-01  0.82130006145E-01  0.88986446602E+00  0.88000000000E+00 0.  1.
        -11    1    4    4    0    0 -0.15489883203E-01 -0.65565519822E-02 -0.32402973653E-01  0.36512171643E-01  0.51100000000E-03 0. -1.
         11    1    4    4    0    0 -0.66299984474E-01 -0.19894020389E-01 -0.64477669234E-01  0.94599634985E-01  0.51100000000E-03 0.  1.
</event>
<event>
 8    1  0.1191842E+005  0.1043930E+01  0.7957747E-01            NaN
         13   -1    0    0    0    0  0.00000000000E+00  0.00000000000E+00  0.74505805969E-08  0.10566000000E+00  0.10566000000E+00 0.  1.
     999900   -1    0    0    0    0 -0.00000000000E+00 -0.00000000000E+00 -0.74505805969E-08  0.93827000000E+00  0.93827000000E+00 0. -1.
     999902    2    1    2    0    0 -0.17689172940E-01  0.82868472754E-02 -0.15495956217E-01  0.10189960205E+01  0.10186909180E+01 0.  0.
     999903    2    3    3    0    0 -0.54033255718E-01  0.10646848212E+00 -0.52326669144E-01  0.13202531790E+00  0.20915875639E-01 0.  0.
         14    1    1    2    0    0  0.17689172940E-01 -0.82868472754E-02  0.15495956217E-01  0.24933979549E-01  0.00000000000E+00 0.  1.
     999901    1    3    3    0    0  0.36344082778E-01 -0.98181634845E-01  0.36830712927E-01  0.88697070255E+00  0.88000000000E+00 0.  1.
        -11    1    4    4    0    0 -0.20592863443E-01  0.47055111159E-01 -0.33388793772E-01  0.61264363063E-01  0.51100000000E-03 0.  1.
         11    1    4    4    0    0 -0.33440392275E-01  0.59413370961E-01 -0.18937875372E-01  0.70760954835E-01  0.51100000000E-03 0. -1.
</event>
<event>
 8    1  0.1191842E+005  0.1043930E+01  0.7957747E-01            NaN
         13   -1    0    0    0    0  0.00000000000E+00  0.00000000000E+00  0.74505805969E-08  0.10566000000E+00  0.10566000000E+00 0.  1.
     999900   -1    0    0    0    0 -0.00000000000E+00 -0.00000000000E+00 -0.74505805969E-08  0.93827000000E+00  0.93827000000E+00 0. -1.
     999902    2    1    2    0    0 -0.22788720896E-01 -0.11075371286E-02 -0.37500296350E-02  0.10208082535E+01  0.10205463612E+01 0.  0.
     999903    2    3    3    0    0  0.11063598361E+00 -0.61045573018E-01 -0.14593251921E-01  0.12866908533E+00  0.19387822571E-01 0.  0.
         14    1    1    2    0    0  0.22788720896E-01  0.11075371286E-02  0.37500296350E-02  0.23121746492E-01  0.00000000000E+00 0.  1.
     999901    1    3    3    0    0 -0.13342470451E+00  0.59938035890E-01  0.10843222286E-01  0.89213916817E+00  0.88000000000E+00 0.  1.
        -11    1    4    4    0    0  0.61557510013E-01 -0.24047211665E-01 -0.32695677474E-02  0.66170587288E-01  0.51100000000E-03 0. -1.
         11    1    4    4    0    0  0.49078473600E-01 -0.36998361354E-01 -0.11323684174E-01  0.62498498046E-01  0.51100000000E-03 0.  1.
</event>
<event>
 8    1  0.1191842E+005  0.1043930E+01  0.7957747E-01            NaN
         13   -1    0    0    0    0  0.00000000000E+00  0.00000000000E+00  0.74505805969E-08  0.10566000000E+00  0.10566000000E+00 0. -1.
     999900   -1    0    0    0    0 -0.00000000000E+00 -0.00000000000E+00 -0.74505805969E-08  0.93827000000E+00  0.93827000000E+00 0. -1.
     999902    2    1    2    0    0  0.98089858213E-02 -0.21177897085E-01 -0.43312367854E-02  0.10201922844E+01  0.10199160839E+01 0.  0.
     999903    2    3    3    0    0 -0.10173404374E+00  0.72828127758E-01 -0.66412526879E-02  0.12818089644E+00  0.27064443980E-01 0.  0.
         14    1    1    2    0    0 -0.98089858213E-02  0.21177897085E-01  0.43312367854E-02  0.23737715557E-01  0.00000000000E+00 0. -1.
     999901    1    3    3    0    0  0.11154302956E+00 -0.94006024843E-01  0.23100159025E-02  0.89201138800E+00  0.88000000000E+00 0. -1.
        -11    1    4    4    0    0 -0.62934502406E-01  0.39388142174E-01  0.85882812037E-02  0.74740865877E-01  0.51100000000E-03 0.  1.
         11    1    4    4    0    0 -0.38799541329E-01  0.33439985584E-01 -0.15229533892E-01  0.53440030565E-01  0.51100000000E-03 0. -1.
</event>
<event>
 8    1  0.1191842E+005  0.1043930E+01  0.7957747E-01            NaN
         13   -1    0    0    0    0  0.00000000000E+00  0.00000000000E+00  0.74505805969E-08  0.10566000000E+00  0.10566000000E+00 0.  1.
     999900   -1    0    0    0    0 -0.00000000000E+00 -0.00000000000E+00 -0.74505805969E-08  0.93827000000E+00  0.93827000000E+00 0.  1.
     999902    2    1    2    0    0  0.50274958657E-02 -0.23764038054E-01  0.19686269636E-03  0.10196391792E+01  0.10193497986E+01 0.  0.
     999903    2    3    3    0    0  0.25876090600E-01 -0.23973136047E-01  0.12401258200E+00  0.13072690010E+00  0.21589779954E-01 0.  0.
         14    1    1    2    0    0 -0.50274958657E-02  0.23764038054E-01 -0.19686269636E-03  0.24290820781E-01  0.00000000000E+00 0.  1.
     999901    1    3    3    0    0 -0.20848594734E-01  0.20909799371E-03 -0.12381571930E+00  0.88891227912E+00  0.88000000000E+00 0.  1.
        -11    1    4    4    0    0  0.28351006866E-01 -0.15094820347E-01  0.96973112628E-01  0.10215517062E+00  0.51100000000E-03 0. -1.
         11    1    4    4    0    0 -0.24749162670E-02 -0.88783157001E-02  0.27039469372E-01  0.28571729474E-01  0.51100000000E-03 0.  1.
</event>
<event>
 8    1  0.1191842E+005  0.1043930E+01  0.7957747E-01            NaN
         13   -1    0    0    0    0  0.00000000000E+00  0.00000000000E+00  0.74505805969E-08  0.10566000000E+00  0.10566000000E+00 0.  1.
     999900   -1    0    0    0    0 -0.00000000000E+00 -0.00000000000E+00 -0.74505805969E-08  0.93827000000E+00  0.93827000000E+00 0. -1.
     999902    2    1    2    0    0  0.83747685214E-02 -0.12881305369E-01 -0.17160627494E-01  0.10208962875E+01  0.10206364083E+01 0.  0.
     999903    2    3    3    0    0 -0.15811778277E-01 -0.20733979306E-01  0.12545191916E+00  0.12905269583E+00  0.15378688193E-01 0.  0.
         14    1    1    2    0    0 -0.83747685214E-02  0.12881305369E-01  0.17160627494E-01  0.23033712506E-01  0.00000000000E+00 0.  1.
     999901    1    3    3    0    0  0.24186546798E-01  0.78526739365E-02 -0.14261254665E+00  0.89184359167E+00  0.88000000000E+00 0. -1.
        -11    1    4    4    0    0 -0.46611576547E-02 -0.12218234408E-01  0.32330529591E-01  0.34878874801E-01  0.51100000000E-03 0. -1.
         11    1    4    4    0    0 -0.11150620622E-01 -0.85157448974E-02  0.93121389565E-01  0.94173821027E-01  0.51100000000E-03 0.  1.
</event>
<event>
 8    1  0.1191842E+005  0.1043930E+01  0.7957747E-01            NaN
         13   -1    0    0    0    0  0.00000000000E+00  0.00000000000E+00  0.74505805969E-08  0.10566000000E+00  0.10566000000E+00 0.  1.
     999900   -1    0    0    0    0 -0.00000000000E+00 -0.00000000000E+00 -0.74505805969E-08  0.93827000000E+00  0.93827000000E+00 0. -1.
     999902    2    1    2    0    0  0.15183249546E-01  0.15721344275E-01  0.85068312999E-02  0.10204766866E+01  0.10202071407E+01 0.  0.
     999903    2    3    3    0    0  0.23148358660E-01 -0.11961210298E+00 -0.37169855870E-01  0.12892470004E+00  0.19926826371E-01 0.  0.
         14    1    1    2    0    0 -0.15183249546E-01 -0.15721344275E-01 -0.85068312999E-02  0.23453313441E-01  0.00000000000E+00 0. -1.
     999901    1    3    3    0    0 -0.79651091140E-02  0.13533344725E+00  0.45676687170E-01  0.89155198651E+00  0.88000000000E+00 0.  1.
        -11    1    4    4    0    0  0.20747554952E-02 -0.62274076219E-01 -0.16944607220E-01  0.64573570554E-01  0.51100000000E-03 0.  1.
         11    1    4    4    0    0  0.21073603165E-01 -0.57338026757E-01 -0.20225248650E-01  0.64351129490E-01  0.51100000000E-03 0. -1.
</event>
<event>
 8    1  0.1191842E+005  0.1043930E+01  0.7957747E-01            NaN
         13   -1    0    0    0    0  0.00000000000E+00  0.00000000000E+00  0.74505805969E-08  0.10566000000E+00  0.10566000000E+00 0.  1.
     999900   -1    0    0    0    0 -0.00000000000E+00 -0.00000000000E+00 -0.74505805969E-08  0.93827000000E+00  0.93827000000E+00 0.  1.
     999902    2    1    2    0    0 -0.67032123183E-02  0.16934787907E-02 -0.20206487507E-01  0.10225734304E+01  0.10223503889E+01 0.  0.
     999903    2    3    3    0    0  0.12144050885E+00  0.41300114935E-01  0.21135031867E-01  0.13145131753E+00  0.19474666262E-01 0.  0.
         14    1    1    2    0    0  0.67032123183E-02 -0.16934787907E-02  0.20206487507E-01  0.21356569555E-01  0.00000000000E+00 0.  1.
     999901    1    3    3    0    0 -0.12814372116E+00 -0.39606636144E-01 -0.41341519373E-01  0.89112211291E+00  0.88000000000E+00 0. -1.
        -11    1    4    4    0    0  0.45124801575E-01  0.12965203274E-01  0.17009120479E-01  0.49939118070E-01  0.51100000000E-03 0. -1.
         11    1    4    4    0    0  0.76315707271E-01  0.28334911661E-01  0.41259113879E-02  0.81512199461E-01  0.51100000000E-03 0.  1.
</event>
<event>
 8    1  0.1191842E+005  0.1043930E+01  0.7957747E-01            NaN
         13   -1    0    0    0    0  0.00000000000E+00  0.00000000000E+00  0.74505805969E-08  0.10566000000E+00  0.10566000000E+00 0. -1.
     999900   -1    0    0    0    0 -0.00000000000E+00 -0.00000000000E+00 -0.74505805969E-08  0.93827000000E+00  0.93827000000E+00 0. -1.
     999902    2    1    2    0    0 -0.10147578515E-01 -0.12662771105E-01  0.11012912878E-01  0.10243186928E+01  0.10241309394E+01 0.  0.
     999903    2    3    3    0    0  0.65653620525E-01 -0.83461732209E-01 -0.78749029097E-01  0.13369221611E+00  0.19898252040E-01 0.  0.
         14    1    1    2    0    0  0.10147578515E-01  0.12662771105E-01 -0.11012912878E-01  0.19611307244E-01  0.00000000000E+00 0. -1.
     999901    1    3    3    0    0 -0.75801199040E-01  0.70798961104E-01  0.89761941975E-01  0.89062647664E+00  0.88000000000E+00 0.  1.
        -11    1    4    4    0    0  0.82407830310E-02 -0.22739853324E-01 -0.21789605250E-01  0.32558554208E-01  0.51100000000E-03 0.  1.
         11    1    4    4    0    0  0.57412837494E-01 -0.60721878885E-01 -0.56959423847E-01  0.10113366191E+00  0.51100000000E-03 0. -1.
</event>
<event>
 8    1  0.1191842E+005  0.1043930E+01  0.7957747E-01            NaN
         13   -1    0    0    0    0  0.00000000000E+00  0.00000000000E+00  0.74505805969E-08  0.10566000000E+00  0.10566000000E+00 0. -1.
     999900   -1    0    0    0    0 -0.00000000000E+00 -0.00000000000E+00 -0.74505805969E-08  0.93827000000E+00  0.93827000000E+00 0. -1.
     999902    2    1    2    0    0  0.18427365384E-02  0.23338178941E-02 -0.23209351791E-01  0.10205309318E+01  0.10202626457E+01 0.  0.
     999903    2    3    3    0    0  0.67074911256E-01  0.98598286922E-01 -0.54066207792E-01  0.13234501081E+00  0.19271252082E-01 0.  0.
         14    1    1    2    0    0 -0.18427365384E-02 -0.23338178941E-02  0.23209351791E-01  0.23399068240E-01  0.00000000000E+00 0. -1.
     999901    1    3    3    0    0 -0.65232174718E-01 -0.96264469028E-01  0.30856856001E-01  0.88818592095E+00  0.88000000000E+00 0.  1.
        -11    1    4    4    0    0  0.35861801108E-01  0.37316148560E-01 -0.18895685942E-01  0.55098745814E-01  0.51100000000E-03 0.  1.
         11    1    4    4    0    0  0.31213110148E-01  0.61282138362E-01 -0.35170521850E-01  0.77246264994E-01  0.51100000000E-03 0. -1.
</event>
<event>
 8    1  0.1191842E+005  0.1043930E+01  0.7957747E-01            NaN
         13   -1    0    0    0    0  0.00000000000E+00  0.00000000000E+00  0.74505805969E-08  0.10566000000E+00  0.10566000000E+00 0. -1.
     999900   -1    0    0    0    0 -0.00000000000E+00 -0.00000000000E+00 -0.74505805969E-08  0.93827000000E+00  0.93827000000E+00 0.  1.
     999902    2    1    2    0    0  0.11347565127E-01  0.12342567003E-02  0.21629927495E-01  0.10194730094E+01  0.10191796076E+01 0.  0.
     999903    2    3    3    0    0 -0.75923461156E-01 -0.66650905698E-01  0.80401995221E-01  0.13060924977E+00  0.19687054283E-01 0.  0.
         14    1    1    2    0    0 -0.11347565127E-01 -0.12342567003E-02 -0.21629927495E-01  0.24456990562E-01  0.00000000000E+00 0.  1.
     999901    1    3    3    0    0  0.87271026283E-01  0.67885162398E-01 -0.58772067727E-01  0.88886375967E+00  0.88000000000E+00 0.  1.
        -11    1    4    4    0    0 -0.50837411602E-01 -0.41083944834E-01  0.40086667733E-01  0.76678125906E-01  0.51100000000E-03 0. -1.
         11    1    4    4    0    0 -0.25086049554E-01 -0.25566960863E-01  0.40315327488E-01  0.53931123867E-01  0.51100000000E-03 0.  1.
</event>
<event>
 8    1  0.1191842E+005  0.1043930E+01  0.7957747E-01            NaN
         13   -1    0    0    0    0  0.00000000000E+00  0.00000000000E+00  0.74505805969E-08  0.10566000000E+00  0.10566000000E+00 0.  1.
     999900   -1    0    0    0    0 -0.00000000000E+00 -0.00000000000E+00 -0.74505805969E-08  0.93827000000E+00  0.93827000000E+00 0. -1.
     999902    2    1    2    0    0  0.17878477055E-01  0.10853179259E-01  0.52328219051E-02  0.10223704576E+01  0.10221431107E+01 0.  0.
     999903    2    3    3    0    0  0.89299689101E-01  0.13737385842E-01  0.97736003582E-01  0.13463955990E+00  0.20306020050E-01 0.  0.
         14    1    1    2    0    0 -0.17878477055E-01 -0.10853179259E-01 -0.52328219051E-02  0.21559542364E-01  0.00000000000E+00 0. -1.
     999901    1    3    3    0    0 -0.71421212045E-01 -0.28842065830E-02 -0.92503181677E-01  0.88773089774E+00  0.88000000000E+00 0. -1.
        -11    1    4    4    0    0  0.13240739475E-01  0.63062534414E-02  0.25825226549E-01  0.29703357750E-01  0.51100000000E-03 0.  1.
         11    1    4    4    0    0  0.76058949626E-01  0.74311324003E-02  0.71910777033E-01  0.10493620215E+00  0.51100000000E-03 0. -1.
</event>
<event>
 8    1  0.1191842E+005  0.1043930E+01  0.7957747E-01            NaN
         13   -1    0    0    0    0  0.00000000000E+00  0.00000000000E+00  0.74505805969E-08  0.10566000000E+00  0.10566000000E+00 0. -1.
     999900   -1    0    0    0    0 -0.00000000000E+00 -0.00000000000E+00 -0.74505805969E-08  0.93827000000E+00  0.93827000000E+00 0.  1.
     999902    2    1    2    0    0  0.19111082582E-01 -0.59923144548E-02 -0.11910345702E-01  0.10206276901E+01  0.10203616438E+01 0.  0.
     999903    2    3    3    0    0 -0.11328128739E+00 -0.39700096338E-01  0.41641750058E-01  0.12847760123E+00  0.19071207283E-01 0.  0.
         14    1    1    2    0    0 -0.19111082582E-01  0.59923144548E-02  0.11910345702E-01  0.23302309858E-01  0.00000000000E+00 0. -1.
     999901    1    3    3    0    0  0.13239236997E+00  0.33707781883E-01 -0.53552095760E-01  0.89215008891E+00  0.88000000000E+00 0.  1.
        -11    1    4    4    0    0 -0.93943492656E-01 -0.25878873476E-01  0.37130692360E-01  0.10427869073E+00  0.51100000000E-03 0. -1.
         11    1    4    4    0    0 -0.19337794736E-01 -0.13821222862E-01  0.45110576973E-02  0.24198910496E-01  0.51100000000E-03 0.  1.
</event>
<event>
 8    1  0.1191842E+005  0.1043930E+01  0.7957747E-01            NaN
         13   -1    0    0    0    0  0.00000000000E+00  0.00000000000E+00  0.74505805969E-08  0.10566000000E+00  0.10566000000E+00 0. -1.
     999900   -1    0    0    0    0 -0.00000000000E+00 -0.00000000000E+00 -0.74505805969E-08  0.93827000000E+00  0.93827000000E+00 0.  1.
     999902    2    1    2    0    0 -0.72101200083E-02  0.48454441632E-02 -0.21361724220E-01  0.10208694835E+01  0.10206089922E+01 0.  0.
     999903    2    3    3    0    0 -0.96294848767E-01 -0.87146801357E-01 -0.50356585798E-02  0.13145102037E+00  0.19665960771E-01 0.  0.
         14    1    1    2    0    0  0.72101200083E-02 -0.48454441632E-02  0.21361724220E-01  0.23060516502E-01  0.00000000000E+00 0. -1.
     999901    1    3    3    0    0  0.89084728759E-01  0.91992245520E-01 -0.16326065641E-01  0.88941846313E+00  0.88000000000E+00 0. -1.
        -11    1    4    4    0    0 -0.74997405149E-01 -0.63364010712E-01 -0.11563726764E-01  0.98861466357E-01  0.51100000000E-03 0. -1.
         11    1    4    4    0    0 -0.21297443618E-01 -0.23782790645E-01  0.65280681839E-02  0.32589554013E-01  0.51100000000E-03 0.  1.
</event>
<event>
 8    1  0.1191842E+005  0.1043930E+01  0.7957747E-01            NaN
         13   -1    0    0    0    0  0.00000000000E+00  0.00000000000E+00  0.74505805969E-08  0.10566000000E+00  0.10566000000E+00 0. -1.
     999900   -1    0    0    0    0 -0.00000000000E+00 -0.00000000000E+00 -0.74505805969E-08  0.93827000000E+00  0.93827000000E+00 0. -1.
     999902    2    1    2    0    0  0.20906092171E-01  0.50140609504E-02 -0.58289592329E-02  0.10216548510E+01  0.10214119895E+01 0.  0.
     999903    2    3    3    0    0  0.45799012491E-01  0.10744860883E+00  0.60338771832E-01  0.13289691843E+00  0.19444033941E-01 0.  0.
         14    1    1    2    0    0 -0.20906092171E-01 -0.50140609504E-02  0.58289592329E-02  0.22275148996E-01  0.00000000000E+00 0.  1.
     999901    1    3    3    0    0 -0.24892920320E-01 -0.10243454788E+00 -0.66167731065E-01  0.88875793258E+00  0.88000000000E+00 0. -1.
        -11    1    4    4    0    0  0.40161800620E-02  0.30880837064E-01  0.14428441054E-01  0.34324871920E-01  0.51100000000E-03 0. -1.
         11    1    4    4    0    0  0.41782832429E-01  0.76567771770E-01  0.45910330778E-01  0.98572046507E-01  0.51100000000E-03 0.  1.
</event>
<event>
 8    1  0.1191842E+005  0.1043930E+01  0.7957747E-01            NaN
         13   -1    0    0    0    0  0.00000000000E+00  0.00000000000E+00  0.74505805969E-08  0.10566000000E+00  0.10566000000E+00 0. -1.
     999900   -1    0    0    0    0 -0.00000000000E+00 -0.00000000000E+00 -0.74505805969E-08  0.93827000000E+00  0.93827000000E+00 0. -1.
     999902    2    1    2    0    0 -0.22206891359E-01 -0.91453756467E-02 -0.17973231206E-02  0.10198465142E+01  0.10195621110E+01 0.  0.
     999903    2    3    3    0    0  0.89915960219E-01 -0.93089815187E-02  0.89615688897E-01  0.12803493127E+00  0.13799814886E-01 0.  0.
         14    1    1    2    0    0  0.22206891359E-01  0.91453756467E-02  0.17973231206E-02  0.24083485834E-01  0.00000000000E+00 0.  1.
     999901    1    3    3    0    0 -0.11212285158E+00  0.16360587201E-03 -0.91413012018E-01  0.89181158289E+00  0.88000000000E+00 0. -1.
        -11    1    4    4    0    0  0.67707173959E-01 -0.85266775389E-02  0.59073405162E-01  0.90260145988E-01  0.51100000000E-03 0.  1.
         11    1    4    4    0    0  0.22208786260E-01 -0.78230397977E-03  0.30542283735E-01  0.37774785286E-01  0.51100000000E-03 0. -1.
</event>
<event>
 8    1  0.1191842E+005  0.1043930E+01  0.7957747E-01            NaN
         13   -1    0    0    0    0  0.00000000000E+00  0.00000000000E+00  0.74505805969E-08  0.10566000000E+00  0.10566000000E+00 0.  1.
     999900   -1    0    0    0    0 -0.00000000000E+00 -0.00000000000E+00 -0.74505805969E-08  0.93827000000E+00  0.93827000000E+00 0. -1.
     999902    2    1    2    0    0 -0.15537027076E-02  0.94402012760E-03 -0.23459082023E-01  0.10204005781E+01  0.10201292595E+01 0.  0.
     999903    2    3    3    0    0 -0.11512148780E-01  0.12857198379E+00  0.44415115811E-02  0.13070034156E+00  0.19989188945E-01 0.  0.
         14    1    1    2    0    0  0.15537027076E-02 -0.94402012760E-03  0.23459082023E-01  0.23529421911E-01  0.00000000000E+00 0.  1.
     999901    1    3    3    0    0  0.99584460721E-02 -0.12762796366E+00 -0.27900593604E-01  0.88970023653E+00  0.88000000000E+00 0.  1.
        -11    1    4    4    0    0 -0.14630854548E-01  0.53619594199E-01  0.31197991304E-02  0.55669713979E-01  0.51100000000E-03 0. -1.
         11    1    4    4    0    0  0.31187057683E-02  0.74952389587E-01  0.13217124507E-02  0.75030627582E-01  0.51100000000E-03 0.  1.
</event>
<event>
 8    1  0.1191842E+005  0.1043930E+01  0.7957747E-01            NaN
         13   -1    0    0    0    0  0.00000000000E+00  0.00000000000E+00  0.74505805969E-08  0.10566000000E+00  0.10566000000E+00 0. -1.
     999900   -1    0    0    0    0 -0.00000000000E+00 -0.00000000000E+00 -0.74505805969E-08  0.93827000000E+00  0.93827000000E+00 0.  1.
     999902    2    1    2    0    0  0.65183020750E-02 -0.20205115004E-01 -0.94133712916E-02  0.10207061654E+01  0.10204419286E+01 0.  0.
     999903    2    3    3    0    0  0.50524351742E-01  0.16912655331E-02  0.11830260685E+00  0.13012918672E+00  0.19558321808E-01 0.  0.
         14    1    1    2    0    0 -0.65183020750E-02  0.20205115004E-01  0.94133712916E-02  0.23223834596E-01  0.00000000000E+00 0. -1.
     999901    1    3    3    0    0 -0.44006049667E-01 -0.21896380538E-01 -0.12771597814E+00  0.89057697868E+00  0.88000000000E+00 0.  1.
        -11    1    4    4    0    0  0.20559886983E-01 -0.19936792864E-02  0.71550476673E-01  0.74474260943E-01  0.51100000000E-03 0. -1.
         11    1    4    4    0    0  0.29964464759E-01  0.36849448196E-02  0.46752130174E-01  0.55654925778E-01  0.51100000000E-03 0.  1.
</event>
<event>
 8    1  0.1191842E+005  0.1043930E+01  0.7957747E-01            NaN
         13   -1    0    0    0    0  0.00000000000E+00  0.00000000000E+00  0.74505805969E-08  0.10566000000E+00  0.10566000000E+00 0. -1.
     999900   -1    0    0    0    0 -0.00000000000E+00 -0.00000000000E+00 -0.74505805969E-08  0.93827000000E+00  0.93827000000E+00 0.  1.
     999902    2    1    2    0    0  0.60328027168E-02  0.68076955779E-03 -0.22445382170E-01  0.10206780466E+01  0.10204131622E+01 0.  0.
     999903    2    3    3    0    0 -0.43241105228E-01  0.75397659587E-01  0.93255166400E-01  0.12860341487E+00  0.16962075406E-01 0.  0.
         14    1    1    2    0    0 -0.60328027168E-02 -0.68076955779E-03  0.22445382170E-01  0.23251953392E-01  0.00000000000E+00 0. -1.
     999901    1    3    3    0    0  0.49273907945E-01 -0.74716890030E-01 -0.11570054857E+00  0.89207463174E+00  0.88000000000E+00 0.  1.
        -11    1    4    4    0    0 -0.38478016301E-01  0.52452633221E-01  0.66391420864E-01  0.92951161131E-01  0.51100000000E-03 0. -1.
         11    1    4    4    0    0 -0.47630889267E-02  0.22945026367E-01  0.26863745536E-01  0.35652253734E-01  0.51100000000E-03 0.  1.
</event>
<event>
 8    1  0.1191842E+005  0.1043930E+01  0.7957747E-01            NaN
         13   -1    0    0    0    0  0.00000000000E+00  0.00000000000E+00  0.74505805969E-08  0.10566000000E+00  0.10566000000E+00 0.  1.
     999900   -1    0    0    0    0 -0.00000000000E+00 -0.00000000000E+00 -0.74505805969E-08  0.93827000000E+00  0.93827000000E+00 0. -1.
     999902    2    1    2    0    0  0.40220095286E-02 -0.23914952845E-01  0.15220601886E-01  0.10152984047E+01  0.10148946163E+01 0.  0.
     999903    2    3    3    0    0 -0.29770349632E-01  0.80953846994E-01 -0.85149308308E-01  0.12276632815E+00  0.19528634410E-01 0.  0.
         14    1    1    2    0    0 -0.40220095286E-02  0.23914952845E-01 -0.15220601886E-01  0.28631595345E-01  0.00000000000E+00 0. -1.
     999901    1    3    3    0    0  0.33792359160E-01 -0.10486879984E+00  0.10036991019E+00  0.89253207650E+00  0.88000000000E+00 0.  1.
        -11    1    4    4    0    0 -0.14462999060E-01  0.30311137266E-01 -0.45957742527E-01  0.56923796459E-01  0.51100000000E-03 0. -1.
         11    1    4    4    0    0 -0.15307350572E-01  0.50642709729E-01 -0.39191565781E-01  0.65842531691E-01  0.51100000000E-03 0.  1.
</event>
<event>
 8    1  0.1191842E+005  0.1043930E+01  0.7957747E-01            NaN
         13   -1    0    0    0    0  0.00000000000E+00  0.00000000000E+00  0.74505805969E-08  0.10566000000E+00  0.10566000000E+00 0. -1.
     999900   -1    0    0    0    0 -0.00000000000E+00 -0.00000000000E+00 -0.74505805969E-08  0.93827000000E+00  0.93827000000E+00 0. -1.
     999902    2    1    2    0    0  0.93084921091E-02  0.22447140568E-01 -0.12184188096E-02  0.10195988124E+01  0.10193084575E+01 0.  0.
     999903    2    3    3    0    0 -0.72616839247E-01  0.90945887470E-01 -0.57327185151E-01  0.13136909443E+00  0.20665745196E-01 0.  0.
         14    1    1    2    0    0 -0.93084921091E-02 -0.22447140568E-01  0.12184188096E-02  0.24331187587E-01  0.00000000000E+00 0.  1.
     999901    1    3    3    0    0  0.81925331356E-01 -0.68498746902E-01  0.56108766342E-01  0.88822971798E+00  0.88000000000E+00 0. -1.
        -11    1    4    4    0    0 -0.37698366966E-01  0.63154534650E-01 -0.34573698035E-01  0.81272774258E-01  0.51100000000E-03 0.  1.
         11    1    4    4    0    0 -0.34918472281E-01  0.27791352820E-01 -0.22753487117E-01  0.50096320174E-01  0.51100000000E-03 0. -1.
</event>
<event>
 8    1  0.1191842E+005  0.1043930E+01  0.7957747E-01            NaN
         13   -1    0    0    0    0  0.00000000000E+00  0.00000000000E+00  0.74505805969E-08  0.10566000000E+00  0.10566000000E+00 0.  1.
     999900   -1    0    0    0    0 -0.00000000000E+00 -0.00000000000E+00 -0.74505805969E-08  0.93827000000E+00  0.93827000000E+00 0. -1.
     999902    2    1    2    0    0  0.84172610741E-02 -0.92909381667E-02  0.21137491002E-01  0.10193542937E+01  0.10190580016E+01 0.  0.
     999903    2    3    3    0    0  0.10792819880E+00 -0.56004023538E-01 -0.42221483241E-01  0.13025424379E+00  0.19964158602E-01 0.  0.
         14    1    1    2    0    0 -0.84172610741E-02  0.92909381667E-02 -0.21137491002E-01  0.24575706335E-01  0.00000000000E+00 0. -1.
     999901    1    3    3    0    0 -0.99510937729E-01  0.46713085372E-01  0.63358974243E-01  0.88910004988E+00  0.88000000000E+00 0.  1.
        -11    1    4    4    0    0  0.48617688231E-01 -0.36087045182E-01 -0.18081595768E-01  0.63191452471E-01  0.51100000000E-03 0.  1.
         11    1    4    4    0    0  0.59310510572E-01 -0.19916978356E-01 -0.24139887474E-01  0.67062791318E-01  0.51100000000E-03 0. -1.
</event>
<event>
 8    1  0.1191842E+005  0.1043930E+01  0.7957747E-01            NaN
         13   -1    0    0    0    0  0.00000000000E+00  0.00000000000E+00  0.74505805969E-08  0.10566000000E+00  0.10566000000E+00 0. -1.
     999900   -1    0    0    0    0 -0.00000000000E+00 -0.00000000000E+00 -0.74505805969E-08  0.93827000000E+00  0.93827000000E+00 0.  1.
     999902    2    1    2    0    0 -0.22841305886E-01  0.58496784288E-02 -0.65987587997E-02  0.10194455639E+01  0.10191514952E+01 0.  0.
     999903    2    3    3    0    0  0.88472177580E-01  0.88315396184E-01 -0.21890595411E-01  0.12847691887E+00  0.20004627093E-01 0.  0.
         14    1    1    2    0    0  0.22841305886E-01 -0.58496784288E-02  0.65987587997E-02  0.24484436077E-01  0.00000000000E+00 0. -1.
     999901    1    3    3    0    0 -0.11131348347E+00 -0.82465717755E-01  0.15291836611E-01  0.89096864506E+00  0.88000000000E+00 0.  1.
        -11    1    4    4    0    0  0.59704741042E-02  0.12958996208E-01 -0.64877793346E-02  0.15682300388E-01  0.51100000000E-03 0. -1.
         11    1    4    4    0    0  0.82501703476E-01  0.75356399976E-01 -0.15402816076E-01  0.11279461848E+00  0.51100000000E-03 0.  1.
</event>
<event>
 8    1  0.1191842E+005  0.1043930E+01  0.7957747E-01            NaN
         13   -1    0    0    0    0  0.00000000000E+00  0.00000000000E+00  0.74505805969E-08  0.10566000000E+00  0.10566000000E+00 0.  1.
     999900   -1    0    0    0    0 -0.00000000000E+00 -0.00000000000E+00 -0.74505805969E-08  0.93827000000E+00  0.93827000000E+00 0.  1.
     999902    2    1    2    0    0  0.11110059156E-01  0.13147565203E-01 -0.13860097306E-01  0.10218303579E+01  0.10215913498E+01 0.  0.
     999903    2    3    3    0    0 -0.50386628698E-01  0.10886996369E+00 -0.55308145147E-01  0.13353842338E+00  0.19545798906E-01 0.  0.
         14    1    1    2    0    0 -0.11110059156E-01 -0.13147565203E-01  0.13860097306E-01  0.22099642137E-01  0.00000000000E+00 0. -1.
     999901    1    3    3    0    0  0.61496687854E-01 -0.95722398488E-01  0.41448047841E-01  0.88829193448E+00  0.88000000000E+00 0.  1.
        -11    1    4    4    0    0 -0.10959513036E-01  0.34970920702E-01 -0.86468110326E-02  0.37657730717E-01  0.51100000000E-03 0.  1.
         11    1    4    4    0    0 -0.39427115661E-01  0.73899042990E-01 -0.46661334115E-01  0.95880692668E-01  0.51100000000E-03 0. -1.
</event>
<event>
 8    1  0.1191842E+005  0.1043930E+01  0.7957747E-01            NaN
         13   -1    0    0    0    0  0.00000000000E+00  0.00000000000E+00  0.74505805969E-08  0.10566000000E+00  0.10566000000E+00 0. -1.
     999900   -1    0    0    0    0 -0.00000000000E+00 -0.00000000000E+00 -0.74505805969E-08  0.93827000000E+00  0.93827000000E+00 0.  1.
     999902    2    1    2    0    0  0.83307976818E-02 -0.22063576710E-03 -0.22447436803E-01  0.10199855165E+01  0.10197044256E+01 0.  0.
     999903    2    3    3    0    0  0.13228445532E-01 -0.61637044934E-01  0.10953285853E+00  0.12801311749E+00  0.20391029244E-01 0.  0.
         14    1    1    2    0    0 -0.83307976818E-02  0.22063576710E-03  0.22447436803E-01  0.23944483481E-01  0.00000000000E+00 0. -1.
     999901    1    3    3    0    0 -0.48976478500E-02  0.61416409167E-01 -0.13198029533E+00  0.89197239903E+00  0.88000000000E+00 0.  1.
        -11    1    4    4    0    0  0.17846300223E-01 -0.35955512300E-01  0.67654138589E-01  0.78667864376E-01  0.51100000000E-03 0.  1.
         11    1    4    4    0    0 -0.46178546911E-02 -0.25681532634E-01  0.41878719938E-01  0.49345253116E-01  0.51100000000E-03 0. -1.
</event>
<event>
 8    1  0.1191842E+005  0.1043930E+01  0.7957747E-01            NaN
         13   -1    0    0    0    0  0.00000000000E+00  0.00000000000E+00  0.74505805969E-08  0.10566000000E+00  0.10566000000E+00 0. -1.
     999900   -1    0    0    0    0 -0.00000000000E+00 -0.00000000000E+00 -0.74505805969E-08  0.93827000000E+00  0.93827000000E+00 0. -1.
     999902    2    1    2    0    0  0.85132773962E-02 -0.12242748018E-01  0.17376946760E-01  0.10210319859E+01  0.10207751942E+01 0.  0.
     999903    2    3    3    0    0 -0.11071085173E+00  0.38840167618E-02  0.67857404152E-01  0.13141254924E+00  0.19815461672E-01 0.  0.
         14    1    1    2    0    0 -0.85132773962E-02  0.12242748018E-01 -0.17376946760E-01  0.22898014101E-01  0.00000000000E+00 0. -1.
     999901    1    3    3    0    0  0.11922412913E+00 -0.16126764780E-01 -0.50480457392E-01  0.88961943666E+00  0.88000000000E+00 0. -1.
        -11    1    4    4    0    0 -0.32103669089E-01 -0.18507638640E-02  0.29973517161E-01  0.43962981562E-01  0.51100000000E-03 0.  1.
         11    1    4    4    0    0 -0.78607182643E-01  0.57347806259E-02  0.37883886991E-01  0.87449567675E-01  0.51100000000E-03 0. -1.
</event>
<event>
 8    1  0.1191842E+005  0.1043930E+01  0.7957747E-01            NaN
         13   -1    0    0    0    0  0.00000000000E+00  0.00000000000E+00  0.74505805969E-08  0.10566000000E+00  0.10566000000E+00 0.  1.
     999900   -1    0    0    0    0 -0.00000000000E+00 -0.00000000000E+00 -0.74505805969E-08  0.93827000000E+00  0.93827000000E+00 0.  1.
     999902    2    1    2    0    0 -0.13825022960E-01  0.16079367544E-01  0.12447650662E-01  0.10193409511E+01  0.10190443333E+01 0.  0.
     999903    2    3    3    0    0  0.21312976776E-01 -0.23699000457E-01 -0.12181391452E+00  0.12757687606E+00  0.20526663930E-01 0.  0.
         14    1    1    2    0    0  0.13825022960E-01 -0.16079367544E-01 -0.12447650662E-01  0.24589048933E-01  0.00000000000E+00 0. -1.
     999901    1    3    3    0    0 -0.35137999736E-01  0.39778368001E-01  0.13426156518E+00  0.89176407501E+00  0.88000000000E+00 0.  1.
        -11    1    4    4    0    0  0.13547458461E-01 -0.22331389303E-01 -0.62518069449E-01  0.67756879412E-01  0.51100000000E-03 0. -1.
         11    1    4    4    0    0  0.77655183148E-02 -0.13676111535E-02 -0.59295845074E-01  0.59819996649E-01  0.51100000000E-03 0.  1.
</event>
<event>
 8    1  0.1191842E+005  0.1043930E+01  0.7957747E-01            NaN
         13   -1    0    0    0    0  0.00000000000E+00  0.00000000000E+00  0.74505805969E-08  0.10566000000E+00  0.10566000000E+00 0.  1.
     999900   -1    0    0    0    0 -0.00000000000E+00 -0.00000000000E+00 -0.74505805969E-08  0.93827000000E+00  0.93827000000E+00 0.  1.
     999902    2    1    2    0    0 -0.97826927501E-02 -0.42099091410E-02  0.21262219682E-01  0.10201496216E+01  0.10198724155E+01 0.  0.
     999903    2    3    3    0    0 -0.50218686412E-01  0.49904180355E-01  0.11089842718E+00  0.13302051374E+00  0.19587042742E-01 0.  0.
         14    1    1    2    0    0  0.97826927501E-02  0.42099091410E-02 -0.21262219682E-01  0.23780378429E-01  0.00000000000E+00 0. -1.
     999901    1    3    3    0    0  0.40435993662E-01 -0.54114089496E-01 -0.89636207497E-01  0.88712910783E+00  0.88000000000E+00 0.  1.
        -11    1    4    4    0    0 -0.20709947795E-01  0.33659027648E-01  0.54424212147E-01  0.67261341562E-01  0.51100000000E-03 0.  1.
         11    1    4    4    0    0 -0.29508738618E-01  0.16245152707E-01  0.56474215031E-01  0.65759172179E-01  0.51100000000E-03 0. -1.
</event>
<event>
 8    1  0.1191842E+005  0.1043930E+01  0.7957747E-01            NaN
         13   -1    0    0    0    0  0.00000000000E+00  0.00000000000E+00  0.74505805969E-08  0.10566000000E+00  0.10566000000E+00 0. -1.
     999900   -1    0    0    0    0 -0.00000000000E+00 -0.00000000000E+00 -0.74505805969E-08  0.93827000000E+00  0.93827000000E+00 0.  1.
     999902    2    1    2    0    0 -0.20573550526E-01 -0.25013870333E-02  0.10561916723E-01  0.10206688306E+01  0.10204037337E+01 0.  0.
     999903    2    3    3    0    0  0.91444080108E-01 -0.47802791467E-01 -0.73534944812E-01  0.12843990875E+00  0.21030820051E-01 0.  0.
         14    1    1    2    0    0  0.20573550526E-01  0.25013870333E-02 -0.10561916723E-01  0.23261169429E-01  0.00000000000E+00 0.  1.
     999901    1    3    3    0    0 -0.11201763063E+00  0.45301404433E-01  0.84096861536E-01  0.89222892182E+00  0.88000000000E+00 0. -1.
        -11    1    4    4    0    0  0.36586011020E-01 -0.29243921577E-01 -0.39448782264E-01  0.61238963860E-01  0.51100000000E-03 0. -1.
         11    1    4    4    0    0  0.54858069087E-01 -0.18558869890E-01 -0.34086162548E-01  0.67200944888E-01  0.51100000000E-03 0.  1.
</event>
<event>
 8    1  0.1191842E+005  0.1043930E+01  0.7957747E-01            NaN
         13   -1    0    0    0    0  0.00000000000E+00  0.00000000000E+00  0.74505805969E-08  0.10566000000E+00  0.10566000000E+00 0.  1.
     999900   -1    0    0    0    0 -0.00000000000E+00 -0.00000000000E+00 -0.74505805969E-08  0.93827000000E+00  0.93827000000E+00 0. -1.
     999902    2    1    2    0    0 -0.65042934472E-03  0.16378608410E-01 -0.17459811625E-01  0.10199815785E+01  0.10197003940E+01 0.  0.
     999903    2    3    3    0    0 -0.12809858501E+00 -0.11465209328E-02 -0.43340384885E-02  0.13053093427E+00  0.24677498282E-01 0.  0.
         14    1    1    2    0    0  0.65042934472E-03 -0.16378608410E-01  0.17459811625E-01  0.23948421530E-01  0.00000000000E+00 0. -1.
     999901    1    3    3    0    0  0.12744815566E+00  0.17525129343E-01 -0.13125773137E-01  0.88945064420E+00  0.88000000000E+00 0.  1.
        -11    1    4    4    0    0 -0.37772152328E-01 -0.76826037715E-02  0.72637318509E-02  0.39227296792E-01  0.51100000000E-03 0. -1.
         11    1    4    4    0    0 -0.90326432680E-01  0.65360828386E-02 -0.11597770339E-01  0.91303637482E-01  0.51100000000E-03 0.  1.
</event>
<event>
 8    1  0.1191842E+005  0.1043930E+01  0.7957747E-01            NaN
         13   -1    0    0    0    0  0.00000000000E+00  0.00000000000E+00  0.74505805969E-08  0.10566000000E+00  0.10566000000E+00 0.  1.
     999900   -1    0    0    0    0 -0.00000000000E+00 -0.00000000000E+00 -0.74505805969E-08  0.93827000000E+00  0.93827000000E+00 0. -1.
     999902    2    1    2    0    0  0.17412634532E-01 -0.29553102057E-02 -0.15567631324E-01  0.10203867452E+01  0.10201151038E+01 0.  0.
     999903    2    3    3    0    0  0.82339177600E-01  0.10080284780E+00  0.26707899901E-02  0.13172828927E+00  0.20106088222E-01 0.  0.
         14    1    1    2    0    0 -0.17412634532E-01  0.29553102057E-02  0.15567631324E-01  0.23543254762E-01  0.00000000000E+00 0. -1.
     999901    1    3    3    0    0 -0.64926543068E-01 -0.10375815800E+00 -0.18238421314E-01  0.88865845597E+00  0.88000000000E+00 0.  1.
        -11    1    4    4    0    0  0.55823357899E-01  0.62121827730E-01  0.10507041645E-01  0.84178547224E-01  0.51100000000E-03 0. -1.
         11    1    4    4    0    0  0.26515819701E-01  0.38681020067E-01 -0.78362516553E-02  0.47549742048E-01  0.51100000000E-03 0.  1.
</event>
<event>
 8    1  0.1191842E+005  0.1043930E+01  0.7957747E-01            NaN
         13   -1    0    0    0    0  0.00000000000E+00  0.00000000000E+00  0.74505805969E-08  0.10566000000E+00  0.10566000000E+00 0.  1.
     999900   -1    0    0    0    0 -0.00000000000E+00 -0.00000000000E+00 -0.74505805969E-08  0.93827000000E+00  0.93827000000E+00 0.  1.
     999902    2    1    2    0    0 -0.92650566151E-02  0.52158832912E-02  0.20336018819E-01  0.10209822251E+01  0.10207243034E+01 0.  0.
     999903    2    3    3    0    0  0.11175877019E+00  0.57779354037E-01  0.30763948797E-01  0.13108423832E+00  0.20203478004E-01 0.  0.
         14    1    1    2    0    0  0.92650566151E-02 -0.52158832912E-02 -0.20336018819E-01  0.22947774925E-01  0.00000000000E+00 0. -1.
     999901    1    3    3    0    0 -0.12102382680E+00 -0.52563470746E-01 -0.10427929978E-01  0.88989798676E+00  0.88000000000E+00 0.  1.
        -11    1    4    4    0    0  0.18118358913E-01  0.13902759443E-01  0.12605246806E-01  0.26090515860E-01  0.51100000000E-03 0. -1.
         11    1    4    4    0    0  0.93640411273E-01  0.43876594595E-01  0.18158701991E-01  0.10499372246E+00  0.51100000000E-03 0.  1.
</event>
<event>
 8    1  0.1191842E+005  0.1043930E+01  0.7957747E-01            NaN
         13   -1    0    0    0    0  0.00000000000E+00  0.00000000000E+00  0.74505805969E-08  0.10566000000E+00  0.10566000000E+00 0.  1.
     999900   -1    0    0    0    0 -0.00000000000E+00 -0.00000000000E+00 -0.74505805969E-08  0.93827000000E+00  0.93827000000E+00 0.  1.
     999902    2    1    2    0    0  0.30225557104E-02 -0.89150549331E-02  0.21819494594E-01  0.10201664903E+01  0.10198896821E+01 0.  0.
     999903    2    3    3    0    0 -0.86865952291E-01 -0.35016351274E-01  0.92803497551E-01  0.13236023319E+00  0.11614802993E-01 0.  0.
         14    1    1    2    0    0 -0.30225557104E-02  0.89150549331E-02 -0.21819494594E-01  0.23763509669E-01  0.00000000000E+00 0. -1.
     999901    1    3    3    0    0  0.89888508001E-01  0.26101296341E-01 -0.70984002958E-01  0.88780625714E+00  0.88000000000E+00 0.  1.
        -11    1    4    4    0    0 -0.26099631368E-01 -0.14602238441E-01  0.35025761440E-01  0.46059539843E-01  0.51100000000E-03 0. -1.
         11    1    4    4    0    0 -0.60766320922E-01 -0.20414112833E-01  0.57777736111E-01  0.86300693348E-01  0.51100000000E-03 0.  1.
</event>
<event>
 8    1  0.1191842E+005  0.1043930E+01  0.7957747E-01            NaN
         13   -1    0    0    0    0  0.00000000000E+00  0.00000000000E+00  0.74505805969E-08  0.10566000000E+00  0.10566000000E+00 0.  1.
     999900   -1    0    0    0    0 -0.00000000000E+00 -0.00000000000E+00 -0.74505805969E-08  0.93827000000E+00  0.93827000000E+00 0.  1.
     999902    2    1    2    0    0  0.12187977364E-01 -0.17156937444E-01  0.84983158295E-02  0.10212335539E+01  0.10209813137E+01 0.  0.
     999903    2    3    3    0    0  0.42157562481E-01 -0.11389325689E+00  0.53726061325E-01  0.13427152510E+00  0.19834786283E-01 0.  0.
         14    1    1    2    0    0 -0.12187977364E-01  0.17156937444E-01 -0.84983158295E-02  0.22696446123E-01  0.00000000000E+00 0. -1.
     999901    1    3    3    0    0 -0.29969585117E-01  0.96736319448E-01 -0.45227745495E-01  0.88696202878E+00  0.88000000000E+00 0. -1.
        -11    1    4    4    0    0  0.29765147288E-01 -0.74166400680E-01  0.45112422348E-01  0.91771513848E-01  0.51100000000E-03 0. -1.
         11    1    4    4    0    0  0.12392415193E-01 -0.39726856212E-01  0.86136389769E-02  0.42500011250E-01  0.51100000000E-03 0.  1.
</event>
<event>
 8    1  0.1191842E+005  0.1043930E+01  0.7957747E-01            NaN
         13   -1    0    0    0    0  0.00000000000E+00  0.00000000000E+00  0.74505805969E-08  0.10566000000E+00  0.10566000000E+00 0. -1.
     999900   -1    0    0    0    0 -0.00000000000E+00 -0.00000000000E+00 -0.74505805969E-08  0.93827000000E+00  0.93827000000E+00 0. -1.
     999902    2    1    2    0    0  0.21119585115E-01  0.91037605080E-02 -0.10692394045E-01  0.10185677718E+01  0.10182519644E+01 0.  0.
     999903    2    3    3    0    0  0.18001045307E-01  0.86069072545E-01 -0.95159696178E-01  0.13117377264E+00  0.20476034063E-01 0.  0.
         14    1    1    2    0    0 -0.21119585115E-01 -0.91037605080E-02  0.10692394045E-01  0.25362228239E-01  0.00000000000E+00 0. -1.
     999901    1    3    3    0    0  0.31185398078E-02 -0.76965312037E-01  0.84467302133E-01  0.88739399912E+00  0.88000000000E+00 0.  1.
        -11    1    4    4    0    0  0.31103231196E-02  0.57946498973E-01 -0.55234969693E-01  0.80116376922E-01  0.51100000000E-03 0. -1.
         11    1    4    4    0    0  0.14890722187E-01  0.28122573572E-01 -0.39924726485E-01  0.51057395717E-01  0.51100000000E-03 0.  1.
</event>
<event>
 8    1  0.1191842E+005  0.1043930E+01  0.7957747E-01            NaN
         13   -1    0    0    0    0  0.00000000000E+00  0.00000000000E+00  0.74505805969E-08  0.10566000000E+00  0.10566000000E+00 0.  1.
     999900   -1    0    0    0    0 -0.00000000000E+00 -0.00000000000E+00 -0.74505805969E-08  0.93827000000E+00  0.93827000000E+00 0.  1.
     999902    2    1    2    0    0  0.56967349611E-02  0.32831061922E-02  0.21766064970E-01  0.10211925164E+01  0.10209393530E+01 0.  0.
     999903    2    3    3    0    0  0.82308228752E-01 -0.22195876660E-01 -0.95697326626E-01  0.12972398197E+00  0.20075649746E-01 0.  0.
         14    1    1    2    0    0 -0.56967349611E-02 -0.32831061922E-02 -0.21766064970E-01  0.22737483585E-01  0.00000000000E+00 0. -1.
     999901    1    3    3    0    0 -0.76611493791E-01  0.25478982852E-01  0.11746339160E+00  0.89146853445E+00  0.88000000000E+00 0. -1.
        -11    1    4    4    0    0  0.13146528298E-01 -0.86067505770E-02 -0.94704224035E-02  0.18353674926E-01  0.51100000000E-03 0.  1.
         11    1    4    4    0    0  0.69161700454E-01 -0.13589126083E-01 -0.86226904223E-01  0.11137030704E+00  0.51100000000E-03 0. -1.
</event>
<event>
 8    1  0.1191842E+005  0.1043930E+01  0.7957747E-01            NaN
         13   -1    0    0    0    0  0.00000000000E+00  0.00000000000E+00  0.74505805969E-08  0.10566000000E+00  0.10566000000E+00 0.  1.
     999900   -1    0    0    0    0 -0.00000000000E+00 -0.00000000000E+00 -0.74505805969E-08  0.93827000000E+00  0.93827000000E+00 0.  1.
     999902    2    1    2    0    0  0.84202435619E-02 -0.18551795004E-01 -0.10584701749E-01  0.10209712215E+01  0.10207130496E+01 0.  0.
     999903    2    3    3    0    0 -0.63075770995E-01  0.98130865141E-01 -0.52482205611E-01  0.12940971262E+00  0.19602862902E-01 0.  0.
         14    1    1    2    0    0 -0.84202435619E-02  0.18551795004E-01  0.10584701749E-01  0.22958778509E-01  0.00000000000E+00 0.  1.
     999901    1    3    3    0    0  0.71496014557E-01 -0.11668266014E+00  0.41897503862E-01  0.89156150887E+00  0.88000000000E+00 0. -1.
        -11    1    4    4    0    0 -0.47318741497E-01  0.72576068453E-01 -0.48005807400E-01  0.99051338577E-01  0.51100000000E-03 0. -1.
         11    1    4    4    0    0 -0.15757029498E-01  0.25554796688E-01 -0.44763982110E-02  0.30358374040E-01  0.51100000000E-03 0.  1.
</event>
<event>
 8    1  0.1191842E+005  0.1043930E+01  0.7957747E-01            NaN
         13   -1    0    0    0    0  0.00000000000E+00  0.00000000000E+00  0.74505805969E-08  0.10566000000E+00  0.10566000000E+00 0.  1.
     999900   -1    0    0    0    0 -0.00000000000E+00 -0.00000000000E+00 -0.74505805969E-08  0.93827000000E+00  0.93827000000E+00 0. -1.
     999902    2    1    2    0    0  0.64567257277E-02 -0.17987896944E-01  0.12281579465E-01  0.10212123650E+01  0.10209596484E+01 0.  0.
     999903    2    3    3    0    0 -0.94836084655E-01 -0.21708592786E-01  0.87304798378E-01  0.13222273609E+00  0.19889146970E-01 0.  0.
         14    1    1    2    0    0 -0.64567257277E-02  0.17987896944E-01 -0.12281579465E-01  0.22717634951E-01  0.00000000000E+00 0. -1.
     999901    1    3    3    0    0  0.10129281038E+00  0.37206958420E-02 -0.75023218913E-01  0.88898962895E+00  0.88000000000E+00 0. -1.
        -11    1    4    4    0    0 -0.58221692618E-01 -0.20298489098E-01  0.63574577938E-01  0.88565129888E-01  0.51100000000E-03 0.  1.
         11    1    4    4    0    0 -0.36614392037E-01 -0.14101036883E-02  0.23730220439E-01  0.43657606207E-01  0.51100000000E-03 0. -1.
</event>
<event>
 8    1  0.1191842E+005  0.1043930E+01  0.7957747E-01            NaN
         13   -1    0    0    0    0  0.00000000000E+00  0.00000000000E+00  0.74505805969E-08  0.10566000000E+00  0.10566000000E+00 0. -1.
     999900   -1    0    0    0    0 -0.00000000000E+00 -0.00000000000E+00 -0.74505805969E-08  0.93827000000E+00  0.93827000000E+00 0.  1.
     999902    2    1    2    0    0 -0.14525542798E-01  0.10878470718E-02 -0.20353169523E-01  0.10189014900E+01  0.10185940408E+01 0.  0.
     999903    2    3    3    0    0  0.62247922742E-01  0.92830594121E-01  0.57652355920E-01  0.12738830518E+00  0.20289481595E-01 0.  0.
         14    1    1    2    0    0  0.14525542798E-01 -0.10878470718E-02  0.20353169523E-01  0.25028510032E-01  0.00000000000E+00 0.  1.
     999901    1    3    3    0    0 -0.76773465540E-01 -0.91742747049E-01 -0.78005525443E-01  0.89151318479E+00  0.88000000000E+00 0.  1.
        -11    1    4    4    0    0  0.26960326696E-01  0.27595856425E-01  0.12504716771E-01  0.40558840836E-01  0.51100000000E-03 0.  1.
         11    1    4    4    0    0  0.35287596046E-01  0.65234737696E-01  0.45147639149E-01  0.86829464346E-01  0.51100000000E-03 0. -1.
</event>
<event>
 8    1  0.1191842E+005  0.1043930E+01  0.7957747E-01            NaN
         13   -1    0    0    0    0  0.00000000000E+00  0.00000000000E+00  0.74505805969E-08  0.10566000000E+00  0.10566000000E+00 0. -1.
     999900   -1    0    0    0    0 -0.00000000000E+00 -0.00000000000E+00 -0.74505805969E-08  0.93827000000E+00  0.93827000000E+00 0.  1.
     999902    2    1    2    0    0 -0.20055281153E-01 -0.28797800121E-03 -0.13277579040E-01  0.10198760744E+01  0.10195923772E+01 0.  0.
     999903    2    3    3    0    0 -0.10722441935E+00 -0.33680281092E-01 -0.68770820124E-01  0.13320082131E+00  0.19534473601E-01 0.  0.
         14    1    1    2    0    0  0.20055281153E-01  0.28797800121E-03  0.13277579040E-01  0.24053925638E-01  0.00000000000E+00 0. -1.
     999901    1    3    3    0    0  0.87169138198E-01  0.33392303091E-01  0.55493241084E-01  0.88667525305E+00  0.88000000000E+00 0. -1.
        -11    1    4    4    0    0 -0.98002846999E-01 -0.33251532636E-01 -0.68190023053E-01  0.12393693076E+00  0.51100000000E-03 0. -1.
         11    1    4    4    0    0 -0.92215723520E-02 -0.42874845649E-03 -0.58079707101E-03  0.92638905499E-02  0.51100000000E-03 0.  1.
</event>
<event>
 8    1  0.1191842E+005  0.1043930E+01  0.7957747E-01            NaN
         13   -1    0    0    0    0  0.00000000000E+00  0.00000000000E+00  0.74505805969E-08  0.10566000000E+00  0.10566000000E+00 0. -1.
     999900   -1    0    0    0    0 -0.00000000000E+00 -0.00000000000E+00 -0.74505805969E-08  0.93827000000E+00  0.93827000000E+00 0.  1.
     999902    2    1    2    0    0 -0.15030738727E-01  0.78167132645E-03  0.19094624659E-01  0.10196166537E+01  0.10193267296E+01 0.  0.
     999903    2    3    3    0    0 -0.80661901288E-02 -0.58119715744E-01 -0.11190680914E+00  0.12794448638E+00  0.20092109950E-01 0.  0.
         14    1    1    2    0    0  0.15030738727E-01 -0.78167132645E-03 -0.19094624659E-01  0.24313346286E-01  0.00000000000E+00 0. -1.
     999901    1    3    3    0    0 -0.69645485986E-02  0.58901387071E-01  0.13100143380E+00  0.89167216733E+00  0.88000000000E+00 0.  1.
        -11    1    4    4    0    0  0.61088169853E-02 -0.94040906374E-02 -0.18222457499E-01  0.21402655068E-01  0.51100000000E-03 0. -1.
         11    1    4    4    0    0 -0.14175007114E-01 -0.48715625107E-01 -0.93684351642E-01  0.10654183131E+00  0.51100000000E-03 0.  1.
</event>
<event>
 8    1  0.1191842E+005  0.1043930E+01  0.7957747E-01            NaN
         13   -1    0    0    0    0  0.00000000000E+00  0.00000000000E+00  0.74505805969E-08  0.10566000000E+00  0.10566000000E+00 0. -1.
     999900   -1    0    0    0    0 -0.00000000000E+00 -0.00000000000E+00 -0.74505805969E-08  0.93827000000E+00  0.93827000000E+00 0. -1.
     999902    2    1    2    0    0 -0.36059065229E-02  0.43474608539E-02  0.23026146104E-01  0.10202212172E+01  0.10199456974E+01 0.  0.
     999903    2    3    3    0    0  0.31449902001E-01 -0.11442180606E+00 -0.46081421083E-01  0.12886780562E+00  0.20049137616E-01 0.  0.
         14    1    1    2    0    0  0.36059065229E-02 -0.43474608539E-02 -0.23026146104E-01  0.23708782805E-01  0.00000000000E+00 0.  1.
     999901    1    3    3    0    0 -0.35055808524E-01  0.11876926692E+00  0.69107567186E-01  0.89135341157E+00  0.88000000000E+00 0.  1.
        -11    1    4    4    0    0  0.23502228148E-02 -0.19319029541E-01 -0.15287656225E-01  0.24753222084E-01  0.51100000000E-03 0. -1.
         11    1    4    4    0    0  0.29099679186E-01 -0.95102776521E-01 -0.30793764858E-01  0.10411458354E+00  0.51100000000E-03 0.  1.
</event>
<event>
 8    1  0.1191842E+005  0.1043930E+01  0.7957747E-01            NaN
         13   -1    0    0    0    0  0.00000000000E+00  0.00000000000E+00  0.74505805969E-08  0.10566000000E+00  0.10566000000E+00 0. -1.
     999900   -1    0    0    0    0 -0.00000000000E+00 -0.00000000000E+00 -0.74505805969E-08  0.93827000000E+00  0.93827000000E+00 0. -1.
     999902    2    1    2    0    0  0.14579320858E-01  0.37687619917E-02  0.18123260151E-01  0.10203670477E+01  0.10200949462E+01 0.  0.
     999903    2    3    3    0    0 -0.19167936007E-01  0.47054939691E-02 -0.12495501465E+00  0.12817247947E+00  0.20612553567E-01 0.  0.
         14    1    1    2    0    0 -0.14579320858E-01 -0.37687619917E-02 -0.18123260151E-01  0.23562952322E-01  0.00000000000E+00 0.  1.
     999901    1    3    3    0    0  0.33747256865E-01 -0.93673197746E-03  0.14307827480E+00  0.89219456820E+00  0.88000000000E+00 0.  1.
        -11    1    4    4    0    0  0.31853332596E-02 -0.19346725278E-02 -0.71343798456E-02  0.80653457797E-02  0.51100000000E-03 0.  1.
         11    1    4    4    0    0 -0.22353269266E-01  0.66401664970E-02 -0.11782063480E+00  0.12010713369E+00  0.51100000000E-03 0. -1.
</event>
<event>
 8    1  0.1191842E+005  0.1043930E+01  0.7957747E-01            NaN
         13   -1    0    0    0    0  0.00000000000E+00  0.00000000000E+00  0.74505805969E-08  0.10566000000E+00  0.10566000000E+00 0. -1.
     999900   -1    0    0    0    0 -0.00000000000E+00 -0.00000000000E+00 -0.74505805969E-08  0.93827000000E+00  0.93827000000E+00 0. -1.
     999902    2    1    2    0    0 -0.20958337540E-01 -0.46858028032E-02  0.10344358112E-01  0.10200927517E+01  0.10198142026E+01 0.  0.
     999903    2    3    3    0    0  0.12518688251E-01  0.11270446123E+00 -0.58162712592E-01  0.12902911535E+00  0.20164283670E-01 0.  0.
         14    1    1    2    0    0  0.20958337540E-01  0.46858028032E-02 -0.10344358112E-01  0.23837248270E-01  0.00000000000E+00 0. -1.
     999901    1    3    3    0    0 -0.33477025791E-01 -0.11739026403E+00  0.68507070705E-01  0.89106363638E+00  0.88000000000E+00 0.  1.
        -11    1    4    4    0    0  0.14111227788E-02  0.36131792129E-01 -0.87003661403E-02  0.37194827085E-01  0.51100000000E-03 0.  1.
         11    1    4    4    0    0  0.11107565472E-01  0.76572669097E-01 -0.49462346452E-01  0.91834288263E-01  0.51100000000E-03 0. -1.
</event>
<event>
 8    1  0.1191842E+005  0.1043930E+01  0.7957747E-01            NaN
         13   -1    0    0    0    0  0.00000000000E+00  0.00000000000E+00  0.74505805969E-08  0.10566000000E+00  0.10566000000E+00 0. -1.
     999900   -1    0    0    0    0 -0.00000000000E+00 -0.00000000000E+00 -0.74505805969E-08  0.93827000000E+00  0.93827000000E+00 0.  1.
     999902    2    1    2    0    0 -0.18362344633E-01  0.35083697679E-02 -0.12405760265E-01  0.10214937069E+01  0.10212472796E+01 0.  0.
     999903    2    3    3    0    0  0.79747695639E-02  0.78741251135E-01 -0.10508935561E+00  0.13304343884E+00  0.19824287527E-01 0.  0.
         14    1    1    2    0    0  0.18362344633E-01 -0.35083697679E-02  0.12405760265E-01  0.22436293067E-01  0.00000000000E+00 0. -1.
     999901    1    3    3    0    0 -0.26337114197E-01 -0.75232881367E-01  0.92683595348E-01  0.88845026809E+00  0.88000000000E+00 0. -1.
        -11    1    4    4    0    0  0.11491337992E-01  0.53004160359E-01 -0.59049132543E-01  0.80178257896E-01  0.51100000000E-03 0.  1.
         11    1    4    4    0    0 -0.35165684283E-02  0.25737090776E-01 -0.46040223070E-01  0.52865180946E-01  0.51100000000E-03 0. -1.
</event>
<event>
 8    1  0.1191842E+005  0.1043930E+01  0.7957747E-01            NaN
         13   -1    0    0    0    0  0.00000000000E+00  0.00000000000E+00  0.74505805969E-08  0.10566000000E+00  0.10566000000E+00 0. -1.
     999900   -1    0    0    0    0 -0.00000000000E+00 -0.00000000000E+00 -0.74505805969E-08  0.93827000000E+00  0.93827000000E+00 0. -1.
     999902    2    1    2    0    0 -0.12252918396E-01  0.18514106939E-01 -0.77984718542E-02  0.10203986947E+01  0.10201273322E+01 0.  0.
     999903    2    3    3    0    0  0.69809693752E-01  0.69948815534E-01 -0.84462641322E-01  0.13177211598E+00  0.21534220077E-01 0.  0.
         14    1    1    2    0    0  0.12252918396E-01 -0.18514106939E-01  0.77984718542E-02  0.23531305281E-01  0.00000000000E+00 0.  1.
     999901    1    3    3    0    0 -0.82062612149E-01 -0.51434708595E-01  0.76664169467E-01  0.88862657874E+00  0.88000000000E+00 0.  1.
        -11    1    4    4    0    0  0.55221630963E-01  0.42294278219E-01 -0.62965832178E-01  0.93825325148E-01  0.51100000000E-03 0.  1.
         11    1    4    4    0    0  0.14588062789E-01  0.27654537315E-01 -0.21496809144E-01  0.37946790832E-01  0.51100000000E-03 0. -1.
</event>
<event>
 8    1  0.1191842E+005  0.1043930E+01  0.7957747E-01            NaN
         13   -1    0    0    0    0  0.00000000000E+00  0.00000000000E+00  0.74505805969E-08  0.10566000000E+00  0.10566000000E+00 0.  1.
     999900   -1    0    0    0    0 -0.00000000000E+00 -0.00000000000E+00 -0.74505805969E-08  0.93827000000E+00  0.93827000000E+00 0.  1.
     999902    2    1    2    0    0 -0.21824019889E-01  0.30589345140E-02  0.69189795032E-02  0.10208320087E+01  0.10205706604E+01 0.  0.
     999903    2    3    3    0    0  0.69563642761E-01  0.54101606554E-01 -0.92132322087E-01  0.12910995582E+00  0.20369872189E-01 0.  0.
         14    1    1    2    0    0  0.21824019889E-01 -0.30589345140E-02 -0.69189795032E-02  0.23097991294E-01  0.00000000000E+00 0. -1.
     999901    1    3    3    0    0 -0.91387662650E-01 -0.51042672040E-01  0.99051301590E-01  0.89172205288E+00  0.88000000000E+00 0. -1.
        -11    1    4    4    0    0  0.16180169485E-01  0.23140008235E-01 -0.35370765245E-01  0.45261573334E-01  0.51100000000E-03 0.  1.
         11    1    4    4    0    0  0.53383473276E-01  0.30961598319E-01 -0.56761556842E-01  0.83848382487E-01  0.51100000000E-03 0. -1.
</event>
<event>
 8    1  0.1191842E+005  0.1043930E+01  0.7957747E-01            NaN
         13   -1    0    0    0    0  0.00000000000E+00  0.00000000000E+00  0.74505805969E-08  0.10566000000E+00  0.10566000000E+00 0. -1.
     999900   -1    0    0    0    0 -0.00000000000E+00 -0.00000000000E+00 -0.74505805969E-08  0.93827000000E+00  0.93827000000E+00 0.  1.
     999902    2    1    2    0    0  0.61490887058E-02 -0.21570759711E-01 -0.99079819252E-02  0.10194090483E+01  0.10191140911E+01 0.  0.
     999903    2    3    3    0    0 -0.72066553748E-01 -0.15672048595E-01  0.10365866533E+00  0.12865102005E+00  0.19151104077E-01 0.  0.
         14    1    1    2    0    0 -0.61490887058E-02  0.21570759711E-01  0.99079819252E-02  0.24520951700E-01  0.00000000000E+00 0. -1.
     999901    1    3    3    0    0  0.78215642453E-01 -0.58987111158E-02 -0.11356664725E+00  0.89075802825E+00  0.88000000000E+00 0. -1.
        -11    1    4    4    0    0 -0.31185641583E-01  0.68622235210E-03  0.33152153365E-01  0.45522978108E-01  0.51100000000E-03 0.  1.
         11    1    4    4    0    0 -0.40880912165E-01 -0.16358270947E-01  0.70506511962E-01  0.83128041946E-01  0.51100000000E-03 0. -1.
</event>
<event>
 8    1  0.1191842E+005  0.1043930E+01  0.7957747E-01            NaN
         13   -1    0    0    0    0  0.00000000000E+00  0.00000000000E+00  0.74505805969E-08  0.10566000000E+00  0.10566000000E+00 0. -1.
     999900   -1    0    0    0    0 -0.00000000000E+00 -0.00000000000E+00 -0.74505805969E-08  0.93827000000E+00  0.93827000000E+00 0. -1.
     999902    2    1    2    0    0 -0.12484360927E-01 -0.64146889322E-02  0.97670053179E-02  0.10268302370E+01  0.10266878463E+01 0.  0.
     999903    2    3    3    0    0  0.65490846236E-01 -0.75554094274E-01 -0.88859061478E-01  0.13520952652E+00  0.19703074699E-01 0.  0.
         14    1    1    2    0    0  0.12484360927E-01  0.64146889322E-02 -0.97670053179E-02  0.17099763002E-01  0.00000000000E+00 0.  1.
     999901    1    3    3    0    0 -0.77975207162E-01  0.69139405342E-01  0.98626066796E-01  0.89162071048E+00  0.88000000000E+00 0.  1.
        -11    1    4    4    0    0  0.16429917031E-01 -0.13655634013E-01 -0.29398538877E-01  0.36344927061E-01  0.51100000000E-03 0.  1.
         11    1    4    4    0    0  0.49060929204E-01 -0.61898460261E-01 -0.59460522601E-01  0.98864599458E-01  0.51100000000E-03 0. -1.
</event>
<event>
 8    1  0.1191842E+005  0.1043930E+01  0.7957747E-01            NaN
         13   -1    0    0    0    0  0.00000000000E+00  0.00000000000E+00  0.74505805969E-08  0.10566000000E+00  0.10566000000E+00 0. -1.
     999900   -1    0    0    0    0 -0.00000000000E+00 -0.00000000000E+00 -0.74505805969E-08  0.93827000000E+00  0.93827000000E+00 0.  1.
     999902    2    1    2    0    0  0.55452492099E-02 -0.20322409027E-01  0.27150008489E-02  0.10226903831E+01  0.10224698031E+01 0.  0.
     999903    2    3    3    0    0 -0.58029374477E-02  0.33372007055E-01 -0.12404074001E+00  0.13191606289E+00  0.29468246107E-01 0.  0.
         14    1    1    2    0    0 -0.55452492099E-02  0.20322409027E-01 -0.27150008489E-02  0.21239616923E-01  0.00000000000E+00 0.  1.
     999901    1    3    3    0    0  0.11348186658E-01 -0.53694416082E-01  0.12675574086E+00  0.89077432018E+00  0.88000000000E+00 0. -1.
        -11    1    4    4    0    0 -0.17361682332E-01  0.18904612050E-01 -0.83191508926E-01  0.87062624866E-01  0.51100000000E-03 0.  1.
         11    1    4    4    0    0  0.11558744885E-01  0.14467395006E-01 -0.40849231085E-01  0.44853438026E-01  0.51100000000E-03 0. -1.
</event>
<event>
 8    1  0.1191842E+005  0.1043930E+01  0.7957747E-01            NaN
         13   -1    0    0    0    0  0.00000000000E+00  0.00000000000E+00  0.74505805969E-08  0.10566000000E+00  0.10566000000E+00 0. -1.
     999900   -1    0    0    0    0 -0.00000000000E+00 -0.00000000000E+00 -0.74505805969E-08  0.93827000000E+00  0.93827000000E+00 0.  1.
     999902    2    1    2    0    0  0.21049620575E-02  0.61956730557E-02 -0.23387523646E-01  0.10196443357E+01  0.10193550793E+01 0.  0.
     999903    2    3    3    0    0 -0.73160702502E-01  0.24428368922E-01  0.99815439448E-01  0.12769348412E+00  0.19831044732E-01 0.  0.
         14    1    1    2    0    0 -0.21049620575E-02 -0.61956730557E-02  0.23387523646E-01  0.24285664335E-01  0.00000000000E+00 0.  1.
     999901    1    3    3    0    0  0.75265664560E-01 -0.18232695866E-01 -0.12320296309E+00  0.89195085155E+00  0.88000000000E+00 0.  1.
        -11    1    4    4    0    0 -0.57429788190E-01  0.24321853789E-01  0.88665972457E-01  0.10840502265E+00  0.51100000000E-03 0.  1.
         11    1    4    4    0    0 -0.15730914312E-01  0.10651513280E-03  0.11149466992E-01  0.19288461467E-01  0.51100000000E-03 0. -1.
</event>
<event>
 8    1  0.1191842E+005  0.1043930E+01  0.7957747E-01            NaN
         13   -1    0    0    0    0  0.00000000000E+00  0.00000000000E+00  0.74505805969E-08  0.10566000000E+00  0.10566000000E+00 0. -1.
     999900   -1    0    0    0    0 -0.00000000000E+00 -0.00000000000E+00 -0.74505805969E-08  0.93827000000E+00  0.93827000000E+00 0.  1.
     999902    2    1    2    0    0 -0.23555102076E-03  0.53815623855E-02  0.22952716596E-01  0.10203536581E+01  0.10200812437E+01 0.  0.
     999903    2    3    3    0    0  0.85863982408E-01 -0.43957384582E-01  0.88027667609E-01  0.13238845012E+00  0.21747559083E-01 0.  0.
         14    1    1    2    0    0  0.23555102076E-03 -0.53815623855E-02 -0.22952716596E-01  0.23576341894E-01  0.00000000000E+00 0.  1.
     999901    1    3    3    0    0 -0.86099533428E-01  0.49338946968E-01 -0.65074951013E-01  0.88796520799E+00  0.88000000000E+00 0.  1.
        -11    1    4    4    0    0  0.16633203963E-01 -0.16778755636E-01  0.29167981198E-01  0.37539610586E-01  0.51100000000E-03 0.  1.
         11    1    4    4    0    0  0.69230778444E-01 -0.27178628946E-01  0.58859686412E-01  0.94848839534E-01  0.51100000000E-03 0. -1.
</event>
<event>
 8    1  0.1191842E+005  0.1043930E+01  0.7957747E-01            NaN
         13   -1    0    0    0    0  0.00000000000E+00  0.00000000000E+00  0.74505805969E-08  0.10566000000E+00  0.10566000000E+00 0. -1.
     999900   -1    0    0    0    0 -0.00000000000E+00 -0.00000000000E+00 -0.74505805969E-08  0.93827000000E+00  0.93827000000E+00 0. -1.
     999902    2    1    2    0    0  0.14992973839E-01  0.11214613565E-01 -0.16341312477E-01  0.10190785349E+01  0.10187754733E+01 0.  0.
     999903    2    3    3    0    0  0.73544021685E-01 -0.10372033761E+00  0.11644251999E-01  0.12923503184E+00  0.19986827923E-01 0.  0.
         14    1    1    2    0    0 -0.14992973839E-01 -0.11214613565E-01  0.16341312477E-01  0.24851465055E-01  0.00000000000E+00 0. -1.
     999901    1    3    3    0    0 -0.58551047846E-01  0.11493495117E+00 -0.27985564476E-01  0.88984350311E+00  0.88000000000E+00 0.  1.
        -11    1    4    4    0    0  0.19484950863E-01 -0.29612528786E-01 -0.56168694592E-02  0.35893948164E-01  0.51100000000E-03 0.  1.
         11    1    4    4    0    0  0.54059070822E-01 -0.74107808820E-01  0.17261121458E-01  0.93341083673E-01  0.51100000000E-03 0. -1.
</event>
<event>
 8    1  0.1191842E+005  0.1043930E+01  0.7957747E-01            NaN
         13   -1    0    0    0    0  0.00000000000E+00  0.00000000000E+00  0.74505805969E-08  0.10566000000E+00  0.10566000000E+00 0. -1.
     999900   -1    0    0    0    0 -0.00000000000E+00 -0.00000000000E+00 -0.74505805969E-08  0.93827000000E+00  0.93827000000E+00 0. -1.
     999902    2    1    2    0    0  0.15503311074E-01 -0.58276493904E-03  0.16999649974E-01  0.10209152141E+01  0.10206557667E+01 0.  0.
     999903    2    3    3    0    0 -0.29919210402E-01  0.96697220610E-01  0.81028253611E-01  0.13208099836E+00  0.25185325487E-01 0.  0.
         14    1    1    2    0    0 -0.15503311074E-01  0.58276493904E-03 -0.16999649974E-01  0.23014785866E-01  0.00000000000E+00 0.  1.
     999901    1    3    3    0    0  0.45422521476E-01 -0.97279985549E-01 -0.64028603636E-01  0.88883421577E+00  0.88000000000E+00 0. -1.
        -11    1    4    4    0    0 -0.22439193219E-01  0.39030628812E-01  0.25851490602E-01  0.51917897349E-01  0.51100000000E-03 0. -1.
         11    1    4    4    0    0 -0.74800171829E-02  0.57666591798E-01  0.55176763009E-01  0.80163101011E-01  0.51100000000E-03 0.  1.
</event>
<event>
 8    1  0.1191842E+005  0.1043930E+01  0.7957747E-01            NaN
         13   -1    0    0    0    0  0.00000000000E+00  0.00000000000E+00  0.74505805969E-08  0.10566000000E+00  0.10566000000E+00 0.  1.
     999900   -1    0    0    0    0 -0.00000000000E+00 -0.00000000000E+00 -0.74505805969E-08  0.93827000000E+00  0.93827000000E+00 0. -1.
     999902    2    1    2    0    0 -0.96411575204E-02 -0.34435727041E-02 -0.22805989127E-01  0.10189315350E+01  0.10186248327E+01 0.  0.
     999903    2    3    3    0    0 -0.91968179456E-01  0.52347314248E-02  0.87257060233E-01  0.12822006303E+00  0.18467310487E-01 0.  0.
         14    1    1    2    0    0  0.96411575204E-02  0.34435727041E-02  0.22805989127E-01  0.24998464980E-01  0.00000000000E+00 0.  1.
     999901    1    3    3    0    0  0.82327021936E-01 -0.86783041289E-02 -0.11006304936E+00  0.89071147199E+00  0.88000000000E+00 0. -1.
        -11    1    4    4    0    0 -0.67774906582E-01  0.75938997671E-02  0.73569247105E-01  0.10031849539E+00  0.51100000000E-03 0. -1.
         11    1    4    4    0    0 -0.24193272875E-01 -0.23591683423E-02  0.13687813129E-01  0.27901567642E-01  0.51100000000E-03 0.  1.
</event>
<event>
 8    1  0.1191842E+005  0.1043930E+01  0.7957747E-01            NaN
         13   -1    0    0    0    0  0.00000000000E+00  0.00000000000E+00  0.74505805969E-08  0.10566000000E+00  0.10566000000E+00 0.  1.
     999900   -1    0    0    0    0 -0.00000000000E+00 -0.00000000000E+00 -0.74505805969E-08  0.93827000000E+00  0.93827000000E+00 0.  1.
     999902    2    1    2    0    0 -0.14393231754E-01 -0.56557951708E-02  0.18082030357E-01  0.10201368716E+01  0.10198593647E+01 0.  0.
     999903    2    3    3    0    0  0.11269742921E+00  0.40539430888E-01  0.45651487679E-01  0.12938095101E+00  0.17641319359E-01 0.  0.
         14    1    1    2    0    0  0.14393231754E-01  0.56557951708E-02 -0.18082030357E-01  0.23793128445E-01  0.00000000000E+00 0. -1.
     999901    1    3    3    0    0 -0.12709066096E+00 -0.46195226059E-01 -0.27569457322E-01  0.89075592055E+00  0.88000000000E+00 0. -1.
        -11    1    4    4    0    0  0.38599194280E-01  0.22586682821E-01  0.19304790364E-01  0.48713366666E-01  0.51100000000E-03 0. -1.
         11    1    4    4    0    0  0.74098234930E-01  0.17952748067E-01  0.26346697315E-01  0.80667584341E-01  0.51100000000E-03 0.  1.
</event>
<event>
 8    1  0.1191842E+005  0.1043930E+01  0.7957747E-01            NaN
         13   -1    0    0    0    0  0.00000000000E+00  0.00000000000E+00  0.74505805969E-08  0.10566000000E+00  0.10566000000E+00 0.  1.
     999900   -1    0    0    0    0 -0.00000000000E+00 -0.00000000000E+00 -0.74505805969E-08  0.93827000000E+00  0.93827000000E+00 0. -1.
     999902    2    1    2    0    0 -0.64911721220E-02 -0.99253516650E-02  0.19548737813E-01  0.10210651564E+01  0.10208091166E+01 0.  0.
     999903    2    3    3    0    0 -0.10749581648E+00 -0.74634467688E-01  0.11876973894E-01  0.13289396582E+00  0.19851682924E-01 0.  0.
         14    1    1    2    0    0  0.64911721220E-02  0.99253516650E-02 -0.19548737813E-01  0.22864843565E-01  0.00000000000E+00 0. -1.
     999901    1    3    3    0    0  0.10100464436E+00  0.64709116023E-01  0.76717639184E-02  0.88817119062E+00  0.88000000000E+00 0.  1.
        -11    1    4    4    0    0 -0.76080069808E-01 -0.41381969900E-01  0.71824099905E-02  0.86905078039E-01  0.51100000000E-03 0. -1.
         11    1    4    4    0    0 -0.31415746671E-01 -0.33252497787E-01  0.46945639038E-02  0.45988887780E-01  0.51100000000E-03 0.  1.
</event>
<event>
 8    1  0.1191842E+005  0.1043930E+01  0.7957747E-01            NaN
         13   -1    0    0    0    0  0.00000000000E+00  0.00000000000E+00  0.74505805969E-08  0.10566000000E+00  0.10566000000E+00 0. -1.
     999900   -1    0    0    0    0 -0.00000000000E+00 -0.00000000000E+00 -0.74505805969E-08  0.93827000000E+00  0.93827000000E+00 0.  1.
     999902    2    1    2    0    0 -0.13061116495E-01 -0.15216019465E-01  0.11844576327E-01  0.10206402168E+01  0.10203744598E+01 0.  0.
     999903    2    3    3    0    0  0.63883862090E-01  0.80532882096E-01 -0.73641065682E-01  0.12800581412E+00  0.19894445466E-01 0.  0.
         14    1    1    2    0    0  0.13061116495E-01  0.15216019465E-01 -0.11844576327E-01  0.23289783185E-01  0.00000000000E+00 0. -1.
     999901    1    3    3    0    0 -0.76944978585E-01 -0.95748901560E-01  0.85485642009E-01  0.89263440269E+00  0.88000000000E+00 0. -1.
        -11    1    4    4    0    0  0.64639434648E-02  0.37186337485E-02 -0.68610648961E-03  0.75061751369E-02  0.51100000000E-03 0.  1.
         11    1    4    4    0    0  0.57419918625E-01  0.76814248347E-01 -0.72954959192E-01  0.12049963899E+00  0.51100000000E-03 0. -1.
</event>
<event>
 8    1  0.1191842E+005  0.1043930E+01  0.7957747E-01            NaN
         13   -1    0    0    0    0  0.00000000000E+00  0.00000000000E+00  0.74505805969E-08  0.10566000000E+00  0.10566000000E+00 0.  1.
     999900   -1    0    0    0    0 -0.00000000000E+00 -0.00000000000E+00 -0.74505805969E-08  0.93827000000E+00  0.93827000000E+00 0.  1.
     999902    2    1    2    0    0 -0.14860599990E-02 -0.56006518035E-02  0.22672760156E-01  0.10205285101E+01  0.10202601679E+01 0.  0.
     999903    2    3    3    0    0  0.24722659116E-01  0.84029774827E-01  0.96490310228E-01  0.13251412904E+00  0.24029180070E-01 0.  0.
         14    1    1    2    0    0  0.14860599990E-02  0.56006518035E-02 -0.22672760156E-01  0.23401489868E-01  0.00000000000E+00 0. -1.
     999901    1    3    3    0    0 -0.26208719115E-01 -0.89630426630E-01 -0.73817550072E-01  0.88801438110E+00  0.88000000000E+00 0.  1.
        -11    1    4    4    0    0  0.12933727352E-01  0.23012831843E-01  0.16182496358E-01  0.30967822688E-01  0.51100000000E-03 0. -1.
         11    1    4    4    0    0  0.11788931765E-01  0.61016942984E-01  0.80307813870E-01  0.10154630635E+00  0.51100000000E-03 0.  1.
</event>
<event>
 8    1  0.1191842E+005  0.1043930E+01  0.7957747E-01            NaN
         13   -1    0    0    0    0  0.00000000000E+00  0.00000000000E+00  0.74505805969E-08  0.10566000000E+00  0.10566000000E+00 0. -1.
     999900   -1    0    0    0    0 -0.00000000000E+00 -0.00000000000E+00 -0.74505805969E-08  0.93827000000E+00  0.93827000000E+00 0.  1.
     999902    2    1    2    0    0  0.12434082826E-01  0.14953397938E-01 -0.13350919621E-01  0.10203406469E+01  0.10200679282E+01 0.  0.
     999903    2    3    3    0    0 -0.39334222527E-01  0.12429528577E+00  0.33023622804E-02  0.13190779198E+00  0.19805576554E-01 0.  0.
         14    1    1    2    0    0 -0.12434082826E-01 -0.14953397938E-01  0.13350919621E-01  0.23589353114E-01  0.00000000000E+00 0. -1.
     999901    1    3    3    0    0  0.51768305353E-01 -0.10934188783E+00 -0.16653281902E-01  0.88843285490E+00  0.88000000000E+00 0.  1.
        -11    1    4    4    0    0 -0.22525336828E-01  0.40092500572E-01  0.33931060777E-03  0.45991038845E-01  0.51100000000E-03 0.  1.
         11    1    4    4    0    0 -0.16808885699E-01  0.84202785198E-01  0.29630516727E-02  0.85916753138E-01  0.51100000000E-03 0. -1.
</event>
<event>
 8    1  0.1191842E+005  0.1043930E+01  0.7957747E-01            NaN
         13   -1    0    0    0    0  0.00000000000E+00  0.00000000000E+00  0.74505805969E-08  0.10566000000E+00  0.10566000000E+00 0. -1.
     999900   -1    0    0    0    0 -0.00000000000E+00 -0.00000000000E+00 -0.74505805969E-08  0.93827000000E+00  0.93827000000E+00 0.  1.
     999902    2    1    2    0    0 -0.17633138759E-01  0.56616584369E-03  0.15912173590E-01  0.10201719404E+01  0.10198952606E+01 0.  0.
     999903    2    3    3    0    0 -0.94526136802E-01  0.57533136610E-01 -0.67936757569E-01  0.13102155261E+00  0.17492623344E-01 0.  0.
         14    1    1    2    0    0  0.17633138759E-01 -0.56616584369E-03 -0.15912173590E-01  0.23758059572E-01  0.00000000000E+00 0.  1.
     999901    1    3    3    0    0  0.76892998043E-01 -0.56966970767E-01  0.83848931159E-01  0.88915038782E+00  0.88000000000E+00 0. -1.
        -11    1    4    4    0    0 -0.58581353563E-02  0.55145345305E-02 -0.50484673585E-03  0.80773654224E-02  0.51100000000E-03 0.  1.
         11    1    4    4    0    0 -0.88668001446E-01  0.52018602080E-01 -0.67431910833E-01  0.12294418718E+00  0.51100000000E-03 0. -1.
</event>
<event>
 8    1  0.1191842E+005  0.1043930E+01  0.7957747E-01            NaN
         13   -1    0    0    0    0  0.00000000000E+00  0.00000000000E+00  0.74505805969E-08  0.10566000000E+00  0.10566000000E+00 0.  1.
     999900   -1    0    0    0    0 -0.00000000000E+00 -0.00000000000E+00 -0.74505805969E-08  0.93827000000E+00  0.93827000000E+00 0. -1.
     999902    2    1    2    0    0 -0.18583819616E-01  0.13774755632E-01 -0.10743200459E-01  0.10184247339E+01  0.10181053089E+01 0.  0.
     999903    2    3    3    0    0  0.10756637590E+00 -0.21044186490E-01 -0.61293247256E-01  0.12731220574E+00  0.20932094058E-01 0.  0.
         14    1    1    2    0    0  0.18583819616E-01 -0.13774755632E-01  0.10743200459E-01  0.25505266129E-01  0.00000000000E+00 0. -1.
     999901    1    3    3    0    0 -0.12615019552E+00  0.34818942121E-01  0.50550046796E-01  0.89111252813E+00  0.88000000000E+00 0.  1.
        -11    1    4    4    0    0  0.65688066768E-01 -0.10097810392E-01 -0.48156992372E-01  0.82074630220E-01  0.51100000000E-03 0. -1.
         11    1    4    4    0    0  0.41878309134E-01 -0.10946376097E-01 -0.13136254883E-01  0.45237575520E-01  0.51100000000E-03 0.  1.
</event>
<event>
 8    1  0.1191842E+005  0.1043930E+01  0.7957747E-01            NaN
         13   -1    0    0    0    0  0.00000000000E+00  0.00000000000E+00  0.74505805969E-08  0.10566000000E+00  0.10566000000E+00 0.  1.
     999900   -1    0    0    0    0 -0.00000000000E+00 -0.00000000000E+00 -0.74505805969E-08  0.93827000000E+00  0.93827000000E+00 0.  1.
     999902    2    1    2    0    0 -0.15171988295E-03 -0.40580145523E-02 -0.23665353338E-01  0.10199187641E+01  0.10196360850E+01 0.  0.
     999903    2    3    3    0    0  0.47933868158E-02  0.11499585874E+00  0.53257795770E-01  0.12856280282E+00  0.21094486832E-01 0.  0.
         14    1    1    2    0    0  0.15171988295E-03  0.40580145523E-02  0.23665353338E-01  0.24011235904E-01  0.00000000000E+00 0.  1.
     999901    1    3    3    0    0 -0.49451066987E-02 -0.11905387329E+00 -0.76923149107E-01  0.89135596127E+00  0.88000000000E+00 0.  1.
        -11    1    4    4    0    0  0.81538763876E-02  0.16062698167E-01  0.83022602220E-02  0.19841487302E-01  0.51100000000E-03 0. -1.
         11    1    4    4    0    0 -0.33604895718E-02  0.98933160575E-01  0.44955535548E-01  0.10872131552E+00  0.51100000000E-03 0.  1.
</event>
<event>
 8    1  0.1191842E+005  0.1043930E+01  0.7957747E-01            NaN
         13   -1    0    0    0    0  0.00000000000E+00  0.00000000000E+00  0.74505805969E-08  0.10566000000E+00  0.10566000000E+00 0.  1.
     999900   -1    0    0    0    0 -0.00000000000E+00 -0.00000000000E+00 -0.74505805969E-08  0.93827000000E+00  0.93827000000E+00 0.  1.
     999902    2    1    2    0    0  0.94717075923E-02 -0.20995446791E-01  0.52935367163E-02  0.10202964738E+01  0.10200227207E+01 0.  0.
     999903    2    3    3    0    0 -0.52581219808E-01  0.16961163780E-01  0.11619155405E+00  0.13035847575E+00  0.20985452435E-01 0.  0.
         14    1    1    2    0    0 -0.94717075923E-02  0.20995446791E-01 -0.52935367163E-02  0.23633526221E-01  0.00000000000E+00 0.  1.
     999901    1    3    3    0    0  0.62052927400E-01 -0.37956610571E-01 -0.11089801734E+00  0.88993799803E+00  0.88000000000E+00 0.  1.
        -11    1    4    4    0    0 -0.22787128781E-02  0.77627336161E-03  0.23760233718E-01  0.23887338907E-01  0.51100000000E-03 0. -1.
         11    1    4    4    0    0 -0.50302506930E-01  0.16184890418E-01  0.92431320334E-01  0.10647113684E+00  0.51100000000E-03 0.  1.
</event>
<event>
 8    1  0.1191842E+005  0.1043930E+01  0.7957747E-01            NaN
         13   -1    0    0    0    0  0.00000000000E+00  0.00000000000E+00  0.74505805969E-08  0.10566000000E+00  0.10566000000E+00 0.  1.
     999900   -1    0    0    0    0 -0.00000000000E+00 -0.00000000000E+00 -0.74505805969E-08  0.93827000000E+00  0.93827000000E+00 0. -1.
     999902    2    1    2    0    0  0.35716040273E-02  0.13081510720E-01 -0.18312253806E-01  0.10211435804E+01  0.10208893137E+01 0.  0.
     999903    2    3    3    0    0 -0.10955675945E+00 -0.54657798905E-01 -0.42222180717E-01  0.13099846567E+00  0.19690783183E-01 0.  0.
         14    1    1    2    0    0 -0.35716040273E-02 -0.13081510720E-01  0.18312253806E-01  0.22786419585E-01  0.00000000000E+00 0.  1.
     999901    1    3    3    0    0  0.11312836348E+00  0.67739309625E-01  0.23909926911E-01  0.89014511474E+00  0.88000000000E+00 0.  1.
        -11    1    4    4    0    0 -0.85178821725E-01 -0.33555810998E-01 -0.27847638394E-01  0.95693135634E-01  0.51100000000E-03 0.  1.
         11    1    4    4    0    0 -0.24377937724E-01 -0.21101987907E-01 -0.14374542323E-01  0.35305330041E-01  0.51100000000E-03 0. -1.
</event>
<event>
 8    1  0.1191842E+005  0.1043930E+01  0.7957747E-01            NaN
         13   -1    0    0    0    0  0.00000000000E+00  0.00000000000E+00  0.74505805969E-08  0.10566000000E+00  0.10566000000E+00 0.  1.
     999900   -1    0    0    0    0 -0.00000000000E+00 -0.00000000000E+00 -0.74505805969E-08  0.93827000000E+00  0.93827000000E+00 0.  1.
     999902    2    1    2    0    0 -0.19045649981E-01  0.12137024405E-01 -0.87718266327E-02  0.10197021423E+01  0.10194142779E+01 0.  0.
     999903    2    3    3    0    0 -0.12037249552E+00 -0.31236873976E-01 -0.39538794240E-01  0.13229297460E+00  0.21744767311E-01 0.  0.
         14    1    1    2    0    0  0.19045649981E-01 -0.12137024405E-01  0.87718266327E-02  0.24227857666E-01  0.00000000000E+00 0.  1.
     999901    1    3    3    0    0  0.10132684553E+00  0.43373898381E-01  0.30766967607E-01  0.88740916774E+00  0.88000000000E+00 0. -1.
        -11    1    4    4    0    0 -0.74193153587E-01 -0.24790338218E-01 -0.34137966602E-01  0.85351313949E-01  0.51100000000E-03 0. -1.
         11    1    4    4    0    0 -0.46179341929E-01 -0.64465357584E-02 -0.54008276386E-02  0.46941660649E-01  0.51100000000E-03 0.  1.
</event>
<event>
 8    1  0.1191842E+005  0.1043930E+01  0.7957747E-01            NaN
         13   -1    0    0    0    0  0.00000000000E+00  0.00000000000E+00  0.74505805969E-08  0.10566000000E+00  0.10566000000E+00 0. -1.
     999900   -1    0    0    0    0 -0.00000000000E+00 -0.00000000000E+00 -0.74505805969E-08  0.93827000000E+00  0.93827000000E+00 0. -1.
     999902    2    1    2    0    0  0.19588352421E-01  0.42243344930E-02  0.12539261268E-01  0.10202914377E+01  0.10200175667E+01 0.  0.
     999903    2    3    3    0    0  0.11918562311E+00 -0.18743611959E-01  0.53303979933E-01  0.13343806475E+00  0.20195719935E-01 0.  0.
         14    1    1    2    0    0 -0.19588352421E-01 -0.42243344930E-02 -0.12539261268E-01  0.23638562258E-01  0.00000000000E+00 0. -1.
     999901    1    3    3    0    0 -0.99597270687E-01  0.22967946452E-01 -0.40764718664E-01  0.88685337299E+00  0.88000000000E+00 0. -1.
        -11    1    4    4    0    0  0.69086655735E-01 -0.12605453367E-01  0.20205822672E-01  0.73078039424E-01  0.51100000000E-03 0.  1.
         11    1    4    4    0    0  0.50098967373E-01 -0.61381585921E-02  0.33098157261E-01  0.60360025330E-01  0.51100000000E-03 0. -1.
</event>
<event>
 8    1  0.1191842E+005  0.1043930E+01  0.7957747E-01            NaN
         13   -1    0    0    0    0  0.00000000000E+00  0.00000000000E+00  0.74505805969E-08  0.10566000000E+00  0.10566000000E+00 0.  1.
     999900   -1    0    0    0    0 -0.00000000000E+00 -0.00000000000E+00 -0.74505805969E-08  0.93827000000E+00  0.93827000000E+00 0. -1.
     999902    2    1    2    0    0 -0.71475135792E-02  0.25143723850E-01  0.61892914976E-02  0.10170673656E+01  0.10167125577E+01 0.  0.
     999903    2    3    3    0    0 -0.55131081015E-01  0.11406970991E+00  0.26517745910E-01  0.13105184663E+00  0.20495385920E-01 0.  0.
         14    1    1    2    0    0  0.71475135792E-02 -0.25143723850E-01 -0.61892914976E-02  0.26862634433E-01  0.00000000000E+00 0.  1.
     999901    1    3    3    0    0  0.47983567436E-01 -0.88925986059E-01 -0.20328454412E-01  0.88601551894E+00  0.88000000000E+00 0. -1.
        -11    1    4    4    0    0 -0.12402581387E-01  0.47175158756E-01  0.13490104109E-01  0.50611892462E-01  0.51100000000E-03 0.  1.
         11    1    4    4    0    0 -0.42728499628E-01  0.66894551154E-01  0.13027641801E-01  0.80439954167E-01  0.51100000000E-03 0. -1.
</event>
<event>
 8    1  0.1191842E+005  0.1043930E+01  0.7957747E-01            NaN
         13   -1    0    0    0    0  0.00000000000E+00  0.00000000000E+00  0.74505805969E-08  0.10566000000E+00  0.10566000000E+00 0.  1.
     999900   -1    0    0    0    0 -0.00000000000E+00 -0.00000000000E+00 -0.74505805969E-08  0.93827000000E+00  0.93827000000E+00 0. -1.
     999902    2    1    2    0    0 -0.91658334252E-02 -0.19169546978E-01 -0.10892379482E-01  0.10200526475E+01  0.10197731491E+01 0.  0.
     999903    2    3    3    0    0  0.12725733409E+00 -0.14244071548E-01 -0.54200839839E-02  0.12951040424E+00  0.18607655450E-01 0.  0.
         14    1    1    2    0    0  0.91658334252E-02  0.19169546978E-01  0.10892379482E-01  0.23877352544E-01  0.00000000000E+00 0.  1.
     999901    1    3    3    0    0 -0.13642316751E+00 -0.49254754307E-02 -0.54722954977E-02  0.89054224322E+00  0.88000000000E+00 0. -1.
        -11    1    4    4    0    0  0.85633826299E-01 -0.35731554778E-02 -0.10014231696E-01  0.86292905874E-01  0.51100000000E-03 0.  1.
         11    1    4    4    0    0  0.41623507789E-01 -0.10670916070E-01  0.45941477117E-02  0.43217498362E-01  0.51100000000E-03 0. -1.
</event>
<event>
 8    1  0.1191842E+005  0.1043930E+01  0.7957747E-01            NaN
         13   -1    0    0    0    0  0.00000000000E+00  0.00000000000E+00  0.74505805969E-08  0.10566000000E+00  0.10566000000E+00 0. -1.
     999900   -1    0    0    0    0 -0.00000000000E+00 -0.00000000000E+00 -0.74505805969E-08  0.93827000000E+00  0.93827000000E+00 0. -1.
     999902    2    1    2    0    0  0.20324878518E-01  0.10408680042E-01  0.75570461355E-03  0.10210824094E+01  0.10208267602E+01 0.  0.
     999903    2    3    3    0    0 -0.24586601062E-01  0.11500372123E+00 -0.56338177587E-01  0.13191601607E+00  0.19937105925E-01 0.  0.
         14    1    1    2    0    0 -0.20324878518E-01 -0.10408680042E-01 -0.75570461355E-03  0.22847590605E-01  0.00000000000E+00 0.  1.
     999901    1    3    3    0    0  0.44911479581E-01 -0.10459504119E+00  0.57093882201E-01  0.88916639333E+00  0.88000000000E+00 0.  1.
        -11    1    4    4    0    0 -0.15482230021E-01  0.10324138520E+00 -0.49434109018E-01  0.11550963302E+00  0.51100000000E-03 0.  1.
         11    1    4    4    0    0 -0.91043710412E-02  0.11762336025E-01 -0.69040685690E-02  0.16406383046E-01  0.51100000000E-03 0. -1.
</event>
<event>
 8    1  0.1191842E+005  0.1043930E+01  0.7957747E-01            NaN
         13   -1    0    0    0    0  0.00000000000E+00  0.00000000000E+00  0.74505805969E-08  0.10566000000E+00  0.10566000000E+00 0. -1.
     999900   -1    0    0    0    0 -0.00000000000E+00 -0.00000000000E+00 -0.74505805969E-08  0.93827000000E+00  0.93827000000E+00 0.  1.
     999902    2    1    2    0    0 -0.19518871730E-01  0.11157129393E-01 -0.60950272470E-02  0.10206358538E+01  0.10203699960E+01 0.  0.
     999903    2    3    3    0    0 -0.63596667208E-01  0.89535508550E-01  0.71754102455E-01  0.13263444087E+00  0.19547386392E-01 0.  0.
         14    1    1    2    0    0  0.19518871730E-01 -0.11157129393E-01  0.60950272470E-02  0.23294146197E-01  0.00000000000E+00 0. -1.
     999901    1    3    3    0    0  0.44077795479E-01 -0.78378379157E-01 -0.77849129702E-01  0.88800141293E+00  0.88000000000E+00 0.  1.
        -11    1    4    4    0    0 -0.46428374141E-01  0.59570024406E-01  0.58907136533E-01  0.95783576821E-01  0.51100000000E-03 0. -1.
         11    1    4    4    0    0 -0.17168293067E-01  0.29965484144E-01  0.12846965922E-01  0.36850864050E-01  0.51100000000E-03 0.  1.
</event>
<event>
 8    1  0.1191842E+005  0.1043930E+01  0.7957747E-01            NaN
         13   -1    0    0    0    0  0.00000000000E+00  0.00000000000E+00  0.74505805969E-08  0.10566000000E+00  0.10566000000E+00 0. -1.
     999900   -1    0    0    0    0 -0.00000000000E+00 -0.00000000000E+00 -0.74505805969E-08  0.93827000000E+00  0.93827000000E+00 0.  1.
     999902    2    1    2    0    0  0.92808628058E-02 -0.21040145707E-01  0.35094853576E-02  0.10206676133E+01  0.10204024884E+01 0.  0.
     999903    2    3    3    0    0  0.11426078129E+00  0.38908842667E-01 -0.46917363119E-01  0.13097242310E+00  0.19573259077E-01 0.  0.
         14    1    1    2    0    0 -0.92808628058E-02  0.21040145707E-01 -0.35094853576E-02  0.23262386663E-01  0.00000000000E+00 0.  1.
     999901    1    3    3    0    0 -0.10497991848E+00 -0.59948988374E-01  0.50426848477E-01  0.88969519024E+00  0.88000000000E+00 0. -1.
        -11    1    4    4    0    0  0.38584435088E-01  0.70669262622E-02 -0.22914682686E-01  0.45431749708E-01  0.51100000000E-03 0.  1.
         11    1    4    4    0    0  0.75676346201E-01  0.31841916405E-01 -0.24002680433E-01  0.85540673388E-01  0.51100000000E-03 0. -1.
</event>
<event>
 8    1  0.1191842E+005  0.1043930E+01  0.7957747E-01            NaN
         13   -1    0    0    0    0  0.00000000000E+00  0.00000000000E+00  0.74505805969E-08  0.10566000000E+00  0.10566000000E+00 0. -1.
     999900   -1    0    0    0    0 -0.00000000000E+00 -0.00000000000E+00 -0.74505805969E-08  0.93827000000E+00  0.93827000000E+00 0.  1.
     999902    2    1    2    0    0  0.21548229475E-01  0.40175005287E-02  0.89826204172E-02  0.10202413113E+01  0.10199662638E+01 0.  0.
     999903    2    3    3    0    0 -0.42161136060E-01  0.19290911528E-01  0.12046241156E+00  0.13079209734E+00  0.21111121817E-01 0.  0.
         14    1    1    2    0    0 -0.21548229475E-01 -0.40175005287E-02 -0.89826204172E-02  0.23688688726E-01  0.00000000000E+00 0.  1.
     999901    1    3    3    0    0  0.63709365534E-01 -0.15273410999E-01 -0.11147979115E+00  0.88944921394E+00  0.88000000000E+00 0.  1.
        -11    1    4    4    0    0 -0.34439913885E-01  0.11815789883E-01  0.66982190864E-01  0.76240380200E-01  0.51100000000E-03 0.  1.
         11    1    4    4    0    0 -0.77212221741E-02  0.74751216453E-02  0.53480220700E-01  0.54551717137E-01  0.51100000000E-03 0. -1.
</event>
<event>
 8    1  0.1191842E+005  0.1043930E+01  0.7957747E-01            NaN
         13   -1    0    0    0    0  0.00000000000E+00  0.00000000000E+00  0.74505805969E-08  0.10566000000E+00  0.10566000000E+00 0. -1.
     999900   -1    0    0    0    0 -0.00000000000E+00 -0.00000000000E+00 -0.74505805969E-08  0.93827000000E+00  0.93827000000E+00 0. -1.
     999902    2    1    2    0    0 -0.20244561632E-01 -0.28069617873E-02 -0.78973499153E-02  0.10220190565E+01  0.10217841564E+01 0.  0.
     999903    2    3    3    0    0  0.80509985758E-01  0.93865206101E-01  0.33114086223E-01  0.13006674567E+00  0.22984362083E-01 0.  0.
         14    1    1    2    0    0  0.20244561632E-01  0.28069617873E-02  0.78973499153E-02  0.21910943518E-01  0.00000000000E+00 0. -1.
     999901    1    3    3    0    0 -0.10075454739E+00 -0.96672167888E-01 -0.41011436139E-01  0.89195231081E+00  0.88000000000E+00 0. -1.
        -11    1    4    4    0    0  0.57691128970E-01  0.73092362486E-01  0.15108089173E-01  0.94335970314E-01  0.51100000000E-03 0. -1.
         11    1    4    4    0    0  0.22818856789E-01  0.20772843614E-01  0.18005997050E-01  0.35730775359E-01  0.51100000000E-03 0.  1.
</event>
<event>
 8    1  0.1191842E+005  0.1043930E+01  0.7957747E-01            NaN
         13   -1    0    0    0    0  0.00000000000E+00  0.00000000000E+00  0.74505805969E-08  0.10566000000E+00  0.10566000000E+00 0. -1.
     999900   -1    0    0    0    0 -0.00000000000E+00 -0.00000000000E+00 -0.74505805969E-08  0.93827000000E+00  0.93827000000E+00 0. -1.
     999902    2    1    2    0    0  0.12104691435E-02  0.88432211216E-02 -0.22412055141E-01  0.10198059868E+01  0.10195206142E+01 0.  0.
     999903    2    3    3    0    0 -0.63206213733E-01  0.96907585078E-01 -0.61143616947E-01  0.13222220200E+00  0.18922560816E-01 0.  0.
         14    1    1    2    0    0 -0.12104691435E-02 -0.88432211216E-02  0.22412055141E-01  0.24124013161E-01  0.00000000000E+00 0. -1.
     999901    1    3    3    0    0  0.64416682876E-01 -0.88064363956E-01  0.38731561806E-01  0.88758378484E+00  0.88000000000E+00 0.  1.
        -11    1    4    4    0    0 -0.16743965891E-01  0.14990811019E-01 -0.17156542285E-01  0.28278841436E-01  0.51100000000E-03 0. -1.
         11    1    4    4    0    0 -0.46462247842E-01  0.81916774059E-01 -0.43987074662E-01  0.10394336056E+00  0.51100000000E-03 0.  1.
</event>
<event>
 8    1  0.1191842E+005  0.1043930E+01  0.7957747E-01            NaN
         13   -1    0    0    0    0  0.00000000000E+00  0.00000000000E+00  0.74505805969E-08  0.10566000000E+00  0.10566000000E+00 0.  1.
     999900   -1    0    0    0    0 -0.00000000000E+00 -0.00000000000E+00 -0.74505805969E-08  0.93827000000E+00  0.93827000000E+00 0. -1.
     999902    2    1    2    0    0  0.15558444780E-01  0.15891586303E-01  0.91855025912E-02  0.10198679723E+01  0.10195840817E+01 0.  0.
     999903    2    3    3    0    0  0.82349755122E-01  0.40102068550E-01  0.95230210129E-01  0.13282179634E+00  0.13534348570E-01 0.  0.
         14    1    1    2    0    0 -0.15558444780E-01 -0.15891586303E-01 -0.91855025912E-02  0.24062027701E-01  0.00000000000E+00 0. -1.
     999901    1    3    3    0    0 -0.66791310342E-01 -0.24210482247E-01 -0.86044707538E-01  0.88704617596E+00  0.88000000000E+00 0. -1.
        -11    1    4    4    0    0  0.39076056162E-01  0.16998500160E-01  0.53629793316E-01  0.68500387042E-01  0.51100000000E-03 0. -1.
         11    1    4    4    0    0  0.43273698960E-01  0.23103568390E-01  0.41600416813E-01  0.64321409298E-01  0.51100000000E-03 0.  1.
</event>
<event>
 8    1  0.1191842E+005  0.1043930E+01  0.7957747E-01            NaN
         13   -1    0    0    0    0  0.00000000000E+00  0.00000000000E+00  0.74505805969E-08  0.10566000000E+00  0.10566000000E+00 0.  1.
     999900   -1    0    0    0    0 -0.00000000000E+00 -0.00000000000E+00 -0.74505805969E-08  0.93827000000E+00  0.93827000000E+00 0. -1.
     999902    2    1    2    0    0 -0.21948979234E-02  0.11066349050E-01 -0.21522173931E-01  0.10196300899E+01  0.10193404901E+01 0.  0.
     999903    2    3    3    0    0  0.11444925525E+00 -0.38305831591E-01 -0.44798679936E-01  0.13025656525E+00  0.19846468347E-01 0.  0.
         14    1    1    2    0    0  0.21948979234E-02 -0.11066349050E-01  0.21522173931E-01  0.24299910059E-01  0.00000000000E+00 0.  1.
     999901    1    3    3    0    0 -0.11664415317E+00  0.49372180641E-01  0.23276506005E-01  0.88937352469E+00  0.88000000000E+00 0.  1.
        -11    1    4    4    0    0  0.69806656724E-01 -0.22538409555E-01 -0.16821879502E-01  0.75260786464E-01  0.51100000000E-03 0. -1.
         11    1    4    4    0    0  0.44642598524E-01 -0.15767422036E-01 -0.27976800434E-01  0.54995778785E-01  0.51100000000E-03 0.  1.
</event>
<event>
 7    1  0.1191842E+005  0.1043930E+01  0.7957747E-01            NaN
         13   -1    0    0    0    0  0.00000000000E+00  0.00000000000E+00  0.74505805969E-08  0.10566000000E+00  0.10566000000E+00 0. -1.
     999900   -1    0    0    0    0 -0.00000000000E+00 -0.00000000000E+00 -0.74505805969E-08  0.93827000000E+00  0.93827000000E+00 0.  1.
     999903    2    1    2    0    0  0.33412155924E-01 -0.93708278602E-01 -0.62369043602E-02  0.10158964893E+00  0.19594492874E-01 0.  0.
         14    1    1    2    0    0 -0.14343659434E-01  0.77463725849E-02 -0.53502434403E-01  0.55930826395E-01  0.00000000000E+00 0.  1.
     999901    1    1    2    0    0 -0.19068496490E-01  0.85961906017E-01  0.59739338763E-01  0.88640952468E+00  0.88000000000E+00 0.  1.
        -11    1    3    3    0    0  0.14425708005E-01 -0.29446609854E-01  0.63622271507E-02  0.33405732123E-01  0.51100000000E-03 0.  1.
         11    1    3    3    0    0  0.18986447918E-01 -0.64261668748E-01 -0.12599131511E-01  0.68183916804E-01  0.51100000000E-03 0. -1.
</event>
<event>
 8    1  0.1191842E+005  0.1043930E+01  0.7957747E-01            NaN
         13   -1    0    0    0    0  0.00000000000E+00  0.00000000000E+00  0.74505805969E-08  0.10566000000E+00  0.10566000000E+00 0. -1.
     999900   -1    0    0    0    0 -0.00000000000E+00 -0.00000000000E+00 -0.74505805969E-08  0.93827000000E+00  0.93827000000E+00 0. -1.
     999902    2    1    2    0    0  0.28195743002E-02  0.13791428044E-01  0.22444258330E-01  0.10174366382E+01  0.10170916451E+01 0.  0.
     999903    2    3    3    0    0 -0.54336385192E-01  0.86966023816E-01  0.78702318138E-01  0.13076516892E+00  0.19746960975E-01 0.  0.
         14    1    1    2    0    0 -0.28195743002E-02 -0.13791428044E-01 -0.22444258330E-01  0.26493361786E-01  0.00000000000E+00 0. -1.
     999901    1    3    3    0    0  0.57155959492E-01 -0.73174595772E-01 -0.56258059807E-01  0.88667146930E+00  0.88000000000E+00 0. -1.
        -11    1    4    4    0    0 -0.48215123093E-01  0.85317202561E-01  0.75002592435E-01  0.12340734638E+00  0.51100000000E-03 0. -1.
         11    1    4    4    0    0 -0.61212620985E-02  0.16488212546E-02  0.36997257027E-02  0.73578225368E-02  0.51100000000E-03 0.  1.
</event>
<event>
 8    1  0.1191842E+005  0.1043930E+01  0.7957747E-01            NaN
         13   -1    0    0    0    0  0.00000000000E+00  0.00000000000E+00  0.74505805969E-08  0.10566000000E+00  0.10566000000E+00 0.  1.
     999900   -1    0    0    0    0 -0.00000000000E+00 -0.00000000000E+00 -0.74505805969E-08  0.93827000000E+00  0.93827000000E+00 0. -1.
     999902    2    1    2    0    0 -0.41244541266E-03  0.53801122375E-02 -0.23162028542E-01  0.10201477527E+01  0.10198705026E+01 0.  0.
     999903    2    3    3    0    0 -0.58158091369E-01  0.28468725046E-01 -0.11464154248E+00  0.13322264589E+00  0.20316451929E-01 0.  0.
         14    1    1    2    0    0  0.41244541266E-03 -0.53801122375E-02  0.23162028542E-01  0.23782247267E-01  0.00000000000E+00 0.  1.
     999901    1    3    3    0    0  0.57745645957E-01 -0.23088612809E-01  0.91479513941E-01  0.88692510684E+00  0.88000000000E+00 0.  1.
        -11    1    4    4    0    0 -0.34063822492E-01  0.57553259224E-02 -0.53448144214E-01  0.63643012344E-01  0.51100000000E-03 0.  1.
         11    1    4    4    0    0 -0.24094268877E-01  0.22713399124E-01 -0.61193398269E-01  0.69579633551E-01  0.51100000000E-03 0. -1.
</event>
<event>
 8    1  0.1191842E+005  0.1043930E+01  0.7957747E-01            NaN
         13   -1    0    0    0    0  0.00000000000E+00  0.00000000000E+00  0.74505805969E-08  0.10566000000E+00  0.10566000000E+00 0. -1.
     999900   -1    0    0    0    0 -0.00000000000E+00 -0.00000000000E+00 -0.74505805969E-08  0.93827000000E+00  0.93827000000E+00 0.  1.
     999902    2    1    2    0    0 -0.21984904608E-01  0.94879270645E-03 -0.11066521421E-01  0.10192986351E+01  0.10190009831E+01 0.  0.
     999903    2    3    3    0    0  0.11545891270E+00 -0.48717184776E-01 -0.77571137809E-02  0.12724008078E+00  0.20633485584E-01 0.  0.
         14    1    1    2    0    0  0.21984904608E-01 -0.94879270645E-03  0.11066521421E-01  0.24631364855E-01  0.00000000000E+00 0. -1.
     999901    1    3    3    0    0 -0.13744381731E+00  0.49665977482E-01 -0.33094076405E-02  0.89205855436E+00  0.88000000000E+00 0.  1.
        -11    1    4    4    0    0  0.55475084826E-01 -0.32300904862E-01 -0.10196562961E-01  0.65000496218E-01  0.51100000000E-03 0. -1.
         11    1    4    4    0    0  0.59983827879E-01 -0.16416279914E-01  0.24394491797E-02  0.62239584562E-01  0.51100000000E-03 0.  1.
</event>
<event>
 8    1  0.1191842E+005  0.1043930E+01  0.7957747E-01            NaN
         13   -1    0    0    0    0  0.00000000000E+00  0.00000000000E+00  0.74505805969E-08  0.10566000000E+00  0.10566000000E+00 0.  1.
     999900   -1    0    0    0    0 -0.00000000000E+00 -0.00000000000E+00 -0.74505805969E-08  0.93827000000E+00  0.93827000000E+00 0. -1.
     999902    2    1    2    0    0 -0.18305989883E-01 -0.12183204147E-01 -0.86986338621E-02  0.10202824640E+01  0.10200083825E+01 0.  0.
     999903    2    3    3    0    0 -0.92396074862E-01  0.54614978791E-01 -0.74453763916E-01  0.13220866352E+00  0.20394538222E-01 0.  0.
         14    1    1    2    0    0  0.18305989883E-01  0.12183204147E-01  0.86986338621E-02  0.23647536023E-01  0.00000000000E+00 0. -1.
     999901    1    3    3    0    0  0.74090084980E-01 -0.66798182938E-01  0.65755130054E-01  0.88807380046E+00  0.88000000000E+00 0. -1.
        -11    1    4    4    0    0 -0.47894175711E-01  0.18548971246E-01 -0.28289823950E-01  0.58638653306E-01  0.51100000000E-03 0.  1.
         11    1    4    4    0    0 -0.44501899151E-01  0.36066007546E-01 -0.46163939966E-01  0.73570010211E-01  0.51100000000E-03 0. -1.
</event>
<event>
 8    1  0.1191842E+005  0.1043930E+01  0.7957747E-01            NaN
         13   -1    0    0    0    0  0.00000000000E+00  0.00000000000E+00  0.74505805969E-08  0.10566000000E+00  0.10566000000E+00 0. -1.
     999900   -1    0    0    0    0 -0.00000000000E+00 -0.00000000000E+00 -0.74505805969E-08  0.93827000000E+00  0.93827000000E+00 0.  1.
     999902    2    1    2    0    0  0.18826351780E-02 -0.13549485529E-01 -0.58158250429E-02  0.10290653879E+01  0.10289580243E+01 0.  0.
     999903    2    3    3    0    0  0.64617712500E-01 -0.45121292346E-01 -0.11358863540E+00  0.13971312493E+00  0.20149426676E-01 0.  0.
         14    1    1    2    0    0 -0.18826351780E-02  0.13549485529E-01  0.58158250429E-02  0.14864612146E-01  0.00000000000E+00 0.  1.
     999901    1    3    3    0    0 -0.62735077322E-01  0.31571806816E-01  0.10777281035E+00  0.88935226292E+00  0.88000000000E+00 0.  1.
        -11    1    4    4    0    0  0.41016550625E-01 -0.29940142261E-01 -0.55678467326E-01  0.75359952153E-01  0.51100000000E-03 0.  1.
         11    1    4    4    0    0  0.23601161876E-01 -0.15181150085E-01 -0.57910168071E-01  0.64353172779E-01  0.51100000000E-03 0. -1.
</event>
<event>
 8    1  0.1191842E+005  0.1043930E+01  0.7957747E-01            NaN
         13   -1    0    0    0    0  0.00000000000E+00  0.00000000000E+00  0.74505805969E-08  0.10566000000E+00  0.10566000000E+00 0.  1.
     999900   -1    0    0    0    0 -0.00000000000E+00 -0.00000000000E+00 -0.74505805969E-08  0.93827000000E+00  0.93827000000E+00 0.  1.
     999902    2    1    2    0    0 -0.51264352563E-02  0.21652276349E-01  0.16346520646E-01  0.10163200354E+01  0.10159449317E+01 0.  0.
     999903    2    3    3    0    0 -0.41156314732E-01 -0.55849944652E-01  0.10504210388E+00  0.12774159035E+00  0.21702805266E-01 0.  0.
         14    1    1    2    0    0  0.51264352563E-02 -0.21652276349E-01 -0.16346520646E-01  0.27609964628E-01  0.00000000000E+00 0. -1.
     999901    1    3    3    0    0  0.36029879476E-01  0.77502221002E-01 -0.88695583237E-01  0.88857844502E+00  0.88000000000E+00 0.  1.
        -11    1    4    4    0    0 -0.20912448022E-01 -0.24980846707E-01  0.68207004913E-01  0.75589879115E-01  0.51100000000E-03 0.  1.
         11    1    4    4    0    0 -0.20243866711E-01 -0.30869097946E-01  0.36835098970E-01  0.52151711233E-01  0.51100000000E-03 0. -1.
</event>
<event>
 8    1  0.1191842E+005  0.1043930E+01  0.7957747E-01            NaN
         13   -1    0    0    0    0  0.00000000000E+00  0.00000000000E+00  0.74505805969E-08  0.10566000000E+00  0.10566000000E+00 0.  1.
     999900   -1    0    0    0    0 -0.00000000000E+00 -0.00000000000E+00 -0.74505805969E-08  0.93827000000E+00  0.93827000000E+00 0. -1.
     999902    2    1    2    0    0 -0.22900870386E-02 -0.22713666814E-01  0.72307839748E-02  0.10199834053E+01  0.10197022643E+01 0.  0.
     999903    2    3    3    0    0 -0.10409019372E+00 -0.26483815188E-01  0.73456253953E-01  0.13163477524E+00  0.19893011594E-01 0.  0.
         14    1    1    2    0    0  0.22900870386E-02  0.22713666814E-01 -0.72307839748E-02  0.23946594657E-01  0.00000000000E+00 0. -1.
     999901    1    3    3    0    0  0.10180010668E+00  0.37701483740E-02 -0.66225469978E-01  0.88834863011E+00  0.88000000000E+00 0. -1.
        -11    1    4    4    0    0 -0.70353624688E-01 -0.10953104793E-01  0.56040470842E-01  0.90611249326E-01  0.51100000000E-03 0. -1.
         11    1    4    4    0    0 -0.33736569035E-01 -0.15530710395E-01  0.17415783111E-01  0.41023525909E-01  0.51100000000E-03 0.  1.
</event>
<event>
 8    1  0.1191842E+005  0.1043930E+01  0.7957747E-01            NaN
         13   -1    0    0    0    0  0.00000000000E+00  0.00000000000E+00  0.74505805969E-08  0.10566000000E+00  0.10566000000E+00 0. -1.
     999900   -1    0    0    0    0 -0.00000000000E+00 -0.00000000000E+00 -0.74505805969E-08  0.93827000000E+00  0.93827000000E+00 0.  1.
     999902    2    1    2    0    0  0.84734372268E-03 -0.38346663942E-02 -0.23368064021E-01  0.10202342393E+01  0.10199590257E+01 0.  0.
     999903    2    3    3    0    0  0.17761547363E-01  0.11983216579E+00 -0.45919187388E-01  0.13114024608E+00  0.20346298120E-01 0.  0.
         14    1    1    2    0    0 -0.84734372268E-03  0.38346663942E-02  0.23368064021E-01  0.23695760672E-01  0.00000000000E+00 0. -1.
     999901    1    3    3    0    0 -0.16914203640E-01 -0.12366683219E+00  0.22551123367E-01  0.88909399325E+00  0.88000000000E+00 0. -1.
        -11    1    4    4    0    0  0.63410090057E-02  0.89105881353E-01 -0.27168026164E-01  0.93372529437E-01  0.51100000000E-03 0.  1.
         11    1    4    4    0    0  0.11420538357E-01  0.30726284442E-01 -0.18751161225E-01  0.37767716640E-01  0.51100000000E-03 0. -1.
</event>
<event>
 8    1  0.1191842E+005  0.1043930E+01  0.7957747E-01            NaN
         13   -1    0    0    0    0  0.00000000000E+00  0.00000000000E+00  0.74505805969E-08  0.10566000000E+00  0.10566000000E+00 0. -1.
     999900   -1    0    0    0    0 -0.00000000000E+00 -0.00000000000E+00 -0.74505805969E-08  0.93827000000E+00  0.93827000000E+00 0. -1.
     999902    2    1    2    0    0  0.20148647405E-01  0.99990297952E-02 -0.75471845754E-02  0.10202043054E+01  0.10199283878E+01 0.  0.
     999903    2    3    3    0    0  0.32881802442E-01  0.61147361858E-01  0.10881304055E+00  0.13098105610E+00  0.22260873055E-01 0.  0.
         14    1    1    2    0    0 -0.20148647405E-01 -0.99990297952E-02  0.75471845754E-02  0.23725694597E-01  0.00000000000E+00 0. -1.
     999901    1    3    3    0    0 -0.12733155038E-01 -0.51148332063E-01 -0.11636022513E+00  0.88922324930E+00  0.88000000000E+00 0. -1.
        -11    1    4    4    0    0  0.11732284558E-01  0.43858791328E-01  0.72371871382E-01  0.85435291104E-01  0.51100000000E-03 0. -1.
         11    1    4    4    0    0  0.21149517884E-01  0.17288570530E-01  0.36441169168E-01  0.45545764996E-01  0.51100000000E-03 0.  1.
</event>
<event>
 8    1  0.1191842E+005  0.1043930E+01  0.7957747E-01            NaN
         13   -1    0    0    0    0  0.00000000000E+00  0.00000000000E+00  0.74505805969E-08  0.10566000000E+00  0.10566000000E+00 0. -1.
     999900   -1    0    0    0    0 -0.00000000000E+00 -0.00000000000E+00 -0.74505805969E-08  0.93827000000E+00  0.93827000000E+00 0. -1.
     999902    2    1    2    0    0 -0.11542801680E-01 -0.21769517672E-01 -0.35464288089E-02  0.10190357170E+01  0.10187315972E+01 0.  0.
     999903    2    3    3    0    0  0.49036926073E-01  0.11228190645E+00  0.23668884522E-01  0.12641017342E+00  0.20185866704E-01 0.  0.
         14    1    1    2    0    0  0.11542801680E-01  0.21769517672E-01  0.35464288089E-02  0.24894283030E-01  0.00000000000E+00 0. -1.
     999901    1    3    3    0    0 -0.60579727753E-01 -0.13405142412E+00 -0.27215313331E-01  0.89262554355E+00  0.88000000000E+00 0. -1.
        -11    1    4    4    0    0  0.46847962035E-02  0.22966694359E-01  0.10962083727E-01  0.25881359429E-01  0.51100000000E-03 0. -1.
         11    1    4    4    0    0  0.44352129869E-01  0.89315212088E-01  0.12706800794E-01  0.10052881399E+00  0.51100000000E-03 0.  1.
</event>
<event>
 8    1  0.1191842E+005  0.1043930E+01  0.7957747E-01            NaN
         13   -1    0    0    0    0  0.00000000000E+00  0.00000000000E+00  0.74505805969E-08  0.10566000000E+00  0.10566000000E+00 0.  1.
     999900   -1    0    0    0    0 -0.00000000000E+00 -0.00000000000E+00 -0.74505805969E-08  0.93827000000E+00  0.93827000000E+00 0. -1.
     999902    2    1    2    0    0 -0.71356475594E-02  0.28543614295E-02 -0.22327217902E-01  0.10203170903E+01  0.10200438203E+01 0.  0.
     999903    2    3    3    0    0 -0.12126852115E+00 -0.37191600882E-01 -0.32579467254E-01  0.13198432576E+00  0.16406436638E-01 0.  0.
         14    1    1    2    0    0  0.71356475594E-02 -0.28543614295E-02  0.22327217902E-01  0.23612909700E-01  0.00000000000E+00 0.  1.
     999901    1    3    3    0    0  0.11413287359E+00  0.40045962312E-01  0.10252249352E-01  0.88833276454E+00  0.88000000000E+00 0. -1.
        -11    1    4    4    0    0 -0.98155738228E-01 -0.36506685023E-01 -0.25323414844E-01  0.10774425024E+00  0.51100000000E-03 0.  1.
         11    1    4    4    0    0 -0.23112782921E-01 -0.68491585952E-03 -0.72560524095E-02  0.24240075529E-01  0.51100000000E-03 0. -1.
</event>
<event>
 8    1  0.1191842E+005  0.1043930E+01  0.7957747E-01            NaN
         13   -1    0    0    0    0  0.00000000000E+00  0.00000000000E+00  0.74505805969E-08  0.10566000000E+00  0.10566000000E+00 0.  1.
     999900   -1    0    0    0    0 -0.00000000000E+00 -0.00000000000E+00 -0.74505805969E-08  0.93827000000E+00  0.93827000000E+00 0. -1.
     999902    2    1    2    0    0 -0.77864327252E-02 -0.12965503022E-01 -0.17986686264E-01  0.10204299216E+01  0.10201592872E+01 0.  0.
     999903    2    3    3    0    0 -0.56268791413E-01 -0.89662748766E-01  0.74319717937E-01  0.13096183397E+00  0.20542543166E-01 0.  0.
         14    1    1    2    0    0  0.77864327252E-02  0.12965503022E-01  0.17986686264E-01  0.23500078425E-01  0.00000000000E+00 0.  1.
     999901    1    3    3    0    0  0.48482358688E-01  0.76697245743E-01 -0.92306404201E-01  0.88946808760E+00  0.88000000000E+00 0. -1.
        -11    1    4    4    0    0 -0.22449654648E-01 -0.54508724899E-01  0.37923793837E-01  0.70097527374E-01  0.51100000000E-03 0.  1.
         11    1    4    4    0    0 -0.33819136765E-01 -0.35154023866E-01  0.36395924100E-01  0.60864306598E-01  0.51100000000E-03 0. -1.
</event>
<event>
 8    1  0.1191842E+005  0.1043930E+01  0.7957747E-01            NaN
         13   -1    0    0    0    0  0.00000000000E+00  0.00000000000E+00  0.74505805969E-08  0.10566000000E+00  0.10566000000E+00 0. -1.
     999900   -1    0    0    0    0 -0.00000000000E+00 -0.00000000000E+00 -0.74505805969E-08  0.93827000000E+00  0.93827000000E+00 0.  1.
     999902    2    1    2    0    0 -0.13462412593E-01 -0.43238516136E-04  0.19464193151E-01  0.10202637109E+01  0.10199891895E+01 0.  0.
     999903    2    3    3    0    0  0.29646804413E-01 -0.73420126347E-01  0.10391296920E+00  0.13213412129E+00  0.19800830202E-01 0.  0.
         14    1    1    2    0    0  0.13462412593E-01  0.43238516136E-04 -0.19464193151E-01  0.23666289050E-01  0.00000000000E+00 0.  1.
     999901    1    3    3    0    0 -0.43109217006E-01  0.73376887831E-01 -0.84448776044E-01  0.88812958966E+00  0.88000000000E+00 0.  1.
        -11    1    4    4    0    0  0.12180689099E-01 -0.52811430582E-01  0.75322985515E-01  0.92796711444E-01  0.51100000000E-03 0. -1.
         11    1    4    4    0    0  0.17466115314E-01 -0.20608695765E-01  0.28589983680E-01  0.39337409843E-01  0.51100000000E-03 0.  1.
</event>
<event>
 8    1  0.1191842E+005  0.1043930E+01  0.7957747E-01            NaN
         13   -1    0    0    0    0  0.00000000000E+00  0.00000000000E+00  0.74505805969E-08  0.10566000000E+00  0.10566000000E+00 0. -1.
     999900   -1    0    0    0    0 -0.00000000000E+00 -0.00000000000E+00 -0.74505805969E-08  0.93827000000E+00  0.93827000000E+00 0.  1.
     999902    2    1    2    0    0 -0.20574825333E-01  0.47115405774E-02 -0.93024971672E-02  0.10208636066E+01  0.10206029809E+01 0.  0.
     999903    2    3    3    0    0 -0.33557218531E-01  0.12516561024E+00  0.81334618400E-02  0.13239203241E+00  0.25864650425E-01 0.  0.
         14    1    1    2    0    0  0.20574825333E-01 -0.47115405774E-02  0.93024971672E-02  0.23066393425E-01  0.00000000000E+00 0.  1.
     999901    1    3    3    0    0  0.12982393198E-01 -0.12045406966E+00 -0.17435959007E-01  0.88847157416E+00  0.88000000000E+00 0. -1.
        -11    1    4    4    0    0 -0.16966383849E-01  0.70116409714E-01 -0.82351298730E-02  0.72610244298E-01  0.51100000000E-03 0.  1.
         11    1    4    4    0    0 -0.16590834682E-01  0.55049200527E-01  0.16368591713E-01  0.59781788112E-01  0.51100000000E-03 0. -1.
</event>
<event>
 8    1  0.1191842E+005  0.1043930E+01  0.7957747E-01            NaN
         13   -1    0    0    0    0  0.00000000000E+00  0.00000000000E+00  0.74505805969E-08  0.10566000000E+00  0.10566000000E+00 0.  1.
     999900   -1    0    0    0    0 -0.00000000000E+00 -0.00000000000E+00 -0.74505805969E-08  0.93827000000E+00  0.93827000000E+00 0. -1.
     999902    2    1    2    0    0  0.19038864511E-01  0.13734979628E-01  0.45849382869E-02  0.10200103494E+01  0.10197298481E+01 0.  0.
     999903    2    3    3    0    0  0.31096489685E-02  0.12366884164E+00 -0.40974992647E-01  0.13185782799E+00  0.20096877149E-01 0.  0.
         14    1    1    2    0    0 -0.19038864511E-01 -0.13734979628E-01 -0.45849382869E-02  0.23919650632E-01  0.00000000000E+00 0. -1.
     999901    1    3    3    0    0  0.15929215543E-01 -0.10993386201E+00  0.45559930934E-01  0.88815252138E+00  0.88000000000E+00 0.  1.
        -11    1    4    4    0    0  0.10874212986E-01  0.94898665221E-01 -0.31720287375E-01  0.10065010145E+00  0.51100000000E-03 0. -1.
         11    1    4    4    0    0 -0.77645640172E-02  0.28770176416E-01 -0.92547052720E-02  0.31207726544E-01  0.51100000000E-03 0.  1.
</event>
<event>
 8    1  0.1191842E+005  0.1043930E+01  0.7957747E-01            NaN
         13   -1    0    0    0    0  0.00000000000E+00  0.00000000000E+00  0.74505805969E-08  0.10566000000E+00  0.10566000000E+00 0.  1.
     999900   -1    0    0    0    0 -0.00000000000E+00 -0.00000000000E+00 -0.74505805969E-08  0.93827000000E+00  0.93827000000E+00 0.  1.
     999902    2    1    2    0    0 -0.19023055274E-01 -0.40070926351E-02 -0.13414228778E-01  0.10203106233E+01  0.10200372018E+01 0.  0.
     999903    2    3    3    0    0 -0.67033007059E-01  0.89435382298E-01 -0.68256364591E-01  0.13236686860E+00  0.19233953180E-01 0.  0.
         14    1    1    2    0    0  0.19023055274E-01  0.40070926351E-02  0.13414228778E-01  0.23619376728E-01  0.00000000000E+00 0.  1.
     999901    1    3    3    0    0  0.48009951785E-01 -0.93442474933E-01  0.54842135813E-01  0.88794375467E+00  0.88000000000E+00 0. -1.
        -11    1    4    4    0    0 -0.59595593344E-01  0.73151009530E-01 -0.49968464362E-01  0.10676990912E+00  0.51100000000E-03 0. -1.
         11    1    4    4    0    0 -0.74374137144E-02  0.16284372768E-01 -0.18287900228E-01  0.25596959486E-01  0.51100000000E-03 0.  1.
</event>
<event>
 8    1  0.1191842E+005  0.1043930E+01  0.7957747E-01            NaN
         13   -1    0    0    0    0  0.00000000000E+00  0.00000000000E+00  0.74505805969E-08  0.10566000000E+00  0.10566000000E+00 0.  1.
     999900   -1    0    0    0    0 -0.00000000000E+00 -0.00000000000E+00 -0.74505805969E-08  0.93827000000E+00  0.93827000000E+00 0.  1.
     999902    2    1    2    0    0 -0.53930908693E-02 -0.22207962550E-01 -0.76010006968E-02  0.10198456847E+01  0.10195612617E+01 0.  0.
     999903    2    3    3    0    0  0.12518523906E+00  0.26613103203E-01 -0.25980632369E-02  0.12885790363E+00  0.14765095822E-01 0.  0.
         14    1    1    2    0    0  0.53930908693E-02  0.22207962550E-01  0.76010006968E-02  0.24084315256E-01  0.00000000000E+00 0. -1.
     999901    1    3    3    0    0 -0.13057832993E+00 -0.48821065754E-01 -0.50029374599E-02  0.89098778111E+00  0.88000000000E+00 0. -1.
        -11    1    4    4    0    0  0.98520525968E-01  0.24910434952E-01 -0.65983492778E-02  0.10183625651E+00  0.51100000000E-03 0.  1.
         11    1    4    4    0    0  0.26664713094E-01  0.17026682508E-02  0.40002860409E-02  0.27021647118E-01  0.51100000000E-03 0. -1.
</event>
<event>
 8    1  0.1191842E+005  0.1043930E+01  0.7957747E-01            NaN
         13   -1    0    0    0    0  0.00000000000E+00  0.00000000000E+00  0.74505805969E-08  0.10566000000E+00  0.10566000000E+00 0. -1.
     999900   -1    0    0    0    0 -0.00000000000E+00 -0.00000000000E+00 -0.74505805969E-08  0.93827000000E+00  0.93827000000E+00 0.  1.
     999902    2    1    2    0    0 -0.69562948303E-02 -0.17971116219E-01 -0.14371303131E-01  0.10198907527E+01  0.10196074059E+01 0.  0.
     999903    2    3    3    0    0 -0.75784142606E-01 -0.56956469028E-01  0.87206148697E-01  0.13052293844E+00  0.21072480968E-01 0.  0.
         14    1    1    2    0    0  0.69562948303E-02  0.17971116219E-01  0.14371303131E-01  0.24039247276E-01  0.00000000000E+00 0. -1.
     999901    1    3    3    0    0  0.68827847775E-01  0.38985352809E-01 -0.10157745183E+00  0.88936781428E+00  0.88000000000E+00 0.  1.
        -11    1    4    4    0    0 -0.64148415172E-01 -0.49339796379E-01  0.83137812117E-01  0.11602409922E+00  0.51100000000E-03 0. -1.
         11    1    4    4    0    0 -0.11635727434E-01 -0.76166726488E-02  0.40683365795E-02  0.14498839218E-01  0.51100000000E-03 0.  1.
</event>
<event>
 8    1  0.1191842E+005  0.1043930E+01  0.7957747E-01            NaN
         13   -1    0    0    0    0  0.00000000000E+00  0.00000000000E+00  0.74505805969E-08  0.10566000000E+00  0.10566000000E+00 0.  1.
     999900   -1    0    0    0    0 -0.00000000000E+00 -0.00000000000E+00 -0.74505805969E-08  0.93827000000E+00  0.93827000000E+00 0.  1.
     999902    2    1    2    0    0 -0.23053501780E-01  0.40118869577E-04 -0.67960740705E-02  0.10198956043E+01  0.10196123732E+01 0.  0.
     999903    2    3    3    0    0  0.83621605260E-01 -0.67136697677E-01  0.66719489997E-01  0.12787719569E+00  0.20029423119E-01 0.  0.
         14    1    1    2    0    0  0.23053501780E-01 -0.40118869577E-04  0.67960740705E-02  0.24034395699E-01  0.00000000000E+00 0.  1.
     999901    1    3    3    0    0 -0.10667510704E+00  0.67176816547E-01 -0.73515564068E-01  0.89201840861E+00  0.88000000000E+00 0.  1.
        -11    1    4    4    0    0  0.45534233359E-01 -0.40626336050E-01  0.48767956832E-01  0.78118117764E-01  0.51100000000E-03 0. -1.
         11    1    4    4    0    0  0.38087371901E-01 -0.26510361627E-01  0.17951533165E-01  0.49759077924E-01  0.51100000000E-03 0.  1.
</event>
<event>
 8    1  0.1191842E+005  0.1043930E+01  0.7957747E-01            NaN
         13   -1    0    0    0    0  0.00000000000E+00  0.00000000000E+00  0.74505805969E-08  0.10566000000E+00  0.10566000000E+00 0.  1.
     999900   -1    0    0    0    0 -0.00000000000E+00 -0.00000000000E+00 -0.74505805969E-08  0.93827000000E+00  0.93827000000E+00 0.  1.
     999902    2    1    2    0    0 -0.10372592048E-02  0.23078137591E-01  0.12812861160E-02  0.10207930591E+01  0.10205308185E+01 0.  0.
     999903    2    3    3    0    0  0.19512470367E-01 -0.11550344906E+00 -0.48922642828E-01  0.12829791509E+00  0.18578126701E-01 0.  0.
         14    1    1    2    0    0  0.10372592048E-02 -0.23078137591E-01 -0.12812861160E-02  0.23136940927E-01  0.00000000000E+00 0. -1.
     999901    1    3    3    0    0 -0.20549729572E-01  0.13858158665E+00  0.50203928944E-01  0.89249514398E+00  0.88000000000E+00 0. -1.
        -11    1    4    4    0    0  0.17459258964E-02 -0.65603474518E-01 -0.26517790536E-01  0.70783603059E-01  0.51100000000E-03 0.  1.
         11    1    4    4    0    0  0.17766544470E-01 -0.49899974542E-01 -0.22404852292E-01  0.57514312036E-01  0.51100000000E-03 0. -1.
</event>
<event>
 8    1  0.1191842E+005  0.1043930E+01  0.7957747E-01            NaN
         13   -1    0    0    0    0  0.00000000000E+00  0.00000000000E+00  0.74505805969E-08  0.10566000000E+00  0.10566000000E+00 0. -1.
     999900   -1    0    0    0    0 -0.00000000000E+00 -0.00000000000E+00 -0.74505805969E-08  0.93827000000E+00  0.93827000000E+00 0.  1.
     999902    2    1    2    0    0  0.12762023952E-01 -0.10754466429E-01 -0.16062358816E-01  0.10207669438E+01  0.10205041040E+01 0.  0.
     999903    2    3    3    0    0  0.19849487575E-01 -0.91927253509E-01  0.88612191257E-01  0.13082536425E+00  0.20458088821E-01 0.  0.
         14    1    1    2    0    0 -0.12762023952E-01  0.10754466429E-01  0.16062358816E-01  0.23163056238E-01  0.00000000000E+00 0. -1.
     999901    1    3    3    0    0 -0.70874636228E-02  0.81172787080E-01 -0.10467455007E+00  0.88994157951E+00  0.88000000000E+00 0.  1.
        -11    1    4    4    0    0  0.34831362172E-02 -0.18585822333E-01  0.77674858496E-02  0.20448960539E-01  0.51100000000E-03 0.  1.
         11    1    4    4    0    0  0.16366351358E-01 -0.73341431176E-01  0.80844705407E-01  0.11037640372E+00  0.51100000000E-03 0. -1.
</event>
<event>
 8    1  0.1191842E+005  0.1043930E+01  0.7957747E-01            NaN
         13   -1    0    0    0    0  0.00000000000E+00  0.00000000000E+00  0.74505805969E-08  0.10566000000E+00  0.10566000000E+00 0. -1.
     999900   -1    0    0    0    0 -0.00000000000E+00 -0.00000000000E+00 -0.74505805969E-08  0.93827000000E+00  0.93827000000E+00 0.  1.
     999902    2    1    2    0    0  0.10885028603E-01  0.18085147219E-01  0.92385168726E-02  0.10208885896E+01  0.10206285347E+01 0.  0.
     999903    2    3    3    0    0  0.71366436766E-01 -0.91257066517E-01  0.57693706418E-01  0.13074162096E+00  0.18541499572E-01 0.  0.
         14    1    1    2    0    0 -0.10885028603E-01 -0.18085147219E-01 -0.92385168726E-02  0.23041410365E-01  0.00000000000E+00 0.  1.
     999901    1    3    3    0    0 -0.60481408163E-01  0.10934221374E+00 -0.48455189545E-01  0.89014696867E+00  0.88000000000E+00 0.  1.
        -11    1    4    4    0    0  0.46523754718E-01 -0.69696388751E-01  0.47372682807E-01  0.96262550119E-01  0.51100000000E-03 0. -1.
         11    1    4    4    0    0  0.24842682048E-01 -0.21560677766E-01  0.10321023611E-01  0.34479070846E-01  0.51100000000E-03 0.  1.
</event>
<event>
 8    1  0.1191842E+005  0.1043930E+01  0.7957747E-01            NaN
         13   -1    0    0    0    0  0.00000000000E+00  0.00000000000E+00  0.74505805969E-08  0.10566000000E+00  0.10566000000E+00 0. -1.
     999900   -1    0    0    0    0 -0.00000000000E+00 -0.00000000000E+00 -0.74505805969E-08  0.93827000000E+00  0.93827000000E+00 0.  1.
     999902    2    1    2    0    0 -0.50507860534E-03 -0.17169362896E-01  0.16935851105E-01  0.10198081182E+01  0.10195227966E+01 0.  0.
     999903    2    3    3    0    0 -0.11240631243E+00  0.27263078452E-01 -0.53233058587E-01  0.12884246018E+00  0.19701941428E-01 0.  0.
         14    1    1    2    0    0  0.50507860534E-03  0.17169362896E-01 -0.16935851105E-01  0.24121881753E-01  0.00000000000E+00 0. -1.
     999901    1    3    3    0    0  0.11190123383E+00 -0.44432441348E-01  0.70168909692E-01  0.89096565807E+00  0.88000000000E+00 0. -1.
        -11    1    4    4    0    0 -0.44887245885E-01  0.47195273191E-02 -0.12539582825E-01  0.46846996058E-01  0.51100000000E-03 0. -1.
         11    1    4    4    0    0 -0.67519066547E-01  0.22543551133E-01 -0.40693475762E-01  0.81995464117E-01  0.51100000000E-03 0.  1.
</event>
<event>
 8    1  0.1191842E+005  0.1043930E+01  0.7957747E-01            NaN
         13   -1    0    0    0    0  0.00000000000E+00  0.00000000000E+00  0.74505805969E-08  0.10566000000E+00  0.10566000000E+00 0.  1.
     999900   -1    0    0    0    0 -0.00000000000E+00 -0.00000000000E+00 -0.74505805969E-08  0.93827000000E+00  0.93827000000E+00 0.  1.
     999902    2    1    2    0    0  0.15670778464E-01 -0.20227492030E-02  0.18400093752E-01  0.10196765825E+01  0.10193881030E+01 0.  0.
     999903    2    3    3    0    0  0.12262830166E+00  0.23893639977E-01  0.39994442704E-01  0.13255884118E+00  0.19070514622E-01 0.  0.
         14    1    1    2    0    0 -0.15670778464E-01  0.20227492030E-02 -0.18400093752E-01  0.24253417534E-01  0.00000000000E+00 0. -1.
     999901    1    3    3    0    0 -0.10695752320E+00 -0.25916389180E-01 -0.21594348952E-01  0.88711774129E+00  0.88000000000E+00 0.  1.
        -11    1    4    4    0    0  0.52061525517E-01  0.16193895689E-01  0.25106446252E-01  0.60026989439E-01  0.51100000000E-03 0. -1.
         11    1    4    4    0    0  0.70566776146E-01  0.76997442884E-02  0.14887996452E-01  0.72531851741E-01  0.51100000000E-03 0.  1.
</event>
<event>
 8    1  0.1191842E+005  0.1043930E+01  0.7957747E-01            NaN
         13   -1    0    0    0    0  0.00000000000E+00  0.00000000000E+00  0.74505805969E-08  0.10566000000E+00  0.10566000000E+00 0.  1.
     999900   -1    0    0    0    0 -0.00000000000E+00 -0.00000000000E+00 -0.74505805969E-08  0.93827000000E+00  0.93827000000E+00 0.  1.
     999902    2    1    2    0    0 -0.20942987324E-02 -0.17805990806E-01  0.12144680303E-01  0.10222751471E+01  0.10220457640E+01 0.  0.
     999903    2    3    3    0    0 -0.12443453989E+00  0.10799514792E-01 -0.37624673847E-01  0.13195924910E+00  0.19925940473E-01 0.  0.
         14    1    1    2    0    0  0.20942987324E-02  0.17805990806E-01 -0.12144680303E-01  0.21654852930E-01  0.00000000000E+00 0. -1.
     999901    1    3    3    0    0  0.12234024116E+00 -0.28605505599E-01  0.49769354150E-01  0.89031589797E+00  0.88000000000E+00 0. -1.
        -11    1    4    4    0    0 -0.97981272364E-01  0.16507120911E-01 -0.28015564202E-01  0.10323733692E+00  0.51100000000E-03 0. -1.
         11    1    4    4    0    0 -0.26453267530E-01 -0.57076061186E-02 -0.96091096451E-02  0.28721912189E-01  0.51100000000E-03 0.  1.
</event>
<event>
 8    1  0.1191842E+005  0.1043930E+01  0.7957747E-01            NaN
         13   -1    0    0    0    0  0.00000000000E+00  0.00000000000E+00  0.74505805969E-08  0.10566000000E+00  0.10566000000E+00 0. -1.
     999900   -1    0    0    0    0 -0.00000000000E+00 -0.00000000000E+00 -0.74505805969E-08  0.93827000000E+00  0.93827000000E+00 0.  1.
     999902    2    1    2    0    0  0.23042830412E-01  0.81741642819E-02 -0.29277693250E-02  0.10193056050E+01  0.10190081234E+01 0.  0.
     999903    2    3    3    0    0 -0.95335601807E-01  0.49845819773E-01  0.66379681583E-01  0.12770395471E+00  0.18126091673E-01 0.  0.
         14    1    1    2    0    0 -0.23042830412E-01 -0.81741642819E-02  0.29277693250E-02  0.24624394984E-01  0.00000000000E+00 0. -1.
     999901    1    3    3    0    0  0.11837843222E+00 -0.41671655491E-01 -0.69307450908E-01  0.89160165031E+00  0.88000000000E+00 0. -1.
        -11    1    4    4    0    0 -0.40477962028E-01  0.31353200116E-01  0.31336299808E-01  0.60030936809E-01  0.51100000000E-03 0.  1.
         11    1    4    4    0    0 -0.54857639779E-01  0.18492619657E-01  0.35043381775E-01  0.67673017896E-01  0.51100000000E-03 0. -1.
</event>
<event>
 8    1  0.1191842E+005  0.1043930E+01  0.7957747E-01            NaN
         13   -1    0    0    0    0  0.00000000000E+00  0.00000000000E+00  0.74505805969E-08  0.10566000000E+00  0.10566000000E+00 0.  1.
     999900   -1    0    0    0    0 -0.00000000000E+00 -0.00000000000E+00 -0.74505805969E-08  0.93827000000E+00  0.93827000000E+00 0. -1.
     999902    2    1    2    0    0  0.16717784052E-01  0.15850270208E-01 -0.35524501100E-02  0.10206204468E+01  0.10203542332E+01 0.  0.
     999903    2    3    3    0    0 -0.53690183538E-01  0.10854578768E+00  0.47039075800E-01  0.13151457944E+00  0.20459377329E-01 0.  0.
         14    1    1    2    0    0 -0.16717784052E-01 -0.15850270208E-01  0.35524501100E-02  0.23309553214E-01  0.00000000000E+00 0.  1.
     999901    1    3    3    0    0  0.70407967589E-01 -0.92695517473E-01 -0.50591525910E-01  0.88910586735E+00  0.88000000000E+00 0. -1.
        -11    1    4    4    0    0 -0.54915352088E-01  0.10258876062E+00  0.42395843365E-01  0.12384594606E+00  0.51100000000E-03 0.  1.
         11    1    4    4    0    0  0.12251685506E-02  0.59570270648E-02  0.46432324353E-02  0.76686333773E-02  0.51100000000E-03 0. -1.
</event>
<event>
 8    1  0.1191842E+005  0.1043930E+01  0.7957747E-01            NaN
         13   -1    0    0    0    0  0.00000000000E+00  0.00000000000E+00  0.74505805969E-08  0.10566000000E+00  0.10566000000E+00 0. -1.
     999900   -1    0    0    0    0 -0.00000000000E+00 -0.00000000000E+00 -0.74505805969E-08  0.93827000000E+00  0.93827000000E+00 0.  1.
     999902    2    1    2    0    0  0.17550234551E-01  0.81695603965E-03  0.16274015599E-01  0.10199816862E+01  0.10197005043E+01 0.  0.
     999903    2    3    3    0    0 -0.30716691020E-01  0.71305017521E-01  0.10385701291E+00  0.13151725566E+00  0.21967903301E-01 0.  0.
         14    1    1    2    0    0 -0.17550234551E-01 -0.81695603965E-03 -0.16274015599E-01  0.23948313796E-01  0.00000000000E+00 0.  1.
     999901    1    3    3    0    0  0.48266925571E-01 -0.70488061481E-01 -0.87582997314E-01  0.88846443054E+00  0.88000000000E+00 0.  1.
        -11    1    4    4    0    0 -0.96675846972E-02  0.78030015971E-02  0.26305542048E-01  0.29096248748E-01  0.51100000000E-03 0. -1.
         11    1    4    4    0    0 -0.21049106323E-01  0.63502015924E-01  0.77551470865E-01  0.10242100692E+00  0.51100000000E-03 0.  1.
</event>
<event>
 8    1  0.1191842E+005  0.1043930E+01  0.7957747E-01            NaN
         13   -1    0    0    0    0  0.00000000000E+00  0.00000000000E+00  0.74505805969E-08  0.10566000000E+00  0.10566000000E+00 0.  1.
     999900   -1    0    0    0    0 -0.00000000000E+00 -0.00000000000E+00 -0.74505805969E-08  0.93827000000E+00  0.93827000000E+00 0.  1.
     999902    2    1    2    0    0 -0.12039438144E-02 -0.54110820292E-03  0.27927183250E-01  0.10159716409E+01  0.10155868773E+01 0.  0.
     999903    2    3    3    0    0  0.28722758624E-01 -0.59114750265E-01  0.10994989511E+00  0.12971309831E+00  0.20419546482E-01 0.  0.
         14    1    1    2    0    0  0.12039438144E-02  0.54110820292E-03 -0.27927183250E-01  0.27958359092E-01  0.00000000000E+00 0. -1.
     999901    1    3    3    0    0 -0.29926702438E-01  0.58573642062E-01 -0.82022711855E-01  0.88625854260E+00  0.88000000000E+00 0.  1.
        -11    1    4    4    0    0  0.20870203295E-01 -0.34081570046E-01  0.82872788461E-01  0.92006950773E-01  0.51100000000E-03 0. -1.
         11    1    4    4    0    0  0.78525553289E-02 -0.25033180219E-01  0.27077106645E-01  0.37706147540E-01  0.51100000000E-03 0.  1.
</event>
<event>
 8    1  0.1191842E+005  0.1043930E+01  0.7957747E-01            NaN
         13   -1    0    0    0    0  0.00000000000E+00  0.00000000000E+00  0.74505805969E-08  0.10566000000E+00  0.10566000000E+00 0. -1.
     999900   -1    0    0    0    0 -0.00000000000E+00 -0.00000000000E+00 -0.74505805969E-08  0.93827000000E+00  0.93827000000E+00 0.  1.
     999902    2    1    2    0    0 -0.18858352063E-01  0.32839909324E-02 -0.14152183177E-01  0.10201244055E+01  0.10198466044E+01 0.  0.
     999903    2    3    3    0    0 -0.69402908363E-01 -0.10970305642E+00 -0.18271932420E-02  0.13137656142E+00  0.20123070842E-01 0.  0.
         14    1    1    2    0    0  0.18858352063E-01 -0.32839909324E-02  0.14152183177E-01  0.23805594462E-01  0.00000000000E+00 0. -1.
     999901    1    3    3    0    0  0.50544556300E-01  0.11298704735E+00 -0.12324989935E-01  0.88874784411E+00  0.88000000000E+00 0. -1.
        -11    1    4    4    0    0 -0.18854376697E-01 -0.28860341087E-01 -0.93831838222E-02  0.35731107847E-01  0.51100000000E-03 0.  1.
         11    1    4    4    0    0 -0.50548531666E-01 -0.80842715330E-01  0.75559905802E-02  0.95645453578E-01  0.51100000000E-03 0. -1.
</event>
<event>
 8    1  0.1191842E+005  0.1043930E+01  0.7957747E-01            NaN
         13   -1    0    0    0    0  0.00000000000E+00  0.00000000000E+00  0.74505805969E-08  0.10566000000E+00  0.10566000000E+00 0. -1.
     999900   -1    0    0    0    0 -0.00000000000E+00 -0.00000000000E+00 -0.74505805969E-08  0.93827000000E+00  0.93827000000E+00 0. -1.
     999902    2    1    2    0    0  0.35043780890E-02 -0.72308001135E-02 -0.22314509744E-01  0.10202128652E+01  0.10199371490E+01 0.  0.
     999903    2    3    3    0    0  0.17298478823E-01 -0.11900894893E+00  0.46979670402E-01  0.13033292100E+00  0.17810490455E-01 0.  0.
         14    1    1    2    0    0 -0.35043780890E-02  0.72308001135E-02  0.22314509744E-01  0.23717134759E-01  0.00000000000E+00 0. -1.
     999901    1    3    3    0    0 -0.13794100734E-01  0.11177814881E+00 -0.69294180146E-01  0.88987994424E+00  0.88000000000E+00 0. -1.
        -11    1    4    4    0    0  0.78622454809E-02 -0.78622678860E-01  0.38913470776E-01  0.88078714023E-01  0.51100000000E-03 0.  1.
         11    1    4    4    0    0  0.94362333419E-02 -0.40386270066E-01  0.80661996264E-02  0.42254206973E-01  0.51100000000E-03 0. -1.
</event>
<event>
 8    1  0.1191842E+005  0.1043930E+01  0.7957747E-01            NaN
         13   -1    0    0    0    0  0.00000000000E+00  0.00000000000E+00  0.74505805969E-08  0.10566000000E+00  0.10566000000E+00 0. -1.
     999900   -1    0    0    0    0 -0.00000000000E+00 -0.00000000000E+00 -0.74505805969E-08  0.93827000000E+00  0.93827000000E+00 0. -1.
     999902    2    1    2    0    0 -0.16446519700E-01  0.13087692542E-01  0.10850387058E-01  0.10202761080E+01  0.10200018774E+01 0.  0.
     999903    2    3    3    0    0 -0.90448991074E-01 -0.32280800427E-01  0.89078025691E-01  0.13255192261E+00  0.20298952290E-01 0.  0.
         14    1    1    2    0    0  0.16446519700E-01 -0.13087692542E-01 -0.10850387058E-01  0.23653891976E-01  0.00000000000E+00 0.  1.
     999901    1    3    3    0    0  0.74002471373E-01  0.45368492968E-01 -0.78227638633E-01  0.88772418541E+00  0.88000000000E+00 0. -1.
        -11    1    4    4    0    0 -0.54087239740E-01 -0.29397062685E-01  0.59036045522E-01  0.85294387794E-01  0.51100000000E-03 0.  1.
         11    1    4    4    0    0 -0.36361751334E-01 -0.28837377413E-02  0.30041980169E-01  0.47257534816E-01  0.51100000000E-03 0. -1.
</event>
<event>
 8    1  0.1191842E+005  0.1043930E+01  0.7957747E-01            NaN
         13   -1    0    0    0    0  0.00000000000E+00  0.00000000000E+00  0.74505805969E-08  0.10566000000E+00  0.10566000000E+00 0.  1.
     999900   -1    0    0    0    0 -0.00000000000E+00 -0.00000000000E+00 -0.74505805969E-08  0.93827000000E+00  0.93827000000E+00 0. -1.
     999902    2    1    2    0    0  0.19245713585E-01 -0.12137265557E-01 -0.33240597618E-02  0.10209352162E+01  0.10206762247E+01 0.  0.
     999903    2    3    3    0    0 -0.28990120623E-01 -0.12026855296E+00 -0.42126125891E-01  0.13215815120E+00  0.19652341351E-01 0.  0.
         14    1    1    2    0    0 -0.19245713585E-01  0.12137265557E-01  0.33240597618E-02  0.22994783754E-01  0.00000000000E+00 0. -1.
     999901    1    3    3    0    0  0.48235834207E-01  0.10813128740E+00  0.38802066129E-01  0.88877706505E+00  0.88000000000E+00 0.  1.
        -11    1    4    4    0    0 -0.25191376627E-01 -0.67634633385E-01 -0.28947971211E-01  0.77764357181E-01  0.51100000000E-03 0. -1.
         11    1    4    4    0    0 -0.37987439952E-02 -0.52633919576E-01 -0.13178154680E-01  0.54393794018E-01  0.51100000000E-03 0.  1.
</event>
<event>
 8    1  0.1191842E+005  0.1043930E+01  0.7957747E-01            NaN
         13   -1    0    0    0    0  0.00000000000E+00  0.00000000000E+00  0.74505805969E-08  0.10566000000E+00  0.10566000000E+00 0.  1.
     999900   -1    0    0    0    0 -0.00000000000E+00 -0.00000000000E+00 -0.74505805969E-08  0.93827000000E+00  0.93827000000E+00 0.  1.
     999902    2    1    2    0    0 -0.67388949779E-02  0.16191595642E-02 -0.25275719346E-01  0.10177212921E+01  0.10173837683E+01 0.  0.
     999903    2    3    3    0    0 -0.85832969447E-01 -0.84186854606E-01 -0.44470601452E-01  0.12980970402E+00  0.20449932311E-01 0.  0.
         14    1    1    2    0    0  0.67388949779E-02 -0.16191595642E-02  0.25275719346E-01  0.26208707936E-01  0.00000000000E+00 0.  1.
     999901    1    3    3    0    0  0.79094074469E-01  0.85806014170E-01  0.19194882106E-01  0.88791158804E+00  0.88000000000E+00 0. -1.
        -11    1    4    4    0    0 -0.23298024014E-01 -0.30575250718E-01 -0.22558432331E-01  0.44573398678E-01  0.51100000000E-03 0.  1.
         11    1    4    4    0    0 -0.62534945433E-01 -0.53611603887E-01 -0.21912169122E-01  0.85236305342E-01  0.51100000000E-03 0. -1.
</event>
<event>
 8    1  0.1191842E+005  0.1043930E+01  0.7957747E-01            NaN
         13   -1    0    0    0    0  0.00000000000E+00  0.00000000000E+00  0.74505805969E-08  0.10566000000E+00  0.10566000000E+00 0.  1.
     999900   -1    0    0    0    0 -0.00000000000E+00 -0.00000000000E+00 -0.74505805969E-08  0.93827000000E+00  0.93827000000E+00 0.  1.
     999902    2    1    2    0    0 -0.19331365223E-01  0.63589215774E-02  0.11628424734E-01  0.10204916164E+01  0.10202224175E+01 0.  0.
     999903    2    3    3    0    0  0.16589341916E-01  0.12818377099E+00  0.13005653503E-01  0.13137211491E+00  0.19575498474E-01 0.  0.
         14    1    1    2    0    0  0.19331365223E-01 -0.63589215774E-02 -0.11628424734E-01  0.23438383622E-01  0.00000000000E+00 0. -1.
     999901    1    3    3    0    0 -0.35920707139E-01 -0.12182484942E+00 -0.13772287687E-02  0.88911950147E+00  0.88000000000E+00 0. -1.
        -11    1    4    4    0    0  0.50355704916E-02  0.31542536367E-01  0.11734494241E-01  0.34033043454E-01  0.51100000000E-03 0.  1.
         11    1    4    4    0    0  0.11553771424E-01  0.96641234627E-01  0.12711592615E-02  0.97339071453E-01  0.51100000000E-03 0. -1.
</event>
<event>
 8    1  0.1191842E+005  0.1043930E+01  0.7957747E-01            NaN
         13   -1    0    0    0    0  0.00000000000E+00  0.00000000000E+00  0.74505805969E-08  0.10566000000E+00  0.10566000000E+00 0.  1.
     999900   -1    0    0    0    0 -0.00000000000E+00 -0.00000000000E+00 -0.74505805969E-08  0.93827000000E+00  0.93827000000E+00 0. -1.
     999902    2    1    2    0    0  0.12129403669E-01 -0.45289144075E-02 -0.19342947795E-01  0.10206537647E+01  0.10203883204E+01 0.  0.
     999903    2    3    3    0    0 -0.89218328467E-01  0.89854770340E-01 -0.20119328118E-01  0.12982255427E+00  0.20379360797E-01 0.  0.
         14    1    1    2    0    0 -0.12129403669E-01  0.45289144075E-02  0.19342947795E-01  0.23276235272E-01  0.00000000000E+00 0.  1.
     999901    1    3    3    0    0  0.10134773214E+00 -0.94383684747E-01  0.77638032346E-03  0.89083121046E+00  0.88000000000E+00 0.  1.
        -11    1    4    4    0    0 -0.52072218766E-01  0.52927992945E-01 -0.16092066867E-02  0.74268021864E-01  0.51100000000E-03 0.  1.
         11    1    4    4    0    0 -0.37146109701E-01  0.36926777395E-01 -0.18510121431E-01  0.55554532408E-01  0.51100000000E-03 0. -1.
</event>
<event>
 8    1  0.1191842E+005  0.1043930E+01  0.7957747E-01            NaN
         13   -1    0    0    0    0  0.00000000000E+00  0.00000000000E+00  0.74505805969E-08  0.10566000000E+00  0.10566000000E+00 0. -1.
     999900   -1    0    0    0    0 -0.00000000000E+00 -0.00000000000E+00 -0.74505805969E-08  0.93827000000E+00  0.93827000000E+00 0. -1.
     999902    2    1    2    0    0 -0.23668912106E-02  0.50067296846E-02  0.23261159356E-01  0.10200186836E+01  0.10197383801E+01 0.  0.
     999903    2    3    3    0    0  0.38532863332E-01 -0.10356813683E+00 -0.62150923721E-01  0.12830319341E+00  0.19693440457E-01 0.  0.
         14    1    1    2    0    0  0.23668912106E-02 -0.50067296846E-02 -0.23261159356E-01  0.23911316374E-01  0.00000000000E+00 0.  1.
     999901    1    3    3    0    0 -0.40899754542E-01  0.10857486651E+00  0.85412083078E-01  0.89171549022E+00  0.88000000000E+00 0.  1.
        -11    1    4    4    0    0  0.38177816611E-01 -0.79982088911E-01 -0.50130058639E-01  0.10182320034E+00  0.51100000000E-03 0.  1.
         11    1    4    4    0    0  0.35504672055E-03 -0.23586047916E-01 -0.12020865083E-01  0.26479993066E-01  0.51100000000E-03 0. -1.
</event>
<event>
 8    1  0.1191842E+005  0.1043930E+01  0.7957747E-01            NaN
         13   -1    0    0    0    0  0.00000000000E+00  0.00000000000E+00  0.74505805969E-08  0.10566000000E+00  0.10566000000E+00 0.  1.
     999900   -1    0    0    0    0 -0.00000000000E+00 -0.00000000000E+00 -0.74505805969E-08  0.93827000000E+00  0.93827000000E+00 0.  1.
     999902    2    1    2    0    0  0.22868862733E-01  0.25553073746E-02  0.57268570541E-02  0.10202168945E+01  0.10199412731E+01 0.  0.
     999903    2    3    3    0    0  0.16047997917E-01 -0.12792721447E+00  0.65401629021E-02  0.13056928219E+00  0.19561525577E-01 0.  0.
         14    1    1    2    0    0 -0.22868862733E-01 -0.25553073746E-02 -0.57268570541E-02  0.23713105452E-01  0.00000000000E+00 0.  1.
     999901    1    3    3    0    0  0.68208648158E-02  0.13048252184E+00 -0.81330584806E-03  0.88964761236E+00  0.88000000000E+00 0.  1.
        -11    1    4    4    0    0 -0.26007279738E-02 -0.37078605931E-01  0.69857106136E-02  0.37823908808E-01  0.51100000000E-03 0.  1.
         11    1    4    4    0    0  0.18648725891E-01 -0.90848608537E-01 -0.44554771146E-03  0.92745373384E-01  0.51100000000E-03 0. -1.
</event>
<event>
 8    1  0.1191842E+005  0.1043930E+01  0.7957747E-01            NaN
         13   -1    0    0    0    0  0.00000000000E+00  0.00000000000E+00  0.74505805969E-08  0.10566000000E+00  0.10566000000E+00 0. -1.
     999900   -1    0    0    0    0 -0.00000000000E+00 -0.00000000000E+00 -0.74505805969E-08  0.93827000000E+00  0.93827000000E+00 0.  1.
     999902    2    1    2    0    0  0.18442431921E-01  0.95636151877E-02  0.11438389615E-01  0.10202145454E+01  0.10199388687E+01 0.  0.
     999903    2    3    3    0    0 -0.12236180313E+00  0.22308350786E-01  0.26516507945E-01  0.12880240134E+00  0.20417150073E-01 0.  0.
         14    1    1    2    0    0 -0.18442431921E-01 -0.95636151877E-02 -0.11438389615E-01  0.23715454615E-01  0.00000000000E+00 0.  1.
     999901    1    3    3    0    0  0.14080423505E+00 -0.12744735598E-01 -0.15078118329E-01  0.89141214404E+00  0.88000000000E+00 0.  1.
        -11    1    4    4    0    0 -0.11558133213E+00  0.18304924864E-01  0.20330331521E-01  0.11877583135E+00  0.51100000000E-03 0. -1.
         11    1    4    4    0    0 -0.67804710037E-02  0.40034259217E-02  0.61861764240E-02  0.10026569996E-01  0.51100000000E-03 0.  1.
</event>
<event>
 8    1  0.1191842E+005  0.1043930E+01  0.7957747E-01            NaN
         13   -1    0    0    0    0  0.00000000000E+00  0.00000000000E+00  0.74505805969E-08  0.10566000000E+00  0.10566000000E+00 0. -1.
     999900   -1    0    0    0    0 -0.00000000000E+00 -0.00000000000E+00 -0.74505805969E-08  0.93827000000E+00  0.93827000000E+00 0. -1.
     999902    2    1    2    0    0 -0.11844143206E-01 -0.30372190068E-02  0.19800912697E-01  0.10206580304E+01  0.10203926844E+01 0.  0.
     999903    2    3    3    0    0 -0.77693587530E-01 -0.19649115145E-01 -0.99338653256E-01  0.13003670758E+00  0.24879630572E-01 0.  0.
         14    1    1    2    0    0  0.11844143206E-01  0.30372190068E-02 -0.19800912697E-01  0.23271969646E-01  0.00000000000E+00 0.  1.
     999901    1    3    3    0    0  0.65849444324E-01  0.16611896138E-01  0.11913956595E+00  0.89062132278E+00  0.88000000000E+00 0.  1.
        -11    1    4    4    0    0 -0.63340766072E-01 -0.78999388178E-02 -0.65598516811E-01  0.91530804698E-01  0.51100000000E-03 0. -1.
         11    1    4    4    0    0 -0.14352821458E-01 -0.11749176327E-01 -0.33740136445E-01  0.38505902878E-01  0.51100000000E-03 0.  1.
</event>
<event>
 8    1  0.1191842E+005  0.1043930E+01  0.7957747E-01            NaN
         13   -1    0    0    0    0  0.00000000000E+00  0.00000000000E+00  0.74505805969E-08  0.10566000000E+00  0.10566000000E+00 0. -1.
     999900   -1    0    0    0    0 -0.00000000000E+00 -0.00000000000E+00 -0.74505805969E-08  0.93827000000E+00  0.93827000000E+00 0.  1.
     999902    2    1    2    0    0  0.17916853533E-01 -0.14399314467E-01  0.20585367011E-02  0.10208520566E+01  0.10205911669E+01 0.  0.
     999903    2    3    3    0    0  0.11227847515E+00 -0.34612514584E-01 -0.59913675456E-01  0.13341008996E+00  0.20102772182E-01 0.  0.
         14    1    1    2    0    0 -0.17916853533E-01  0.14399314467E-01 -0.20585367011E-02  0.23077943387E-01  0.00000000000E+00 0.  1.
     999901    1    3    3    0    0 -0.94361621617E-01  0.20213200117E-01  0.61972212157E-01  0.88744196665E+00  0.88000000000E+00 0. -1.
        -11    1    4    4    0    0  0.27820442146E-01 -0.15606158626E-01 -0.22830371980E-01  0.39230296889E-01  0.51100000000E-03 0.  1.
         11    1    4    4    0    0  0.84458033003E-01 -0.19006355957E-01 -0.37083303476E-01  0.94179793073E-01  0.51100000000E-03 0. -1.
</event>
<event>
 8    1  0.1191842E+005  0.1043930E+01  0.7957747E-01            NaN
         13   -1    0    0    0    0  0.00000000000E+00  0.00000000000E+00  0.74505805969E-08  0.10566000000E+00  0.10566000000E+00 0.  1.
     999900   -1    0    0    0    0 -0.00000000000E+00 -0.00000000000E+00 -0.74505805969E-08  0.93827000000E+00  0.93827000000E+00 0. -1.
     999902    2    1    2    0    0  0.67349402335E-02 -0.21613089841E-01  0.51520316669E-02  0.10207130126E+01  0.10204489334E+01 0.  0.
     999903    2    3    3    0    0 -0.44828501055E-01 -0.49079226533E-02 -0.12043011632E+00  0.13014649238E+00  0.20025342721E-01 0.  0.
         14    1    1    2    0    0 -0.67349402335E-02  0.21613089841E-01 -0.51520316669E-02  0.23216987374E-01  0.00000000000E+00 0. -1.
     999901    1    3    3    0    0  0.51563441289E-01 -0.16705167188E-01  0.12558214799E+00  0.89056652024E+00  0.88000000000E+00 0.  1.
        -11    1    4    4    0    0 -0.22683683483E-01  0.54078807148E-02 -0.42559281012E-01  0.48531929607E-01  0.51100000000E-03 0. -1.
         11    1    4    4    0    0 -0.22144817572E-01 -0.10315803368E-01 -0.77870835306E-01  0.81614562774E-01  0.51100000000E-03 0.  1.
</event>
<event>
 8    1  0.1191842E+005  0.1043930E+01  0.7957747E-01            NaN
         13   -1    0    0    0    0  0.00000000000E+00  0.00000000000E+00  0.74505805969E-08  0.10566000000E+00  0.10566000000E+00 0. -1.
     999900   -1    0    0    0    0 -0.00000000000E+00 -0.00000000000E+00 -0.74505805969E-08  0.93827000000E+00  0.93827000000E+00 0.  1.
     999902    2    1    2    0    0  0.11961928619E-01  0.19531414449E-01 -0.56673458718E-02  0.10203358758E+01  0.10200630455E+01 0.  0.
     999903    2    3    3    0    0 -0.10195263777E+00 -0.19663870389E-01  0.72982444625E-01  0.12865286693E+00  0.21074031381E-01 0.  0.
         14    1    1    2    0    0 -0.11961928619E-01 -0.19531414449E-01  0.56673458718E-02  0.23594124182E-01  0.00000000000E+00 0. -1.
     999901    1    3    3    0    0  0.11391456639E+00  0.39195284838E-01 -0.78649790497E-01  0.89168300889E+00  0.88000000000E+00 0.  1.
        -11    1    4    4    0    0 -0.27935157690E-01  0.37276553917E-02  0.16625128106E-01  0.32724982130E-01  0.51100000000E-03 0.  1.
         11    1    4    4    0    0 -0.74017480085E-01 -0.23391525781E-01  0.56357316519E-01  0.95927884803E-01  0.51100000000E-03 0. -1.
</event>
<event>
 8    1  0.1191842E+005  0.1043930E+01  0.7957747E-01            NaN
         13   -1    0    0    0    0  0.00000000000E+00  0.00000000000E+00  0.74505805969E-08  0.10566000000E+00  0.10566000000E+00 0. -1.
     999900   -1    0    0    0    0 -0.00000000000E+00 -0.00000000000E+00 -0.74505805969E-08  0.93827000000E+00  0.93827000000E+00 0. -1.
     999902    2    1    2    0    0 -0.32160758986E-02  0.10082507920E-01  0.21983775831E-01  0.10195315060E+01  0.10192395230E+01 0.  0.
     999903    2    3    3    0    0 -0.72359143030E-01 -0.80049641599E-01  0.71222337495E-01  0.13086452446E+00  0.20226509916E-01 0.  0.
         14    1    1    2    0    0  0.32160758986E-02 -0.10082507920E-01 -0.21983775831E-01  0.24398494010E-01  0.00000000000E+00 0.  1.
     999901    1    3    3    0    0  0.69143067132E-01  0.90132149519E-01 -0.49238561664E-01  0.88866698153E+00  0.88000000000E+00 0. -1.
        -11    1    4    4    0    0 -0.62508591814E-01 -0.59552972680E-01  0.62127305494E-01  0.10636702409E+00  0.51100000000E-03 0.  1.
         11    1    4    4    0    0 -0.98505512161E-02 -0.20496668920E-01  0.90950320014E-02  0.24497500366E-01  0.51100000000E-03 0. -1.
</event>
<event>
 8    1  0.1191842E+005  0.1043930E+01  0.7957747E-01            NaN
         13   -1    0    0    0    0  0.00000000000E+00  0.00000000000E+00  0.74505805969E-08  0.10566000000E+00  0.10566000000E+00 0. -1.
     999900   -1    0    0    0    0 -0.00000000000E+00 -0.00000000000E+00 -0.74505805969E-08  0.93827000000E+00  0.93827000000E+00 0.  1.
     999902    2    1    2    0    0  0.13261312638E-01  0.12503673188E-01  0.13613556480E-01  0.10211806445E+01  0.10209272136E+01 0.  0.
     999903    2    3    3    0    0 -0.81027932442E-03  0.72468256269E-01 -0.10705580126E+00  0.13081282453E+00  0.19968619342E-01 0.  0.
         14    1    1    2    0    0 -0.13261312638E-01 -0.12503673188E-01 -0.13613556480E-01  0.22749355510E-01  0.00000000000E+00 0.  1.
     999901    1    3    3    0    0  0.14071591962E-01 -0.59964583081E-01  0.12066935774E+00  0.89036781996E+00  0.88000000000E+00 0. -1.
        -11    1    4    4    0    0  0.86607559123E-02  0.23190234027E-01 -0.40302572423E-01  0.47300677713E-01  0.51100000000E-03 0. -1.
         11    1    4    4    0    0 -0.94710352367E-02  0.49278022242E-01 -0.66753228838E-01  0.83512146816E-01  0.51100000000E-03 0.  1.
</event>
<event>
 8    1  0.1191842E+005  0.1043930E+01  0.7957747E-01            NaN
         13   -1    0    0    0    0  0.00000000000E+00  0.00000000000E+00  0.74505805969E-08  0.10566000000E+00  0.10566000000E+00 0.  1.
     999900   -1    0    0    0    0 -0.00000000000E+00 -0.00000000000E+00 -0.74505805969E-08  0.93827000000E+00  0.93827000000E+00 0.  1.
     999902    2    1    2    0    0  0.41950558384E-02 -0.80098642226E-02 -0.19865278427E-01  0.10221037382E+01  0.10218706698E+01 0.  0.
     999903    2    3    3    0    0 -0.52161875875E-01  0.50438259442E-01  0.10538134219E+00  0.12953497170E+00  0.20228749331E-01 0.  0.
         14    1    1    2    0    0 -0.41950558384E-02  0.80098642226E-02  0.19865278427E-01  0.21826261827E-01  0.00000000000E+00 0.  1.
     999901    1    3    3    0    0  0.56356931713E-01 -0.58448123665E-01 -0.12524662062E+00  0.89256876648E+00  0.88000000000E+00 0.  1.
        -11    1    4    4    0    0 -0.12392413978E-02  0.55083738404E-02  0.17967023017E-01  0.18840194762E-01  0.51100000000E-03 0. -1.
         11    1    4    4    0    0 -0.50922634477E-01  0.44929885602E-01  0.87414319178E-01  0.11069477693E+00  0.51100000000E-03 0.  1.
</event>
<event>
 8    1  0.1191842E+005  0.1043930E+01  0.7957747E-01            NaN
         13   -1    0    0    0    0  0.00000000000E+00  0.00000000000E+00  0.74505805969E-08  0.10566000000E+00  0.10566000000E+00 0. -1.
     999900   -1    0    0    0    0 -0.00000000000E+00 -0.00000000000E+00 -0.74505805969E-08  0.93827000000E+00  0.93827000000E+00 0.  1.
     999902    2    1    2    0    0  0.18686465286E-01  0.14270451422E-02 -0.14943254737E-01  0.10199608259E+01  0.10196791481E+01 0.  0.
     999903    2    3    3    0    0 -0.86345147212E-01 -0.23499600882E-01  0.85876257678E-01  0.12765059324E+00  0.30203089797E-01 0.  0.
         14    1    1    2    0    0 -0.18686465286E-01 -0.14270451422E-02  0.14943254737E-01  0.23969174055E-01  0.00000000000E+00 0. -1.
     999901    1    3    3    0    0  0.10503161250E+00  0.24926646024E-01 -0.10081951242E+00  0.89231023270E+00  0.88000000000E+00 0.  1.
        -11    1    4    4    0    0 -0.19594319592E-01 -0.19274933616E-01  0.27252859065E-01  0.38709687088E-01  0.51100000000E-03 0. -1.
         11    1    4    4    0    0 -0.66750827620E-01 -0.42246672654E-02  0.58623398613E-01  0.88940906153E-01  0.51100000000E-03 0.  1.
</event>
<event>
 8    1  0.1191842E+005  0.1043930E+01  0.7957747E-01            NaN
         13   -1    0    0    0    0  0.00000000000E+00  0.00000000000E+00  0.74505805969E-08  0.10566000000E+00  0.10566000000E+00 0. -1.
     999900   -1    0    0    0    0 -0.00000000000E+00 -0.00000000000E+00 -0.74505805969E-08  0.93827000000E+00  0.93827000000E+00 0.  1.
     999902    2    1    2    0    0 -0.12826806851E-01  0.74096493399E-02  0.18676735867E-01  0.10200919980E+01  0.10198134310E+01 0.  0.
     999903    2    3    3    0    0 -0.11993864116E+00 -0.27005502323E-01 -0.40861673708E-01  0.13093387373E+00  0.18958589469E-01 0.  0.
         14    1    1    2    0    0  0.12826806851E-01 -0.74096493399E-02 -0.18676735867E-01  0.23838002013E-01  0.00000000000E+00 0.  1.
     999901    1    3    3    0    0  0.10711183430E+00  0.34415151662E-01  0.59538409575E-01  0.88915812425E+00  0.88000000000E+00 0. -1.
        -11    1    4    4    0    0 -0.77614658424E-01 -0.11918441931E-01 -0.33612107636E-01  0.85417324713E-01  0.51100000000E-03 0.  1.
         11    1    4    4    0    0 -0.42323982731E-01 -0.15087060391E-01 -0.72495660717E-02  0.45516549020E-01  0.51100000000E-03 0. -1.
</event>
<event>
 8    1  0.1191842E+005  0.1043930E+01  0.7957747E-01            NaN
         13   -1    0    0    0    0  0.00000000000E+00  0.00000000000E+00  0.74505805969E-08  0.10566000000E+00  0.10566000000E+00 0.  1.
     999900   -1    0    0    0    0 -0.00000000000E+00 -0.00000000000E+00 -0.74505805969E-08  0.93827000000E+00  0.93827000000E+00 0.  1.
     999902    2    1    2    0    0  0.25617490597E-02  0.14824044598E-01  0.18454420303E-01  0.10201207479E+01  0.10198428604E+01 0.  0.
     999903    2    3    3    0    0 -0.13041393736E-01  0.12951628597E+00 -0.10332810374E-01  0.13207431165E+00  0.19806830782E-01 0.  0.
         14    1    1    2    0    0 -0.25617490597E-02 -0.14824044598E-01 -0.18454420303E-01  0.23809252092E-01  0.00000000000E+00 0. -1.
     999901    1    3    3    0    0  0.15603142796E-01 -0.11469224137E+00  0.28787230677E-01  0.88804643626E+00  0.88000000000E+00 0. -1.
        -11    1    4    4    0    0 -0.81797423529E-02  0.86751416376E-01  0.24526672272E-02  0.87172203860E-01  0.51100000000E-03 0. -1.
         11    1    4    4    0    0 -0.48616513833E-02  0.42764869596E-01 -0.12785477601E-01  0.44902107792E-01  0.51100000000E-03 0.  1.
</event>
<event>
 8    1  0.1191842E+005  0.1043930E+01  0.7957747E-01            NaN
         13   -1    0    0    0    0  0.00000000000E+00  0.00000000000E+00  0.74505805969E-08  0.10566000000E+00  0.10566000000E+00 0.  1.
     999900   -1    0    0    0    0 -0.00000000000E+00 -0.00000000000E+00 -0.74505805969E-08  0.93827000000E+00  0.93827000000E+00 0.  1.
     999902    2    1    2    0    0  0.14289593062E-01 -0.77953108295E-02 -0.16388970394E-01  0.10208311322E+01  0.10205697638E+01 0.  0.
     999903    2    3    3    0    0  0.77813402329E-01  0.46660928029E-02 -0.10686813398E+00  0.13382660015E+00  0.20299331071E-01 0.  0.
         14    1    1    2    0    0 -0.14289593062E-01  0.77953108295E-02  0.16388970394E-01  0.23098867751E-01  0.00000000000E+00 0.  1.
     999901    1    3    3    0    0 -0.63523809267E-01 -0.12461403632E-01  0.90479163590E-01  0.88700453210E+00  0.88000000000E+00 0. -1.
        -11    1    4    4    0    0  0.53648699579E-01  0.10255655022E-01 -0.62595539218E-01  0.83077217560E-01  0.51100000000E-03 0. -1.
         11    1    4    4    0    0  0.24164702749E-01 -0.55895622192E-02 -0.44272594766E-01  0.50749382588E-01  0.51100000000E-03 0.  1.
</event>
<event>
 8    1  0.1191842E+005  0.1043930E+01  0.7957747E-01            NaN
         13   -1    0    0    0    0  0.00000000000E+00  0.00000000000E+00  0.74505805969E-08  0.10566000000E+00  0.10566000000E+00 0.  1.
     999900   -1    0    0    0    0 -0.00000000000E+00 -0.00000000000E+00 -0.74505805969E-08  0.93827000000E+00  0.93827000000E+00 0. -1.
     999902    2    1    2    0    0 -0.67248332052E-02 -0.21117821123E-01 -0.75419717914E-02  0.10205191673E+01  0.10202506083E+01 0.  0.
     999903    2    3    3    0    0  0.12317911543E+00  0.77908385381E-02 -0.35614812846E-01  0.13007049897E+00  0.20399219698E-01 0.  0.
         14    1    1    2    0    0  0.67248332052E-02  0.21117821123E-01  0.75419717914E-02  0.23410832730E-01  0.00000000000E+00 0.  1.
     999901    1    3    3    0    0 -0.12990394864E+00 -0.28908659661E-01  0.28072841055E-01  0.89044866830E+00  0.88000000000E+00 0.  1.
        -11    1    4    4    0    0  0.63937925747E-01 -0.61452495063E-02 -0.17730606149E-01  0.66636761294E-01  0.51100000000E-03 0. -1.
         11    1    4    4    0    0  0.59241189684E-01  0.13936088044E-01 -0.17884206697E-01  0.63433737675E-01  0.51100000000E-03 0.  1.
</event>
<event>
 8    1  0.1191842E+005  0.1043930E+01  0.7957747E-01            NaN
         13   -1    0    0    0    0  0.00000000000E+00  0.00000000000E+00  0.74505805969E-08  0.10566000000E+00  0.10566000000E+00 0.  1.
     999900   -1    0    0    0    0 -0.00000000000E+00 -0.00000000000E+00 -0.74505805969E-08  0.93827000000E+00  0.93827000000E+00 0.  1.
     999902    2    1    2    0    0 -0.14039782285E-01  0.13132670567E-01  0.13346232601E-01  0.10205269137E+01  0.10202585345E+01 0.  0.
     999903    2    3    3    0    0  0.10400478236E+00 -0.67991576411E-01 -0.24143361616E-01  0.12815864200E+00  0.20047104397E-01 0.  0.
         14    1    1    2    0    0  0.14039782285E-01 -0.13132670567E-01 -0.13346232601E-01  0.23403086281E-01  0.00000000000E+00 0.  1.
     999901    1    3    3    0    0 -0.11804456464E+00  0.81124246978E-01  0.37489594217E-01  0.89236827171E+00  0.88000000000E+00 0.  1.
        -11    1    4    4    0    0  0.36316876272E-01 -0.19023366651E-01 -0.16738554146E-01  0.44285937913E-01  0.51100000000E-03 0. -1.
         11    1    4    4    0    0  0.67687906083E-01 -0.48968209759E-01 -0.74048074697E-02  0.83872704092E-01  0.51100000000E-03 0.  1.
</event>
<event>
 8    1  0.1191842E+005  0.1043930E+01  0.7957747E-01            NaN
         13   -1    0    0    0    0  0.00000000000E+00  0.00000000000E+00  0.74505805969E-08  0.10566000000E+00  0.10566000000E+00 0.  1.
     999900   -1    0    0    0    0 -0.00000000000E+00 -0.00000000000E+00 -0.74505805969E-08  0.93827000000E+00  0.93827000000E+00 0.  1.
     999902    2    1    2    0    0  0.24295874291E-02  0.17637737706E-01 -0.19820545952E-01  0.10172870511E+01  0.10169380992E+01 0.  0.
     999903    2    3    3    0    0  0.72524031656E-01 -0.96950709704E-01  0.27808969675E-01  0.12582066686E+00  0.19958109523E-01 0.  0.
         14    1    1    2    0    0 -0.24295874291E-02 -0.17637737706E-01  0.19820545952E-01  0.26642948942E-01  0.00000000000E+00 0.  1.
     999901    1    3    3    0    0 -0.70094444227E-01  0.11458844741E+00 -0.47629515627E-01  0.89146638420E+00  0.88000000000E+00 0.  1.
        -11    1    4    4    0    0  0.42305833149E-01 -0.53921598886E-01  0.25690877686E-01  0.73195660132E-01  0.51100000000E-03 0.  1.
         11    1    4    4    0    0  0.30218198507E-01 -0.43029110818E-01  0.21180919891E-02  0.52625006731E-01  0.51100000000E-03 0. -1.
</event>
<event>
 8    1  0.1191842E+005  0.1043930E+01  0.7957747E-01            NaN
         13   -1    0    0    0    0  0.00000000000E+00  0.00000000000E+00  0.74505805969E-08  0.10566000000E+00  0.10566000000E+00 0.  1.
     999900   -1    0    0    0    0 -0.00000000000E+00 -0.00000000000E+00 -0.74505805969E-08  0.93827000000E+00  0.93827000000E+00 0.  1.
     999902    2    1    2    0    0  0.12328079041E-02 -0.69241190145E-02  0.22337588603E-01  0.10205113941E+01  0.10202426546E+01 0.  0.
     999903    2    3    3    0    0  0.57594339863E-01 -0.11451514796E+00 -0.17707648416E-01  0.13126672987E+00  0.22058251511E-01 0.  0.
         14    1    1    2    0    0 -0.12328079041E-02  0.69241190145E-02 -0.22337588603E-01  0.23418605937E-01  0.00000000000E+00 0. -1.
     999901    1    3    3    0    0 -0.56361531959E-01  0.10759102895E+00  0.40045237018E-01  0.88924466420E+00  0.88000000000E+00 0.  1.
        -11    1    4    4    0    0  0.94882863653E-02 -0.40274232874E-01 -0.20868146504E-02  0.41432563620E-01  0.51100000000E-03 0.  1.
         11    1    4    4    0    0  0.48106053497E-01 -0.74240915091E-01 -0.15620833765E-01  0.89834166246E-01  0.51100000000E-03 0. -1.
</event>
<event>
 8    1  0.1191842E+005  0.1043930E+01  0.7957747E-01            NaN
         13   -1    0    0    0    0  0.00000000000E+00  0.00000000000E+00  0.74505805969E-08  0.10566000000E+00  0.10566000000E+00 0. -1.
     999900   -1    0    0    0    0 -0.00000000000E+00 -0.00000000000E+00 -0.74505805969E-08  0.93827000000E+00  0.93827000000E+00 0. -1.
     999902    2    1    2    0    0 -0.10152225035E-01  0.13651403722E-01  0.22329696751E-01  0.10158578812E+01  0.10154699360E+01 0.  0.
     999903    2    3    3    0    0 -0.10536306877E+00  0.63449508370E-01  0.33545412505E-01  0.12925157158E+00  0.21294545841E-01 0.  0.
         14    1    1    2    0    0  0.10152225035E-01 -0.13651403722E-01 -0.22329696751E-01  0.28072118797E-01  0.00000000000E+00 0.  1.
     999901    1    3    3    0    0  0.95210843731E-01 -0.49798104648E-01 -0.11215715753E-01  0.88660630963E+00  0.88000000000E+00 0.  1.
        -11    1    4    4    0    0 -0.78696452100E-01  0.57282069460E-01  0.23923437485E-01  0.10023452019E+00  0.51100000000E-03 0.  1.
         11    1    4    4    0    0 -0.26666616666E-01  0.61674389105E-02  0.96219750198E-02  0.29017051391E-01  0.51100000000E-03 0. -1.
</event>
<event>
 8    1  0.1191842E+005  0.1043930E+01  0.7957747E-01            NaN
         13   -1    0    0    0    0  0.00000000000E+00  0.00000000000E+00  0.74505805969E-08  0.10566000000E+00  0.10566000000E+00 0. -1.
     999900   -1    0    0    0    0 -0.00000000000E+00 -0.00000000000E+00 -0.74505805969E-08  0.93827000000E+00  0.93827000000E+00 0.  1.
     999902    2    1    2    0    0 -0.45195630699E-02  0.13746753588E-01 -0.19140810089E-01  0.10199347860E+01  0.10196524885E+01 0.  0.
     999903    2    3    3    0    0 -0.89037319151E-02 -0.12434306318E+00  0.22609789203E-01  0.12817745859E+00  0.19436679716E-01 0.  0.
         14    1    1    2    0    0  0.45195630699E-02 -0.13746753588E-01  0.19140810089E-01  0.23995214011E-01  0.00000000000E+00 0. -1.
     999901    1    3    3    0    0  0.43841688451E-02  0.13808981677E+00 -0.41750599293E-01  0.89175732740E+00  0.88000000000E+00 0.  1.
        -11    1    4    4    0    0 -0.33344896378E-03 -0.46791230057E-01  0.17584899918E-01  0.49990201286E-01  0.51100000000E-03 0. -1.
         11    1    4    4    0    0 -0.85702829513E-02 -0.77551833126E-01  0.50248892856E-02  0.78187257302E-01  0.51100000000E-03 0.  1.
</event>
<event>
 8    1  0.1191842E+005  0.1043930E+01  0.7957747E-01            NaN
         13   -1    0    0    0    0  0.00000000000E+00  0.00000000000E+00  0.74505805969E-08  0.10566000000E+00  0.10566000000E+00 0. -1.
     999900   -1    0    0    0    0 -0.00000000000E+00 -0.00000000000E+00 -0.74505805969E-08  0.93827000000E+00  0.93827000000E+00 0. -1.
     999902    2    1    2    0    0 -0.11616443877E-01  0.15912471300E-01  0.13758377108E-01  0.10198999885E+01  0.10196168619E+01 0.  0.
     999903    2    3    3    0    0 -0.42739225514E-01 -0.10887750375E+00 -0.49351855579E-01  0.12831484571E+00  0.18658557281E-01 0.  0.
         14    1    1    2    0    0  0.11616443877E-01 -0.15912471300E-01 -0.13758377108E-01  0.24030011483E-01  0.00000000000E+00 0.  1.
     999901    1    3    3    0    0  0.31122781636E-01  0.12478997505E+00  0.63110232687E-01  0.89158514281E+00  0.88000000000E+00 0. -1.
        -11    1    4    4    0    0 -0.11761101965E-01 -0.16294605442E-01 -0.33080070389E-02  0.20372572678E-01  0.51100000000E-03 0. -1.
         11    1    4    4    0    0 -0.30978123549E-01 -0.92582898306E-01 -0.46043848540E-01  0.10794227303E+00  0.51100000000E-03 0.  1.
</event>
<event>
 8    1  0.1191842E+005  0.1043930E+01  0.7957747E-01            NaN
         13   -1    0    0    0    0  0.00000000000E+00  0.00000000000E+00  0.74505805969E-08  0.10566000000E+00  0.10566000000E+00 0. -1.
     999900   -1    0    0    0    0 -0.00000000000E+00 -0.00000000000E+00 -0.74505805969E-08  0.93827000000E+00  0.93827000000E+00 0.  1.
     999902    2    1    2    0    0 -0.23747577041E-01 -0.46089251161E-03  0.13096324411E-02  0.10201418732E+01  0.10198644844E+01 0.  0.
     999903    2    3    3    0    0  0.43414250002E-01  0.10523579518E+00  0.58161876116E-01  0.12945973106E+00  0.20436448904E-01 0.  0.
         14    1    1    2    0    0  0.23747577041E-01  0.46089251161E-03 -0.13096324411E-02  0.23788126751E-01  0.00000000000E+00 0.  1.
     999901    1    3    3    0    0 -0.67161827042E-01 -0.10569668769E+00 -0.56852243675E-01  0.89068214219E+00  0.88000000000E+00 0. -1.
        -11    1    4    4    0    0  0.34732646864E-01  0.60945076641E-01  0.30276023132E-01  0.76403912352E-01  0.51100000000E-03 0.  1.
         11    1    4    4    0    0  0.86816031379E-02  0.44290718534E-01  0.27885852984E-01  0.53055818710E-01  0.51100000000E-03 0. -1.
</event>
<event>
 8    1  0.1191842E+005  0.1043930E+01  0.7957747E-01            NaN
         13   -1    0    0    0    0  0.00000000000E+00  0.00000000000E+00  0.74505805969E-08  0.10566000000E+00  0.10566000000E+00 0. -1.
     999900   -1    0    0    0    0 -0.00000000000E+00 -0.00000000000E+00 -0.74505805969E-08  0.93827000000E+00  0.93827000000E+00 0.  1.
     999902    2    1    2    0    0  0.22481837129E-02  0.17906074440E-01  0.13893597361E-01  0.10211547090E+01  0.10209006934E+01 0.  0.
     999903    2    3    3    0    0  0.28954151875E-01  0.11844003363E+00 -0.50126208767E-01  0.13271854290E+00  0.15335916894E-01 0.  0.
         14    1    1    2    0    0 -0.22481837129E-02 -0.17906074440E-01 -0.13893597361E-01  0.22775290986E-01  0.00000000000E+00 0.  1.
     999901    1    3    3    0    0 -0.26705968162E-01 -0.10053395919E+00  0.64019806128E-01  0.88843616612E+00  0.88000000000E+00 0. -1.
        -11    1    4    4    0    0  0.20585091625E-01  0.10155615974E+00 -0.38350921418E-01  0.11049187243E+00  0.51100000000E-03 0. -1.
         11    1    4    4    0    0  0.83690602500E-02  0.16883873884E-01 -0.11775287349E-01  0.22226670465E-01  0.51100000000E-03 0.  1.
</event>
<event>
 8    1  0.1191842E+005  0.1043930E+01  0.7957747E-01            NaN
         13   -1    0    0    0    0  0.00000000000E+00  0.00000000000E+00  0.74505805969E-08  0.10566000000E+00  0.10566000000E+00 0. -1.
     999900   -1    0    0    0    0 -0.00000000000E+00 -0.00000000000E+00 -0.74505805969E-08  0.93827000000E+00  0.93827000000E+00 0.  1.
     999902    2    1    2    0    0  0.48188509424E-02  0.22598399198E-01 -0.55122875782E-02  0.10201751208E+01  0.10198985160E+01 0.  0.
     999903    2    3    3    0    0 -0.59508179581E-01  0.10467414408E+00 -0.52200835404E-01  0.13278895051E+00  0.20250389723E-01 0.  0.
         14    1    1    2    0    0 -0.48188509424E-02 -0.22598399198E-01  0.55122875782E-02  0.23754879184E-01  0.00000000000E+00 0. -1.
     999901    1    3    3    0    0  0.64327030523E-01 -0.82075744884E-01  0.46688547826E-01  0.88738617031E+00  0.88000000000E+00 0. -1.
        -11    1    4    4    0    0 -0.12315523417E-01  0.27472603205E-01 -0.22378799837E-01  0.37516500997E-01  0.51100000000E-03 0.  1.
         11    1    4    4    0    0 -0.47192656164E-01  0.77201540877E-01 -0.29822035567E-01  0.95272449512E-01  0.51100000000E-03 0. -1.
</event>
<event>
 8    1  0.1191842E+005  0.1043930E+01  0.7957747E-01            NaN
         13   -1    0    0    0    0  0.00000000000E+00  0.00000000000E+00  0.74505805969E-08  0.10566000000E+00  0.10566000000E+00 0.  1.
     999900   -1    0    0    0    0 -0.00000000000E+00 -0.00000000000E+00 -0.74505805969E-08  0.93827000000E+00  0.93827000000E+00 0.  1.
     999902    2    1    2    0    0  0.10575219423E-01  0.46393251765E-02 -0.20548245418E-01  0.10203590646E+01  0.10200867766E+01 0.  0.
     999903    2    3    3    0    0 -0.12778749798E+00  0.75580135434E-03  0.10123098744E-02  0.12927871985E+00  0.19538340734E-01 0.  0.
         14    1    1    2    0    0 -0.10575219423E-01 -0.46393251765E-02  0.20548245418E-01  0.23570935359E-01  0.00000000000E+00 0.  1.
     999901    1    3    3    0    0  0.13836271741E+00  0.38835238222E-02 -0.21560555292E-01  0.89108034479E+00  0.88000000000E+00 0. -1.
        -11    1    4    4    0    0 -0.90412571963E-01 -0.66173498639E-02  0.60038499402E-02  0.90854443058E-01  0.51100000000E-03 0.  1.
         11    1    4    4    0    0 -0.37374926020E-01  0.73731512182E-02 -0.49915400658E-02  0.38424276794E-01  0.51100000000E-03 0. -1.
</event>
<event>
 8    1  0.1191842E+005  0.1043930E+01  0.7957747E-01            NaN
         13   -1    0    0    0    0  0.00000000000E+00  0.00000000000E+00  0.74505805969E-08  0.10566000000E+00  0.10566000000E+00 0. -1.
     999900   -1    0    0    0    0 -0.00000000000E+00 -0.00000000000E+00 -0.74505805969E-08  0.93827000000E+00  0.93827000000E+00 0. -1.
     999902    2    1    2    0    0  0.59706087588E-02  0.32757188703E-02  0.15934763028E-01  0.10266009730E+01  0.10264547056E+01 0.  0.
     999903    2    3    3    0    0 -0.20360450483E-01 -0.12727243529E+00  0.39323865271E-01  0.13627339548E+00  0.20279329528E-01 0.  0.
         14    1    1    2    0    0 -0.59706087588E-02 -0.32757188703E-02 -0.15934763028E-01  0.17329026973E-01  0.00000000000E+00 0.  1.
     999901    1    3    3    0    0  0.26331059242E-01  0.13054815417E+00 -0.23389102243E-01  0.89032757755E+00  0.88000000000E+00 0. -1.
        -11    1    4    4    0    0 -0.11395644336E-01 -0.78831876569E-01  0.13978094134E-01  0.80870103931E-01  0.51100000000E-03 0.  1.
         11    1    4    4    0    0 -0.89648061465E-02 -0.48440558726E-01  0.25345771138E-01  0.55403291549E-01  0.51100000000E-03 0. -1.
</event>
<event>
 8    1  0.1191842E+005  0.1043930E+01  0.7957747E-01            NaN
         13   -1    0    0    0    0  0.00000000000E+00  0.00000000000E+00  0.74505805969E-08  0.10566000000E+00  0.10566000000E+00 0.  1.
     999900   -1    0    0    0    0 -0.00000000000E+00 -0.00000000000E+00 -0.74505805969E-08  0.93827000000E+00  0.93827000000E+00 0.  1.
     999902    2    1    2    0    0 -0.23203416773E-01 -0.22054441022E-02 -0.75446136940E-02  0.10194313525E+01  0.10191369382E+01 0.  0.
     999903    2    3    3    0    0  0.25940703889E-01  0.88871671553E-01  0.86109575994E-01  0.12843118817E+00  0.22552536296E-01 0.  0.
         14    1    1    2    0    0  0.23203416773E-01  0.22054441022E-02  0.75446136940E-02  0.24498647502E-01  0.00000000000E+00 0. -1.
     999901    1    3    3    0    0 -0.49144120662E-01 -0.91077115655E-01 -0.93654189688E-01  0.89100016433E+00  0.88000000000E+00 0. -1.
        -11    1    4    4    0    0  0.43587907563E-02  0.29997766878E-01  0.41851803828E-01  0.51678812672E-01  0.51100000000E-03 0. -1.
         11    1    4    4    0    0  0.21581913132E-01  0.58873904675E-01  0.44257772167E-01  0.76752375496E-01  0.51100000000E-03 0.  1.
</event>
<event>
 8    1  0.1191842E+005  0.1043930E+01  0.7957747E-01            NaN
         13   -1    0    0    0    0  0.00000000000E+00  0.00000000000E+00  0.74505805969E-08  0.10566000000E+00  0.10566000000E+00 0. -1.
     999900   -1    0    0    0    0 -0.00000000000E+00 -0.00000000000E+00 -0.74505805969E-08  0.93827000000E+00  0.93827000000E+00 0. -1.
     999902    2    1    2    0    0  0.20930194322E-01  0.38941751619E-02 -0.10181620577E-01  0.10203312070E+01  0.10200582674E+01 0.  0.
     999903    2    3    3    0    0 -0.11020605623E+00 -0.59075369057E-01  0.17525477002E-01  0.12795821155E+00  0.20757829846E-01 0.  0.
         14    1    1    2    0    0 -0.20930194322E-01 -0.38941751619E-02  0.10181620577E-01  0.23598793023E-01  0.00000000000E+00 0. -1.
     999901    1    3    3    0    0  0.13113625055E+00  0.62969544218E-01 -0.27707097579E-01  0.89237299543E+00  0.88000000000E+00 0.  1.
        -11    1    4    4    0    0 -0.77170950567E-01 -0.51498711946E-01  0.10845996620E-01  0.93409687438E-01  0.51100000000E-03 0.  1.
         11    1    4    4    0    0 -0.33035105665E-01 -0.75766571106E-02  0.66794803822E-02  0.34548524114E-01  0.51100000000E-03 0. -1.
</event>
<event>
 8    1  0.1191842E+005  0.1043930E+01  0.7957747E-01            NaN
         13   -1    0    0    0    0  0.00000000000E+00  0.00000000000E+00  0.74505805969E-08  0.10566000000E+00  0.10566000000E+00 0. -1.
     999900   -1    0    0    0    0 -0.00000000000E+00 -0.00000000000E+00 -0.74505805969E-08  0.93827000000E+00  0.93827000000E+00 0. -1.
     999902    2    1    2    0    0  0.18608381369E-02 -0.69059891236E-02 -0.24735459913E-01  0.10181812451E+01  0.10178556132E+01 0.  0.
     999903    2    3    3    0    0  0.66281996633E-01  0.10745898630E+00  0.52325949776E-02  0.12794109903E+00  0.20020188774E-01 0.  0.
         14    1    1    2    0    0 -0.18608381369E-02  0.69059891236E-02  0.24735459913E-01  0.25748754949E-01  0.00000000000E+00 0. -1.
     999901    1    3    3    0    0 -0.64421158496E-01 -0.11436497542E+00 -0.29968054890E-01  0.89024014602E+00  0.88000000000E+00 0. -1.
        -11    1    4    4    0    0  0.30893582929E-01  0.68563035127E-01  0.14540328823E-02  0.75217541734E-01  0.51100000000E-03 0.  1.
         11    1    4    4    0    0  0.35388413705E-01  0.38895951170E-01  0.37785620953E-02  0.52723557301E-01  0.51100000000E-03 0. -1.
</event>
<event>
 8    1  0.1191842E+005  0.1043930E+01  0.7957747E-01            NaN
         13   -1    0    0    0    0  0.00000000000E+00  0.00000000000E+00  0.74505805969E-08  0.10566000000E+00  0.10566000000E+00 0.  1.
     999900   -1    0    0    0    0 -0.00000000000E+00 -0.00000000000E+00 -0.74505805969E-08  0.93827000000E+00  0.93827000000E+00 0. -1.
     999902    2    1    2    0    0  0.54903483896E-02 -0.90604602303E-02  0.21837120833E-01  0.10196587060E+01  0.10193697960E+01 0.  0.
     999903    2    3    3    0    0  0.93111030181E-01  0.19952817904E-01 -0.83871064840E-01  0.12853953627E+00  0.20500682507E-01 0.  0.
         14    1    1    2    0    0 -0.54903483896E-02  0.90604602303E-02 -0.21837120833E-01  0.24271293976E-01  0.00000000000E+00 0. -1.
     999901    1    3    3    0    0 -0.87620681791E-01 -0.29013278134E-01  0.10570818567E+00  0.89111916975E+00  0.88000000000E+00 0.  1.
        -11    1    4    4    0    0  0.18020468883E-01  0.41544614050E-02 -0.28236893856E-01  0.33757667928E-01  0.51100000000E-03 0. -1.
         11    1    4    4    0    0  0.75090561298E-01  0.15798356499E-01 -0.55634170984E-01  0.94781868341E-01  0.51100000000E-03 0.  1.
</event>
<event>
 8    1  0.1191842E+005  0.1043930E+01  0.7957747E-01            NaN
         13   -1    0    0    0    0  0.00000000000E+00  0.00000000000E+00  0.74505805969E-08  0.10566000000E+00  0.10566000000E+00 0. -1.
     999900   -1    0    0    0    0 -0.00000000000E+00 -0.00000000000E+00 -0.74505805969E-08  0.93827000000E+00  0.93827000000E+00 0.  1.
     999902    2    1    2    0    0 -0.87272558014E-04  0.12932963354E-01  0.23547602392E-01  0.10170644321E+01  0.10167095457E+01 0.  0.
     999903    2    3    3    0    0  0.10816551512E+00  0.20809325915E-01 -0.59210289758E-01  0.12654235390E+00  0.19346891509E-01 0.  0.
         14    1    1    2    0    0  0.87272558014E-04 -0.12932963354E-01 -0.23547602392E-01  0.26865567852E-01  0.00000000000E+00 0.  1.
     999901    1    3    3    0    0 -0.10825278768E+00 -0.78763625610E-02  0.82757892150E-01  0.89052207824E+00  0.88000000000E+00 0. -1.
        -11    1    4    4    0    0  0.42532131292E-01  0.10995455190E-01 -0.33989187002E-01  0.55546450662E-01  0.51100000000E-03 0. -1.
         11    1    4    4    0    0  0.65633383831E-01  0.98138707248E-02 -0.25221102757E-01  0.70995903241E-01  0.51100000000E-03 0.  1.
</event>
<event>
 8    1  0.1191842E+005  0.1043930E+01  0.7957747E-01            NaN
         13   -1    0    0    0    0  0.00000000000E+00  0.00000000000E+00  0.74505805969E-08  0.10566000000E+00  0.10566000000E+00 0. -1.
     999900   -1    0    0    0    0 -0.00000000000E+00 -0.00000000000E+00 -0.74505805969E-08  0.93827000000E+00  0.93827000000E+00 0. -1.
     999902    2    1    2    0    0 -0.15529861636E-01 -0.10097059880E-01 -0.13371613871E-01  0.10210842722E+01  0.10208286652E+01 0.  0.
     999903    2    3    3    0    0 -0.99614442836E-01  0.21897384887E-01  0.80657029103E-01  0.13151401249E+00  0.19693817553E-01 0.  0.
         14    1    1    2    0    0  0.15529861636E-01  0.10097059880E-01  0.13371613871E-01  0.22845727788E-01  0.00000000000E+00 0. -1.
     999901    1    3    3    0    0  0.84084581200E-01 -0.31994444767E-01 -0.94028642974E-01  0.88957025973E+00  0.88000000000E+00 0. -1.
        -11    1    4    4    0    0 -0.70878225922E-01  0.11709374244E-01  0.66501137482E-01  0.97895325539E-01  0.51100000000E-03 0. -1.
         11    1    4    4    0    0 -0.28736216914E-01  0.10188010643E-01  0.14155891621E-01  0.33618686946E-01  0.51100000000E-03 0.  1.
</event>
<event>
 8    1  0.1191842E+005  0.1043930E+01  0.7957747E-01            NaN
         13   -1    0    0    0    0  0.00000000000E+00  0.00000000000E+00  0.74505805969E-08  0.10566000000E+00  0.10566000000E+00 0. -1.
     999900   -1    0    0    0    0 -0.00000000000E+00 -0.00000000000E+00 -0.74505805969E-08  0.93827000000E+00  0.93827000000E+00 0.  1.
     999902    2    1    2    0    0  0.47163329128E-02 -0.21878963861E-01  0.55834850690E-02  0.10208625302E+01  0.10206018800E+01 0.  0.
     999903    2    3    3    0    0 -0.80448994919E-01  0.43238519985E-01  0.90711340238E-01  0.13027835595E+00  0.20057227796E-01 0.  0.
         14    1    1    2    0    0 -0.47163329128E-02  0.21878963861E-01 -0.55834850690E-02  0.23067469764E-01  0.00000000000E+00 0.  1.
     999901    1    3    3    0    0  0.85165327832E-01 -0.65117483846E-01 -0.85127855169E-01  0.89058417429E+00  0.88000000000E+00 0.  1.
        -11    1    4    4    0    0 -0.33233512059E-01  0.11155659991E-01  0.45595642058E-01  0.57516421735E-01  0.51100000000E-03 0.  1.
         11    1    4    4    0    0 -0.47215482860E-01  0.32082859994E-01  0.45115698180E-01  0.72761934213E-01  0.51100000000E-03 0. -1.
</event>
<event>
 8    1  0.1191842E+005  0.1043930E+01  0.7957747E-01            NaN
         13   -1    0    0    0    0  0.00000000000E+00  0.00000000000E+00  0.74505805969E-08  0.10566000000E+00  0.10566000000E+00 0.  1.
     999900   -1    0    0    0    0 -0.00000000000E+00 -0.00000000000E+00 -0.74505805969E-08  0.93827000000E+00  0.93827000000E+00 0.  1.
     999902    2    1    2    0    0  0.15949228317E-01 -0.49910398377E-03  0.16961209898E-01  0.10206424576E+01  0.10203767523E+01 0.  0.
     999903    2    3    3    0    0 -0.29641057046E-01 -0.12092487947E+00 -0.31354018133E-01  0.12996002107E+00  0.20127441145E-01 0.  0.
         14    1    1    2    0    0 -0.15949228317E-01  0.49910398377E-03 -0.16961209898E-01  0.23287542375E-01  0.00000000000E+00 0. -1.
     999901    1    3    3    0    0  0.45590285362E-01  0.12042577549E+00  0.48315228031E-01  0.89068243655E+00  0.88000000000E+00 0.  1.
        -11    1    4    4    0    0 -0.23437580918E-01 -0.54363633630E-01 -0.16833165566E-01  0.61549504017E-01  0.51100000000E-03 0. -1.
         11    1    4    4    0    0 -0.62034761273E-02 -0.66561245839E-01 -0.14520852566E-01  0.68410517057E-01  0.51100000000E-03 0.  1.
</event>
<event>
 8    1  0.1191842E+005  0.1043930E+01  0.7957747E-01            NaN
         13   -1    0    0    0    0  0.00000000000E+00  0.00000000000E+00  0.74505805969E-08  0.10566000000E+00  0.10566000000E+00 0. -1.
     999900   -1    0    0    0    0 -0.00000000000E+00 -0.00000000000E+00 -0.74505805969E-08  0.93827000000E+00  0.93827000000E+00 0. -1.
     999902    2    1    2    0    0  0.20866931549E-01 -0.58902618429E-02  0.78875001173E-02  0.10208575776E+01  0.10205968142E+01 0.  0.
     999903    2    3    3    0    0 -0.32454678877E-02 -0.47153522379E-01 -0.12031192227E+00  0.13028520190E+00  0.16287647469E-01 0.  0.
         14    1    1    2    0    0 -0.20866931549E-01  0.58902618429E-02 -0.78875001173E-02  0.23072422390E-01  0.00000000000E+00 0. -1.
     999901    1    3    3    0    0  0.24112399436E-01  0.41263260536E-01  0.12819942238E+00  0.89057237571E+00  0.88000000000E+00 0.  1.
        -11    1    4    4    0    0  0.46735341519E-02 -0.14242340281E-01 -0.25172647906E-01  0.29302039208E-01  0.51100000000E-03 0.  1.
         11    1    4    4    0    0 -0.79190020397E-02 -0.32911182097E-01 -0.95139274362E-01  0.10098316269E+00  0.51100000000E-03 0. -1.
</event>
<event>
 8    1  0.1191842E+005  0.1043930E+01  0.7957747E-01            NaN
         13   -1    0    0    0    0  0.00000000000E+00  0.00000000000E+00  0.74505805969E-08  0.10566000000E+00  0.10566000000E+00 0. -1.
     999900   -1    0    0    0    0 -0.00000000000E+00 -0.00000000000E+00 -0.74505805969E-08  0.93827000000E+00  0.93827000000E+00 0.  1.
     999902    2    1    2    0    0 -0.85938274923E-02  0.58209573103E-02 -0.21514852472E-01  0.10200422146E+01  0.10197624690E+01 0.  0.
     999903    2    3    3    0    0  0.10295300147E+00  0.26761314885E-01  0.68846023434E-01  0.12816426244E+00  0.19256550550E-01 0.  0.
         14    1    1    2    0    0  0.85938274923E-02 -0.58209573103E-02  0.21514852472E-01  0.23887785412E-01  0.00000000000E+00 0. -1.
     999901    1    3    3    0    0 -0.11154682896E+00 -0.20940357575E-01 -0.90360875906E-01  0.89187795214E+00  0.88000000000E+00 0.  1.
        -11    1    4    4    0    0  0.56765429476E-01  0.22803574872E-01  0.32623838075E-01  0.69331759982E-01  0.51100000000E-03 0. -1.
         11    1    4    4    0    0  0.46187571994E-01  0.39577400133E-02  0.36222185358E-01  0.58832502461E-01  0.51100000000E-03 0.  1.
</event>
<event>
 7    1  0.1191842E+005  0.1043930E+01  0.7957747E-01            NaN
         13   -1    0    0    0    0  0.00000000000E+00  0.00000000000E+00  0.74505805969E-08  0.10566000000E+00  0.10566000000E+00 0. -1.
     999900   -1    0    0    0    0 -0.00000000000E+00 -0.00000000000E+00 -0.74505805969E-08  0.93827000000E+00  0.93827000000E+00 0.  1.
     999903    2    1    2    0    0  0.57972246161E-01  0.59323010684E-01  0.65939117948E-01  0.10784463871E+00  0.20062350339E-01 0.  0.
         14    1    1    2    0    0  0.13678663110E-01  0.28273078418E-01  0.30291277570E-01  0.43635241314E-01  0.00000000000E+00 0.  1.
     999901    1    1    2    0    0 -0.71650909271E-01 -0.87596089102E-01 -0.96230395517E-01  0.89245011998E+00  0.88000000000E+00 0.  1.
        -11    1    3    3    0    0  0.38768145944E-01  0.38350348567E-01  0.54766672083E-01  0.77287566058E-01  0.51100000000E-03 0. -1.
         11    1    3    3    0    0  0.19204100217E-01  0.20972662117E-01  0.11172445864E-01  0.30557072651E-01  0.51100000000E-03 0.  1.
</event>
<event>
 8    1  0.1191842E+005  0.1043930E+01  0.7957747E-01            NaN
         13   -1    0    0    0    0  0.00000000000E+00  0.00000000000E+00  0.74505805969E-08  0.10566000000E+00  0.10566000000E+00 0.  1.
     999900   -1    0    0    0    0 -0.00000000000E+00 -0.00000000000E+00 -0.74505805969E-08  0.93827000000E+00  0.93827000000E+00 0.  1.
     999902    2    1    2    0    0  0.64004502281E-02  0.19727058744E-02 -0.22639539520E-01  0.10203205510E+01  0.10200473620E+01 0.  0.
     999903    2    3    3    0    0 -0.95383240436E-01 -0.46016657901E-01 -0.75690159445E-01  0.13157015468E+00  0.19136614239E-01 0.  0.
         14    1    1    2    0    0 -0.64004502281E-02 -0.19727058744E-02  0.22639539520E-01  0.23609448983E-01  0.00000000000E+00 0. -1.
     999901    1    3    3    0    0  0.10178369066E+00  0.47989363775E-01  0.53050619925E-01  0.88875039634E+00  0.88000000000E+00 0. -1.
        -11    1    4    4    0    0 -0.86382481291E-01 -0.35234978452E-01 -0.62485916137E-01  0.11228618623E+00  0.51100000000E-03 0.  1.
         11    1    4    4    0    0 -0.90007591444E-02 -0.10781679448E-01 -0.13204243308E-01  0.19283968451E-01  0.51100000000E-03 0. -1.
</event>
<event>
 8    1  0.1191842E+005  0.1043930E+01  0.7957747E-01            NaN
         13   -1    0    0    0    0  0.00000000000E+00  0.00000000000E+00  0.74505805969E-08  0.10566000000E+00  0.10566000000E+00 0.  1.
     999900   -1    0    0    0    0 -0.00000000000E+00 -0.00000000000E+00 -0.74505805969E-08  0.93827000000E+00  0.93827000000E+00 0.  1.
     999902    2    1    2    0    0 -0.20578607999E-01  0.13205987170E-01  0.75869267072E-03  0.10194667047E+01  0.10191731497E+01 0.  0.
     999903    2    3    3    0    0  0.53223009351E-01 -0.10848773008E+00 -0.34735668436E-01  0.12732552233E+00  0.20073506757E-01 0.  0.
         14    1    1    2    0    0  0.20578607999E-01 -0.13205987170E-01 -0.75869267072E-03  0.24463295340E-01  0.00000000000E+00 0. -1.
     999901    1    3    3    0    0 -0.73801617350E-01  0.12169371724E+00  0.35494361106E-01  0.89214118233E+00  0.88000000000E+00 0. -1.
        -11    1    4    4    0    0  0.12033069777E-01 -0.30552219463E-01 -0.18493142982E-01  0.37689392947E-01  0.51100000000E-03 0. -1.
         11    1    4    4    0    0  0.41189939575E-01 -0.77935510612E-01 -0.16242525454E-01  0.89636129383E-01  0.51100000000E-03 0.  1.
</event>
<event>
 8    1  0.1191842E+005  0.1043930E+01  0.7957747E-01            NaN
         13   -1    0    0    0    0  0.00000000000E+00  0.00000000000E+00  0.74505805969E-08  0.10566000000E+00  0.10566000000E+00 0. -1.
     999900   -1    0    0    0    0 -0.00000000000E+00 -0.00000000000E+00 -0.74505805969E-08  0.93827000000E+00  0.93827000000E+00 0.  1.
     999902    2    1    2    0    0  0.22007796429E-01  0.49865511022E-02  0.49393646146E-02  0.10208300840E+01  0.10205686916E+01 0.  0.
     999903    2    3    3    0    0  0.12323146914E+00 -0.45034226374E-01 -0.14600092568E-01  0.13340115701E+00  0.19199725476E-01 0.  0.
         14    1    1    2    0    0 -0.22007796429E-01 -0.49865511022E-02 -0.49393646146E-02  0.23099915981E-01  0.00000000000E+00 0. -1.
     999901    1    3    3    0    0 -0.10122367271E+00  0.50020777476E-01  0.19539457182E-01  0.88742892700E+00  0.88000000000E+00 0.  1.
        -11    1    4    4    0    0  0.34973756886E-01 -0.17158924847E-01  0.34101516731E-02  0.39108600436E-01  0.51100000000E-03 0.  1.
         11    1    4    4    0    0  0.88257712254E-01 -0.27875301527E-01 -0.18010244241E-01  0.94292556579E-01  0.51100000000E-03 0. -1.
</event>
<event>
 8    1  0.1191842E+005  0.1043930E+01  0.7957747E-01            NaN
         13   -1    0    0    0    0  0.00000000000E+00  0.00000000000E+00  0.74505805969E-08  0.10566000000E+00  0.10566000000E+00 0.  1.
     999900   -1    0    0    0    0 -0.00000000000E+00 -0.00000000000E+00 -0.74505805969E-08  0.93827000000E+00  0.93827000000E+00 0.  1.
     999902    2    1    2    0    0  0.39370916567E-02 -0.22035972180E-01  0.76656734740E-02  0.10202689072E+01  0.10199945077E+01 0.  0.
     999903    2    3    3    0    0  0.72884243568E-01  0.86505183262E-01 -0.57966095837E-01  0.12850524947E+00  0.18928052815E-01 0.  0.
         14    1    1    2    0    0 -0.39370916567E-02  0.22035972180E-01 -0.76656734740E-02  0.23661092756E-01  0.00000000000E+00 0. -1.
     999901    1    3    3    0    0 -0.68947151911E-01 -0.10854115544E+00  0.65631769311E-01  0.89176365777E+00  0.88000000000E+00 0. -1.
        -11    1    4    4    0    0  0.30785514067E-01  0.25710200793E-01 -0.26885720623E-01  0.48289392164E-01  0.51100000000E-03 0. -1.
         11    1    4    4    0    0  0.42098729501E-01  0.60794982469E-01 -0.31080375215E-01  0.80215857307E-01  0.51100000000E-03 0.  1.
</event>
<event>
 8    1  0.1191842E+005  0.1043930E+01  0.7957747E-01            NaN
         13   -1    0    0    0    0  0.00000000000E+00  0.00000000000E+00  0.74505805969E-08  0.10566000000E+00  0.10566000000E+00 0.  1.
     999900   -1    0    0    0    0 -0.00000000000E+00 -0.00000000000E+00 -0.74505805969E-08  0.93827000000E+00  0.93827000000E+00 0. -1.
     999902    2    1    2    0    0 -0.21170686249E-01  0.95634243392E-02 -0.52130144948E-02  0.10201217543E+01  0.10198438906E+01 0.  0.
     999903    2    3    3    0    0 -0.64122738899E-03 -0.65448937073E-01 -0.11088690419E+00  0.13039410837E+00  0.20560725624E-01 0.  0.
         14    1    1    2    0    0  0.21170686249E-01 -0.95634243392E-02  0.52130144948E-02  0.23808245661E-01  0.00000000000E+00 0.  1.
     999901    1    3    3    0    0 -0.20529458860E-01  0.75012361413E-01  0.10567388970E+00  0.88972764597E+00  0.88000000000E+00 0.  1.
        -11    1    4    4    0    0  0.56351304003E-02 -0.42739795718E-01 -0.56089470993E-01  0.70744149652E-01  0.51100000000E-03 0. -1.
         11    1    4    4    0    0 -0.62763577893E-02 -0.22709141355E-01 -0.54797433200E-01  0.59649958714E-01  0.51100000000E-03 0.  1.
</event>
<event>
 8    1  0.1191842E+005  0.1043930E+01  0.7957747E-01            NaN
         13   -1    0    0    0    0  0.00000000000E+00  0.00000000000E+00  0.74505805969E-08  0.10566000000E+00  0.10566000000E+00 0. -1.
     999900   -1    0    0    0    0 -0.00000000000E+00 -0.00000000000E+00 -0.74505805969E-08  0.93827000000E+00  0.93827000000E+00 0.  1.
     999902    2    1    2    0    0 -0.19697148297E-01 -0.22368250912E-01  0.43389153854E-02  0.10138111938E+01  0.10133637028E+01 0.  0.
     999903    2    3    3    0    0 -0.61359657381E-01 -0.73955116533E-01 -0.80923858275E-01  0.12720716159E+00  0.19965578036E-01 0.  0.
         14    1    1    2    0    0  0.19697148297E-01  0.22368250912E-01 -0.43389153854E-02  0.30118806195E-01  0.00000000000E+00 0. -1.
     999901    1    3    3    0    0  0.41662509084E-01  0.51586865620E-01  0.85262773660E-01  0.88660403222E+00  0.88000000000E+00 0. -1.
        -11    1    4    4    0    0 -0.28819802740E-01 -0.24970875768E-01 -0.41744248380E-01  0.56541746174E-01  0.51100000000E-03 0. -1.
         11    1    4    4    0    0 -0.32539854641E-01 -0.48984240765E-01 -0.39179609895E-01  0.70665415416E-01  0.51100000000E-03 0.  1.
</event>
<event>
 8    1  0.1191842E+005  0.1043930E+01  0.7957747E-01            NaN
         13   -1    0    0    0    0  0.00000000000E+00  0.00000000000E+00  0.74505805969E-08  0.10566000000E+00  0.10566000000E+00 0. -1.
     999900   -1    0    0    0    0 -0.00000000000E+00 -0.00000000000E+00 -0.74505805969E-08  0.93827000000E+00  0.93827000000E+00 0.  1.
     999902    2    1    2    0    0 -0.77418776306E-02 -0.13365453925E-01 -0.16026230372E-01  0.10216721455E+01  0.10214296651E+01 0.  0.
     999903    2    3    3    0    0 -0.78928344464E-02 -0.10434857698E+00 -0.82012092516E-01  0.13452385716E+00  0.20488105669E-01 0.  0.
         14    1    1    2    0    0  0.77418776306E-02  0.13365453925E-01  0.16026230372E-01  0.22257854519E-01  0.00000000000E+00 0. -1.
     999901    1    3    3    0    0  0.15095681582E-03  0.90983123051E-01  0.65985862144E-01  0.88714828832E+00  0.88000000000E+00 0. -1.
        -11    1    4    4    0    0 -0.97957752043E-02 -0.30266184438E-01 -0.17743137327E-01  0.36429097924E-01  0.51100000000E-03 0.  1.
         11    1    4    4    0    0  0.19029407579E-02 -0.74082392537E-01 -0.64268955189E-01  0.98094759236E-01  0.51100000000E-03 0. -1.
</event>
<event>
 8    1  0.1191842E+005  0.1043930E+01  0.7957747E-01            NaN
         13   -1    0    0    0    0  0.00000000000E+00  0.00000000000E+00  0.74505805969E-08  0.10566000000E+00  0.10566000000E+00 0. -1.
     999900   -1    0    0    0    0 -0.00000000000E+00 -0.00000000000E+00 -0.74505805969E-08  0.93827000000E+00  0.93827000000E+00 0.  1.
     999902    2    1    2    0    0 -0.10985593922E-01 -0.20753744165E-01 -0.66943607565E-02  0.10195124728E+01  0.10192200285E+01 0.  0.
     999903    2    3    3    0    0  0.11526543425E+00  0.50734611481E-01  0.43596677425E-02  0.12756398845E+00  0.19835405516E-01 0.  0.
         14    1    1    2    0    0  0.10985593922E-01  0.20753744165E-01  0.66943607565E-02  0.24417527242E-01  0.00000000000E+00 0. -1.
     999901    1    3    3    0    0 -0.12625102817E+00 -0.71488355647E-01 -0.11054028499E-01  0.89194848430E+00  0.88000000000E+00 0.  1.
        -11    1    4    4    0    0  0.10298128723E+00  0.50424110120E-01  0.73730270831E-02  0.11490151892E+00  0.51100000000E-03 0. -1.
         11    1    4    4    0    0  0.12284147024E-01  0.31050136098E-03 -0.30133593407E-02  0.12662469535E-01  0.51100000000E-03 0.  1.
</event>
<event>
 8    1  0.1191842E+005  0.1043930E+01  0.7957747E-01            NaN
         13   -1    0    0    0    0  0.00000000000E+00  0.00000000000E+00  0.74505805969E-08  0.10566000000E+00  0.10566000000E+00 0.  1.
     999900   -1    0    0    0    0 -0.00000000000E+00 -0.00000000000E+00 -0.74505805969E-08  0.93827000000E+00  0.93827000000E+00 0.  1.
     999902    2    1    2    0    0  0.74239591323E-02  0.18815359033E-01  0.11894178457E-01  0.10204650392E+01  0.10201952224E+01 0.  0.
     999903    2    3    3    0    0 -0.10696713632E+00 -0.40456341130E-01 -0.54949369360E-01  0.12857574278E+00  0.20823175773E-01 0.  0.
         14    1    1    2    0    0 -0.74239591323E-02 -0.18815359033E-01 -0.11894178457E-01  0.23464960812E-01  0.00000000000E+00 0. -1.
     999901    1    3    3    0    0  0.11439109545E+00  0.59271700163E-01  0.66843547817E-01  0.89188929641E+00  0.88000000000E+00 0.  1.
        -11    1    4    4    0    0 -0.37675879019E-01 -0.10306916721E-01 -0.88406422638E-02  0.40051497710E-01  0.51100000000E-03 0.  1.
         11    1    4    4    0    0 -0.69291257298E-01 -0.30149424409E-01 -0.46108727096E-01  0.88524245072E-01  0.51100000000E-03 0. -1.
</event>
<event>
 8    1  0.1191842E+005  0.1043930E+01  0.7957747E-01            NaN
         13   -1    0    0    0    0  0.00000000000E+00  0.00000000000E+00  0.74505805969E-08  0.10566000000E+00  0.10566000000E+00 0. -1.
     999900   -1    0    0    0    0 -0.00000000000E+00 -0.00000000000E+00 -0.74505805969E-08  0.93827000000E+00  0.93827000000E+00 0.  1.
     999902    2    1    2    0    0  0.92857105144E-02  0.17599707861E-01 -0.11677982560E-01  0.10208573016E+01  0.10205965318E+01 0.  0.
     999903    2    3    3    0    0  0.75343811953E-02  0.85068701448E-01  0.98133902237E-01  0.13146774558E+00  0.18975101922E-01 0.  0.
         14    1    1    2    0    0 -0.92857105144E-02 -0.17599707861E-01  0.11677982560E-01  0.23072698438E-01  0.00000000000E+00 0. -1.
     999901    1    3    3    0    0  0.17513293191E-02 -0.67468993587E-01 -0.10981188480E+00  0.88938955598E+00  0.88000000000E+00 0.  1.
        -11    1    4    4    0    0  0.78408239366E-02  0.33385763283E-01  0.27603068487E-01  0.44025881262E-01  0.51100000000E-03 0.  1.
         11    1    4    4    0    0 -0.30644274127E-03  0.51682938165E-01  0.70530833750E-01  0.87441864316E-01  0.51100000000E-03 0. -1.
</event>
<event>
 8    1  0.1191842E+005  0.1043930E+01  0.7957747E-01            NaN
         13   -1    0    0    0    0  0.00000000000E+00  0.00000000000E+00  0.74505805969E-08  0.10566000000E+00  0.10566000000E+00 0. -1.
     999900   -1    0    0    0    0 -0.00000000000E+00 -0.00000000000E+00 -0.74505805969E-08  0.93827000000E+00  0.93827000000E+00 0.  1.
     999902    2    1    2    0    0 -0.85501129016E-02  0.14222156165E-01  0.16557778198E-01  0.10204878547E+01  0.10202185685E+01 0.  0.
     999903    2    3    3    0    0 -0.60497174523E-01 -0.80402506084E-01  0.81679598451E-01  0.13150350424E+00  0.22296719820E-01 0.  0.
         14    1    1    2    0    0  0.85501129016E-02 -0.14222156165E-01 -0.16557778198E-01  0.23442145283E-01  0.00000000000E+00 0.  1.
     999901    1    3    3    0    0  0.51947061622E-01  0.94624662249E-01 -0.65121820253E-01  0.88898435048E+00  0.88000000000E+00 0.  1.
        -11    1    4    4    0    0 -0.67812972224E-02 -0.98302132604E-02  0.16946457856E-02  0.12072780546E-01  0.51100000000E-03 0. -1.
         11    1    4    4    0    0 -0.53715877301E-01 -0.70572292824E-01  0.79984952666E-01  0.11943072370E+00  0.51100000000E-03 0.  1.
</event>
<event>
 8    1  0.1191842E+005  0.1043930E+01  0.7957747E-01            NaN
         13   -1    0    0    0    0  0.00000000000E+00  0.00000000000E+00  0.74505805969E-08  0.10566000000E+00  0.10566000000E+00 0.  1.
     999900   -1    0    0    0    0 -0.00000000000E+00 -0.00000000000E+00 -0.74505805969E-08  0.93827000000E+00  0.93827000000E+00 0.  1.
     999902    2    1    2    0    0  0.12734501252E-01 -0.13903348081E-01 -0.12872788982E-01  0.10211006481E+01  0.10208454116E+01 0.  0.
     999903    2    3    3    0    0  0.11104857375E+00 -0.11036275022E-01 -0.71067626593E-01  0.13371092762E+00  0.19349922983E-01 0.  0.
         14    1    1    2    0    0 -0.12734501252E-01  0.13903348081E-01  0.12872788982E-01  0.22829351856E-01  0.00000000000E+00 0.  1.
     999901    1    3    3    0    0 -0.98314072494E-01 -0.28670730589E-02  0.58194837611E-01  0.88738972052E+00  0.88000000000E+00 0. -1.
        -11    1    4    4    0    0  0.35410338836E-01 -0.64126377335E-02 -0.13095466530E-01  0.38298386178E-01  0.51100000000E-03 0.  1.
         11    1    4    4    0    0  0.75638234910E-01 -0.46236372885E-02 -0.57972160063E-01  0.95412541447E-01  0.51100000000E-03 0. -1.
</event>
<event>
 8    1  0.1191842E+005  0.1043930E+01  0.7957747E-01            NaN
         13   -1    0    0    0    0  0.00000000000E+00  0.00000000000E+00  0.74505805969E-08  0.10566000000E+00  0.10566000000E+00 0.  1.
     999900   -1    0    0    0    0 -0.00000000000E+00 -0.00000000000E+00 -0.74505805969E-08  0.93827000000E+00  0.93827000000E+00 0.  1.
     999902    2    1    2    0    0 -0.81547964042E-03 -0.20926275386E-01  0.10146506283E-01  0.10206592974E+01  0.10203939807E+01 0.  0.
     999903    2    3    3    0    0 -0.11322429570E+00 -0.38965364145E-01 -0.51139549396E-01  0.13121164226E+00  0.16223464885E-01 0.  0.
         14    1    1    2    0    0  0.81547964042E-03  0.20926275386E-01 -0.10146506283E-01  0.23270702575E-01  0.00000000000E+00 0.  1.
     999901    1    3    3    0    0  0.11240881606E+00  0.18039088759E-01  0.61286055679E-01  0.88944765516E+00  0.88000000000E+00 0. -1.
        -11    1    4    4    0    0 -0.55937531303E-01 -0.11820762441E-01 -0.19912245162E-01  0.60543343659E-01  0.51100000000E-03 0.  1.
         11    1    4    4    0    0 -0.57286764399E-01 -0.27144601704E-01 -0.31227304234E-01  0.70668298604E-01  0.51100000000E-03 0. -1.
</event>
<event>
 8    1  0.1191842E+005  0.1043930E+01  0.7957747E-01            NaN
         13   -1    0    0    0    0  0.00000000000E+00  0.00000000000E+00  0.74505805969E-08  0.10566000000E+00  0.10566000000E+00 0.  1.
     999900   -1    0    0    0    0 -0.00000000000E+00 -0.00000000000E+00 -0.74505805969E-08  0.93827000000E+00  0.93827000000E+00 0.  1.
     999902    2    1    2    0    0 -0.25050232477E-01 -0.54253566987E-02 -0.49302516871E-03  0.10182942493E+01  0.10179715057E+01 0.  0.
     999903    2    3    3    0    0  0.19116120930E-01  0.59052658165E-01  0.11007171225E+00  0.12793890315E+00  0.19998464602E-01 0.  0.
         14    1    1    2    0    0  0.25050232477E-01  0.54253566987E-02  0.49302516871E-03  0.25635750746E-01  0.00000000000E+00 0. -1.
     999901    1    3    3    0    0 -0.44166353407E-01 -0.64478014864E-01 -0.11056473742E+00  0.89035534610E+00  0.88000000000E+00 0.  1.
        -11    1    4    4    0    0  0.23104012384E-01  0.45433023329E-01  0.84237532069E-01  0.98459016485E-01  0.51100000000E-03 0. -1.
         11    1    4    4    0    0 -0.39878914542E-02  0.13619634837E-01  0.25834180179E-01  0.29479886666E-01  0.51100000000E-03 0.  1.
</event>
<event>
 8    1  0.1191842E+005  0.1043930E+01  0.7957747E-01            NaN
         13   -1    0    0    0    0  0.00000000000E+00  0.00000000000E+00  0.74505805969E-08  0.10566000000E+00  0.10566000000E+00 0.  1.
     999900   -1    0    0    0    0 -0.00000000000E+00 -0.00000000000E+00 -0.74505805969E-08  0.93827000000E+00  0.93827000000E+00 0. -1.
     999902    2    1    2    0    0  0.31745038540E-02 -0.11121651458E-01  0.20875226158E-01  0.10200648859E+01  0.10197856773E+01 0.  0.
     999903    2    3    3    0    0  0.94219694723E-02  0.67321144093E-01  0.11125196271E+00  0.13194312759E+00  0.20275101981E-01 0.  0.
         14    1    1    2    0    0 -0.31745038540E-02  0.11121651458E-01 -0.20875226158E-01  0.23865114142E-01  0.00000000000E+00 0. -1.
     999901    1    3    3    0    0 -0.62474656183E-02 -0.78442795552E-01 -0.90376736552E-01  0.88812175827E+00  0.88000000000E+00 0. -1.
        -11    1    4    4    0    0 -0.53734494441E-02  0.29870079111E-01  0.54000871695E-01  0.61947161757E-01  0.51100000000E-03 0.  1.
         11    1    4    4    0    0  0.14795418916E-01  0.37451064982E-01  0.57251091015E-01  0.69995965832E-01  0.51100000000E-03 0. -1.
</event>
<event>
 8    1  0.1191842E+005  0.1043930E+01  0.7957747E-01            NaN
         13   -1    0    0    0    0  0.00000000000E+00  0.00000000000E+00  0.74505805969E-08  0.10566000000E+00  0.10566000000E+00 0.  1.
     999900   -1    0    0    0    0 -0.00000000000E+00 -0.00000000000E+00 -0.74505805969E-08  0.93827000000E+00  0.93827000000E+00 0. -1.
     999902    2    1    2    0    0 -0.10392173231E-01 -0.19367170666E-01 -0.91826923355E-02  0.10201097061E+01  0.10198315577E+01 0.  0.
     999903    2    3    3    0    0  0.49477520643E-01 -0.85558989302E-01  0.83196150269E-01  0.13078435073E+00  0.20361269045E-01 0.  0.
         14    1    1    2    0    0  0.10392173231E-01  0.19367170666E-01  0.91826923355E-02  0.23820293924E-01  0.00000000000E+00 0. -1.
     999901    1    3    3    0    0 -0.59869693875E-01  0.66191818636E-01 -0.92378842604E-01  0.88932535535E+00  0.88000000000E+00 0. -1.
        -11    1    4    4    0    0  0.25613038311E-01 -0.52549518517E-01  0.36968410164E-01  0.69169387007E-01  0.51100000000E-03 0. -1.
         11    1    4    4    0    0  0.23864482333E-01 -0.33009470786E-01  0.46227740104E-01  0.61614963724E-01  0.51100000000E-03 0.  1.
</event>
<event>
 8    1  0.1191842E+005  0.1043930E+01  0.7957747E-01            NaN
         13   -1    0    0    0    0  0.00000000000E+00  0.00000000000E+00  0.74505805969E-08  0.10566000000E+00  0.10566000000E+00 0.  1.
     999900   -1    0    0    0    0 -0.00000000000E+00 -0.00000000000E+00 -0.74505805969E-08  0.93827000000E+00  0.93827000000E+00 0.  1.
     999902    2    1    2    0    0  0.14186778943E-01 -0.14917411153E-01  0.10935822478E-01  0.10206193572E+01  0.10203531184E+01 0.  0.
     999903    2    3    3    0    0 -0.74961685791E-01 -0.10090443734E+00 -0.30395675229E-01  0.13098487605E+00  0.20788960253E-01 0.  0.
         14    1    1    2    0    0 -0.14186778943E-01  0.14917411153E-01 -0.10935822478E-01  0.23310642753E-01  0.00000000000E+00 0. -1.
     999901    1    3    3    0    0  0.89148464734E-01  0.85987026189E-01  0.41331497708E-01  0.88963448120E+00  0.88000000000E+00 0. -1.
        -11    1    4    4    0    0 -0.60998030152E-01 -0.66392815561E-01 -0.22431336249E-01  0.92909588351E-01  0.51100000000E-03 0.  1.
         11    1    4    4    0    0 -0.13963655639E-01 -0.34511621781E-01 -0.79643389803E-02  0.38075287696E-01  0.51100000000E-03 0. -1.
</event>
<event>
 8    1  0.1191842E+005  0.1043930E+01  0.7957747E-01            NaN
         13   -1    0    0    0    0  0.00000000000E+00  0.00000000000E+00  0.74505805969E-08  0.10566000000E+00  0.10566000000E+00 0.  1.
     999900   -1    0    0    0    0 -0.00000000000E+00 -0.00000000000E+00 -0.74505805969E-08  0.93827000000E+00  0.93827000000E+00 0.  1.
     999902    2    1    2    0    0 -0.17267814038E-02 -0.12458308514E-01  0.24244261839E-01  0.10166174487E+01  0.10162504916E+01 0.  0.
     999903    2    3    3    0    0  0.92332428119E-01  0.79777406022E-01 -0.22275232189E-01  0.12559633491E+00  0.19711458108E-01 0.  0.
         14    1    1    2    0    0  0.17267814038E-02  0.12458308514E-01 -0.24244261839E-01  0.27312551275E-01  0.00000000000E+00 0. -1.
     999901    1    3    3    0    0 -0.94059209523E-01 -0.92235714536E-01  0.46519494028E-01  0.89102111381E+00  0.88000000000E+00 0.  1.
        -11    1    4    4    0    0  0.34091288495E-01  0.23376957270E-01 -0.15822329852E-01  0.44264040997E-01  0.51100000000E-03 0. -1.
         11    1    4    4    0    0  0.58241139624E-01  0.56400448753E-01 -0.64529023367E-02  0.81332293917E-01  0.51100000000E-03 0.  1.
</event>
<event>
 8    1  0.1191842E+005  0.1043930E+01  0.7957747E-01            NaN
         13   -1    0    0    0    0  0.00000000000E+00  0.00000000000E+00  0.74505805969E-08  0.10566000000E+00  0.10566000000E+00 0. -1.
     999900   -1    0    0    0    0 -0.00000000000E+00 -0.00000000000E+00 -0.74505805969E-08  0.93827000000E+00  0.93827000000E+00 0. -1.
     999902    2    1    2    0    0  0.26047010538E-01 -0.93808234456E-02  0.10704699035E-01  0.10142477294E+01  0.10138133060E+01 0.  0.
     999903    2    3    3    0    0 -0.10083319295E-01  0.83816502526E-01 -0.87362175309E-01  0.12317632141E+00  0.20331676197E-01 0.  0.
         14    1    1    2    0    0 -0.26047010538E-01  0.93808234456E-02 -0.10704699035E-01  0.29682270599E-01  0.00000000000E+00 0.  1.
     999901    1    3    3    0    0  0.36130329832E-01 -0.93197325971E-01  0.98066874344E-01  0.89107140799E+00  0.88000000000E+00 0.  1.
        -11    1    4    4    0    0 -0.27598302288E-02  0.91106868818E-02 -0.24543417937E-02  0.98440943204E-02  0.51100000000E-03 0.  1.
         11    1    4    4    0    0 -0.73234890661E-02  0.74705815644E-01 -0.84907833515E-01  0.11333222709E+00  0.51100000000E-03 0. -1.
</event>
<event>
 8    1  0.1191842E+005  0.1043930E+01  0.7957747E-01            NaN
         13   -1    0    0    0    0  0.00000000000E+00  0.00000000000E+00  0.74505805969E-08  0.10566000000E+00  0.10566000000E+00 0. -1.
     999900   -1    0    0    0    0 -0.00000000000E+00 -0.00000000000E+00 -0.74505805969E-08  0.93827000000E+00  0.93827000000E+00 0. -1.
     999902    2    1    2    0    0  0.19429503398E-01 -0.34159448300E-02  0.13873504307E-01  0.10198126120E+01  0.10195273980E+01 0.  0.
     999903    2    3    3    0    0 -0.88690983774E-01 -0.90571018819E-01 -0.11966936474E-01  0.12854734564E+00  0.17663874151E-01 0.  0.
         14    1    1    2    0    0 -0.19429503398E-01  0.34159448300E-02 -0.13873504307E-01  0.24117387983E-01  0.00000000000E+00 0.  1.
     999901    1    3    3    0    0  0.10812048717E+00  0.87155073989E-01  0.25840440781E-01  0.89126526638E+00  0.88000000000E+00 0. -1.
        -11    1    4    4    0    0 -0.56827398790E-03 -0.42698827846E-02  0.12048850095E-02  0.45019665932E-02  0.51100000000E-03 0.  1.
         11    1    4    4    0    0 -0.88122709786E-01 -0.86301136034E-01 -0.13171821483E-01  0.12404537905E+00  0.51100000000E-03 0. -1.
</event>
<event>
 8    1  0.1191842E+005  0.1043930E+01  0.7957747E-01            NaN
         13   -1    0    0    0    0  0.00000000000E+00  0.00000000000E+00  0.74505805969E-08  0.10566000000E+00  0.10566000000E+00 0.  1.
     999900   -1    0    0    0    0 -0.00000000000E+00 -0.00000000000E+00 -0.74505805969E-08  0.93827000000E+00  0.93827000000E+00 0.  1.
     999902    2    1    2    0    0  0.12120792827E-02  0.38946646530E-02 -0.22212018469E-01  0.10213465699E+01  0.10210968635E+01 0.  0.
     999903    2    3    3    0    0 -0.71089423655E-01  0.46291089499E-01  0.93299645986E-01  0.12984900472E+00  0.30973681774E-01 0.  0.
         14    1    1    2    0    0 -0.12120792827E-02 -0.38946646530E-02  0.22212018469E-01  0.22583430063E-01  0.00000000000E+00 0.  1.
     999901    1    3    3    0    0  0.72301502938E-01 -0.42396424846E-01 -0.11551166445E+00  0.89149756522E+00  0.88000000000E+00 0.  1.
        -11    1    4    4    0    0 -0.26733790187E-01  0.34788604616E-01  0.53165915940E-01  0.68933433744E-01  0.51100000000E-03 0. -1.
         11    1    4    4    0    0 -0.44355633467E-01  0.11502484883E-01  0.40133730046E-01  0.60915570975E-01  0.51100000000E-03 0.  1.
</event>
<event>
 8    1  0.1191842E+005  0.1043930E+01  0.7957747E-01            NaN
         13   -1    0    0    0    0  0.00000000000E+00  0.00000000000E+00  0.74505805969E-08  0.10566000000E+00  0.10566000000E+00 0.  1.
     999900   -1    0    0    0    0 -0.00000000000E+00 -0.00000000000E+00 -0.74505805969E-08  0.93827000000E+00  0.93827000000E+00 0. -1.
     999902    2    1    2    0    0 -0.84639054436E-02  0.10491986273E-01  0.21718019094E-01  0.10183684698E+01  0.10180476160E+01 0.  0.
     999903    2    3    3    0    0  0.12433366203E+00  0.65967770236E-02  0.24331485871E-01  0.12839251690E+00  0.19754498504E-01 0.  0.
         14    1    1    2    0    0  0.84639054436E-02 -0.10491986273E-01 -0.21718019094E-01  0.25561530171E-01  0.00000000000E+00 0.  1.
     999901    1    3    3    0    0 -0.13279756747E+00  0.38952092492E-02 -0.26134667768E-02  0.88997595293E+00  0.88000000000E+00 0.  1.
        -11    1    4    4    0    0  0.42315489116E-01  0.42066946599E-02  0.17722623706E-01  0.46072219516E-01  0.51100000000E-03 0.  1.
         11    1    4    4    0    0  0.82018172912E-01  0.23900823637E-02  0.66088621651E-02  0.82320297386E-01  0.51100000000E-03 0. -1.
</event>
<event>
 8    1  0.1191842E+005  0.1043930E+01  0.7957747E-01            NaN
         13   -1    0    0    0    0  0.00000000000E+00  0.00000000000E+00  0.74505805969E-08  0.10566000000E+00  0.10566000000E+00 0.  1.
     999900   -1    0    0    0    0 -0.00000000000E+00 -0.00000000000E+00 -0.74505805969E-08  0.93827000000E+00  0.93827000000E+00 0.  1.
     999902    2    1    2    0    0 -0.12769017620E-01 -0.43792755622E-02 -0.19412893818E-01  0.10202849939E+01  0.10200109718E+01 0.  0.
     999903    2    3    3    0    0  0.39120870664E-01  0.12067651519E+00  0.14309812849E-01  0.12929187822E+00  0.20453732895E-01 0.  0.
         14    1    1    2    0    0  0.12769017620E-01  0.43792755622E-02  0.19412893818E-01  0.23645006065E-01  0.00000000000E+00 0.  1.
     999901    1    3    3    0    0 -0.51889888284E-01 -0.12505579075E+00 -0.33722706667E-01  0.89099311572E+00  0.88000000000E+00 0. -1.
        -11    1    4    4    0    0  0.11304576441E-02  0.28767442538E-01  0.66002089646E-02  0.29540947244E-01  0.51100000000E-03 0.  1.
         11    1    4    4    0    0  0.37990413020E-01  0.91909072654E-01  0.77096038847E-02  0.99750930976E-01  0.51100000000E-03 0. -1.
</event>
<event>
 8    1  0.1191842E+005  0.1043930E+01  0.7957747E-01            NaN
         13   -1    0    0    0    0  0.00000000000E+00  0.00000000000E+00  0.74505805969E-08  0.10566000000E+00  0.10566000000E+00 0. -1.
     999900   -1    0    0    0    0 -0.00000000000E+00 -0.00000000000E+00 -0.74505805969E-08  0.93827000000E+00  0.93827000000E+00 0. -1.
     999902    2    1    2    0    0 -0.11119582083E-01 -0.38821552079E-02 -0.19719824008E-01  0.10209607228E+01  0.10207023121E+01 0.  0.
     999903    2    3    3    0    0  0.36537211852E-01 -0.10369458431E+00  0.66239483666E-01  0.12988121258E+00  0.19847557003E-01 0.  0.
         14    1    1    2    0    0  0.11119582083E-01  0.38821552079E-02  0.19719824008E-01  0.22969277169E-01  0.00000000000E+00 0. -1.
     999901    1    3    3    0    0 -0.47656793935E-01  0.99812429107E-01 -0.85959307674E-01  0.89107951025E+00  0.88000000000E+00 0.  1.
        -11    1    4    4    0    0  0.20653971114E-01 -0.76758368287E-01  0.39645109467E-01  0.88828089311E-01  0.51100000000E-03 0.  1.
         11    1    4    4    0    0  0.15883240738E-01 -0.26936216028E-01  0.26594374199E-01  0.41053123270E-01  0.51100000000E-03 0. -1.
</event>
<event>
 8    1  0.1191842E+005  0.1043930E+01  0.7957747E-01            NaN
         13   -1    0    0    0    0  0.00000000000E+00  0.00000000000E+00  0.74505805969E-08  0.10566000000E+00  0.10566000000E+00 0.  1.
     999900   -1    0    0    0    0 -0.00000000000E+00 -0.00000000000E+00 -0.74505805969E-08  0.93827000000E+00  0.93827000000E+00 0. -1.
     999902    2    1    2    0    0 -0.31276652005E-02 -0.87232362393E-02 -0.21742522886E-01  0.10202949743E+01  0.10200211861E+01 0.  0.
     999903    2    3    3    0    0 -0.77136124694E-01 -0.23455117048E-01 -0.10424986200E+00  0.13322015138E+00  0.19479495838E-01 0.  0.
         14    1    1    2    0    0  0.31276652005E-02  0.87232362393E-02  0.21742522886E-01  0.23635025736E-01  0.00000000000E+00 0.  1.
     999901    1    3    3    0    0  0.74008459493E-01  0.14731880809E-01  0.82507339113E-01  0.88707482288E+00  0.88000000000E+00 0.  1.
        -11    1    4    4    0    0 -0.29407810436E-01  0.34998473327E-03 -0.41450001589E-01  0.50826229023E-01  0.51100000000E-03 0. -1.
         11    1    4    4    0    0 -0.47728314258E-01 -0.23805101781E-01 -0.62799860410E-01  0.82393922356E-01  0.51100000000E-03 0.  1.
</event>
<event>
 8    1  0.1191842E+005  0.1043930E+01  0.7957747E-01            NaN
         13   -1    0    0    0    0  0.00000000000E+00  0.00000000000E+00  0.74505805969E-08  0.10566000000E+00  0.10566000000E+00 0. -1.
     999900   -1    0    0    0    0 -0.00000000000E+00 -0.00000000000E+00 -0.74505805969E-08  0.93827000000E+00  0.93827000000E+00 0.  1.
     999902    2    1    2    0    0 -0.67923871225E-02  0.11387091766E-01 -0.17687343390E-01  0.10218246953E+01  0.10215855634E+01 0.  0.
     999903    2    3    3    0    0  0.63433649460E-01 -0.52093922767E-01  0.97773146364E-01  0.12924827829E+00  0.20197143831E-01 0.  0.
         14    1    1    2    0    0  0.67923871225E-02 -0.11387091766E-01  0.17687343390E-01  0.22105304746E-01  0.00000000000E+00 0. -1.
     999901    1    3    3    0    0 -0.70226036583E-01  0.63481014533E-01 -0.11546048975E+00  0.89257641696E+00  0.88000000000E+00 0.  1.
        -11    1    4    4    0    0  0.58488363561E-01 -0.52913973829E-01  0.87473978255E-01  0.11778257635E+00  0.51100000000E-03 0. -1.
         11    1    4    4    0    0  0.49452858992E-02  0.82005106266E-03  0.10299168109E-01  0.11465701945E-01  0.51100000000E-03 0.  1.
</event>
<event>
 8    1  0.1191842E+005  0.1043930E+01  0.7957747E-01            NaN
         13   -1    0    0    0    0  0.00000000000E+00  0.00000000000E+00  0.74505805969E-08  0.10566000000E+00  0.10566000000E+00 0. -1.
     999900   -1    0    0    0    0 -0.00000000000E+00 -0.00000000000E+00 -0.74505805969E-08  0.93827000000E+00  0.93827000000E+00 0.  1.
     999902    2    1    2    0    0 -0.55696565754E-02 -0.91206506566E-02 -0.21510408317E-01  0.10199111531E+01  0.10196282926E+01 0.  0.
     999903    2    3    3    0    0 -0.94755981030E-01 -0.88798285076E-01  0.28090167757E-02  0.13148886589E+00  0.20435261275E-01 0.  0.
         14    1    1    2    0    0  0.55696565754E-02  0.91206506566E-02  0.21510408317E-01  0.24018846948E-01  0.00000000000E+00 0. -1.
     999901    1    3    3    0    0  0.89186324454E-01  0.79677634419E-01 -0.24319425093E-01  0.88842228717E+00  0.88000000000E+00 0.  1.
        -11    1    4    4    0    0 -0.36390281501E-01 -0.21473150180E-01 -0.14739436716E-02  0.42282175882E-01  0.51100000000E-03 0. -1.
         11    1    4    4    0    0 -0.58365699528E-01 -0.67325134896E-01  0.42829604473E-02  0.89206690004E-01  0.51100000000E-03 0.  1.
</event>
<event>
 8    1  0.1191842E+005  0.1043930E+01  0.7957747E-01            NaN
         13   -1    0    0    0    0  0.00000000000E+00  0.00000000000E+00  0.74505805969E-08  0.10566000000E+00  0.10566000000E+00 0.  1.
     999900   -1    0    0    0    0 -0.00000000000E+00 -0.00000000000E+00 -0.74505805969E-08  0.93827000000E+00  0.93827000000E+00 0.  1.
     999902    2    1    2    0    0  0.10623611767E-01  0.83603836237E-02 -0.19197756803E-01  0.10204499871E+01  0.10201798200E+01 0.  0.
     999903    2    3    3    0    0  0.11359312059E+00 -0.48858774937E-01 -0.42513330167E-01  0.13229438819E+00  0.20095894386E-01 0.  0.
         14    1    1    2    0    0 -0.10623611767E-01 -0.83603836237E-02  0.19197756803E-01  0.23480012938E-01  0.00000000000E+00 0. -1.
     999901    1    3    3    0    0 -0.10296950882E+00  0.57219158561E-01  0.23315573365E-01  0.88815559888E+00  0.88000000000E+00 0.  1.
        -11    1    4    4    0    0  0.90375759691E-01 -0.37865522082E-01 -0.41959872641E-01  0.10659487668E+00  0.51100000000E-03 0. -1.
         11    1    4    4    0    0  0.23217360895E-01 -0.10993252855E-01 -0.55345752587E-03  0.25699511503E-01  0.51100000000E-03 0.  1.
</event>
<event>
 8    1  0.1191842E+005  0.1043930E+01  0.7957747E-01            NaN
         13   -1    0    0    0    0  0.00000000000E+00  0.00000000000E+00  0.74505805969E-08  0.10566000000E+00  0.10566000000E+00 0.  1.
     999900   -1    0    0    0    0 -0.00000000000E+00 -0.00000000000E+00 -0.74505805969E-08  0.93827000000E+00  0.93827000000E+00 0. -1.
     999902    2    1    2    0    0 -0.18086926237E-01 -0.12411203523E-01  0.49182268693E-02  0.10214497013E+01  0.10212022956E+01 0.  0.
     999903    2    3    3    0    0 -0.10852400853E+00 -0.91380422040E-02 -0.74205803744E-01  0.13327731283E+00  0.19884078152E-01 0.  0.
         14    1    1    2    0    0  0.18086926237E-01  0.12411203523E-01 -0.49182268693E-02  0.22480298689E-01  0.00000000000E+00 0.  1.
     999901    1    3    3    0    0  0.90437082290E-01 -0.32731613194E-02  0.79124030614E-01  0.88817238848E+00  0.88000000000E+00 0.  1.
        -11    1    4    4    0    0 -0.16992357281E-01 -0.57634353748E-02 -0.54886962494E-02  0.18770836444E-01  0.51100000000E-03 0.  1.
         11    1    4    4    0    0 -0.91531651246E-01 -0.33746068292E-02 -0.68717107495E-01  0.11450647639E+00  0.51100000000E-03 0. -1.
</event>
<event>
 8    1  0.1191842E+005  0.1043930E+01  0.7957747E-01            NaN
         13   -1    0    0    0    0  0.00000000000E+00  0.00000000000E+00  0.74505805969E-08  0.10566000000E+00  0.10566000000E+00 0. -1.
     999900   -1    0    0    0    0 -0.00000000000E+00 -0.00000000000E+00 -0.74505805969E-08  0.93827000000E+00  0.93827000000E+00 0. -1.
     999902    2    1    2    0    0  0.19337914978E-02  0.76603376852E-02  0.21843133586E-01  0.10207019392E+01  0.10204376051E+01 0.  0.
     999903    2    3    3    0    0  0.96754421070E-01  0.10088272978E-01  0.88734421053E-01  0.13308079762E+00  0.19326405975E-01 0.  0.
         14    1    1    2    0    0 -0.19337914978E-02 -0.76603376852E-02 -0.21843133586E-01  0.23228060786E-01  0.00000000000E+00 0. -1.
     999901    1    3    3    0    0 -0.94820629572E-01 -0.24279352933E-02 -0.66891287467E-01  0.88762114159E+00  0.88000000000E+00 0.  1.
        -11    1    4    4    0    0  0.13506669562E-01  0.29627569510E-02  0.22691968655E-01  0.26578085218E-01  0.51100000000E-03 0. -1.
         11    1    4    4    0    0  0.83247751508E-01  0.71255160274E-02  0.66042452398E-01  0.10650271240E+00  0.51100000000E-03 0.  1.
</event>
<event>
 8    1  0.1191842E+005  0.1043930E+01  0.7957747E-01            NaN
         13   -1    0    0    0    0  0.00000000000E+00  0.00000000000E+00  0.74505805969E-08  0.10566000000E+00  0.10566000000E+00 0. -1.
     999900   -1    0    0    0    0 -0.00000000000E+00 -0.00000000000E+00 -0.74505805969E-08  0.93827000000E+00  0.93827000000E+00 0. -1.
     999902    2    1    2    0    0  0.91609013847E-02  0.14411755493E-01 -0.16108341315E-01  0.10204544921E+01  0.10201844299E+01 0.  0.
     999903    2    3    3    0    0  0.19588648559E-01  0.18052390014E-01  0.12492815098E+00  0.12915584167E+00  0.19094098352E-01 0.  0.
         14    1    1    2    0    0 -0.91609013847E-02 -0.14411755493E-01  0.16108341315E-01  0.23475507886E-01  0.00000000000E+00 0. -1.
     999901    1    3    3    0    0 -0.10427747174E-01 -0.36406345202E-02 -0.14103649229E+00  0.89129865045E+00  0.88000000000E+00 0. -1.
        -11    1    4    4    0    0  0.17710412863E-01  0.20580337198E-01  0.88117429523E-01  0.92207112035E-01  0.51100000000E-03 0.  1.
         11    1    4    4    0    0  0.18782356958E-02 -0.25279471843E-02  0.36810721456E-01  0.36948729632E-01  0.51100000000E-03 0. -1.
</event>
<event>
 8    1  0.1191842E+005  0.1043930E+01  0.7957747E-01            NaN
         13   -1    0    0    0    0  0.00000000000E+00  0.00000000000E+00  0.74505805969E-08  0.10566000000E+00  0.10566000000E+00 0.  1.
     999900   -1    0    0    0    0 -0.00000000000E+00 -0.00000000000E+00 -0.74505805969E-08  0.93827000000E+00  0.93827000000E+00 0. -1.
     999902    2    1    2    0    0  0.18687273670E-01 -0.19695644425E-02  0.11299170188E-01  0.10220036545E+01  0.10217684205E+01 0.  0.
     999903    2    3    3    0    0 -0.10916406920E+00  0.28042596964E-02 -0.67040112070E-01  0.12930785051E+00  0.17363343594E-01 0.  0.
         14    1    1    2    0    0 -0.18687273670E-01  0.19695644425E-02 -0.11299170188E-01  0.21926345529E-01  0.00000000000E+00 0. -1.
     999901    1    3    3    0    0  0.12785134287E+00 -0.47738241390E-02  0.78339282259E-01  0.89269580396E+00  0.88000000000E+00 0.  1.
        -11    1    4    4    0    0 -0.35984090154E-01 -0.38764516902E-02 -0.30013211557E-01  0.47020587096E-01  0.51100000000E-03 0.  1.
         11    1    4    4    0    0 -0.73179979041E-01  0.66807113867E-02 -0.37026900514E-01  0.82287263411E-01  0.51100000000E-03 0. -1.
</event>
<event>
 8    1  0.1191842E+005  0.1043930E+01  0.7957747E-01            NaN
         13   -1    0    0    0    0  0.00000000000E+00  0.00000000000E+00  0.74505805969E-08  0.10566000000E+00  0.10566000000E+00 0.  1.
     999900   -1    0    0    0    0 -0.00000000000E+00 -0.00000000000E+00 -0.74505805969E-08  0.93827000000E+00  0.93827000000E+00 0. -1.
     999902    2    1    2    0    0  0.18919259542E-01 -0.39523724177E-02  0.12554840550E-01  0.10208825782E+01  0.10206223860E+01 0.  0.
     999903    2    3    3    0    0  0.28380160033E-01  0.12064950545E+00 -0.37393347510E-01  0.13065229448E+00  0.17607468987E-01 0.  0.
         14    1    1    2    0    0 -0.18919259542E-01  0.39523724177E-02 -0.12554840550E-01  0.23047421778E-01  0.00000000000E+00 0. -1.
     999901    1    3    3    0    0 -0.94609004909E-02 -0.12460187787E+00  0.49948188060E-01  0.89023028375E+00  0.88000000000E+00 0.  1.
        -11    1    4    4    0    0  0.74445756005E-02  0.65661235670E-01 -0.23992892167E-01  0.70304619842E-01  0.51100000000E-03 0. -1.
         11    1    4    4    0    0  0.20935584433E-01  0.54988269785E-01 -0.13400455343E-01  0.60347674635E-01  0.51100000000E-03 0.  1.
</event>
<event>
 8    1  0.1191842E+005  0.1043930E+01  0.7957747E-01            NaN
         13   -1    0    0    0    0  0.00000000000E+00  0.00000000000E+00  0.74505805969E-08  0.10566000000E+00  0.10566000000E+00 0.  1.
     999900   -1    0    0    0    0 -0.00000000000E+00 -0.00000000000E+00 -0.74505805969E-08  0.93827000000E+00  0.93827000000E+00 0.  1.
     999902    2    1    2    0    0 -0.59207568292E-02 -0.23239745323E-01 -0.90812597037E-05  0.10199478982E+01  0.10196659129E+01 0.  0.
     999903    2    3    3    0    0  0.33043540023E-01  0.52211026228E-02 -0.12431543462E+00  0.12990278374E+00  0.17357145177E-01 0.  0.
         14    1    1    2    0    0  0.59207568292E-02  0.23239745323E-01  0.90812597037E-05  0.23982101797E-01  0.00000000000E+00 0.  1.
     999901    1    3    3    0    0 -0.38964296852E-01 -0.28460847946E-01  0.12430635336E+00  0.89004511446E+00  0.88000000000E+00 0. -1.
        -11    1    4    4    0    0  0.79654213542E-02  0.90650804010E-02 -0.47121658604E-01  0.48644994096E-01  0.51100000000E-03 0.  1.
         11    1    4    4    0    0  0.25078118669E-01 -0.38439777782E-02 -0.77193776016E-01  0.81257789644E-01  0.51100000000E-03 0. -1.
</event>
<event>
 8    1  0.1191842E+005  0.1043930E+01  0.7957747E-01            NaN
         13   -1    0    0    0    0  0.00000000000E+00  0.00000000000E+00  0.74505805969E-08  0.10566000000E+00  0.10566000000E+00 0. -1.
     999900   -1    0    0    0    0 -0.00000000000E+00 -0.00000000000E+00 -0.74505805969E-08  0.93827000000E+00  0.93827000000E+00 0. -1.
     999902    2    1    2    0    0 -0.23666829861E-01 -0.41896699911E-02  0.50454999471E-02  0.10193713103E+01  0.10190754334E+01 0.  0.
     999903    2    3    3    0    0  0.32579577210E-01 -0.12374597908E+00  0.63732992779E-02  0.12950663946E+00  0.18890593694E-01 0.  0.
         14    1    1    2    0    0  0.23666829861E-01  0.41896699911E-02 -0.50454999471E-02  0.24558689704E-01  0.00000000000E+00 0.  1.
     999901    1    3    3    0    0 -0.56246407070E-01  0.11955630909E+00 -0.13277993308E-02  0.88986467084E+00  0.88000000000E+00 0. -1.
        -11    1    4    4    0    0  0.30289153945E-01 -0.87248027637E-01  0.92543729833E-02  0.92820017850E-01  0.51100000000E-03 0. -1.
         11    1    4    4    0    0  0.22904232645E-02 -0.36497951445E-01 -0.28810737054E-02  0.36686621609E-01  0.51100000000E-03 0.  1.
</event>
<event>
 8    1  0.1191842E+005  0.1043930E+01  0.7957747E-01            NaN
         13   -1    0    0    0    0  0.00000000000E+00  0.00000000000E+00  0.74505805969E-08  0.10566000000E+00  0.10566000000E+00 0.  1.
     999900   -1    0    0    0    0 -0.00000000000E+00 -0.00000000000E+00 -0.74505805969E-08  0.93827000000E+00  0.93827000000E+00 0. -1.
     999902    2    1    2    0    0 -0.22729343442E-01 -0.10828270279E-02 -0.89007336703E-02  0.10194960354E+01  0.10192031925E+01 0.  0.
     999903    2    3    3    0    0 -0.24737847227E-01 -0.51849446870E-01  0.11429007545E+00  0.12946386784E+00  0.19958594756E-01 0.  0.
         14    1    1    2    0    0  0.22729343442E-01  0.10828270279E-02  0.89007336703E-02  0.24433964630E-01  0.00000000000E+00 0.  1.
     999901    1    3    3    0    0  0.20085037851E-02  0.50766619842E-01 -0.12319080912E+00  0.89003216753E+00  0.88000000000E+00 0. -1.
        -11    1    4    4    0    0 -0.11763595452E-01 -0.31019751973E-01  0.44673878971E-01  0.55647315962E-01  0.51100000000E-03 0. -1.
         11    1    4    4    0    0 -0.12974251776E-01 -0.20829694898E-01  0.69616196479E-01  0.73816551883E-01  0.51100000000E-03 0.  1.
</event>
<event>
 8    1  0.1191842E+005  0.1043930E+01  0.7957747E-01            NaN
         13   -1    0    0    0    0  0.00000000000E+00  0.00000000000E+00  0.74505805969E-08  0.10566000000E+00  0.10566000000E+00 0.  1.
     999900   -1    0    0    0    0 -0.00000000000E+00 -0.00000000000E+00 -0.74505805969E-08  0.93827000000E+00  0.93827000000E+00 0.  1.
     999902    2    1    2    0    0 -0.13626653783E-01  0.82455372392E-02  0.27609642122E-01  0.10120557641E+01  0.10115537073E+01 0.  0.
     999903    2    3    3    0    0  0.99741980331E-01 -0.61886925408E-01 -0.19830888843E-01  0.12075244113E+00  0.20234468347E-01 0.  0.
         14    1    1    2    0    0  0.13626653783E-01 -0.82455372392E-02 -0.27609642122E-01  0.31874235925E-01  0.00000000000E+00 0. -1.
     999901    1    3    3    0    0 -0.11336863411E+00  0.70132462647E-01  0.47440530965E-01  0.89130332295E+00  0.88000000000E+00 0.  1.
        -11    1    4    4    0    0  0.40390706909E-01 -0.36701672481E-01 -0.10997931013E-01  0.55674388862E-01  0.51100000000E-03 0.  1.
         11    1    4    4    0    0  0.59351273422E-01 -0.25185252927E-01 -0.88329578302E-02  0.65078052267E-01  0.51100000000E-03 0. -1.
</event>
<event>
 8    1  0.1191842E+005  0.1043930E+01  0.7957747E-01            NaN
         13   -1    0    0    0    0  0.00000000000E+00  0.00000000000E+00  0.74505805969E-08  0.10566000000E+00  0.10566000000E+00 0.  1.
     999900   -1    0    0    0    0 -0.00000000000E+00 -0.00000000000E+00 -0.74505805969E-08  0.93827000000E+00  0.93827000000E+00 0.  1.
     999902    2    1    2    0    0  0.20639141247E-02  0.15413409176E-01  0.17871951857E-01  0.10202395043E+01  0.10199644143E+01 0.  0.
     999903    2    3    3    0    0  0.10143905048E+00 -0.30131077824E-01 -0.70879291165E-01  0.12904564145E+00  0.20763931439E-01 0.  0.
         14    1    1    2    0    0 -0.20639141247E-02 -0.15413409176E-01 -0.17871951857E-01  0.23690495713E-01  0.00000000000E+00 0. -1.
     999901    1    3    3    0    0 -0.99375136351E-01  0.45544486999E-01  0.88751243023E-01  0.89119386284E+00  0.88000000000E+00 0. -1.
        -11    1    4    4    0    0  0.86476362474E-01 -0.21640832129E-01 -0.50813986319E-01  0.10260998591E+00  0.51100000000E-03 0.  1.
         11    1    4    4    0    0  0.14962688002E-01 -0.84902456941E-02 -0.20065304847E-01  0.26435655539E-01  0.51100000000E-03 0. -1.
</event>
<event>
 8    1  0.1191842E+005  0.1043930E+01  0.7957747E-01            NaN
         13   -1    0    0    0    0  0.00000000000E+00  0.00000000000E+00  0.74505805969E-08  0.10566000000E+00  0.10566000000E+00 0.  1.
     999900   -1    0    0    0    0 -0.00000000000E+00 -0.00000000000E+00 -0.74505805969E-08  0.93827000000E+00  0.93827000000E+00 0.  1.
     999902    2    1    2    0    0 -0.34039006057E-02 -0.22336771113E-01  0.59737736382E-02  0.10205589954E+01  0.10202913600E+01 0.  0.
     999903    2    3    3    0    0 -0.30890757901E-02 -0.66509383434E-01  0.11316461115E+00  0.13295480750E+00  0.20921547405E-01 0.  0.
         14    1    1    2    0    0  0.34039006057E-02  0.22336771113E-01 -0.59737736382E-02  0.23371004569E-01  0.00000000000E+00 0.  1.
     999901    1    3    3    0    0 -0.31482481557E-03  0.44172612321E-01 -0.10719083751E+00  0.88760418794E+00  0.88000000000E+00 0.  1.
        -11    1    4    4    0    0 -0.33202065878E-02 -0.64653772435E-01  0.96668280464E-01  0.11634496822E+00  0.51100000000E-03 0.  1.
         11    1    4    4    0    0  0.23113079765E-03 -0.18556109991E-02  0.16496330685E-01  0.16609839273E-01  0.51100000000E-03 0. -1.
</event>
<event>
 8    1  0.1191842E+005  0.1043930E+01  0.7957747E-01            NaN
         13   -1    0    0    0    0  0.00000000000E+00  0.00000000000E+00  0.74505805969E-08  0.10566000000E+00  0.10566000000E+00 0.  1.
     999900   -1    0    0    0    0 -0.00000000000E+00 -0.00000000000E+00 -0.74505805969E-08  0.93827000000E+00  0.93827000000E+00 0.  1.
     999902    2    1    2    0    0  0.24508797769E-01  0.23822112063E-02 -0.30060010524E-02  0.10191229014E+01  0.10188209342E+01 0.  0.
     999903    2    3    3    0    0  0.59643299156E-01 -0.92481447133E-01 -0.67976625412E-01  0.13094795868E+00  0.20406006016E-01 0.  0.
         14    1    1    2    0    0 -0.24508797769E-01 -0.23822112063E-02  0.30060010524E-02  0.24807098594E-01  0.00000000000E+00 0. -1.
     999901    1    3    3    0    0 -0.35134501387E-01  0.94863658339E-01  0.64970624359E-01  0.88817494273E+00  0.88000000000E+00 0. -1.
        -11    1    4    4    0    0  0.39841885961E-01 -0.45060514914E-01 -0.42012436587E-01  0.73369829155E-01  0.51100000000E-03 0. -1.
         11    1    4    4    0    0  0.19801413195E-01 -0.47420932219E-01 -0.25964188825E-01  0.57578129523E-01  0.51100000000E-03 0.  1.
</event>
<event>
 8    1  0.1191842E+005  0.1043930E+01  0.7957747E-01            NaN
         13   -1    0    0    0    0  0.00000000000E+00  0.00000000000E+00  0.74505805969E-08  0.10566000000E+00  0.10566000000E+00 0.  1.
     999900   -1    0    0    0    0 -0.00000000000E+00 -0.00000000000E+00 -0.74505805969E-08  0.93827000000E+00  0.93827000000E+00 0. -1.
     999902    2    1    2    0    0 -0.14849489883E-01 -0.74808560756E-02 -0.18080671241E-01  0.10193661805E+01  0.10190701785E+01 0.  0.
     999903    2    3    3    0    0 -0.65252656537E-02 -0.11227098024E+00  0.61202499993E-01  0.12957065111E+00  0.19886063633E-01 0.  0.
         14    1    1    2    0    0  0.14849489883E-01  0.74808560756E-02  0.18080671241E-01  0.24563819531E-01  0.00000000000E+00 0.  1.
     999901    1    3    3    0    0 -0.83242242296E-02  0.10479012417E+00 -0.79283171233E-01  0.88979552936E+00  0.88000000000E+00 0. -1.
        -11    1    4    4    0    0 -0.57429112637E-02 -0.38140350907E-01  0.31125418081E-01  0.49565312153E-01  0.51100000000E-03 0. -1.
         11    1    4    4    0    0 -0.78235439005E-03 -0.74130629335E-01  0.30077081912E-01  0.80005338955E-01  0.51100000000E-03 0.  1.
</event>
<event>
 8    1  0.1191842E+005  0.1043930E+01  0.7957747E-01            NaN
         13   -1    0    0    0    0  0.00000000000E+00  0.00000000000E+00  0.74505805969E-08  0.10566000000E+00  0.10566000000E+00 0. -1.
     999900   -1    0    0    0    0 -0.00000000000E+00 -0.00000000000E+00 -0.74505805969E-08  0.93827000000E+00  0.93827000000E+00 0.  1.
     999902    2    1    2    0    0 -0.85833014266E-02 -0.94557365200E-02 -0.19447155337E-01  0.10206646638E+01  0.10203994709E+01 0.  0.
     999903    2    3    3    0    0  0.18409553868E-01  0.45899968697E-01  0.11640265363E+00  0.12811324294E+00  0.20437867859E-01 0.  0.
         14    1    1    2    0    0  0.85833014266E-02  0.94557365200E-02  0.19447155337E-01  0.23265336173E-01  0.00000000000E+00 0. -1.
     999901    1    3    3    0    0 -0.26992855295E-01 -0.55355705217E-01 -0.13584980897E+00  0.89255142089E+00  0.88000000000E+00 0.  1.
        -11    1    4    4    0    0  0.24284716814E-02  0.32480473712E-01  0.67917616225E-01  0.75325575749E-01  0.51100000000E-03 0.  1.
         11    1    4    4    0    0  0.15981082187E-01  0.13419494985E-01  0.48485037409E-01  0.52787667187E-01  0.51100000000E-03 0. -1.
</event>
<event>
 8    1  0.1191842E+005  0.1043930E+01  0.7957747E-01            NaN
         13   -1    0    0    0    0  0.00000000000E+00  0.00000000000E+00  0.74505805969E-08  0.10566000000E+00  0.10566000000E+00 0.  1.
     999900   -1    0    0    0    0 -0.00000000000E+00 -0.00000000000E+00 -0.74505805969E-08  0.93827000000E+00  0.93827000000E+00 0. -1.
     999902    2    1    2    0    0  0.16360380390E-01  0.36169997344E-02  0.15642863626E-01  0.10210074365E+01  0.10207500877E+01 0.  0.
     999903    2    3    3    0    0 -0.79857939326E-02 -0.95846807393E-01  0.88075080528E-01  0.13211362331E+00  0.21128328439E-01 0.  0.
         14    1    1    2    0    0 -0.16360380390E-01 -0.36169997344E-02 -0.15642863626E-01  0.22922563469E-01  0.00000000000E+00 0. -1.
     999901    1    3    3    0    0  0.24346174322E-01  0.99463807127E-01 -0.72432216901E-01  0.88889381322E+00  0.88000000000E+00 0. -1.
        -11    1    4    4    0    0  0.45042908994E-03 -0.29009806525E-01  0.39703996161E-01  0.49177639158E-01  0.51100000000E-03 0.  1.
         11    1    4    4    0    0 -0.84362230225E-02 -0.66837000868E-01  0.48371084367E-01  0.82935984155E-01  0.51100000000E-03 0. -1.
</event>
<event>
 8    1  0.1191842E+005  0.1043930E+01  0.7957747E-01            NaN
         13   -1    0    0    0    0  0.00000000000E+00  0.00000000000E+00  0.74505805969E-08  0.10566000000E+00  0.10566000000E+00 0.  1.
     999900   -1    0    0    0    0 -0.00000000000E+00 -0.00000000000E+00 -0.74505805969E-08  0.93827000000E+00  0.93827000000E+00 0. -1.
     999902    2    1    2    0    0  0.56407744127E-02 -0.13510053455E-01  0.13924160012E-01  0.10237254928E+01  0.10235260927E+01 0.  0.
     999903    2    3    3    0    0 -0.81961026496E-01  0.26186593291E-01 -0.97441996128E-01  0.13150785115E+00  0.19900371159E-01 0.  0.
         14    1    1    2    0    0 -0.56407744127E-02  0.13510053455E-01 -0.13924160012E-01  0.20204507229E-01  0.00000000000E+00 0. -1.
     999901    1    3    3    0    0  0.87601800909E-01 -0.39696646746E-01  0.11136615614E+00  0.89221764162E+00  0.88000000000E+00 0.  1.
        -11    1    4    4    0    0 -0.43820392655E-01  0.13001902018E-01 -0.66300900514E-01  0.80531650911E-01  0.51100000000E-03 0. -1.
         11    1    4    4    0    0 -0.38140633842E-01  0.13184691273E-01 -0.31141095614E-01  0.50976200240E-01  0.51100000000E-03 0.  1.
</event>
<event>
 8    1  0.1191842E+005  0.1043930E+01  0.7957747E-01            NaN
         13   -1    0    0    0    0  0.00000000000E+00  0.00000000000E+00  0.74505805969E-08  0.10566000000E+00  0.10566000000E+00 0. -1.
     999900   -1    0    0    0    0 -0.00000000000E+00 -0.00000000000E+00 -0.74505805969E-08  0.93827000000E+00  0.93827000000E+00 0.  1.
     999902    2    1    2    0    0 -0.12926241847E-01  0.20811094216E-01 -0.44247518373E-02  0.10190348639E+01  0.10187307231E+01 0.  0.
     999903    2    3    3    0    0 -0.23050513062E-02 -0.81820544266E-01 -0.96542708197E-01  0.12823085587E+00  0.20560718991E-01 0.  0.
         14    1    1    2    0    0  0.12926241847E-01 -0.20811094216E-01  0.44247518373E-02  0.24895136063E-01  0.00000000000E+00 0. -1.
     999901    1    3    3    0    0 -0.10621190541E-01  0.10263163848E+00  0.92117956360E-01  0.89080400807E+00  0.88000000000E+00 0. -1.
        -11    1    4    4    0    0 -0.10407618852E-01 -0.58294565445E-01 -0.72690247838E-01  0.93758776348E-01  0.51100000000E-03 0. -1.
         11    1    4    4    0    0  0.81025675457E-02 -0.23525978821E-01 -0.23852460360E-01  0.34472079521E-01  0.51100000000E-03 0.  1.
</event>
<event>
 8    1  0.1191842E+005  0.1043930E+01  0.7957747E-01            NaN
         13   -1    0    0    0    0  0.00000000000E+00  0.00000000000E+00  0.74505805969E-08  0.10566000000E+00  0.10566000000E+00 0. -1.
     999900   -1    0    0    0    0 -0.00000000000E+00 -0.00000000000E+00 -0.74505805969E-08  0.93827000000E+00  0.93827000000E+00 0.  1.
     999902    2    1    2    0    0 -0.79319642829E-02  0.33627658802E-02 -0.21857380322E-01  0.10204359725E+01  0.10201654791E+01 0.  0.
     999903    2    3    3    0    0  0.10502118236E+00  0.56760731493E-01  0.44985736681E-01  0.12910115422E+00  0.19803083876E-01 0.  0.
         14    1    1    2    0    0  0.79319642829E-02 -0.33627658802E-02  0.21857380322E-01  0.23494027460E-01  0.00000000000E+00 0. -1.
     999901    1    3    3    0    0 -0.11295314664E+00 -0.53397965613E-01 -0.66843117003E-01  0.89133481833E+00  0.88000000000E+00 0.  1.
        -11    1    4    4    0    0  0.39844174296E-01  0.11482464530E-01  0.18787346515E-01  0.45526154319E-01  0.51100000000E-03 0.  1.
         11    1    4    4    0    0  0.65177008065E-01  0.45278266963E-01  0.26198390166E-01  0.83574999896E-01  0.51100000000E-03 0. -1.
</event>
<event>
 8    1  0.1191842E+005  0.1043930E+01  0.7957747E-01            NaN
         13   -1    0    0    0    0  0.00000000000E+00  0.00000000000E+00  0.74505805969E-08  0.10566000000E+00  0.10566000000E+00 0.  1.
     999900   -1    0    0    0    0 -0.00000000000E+00 -0.00000000000E+00 -0.74505805969E-08  0.93827000000E+00  0.93827000000E+00 0.  1.
     999902    2    1    2    0    0 -0.95409683109E-02 -0.70830305379E-02  0.20903569751E-01  0.10198850707E+01  0.10196015882E+01 0.  0.
     999903    2    3    3    0    0 -0.36497736054E-01 -0.12076426749E+00 -0.28263213780E-01  0.13080269903E+00  0.19860608785E-01 0.  0.
         14    1    1    2    0    0  0.95409683109E-02  0.70830305379E-02 -0.20903569751E-01  0.24044929325E-01  0.00000000000E+00 0. -1.
     999901    1    3    3    0    0  0.26956767743E-01  0.11368123695E+00  0.49166783531E-01  0.88908237164E+00  0.88000000000E+00 0.  1.
        -11    1    4    4    0    0 -0.18620673138E-01 -0.31083727331E-01 -0.92662954733E-02  0.37403915914E-01  0.51100000000E-03 0.  1.
         11    1    4    4    0    0 -0.17877062916E-01 -0.89680540160E-01 -0.18996918307E-01  0.93398783119E-01  0.51100000000E-03 0. -1.
</event>
<event>
 8    1  0.1191842E+005  0.1043930E+01  0.7957747E-01            NaN
         13   -1    0    0    0    0  0.00000000000E+00  0.00000000000E+00  0.74505805969E-08  0.10566000000E+00  0.10566000000E+00 0.  1.
     999900   -1    0    0    0    0 -0.00000000000E+00 -0.00000000000E+00 -0.74505805969E-08  0.93827000000E+00  0.93827000000E+00 0. -1.
     999902    2    1    2    0    0 -0.14845506224E-01 -0.14287185346E-01  0.11281933377E-01  0.10204396884E+01  0.10201692815E+01 0.  0.
     999903    2    3    3    0    0 -0.58121913863E-01 -0.11815673217E+00 -0.35113351366E-02  0.13315136374E+00  0.19436716866E-01 0.  0.
         14    1    1    2    0    0  0.14845506224E-01  0.14287185346E-01 -0.11281933377E-01  0.23490311639E-01  0.00000000000E+00 0. -1.
     999901    1    3    3    0    0  0.43276407639E-01  0.10386954683E+00  0.14793268513E-01  0.88728832462E+00  0.88000000000E+00 0. -1.
        -11    1    4    4    0    0 -0.10615812574E-01 -0.17649149302E-01  0.63129641672E-02  0.21547681668E-01  0.51100000000E-03 0.  1.
         11    1    4    4    0    0 -0.47506101289E-01 -0.10050758287E+00 -0.98242993038E-02  0.11160368207E+00  0.51100000000E-03 0. -1.
</event>
<event>
 8    1  0.1191842E+005  0.1043930E+01  0.7957747E-01            NaN
         13   -1    0    0    0    0  0.00000000000E+00  0.00000000000E+00  0.74505805969E-08  0.10566000000E+00  0.10566000000E+00 0. -1.
     999900   -1    0    0    0    0 -0.00000000000E+00 -0.00000000000E+00 -0.74505805969E-08  0.93827000000E+00  0.93827000000E+00 0. -1.
     999902    2    1    2    0    0 -0.12231682145E-01 -0.11301373934E-01  0.16857147543E-01  0.10202340399E+01  0.10199588216E+01 0.  0.
     999903    2    3    3    0    0  0.12478733557E+00  0.22454713168E-01 -0.78501530760E-02  0.12864885872E+00  0.20317743053E-01 0.  0.
         14    1    1    2    0    0  0.12231682145E-01  0.11301373934E-01 -0.16857147543E-01  0.23695960081E-01  0.00000000000E+00 0.  1.
     999901    1    3    3    0    0 -0.13701901772E+00 -0.33756087102E-01  0.24707300619E-01  0.89158518120E+00  0.88000000000E+00 0. -1.
        -11    1    4    4    0    0  0.50264825285E-01  0.25458551035E-02 -0.10707659038E-01  0.51458226963E-01  0.51100000000E-03 0. -1.
         11    1    4    4    0    0  0.74522510290E-01  0.19908858065E-01  0.28575059621E-02  0.77190631755E-01  0.51100000000E-03 0.  1.
</event>
<event>
 8    1  0.1191842E+005  0.1043930E+01  0.7957747E-01            NaN
         13   -1    0    0    0    0  0.00000000000E+00  0.00000000000E+00  0.74505805969E-08  0.10566000000E+00  0.10566000000E+00 0.  1.
     999900   -1    0    0    0    0 -0.00000000000E+00 -0.00000000000E+00 -0.74505805969E-08  0.93827000000E+00  0.93827000000E+00 0.  1.
     999902    2    1    2    0    0 -0.13160884745E-01 -0.18478159075E-01 -0.57722649751E-03  0.10212367314E+01  0.10209845626E+01 0.  0.
     999903    2    3    3    0    0  0.12769694520E+00 -0.85840952540E-02 -0.10108685885E-01  0.12992888924E+00  0.19978343884E-01 0.  0.
         14    1    1    2    0    0  0.13160884745E-01  0.18478159075E-01  0.57722649751E-03  0.22693268617E-01  0.00000000000E+00 0. -1.
     999901    1    3    3    0    0 -0.14085782994E+00 -0.98940638213E-02  0.95314593879E-02  0.89130784215E+00  0.88000000000E+00 0. -1.
        -11    1    4    4    0    0  0.28341209538E-01  0.20133972280E-02  0.50577202715E-02  0.28863810937E-01  0.51100000000E-03 0.  1.
         11    1    4    4    0    0  0.99355735658E-01 -0.10597492482E-01 -0.15166406157E-01  0.10106507830E+00  0.51100000000E-03 0. -1.
</event>
<event>
 8    1  0.1191842E+005  0.1043930E+01  0.7957747E-01            NaN
         13   -1    0    0    0    0  0.00000000000E+00  0.00000000000E+00  0.74505805969E-08  0.10566000000E+00  0.10566000000E+00 0. -1.
     999900   -1    0    0    0    0 -0.00000000000E+00 -0.00000000000E+00 -0.74505805969E-08  0.93827000000E+00  0.93827000000E+00 0. -1.
     999902    2    1    2    0    0  0.12002867497E-01 -0.10456826930E-02  0.15843028663E-01  0.10240261351E+01  0.10238326824E+01 0.  0.
     999903    2    3    3    0    0  0.93143280465E-02 -0.79272845966E-01 -0.10366451982E+00  0.13250565219E+00  0.20987481474E-01 0.  0.
         14    1    1    2    0    0 -0.12002867497E-01  0.10456826930E-02 -0.15843028663E-01  0.19903864892E-01  0.00000000000E+00 0.  1.
     999901    1    3    3    0    0  0.26885394503E-02  0.78227163273E-01  0.11950754848E+00  0.89152048292E+00  0.88000000000E+00 0.  1.
        -11    1    4    4    0    0  0.44048530565E-02 -0.50009187120E-01 -0.80438147725E-01  0.94820241812E-01  0.51100000000E-03 0.  1.
         11    1    4    4    0    0  0.49094749901E-02 -0.29263658846E-01 -0.23226372093E-01  0.37685410378E-01  0.51100000000E-03 0. -1.
</event>
<event>
 8    1  0.1191842E+005  0.1043930E+01  0.7957747E-01            NaN
         13   -1    0    0    0    0  0.00000000000E+00  0.00000000000E+00  0.74505805969E-08  0.10566000000E+00  0.10566000000E+00 0. -1.
     999900   -1    0    0    0    0 -0.00000000000E+00 -0.00000000000E+00 -0.74505805969E-08  0.93827000000E+00  0.93827000000E+00 0.  1.
     999902    2    1    2    0    0  0.18557067996E-01  0.71561527536E-02  0.14027513381E-01  0.10195918319E+01  0.10193013084E+01 0.  0.
     999903    2    3    3    0    0  0.75744567714E-01 -0.10141184179E+00 -0.23348277807E-01  0.13029189975E+00  0.20229579088E-01 0.  0.
         14    1    1    2    0    0 -0.18557067996E-01 -0.71561527536E-02 -0.14027513381E-01  0.24338168100E-01  0.00000000000E+00 0. -1.
     999901    1    3    3    0    0 -0.57187499719E-01  0.10856799454E+00  0.37375791188E-01  0.88929993215E+00  0.88000000000E+00 0.  1.
        -11    1    4    4    0    0  0.55505508954E-01 -0.60667288129E-01 -0.97455049654E-02  0.82804694078E-01  0.51100000000E-03 0. -1.
         11    1    4    4    0    0  0.20239058760E-01 -0.40744553657E-01 -0.13602772841E-01  0.47487205668E-01  0.51100000000E-03 0.  1.
</event>
<event>
 8    1  0.1191842E+005  0.1043930E+01  0.7957747E-01            NaN
         13   -1    0    0    0    0  0.00000000000E+00  0.00000000000E+00  0.74505805969E-08  0.10566000000E+00  0.10566000000E+00 0. -1.
     999900   -1    0    0    0    0 -0.00000000000E+00 -0.00000000000E+00 -0.74505805969E-08  0.93827000000E+00  0.93827000000E+00 0.  1.
     999902    2    1    2    0    0 -0.89156852195E-03  0.20240301751E-01 -0.12198340341E-01  0.10202812322E+01  0.10200071219E+01 0.  0.
     999903    2    3    3    0    0 -0.50661209844E-01  0.51116944799E-01  0.10629804779E+00  0.13040945593E+00  0.22975008197E-01 0.  0.
         14    1    1    2    0    0  0.89156852195E-03 -0.20240301751E-01  0.12198340341E-01  0.23648767758E-01  0.00000000000E+00 0. -1.
     999901    1    3    3    0    0  0.49769641322E-01 -0.30876643049E-01 -0.11849638814E+00  0.88987177632E+00  0.88000000000E+00 0.  1.
        -11    1    4    4    0    0 -0.87103565912E-02  0.23533171267E-01  0.40424762163E-01  0.47582591131E-01  0.51100000000E-03 0.  1.
         11    1    4    4    0    0 -0.41950853252E-01  0.27583773532E-01  0.65873285631E-01  0.82826864795E-01  0.51100000000E-03 0. -1.
</event>
<event>
 8    1  0.1191842E+005  0.1043930E+01  0.7957747E-01            NaN
         13   -1    0    0    0    0  0.00000000000E+00  0.00000000000E+00  0.74505805969E-08  0.10566000000E+00  0.10566000000E+00 0.  1.
     999900   -1    0    0    0    0 -0.00000000000E+00 -0.00000000000E+00 -0.74505805969E-08  0.93827000000E+00  0.93827000000E+00 0.  1.
     999902    2    1    2    0    0  0.33536256199E-02 -0.38579227698E-02  0.22944857641E-01  0.10204226211E+01  0.10201518165E+01 0.  0.
     999903    2    3    3    0    0  0.63871133257E-01 -0.10911326935E+00  0.32225241501E-01  0.13203802965E+00  0.20257045000E-01 0.  0.
         14    1    1    2    0    0 -0.33536256199E-02  0.38579227698E-02 -0.22944857641E-01  0.23507378949E-01  0.00000000000E+00 0. -1.
     999901    1    3    3    0    0 -0.60517507637E-01  0.10525534658E+00 -0.92803838607E-02  0.88838459140E+00  0.88000000000E+00 0.  1.
        -11    1    4    4    0    0  0.37624537947E-01 -0.82382781865E-01  0.23561937187E-01  0.93583944181E-01  0.51100000000E-03 0.  1.
         11    1    4    4    0    0  0.26246595310E-01 -0.26730487485E-01  0.86633043141E-02  0.38454085469E-01  0.51100000000E-03 0. -1.
</event>
<event>
 8    1  0.1191842E+005  0.1043930E+01  0.7957747E-01            NaN
         13   -1    0    0    0    0  0.00000000000E+00  0.00000000000E+00  0.74505805969E-08  0.10566000000E+00  0.10566000000E+00 0. -1.
     999900   -1    0    0    0    0 -0.00000000000E+00 -0.00000000000E+00 -0.74505805969E-08  0.93827000000E+00  0.93827000000E+00 0. -1.
     999902    2    1    2    0    0  0.10019104786E-01  0.21918596353E-01  0.25223386476E-02  0.10196984190E+01  0.10194104650E+01 0.  0.
     999903    2    3    3    0    0 -0.98237512535E-01  0.79436119216E-01 -0.27365923990E-01  0.13069838024E+00  0.19299401425E-01 0.  0.
         14    1    1    2    0    0 -0.10019104786E-01 -0.21918596353E-01 -0.25223386476E-02  0.24231581027E-01  0.00000000000E+00 0.  1.
     999901    1    3    3    0    0  0.10825661732E+00 -0.57517522863E-01  0.29888262638E-01  0.88900003874E+00  0.88000000000E+00 0. -1.
        -11    1    4    4    0    0 -0.21885232472E-01  0.11697338670E-01 -0.11672454159E-01  0.27428059345E-01  0.51100000000E-03 0.  1.
         11    1    4    4    0    0 -0.76352280063E-01  0.67738780546E-01 -0.15693469831E-01  0.10327032089E+00  0.51100000000E-03 0. -1.
</event>
<event>
 7    1  0.1191842E+005  0.1043930E+01  0.7957747E-01            NaN
         13   -1    0    0    0    0  0.00000000000E+00  0.00000000000E+00  0.74505805969E-08  0.10566000000E+00  0.10566000000E+00 0.  1.
     999900   -1    0    0    0    0 -0.00000000000E+00 -0.00000000000E+00 -0.74505805969E-08  0.93827000000E+00  0.93827000000E+00 0.  1.
     999903    2    1    2    0    0 -0.84890256605E-01 -0.32084372909E-01 -0.68693333554E-01  0.11551359932E+00  0.19719404197E-01 0.  0.
         14    1    1    2    0    0  0.38869060366E-01  0.12471800050E-01 -0.13928284490E-01  0.43131737260E-01  0.00000000000E+00 0.  1.
     999901    1    1    2    0    0  0.46021196238E-01  0.19612572859E-01  0.82621618044E-01  0.88528466342E+00  0.88000000000E+00 0. -1.
        -11    1    3    3    0    0 -0.30615669058E-01 -0.84349255827E-02 -0.13292009038E-01  0.34429722432E-01  0.51100000000E-03 0.  1.
         11    1    3    3    0    0 -0.54274587546E-01 -0.23649447326E-01 -0.55401324516E-01  0.81083876889E-01  0.51100000000E-03 0. -1.
</event>
<event>
 8    1  0.1191842E+005  0.1043930E+01  0.7957747E-01            NaN
         13   -1    0    0    0    0  0.00000000000E+00  0.00000000000E+00  0.74505805969E-08  0.10566000000E+00  0.10566000000E+00 0. -1.
     999900   -1    0    0    0    0 -0.00000000000E+00 -0.00000000000E+00 -0.74505805969E-08  0.93827000000E+00  0.93827000000E+00 0.  1.
     999902    2    1    2    0    0 -0.17385064563E-01  0.16045092986E-01  0.12120237193E-02  0.10202413006E+01  0.10199662528E+01 0.  0.
     999903    2    3    3    0    0  0.96679510922E-02 -0.97400519892E-01  0.81473513993E-01  0.12892559918E+00  0.20088456583E-01 0.  0.
         14    1    1    2    0    0  0.17385064563E-01 -0.16045092986E-01 -0.12120237193E-02  0.23688699422E-01  0.00000000000E+00 0.  1.
     999901    1    3    3    0    0 -0.27053015656E-01  0.11344561288E+00 -0.80261490274E-01  0.89131570140E+00  0.88000000000E+00 0.  1.
        -11    1    4    4    0    0  0.26379761921E-02 -0.88509130800E-01  0.71324350161E-01  0.11370245908E+00  0.51100000000E-03 0. -1.
         11    1    4    4    0    0  0.70299749001E-02 -0.88913890926E-02  0.10149163832E-01  0.15223140103E-01  0.51100000000E-03 0.  1.
</event>
<event>
 8    1  0.1191842E+005  0.1043930E+01  0.7957747E-01            NaN
         13   -1    0    0    0    0  0.00000000000E+00  0.00000000000E+00  0.74505805969E-08  0.10566000000E+00  0.10566000000E+00 0. -1.
     999900   -1    0    0    0    0 -0.00000000000E+00 -0.00000000000E+00 -0.74505805969E-08  0.93827000000E+00  0.93827000000E+00 0. -1.
     999902    2    1    2    0    0 -0.18845604917E-01  0.82126009228E-02 -0.11365937860E-01  0.10204398280E+01  0.10201694243E+01 0.  0.
     999903    2    3    3    0    0 -0.75506532998E-01 -0.37992702856E-01  0.97514115496E-01  0.13072062682E+00  0.20837407720E-01 0.  0.
         14    1    1    2    0    0  0.18845604917E-01 -0.82126009228E-02  0.11365937860E-01  0.23490172031E-01  0.00000000000E+00 0. -1.
     999901    1    3    3    0    0  0.56660928081E-01  0.46205303779E-01 -0.10888005336E+00  0.88971920115E+00  0.88000000000E+00 0. -1.
        -11    1    4    4    0    0 -0.60570782591E-01 -0.25752536597E-01  0.62688445058E-01  0.90896177640E-01  0.51100000000E-03 0.  1.
         11    1    4    4    0    0 -0.14935750407E-01 -0.12240166260E-01  0.34825670438E-01  0.39824449183E-01  0.51100000000E-03 0. -1.
</event>
<event>
 8    1  0.1191842E+005  0.1043930E+01  0.7957747E-01            NaN
         13   -1    0    0    0    0  0.00000000000E+00  0.00000000000E+00  0.74505805969E-08  0.10566000000E+00  0.10566000000E+00 0. -1.
     999900   -1    0    0    0    0 -0.00000000000E+00 -0.00000000000E+00 -0.74505805969E-08  0.93827000000E+00  0.93827000000E+00 0. -1.
     999902    2    1    2    0    0 -0.21836019559E-01 -0.75724782956E-02 -0.29234981772E-02  0.10206340557E+01  0.10203681565E+01 0.  0.
     999903    2    3    3    0    0  0.16875422381E-01 -0.13274331326E-01 -0.12753960718E+00  0.13099353199E+00  0.20783798301E-01 0.  0.
         14    1    1    2    0    0  0.21836019559E-01  0.75724782956E-02  0.29234981772E-02  0.23295944267E-01  0.00000000000E+00 0. -1.
     999901    1    3    3    0    0 -0.38711441940E-01  0.57018530303E-02  0.12461610900E+00  0.88964052374E+00  0.88000000000E+00 0.  1.
        -11    1    4    4    0    0  0.84313566064E-02 -0.10546627318E-01 -0.28339094454E-01  0.31395613029E-01  0.51100000000E-03 0.  1.
         11    1    4    4    0    0  0.84440657750E-02 -0.27277040083E-02 -0.99200512722E-01  0.99597918960E-01  0.51100000000E-03 0. -1.
</event>
<event>
 8    1  0.1191842E+005  0.1043930E+01  0.7957747E-01            NaN
         13   -1    0    0    0    0  0.00000000000E+00  0.00000000000E+00  0.74505805969E-08  0.10566000000E+00  0.10566000000E+00 0.  1.
     999900   -1    0    0    0    0 -0.00000000000E+00 -0.00000000000E+00 -0.74505805969E-08  0.93827000000E+00  0.93827000000E+00 0.  1.
     999902    2    1    2    0    0 -0.15427900983E-02  0.22441344151E-01 -0.90327046693E-02  0.10196898704E+01  0.10194017108E+01 0.  0.
     999903    2    3    3    0    0 -0.12435290450E+00 -0.13190843019E-01  0.28097845260E-01  0.12967264884E+00  0.19694256849E-01 0.  0.
         14    1    1    2    0    0  0.15427900983E-02 -0.22441344151E-01  0.90327046693E-02  0.24240129584E-01  0.00000000000E+00 0.  1.
     999901    1    3    3    0    0  0.12281011440E+00  0.35632187170E-01 -0.37130549929E-01  0.89001722157E+00  0.88000000000E+00 0. -1.
        -11    1    4    4    0    0 -0.66435778491E-01 -0.16587048478E-01  0.12692843708E-01  0.69643465187E-01  0.51100000000E-03 0.  1.
         11    1    4    4    0    0 -0.57917126007E-01  0.33962054589E-02  0.15405001552E-01  0.60029183655E-01  0.51100000000E-03 0. -1.
</event>
<event>
 8    1  0.1191842E+005  0.1043930E+01  0.7957747E-01            NaN
         13   -1    0    0    0    0  0.00000000000E+00  0.00000000000E+00  0.74505805969E-08  0.10566000000E+00  0.10566000000E+00 0. -1.
     999900   -1    0    0    0    0 -0.00000000000E+00 -0.00000000000E+00 -0.74505805969E-08  0.93827000000E+00  0.93827000000E+00 0. -1.
     999902    2    1    2    0    0  0.68011502969E-03  0.12661372334E-01 -0.17018973913E-01  0.10227069376E+01  0.10224867049E+01 0.  0.
     999903    2    3    3    0    0 -0.12498442718E+00 -0.37930550248E-01 -0.51857417227E-02  0.13226258491E+00  0.20165955707E-01 0.  0.
         14    1    1    2    0    0 -0.68011502969E-03 -0.12661372334E-01  0.17018973913E-01  0.21223062429E-01  0.00000000000E+00 0. -1.
     999901    1    3    3    0    0  0.12566454221E+00  0.50591922582E-01 -0.11833232190E-01  0.89044435266E+00  0.88000000000E+00 0.  1.
        -11    1    4    4    0    0 -0.55137337681E-01 -0.74317800944E-02  0.22487821297E-02  0.55683709503E-01  0.51100000000E-03 0.  1.
         11    1    4    4    0    0 -0.69847089502E-01 -0.30498770154E-01 -0.74345238524E-02  0.76578875407E-01  0.51100000000E-03 0. -1.
</event>
<event>
 8    1  0.1191842E+005  0.1043930E+01  0.7957747E-01            NaN
         13   -1    0    0    0    0  0.00000000000E+00  0.00000000000E+00  0.74505805969E-08  0.10566000000E+00  0.10566000000E+00 0. -1.
     999900   -1    0    0    0    0 -0.00000000000E+00 -0.00000000000E+00 -0.74505805969E-08  0.93827000000E+00  0.93827000000E+00 0. -1.
     999902    2    1    2    0    0 -0.13861361567E-01  0.18804422401E-01 -0.53848832928E-02  0.10199562516E+01  0.10196744650E+01 0.  0.
     999903    2    3    3    0    0 -0.92306925318E-01 -0.15560733213E-01 -0.90498807266E-01  0.13171132450E+00  0.19877977882E-01 0.  0.
         14    1    1    2    0    0  0.13861361567E-01 -0.18804422401E-01  0.53848832928E-02  0.23973748443E-01  0.00000000000E+00 0. -1.
     999901    1    3    3    0    0  0.78445563750E-01  0.34365155614E-01  0.85113923973E-01  0.88824492706E+00  0.88000000000E+00 0.  1.
        -11    1    4    4    0    0 -0.59353803602E-01 -0.23010477399E-02 -0.64529723655E-01  0.87706984777E-01  0.51100000000E-03 0. -1.
         11    1    4    4    0    0 -0.32953121716E-01 -0.13259685473E-01 -0.25969083611E-01  0.44004339721E-01  0.51100000000E-03 0.  1.
</event>
<event>
 8    1  0.1191842E+005  0.1043930E+01  0.7957747E-01            NaN
         13   -1    0    0    0    0  0.00000000000E+00  0.00000000000E+00  0.74505805969E-08  0.10566000000E+00  0.10566000000E+00 0.  1.
     999900   -1    0    0    0    0 -0.00000000000E+00 -0.00000000000E+00 -0.74505805969E-08  0.93827000000E+00  0.93827000000E+00 0.  1.
     999902    2    1    2    0    0 -0.86013066132E-02  0.17507856833E-01 -0.12596290142E-01  0.10207098783E+01  0.10204457269E+01 0.  0.
     999903    2    3    3    0    0  0.96992257646E-01  0.86574157143E-01  0.44083551079E-03  0.13161476455E+00  0.20485828841E-01 0.  0.
         14    1    1    2    0    0  0.86013066132E-02 -0.17507856833E-01  0.12596290142E-01  0.23220121698E-01  0.00000000000E+00 0.  1.
     999901    1    3    3    0    0 -0.10559356426E+00 -0.69066300310E-01 -0.13037125653E-01  0.88909511375E+00  0.88000000000E+00 0.  1.
        -11    1    4    4    0    0  0.47090248005E-01  0.48842552750E-01  0.90989449365E-02  0.68455374780E-01  0.51100000000E-03 0. -1.
         11    1    4    4    0    0  0.49902009642E-01  0.37731604393E-01 -0.86581094257E-02  0.63159389770E-01  0.51100000000E-03 0.  1.
</event>
<event>
 8    1  0.1191842E+005  0.1043930E+01  0.7957747E-01            NaN
         13   -1    0    0    0    0  0.00000000000E+00  0.00000000000E+00  0.74505805969E-08  0.10566000000E+00  0.10566000000E+00 0. -1.
     999900   -1    0    0    0    0 -0.00000000000E+00 -0.00000000000E+00 -0.74505805969E-08  0.93827000000E+00  0.93827000000E+00 0. -1.
     999902    2    1    2    0    0  0.12635005000E-01  0.25012336621E-03  0.18604871343E-01  0.10214389540E+01  0.10211913090E+01 0.  0.
     999903    2    3    3    0    0  0.96487920448E-01  0.60004031299E-01  0.68337350200E-01  0.13404098216E+00  0.19661864173E-01 0.  0.
         14    1    1    2    0    0 -0.12635005000E-01 -0.25012336621E-03 -0.18604871343E-01  0.22491046013E-01  0.00000000000E+00 0.  1.
     999901    1    3    3    0    0 -0.83852915447E-01 -0.59753907933E-01 -0.49732478857E-01  0.88739797182E+00  0.88000000000E+00 0. -1.
        -11    1    4    4    0    0  0.66675120096E-03 -0.12896108838E-02  0.60899315011E-03  0.16551879206E-02  0.51100000000E-03 0.  1.
         11    1    4    4    0    0  0.95821169247E-01  0.61293642183E-01  0.67728357050E-01  0.13238579424E+00  0.51100000000E-03 0. -1.
</event>
<event>
 8    1  0.1191842E+005  0.1043930E+01  0.7957747E-01            NaN
         13   -1    0    0    0    0  0.00000000000E+00  0.00000000000E+00  0.74505805969E-08  0.10566000000E+00  0.10566000000E+00 0. -1.
     999900   -1    0    0    0    0 -0.00000000000E+00 -0.00000000000E+00 -0.74505805969E-08  0.93827000000E+00  0.93827000000E+00 0. -1.
     999902    2    1    2    0    0  0.93351019313E-02  0.16349293154E-01  0.17131191623E-01  0.10184757029E+01  0.10181575694E+01 0.  0.
     999903    2    3    3    0    0 -0.10397832593E+00 -0.69707773711E-01  0.23383969283E-02  0.12692392175E+00  0.20821811472E-01 0.  0.
         14    1    1    2    0    0 -0.93351019313E-02 -0.16349293154E-01 -0.17131191623E-01  0.25454297105E-01  0.00000000000E+00 0.  1.
     999901    1    3    3    0    0  0.11331342786E+00  0.86057066865E-01  0.14792794695E-01  0.89155178115E+00  0.88000000000E+00 0. -1.
        -11    1    4    4    0    0 -0.40897881248E-01 -0.34199422193E-01 -0.76046489105E-02  0.53854702441E-01  0.51100000000E-03 0.  1.
         11    1    4    4    0    0 -0.63080444681E-01 -0.35508351518E-01  0.99430458388E-02  0.73069219307E-01  0.51100000000E-03 0. -1.
</event>
<event>
 8    1  0.1191842E+005  0.1043930E+01  0.7957747E-01            NaN
         13   -1    0    0    0    0  0.00000000000E+00  0.00000000000E+00  0.74505805969E-08  0.10566000000E+00  0.10566000000E+00 0. -1.
     999900   -1    0    0    0    0 -0.00000000000E+00 -0.00000000000E+00 -0.74505805969E-08  0.93827000000E+00  0.93827000000E+00 0. -1.
     999902    2    1    2    0    0  0.20453338769E-01  0.51906760107E-02  0.11433994996E-01  0.10199296161E+01  0.10196471956E+01 0.  0.
     999903    2    3    3    0    0  0.35225113284E-01  0.11152125255E-01 -0.12262326697E+00  0.12963466855E+00  0.20087388733E-01 0.  0.
         14    1    1    2    0    0 -0.20453338769E-01 -0.51906760107E-02 -0.11433994996E-01  0.24000383868E-01  0.00000000000E+00 0.  1.
     999901    1    3    3    0    0 -0.14771774515E-01 -0.59614492439E-02  0.13405726196E+00  0.89029494758E+00  0.88000000000E+00 0.  1.
        -11    1    4    4    0    0  0.18597832628E-01  0.14914096968E-01 -0.56044548264E-01  0.60906175204E-01  0.51100000000E-03 0.  1.
         11    1    4    4    0    0  0.16627280657E-01 -0.37619717136E-02 -0.66578718701E-01  0.68728493350E-01  0.51100000000E-03 0. -1.
</event>
<event>
 8    1  0.1191842E+005  0.1043930E+01  0.7957747E-01            NaN
         13   -1    0    0    0    0  0.00000000000E+00  0.00000000000E+00  0.74505805969E-08  0.10566000000E+00  0.10566000000E+00 0. -1.
     999900   -1    0    0    0    0 -0.00000000000E+00 -0.00000000000E+00 -0.74505805969E-08  0.93827000000E+00  0.93827000000E+00 0. -1.
     999902    2    1    2    0    0  0.19684414609E-01 -0.11500855756E-01  0.69657375389E-02  0.10200916410E+01  0.10198130655E+01 0.  0.
     999903    2    3    3    0    0  0.32985965180E-02 -0.11012330797E+00 -0.68470289887E-01  0.13122411578E+00  0.19838454257E-01 0.  0.
         14    1    1    2    0    0 -0.19684414609E-01  0.11500855756E-01 -0.69657375389E-02  0.23838359026E-01  0.00000000000E+00 0.  1.
     999901    1    3    3    0    0  0.16385818091E-01  0.98622452213E-01  0.75436027426E-01  0.88886752520E+00  0.88000000000E+00 0.  1.
        -11    1    4    4    0    0 -0.54486926596E-02 -0.65193231401E-01 -0.32760835875E-01  0.73166790011E-01  0.51100000000E-03 0. -1.
         11    1    4    4    0    0  0.87472891775E-02 -0.44930076567E-01 -0.35709454012E-01  0.58057325766E-01  0.51100000000E-03 0.  1.
</event>
<event>
 8    1  0.1191842E+005  0.1043930E+01  0.7957747E-01            NaN
         13   -1    0    0    0    0  0.00000000000E+00  0.00000000000E+00  0.74505805969E-08  0.10566000000E+00  0.10566000000E+00 0. -1.
     999900   -1    0    0    0    0 -0.00000000000E+00 -0.00000000000E+00 -0.74505805969E-08  0.93827000000E+00  0.93827000000E+00 0. -1.
     999902    2    1    2    0    0 -0.12352034382E-01  0.14584126129E-01 -0.15801483963E-01  0.10191316859E+01  0.10188299351E+01 0.  0.
     999903    2    3    3    0    0 -0.55171274849E-01 -0.33260014754E-01 -0.11275602493E+00  0.13148156776E+00  0.20576281297E-01 0.  0.
         14    1    1    2    0    0  0.12352034382E-01 -0.14584126129E-01  0.15801483963E-01  0.24798314132E-01  0.00000000000E+00 0. -1.
     999901    1    3    3    0    0  0.42819240467E-01  0.47844140883E-01  0.96954540966E-01  0.88765011811E+00  0.88000000000E+00 0.  1.
        -11    1    4    4    0    0 -0.30635728679E-01 -0.24511113529E-01 -0.83789998806E-01  0.92522254507E-01  0.51100000000E-03 0.  1.
         11    1    4    4    0    0 -0.24535546170E-01 -0.87489012244E-02 -0.28966026122E-01  0.38959313249E-01  0.51100000000E-03 0. -1.
</event>
<event>
 8    1  0.1191842E+005  0.1043930E+01  0.7957747E-01            NaN
         13   -1    0    0    0    0  0.00000000000E+00  0.00000000000E+00  0.74505805969E-08  0.10566000000E+00  0.10566000000E+00 0. -1.
     999900   -1    0    0    0    0 -0.00000000000E+00 -0.00000000000E+00 -0.74505805969E-08  0.93827000000E+00  0.93827000000E+00 0.  1.
     999902    2    1    2    0    0  0.20803862863E-01 -0.28799813868E-03 -0.12176807356E-01  0.10198227751E+01  0.10195378043E+01 0.  0.
     999903    2    3    3    0    0  0.26842028764E-01  0.10128898962E+00  0.74424925269E-01  0.12973614791E+00  0.17676103842E-01 0.  0.
         14    1    1    2    0    0 -0.20803862863E-01  0.28799813868E-03  0.12176807356E-01  0.24107224857E-01  0.00000000000E+00 0. -1.
     999901    1    3    3    0    0 -0.60381659017E-02 -0.10157698775E+00 -0.86601732625E-01  0.89008662723E+00  0.88000000000E+00 0.  1.
        -11    1    4    4    0    0  0.18737041913E-01  0.74428318654E-01  0.63528820534E-01  0.99633445774E-01  0.51100000000E-03 0. -1.
         11    1    4    4    0    0  0.81049868512E-02  0.26860670962E-01  0.10896104736E-01  0.30102702134E-01  0.51100000000E-03 0.  1.
</event>
<event>
 8    1  0.1191842E+005  0.1043930E+01  0.7957747E-01            NaN
         13   -1    0    0    0    0  0.00000000000E+00  0.00000000000E+00  0.74505805969E-08  0.10566000000E+00  0.10566000000E+00 0.  1.
     999900   -1    0    0    0    0 -0.00000000000E+00 -0.00000000000E+00 -0.74505805969E-08  0.93827000000E+00  0.93827000000E+00 0.  1.
     999902    2    1    2    0    0 -0.20735999993E-01 -0.99533484466E-02 -0.27061278640E-02  0.10207702511E+01  0.10205074873E+01 0.  0.
     999903    2    3    3    0    0  0.23073172653E-01 -0.47368345083E-01 -0.11791857167E+00  0.13139236022E+00  0.24146042496E-01 0.  0.
         14    1    1    2    0    0  0.20735999993E-01  0.99533484466E-02  0.27061278640E-02  0.23159748898E-01  0.00000000000E+00 0. -1.
     999901    1    3    3    0    0 -0.43809172645E-01  0.37414996637E-01  0.11521244380E+00  0.88937789088E+00  0.88000000000E+00 0. -1.
        -11    1    4    4    0    0  0.54632784317E-02 -0.14306490006E-01 -0.13374440439E-01  0.20338629392E-01  0.51100000000E-03 0.  1.
         11    1    4    4    0    0  0.17609894221E-01 -0.33061855077E-01 -0.10454413123E+00  0.11105373083E+00  0.51100000000E-03 0. -1.
</event>
<event>
 8    1  0.1191842E+005  0.1043930E+01  0.7957747E-01            NaN
         13   -1    0    0    0    0  0.00000000000E+00  0.00000000000E+00  0.74505805969E-08  0.10566000000E+00  0.10566000000E+00 0.  1.
     999900   -1    0    0    0    0 -0.00000000000E+00 -0.00000000000E+00 -0.74505805969E-08  0.93827000000E+00  0.93827000000E+00 0.  1.
     999902    2    1    2    0    0  0.16710984216E-01  0.48268658066E-02 -0.15958344566E-01  0.10203243992E+01  0.10200513003E+01 0.  0.
     999903    2    3    3    0    0 -0.85351114982E-01 -0.85252963833E-02 -0.96867016573E-01  0.13063840656E+00  0.18046630192E-01 0.  0.
         14    1    1    2    0    0 -0.16710984216E-01 -0.48268658066E-02  0.15958344566E-01  0.23605600782E-01  0.00000000000E+00 0.  1.
     999901    1    3    3    0    0  0.10206209920E+00  0.13352162190E-01  0.80908672007E-01  0.88968599266E+00  0.88000000000E+00 0.  1.
        -11    1    4    4    0    0 -0.44727589755E-01 -0.10357208882E-02 -0.37881363371E-01  0.58624984562E-01  0.51100000000E-03 0.  1.
         11    1    4    4    0    0 -0.40623525227E-01 -0.74895754951E-02 -0.58985653203E-01  0.72013421997E-01  0.51100000000E-03 0. -1.
</event>
<event>
 8    1  0.1191842E+005  0.1043930E+01  0.7957747E-01            NaN
         13   -1    0    0    0    0  0.00000000000E+00  0.00000000000E+00  0.74505805969E-08  0.10566000000E+00  0.10566000000E+00 0.  1.
     999900   -1    0    0    0    0 -0.00000000000E+00 -0.00000000000E+00 -0.74505805969E-08  0.93827000000E+00  0.93827000000E+00 0. -1.
     999902    2    1    2    0    0 -0.14320016252E-01  0.66023222191E-02 -0.18259814673E-01  0.10198037828E+01  0.10195183574E+01 0.  0.
     999903    2    3    3    0    0 -0.87132919907E-01  0.68461194887E-01 -0.68009472301E-01  0.13323552965E+00  0.29109055332E-01 0.  0.
         14    1    1    2    0    0  0.14320016252E-01 -0.66023222191E-02  0.18259814673E-01  0.24126217193E-01  0.00000000000E+00 0.  1.
     999901    1    3    3    0    0  0.72812903655E-01 -0.61858872668E-01  0.49749657629E-01  0.88656825315E+00  0.88000000000E+00 0. -1.
        -11    1    4    4    0    0 -0.40219815842E-01  0.38421431064E-01 -0.49703909313E-01  0.74596110310E-01  0.51100000000E-03 0. -1.
         11    1    4    4    0    0 -0.46913104065E-01  0.30039763823E-01 -0.18305562988E-01  0.58639419343E-01  0.51100000000E-03 0.  1.
</event>
<event>
 8    1  0.1191842E+005  0.1043930E+01  0.7957747E-01            NaN
         13   -1    0    0    0    0  0.00000000000E+00  0.00000000000E+00  0.74505805969E-08  0.10566000000E+00  0.10566000000E+00 0.  1.
     999900   -1    0    0    0    0 -0.00000000000E+00 -0.00000000000E+00 -0.74505805969E-08  0.93827000000E+00  0.93827000000E+00 0.  1.
     999902    2    1    2    0    0 -0.16992186867E-01  0.14655277530E-01  0.14484996249E-01  0.10172218235E+01  0.10168711381E+01 0.  0.
     999903    2    3    3    0    0  0.21298265897E-01 -0.12102762539E+00  0.21033105252E-01  0.12597612977E+00  0.18063541109E-01 0.  0.
         14    1    1    2    0    0  0.16992186867E-01 -0.14655277530E-01 -0.14484996249E-01  0.26708176469E-01  0.00000000000E+00 0.  1.
     999901    1    3    3    0    0 -0.38290452763E-01  0.13568290292E+00 -0.65481090026E-02  0.89124569376E+00  0.88000000000E+00 0.  1.
        -11    1    4    4    0    0  0.22037207466E-01 -0.92690774259E-01  0.21282730461E-01  0.97623941134E-01  0.51100000000E-03 0. -1.
         11    1    4    4    0    0 -0.73894156989E-03 -0.28336851130E-01 -0.24962520993E-03  0.28352188635E-01  0.51100000000E-03 0.  1.
</event>
<event>
 8    1  0.1191842E+005  0.1043930E+01  0.7957747E-01            NaN
         13   -1    0    0    0    0  0.00000000000E+00  0.00000000000E+00  0.74505805969E-08  0.10566000000E+00  0.10566000000E+00 0.  1.
     999900   -1    0    0    0    0 -0.00000000000E+00 -0.00000000000E+00 -0.74505805969E-08  0.93827000000E+00  0.93827000000E+00 0. -1.
     999902    2    1    2    0    0 -0.20979161459E-01 -0.96294531720E-02  0.26712821471E-02  0.10206923725E+01  0.10204278181E+01 0.  0.
     999903    2    3    3    0    0  0.10970486966E+00 -0.64878535135E-01 -0.12845782749E-01  0.12919276153E+00  0.16774169090E-01 0.  0.
         14    1    1    2    0    0  0.20979161459E-01  0.96294531720E-02 -0.26712821471E-02  0.23237627509E-01  0.00000000000E+00 0. -1.
     999901    1    3    3    0    0 -0.13068403112E+00  0.55249081963E-01  0.15517064896E-01  0.89149961096E+00  0.88000000000E+00 0. -1.
        -11    1    4    4    0    0  0.95096967356E-01 -0.56458282077E-01 -0.53237548022E-02  0.11072296194E+00  0.51100000000E-03 0. -1.
         11    1    4    4    0    0  0.14607902302E-01 -0.84202530582E-02 -0.75220279468E-02  0.18469799584E-01  0.51100000000E-03 0.  1.
</event>
<event>
 8    1  0.1191842E+005  0.1043930E+01  0.7957747E-01            NaN
         13   -1    0    0    0    0  0.00000000000E+00  0.00000000000E+00  0.74505805969E-08  0.10566000000E+00  0.10566000000E+00 0. -1.
     999900   -1    0    0    0    0 -0.00000000000E+00 -0.00000000000E+00 -0.74505805969E-08  0.93827000000E+00  0.93827000000E+00 0.  1.
     999902    2    1    2    0    0  0.23338318923E-03 -0.18454011270E-01 -0.16226033054E-01  0.10193558439E+01  0.10190595897E+01 0.  0.
     999903    2    3    3    0    0  0.93486234597E-02 -0.11221679100E+00  0.63386140635E-01  0.13075433328E+00  0.19972178246E-01 0.  0.
         14    1    1    2    0    0 -0.23338318923E-03  0.18454011270E-01  0.16226033054E-01  0.24574156106E-01  0.00000000000E+00 0. -1.
     999901    1    3    3    0    0 -0.91152402705E-02  0.93762779729E-01 -0.79612173688E-01  0.88860151061E+00  0.88000000000E+00 0.  1.
        -11    1    4    4    0    0  0.45119625836E-02 -0.68794117770E-01  0.27551865494E-01  0.74245234590E-01  0.51100000000E-03 0. -1.
         11    1    4    4    0    0  0.48366608762E-02 -0.43422673230E-01  0.35834275140E-01  0.56509098689E-01  0.51100000000E-03 0.  1.
</event>
<event>
 8    1  0.1191842E+005  0.1043930E+01  0.7957747E-01            NaN
         13   -1    0    0    0    0  0.00000000000E+00  0.00000000000E+00  0.74505805969E-08  0.10566000000E+00  0.10566000000E+00 0.  1.
     999900   -1    0    0    0    0 -0.00000000000E+00 -0.00000000000E+00 -0.74505805969E-08  0.93827000000E+00  0.93827000000E+00 0. -1.
     999902    2    1    2    0    0  0.15928817046E-01 -0.17019230653E-02 -0.18929254356E-01  0.10191320076E+01  0.10188302648E+01 0.  0.
     999903    2    3    3    0    0 -0.79818130535E-01 -0.91990543464E-01 -0.38599383743E-01  0.12912839701E+00  0.18735966491E-01 0.  0.
         14    1    1    2    0    0 -0.15928817046E-01  0.17019230653E-02  0.18929254356E-01  0.24797992359E-01  0.00000000000E+00 0.  1.
     999901    1    3    3    0    0  0.95746947581E-01  0.90288620398E-01  0.19670129387E-01  0.89000361063E+00  0.88000000000E+00 0. -1.
        -11    1    4    4    0    0 -0.50857789154E-01 -0.59660385307E-01 -0.34086652557E-01  0.85487059232E-01  0.51100000000E-03 0. -1.
         11    1    4    4    0    0 -0.28960341381E-01 -0.32330158157E-01 -0.45127311859E-02  0.43641337779E-01  0.51100000000E-03 0.  1.
</event>
<event>
 8    1  0.1191842E+005  0.1043930E+01  0.7957747E-01            NaN
         13   -1    0    0    0    0  0.00000000000E+00  0.00000000000E+00  0.74505805969E-08  0.10566000000E+00  0.10566000000E+00 0.  1.
     999900   -1    0    0    0    0 -0.00000000000E+00 -0.00000000000E+00 -0.74505805969E-08  0.93827000000E+00  0.93827000000E+00 0. -1.
     999902    2    1    2    0    0 -0.14994030808E-01  0.13619337226E-01  0.13840770922E-01  0.10193968745E+01  0.10191016208E+01 0.  0.
     999903    2    3    3    0    0 -0.10584953820E-01 -0.10892092381E+00  0.65960142386E-01  0.12936767027E+00  0.20234743245E-01 0.  0.
         14    1    1    2    0    0  0.14994030808E-01 -0.13619337226E-01 -0.13840770922E-01  0.24533125485E-01  0.00000000000E+00 0.  1.
     999901    1    3    3    0    0 -0.44090769875E-02  0.12254026104E+00 -0.52119371465E-01  0.89002920425E+00  0.88000000000E+00 0. -1.
        -11    1    4    4    0    0 -0.12526216296E-01 -0.60299800063E-01  0.45526360620E-01  0.76589050227E-01  0.51100000000E-03 0. -1.
         11    1    4    4    0    0  0.19412624759E-02 -0.48621123752E-01  0.20433781766E-01  0.52778620038E-01  0.51100000000E-03 0.  1.
</event>
<event>
 8    1  0.1191842E+005  0.1043930E+01  0.7957747E-01            NaN
         13   -1    0    0    0    0  0.00000000000E+00  0.00000000000E+00  0.74505805969E-08  0.10566000000E+00  0.10566000000E+00 0. -1.
     999900   -1    0    0    0    0 -0.00000000000E+00 -0.00000000000E+00 -0.74505805969E-08  0.93827000000E+00  0.93827000000E+00 0. -1.
     999902    2    1    2    0    0  0.15612404555E-01  0.56465310044E-02  0.16617894889E-01  0.10204398974E+01  0.10201694954E+01 0.  0.
     999903    2    3    3    0    0  0.13078803917E+00  0.10514790581E-01 -0.13840112411E-02  0.13273882421E+00  0.20040158550E-01 0.  0.
         14    1    1    2    0    0 -0.15612404555E-01 -0.56465310044E-02 -0.16617894889E-01  0.23490102574E-01  0.00000000000E+00 0.  1.
     999901    1    3    3    0    0 -0.11517563462E+00 -0.48682595769E-02  0.18001906130E-01  0.88770107321E+00  0.88000000000E+00 0. -1.
        -11    1    4    4    0    0  0.55791976072E-01 -0.29228646643E-03 -0.92595329435E-02  0.56558200968E-01  0.51100000000E-03 0. -1.
         11    1    4    4    0    0  0.74996063100E-01  0.10807077048E-01  0.78755217024E-02  0.76180623244E-01  0.51100000000E-03 0.  1.
</event>
<event>
 8    1  0.1191842E+005  0.1043930E+01  0.7957747E-01            NaN
         13   -1    0    0    0    0  0.00000000000E+00  0.00000000000E+00  0.74505805969E-08  0.10566000000E+00  0.10566000000E+00 0.  1.
     999900   -1    0    0    0    0 -0.00000000000E+00 -0.00000000000E+00 -0.74505805969E-08  0.93827000000E+00  0.93827000000E+00 0.  1.
     999902    2    1    2    0    0 -0.23141324491E-01 -0.56620049867E-02  0.62000980896E-02  0.10193125181E+01  0.10190152055E+01 0.  0.
     999903    2    3    3    0    0 -0.17425927123E-01  0.68360748567E-01  0.10770880254E+00  0.13037154654E+00  0.20462138725E-01 0.  0.
         14    1    1    2    0    0  0.23141324491E-01  0.56620049867E-02 -0.62000980896E-02  0.24617481918E-01  0.00000000000E+00 0.  1.
     999901    1    3    3    0    0 -0.57153973680E-02 -0.74022753553E-01 -0.10150870445E+00  0.88894097154E+00  0.88000000000E+00 0.  1.
        -11    1    4    4    0    0  0.37168579561E-02  0.24122424652E-01  0.34884600744E-01  0.42578197404E-01  0.51100000000E-03 0.  1.
         11    1    4    4    0    0 -0.21142785079E-01  0.44238323915E-01  0.72824201797E-01  0.87793349134E-01  0.51100000000E-03 0. -1.
</event>
<event>
 8    1  0.1191842E+005  0.1043930E+01  0.7957747E-01            NaN
         13   -1    0    0    0    0  0.00000000000E+00  0.00000000000E+00  0.74505805969E-08  0.10566000000E+00  0.10566000000E+00 0.  1.
     999900   -1    0    0    0    0 -0.00000000000E+00 -0.00000000000E+00 -0.74505805969E-08  0.93827000000E+00  0.93827000000E+00 0. -1.
     999902    2    1    2    0    0  0.21431819795E-01 -0.84559855877E-02  0.36706197376E-02  0.10205997612E+01  0.10203330694E+01 0.  0.
     999903    2    3    3    0    0 -0.82842249978E-01 -0.67330947348E-01 -0.70385311386E-01  0.12940751278E+00  0.19897674582E-01 0.  0.
         14    1    1    2    0    0 -0.21431819795E-01  0.84559855877E-02 -0.36706197376E-02  0.23330238774E-01  0.00000000000E+00 0. -1.
     999901    1    3    3    0    0  0.10427406977E+00  0.58874961760E-01  0.74055931123E-01  0.89119224844E+00  0.88000000000E+00 0.  1.
        -11    1    4    4    0    0 -0.32194557883E-01 -0.30322769771E-01 -0.40301671464E-01  0.59836826183E-01  0.51100000000E-03 0.  1.
         11    1    4    4    0    0 -0.50647692095E-01 -0.37008177577E-01 -0.30083639921E-01  0.69570686601E-01  0.51100000000E-03 0. -1.
</event>
<event>
 8    1  0.1191842E+005  0.1043930E+01  0.7957747E-01            NaN
         13   -1    0    0    0    0  0.00000000000E+00  0.00000000000E+00  0.74505805969E-08  0.10566000000E+00  0.10566000000E+00 0.  1.
     999900   -1    0    0    0    0 -0.00000000000E+00 -0.00000000000E+00 -0.74505805969E-08  0.93827000000E+00  0.93827000000E+00 0. -1.
     999902    2    1    2    0    0  0.66451458888E-02 -0.94546421087E-02  0.21133282403E-01  0.10198434094E+01  0.10195589320E+01 0.  0.
     999903    2    3    3    0    0 -0.50653699979E-01 -0.10178754219E+00 -0.58792160781E-01  0.12956446512E+00  0.20098044301E-01 0.  0.
         14    1    1    2    0    0 -0.66451458888E-02  0.94546421087E-02 -0.21133282403E-01  0.24086590593E-01  0.00000000000E+00 0. -1.
     999901    1    3    3    0    0  0.57298845867E-01  0.92332900085E-01  0.79925443184E-01  0.89027894429E+00  0.88000000000E+00 0.  1.
        -11    1    4    4    0    0 -0.21736662311E-01 -0.39900726959E-01 -0.12783615261E-01  0.47204157025E-01  0.51100000000E-03 0.  1.
         11    1    4    4    0    0 -0.28917037668E-01 -0.61886815234E-01 -0.46008545520E-01  0.82360308093E-01  0.51100000000E-03 0. -1.
</event>
<event>
 8    1  0.1191842E+005  0.1043930E+01  0.7957747E-01            NaN
         13   -1    0    0    0    0  0.00000000000E+00  0.00000000000E+00  0.74505805969E-08  0.10566000000E+00  0.10566000000E+00 0. -1.
     999900   -1    0    0    0    0 -0.00000000000E+00 -0.00000000000E+00 -0.74505805969E-08  0.93827000000E+00  0.93827000000E+00 0. -1.
     999902    2    1    2    0    0  0.34152566819E-02  0.47361333089E-03 -0.25979259699E-01  0.10177229356E+01  0.10173854547E+01 0.  0.
     999903    2    3    3    0    0 -0.99392632276E-01 -0.53871200373E-01 -0.59866952969E-01  0.12942614033E+00  0.19648719095E-01 0.  0.
         14    1    1    2    0    0 -0.34152566819E-02 -0.47361333089E-03  0.25979259699E-01  0.26207064359E-01  0.00000000000E+00 0. -1.
     999901    1    3    3    0    0  0.10280788896E+00  0.54344813704E-01  0.33887693270E-01  0.88829679531E+00  0.88000000000E+00 0. -1.
        -11    1    4    4    0    0 -0.73244605087E-02 -0.10898739891E-01 -0.65949670248E-02  0.14703229713E-01  0.51100000000E-03 0.  1.
         11    1    4    4    0    0 -0.92068171767E-01 -0.42972460482E-01 -0.53271985944E-01  0.11472291061E+00  0.51100000000E-03 0. -1.
</event>
<event>
 8    1  0.1191842E+005  0.1043930E+01  0.7957747E-01            NaN
         13   -1    0    0    0    0  0.00000000000E+00  0.00000000000E+00  0.74505805969E-08  0.10566000000E+00  0.10566000000E+00 0.  1.
     999900   -1    0    0    0    0 -0.00000000000E+00 -0.00000000000E+00 -0.74505805969E-08  0.93827000000E+00  0.93827000000E+00 0. -1.
     999902    2    1    2    0    0 -0.10401976441E-01  0.17572509317E-01 -0.11800467071E-01  0.10203451485E+01  0.10200725351E+01 0.  0.
     999903    2    3    3    0    0  0.59833337167E-01  0.45678798047E-01 -0.10661607064E+00  0.13202484510E+00  0.19924667540E-01 0.  0.
         14    1    1    2    0    0  0.10401976441E-01 -0.17572509317E-01  0.11800467071E-01  0.23584851508E-01  0.00000000000E+00 0.  1.
     999901    1    3    3    0    0 -0.70235313608E-01 -0.28106288730E-01  0.94815603570E-01  0.88832030340E+00  0.88000000000E+00 0.  1.
        -11    1    4    4    0    0 -0.12995481655E-02  0.14515477852E-02 -0.55078116519E-02  0.58645482861E-02  0.51100000000E-03 0. -1.
         11    1    4    4    0    0  0.61132885332E-01  0.44227250261E-01 -0.10110825899E+00  0.12616029681E+00  0.51100000000E-03 0.  1.
</event>
<event>
 8    1  0.1191842E+005  0.1043930E+01  0.7957747E-01            NaN
         13   -1    0    0    0    0  0.00000000000E+00  0.00000000000E+00  0.74505805969E-08  0.10566000000E+00  0.10566000000E+00 0. -1.
     999900   -1    0    0    0    0 -0.00000000000E+00 -0.00000000000E+00 -0.74505805969E-08  0.93827000000E+00  0.93827000000E+00 0. -1.
     999902    2    1    2    0    0  0.84903393508E-02  0.16588896512E-01 -0.17740487997E-01  0.10182005953E+01  0.10178754590E+01 0.  0.
     999903    2    3    3    0    0  0.92582856350E-01  0.74139844157E-01  0.48522468812E-01  0.12984568741E+00  0.20908629298E-01 0.  0.
         14    1    1    2    0    0 -0.84903393508E-02 -0.16588896512E-01  0.17740487997E-01  0.25729404660E-01  0.00000000000E+00 0. -1.
     999901    1    3    3    0    0 -0.84092516999E-01 -0.57550947645E-01 -0.66262956809E-01  0.88835490793E+00  0.88000000000E+00 0. -1.
        -11    1    4    4    0    0  0.43761548779E-01  0.25847553563E-01  0.12694265029E-01  0.52388688305E-01  0.51100000000E-03 0.  1.
         11    1    4    4    0    0  0.48821307571E-01  0.48292290594E-01  0.35828203783E-01  0.77456999109E-01  0.51100000000E-03 0. -1.
</event>
<event>
 8    1  0.1191842E+005  0.1043930E+01  0.7957747E-01            NaN
         13   -1    0    0    0    0  0.00000000000E+00  0.00000000000E+00  0.74505805969E-08  0.10566000000E+00  0.10566000000E+00 0. -1.
     999900   -1    0    0    0    0 -0.00000000000E+00 -0.00000000000E+00 -0.74505805969E-08  0.93827000000E+00  0.93827000000E+00 0. -1.
     999902    2    1    2    0    0  0.65057504901E-02  0.22076254441E-01  0.64775867484E-02  0.10200209028E+01  0.10197406519E+01 0.  0.
     999903    2    3    3    0    0  0.25726551101E-01  0.36116711641E-01 -0.12113838493E+00  0.13049720448E+00  0.19716485032E-01 0.  0.
         14    1    1    2    0    0 -0.65057504901E-02 -0.22076254441E-01 -0.64775867484E-02  0.23909097215E-01  0.00000000000E+00 0.  1.
     999901    1    3    3    0    0 -0.19220800611E-01 -0.14040457200E-01  0.12761597168E+00  0.88952369830E+00  0.88000000000E+00 0.  1.
        -11    1    4    4    0    0  0.27327870078E-01  0.24239251576E-01 -0.91003265436E-01  0.98062272261E-01  0.51100000000E-03 0.  1.
         11    1    4    4    0    0 -0.16013189771E-02  0.11877460065E-01 -0.30135119497E-01  0.32434932221E-01  0.51100000000E-03 0. -1.
</event>
<event>
 8    1  0.1191842E+005  0.1043930E+01  0.7957747E-01            NaN
         13   -1    0    0    0    0  0.00000000000E+00  0.00000000000E+00  0.74505805969E-08  0.10566000000E+00  0.10566000000E+00 0.  1.
     999900   -1    0    0    0    0 -0.00000000000E+00 -0.00000000000E+00 -0.74505805969E-08  0.93827000000E+00  0.93827000000E+00 0. -1.
     999902    2    1    2    0    0  0.71999573526E-02 -0.28958442573E-02 -0.22198514794E-01  0.10204140616E+01  0.10201430575E+01 0.  0.
     999903    2    3    3    0    0  0.62224310520E-01 -0.37688167144E-01  0.10443636555E+00  0.12896884281E+00  0.20826550479E-01 0.  0.
         14    1    1    2    0    0 -0.71999573526E-02  0.28958442573E-02  0.22198514794E-01  0.23515938401E-01  0.00000000000E+00 0.  1.
     999901    1    3    3    0    0 -0.55024353167E-01  0.34792322887E-01 -0.12663488035E+00  0.89144521878E+00  0.88000000000E+00 0.  1.
        -11    1    4    4    0    0  0.17266162996E-01 -0.10770181096E-01  0.14907266490E-01  0.25231030512E-01  0.51100000000E-03 0. -1.
         11    1    4    4    0    0  0.44958147524E-01 -0.26917986048E-01  0.89529099061E-01  0.10373781230E+00  0.51100000000E-03 0.  1.
</event>
<event>
 8    1  0.1191842E+005  0.1043930E+01  0.7957747E-01            NaN
         13   -1    0    0    0    0  0.00000000000E+00  0.00000000000E+00  0.74505805969E-08  0.10566000000E+00  0.10566000000E+00 0.  1.
     999900   -1    0    0    0    0 -0.00000000000E+00 -0.00000000000E+00 -0.74505805969E-08  0.93827000000E+00  0.93827000000E+00 0. -1.
     999902    2    1    2    0    0 -0.79521429737E-02  0.66621496693E-02 -0.21735378586E-01  0.10198458247E+01  0.10195614051E+01 0.  0.
     999903    2    3    3    0    0  0.11526122817E+00  0.33348867455E-01  0.41745582526E-01  0.12859751581E+00  0.19933131524E-01 0.  0.
         14    1    1    2    0    0  0.79521429737E-02 -0.66621496693E-02  0.21735378586E-01  0.24084175269E-01  0.00000000000E+00 0. -1.
     999901    1    3    3    0    0 -0.12321337114E+00 -0.26686717786E-01 -0.63480961113E-01  0.89124830892E+00  0.88000000000E+00 0. -1.
        -11    1    4    4    0    0  0.11045908816E+00  0.32411695551E-01  0.35139539149E-01  0.12036102566E+00  0.51100000000E-03 0. -1.
         11    1    4    4    0    0  0.48021400059E-02  0.93717190412E-03  0.66060433770E-02  0.82364901452E-02  0.51100000000E-03 0.  1.
</event>
<event>
 8    1  0.1191842E+005  0.1043930E+01  0.7957747E-01            NaN
         13   -1    0    0    0    0  0.00000000000E+00  0.00000000000E+00  0.74505805969E-08  0.10566000000E+00  0.10566000000E+00 0.  1.
     999900   -1    0    0    0    0 -0.00000000000E+00 -0.00000000000E+00 -0.74505805969E-08  0.93827000000E+00  0.93827000000E+00 0. -1.
     999902    2    1    2    0    0  0.22013595069E-01 -0.94415092943E-02  0.64786209665E-02  0.10191164353E+01  0.10188143087E+01 0.  0.
     999903    2    3    3    0    0 -0.92469711302E-01 -0.68195427862E-01  0.53846259433E-01  0.12849746872E+00  0.20271061208E-01 0.  0.
         14    1    1    2    0    0 -0.22013595069E-01  0.94415092943E-02 -0.64786209665E-02  0.24813564743E-01  0.00000000000E+00 0. -1.
     999901    1    3    3    0    0  0.11448330637E+00  0.58753918568E-01 -0.47367638467E-01  0.89061896654E+00  0.88000000000E+00 0.  1.
        -11    1    4    4    0    0 -0.53970915675E-01 -0.29306921271E-01  0.22351584981E-01  0.65357553850E-01  0.51100000000E-03 0. -1.
         11    1    4    4    0    0 -0.38498795627E-01 -0.38888506592E-01  0.31494674453E-01  0.63139914868E-01  0.51100000000E-03 0.  1.
</event>
<event>
 8    1  0.1368553E+005  0.1043930E+01  0.7957747E-01            NaN
         13   -1    0    0    0    0  0.00000000000E+00  0.00000000000E+00  0.74505805969E-08  0.10566000000E+00  0.10566000000E+00 0.  1.
     999900   -1    0    0    0    0 -0.00000000000E+00 -0.00000000000E+00 -0.74505805969E-08  0.93827000000E+00  0.93827000000E+00 0. -1.
     999902    2    1    2    0    0  0.19592644534E-01 -0.54049422851E-03 -0.12873312243E-01  0.10204803513E+01  0.10202108907E+01 0.  0.
     999903    2    3    3    0    0 -0.60730395279E-01  0.61872243971E-01 -0.95902759777E-01  0.13073823715E+00  0.19462575269E-01 0.  0.
         14    1    1    2    0    0 -0.19592644534E-01  0.54049422851E-03  0.12873312243E-01  0.23449648653E-01  0.00000000000E+00 0. -1.
     999901    1    3    3    0    0  0.80323039813E-01 -0.62412738199E-01  0.83029447534E-01  0.88974211419E+00  0.88000000000E+00 0.  1.
        -11    1    4    4    0    0 -0.20715604978E-01  0.34898371957E-01 -0.44668423092E-01  0.60353639471E-01  0.51100000000E-03 0. -1.
         11    1    4    4    0    0 -0.40014790300E-01  0.26973872014E-01 -0.51234336685E-01  0.70384597681E-01  0.51100000000E-03 0.  1.
</event>
<event>
 8    1  0.1191842E+005  0.1043930E+01  0.7957747E-01            NaN
         13   -1    0    0    0    0  0.00000000000E+00  0.00000000000E+00  0.74505805969E-08  0.10566000000E+00  0.10566000000E+00 0.  1.
     999900   -1    0    0    0    0 -0.00000000000E+00 -0.00000000000E+00 -0.74505805969E-08  0.93827000000E+00  0.93827000000E+00 0.  1.
     999902    2    1    2    0    0  0.22762417996E-01 -0.46077112707E-02  0.50943113277E-02  0.10201537370E+01  0.10198766280E+01 0.  0.
     999903    2    3    3    0    0 -0.10526110640E+00 -0.66574055854E-01  0.21965256457E-01  0.12857397079E+00  0.23168686614E-01 0.  0.
         14    1    1    2    0    0 -0.22762417996E-01  0.46077112707E-02 -0.50943113277E-02  0.23776263038E-01  0.00000000000E+00 0. -1.
     999901    1    3    3    0    0  0.12802352440E+00  0.61966344584E-01 -0.16870945130E-01  0.89157976617E+00  0.88000000000E+00 0. -1.
        -11    1    4    4    0    0 -0.83500493487E-01 -0.53615499797E-01  0.26791833358E-01  0.10278627188E+00  0.51100000000E-03 0. -1.
         11    1    4    4    0    0 -0.21760612914E-01 -0.12958556057E-01 -0.48265769005E-02  0.25787698910E-01  0.51100000000E-03 0.  1.
</event>
<event>
 8    1  0.1191842E+005  0.1043930E+01  0.7957747E-01            NaN
         13   -1    0    0    0    0  0.00000000000E+00  0.00000000000E+00  0.74505805969E-08  0.10566000000E+00  0.10566000000E+00 0. -1.
     999900   -1    0    0    0    0 -0.00000000000E+00 -0.00000000000E+00 -0.74505805969E-08  0.93827000000E+00  0.93827000000E+00 0.  1.
     999902    2    1    2    0    0  0.14468907183E-01 -0.79711412144E-02 -0.18820489976E-01  0.10188880510E+01  0.10185802674E+01 0.  0.
     999903    2    3    3    0    0 -0.46558195509E-01  0.92290817041E-01 -0.74900330839E-01  0.12932539660E+00  0.20730127020E-01 0.  0.
         14    1    1    2    0    0 -0.14468907183E-01  0.79711412144E-02  0.18820489976E-01  0.25041949011E-01  0.00000000000E+00 0. -1.
     999901    1    3    3    0    0  0.61027102692E-01 -0.10026195826E+00  0.56079840863E-01  0.88956265439E+00  0.88000000000E+00 0. -1.
        -11    1    4    4    0    0 -0.20231145017E-01  0.27389226943E-01 -0.15194687283E-01  0.37290865153E-01  0.51100000000E-03 0. -1.
         11    1    4    4    0    0 -0.26327050492E-01  0.64901590098E-01 -0.59705643555E-01  0.92034531444E-01  0.51100000000E-03 0.  1.
</event>
<event>
 8    1  0.1191842E+005  0.1043930E+01  0.7957747E-01            NaN
         13   -1    0    0    0    0  0.00000000000E+00  0.00000000000E+00  0.74505805969E-08  0.10566000000E+00  0.10566000000E+00 0.  1.
     999900   -1    0    0    0    0 -0.00000000000E+00 -0.00000000000E+00 -0.74505805969E-08  0.93827000000E+00  0.93827000000E+00 0. -1.
     999902    2    1    2    0    0  0.18575451498E-01 -0.13946361057E-01 -0.38883561557E-02  0.10203786158E+01  0.10201067845E+01 0.  0.
     999903    2    3    3    0    0 -0.43181010252E-01  0.31413428837E-01 -0.11670763429E+00  0.12987338804E+00  0.19875156929E-01 0.  0.
         14    1    1    2    0    0 -0.18575451498E-01  0.13946361057E-01  0.38883561557E-02  0.23551384220E-01  0.00000000000E+00 0.  1.
     999901    1    3    3    0    0  0.61756461750E-01 -0.45359789894E-01  0.11281927813E+00  0.89050522774E+00  0.88000000000E+00 0. -1.
        -11    1    4    4    0    0 -0.20570648656E-01  0.26508339830E-01 -0.75267628236E-01  0.82409469407E-01  0.51100000000E-03 0. -1.
         11    1    4    4    0    0 -0.22610361596E-01  0.49050890066E-02 -0.41440006053E-01  0.47463918637E-01  0.51100000000E-03 0.  1.
</event>
<event>
 8    1  0.1191842E+005  0.1043930E+01  0.7957747E-01            NaN
         13   -1    0    0    0    0  0.00000000000E+00  0.00000000000E+00  0.74505805969E-08  0.10566000000E+00  0.10566000000E+00 0. -1.
     999900   -1    0    0    0    0 -0.00000000000E+00 -0.00000000000E+00 -0.74505805969E-08  0.93827000000E+00  0.93827000000E+00 0. -1.
     999902    2    1    2    0    0  0.10166566522E-01  0.50678304967E-02  0.20629448751E-01  0.10203797105E+01  0.10201079048E+01 0.  0.
     999903    2    3    3    0    0  0.94542128370E-01  0.66010784840E-01 -0.57963206119E-01  0.13076738788E+00  0.21088829199E-01 0.  0.
         14    1    1    2    0    0 -0.10166566522E-01 -0.50678304967E-02 -0.20629448751E-01  0.23550289522E-01  0.00000000000E+00 0.  1.
     999901    1    3    3    0    0 -0.84375561848E-01 -0.60942954343E-01  0.78592654871E-01  0.88961232260E+00  0.88000000000E+00 0.  1.
        -11    1    4    4    0    0  0.21889309497E-01  0.64442389907E-02 -0.69431858301E-02  0.23856635071E-01  0.51100000000E-03 0. -1.
         11    1    4    4    0    0  0.72652818873E-01  0.59566545849E-01 -0.51020020289E-01  0.10691075281E+00  0.51100000000E-03 0.  1.
</event>
<event>
 8    1  0.1191842E+005  0.1043930E+01  0.7957747E-01            NaN
         13   -1    0    0    0    0  0.00000000000E+00  0.00000000000E+00  0.74505805969E-08  0.10566000000E+00  0.10566000000E+00 0.  1.
     999900   -1    0    0    0    0 -0.00000000000E+00 -0.00000000000E+00 -0.74505805969E-08  0.93827000000E+00  0.93827000000E+00 0.  1.
     999902    2    1    2    0    0  0.11187633285E-01 -0.19385184341E-01 -0.85433668233E-02  0.10199730046E+01  0.10196916164E+01 0.  0.
     999903    2    3    3    0    0  0.12566899689E+00 -0.30531190074E-01  0.17884221342E-01  0.13209427785E+00  0.20104788512E-01 0.  0.
         14    1    1    2    0    0 -0.11187633285E-01  0.19385184341E-01  0.85433668233E-02  0.23956995370E-01  0.00000000000E+00 0. -1.
     999901    1    3    3    0    0 -0.11448136360E+00  0.11146005733E-01 -0.26427588166E-01  0.88787872678E+00  0.88000000000E+00 0. -1.
        -11    1    4    4    0    0  0.11667841625E-01 -0.49650075967E-02 -0.38379322998E-02  0.13258230423E-01  0.51100000000E-03 0. -1.
         11    1    4    4    0    0  0.11400115526E+00 -0.25566182477E-01  0.21722153642E-01  0.11883604742E+00  0.51100000000E-03 0.  1.
</event>
<event>
 8    1  0.1191842E+005  0.1043930E+01  0.7957747E-01            NaN
         13   -1    0    0    0    0  0.00000000000E+00  0.00000000000E+00  0.74505805969E-08  0.10566000000E+00  0.10566000000E+00 0.  1.
     999900   -1    0    0    0    0 -0.00000000000E+00 -0.00000000000E+00 -0.74505805969E-08  0.93827000000E+00  0.93827000000E+00 0.  1.
     999902    2    1    2    0    0  0.14328231801E-02 -0.41353740708E-02 -0.23389716120E-01  0.10201343466E+01  0.10198567801E+01 0.  0.
     999903    2    3    3    0    0 -0.12410137859E+00 -0.30082087380E-01  0.14407704183E-01  0.13004406312E+00  0.19944730218E-01 0.  0.
         14    1    1    2    0    0 -0.14328231801E-02  0.41353740708E-02  0.23389716120E-01  0.23795653408E-01  0.00000000000E+00 0.  1.
     999901    1    3    3    0    0  0.12553420177E+00  0.25946713309E-01 -0.37797420303E-01  0.89009028347E+00  0.88000000000E+00 0.  1.
        -11    1    4    4    0    0 -0.42427889407E-01 -0.12000160927E-02  0.16653177180E-02  0.42480586652E-01  0.51100000000E-03 0.  1.
         11    1    4    4    0    0 -0.81673489186E-01 -0.28882071287E-01  0.12742386465E-01  0.87563476470E-01  0.51100000000E-03 0. -1.
</event>
<event>
 8    1  0.1191842E+005  0.1043930E+01  0.7957747E-01            NaN
         13   -1    0    0    0    0  0.00000000000E+00  0.00000000000E+00  0.74505805969E-08  0.10566000000E+00  0.10566000000E+00 0.  1.
     999900   -1    0    0    0    0 -0.00000000000E+00 -0.00000000000E+00 -0.74505805969E-08  0.93827000000E+00  0.93827000000E+00 0.  1.
     999902    2    1    2    0    0  0.20297647577E-01 -0.69362712871E-02  0.10072692041E-01  0.10202326271E+01  0.10199573756E+01 0.  0.
     999903    2    3    3    0    0 -0.86912593113E-01 -0.90483068829E-01 -0.23438536943E-01  0.12916747487E+00  0.19846585682E-01 0.  0.
         14    1    1    2    0    0 -0.20297647577E-01  0.69362712871E-02 -0.10072692041E-01  0.23697372882E-01  0.00000000000E+00 0. -1.
     999901    1    3    3    0    0  0.10721024069E+00  0.83546797542E-01  0.33511228984E-01  0.89106515225E+00  0.88000000000E+00 0.  1.
        -11    1    4    4    0    0 -0.32931067220E-01 -0.24349901034E-01 -0.13224775084E-02  0.40980274967E-01  0.51100000000E-03 0.  1.
         11    1    4    4    0    0 -0.53981525893E-01 -0.66133167795E-01 -0.22116059434E-01  0.88187199900E-01  0.51100000000E-03 0. -1.
</event>
<event>
 8    1  0.1191842E+005  0.1043930E+01  0.7957747E-01            NaN
         13   -1    0    0    0    0  0.00000000000E+00  0.00000000000E+00  0.74505805969E-08  0.10566000000E+00  0.10566000000E+00 0. -1.
     999900   -1    0    0    0    0 -0.00000000000E+00 -0.00000000000E+00 -0.74505805969E-08  0.93827000000E+00  0.93827000000E+00 0.  1.
     999902    2    1    2    0    0  0.10642419063E-01 -0.15476267367E-01  0.14572126146E-01  0.10201576885E+01  0.10198806727E+01 0.  0.
     999903    2    3    3    0    0 -0.60179813029E-01  0.35814052032E-01  0.10872042915E+00  0.13082626072E+00  0.19776818770E-01 0.  0.
         14    1    1    2    0    0 -0.10642419063E-01  0.15476267367E-01 -0.14572126146E-01  0.23772311531E-01  0.00000000000E+00 0.  1.
     999901    1    3    3    0    0  0.70822232091E-01 -0.51290319399E-01 -0.94148303004E-01  0.88933142775E+00  0.88000000000E+00 0.  1.
        -11    1    4    4    0    0 -0.42168419931E-01  0.34780951235E-01  0.83931103785E-01  0.10016277508E+00  0.51100000000E-03 0.  1.
         11    1    4    4    0    0 -0.18011393098E-01  0.10331007969E-02  0.24789325364E-01  0.30663485640E-01  0.51100000000E-03 0. -1.
</event>
<event>
 8    1  0.1191842E+005  0.1043930E+01  0.7957747E-01            NaN
         13   -1    0    0    0    0  0.00000000000E+00  0.00000000000E+00  0.74505805969E-08  0.10566000000E+00  0.10566000000E+00 0. -1.
     999900   -1    0    0    0    0 -0.00000000000E+00 -0.00000000000E+00 -0.74505805969E-08  0.93827000000E+00  0.93827000000E+00 0. -1.
     999902    2    1    2    0    0 -0.21058264974E-01 -0.82401229357E-02 -0.49358321601E-02  0.10207845342E+01  0.10205220980E+01 0.  0.
     999903    2    3    3    0    0  0.11264587973E+00 -0.51282932217E-02 -0.59386561534E-01  0.12901586252E+00  0.20073252800E-01 0.  0.
         14    1    1    2    0    0  0.21058264974E-01  0.82401229357E-02  0.49358321601E-02  0.23145465838E-01  0.00000000000E+00 0.  1.
     999901    1    3    3    0    0 -0.13370414471E+00 -0.31118297140E-02  0.54450729374E-01  0.89176867164E+00  0.88000000000E+00 0.  1.
        -11    1    4    4    0    0  0.58546290743E-01 -0.10230496796E-01 -0.23605081651E-01  0.63951483370E-01  0.51100000000E-03 0.  1.
         11    1    4    4    0    0  0.54099588991E-01  0.51022035739E-02 -0.35781479883E-01  0.65064379149E-01  0.51100000000E-03 0. -1.
</event>
<event>
 8    1  0.1191842E+005  0.1043930E+01  0.7957747E-01            NaN
         13   -1    0    0    0    0  0.00000000000E+00  0.00000000000E+00  0.74505805969E-08  0.10566000000E+00  0.10566000000E+00 0. -1.
     999900   -1    0    0    0    0 -0.00000000000E+00 -0.00000000000E+00 -0.74505805969E-08  0.93827000000E+00  0.93827000000E+00 0. -1.
     999902    2    1    2    0    0  0.33791493037E-02 -0.15632102661E-01 -0.18285707506E-01  0.10196370302E+01  0.10193475977E+01 0.  0.
     999903    2    3    3    0    0 -0.46951457494E-02 -0.12433827066E+00  0.36485631687E-01  0.13122151659E+00  0.20145350608E-01 0.  0.
         14    1    1    2    0    0 -0.33791493037E-02  0.15632102661E-01  0.18285707506E-01  0.24292969818E-01  0.00000000000E+00 0. -1.
     999901    1    3    3    0    0  0.80742950532E-02  0.10870616800E+00 -0.54771339193E-01  0.88841551360E+00  0.88000000000E+00 0. -1.
        -11    1    4    4    0    0  0.20072374518E-03 -0.33339760502E-01  0.19161809084E-01  0.38457976659E-01  0.51100000000E-03 0. -1.
         11    1    4    4    0    0 -0.48958694946E-02 -0.90998510158E-01  0.17323822603E-01  0.92763539926E-01  0.51100000000E-03 0.  1.
</event>
<event>
 8    1  0.1191842E+005  0.1043930E+01  0.7957747E-01            NaN
         13   -1    0    0    0    0  0.00000000000E+00  0.00000000000E+00  0.74505805969E-08  0.10566000000E+00  0.10566000000E+00 0.  1.
     999900   -1    0    0    0    0 -0.00000000000E+00 -0.00000000000E+00 -0.74505805969E-08  0.93827000000E+00  0.93827000000E+00 0. -1.
     999902    2    1    2    0    0 -0.10817350627E-01 -0.92990676543E-02  0.18762632414E-01  0.10203604411E+01  0.10200881852E+01 0.  0.
     999903    2    3    3    0    0 -0.11024510051E+00  0.40643105093E-01  0.58005811038E-01  0.13248650567E+00  0.19548807927E-01 0.  0.
         14    1    1    2    0    0  0.10817350627E-01  0.92990676543E-02 -0.18762632414E-01  0.23569558947E-01  0.00000000000E+00 0. -1.
     999901    1    3    3    0    0  0.99427749886E-01 -0.49942172748E-01 -0.39243178624E-01  0.88787393538E+00  0.88000000000E+00 0. -1.
        -11    1    4    4    0    0 -0.81999196814E-01  0.27749450012E-01  0.33107544783E-01  0.92683714302E-01  0.51100000000E-03 0.  1.
         11    1    4    4    0    0 -0.28245903699E-01  0.12893655081E-01  0.24898266255E-01  0.39802791367E-01  0.51100000000E-03 0. -1.
</event>
<event>
 8    1  0.1191842E+005  0.1043930E+01  0.7957747E-01            NaN
         13   -1    0    0    0    0  0.00000000000E+00  0.00000000000E+00  0.74505805969E-08  0.10566000000E+00  0.10566000000E+00 0. -1.
     999900   -1    0    0    0    0 -0.00000000000E+00 -0.00000000000E+00 -0.74505805969E-08  0.93827000000E+00  0.93827000000E+00 0. -1.
     999902    2    1    2    0    0  0.16281031303E-01  0.82644298925E-02 -0.14820327341E-01  0.10204137315E+01  0.10201427197E+01 0.  0.
     999903    2    3    3    0    0  0.24357561381E-01  0.12450088906E+00 -0.33405184895E-01  0.13253899838E+00  0.18892261385E-01 0.  0.
         14    1    1    2    0    0 -0.16281031303E-01 -0.82644298925E-02  0.14820327341E-01  0.23516268501E-01  0.00000000000E+00 0. -1.
     999901    1    3    3    0    0 -0.80765300774E-02 -0.11623645917E+00  0.18584857554E-01  0.88787473312E+00  0.88000000000E+00 0.  1.
        -11    1    4    4    0    0  0.11969282953E-01  0.88892409285E-01 -0.30426372419E-01  0.94716151857E-01  0.51100000000E-03 0.  1.
         11    1    4    4    0    0  0.12388278427E-01  0.35608479777E-01 -0.29788124759E-02  0.37822846524E-01  0.51100000000E-03 0. -1.
</event>
<event>
 8    1  0.1191842E+005  0.1043930E+01  0.7957747E-01            NaN
         13   -1    0    0    0    0  0.00000000000E+00  0.00000000000E+00  0.74505805969E-08  0.10566000000E+00  0.10566000000E+00 0. -1.
     999900   -1    0    0    0    0 -0.00000000000E+00 -0.00000000000E+00 -0.74505805969E-08  0.93827000000E+00  0.93827000000E+00 0. -1.
     999902    2    1    2    0    0  0.16548555454E-01 -0.12947568765E-01  0.68175306157E-03  0.10229071788E+01  0.10226911251E+01 0.  0.
     999903    2    3    3    0    0  0.94873672521E-01 -0.47229406978E-01  0.81552399974E-01  0.13507266159E+00  0.19031535566E-01 0.  0.
         14    1    1    2    0    0 -0.16548555454E-01  0.12947568765E-01 -0.68175306157E-03  0.21022821214E-01  0.00000000000E+00 0.  1.
     999901    1    3    3    0    0 -0.78325117067E-01  0.34281838213E-01 -0.80870646913E-01  0.88783451720E+00  0.88000000000E+00 0. -1.
        -11    1    4    4    0    0  0.34772671984E-01 -0.22288727458E-01  0.42074008542E-01  0.58961083813E-01  0.51100000000E-03 0.  1.
         11    1    4    4    0    0  0.60101000537E-01 -0.24940679520E-01  0.39478391432E-01  0.76111577776E-01  0.51100000000E-03 0. -1.
</event>
<event>
 8    1  0.1191842E+005  0.1043930E+01  0.7957747E-01            NaN
         13   -1    0    0    0    0  0.00000000000E+00  0.00000000000E+00  0.74505805969E-08  0.10566000000E+00  0.10566000000E+00 0.  1.
     999900   -1    0    0    0    0 -0.00000000000E+00 -0.00000000000E+00 -0.74505805969E-08  0.93827000000E+00  0.93827000000E+00 0. -1.
     999902    2    1    2    0    0 -0.35545747535E-02  0.21369356725E-01  0.92901856881E-02  0.10203590017E+01  0.10200867122E+01 0.  0.
     999903    2    3    3    0    0 -0.11733550913E+00  0.45895969739E-01  0.35499132343E-01  0.13230800960E+00  0.19265494179E-01 0.  0.
         14    1    1    2    0    0  0.35545747535E-02 -0.21369356725E-01 -0.92901856881E-02  0.23570998253E-01  0.00000000000E+00 0. -1.
     999901    1    3    3    0    0  0.11378093437E+00 -0.24526613014E-01 -0.26208946655E-01  0.88805099215E+00  0.88000000000E+00 0. -1.
        -11    1    4    4    0    0 -0.47486634386E-01  0.28581894569E-01  0.17542616423E-01  0.58136990414E-01  0.51100000000E-03 0. -1.
         11    1    4    4    0    0 -0.69848874742E-01  0.17314075170E-01  0.17956515920E-01  0.74171019183E-01  0.51100000000E-03 0.  1.
</event>
<event>
 8    1  0.1191842E+005  0.1043930E+01  0.7957747E-01            NaN
         13   -1    0    0    0    0  0.00000000000E+00  0.00000000000E+00  0.74505805969E-08  0.10566000000E+00  0.10566000000E+00 0.  1.
     999900   -1    0    0    0    0 -0.00000000000E+00 -0.00000000000E+00 -0.74505805969E-08  0.93827000000E+00  0.93827000000E+00 0.  1.
     999902    2    1    2    0    0  0.98250218881E-02 -0.44549187262E-02 -0.20951736646E-01  0.10203640792E+01  0.10200919083E+01 0.  0.
     999903    2    3    3    0    0 -0.10009124219E+00  0.20616631684E-01  0.74550823448E-01  0.12804636292E+00  0.19868153292E-01 0.  0.
         14    1    1    2    0    0 -0.98250218881E-02  0.44549187262E-02  0.20951736646E-01  0.23565920827E-01  0.00000000000E+00 0.  1.
     999901    1    3    3    0    0  0.10991626408E+00 -0.25071550411E-01 -0.95502560094E-01  0.89231771625E+00  0.88000000000E+00 0.  1.
        -11    1    4    4    0    0 -0.35780124047E-01  0.96177983159E-02  0.38783545478E-01  0.53639014179E-01  0.51100000000E-03 0.  1.
         11    1    4    4    0    0 -0.64311118146E-01  0.10998833368E-01  0.35767277970E-01  0.74407348743E-01  0.51100000000E-03 0. -1.
</event>
<event>
 8    1  0.1191842E+005  0.1043930E+01  0.7957747E-01            NaN
         13   -1    0    0    0    0  0.00000000000E+00  0.00000000000E+00  0.74505805969E-08  0.10566000000E+00  0.10566000000E+00 0.  1.
     999900   -1    0    0    0    0 -0.00000000000E+00 -0.00000000000E+00 -0.74505805969E-08  0.93827000000E+00  0.93827000000E+00 0. -1.
     999902    2    1    2    0    0 -0.77897324542E-02  0.21538201112E-01 -0.45546851149E-02  0.10205779295E+01  0.10203107326E+01 0.  0.
     999903    2    3    3    0    0  0.12015878091E+00 -0.23663916200E-01  0.36090917497E-01  0.12924964068E+00  0.20119685173E-01 0.  0.
         14    1    1    2    0    0  0.77897324542E-02 -0.21538201112E-01  0.45546851149E-02  0.23352070473E-01  0.00000000000E+00 0. -1.
     999901    1    3    3    0    0 -0.12794851336E+00  0.45202117312E-01 -0.40645602612E-01  0.89132828884E+00  0.88000000000E+00 0. -1.
        -11    1    4    4    0    0  0.84679591455E-01 -0.76587868164E-02  0.27749226402E-01  0.89440320390E-01  0.51100000000E-03 0.  1.
         11    1    4    4    0    0  0.35479189454E-01 -0.16005129383E-01  0.83416910952E-02  0.39809320294E-01  0.51100000000E-03 0. -1.
</event>
<event>
 8    1  0.1191842E+005  0.1043930E+01  0.7957747E-01            NaN
         13   -1    0    0    0    0  0.00000000000E+00  0.00000000000E+00  0.74505805969E-08  0.10566000000E+00  0.10566000000E+00 0. -1.
     999900   -1    0    0    0    0 -0.00000000000E+00 -0.00000000000E+00 -0.74505805969E-08  0.93827000000E+00  0.93827000000E+00 0. -1.
     999902    2    1    2    0    0  0.20728158202E-01 -0.46521689534E-02  0.15907408674E-01  0.10173905036E+01  0.10170442920E+01 0.  0.
     999903    2    3    3    0    0  0.10029468915E+00  0.73939372824E-01  0.31831167775E-01  0.13016954499E+00  0.20120429361E-01 0.  0.
         14    1    1    2    0    0 -0.20728158202E-01  0.46521689534E-02 -0.15907408674E-01  0.26539496399E-01  0.00000000000E+00 0.  1.
     999901    1    3    3    0    0 -0.79566530944E-01 -0.78591541778E-01 -0.15923759101E-01  0.88722095861E+00  0.88000000000E+00 0. -1.
        -11    1    4    4    0    0  0.50113197745E-01  0.26598418587E-01  0.86692173914E-02  0.57395338755E-01  0.51100000000E-03 0. -1.
         11    1    4    4    0    0  0.50181491401E-01  0.47340954237E-01  0.23161950383E-01  0.72774206240E-01  0.51100000000E-03 0.  1.
</event>
<event>
 8    1  0.1191842E+005  0.1043930E+01  0.7957747E-01            NaN
         13   -1    0    0    0    0  0.00000000000E+00  0.00000000000E+00  0.74505805969E-08  0.10566000000E+00  0.10566000000E+00 0. -1.
     999900   -1    0    0    0    0 -0.00000000000E+00 -0.00000000000E+00 -0.74505805969E-08  0.93827000000E+00  0.93827000000E+00 0. -1.
     999902    2    1    2    0    0  0.94607842213E-02 -0.11481520454E-01 -0.19029075143E-01  0.10197755501E+01  0.10194894483E+01 0.  0.
     999903    2    3    3    0    0 -0.71610262397E-01 -0.67806179685E-01 -0.85310152818E-01  0.13177883663E+00  0.19029764235E-01 0.  0.
         14    1    1    2    0    0 -0.94607842213E-02  0.11481520454E-01  0.19029075143E-01  0.24154449917E-01  0.00000000000E+00 0. -1.
     999901    1    3    3    0    0  0.81071046618E-01  0.56324659231E-01  0.66281077675E-01  0.88799671345E+00  0.88000000000E+00 0. -1.
        -11    1    4    4    0    0 -0.12975491813E-01 -0.61165198777E-02 -0.19390062059E-01  0.24124900639E-01  0.51100000000E-03 0.  1.
         11    1    4    4    0    0 -0.58634770583E-01 -0.61689659807E-01 -0.65920090759E-01  0.10765393599E+00  0.51100000000E-03 0. -1.
</event>
<event>
 8    1  0.1191842E+005  0.1043930E+01  0.7957747E-01            NaN
         13   -1    0    0    0    0  0.00000000000E+00  0.00000000000E+00  0.74505805969E-08  0.10566000000E+00  0.10566000000E+00 0.  1.
     999900   -1    0    0    0    0 -0.00000000000E+00 -0.00000000000E+00 -0.74505805969E-08  0.93827000000E+00  0.93827000000E+00 0.  1.
     999902    2    1    2    0    0  0.86393521454E-02  0.65990235009E-02  0.21769464846E-01  0.10195969953E+01  0.10193065965E+01 0.  0.
     999903    2    3    3    0    0 -0.42259007004E-01  0.11902152937E+00  0.27930239303E-01  0.13096466532E+00  0.20486511872E-01 0.  0.
         14    1    1    2    0    0 -0.86393521454E-02 -0.65990235009E-02 -0.21769464846E-01  0.24333004671E-01  0.00000000000E+00 0. -1.
     999901    1    3    3    0    0  0.50898359149E-01 -0.11242250587E+00 -0.61607744575E-02  0.88863233001E+00  0.88000000000E+00 0.  1.
        -11    1    4    4    0    0 -0.24242040125E-02  0.14697168710E-01  0.97812701359E-02  0.17827447929E-01  0.51100000000E-03 0.  1.
         11    1    4    4    0    0 -0.39834802991E-01  0.10432436066E+00  0.18148969167E-01  0.11313721739E+00  0.51100000000E-03 0. -1.
</event>
<event>
 8    1  0.1191842E+005  0.1043930E+01  0.7957747E-01            NaN
         13   -1    0    0    0    0  0.00000000000E+00  0.00000000000E+00  0.74505805969E-08  0.10566000000E+00  0.10566000000E+00 0.  1.
     999900   -1    0    0    0    0 -0.00000000000E+00 -0.00000000000E+00 -0.74505805969E-08  0.93827000000E+00  0.93827000000E+00 0. -1.
     999902    2    1    2    0    0 -0.29239755791E-02  0.22172757705E-01  0.76711792550E-02  0.10202862311E+01  0.10200122379E+01 0.  0.
     999903    2    3    3    0    0  0.66838765348E-01 -0.26780801351E-01  0.10698712273E+00  0.13060822889E+00  0.20679292727E-01 0.  0.
         14    1    1    2    0    0  0.29239755791E-02 -0.22172757705E-01 -0.76711792550E-02  0.23643768917E-01  0.00000000000E+00 0. -1.
     999901    1    3    3    0    0 -0.69762740927E-01  0.48953559056E-01 -0.99315943478E-01  0.88967800220E+00  0.88000000000E+00 0. -1.
        -11    1    4    4    0    0  0.29173403351E-01 -0.22490783553E-01  0.57031223989E-01  0.67895098782E-01  0.51100000000E-03 0. -1.
         11    1    4    4    0    0  0.37665361997E-01 -0.42900177973E-02  0.49955898745E-01  0.62713130104E-01  0.51100000000E-03 0.  1.
</event>
<event>
 8    1  0.1191842E+005  0.1043930E+01  0.7957747E-01            NaN
         13   -1    0    0    0    0  0.00000000000E+00  0.00000000000E+00  0.74505805969E-08  0.10566000000E+00  0.10566000000E+00 0.  1.
     999900   -1    0    0    0    0 -0.00000000000E+00 -0.00000000000E+00 -0.74505805969E-08  0.93827000000E+00  0.93827000000E+00 0.  1.
     999902    2    1    2    0    0 -0.11757958908E-01 -0.43557517186E-02  0.19455169166E-01  0.10207842492E+01  0.10205218066E+01 0.  0.
     999903    2    3    3    0    0 -0.71239811351E-01 -0.38152577940E-01 -0.10007661911E+00  0.13007208213E+00  0.19305101221E-01 0.  0.
         14    1    1    2    0    0  0.11757958908E-01  0.43557517186E-02 -0.19455169166E-01  0.23145750755E-01  0.00000000000E+00 0.  1.
     999901    1    3    3    0    0  0.59481852443E-01  0.33796826222E-01  0.11953178828E+00  0.89071216711E+00  0.88000000000E+00 0. -1.
        -11    1    4    4    0    0 -0.51473154019E-01 -0.19002979361E-01 -0.58475548151E-01  0.80188837514E-01  0.51100000000E-03 0.  1.
         11    1    4    4    0    0 -0.19766657332E-01 -0.19149598579E-01 -0.41601070959E-01  0.49883244619E-01  0.51100000000E-03 0. -1.
</event>
<event>
 8    1  0.1191842E+005  0.1043930E+01  0.7957747E-01            NaN
         13   -1    0    0    0    0  0.00000000000E+00  0.00000000000E+00  0.74505805969E-08  0.10566000000E+00  0.10566000000E+00 0. -1.
     999900   -1    0    0    0    0 -0.00000000000E+00 -0.00000000000E+00 -0.74505805969E-08  0.93827000000E+00  0.93827000000E+00 0.  1.
     999902    2    1    2    0    0  0.17907523066E-01 -0.10071034471E-02 -0.16499985906E-01  0.10195590506E+01  0.10192677344E+01 0.  0.
     999903    2    3    3    0    0  0.61622616138E-01  0.40928894838E-01 -0.10827215763E+00  0.13271533899E+00  0.20444555142E-01 0.  0.
         14    1    1    2    0    0 -0.17907523066E-01  0.10071034471E-02  0.16499985906E-01  0.24370949399E-01  0.00000000000E+00 0. -1.
     999901    1    3    3    0    0 -0.43715093071E-01 -0.41935998285E-01  0.91772171720E-01  0.88684371161E+00  0.88000000000E+00 0. -1.
        -11    1    4    4    0    0  0.64082369998E-02  0.11004811232E-01 -0.10516233354E-01  0.16523427509E-01  0.51100000000E-03 0.  1.
         11    1    4    4    0    0  0.55214379138E-01  0.29924083606E-01 -0.97755924272E-01  0.11619191148E+00  0.51100000000E-03 0. -1.
</event>
<event>
 8    1  0.1191842E+005  0.1043930E+01  0.7957747E-01            NaN
         13   -1    0    0    0    0  0.00000000000E+00  0.00000000000E+00  0.74505805969E-08  0.10566000000E+00  0.10566000000E+00 0.  1.
     999900   -1    0    0    0    0 -0.00000000000E+00 -0.00000000000E+00 -0.74505805969E-08  0.93827000000E+00  0.93827000000E+00 0.  1.
     999902    2    1    2    0    0  0.14877913231E-01  0.23751354985E-01  0.70390844187E-02  0.10150331511E+01  0.10146217374E+01 0.  0.
     999903    2    3    3    0    0  0.89598600958E-01 -0.82831157351E-01  0.20334882015E-01  0.12535917075E+00  0.20310202937E-01 0.  0.
         14    1    1    2    0    0 -0.14877913231E-01 -0.23751354985E-01 -0.70390844187E-02  0.28896848880E-01  0.00000000000E+00 0.  1.
     999901    1    3    3    0    0 -0.74720687727E-01  0.10658251234E+00 -0.13295797596E-01  0.88967398037E+00  0.88000000000E+00 0. -1.
        -11    1    4    4    0    0  0.57041533657E-01 -0.42976648642E-01  0.47162465663E-02  0.71576762941E-01  0.51100000000E-03 0. -1.
         11    1    4    4    0    0  0.32557067301E-01 -0.39854508709E-01  0.15618635448E-01  0.53782407811E-01  0.51100000000E-03 0.  1.
</event>
<event>
 8    1  0.1191842E+005  0.1043930E+01  0.7957747E-01            NaN
         13   -1    0    0    0    0  0.00000000000E+00  0.00000000000E+00  0.74505805969E-08  0.10566000000E+00  0.10566000000E+00 0. -1.
     999900   -1    0    0    0    0 -0.00000000000E+00 -0.00000000000E+00 -0.74505805969E-08  0.93827000000E+00  0.93827000000E+00 0.  1.
     999902    2    1    2    0    0 -0.13044050150E-02 -0.18678586982E-01  0.16363854467E-01  0.10190630175E+01  0.10187595727E+01 0.  0.
     999903    2    3    3    0    0 -0.11042076115E+00 -0.34927515800E-01 -0.54192878446E-01  0.12937281335E+00  0.19692153382E-01 0.  0.
         14    1    1    2    0    0  0.13044050150E-02  0.18678586982E-01 -0.16363854467E-01  0.24866982469E-01  0.00000000000E+00 0.  1.
     999901    1    3    3    0    0  0.10911635614E+00  0.16248928818E-01  0.70556732913E-01  0.88969020419E+00  0.88000000000E+00 0.  1.
        -11    1    4    4    0    0 -0.85831661841E-01 -0.19104452174E-01 -0.36616901178E-01  0.95252888881E-01  0.51100000000E-03 0. -1.
         11    1    4    4    0    0 -0.24589099313E-01 -0.15823063626E-01 -0.17575977269E-01  0.34119924465E-01  0.51100000000E-03 0.  1.
</event>
<event>
 8    1  0.1191842E+005  0.1043930E+01  0.7957747E-01            NaN
         13   -1    0    0    0    0  0.00000000000E+00  0.00000000000E+00  0.74505805969E-08  0.10566000000E+00  0.10566000000E+00 0. -1.
     999900   -1    0    0    0    0 -0.00000000000E+00 -0.00000000000E+00 -0.74505805969E-08  0.93827000000E+00  0.93827000000E+00 0.  1.
     999902    2    1    2    0    0  0.98298736269E-02 -0.56973996806E-02 -0.19610502615E-01  0.10212659626E+01  0.10210144503E+01 0.  0.
     999903    2    3    3    0    0  0.30891897673E-01  0.75158514491E-01 -0.10386670841E+00  0.13330177642E+00  0.19441163546E-01 0.  0.
         14    1    1    2    0    0 -0.98298736269E-02  0.56973996806E-02  0.19610502615E-01  0.22664037404E-01  0.00000000000E+00 0. -1.
     999901    1    3    3    0    0 -0.21062024046E-01 -0.80855914171E-01  0.84256205791E-01  0.88796418617E+00  0.88000000000E+00 0. -1.
        -11    1    4    4    0    0  0.28160718533E-01  0.65807132194E-01 -0.99599955524E-01  0.12265405406E+00  0.51100000000E-03 0.  1.
         11    1    4    4    0    0  0.27311791398E-02  0.93513822970E-02 -0.42667528816E-02  0.10647722363E-01  0.51100000000E-03 0. -1.
</event>
<event>
 8    1  0.1191842E+005  0.1043930E+01  0.7957747E-01            NaN
         13   -1    0    0    0    0  0.00000000000E+00  0.00000000000E+00  0.74505805969E-08  0.10566000000E+00  0.10566000000E+00 0. -1.
     999900   -1    0    0    0    0 -0.00000000000E+00 -0.00000000000E+00 -0.74505805969E-08  0.93827000000E+00  0.93827000000E+00 0.  1.
     999902    2    1    2    0    0 -0.46601160475E-02 -0.66223905629E-02  0.17115474511E-01  0.10249955814E+01  0.10248206818E+01 0.  0.
     999903    2    3    3    0    0 -0.93841641380E-01 -0.58177177580E-01  0.78085825990E-01  0.13689163241E+00  0.21238765406E-01 0.  0.
         14    1    1    2    0    0  0.46601160475E-02  0.66223905629E-02 -0.17115474511E-01  0.18934418556E-01  0.00000000000E+00 0.  1.
     999901    1    3    3    0    0  0.89181525332E-01  0.51554787017E-01 -0.60970351479E-01  0.88810394903E+00  0.88000000000E+00 0.  1.
        -11    1    4    4    0    0 -0.69900083842E-01 -0.37568497594E-01  0.45374161644E-01  0.91413835925E-01  0.51100000000E-03 0.  1.
         11    1    4    4    0    0 -0.23941557538E-01 -0.20608679986E-01  0.32711664346E-01  0.45477796487E-01  0.51100000000E-03 0. -1.
</event>
<event>
 8    1  0.1191842E+005  0.1043930E+01  0.7957747E-01            NaN
         13   -1    0    0    0    0  0.00000000000E+00  0.00000000000E+00  0.74505805969E-08  0.10566000000E+00  0.10566000000E+00 0.  1.
     999900   -1    0    0    0    0 -0.00000000000E+00 -0.00000000000E+00 -0.74505805969E-08  0.93827000000E+00  0.93827000000E+00 0. -1.
     999902    2    1    2    0    0 -0.19662085225E-01 -0.13458022203E-01  0.10193622684E-01  0.10180142538E+01  0.10176843298E+01 0.  0.
     999903    2    3    3    0    0  0.12128131102E+00 -0.57719053821E-02 -0.27014571329E-01  0.12598927264E+00  0.20025944743E-01 0.  0.
         14    1    1    2    0    0  0.19662085225E-01  0.13458022203E-01 -0.10193622684E-01  0.25915746187E-01  0.00000000000E+00 0. -1.
     999901    1    3    3    0    0 -0.14094339624E+00 -0.76861168206E-02  0.37208194014E-01  0.89202498117E+00  0.88000000000E+00 0.  1.
        -11    1    4    4    0    0  0.77165216940E-01  0.39287186174E-02 -0.23105282043E-01  0.80647509041E-01  0.51100000000E-03 0. -1.
         11    1    4    4    0    0  0.44116094076E-01 -0.97006239995E-02 -0.39092892862E-02  0.45341763598E-01  0.51100000000E-03 0.  1.
</event>
<event>
 8    1  0.1191842E+005  0.1043930E+01  0.7957747E-01            NaN
         13   -1    0    0    0    0  0.00000000000E+00  0.00000000000E+00  0.74505805969E-08  0.10566000000E+00  0.10566000000E+00 0.  1.
     999900   -1    0    0    0    0 -0.00000000000E+00 -0.00000000000E+00 -0.74505805969E-08  0.93827000000E+00  0.93827000000E+00 0. -1.
     999902    2    1    2    0    0 -0.84150570592E-02 -0.14093054945E-01  0.16617710739E-01  0.10205724382E+01  0.10203051141E+01 0.  0.
     999903    2    3    3    0    0  0.62271543232E-04 -0.11049438512E-01 -0.12676662229E+00  0.12892217287E+00  0.20713670876E-01 0.  0.
         14    1    1    2    0    0  0.84150570592E-02  0.14093054945E-01 -0.16617710739E-01  0.23357561799E-01  0.00000000000E+00 0. -1.
     999901    1    3    3    0    0 -0.84773286024E-02 -0.30436164333E-02  0.14338433303E+00  0.89165026533E+00  0.88000000000E+00 0.  1.
        -11    1    4    4    0    0  0.70607909525E-02 -0.13376183723E-01 -0.10057202360E+00  0.10170432691E+00  0.51100000000E-03 0. -1.
         11    1    4    4    0    0 -0.69985194092E-02  0.23267452107E-02 -0.26194598693E-01  0.27217845963E-01  0.51100000000E-03 0.  1.
</event>
<event>
 8    1  0.1191842E+005  0.1043930E+01  0.7957747E-01            NaN
         13   -1    0    0    0    0  0.00000000000E+00  0.00000000000E+00  0.74505805969E-08  0.10566000000E+00  0.10566000000E+00 0. -1.
     999900   -1    0    0    0    0 -0.00000000000E+00 -0.00000000000E+00 -0.74505805969E-08  0.93827000000E+00  0.93827000000E+00 0. -1.
     999902    2    1    2    0    0  0.19188724288E-01  0.35471988324E-03  0.14461858627E-01  0.10198992214E+01  0.10196160765E+01 0.  0.
     999903    2    3    3    0    0 -0.42978492800E-01 -0.11962339651E+00  0.15771704928E-01  0.12958398115E+00  0.19655881030E-01 0.  0.
         14    1    1    2    0    0 -0.19188724288E-01 -0.35471988324E-03 -0.14461858627E-01  0.24030778617E-01  0.00000000000E+00 0.  1.
     999901    1    3    3    0    0  0.62167217088E-01  0.11997811639E+00 -0.13098463012E-02  0.89031524023E+00  0.88000000000E+00 0.  1.
        -11    1    4    4    0    0 -0.20716073286E-01 -0.31420102977E-01  0.38286800006E-02  0.37832505535E-01  0.51100000000E-03 0.  1.
         11    1    4    4    0    0 -0.22262419514E-01 -0.88203293530E-01  0.11943024927E-01  0.91751475616E-01  0.51100000000E-03 0. -1.
</event>
<event>
 8    1  0.1191842E+005  0.1043930E+01  0.7957747E-01            NaN
         13   -1    0    0    0    0  0.00000000000E+00  0.00000000000E+00  0.74505805969E-08  0.10566000000E+00  0.10566000000E+00 0.  1.
     999900   -1    0    0    0    0 -0.00000000000E+00 -0.00000000000E+00 -0.74505805969E-08  0.93827000000E+00  0.93827000000E+00 0.  1.
     999902    2    1    2    0    0  0.88591151163E-02 -0.12654829083E-01  0.17619811232E-01  0.10204974080E+01  0.10202283437E+01 0.  0.
     999903    2    3    3    0    0  0.74885359780E-01  0.88627673071E-01 -0.52806187482E-01  0.12944329544E+00  0.22458667683E-01 0.  0.
         14    1    1    2    0    0 -0.88591151163E-02  0.12654829083E-01 -0.17619811232E-01  0.23432591996E-01  0.00000000000E+00 0.  1.
     999901    1    3    3    0    0 -0.66026244663E-01 -0.10128250215E+00  0.70425998714E-01  0.89105411257E+00  0.88000000000E+00 0. -1.
        -11    1    4    4    0    0  0.51256809319E-01  0.71249726862E-01 -0.46907985687E-01  0.99520873798E-01  0.51100000000E-03 0. -1.
         11    1    4    4    0    0  0.23628550461E-01  0.17377946209E-01 -0.58982017945E-02  0.29922421639E-01  0.51100000000E-03 0.  1.
</event>
<event>
 8    1  0.1191842E+005  0.1043930E+01  0.7957747E-01            NaN
         13   -1    0    0    0    0  0.00000000000E+00  0.00000000000E+00  0.74505805969E-08  0.10566000000E+00  0.10566000000E+00 0. -1.
     999900   -1    0    0    0    0 -0.00000000000E+00 -0.00000000000E+00 -0.74505805969E-08  0.93827000000E+00  0.93827000000E+00 0. -1.
     999902    2    1    2    0    0  0.34195589831E-02  0.18272294057E-01 -0.16795802753E-01  0.10188766748E+01  0.10185686081E+01 0.  0.
     999903    2    3    3    0    0 -0.77813123780E-01 -0.98941023522E-01 -0.34636562063E-02  0.12729636058E+00  0.18658996056E-01 0.  0.
         14    1    1    2    0    0 -0.34195589831E-02 -0.18272294057E-01  0.16795802753E-01  0.25053325206E-01  0.00000000000E+00 0.  1.
     999901    1    3    3    0    0  0.81232682763E-01  0.11721331758E+00 -0.13332146547E-01  0.89158031422E+00  0.88000000000E+00 0.  1.
        -11    1    4    4    0    0 -0.48381641143E-01 -0.50411979375E-01  0.43141183528E-02  0.70007311064E-01  0.51100000000E-03 0. -1.
         11    1    4    4    0    0 -0.29431482637E-01 -0.48529044147E-01 -0.77777745591E-02  0.57289049514E-01  0.51100000000E-03 0.  1.
</event>
<event>
 8    1  0.1191842E+005  0.1043930E+01  0.7957747E-01            NaN
         13   -1    0    0    0    0  0.00000000000E+00  0.00000000000E+00  0.74505805969E-08  0.10566000000E+00  0.10566000000E+00 0. -1.
     999900   -1    0    0    0    0 -0.00000000000E+00 -0.00000000000E+00 -0.74505805969E-08  0.93827000000E+00  0.93827000000E+00 0. -1.
     999902    2    1    2    0    0  0.20804951572E-01 -0.68823159218E-02  0.11367976549E-01  0.10192430971E+01  0.10189440848E+01 0.  0.
     999903    2    3    3    0    0 -0.12243460737E+00 -0.90374023316E-02 -0.26166807532E-01  0.12686925414E+00  0.18417331712E-01 0.  0.
         14    1    1    2    0    0 -0.20804951572E-01  0.68823159218E-02 -0.11367976549E-01  0.24686902867E-01  0.00000000000E+00 0. -1.
     999901    1    3    3    0    0  0.14323955894E+00  0.21550864098E-02  0.37534784081E-01  0.89237384299E+00  0.88000000000E+00 0. -1.
        -11    1    4    4    0    0 -0.71067132436E-01 -0.12934991336E-01 -0.10323468795E-01  0.72970449104E-01  0.51100000000E-03 0.  1.
         11    1    4    4    0    0 -0.51367474931E-01  0.38975890042E-02 -0.15843338737E-01  0.53898805035E-01  0.51100000000E-03 0. -1.
</event>
<event>
 8    1  0.1191842E+005  0.1043930E+01  0.7957747E-01            NaN
         13   -1    0    0    0    0  0.00000000000E+00  0.00000000000E+00  0.74505805969E-08  0.10566000000E+00  0.10566000000E+00 0. -1.
     999900   -1    0    0    0    0 -0.00000000000E+00 -0.00000000000E+00 -0.74505805969E-08  0.93827000000E+00  0.93827000000E+00 0. -1.
     999902    2    1    2    0    0 -0.33315349667E-02 -0.18307060735E-01  0.14123576309E-01  0.10205692850E+01  0.10203018879E+01 0.  0.
     999903    2    3    3    0    0 -0.65685143593E-01 -0.26691688985E-01 -0.10715685166E+00  0.13002607059E+00  0.19929973086E-01 0.  0.
         14    1    1    2    0    0  0.33315349667E-02  0.18307060735E-01 -0.14123576309E-01  0.23360715009E-01  0.00000000000E+00 0.  1.
     999901    1    3    3    0    0  0.62353608626E-01  0.83846282507E-02  0.12128042797E+00  0.89054321440E+00  0.88000000000E+00 0.  1.
        -11    1    4    4    0    0 -0.40980446647E-01 -0.12631346739E-01 -0.47843942638E-01  0.64251473882E-01  0.51100000000E-03 0. -1.
         11    1    4    4    0    0 -0.24704696946E-01 -0.14060342247E-01 -0.59312909020E-01  0.65774596713E-01  0.51100000000E-03 0.  1.
</event>
<event>
 8    1  0.1191842E+005  0.1043930E+01  0.7957747E-01            NaN
         13   -1    0    0    0    0  0.00000000000E+00  0.00000000000E+00  0.74505805969E-08  0.10566000000E+00  0.10566000000E+00 0.  1.
     999900   -1    0    0    0    0 -0.00000000000E+00 -0.00000000000E+00 -0.74505805969E-08  0.93827000000E+00  0.93827000000E+00 0.  1.
     999902    2    1    2    0    0  0.13673362692E-01  0.73506391793E-02 -0.18776805118E-01  0.10195668895E+01  0.10192757630E+01 0.  0.
     999903    2    3    3    0    0  0.96861703641E-01 -0.85178798091E-01 -0.84396666383E-02  0.13075371830E+00  0.19689834944E-01 0.  0.
         14    1    1    2    0    0 -0.13673362692E-01 -0.73506391793E-02  0.18776805118E-01  0.24363110518E-01  0.00000000000E+00 0.  1.
     999901    1    3    3    0    0 -0.83188340949E-01  0.92529437271E-01 -0.10337138480E-01  0.88881317118E+00  0.88000000000E+00 0.  1.
        -11    1    4    4    0    0  0.37697876492E-01 -0.44758294329E-01  0.64998051176E-03  0.58524511095E-01  0.51100000000E-03 0.  1.
         11    1    4    4    0    0  0.59163827149E-01 -0.40420503762E-01 -0.90896471501E-02  0.72229207206E-01  0.51100000000E-03 0. -1.
</event>
<event>
 8    1  0.1191842E+005  0.1043930E+01  0.7957747E-01            NaN
         13   -1    0    0    0    0  0.00000000000E+00  0.00000000000E+00  0.74505805969E-08  0.10566000000E+00  0.10566000000E+00 0.  1.
     999900   -1    0    0    0    0 -0.00000000000E+00 -0.00000000000E+00 -0.74505805969E-08  0.93827000000E+00  0.93827000000E+00 0. -1.
     999902    2    1    2    0    0 -0.88964967199E-03 -0.21019323015E-01 -0.10673272353E-01  0.10203392781E+01  0.10200665274E+01 0.  0.
     999903    2    3    3    0    0  0.35652617203E-01  0.64861275480E-01 -0.10602719481E+00  0.13028131090E+00  0.15917278678E-01 0.  0.
         14    1    1    2    0    0  0.88964967199E-03  0.21019323015E-01  0.10673272353E-01  0.23590721889E-01  0.00000000000E+00 0.  1.
     999901    1    3    3    0    0 -0.36542266875E-01 -0.85880598494E-01  0.95353922458E-01  0.89005796721E+00  0.88000000000E+00 0. -1.
        -11    1    4    4    0    0  0.29122486853E-01  0.55347243073E-01 -0.97844004042E-01  0.11612556482E+00  0.51100000000E-03 0.  1.
         11    1    4    4    0    0  0.65301303498E-02  0.95140324070E-02 -0.81831907681E-02  0.14155746083E-01  0.51100000000E-03 0. -1.
</event>
<event>
 8    1  0.1191842E+005  0.1043930E+01  0.7957747E-01            NaN
         13   -1    0    0    0    0  0.00000000000E+00  0.00000000000E+00  0.74505805969E-08  0.10566000000E+00  0.10566000000E+00 0.  1.
     999900   -1    0    0    0    0 -0.00000000000E+00 -0.00000000000E+00 -0.74505805969E-08  0.93827000000E+00  0.93827000000E+00 0. -1.
     999902    2    1    2    0    0  0.19051187141E-01 -0.10863909444E-01  0.32454900565E-02  0.10217600775E+01  0.10215195301E+01 0.  0.
     999903    2    3    3    0    0  0.12740276270E+00  0.22090723152E-01 -0.28314637215E-01  0.13394133843E+00  0.20471918978E-01 0.  0.
         14    1    1    2    0    0 -0.19051187141E-01  0.10863909444E-01 -0.32454900565E-02  0.22169922544E-01  0.00000000000E+00 0. -1.
     999901    1    3    3    0    0 -0.10835157556E+00 -0.32954632596E-01  0.31560127271E-01  0.88781873903E+00  0.88000000000E+00 0. -1.
        -11    1    4    4    0    0  0.10264151870E+00  0.19832884393E-01 -0.30705666302E-01  0.10895743998E+00  0.51100000000E-03 0. -1.
         11    1    4    4    0    0  0.24761244003E-01  0.22578387590E-02  0.23910290871E-02  0.24983898446E-01  0.51100000000E-03 0.  1.
</event>
<event>
 8    1  0.1191842E+005  0.1043930E+01  0.7957747E-01            NaN
         13   -1    0    0    0    0  0.00000000000E+00  0.00000000000E+00  0.74505805969E-08  0.10566000000E+00  0.10566000000E+00 0.  1.
     999900   -1    0    0    0    0 -0.00000000000E+00 -0.00000000000E+00 -0.74505805969E-08  0.93827000000E+00  0.93827000000E+00 0.  1.
     999902    2    1    2    0    0 -0.14924097229E-01  0.19622147144E-01  0.19164383948E-02  0.10192028879E+01  0.10189028887E+01 0.  0.
     999903    2    3    3    0    0 -0.82940819596E-01  0.94690896015E-01  0.35397067296E-01  0.13275912539E+00  0.22945318874E-01 0.  0.
         14    1    1    2    0    0  0.14924097229E-01 -0.19622147144E-01 -0.19164383948E-02  0.24727112099E-01  0.00000000000E+00 0. -1.
     999901    1    3    3    0    0  0.68016722368E-01 -0.75068748871E-01 -0.33480628901E-01  0.88644376251E+00  0.88000000000E+00 0.  1.
        -11    1    4    4    0    0 -0.55498055540E-01  0.46114480555E-01  0.20086741398E-01  0.74902054621E-01  0.51100000000E-03 0. -1.
         11    1    4    4    0    0 -0.27442764057E-01  0.48576415461E-01  0.15310325898E-01  0.57857070771E-01  0.51100000000E-03 0.  1.
</event>
<event>
 8    1  0.1191842E+005  0.1043930E+01  0.7957747E-01            NaN
         13   -1    0    0    0    0  0.00000000000E+00  0.00000000000E+00  0.74505805969E-08  0.10566000000E+00  0.10566000000E+00 0.  1.
     999900   -1    0    0    0    0 -0.00000000000E+00 -0.00000000000E+00 -0.74505805969E-08  0.93827000000E+00  0.93827000000E+00 0. -1.
     999902    2    1    2    0    0 -0.30211493903E-03 -0.45361934804E-02 -0.25474240321E-01  0.10180532683E+01  0.10177243496E+01 0.  0.
     999903    2    3    3    0    0 -0.61683405117E-01 -0.10237864517E+00 -0.47701758669E-01  0.13022734462E+00  0.19936751342E-01 0.  0.
         14    1    1    2    0    0  0.30211493903E-03  0.45361934804E-02  0.25474240321E-01  0.25876731723E-01  0.00000000000E+00 0.  1.
     999901    1    3    3    0    0  0.61381290178E-01  0.97842451690E-01  0.22227518347E-01  0.88782592365E+00  0.88000000000E+00 0. -1.
        -11    1    4    4    0    0  0.33331409712E-03 -0.59814319163E-02  0.15316962961E-03  0.60144166793E-02  0.51100000000E-03 0. -1.
         11    1    4    4    0    0 -0.62016719214E-01 -0.96397213254E-01 -0.47854928298E-01  0.12421292795E+00  0.51100000000E-03 0.  1.
</event>
<event>
 8    1  0.1191842E+005  0.1043930E+01  0.7957747E-01            NaN
         13   -1    0    0    0    0  0.00000000000E+00  0.00000000000E+00  0.74505805969E-08  0.10566000000E+00  0.10566000000E+00 0. -1.
     999900   -1    0    0    0    0 -0.00000000000E+00 -0.00000000000E+00 -0.74505805969E-08  0.93827000000E+00  0.93827000000E+00 0.  1.
     999902    2    1    2    0    0  0.78016031633E-02  0.12993100414E-01 -0.18077875862E-01  0.10203398481E+01  0.10200671107E+01 0.  0.
     999903    2    3    3    0    0 -0.12371404724E+00  0.30705800957E-01 -0.18975495048E-01  0.13038989908E+00  0.19835439820E-01 0.  0.
         14    1    1    2    0    0 -0.78016031633E-02 -0.12993100414E-01  0.18077875862E-01  0.23590151885E-01  0.00000000000E+00 0. -1.
     999901    1    3    3    0    0  0.13151565041E+00 -0.17712700543E-01  0.89761918583E-03  0.88994994903E+00  0.88000000000E+00 0. -1.
        -11    1    4    4    0    0 -0.47501690315E-01  0.52664263435E-02  0.15696153350E-03  0.47795727708E-01  0.51100000000E-03 0.  1.
         11    1    4    4    0    0 -0.76212356928E-01  0.25439374613E-01 -0.19132456581E-01  0.82594171375E-01  0.51100000000E-03 0. -1.
</event>
<event>
 8    1  0.1191842E+005  0.1043930E+01  0.7957747E-01            NaN
         13   -1    0    0    0    0  0.00000000000E+00  0.00000000000E+00  0.74505805969E-08  0.10566000000E+00  0.10566000000E+00 0.  1.
     999900   -1    0    0    0    0 -0.00000000000E+00 -0.00000000000E+00 -0.74505805969E-08  0.93827000000E+00  0.93827000000E+00 0.  1.
     999902    2    1    2    0    0  0.11178326232E-01  0.11682019615E-01  0.16822798275E-01  0.10205969526E+01  0.10203301958E+01 0.  0.
     999903    2    3    3    0    0 -0.99530817498E-01 -0.44091917071E-01 -0.64653408662E-01  0.12818134380E+00  0.19997821468E-01 0.  0.
         14    1    1    2    0    0 -0.11178326232E-01 -0.11682019615E-01 -0.16822798275E-01  0.23333047410E-01  0.00000000000E+00 0. -1.
     999901    1    3    3    0    0  0.11070914373E+00  0.55773936687E-01  0.81476206937E-01  0.89241560879E+00  0.88000000000E+00 0.  1.
        -11    1    4    4    0    0 -0.49765101751E-01 -0.20597803352E-01 -0.43451512643E-01  0.69203539846E-01  0.51100000000E-03 0.  1.
         11    1    4    4    0    0 -0.49765715747E-01 -0.23494113719E-01 -0.21201896019E-01  0.58977803952E-01  0.51100000000E-03 0. -1.
</event>
<event>
 8    1  0.1191842E+005  0.1043930E+01  0.7957747E-01            NaN
         13   -1    0    0    0    0  0.00000000000E+00  0.00000000000E+00  0.74505805969E-08  0.10566000000E+00  0.10566000000E+00 0. -1.
     999900   -1    0    0    0    0 -0.00000000000E+00 -0.00000000000E+00 -0.74505805969E-08  0.93827000000E+00  0.93827000000E+00 0. -1.
     999902    2    1    2    0    0  0.11121488237E-01 -0.82763711393E-02 -0.18371052341E-01  0.10209151921E+01  0.10206557441E+01 0.  0.
     999903    2    3    3    0    0  0.88726984421E-02 -0.87174694301E-01  0.93995459325E-01  0.13026585850E+00  0.21351707480E-01 0.  0.
         14    1    1    2    0    0 -0.11121488237E-01  0.82763711393E-02  0.18371052341E-01  0.23014807928E-01  0.00000000000E+00 0. -1.
     999901    1    3    3    0    0  0.22487897947E-02  0.78898323161E-01 -0.11236651167E+00  0.89064933357E+00  0.88000000000E+00 0.  1.
        -11    1    4    4    0    0  0.12175249574E-01 -0.23938406208E-01  0.27525229658E-01  0.38460153181E-01  0.51100000000E-03 0. -1.
         11    1    4    4    0    0 -0.33025511319E-02 -0.63236288093E-01  0.66470229666E-01  0.91805705316E-01  0.51100000000E-03 0.  1.
</event>
<event>
 8    1  0.1191842E+005  0.1043930E+01  0.7957747E-01            NaN
         13   -1    0    0    0    0  0.00000000000E+00  0.00000000000E+00  0.74505805969E-08  0.10566000000E+00  0.10566000000E+00 0.  1.
     999900   -1    0    0    0    0 -0.00000000000E+00 -0.00000000000E+00 -0.74505805969E-08  0.93827000000E+00  0.93827000000E+00 0.  1.
     999902    2    1    2    0    0  0.13999791376E-01 -0.88203475545E-02 -0.16691249264E-01  0.10204270110E+01  0.10201563088E+01 0.  0.
     999903    2    3    3    0    0  0.12676786922E+00 -0.79543125543E-02 -0.33974216527E-01  0.13306232253E+00  0.20444327714E-01 0.  0.
         14    1    1    2    0    0 -0.13999791376E-01  0.88203475545E-02  0.16691249264E-01  0.23502988992E-01  0.00000000000E+00 0.  1.
     999901    1    3    3    0    0 -0.11276807784E+00 -0.86603500023E-03  0.17282967263E-01  0.88736468848E+00  0.88000000000E+00 0.  1.
        -11    1    4    4    0    0  0.11771037990E+00 -0.82799493105E-02 -0.36711115305E-01  0.12358097833E+00  0.51100000000E-03 0.  1.
         11    1    4    4    0    0  0.90574893157E-02  0.32563675620E-03  0.27368987782E-02  0.94813442044E-02  0.51100000000E-03 0. -1.
</event>
<event>
 8    1  0.1191842E+005  0.1043930E+01  0.7957747E-01            NaN
         13   -1    0    0    0    0  0.00000000000E+00  0.00000000000E+00  0.74505805969E-08  0.10566000000E+00  0.10566000000E+00 0.  1.
     999900   -1    0    0    0    0 -0.00000000000E+00 -0.00000000000E+00 -0.74505805969E-08  0.93827000000E+00  0.93827000000E+00 0.  1.
     999902    2    1    2    0    0  0.10642836078E-01  0.21674521295E-02  0.21331226767E-01  0.10199928104E+01  0.10197118928E+01 0.  0.
     999903    2    3    3    0    0 -0.42072263185E-01  0.11841940562E+00  0.29925903215E-01  0.13074185214E+00  0.20115696862E-01 0.  0.
         14    1    1    2    0    0 -0.10642836078E-01 -0.21674521295E-02 -0.21331226767E-01  0.23937189557E-01  0.00000000000E+00 0. -1.
     999901    1    3    3    0    0  0.52715099262E-01 -0.11625195349E+00 -0.85946764472E-02  0.88925095830E+00  0.88000000000E+00 0. -1.
        -11    1    4    4    0    0 -0.30945226093E-01  0.73432978673E-01  0.10069207569E-01  0.80322222559E-01  0.51100000000E-03 0.  1.
         11    1    4    4    0    0 -0.11127037092E-01  0.44986426948E-01  0.19856695645E-01  0.50419629580E-01  0.51100000000E-03 0. -1.
</event>
<event>
 8    1  0.1191842E+005  0.1043930E+01  0.7957747E-01            NaN
         13   -1    0    0    0    0  0.00000000000E+00  0.00000000000E+00  0.74505805969E-08  0.10566000000E+00  0.10566000000E+00 0.  1.
     999900   -1    0    0    0    0 -0.00000000000E+00 -0.00000000000E+00 -0.74505805969E-08  0.93827000000E+00  0.93827000000E+00 0.  1.
     999902    2    1    2    0    0 -0.41537192602E-02  0.21515691376E-01  0.97990813249E-02  0.10199258263E+01  0.10196433155E+01 0.  0.
     999903    2    3    3    0    0 -0.67128079607E-01  0.10481564326E+00  0.42782684791E-01  0.13313804441E+00  0.20071935860E-01 0.  0.
         14    1    1    2    0    0  0.41537192602E-02 -0.21515691376E-01 -0.97990813249E-02  0.24004173676E-01  0.00000000000E+00 0.  1.
     999901    1    3    3    0    0  0.62974360347E-01 -0.83299951883E-01 -0.32983603466E-01  0.88678778191E+00  0.88000000000E+00 0. -1.
        -11    1    4    4    0    0 -0.12705850863E-01  0.10062174134E-01  0.10015663454E-01  0.19059397417E-01  0.51100000000E-03 0. -1.
         11    1    4    4    0    0 -0.54422228743E-01  0.94753469125E-01  0.32767021337E-01  0.11407864700E+00  0.51100000000E-03 0.  1.
</event>
<event>
 8    1  0.1191842E+005  0.1043930E+01  0.7957747E-01            NaN
         13   -1    0    0    0    0  0.00000000000E+00  0.00000000000E+00  0.74505805969E-08  0.10566000000E+00  0.10566000000E+00 0.  1.
     999900   -1    0    0    0    0 -0.00000000000E+00 -0.00000000000E+00 -0.74505805969E-08  0.93827000000E+00  0.93827000000E+00 0.  1.
     999902    2    1    2    0    0  0.10475027479E-01 -0.11634349332E-01  0.18467250808E-01  0.10197200096E+01  0.10194325746E+01 0.  0.
     999903    2    3    3    0    0  0.44703794645E-02 -0.50078994837E-01 -0.11668837531E+00  0.12855162488E+00  0.19530829734E-01 0.  0.
         14    1    1    2    0    0 -0.10475027479E-01  0.11634349332E-01 -0.18467250808E-01  0.24209990448E-01  0.00000000000E+00 0. -1.
     999901    1    3    3    0    0  0.60046480142E-02  0.38444645504E-01  0.13515562612E+00  0.89116838467E+00  0.88000000000E+00 0. -1.
        -11    1    4    4    0    0 -0.55657468437E-02 -0.48247793978E-02 -0.20148635803E-01  0.21458906773E-01  0.51100000000E-03 0. -1.
         11    1    4    4    0    0  0.10036126308E-01 -0.45254215439E-01 -0.96539739509E-01  0.10709271811E+00  0.51100000000E-03 0.  1.
</event>
<event>
 8    1  0.1191842E+005  0.1043930E+01  0.7957747E-01            NaN
         13   -1    0    0    0    0  0.00000000000E+00  0.00000000000E+00  0.74505805969E-08  0.10566000000E+00  0.10566000000E+00 0. -1.
     999900   -1    0    0    0    0 -0.00000000000E+00 -0.00000000000E+00 -0.74505805969E-08  0.93827000000E+00  0.93827000000E+00 0. -1.
     999902    2    1    2    0    0 -0.10546995888E-01 -0.15480691438E-01 -0.12824044286E-01  0.10212287436E+01  0.10209763953E+01 0.  0.
     999903    2    3    3    0    0 -0.20186249884E-01  0.44649900585E-01  0.11820513441E+00  0.12944555865E+00  0.19560177581E-01 0.  0.
         14    1    1    2    0    0  0.10546995888E-01  0.15480691438E-01  0.12824044286E-01  0.22701256386E-01  0.00000000000E+00 0. -1.
     999901    1    3    3    0    0  0.96392539964E-02 -0.60130592023E-01 -0.13102917869E+00  0.89178318496E+00  0.88000000000E+00 0. -1.
        -11    1    4    4    0    0  0.38523487919E-02  0.67301688564E-02  0.20252708816E-01  0.21692604718E-01  0.51100000000E-03 0.  1.
         11    1    4    4    0    0 -0.24038598676E-01  0.37919731728E-01  0.97952425593E-01  0.10775295393E+00  0.51100000000E-03 0. -1.
</event>
<event>
 8    1  0.1191842E+005  0.1043930E+01  0.7957747E-01            NaN
         13   -1    0    0    0    0  0.00000000000E+00  0.00000000000E+00  0.74505805969E-08  0.10566000000E+00  0.10566000000E+00 0.  1.
     999900   -1    0    0    0    0 -0.00000000000E+00 -0.00000000000E+00 -0.74505805969E-08  0.93827000000E+00  0.93827000000E+00 0.  1.
     999902    2    1    2    0    0  0.12331945900E-01 -0.12681104985E-01 -0.15265319518E-01  0.10205651269E+01  0.10202976335E+01 0.  0.
     999903    2    3    3    0    0  0.98619961346E-01  0.76815120125E-01  0.31312707207E-01  0.13060742654E+00  0.21245111897E-01 0.  0.
         14    1    1    2    0    0 -0.12331945900E-01  0.12681104985E-01  0.15265319518E-01  0.23364873064E-01  0.00000000000E+00 0.  1.
     999901    1    3    3    0    0 -0.86288015446E-01 -0.89496225110E-01 -0.46578026725E-01  0.88995770039E+00  0.88000000000E+00 0. -1.
        -11    1    4    4    0    0  0.29647368106E-01  0.20525146568E-01  0.18908773362E-01  0.40719171263E-01  0.51100000000E-03 0. -1.
         11    1    4    4    0    0  0.68972593239E-01  0.56289973556E-01  0.12403933845E-01  0.89888255278E-01  0.51100000000E-03 0.  1.
</event>
<event>
 8    1  0.1191842E+005  0.1043930E+01  0.7957747E-01            NaN
         13   -1    0    0    0    0  0.00000000000E+00  0.00000000000E+00  0.74505805969E-08  0.10566000000E+00  0.10566000000E+00 0.  1.
     999900   -1    0    0    0    0 -0.00000000000E+00 -0.00000000000E+00 -0.74505805969E-08  0.93827000000E+00  0.93827000000E+00 0. -1.
     999902    2    1    2    0    0 -0.16181621747E-01 -0.10705169000E-01 -0.12951303259E-01  0.10206022958E+01  0.10203356626E+01 0.  0.
     999903    2    3    3    0    0 -0.13072953461E-01 -0.78405259127E-01  0.10180971907E+00  0.13056687054E+00  0.19084077539E-01 0.  0.
         14    1    1    2    0    0  0.16181621747E-01  0.10705169000E-01  0.12951303259E-01  0.23327704169E-01  0.00000000000E+00 0.  1.
     999901    1    3    3    0    0 -0.31086682858E-02  0.67700090127E-01 -0.11476102233E+00  0.89003542529E+00  0.88000000000E+00 0. -1.
        -11    1    4    4    0    0 -0.12704298862E-01 -0.55263139420E-01  0.58594961584E-01  0.81541672979E-01  0.51100000000E-03 0.  1.
         11    1    4    4    0    0 -0.36865459931E-03 -0.23142119707E-01  0.43214757485E-01  0.49025197564E-01  0.51100000000E-03 0. -1.
</event>
<event>
 8    1  0.1191842E+005  0.1043930E+01  0.7957747E-01            NaN
         13   -1    0    0    0    0  0.00000000000E+00  0.00000000000E+00  0.74505805969E-08  0.10566000000E+00  0.10566000000E+00 0. -1.
     999900   -1    0    0    0    0 -0.00000000000E+00 -0.00000000000E+00 -0.74505805969E-08  0.93827000000E+00  0.93827000000E+00 0.  1.
     999902    2    1    2    0    0  0.19381767448E-01 -0.13808814432E-01 -0.49611729254E-03  0.10201270086E+01  0.10198492689E+01 0.  0.
     999903    2    3    3    0    0 -0.23667394246E-01  0.12263477446E+00  0.20579141424E-01  0.12832307850E+00  0.21068411345E-01 0.  0.
         14    1    1    2    0    0 -0.19381767448E-01  0.13808814432E-01  0.49611729254E-03  0.23802991362E-01  0.00000000000E+00 0. -1.
     999901    1    3    3    0    0  0.43049161694E-01 -0.13644358890E+00 -0.21075258717E-01  0.89180393013E+00  0.88000000000E+00 0.  1.
        -11    1    4    4    0    0 -0.64636142438E-02  0.84624958918E-01  0.11872678549E-01  0.85699379215E-01  0.51100000000E-03 0. -1.
         11    1    4    4    0    0 -0.17203780002E-01  0.38009815546E-01  0.87064628750E-02  0.42623699288E-01  0.51100000000E-03 0.  1.
</event>
<event>
 8    1  0.1191842E+005  0.1043930E+01  0.7957747E-01            NaN
         13   -1    0    0    0    0  0.00000000000E+00  0.00000000000E+00  0.74505805969E-08  0.10566000000E+00  0.10566000000E+00 0. -1.
     999900   -1    0    0    0    0 -0.00000000000E+00 -0.00000000000E+00 -0.74505805969E-08  0.93827000000E+00  0.93827000000E+00 0.  1.
     999902    2    1    2    0    0 -0.95516596084E-02 -0.20898328403E-01  0.58190396750E-02  0.10202269294E+01  0.10199515439E+01 0.  0.
     999903    2    3    3    0    0  0.99007421923E-01  0.49175731409E-01 -0.61819533031E-01  0.12822332824E+00  0.19971106228E-01 0.  0.
         14    1    1    2    0    0  0.95516596084E-02  0.20898328403E-01 -0.58190396750E-02  0.23703070562E-01  0.00000000000E+00 0.  1.
     999901    1    3    3    0    0 -0.10855908153E+00 -0.70074059812E-01  0.67638572706E-01  0.89200360120E+00  0.88000000000E+00 0.  1.
        -11    1    4    4    0    0  0.74309362686E-01  0.29220113127E-01 -0.37459183815E-01  0.88199478270E-01  0.51100000000E-03 0.  1.
         11    1    4    4    0    0  0.24698059237E-01  0.19955618282E-01 -0.24360349217E-01  0.40023849965E-01  0.51100000000E-03 0. -1.
</event>
<event>
 8    1  0.1191842E+005  0.1043930E+01  0.7957747E-01            NaN
         13   -1    0    0    0    0  0.00000000000E+00  0.00000000000E+00  0.74505805969E-08  0.10566000000E+00  0.10566000000E+00 0.  1.
     999900   -1    0    0    0    0 -0.00000000000E+00 -0.00000000000E+00 -0.74505805969E-08  0.93827000000E+00  0.93827000000E+00 0. -1.
     999902    2    1    2    0    0  0.14343722703E-01  0.16526540821E-01  0.11037050030E-01  0.10194211158E+01  0.10191264524E+01 0.  0.
     999903    2    3    3    0    0 -0.52745019074E-01 -0.61731450383E-01 -0.95596946476E-01  0.12701088406E+00  0.20004486771E-01 0.  0.
         14    1    1    2    0    0 -0.14343722703E-01 -0.16526540821E-01 -0.11037050030E-01  0.24508884223E-01  0.00000000000E+00 0. -1.
     999901    1    3    3    0    0  0.67088741776E-01  0.78257991204E-01  0.10663399651E+00  0.89241023172E+00  0.88000000000E+00 0.  1.
        -11    1    4    4    0    0 -0.14546362283E-01 -0.27931885168E-01 -0.46865514797E-01  0.56466135541E-01  0.51100000000E-03 0.  1.
         11    1    4    4    0    0 -0.38198656790E-01 -0.33799565215E-01 -0.48731431679E-01  0.70544748520E-01  0.51100000000E-03 0. -1.
</event>
<event>
 8    1  0.1191842E+005  0.1043930E+01  0.7957747E-01            NaN
         13   -1    0    0    0    0  0.00000000000E+00  0.00000000000E+00  0.74505805969E-08  0.10566000000E+00  0.10566000000E+00 0. -1.
     999900   -1    0    0    0    0 -0.00000000000E+00 -0.00000000000E+00 -0.74505805969E-08  0.93827000000E+00  0.93827000000E+00 0.  1.
     999902    2    1    2    0    0  0.19232045031E-01 -0.12121668726E-01 -0.43907610567E-02  0.10207764864E+01  0.10205138657E+01 0.  0.
     999903    2    3    3    0    0 -0.38990067340E-01  0.10433640898E+00  0.60983049894E-01  0.12879776840E+00  0.21531864281E-01 0.  0.
         14    1    1    2    0    0 -0.19232045031E-01  0.12121668726E-01  0.43907610567E-02  0.23153513588E-01  0.00000000000E+00 0. -1.
     999901    1    3    3    0    0  0.58222112371E-01 -0.11645807771E+00 -0.65373810951E-01  0.89197871801E+00  0.88000000000E+00 0.  1.
        -11    1    4    4    0    0 -0.24539861707E-01  0.58508474077E-01  0.46314321804E-01  0.78553955194E-01  0.51100000000E-03 0. -1.
         11    1    4    4    0    0 -0.14450205633E-01  0.45827934905E-01  0.14668728090E-01  0.50243813204E-01  0.51100000000E-03 0.  1.
</event>
<event>
 8    1  0.1191842E+005  0.1043930E+01  0.7957747E-01            NaN
         13   -1    0    0    0    0  0.00000000000E+00  0.00000000000E+00  0.74505805969E-08  0.10566000000E+00  0.10566000000E+00 0.  1.
     999900   -1    0    0    0    0 -0.00000000000E+00 -0.00000000000E+00 -0.74505805969E-08  0.93827000000E+00  0.93827000000E+00 0. -1.
     999902    2    1    2    0    0  0.12691407433E-01 -0.86453854169E-02 -0.18795835717E-01  0.10196586599E+01  0.10193697488E+01 0.  0.
     999903    2    3    3    0    0  0.98066982802E-01  0.68397995594E-01  0.46270253916E-01  0.12979447503E+00  0.20254639828E-01 0.  0.
         14    1    1    2    0    0 -0.12691407433E-01  0.86453854169E-02  0.18795835717E-01  0.24271340134E-01  0.00000000000E+00 0.  1.
     999901    1    3    3    0    0 -0.85375575369E-01 -0.77043381010E-01 -0.65066089633E-01  0.88986418483E+00  0.88000000000E+00 0.  1.
        -11    1    4    4    0    0  0.61507380769E-01  0.31028551209E-01  0.28818582497E-01  0.74677310459E-01  0.51100000000E-03 0.  1.
         11    1    4    4    0    0  0.36559602033E-01  0.37369444384E-01  0.17451671420E-01  0.55117164574E-01  0.51100000000E-03 0. -1.
</event>
<event>
 8    1  0.1191842E+005  0.1043930E+01  0.7957747E-01            NaN
         13   -1    0    0    0    0  0.00000000000E+00  0.00000000000E+00  0.74505805969E-08  0.10566000000E+00  0.10566000000E+00 0. -1.
     999900   -1    0    0    0    0 -0.00000000000E+00 -0.00000000000E+00 -0.74505805969E-08  0.93827000000E+00  0.93827000000E+00 0. -1.
     999902    2    1    2    0    0  0.65383501520E-03  0.14053111194E-01  0.20430438807E-01  0.10191243502E+01  0.10188224187E+01 0.  0.
     999903    2    3    3    0    0 -0.40494904742E-01  0.38548115186E-01 -0.11342419702E+00  0.12771519183E+00  0.17897688671E-01 0.  0.
         14    1    1    2    0    0 -0.65383501520E-03 -0.14053111194E-01 -0.20430438807E-01  0.24805649846E-01  0.00000000000E+00 0.  1.
     999901    1    3    3    0    0  0.41148739757E-01 -0.24495003991E-01  0.13385463583E+00  0.89140915832E+00  0.88000000000E+00 0.  1.
        -11    1    4    4    0    0 -0.31195534942E-01  0.23062408847E-01 -0.61289855742E-01  0.72537877279E-01  0.51100000000E-03 0. -1.
         11    1    4    4    0    0 -0.92993697999E-02  0.15485706338E-01 -0.52134341282E-01  0.55177314554E-01  0.51100000000E-03 0.  1.
</event>
<event>
 7    1  0.1191842E+005  0.1043930E+01  0.7957747E-01            NaN
         13   -1    0    0    0    0  0.00000000000E+00  0.00000000000E+00  0.74505805969E-08  0.10566000000E+00  0.10566000000E+00 0.  1.
     999900   -1    0    0    0    0 -0.00000000000E+00 -0.00000000000E+00 -0.74505805969E-08  0.93827000000E+00  0.93827000000E+00 0.  1.
     999902    2    1    2    0    0 -0.22492345389E-01  0.55188405233E-02  0.67028132700E-02  0.10198200247E+01  0.10195349881E+01 0.  0.
         14    1    1    2    0    0  0.22492345389E-01 -0.55188405233E-02 -0.67028132700E-02  0.24109975271E-01  0.00000000000E+00 0. -1.
     999901    1    3    3    0    0 -0.11070433553E+00  0.10573264176E-01 -0.86610315282E-01  0.89121747656E+00  0.88000000000E+00 0.  1.
        -11    1    3    3    0    0  0.32333367310E-01 -0.41822136828E-02  0.34374847282E-01  0.47379624308E-01  0.51100000000E-03 0. -1.
         11    1    3    3    0    0  0.55878622832E-01 -0.87220997015E-03  0.58938281271E-01  0.81222923857E-01  0.51100000000E-03 0.  1.
</event>
<event>
 8    1  0.1191842E+005  0.1043930E+01  0.7957747E-01            NaN
         13   -1    0    0    0    0  0.00000000000E+00  0.00000000000E+00  0.74505805969E-08  0.10566000000E+00  0.10566000000E+00 0. -1.
     999900   -1    0    0    0    0 -0.00000000000E+00 -0.00000000000E+00 -0.74505805969E-08  0.93827000000E+00  0.93827000000E+00 0.  1.
     999902    2    1    2    0    0  0.11065181182E-01  0.73681217198E-02 -0.17584645520E-01  0.10218857896E+01  0.10216479921E+01 0.  0.
     999903    2    3    3    0    0 -0.48965290425E-01 -0.10007244490E+00  0.63666953186E-01  0.12961399519E+00  0.18281491394E-01 0.  0.
         14    1    1    2    0    0 -0.11065181182E-01 -0.73681217198E-02  0.17584645520E-01  0.22044210359E-01  0.00000000000E+00 0. -1.
     999901    1    3    3    0    0  0.60030471607E-01  0.10744056662E+00 -0.81251598706E-01  0.89227179445E+00  0.88000000000E+00 0.  1.
        -11    1    4    4    0    0 -0.21066504186E-01 -0.62820383604E-01  0.40009025116E-01  0.77402722217E-01  0.51100000000E-03 0.  1.
         11    1    4    4    0    0 -0.27898786238E-01 -0.37252061294E-01  0.23657928070E-01  0.52211272976E-01  0.51100000000E-03 0. -1.
</event>
<event>
 8    1  0.1191842E+005  0.1043930E+01  0.7957747E-01            NaN
         13   -1    0    0    0    0  0.00000000000E+00  0.00000000000E+00  0.74505805969E-08  0.10566000000E+00  0.10566000000E+00 0. -1.
     999900   -1    0    0    0    0 -0.00000000000E+00 -0.00000000000E+00 -0.74505805969E-08  0.93827000000E+00  0.93827000000E+00 0.  1.
     999902    2    1    2    0    0 -0.18653230307E-01  0.14007767574E-01  0.28765895784E-02  0.10204260573E+01  0.10201553329E+01 0.  0.
     999903    2    3    3    0    0  0.16356546294E-01 -0.10750491812E+00 -0.65019023718E-01  0.12879786602E+00  0.23164041506E-01 0.  0.
         14    1    1    2    0    0  0.18653230307E-01 -0.14007767574E-01 -0.28765895784E-02  0.23503942667E-01  0.00000000000E+00 0.  1.
     999901    1    3    3    0    0 -0.35009776601E-01  0.12151268569E+00  0.67895613296E-01  0.89162819131E+00  0.88000000000E+00 0.  1.
        -11    1    4    4    0    0  0.16857419756E-01 -0.42757657254E-01 -0.21226918633E-01  0.50628381865E-01  0.51100000000E-03 0.  1.
         11    1    4    4    0    0 -0.50087346166E-03 -0.64747260867E-01 -0.43792105085E-01  0.78169484153E-01  0.51100000000E-03 0. -1.
</event>
<event>
 8    1  0.1191842E+005  0.1043930E+01  0.7957747E-01            NaN
         13   -1    0    0    0    0  0.00000000000E+00  0.00000000000E+00  0.74505805969E-08  0.10566000000E+00  0.10566000000E+00 0.  1.
     999900   -1    0    0    0    0 -0.00000000000E+00 -0.00000000000E+00 -0.74505805969E-08  0.93827000000E+00  0.93827000000E+00 0.  1.
     999902    2    1    2    0    0 -0.10199227789E-02 -0.23489726953E-01  0.45954067568E-03  0.10204136505E+01  0.10201426368E+01 0.  0.
     999903    2    3    3    0    0  0.46853530459E-04  0.69210215710E-01  0.10572211017E+00  0.12930500063E+00  0.27432871811E-01 0.  0.
         14    1    1    2    0    0  0.10199227789E-02  0.23489726953E-01 -0.45954067568E-03  0.23516349471E-01  0.00000000000E+00 0. -1.
     999901    1    3    3    0    0 -0.10667763094E-02 -0.92699942663E-01 -0.10526256950E+00  0.89110864990E+00  0.88000000000E+00 0. -1.
        -11    1    4    4    0    0  0.58810770067E-02  0.24591447344E-01  0.60188775841E-01  0.65286110372E-01  0.51100000000E-03 0.  1.
         11    1    4    4    0    0 -0.58342234762E-02  0.44618768367E-01  0.45533334331E-01  0.64018890263E-01  0.51100000000E-03 0. -1.
</event>
<event>
 8    1  0.1191842E+005  0.1043930E+01  0.7957747E-01            NaN
         13   -1    0    0    0    0  0.00000000000E+00  0.00000000000E+00  0.74505805969E-08  0.10566000000E+00  0.10566000000E+00 0. -1.
     999900   -1    0    0    0    0 -0.00000000000E+00 -0.00000000000E+00 -0.74505805969E-08  0.93827000000E+00  0.93827000000E+00 0. -1.
     999902    2    1    2    0    0  0.55376351103E-02 -0.23317201747E-01 -0.68167120027E-03  0.10199545547E+01  0.10196727278E+01 0.  0.
     999903    2    3    3    0    0  0.36882655239E-02 -0.10640626560E+00 -0.76846766664E-01  0.13276329325E+00  0.19615550602E-01 0.  0.
         14    1    1    2    0    0 -0.55376351103E-02  0.23317201747E-01  0.68167120027E-03  0.23975445263E-01  0.00000000000E+00 0.  1.
     999901    1    3    3    0    0  0.18493695864E-02  0.83089063852E-01  0.76165095464E-01  0.88719126149E+00  0.88000000000E+00 0.  1.
        -11    1    4    4    0    0 -0.55289975074E-02 -0.81050139997E-01 -0.56158482210E-01  0.98760980413E-01  0.51100000000E-03 0.  1.
         11    1    4    4    0    0  0.92172630313E-02 -0.25356125602E-01 -0.20688284454E-01  0.34002312833E-01  0.51100000000E-03 0. -1.
</event>
<event>
 8    1  0.1191842E+005  0.1043930E+01  0.7957747E-01            NaN
         13   -1    0    0    0    0  0.00000000000E+00  0.00000000000E+00  0.74505805969E-08  0.10566000000E+00  0.10566000000E+00 0. -1.
     999900   -1    0    0    0    0 -0.00000000000E+00 -0.00000000000E+00 -0.74505805969E-08  0.93827000000E+00  0.93827000000E+00 0.  1.
     999902    2    1    2    0    0  0.18784886511E-02  0.24466929054E-01 -0.81148008814E-02  0.10180841235E+01  0.10177559989E+01 0.  0.
     999903    2    3    3    0    0 -0.95415801991E-01 -0.14973650179E-01  0.80592102696E-01  0.12741546852E+00  0.20278785267E-01 0.  0.
         14    1    1    2    0    0 -0.18784886511E-02 -0.24466929054E-01  0.81148008814E-02  0.25845876466E-01  0.00000000000E+00 0. -1.
     999901    1    3    3    0    0  0.97294290642E-01  0.39440579234E-01 -0.88706903578E-01  0.89066865501E+00  0.88000000000E+00 0. -1.
        -11    1    4    4    0    0 -0.35336562389E-01 -0.11109519215E-01  0.20441782221E-01  0.42311010861E-01  0.51100000000E-03 0. -1.
         11    1    4    4    0    0 -0.60079239601E-01 -0.38641309644E-02  0.60150320475E-01  0.85104457659E-01  0.51100000000E-03 0.  1.
</event>
<event>
 8    1  0.1191842E+005  0.1043930E+01  0.7957747E-01            NaN
         13   -1    0    0    0    0  0.00000000000E+00  0.00000000000E+00  0.74505805969E-08  0.10566000000E+00  0.10566000000E+00 0. -1.
     999900   -1    0    0    0    0 -0.00000000000E+00 -0.00000000000E+00 -0.74505805969E-08  0.93827000000E+00  0.93827000000E+00 0.  1.
     999902    2    1    2    0    0  0.16564893781E-01 -0.98911234462E-02 -0.13395727694E-01  0.10204422255E+01  0.10201718777E+01 0.  0.
     999903    2    3    3    0    0  0.11983824798E+00 -0.21380532638E-01  0.46976847576E-01  0.13227431345E+00  0.21710295621E-01 0.  0.
         14    1    1    2    0    0 -0.16564893781E-01  0.98911234462E-02  0.13395727694E-01  0.23487774468E-01  0.00000000000E+00 0. -1.
     999901    1    3    3    0    0 -0.10327335420E+00  0.11489409192E-01 -0.60372575270E-01  0.88816791208E+00  0.88000000000E+00 0.  1.
        -11    1    4    4    0    0  0.76271628792E-01 -0.11572135648E-01  0.18584207002E-01  0.79353068957E-01  0.51100000000E-03 0.  1.
         11    1    4    4    0    0  0.43566619185E-01 -0.98083969896E-02  0.28392640574E-01  0.52921244491E-01  0.51100000000E-03 0. -1.
</event>
<event>
 8    1  0.1191842E+005  0.1043930E+01  0.7957747E-01            NaN
         13   -1    0    0    0    0  0.00000000000E+00  0.00000000000E+00  0.74505805969E-08  0.10566000000E+00  0.10566000000E+00 0. -1.
     999900   -1    0    0    0    0 -0.00000000000E+00 -0.00000000000E+00 -0.74505805969E-08  0.93827000000E+00  0.93827000000E+00 0.  1.
     999902    2    1    2    0    0  0.14717748300E-02 -0.53364932038E-02 -0.23240358197E-01  0.10200394468E+01  0.10197596357E+01 0.  0.
     999903    2    3    3    0    0 -0.24559730514E-01  0.90241700425E-01  0.84846777298E-01  0.12790960247E+00  0.20375130127E-01 0.  0.
         14    1    1    2    0    0 -0.14717748300E-02  0.53364932038E-02  0.23240358197E-01  0.23890553154E-01  0.00000000000E+00 0. -1.
     999901    1    3    3    0    0  0.26031505344E-01 -0.95578193629E-01 -0.10808713549E+00  0.89212984438E+00  0.88000000000E+00 0.  1.
        -11    1    4    4    0    0 -0.26527571438E-01  0.87395507249E-01  0.77544190074E-01  0.11981255889E+00  0.51100000000E-03 0. -1.
         11    1    4    4    0    0  0.19678409238E-02  0.28461931761E-02  0.73025872244E-02  0.80970435757E-02  0.51100000000E-03 0.  1.
</event>
<event>
 8    1  0.1191842E+005  0.1043930E+01  0.7957747E-01            NaN
         13   -1    0    0    0    0  0.00000000000E+00  0.00000000000E+00  0.74505805969E-08  0.10566000000E+00  0.10566000000E+00 0. -1.
     999900   -1    0    0    0    0 -0.00000000000E+00 -0.00000000000E+00 -0.74505805969E-08  0.93827000000E+00  0.93827000000E+00 0.  1.
     999902    2    1    2    0    0 -0.95870424783E-03 -0.15410185366E-01  0.16271757271E-01  0.10214987046E+01  0.10212523883E+01 0.  0.
     999903    2    3    3    0    0 -0.12861756983E+00 -0.99973496776E-02 -0.17707202582E-01  0.13162194100E+00  0.19192812714E-01 0.  0.
         14    1    1    2    0    0  0.95870424783E-03  0.15410185366E-01 -0.16271757271E-01  0.22431295360E-01  0.00000000000E+00 0.  1.
     999901    1    3    3    0    0  0.12765886558E+00 -0.54128356884E-02  0.33978959853E-01  0.88987676364E+00  0.88000000000E+00 0. -1.
        -11    1    4    4    0    0 -0.18015044151E-01 -0.58362902369E-02 -0.78368082556E-02  0.20500750818E-01  0.51100000000E-03 0.  1.
         11    1    4    4    0    0 -0.11060252568E+00 -0.41610594407E-02 -0.98703943263E-02  0.11112119018E+00  0.51100000000E-03 0. -1.
</event>
<event>
 8    1  0.1191842E+005  0.1043930E+01  0.7957747E-01            NaN
         13   -1    0    0    0    0  0.00000000000E+00  0.00000000000E+00  0.74505805969E-08  0.10566000000E+00  0.10566000000E+00 0. -1.
     999900   -1    0    0    0    0 -0.00000000000E+00 -0.00000000000E+00 -0.74505805969E-08  0.93827000000E+00  0.93827000000E+00 0.  1.
     999902    2    1    2    0    0 -0.18981953488E-01  0.15124716007E-01  0.19954295924E-02  0.10195773137E+01  0.10192864392E+01 0.  0.
     999903    2    3    3    0    0  0.62739045118E-03 -0.77068578570E-01 -0.10103860376E+00  0.12856657189E+00  0.19509088533E-01 0.  0.
         14    1    1    2    0    0  0.18981953488E-01 -0.15124716007E-01 -0.19954295924E-02  0.24352686336E-01  0.00000000000E+00 0.  1.
     999901    1    3    3    0    0 -0.19609343940E-01  0.92193294578E-01  0.10303403335E+00  0.89101074178E+00  0.88000000000E+00 0. -1.
        -11    1    4    4    0    0  0.66499945348E-02 -0.12636927760E-01 -0.24233844597E-01  0.28132804970E-01  0.51100000000E-03 0. -1.
         11    1    4    4    0    0 -0.60226040836E-02 -0.64431650810E-01 -0.76804759161E-01  0.10043376692E+00  0.51100000000E-03 0.  1.
</event>
<event>
 8    1  0.1191842E+005  0.1043930E+01  0.7957747E-01            NaN
         13   -1    0    0    0    0  0.00000000000E+00  0.00000000000E+00  0.74505805969E-08  0.10566000000E+00  0.10566000000E+00 0.  1.
     999900   -1    0    0    0    0 -0.00000000000E+00 -0.00000000000E+00 -0.74505805969E-08  0.93827000000E+00  0.93827000000E+00 0.  1.
     999902    2    1    2    0    0 -0.14472446456E-01  0.15399659538E-01 -0.14270021005E-01  0.10184302996E+01  0.10181110158E+01 0.  0.
     999903    2    3    3    0    0  0.82226602491E-01  0.97483331796E-01 -0.83301682075E-02  0.12931629277E+00  0.19725560514E-01 0.  0.
         14    1    1    2    0    0  0.14472446456E-01 -0.15399659538E-01  0.14270021005E-01  0.25499700386E-01  0.00000000000E+00 0.  1.
     999901    1    3    3    0    0 -0.96699048947E-01 -0.82083672258E-01 -0.59398527974E-02  0.88911400685E+00  0.88000000000E+00 0.  1.
        -11    1    4    4    0    0  0.41166765759E-01  0.34455393728E-01 -0.64169134729E-02  0.54067685908E-01  0.51100000000E-03 0. -1.
         11    1    4    4    0    0  0.41059836732E-01  0.63027938068E-01 -0.19132547345E-02  0.75248606859E-01  0.51100000000E-03 0.  1.
</event>
<event>
 8    1  0.1191842E+005  0.1043930E+01  0.7957747E-01            NaN
         13   -1    0    0    0    0  0.00000000000E+00  0.00000000000E+00  0.74505805969E-08  0.10566000000E+00  0.10566000000E+00 0.  1.
     999900   -1    0    0    0    0 -0.00000000000E+00 -0.00000000000E+00 -0.74505805969E-08  0.93827000000E+00  0.93827000000E+00 0. -1.
     999902    2    1    2    0    0  0.17154675026E-01  0.12051789131E-01  0.98846441711E-02  0.10207516764E+01  0.10204884860E+01 0.  0.
     999903    2    3    3    0    0 -0.26985357455E-01 -0.59241274169E-01  0.11178336927E+00  0.13091214390E+00  0.20117894850E-01 0.  0.
         14    1    1    2    0    0 -0.17154675026E-01 -0.12051789131E-01 -0.98846441711E-02  0.23178323643E-01  0.00000000000E+00 0.  1.
     999901    1    3    3    0    0  0.44140032481E-01  0.71293063300E-01 -0.10189872510E+00  0.88983953245E+00  0.88000000000E+00 0. -1.
        -11    1    4    4    0    0 -0.29292260126E-01 -0.47594018614E-01  0.86644054701E-01  0.10310519117E+00  0.51100000000E-03 0. -1.
         11    1    4    4    0    0  0.23069026716E-02 -0.11647255555E-01  0.25139314571E-01  0.27806952728E-01  0.51100000000E-03 0.  1.
</event>
<event>
 8    1  0.1191842E+005  0.1043930E+01  0.7957747E-01            NaN
         13   -1    0    0    0    0  0.00000000000E+00  0.00000000000E+00  0.74505805969E-08  0.10566000000E+00  0.10566000000E+00 0. -1.
     999900   -1    0    0    0    0 -0.00000000000E+00 -0.00000000000E+00 -0.74505805969E-08  0.93827000000E+00  0.93827000000E+00 0.  1.
     999902    2    1    2    0    0  0.14825985553E-01  0.17739664053E-01 -0.60124781695E-02  0.10200416049E+01  0.10197618449E+01 0.  0.
     999903    2    3    3    0    0 -0.25008343585E-01  0.10761695470E+00  0.68287954273E-01  0.13145550582E+00  0.20260284424E-01 0.  0.
         14    1    1    2    0    0 -0.14825985553E-01 -0.17739664053E-01  0.60124781695E-02  0.23888395134E-01  0.00000000000E+00 0.  1.
     999901    1    3    3    0    0  0.39834329138E-01 -0.89877290646E-01 -0.74300432442E-01  0.88858609904E+00  0.88000000000E+00 0.  1.
        -11    1    4    4    0    0 -0.19703559976E-01  0.66052097084E-01  0.52611499424E-01  0.86714132629E-01  0.51100000000E-03 0. -1.
         11    1    4    4    0    0 -0.53047836089E-02  0.41564857615E-01  0.15676454849E-01  0.44741373194E-01  0.51100000000E-03 0.  1.
</event>
<event>
 8    1  0.1191842E+005  0.1043930E+01  0.7957747E-01            NaN
         13   -1    0    0    0    0  0.00000000000E+00  0.00000000000E+00  0.74505805969E-08  0.10566000000E+00  0.10566000000E+00 0.  1.
     999900   -1    0    0    0    0 -0.00000000000E+00 -0.00000000000E+00 -0.74505805969E-08  0.93827000000E+00  0.93827000000E+00 0. -1.
     999902    2    1    2    0    0 -0.18800041677E-01  0.15061079070E-01  0.51918849571E-02  0.10192878950E+01  0.10189899801E+01 0.  0.
     999903    2    3    3    0    0  0.12107153899E+00  0.20535066631E-01 -0.28739947673E-01  0.12757864143E+00  0.19243665031E-01 0.  0.
         14    1    1    2    0    0  0.18800041677E-01 -0.15061079070E-01 -0.51918849571E-02  0.24642105007E-01  0.00000000000E+00 0.  1.
     999901    1    3    3    0    0 -0.13987158066E+00 -0.54739875613E-02  0.33931832630E-01  0.89170925356E+00  0.88000000000E+00 0. -1.
        -11    1    4    4    0    0  0.83740722002E-01  0.59507638719E-02 -0.15542792382E-01  0.85380089179E-01  0.51100000000E-03 0.  1.
         11    1    4    4    0    0  0.37330816984E-01  0.14584302759E-01 -0.13197155291E-01  0.42198552255E-01  0.51100000000E-03 0. -1.
</event>
<event>
 8    1  0.1191842E+005  0.1043930E+01  0.7957747E-01            NaN
         13   -1    0    0    0    0  0.00000000000E+00  0.00000000000E+00  0.74505805969E-08  0.10566000000E+00  0.10566000000E+00 0.  1.
     999900   -1    0    0    0    0 -0.00000000000E+00 -0.00000000000E+00 -0.74505805969E-08  0.93827000000E+00  0.93827000000E+00 0.  1.
     999902    2    1    2    0    0 -0.64627199197E-02  0.10044199330E-03  0.23031961711E-01  0.10200082923E+01  0.10197277423E+01 0.  0.
     999903    2    3    3    0    0  0.36499214336E-01  0.49413129327E-01 -0.10960771329E+00  0.12766824935E+00  0.22615947558E-01 0.  0.
         14    1    1    2    0    0  0.64627199197E-02 -0.10044199330E-03 -0.23031961711E-01  0.23921707665E-01  0.00000000000E+00 0.  1.
     999901    1    3    3    0    0 -0.42961934256E-01 -0.49312687334E-01  0.13263967500E+00  0.89234004298E+00  0.88000000000E+00 0. -1.
        -11    1    4    4    0    0  0.34159253688E-01  0.40360113295E-01 -0.10421398338E+00  0.11686149413E+00  0.51100000000E-03 0.  1.
         11    1    4    4    0    0  0.23399606487E-02  0.90530160320E-02 -0.53937299058E-02  0.10806755221E-01  0.51100000000E-03 0. -1.
</event>
<event>
 8    1  0.1191842E+005  0.1043930E+01  0.7957747E-01            NaN
         13   -1    0    0    0    0  0.00000000000E+00  0.00000000000E+00  0.74505805969E-08  0.10566000000E+00  0.10566000000E+00 0. -1.
     999900   -1    0    0    0    0 -0.00000000000E+00 -0.00000000000E+00 -0.74505805969E-08  0.93827000000E+00  0.93827000000E+00 0.  1.
     999902    2    1    2    0    0  0.36312185686E-02 -0.15332913855E-01  0.17269565213E-01  0.10205521926E+01  0.10202843996E+01 0.  0.
     999903    2    3    3    0    0  0.26609177089E-01 -0.11714992575E+00 -0.50201658607E-01  0.13181879247E+00  0.20587231759E-01 0.  0.
         14    1    1    2    0    0 -0.36312185686E-02  0.15332913855E-01 -0.17269565213E-01  0.23377807387E-01  0.00000000000E+00 0.  1.
     999901    1    3    3    0    0 -0.22977958521E-01  0.10181701190E+00  0.67471223819E-01  0.88873340015E+00  0.88000000000E+00 0.  1.
        -11    1    4    4    0    0  0.21579652902E-01 -0.10488195596E+00 -0.50836427441E-01  0.11853484543E+00  0.51100000000E-03 0. -1.
         11    1    4    4    0    0  0.50295241878E-02 -0.12267969797E-01  0.63476883472E-03  0.13283947041E-01  0.51100000000E-03 0.  1.
</event>
<event>
 8    1  0.1191842E+005  0.1043930E+01  0.7957747E-01            NaN
         13   -1    0    0    0    0  0.00000000000E+00  0.00000000000E+00  0.74505805969E-08  0.10566000000E+00  0.10566000000E+00 0.  1.
     999900   -1    0    0    0    0 -0.00000000000E+00 -0.00000000000E+00 -0.74505805969E-08  0.93827000000E+00  0.93827000000E+00 0.  1.
     999902    2    1    2    0    0 -0.20529797524E-01  0.60844611924E-02  0.90094046849E-02  0.10206993602E+01  0.10204349667E+01 0.  0.
     999903    2    3    3    0    0  0.45720019368E-02  0.12925313548E+00  0.14628125170E-01  0.13174930944E+00  0.20411326724E-01 0.  0.
         14    1    1    2    0    0  0.20529797524E-01 -0.60844611924E-02 -0.90094046849E-02  0.23230639835E-01  0.00000000000E+00 0.  1.
     999901    1    3    3    0    0 -0.25101799461E-01 -0.12316867429E+00 -0.56187204850E-02  0.88895005072E+00  0.88000000000E+00 0.  1.
        -11    1    4    4    0    0 -0.67254634462E-02  0.34293288701E-01 -0.35315640772E-03  0.34952072170E-01  0.51100000000E-03 0. -1.
         11    1    4    4    0    0  0.11297465383E-01  0.94959846780E-01  0.14981281578E-01  0.96797237271E-01  0.51100000000E-03 0.  1.
</event>
<event>
 8    1  0.1191842E+005  0.1043930E+01  0.7957747E-01            NaN
         13   -1    0    0    0    0  0.00000000000E+00  0.00000000000E+00  0.74505805969E-08  0.10566000000E+00  0.10566000000E+00 0. -1.
     999900   -1    0    0    0    0 -0.00000000000E+00 -0.00000000000E+00 -0.74505805969E-08  0.93827000000E+00  0.93827000000E+00 0.  1.
     999902    2    1    2    0    0 -0.19986502983E-01  0.32235669682E-02 -0.13800729308E-01  0.10194287385E+01  0.10191342606E+01 0.  0.
     999903    2    3    3    0    0 -0.11958768548E+00 -0.44817312999E-01 -0.27821912120E-01  0.13239721974E+00  0.21098789974E-01 0.  0.
         14    1    1    2    0    0  0.19986502983E-01 -0.32235669682E-02  0.13800729308E-01  0.24501261497E-01  0.00000000000E+00 0. -1.
     999901    1    3    3    0    0  0.99601182500E-01  0.48040879967E-01  0.14021182812E-01  0.88703151876E+00  0.88000000000E+00 0. -1.
        -11    1    4    4    0    0 -0.60849767710E-01 -0.11700634712E-01 -0.15009285455E-01  0.63758441432E-01  0.51100000000E-03 0. -1.
         11    1    4    4    0    0 -0.58737917774E-01 -0.33116678287E-01 -0.12812626665E-01  0.68638778313E-01  0.51100000000E-03 0.  1.
</event>
<event>
 8    1  0.1191842E+005  0.1043930E+01  0.7957747E-01            NaN
         13   -1    0    0    0    0  0.00000000000E+00  0.00000000000E+00  0.74505805969E-08  0.10566000000E+00  0.10566000000E+00 0.  1.
     999900   -1    0    0    0    0 -0.00000000000E+00 -0.00000000000E+00 -0.74505805969E-08  0.93827000000E+00  0.93827000000E+00 0. -1.
     999902    2    1    2    0    0  0.67108803972E-02 -0.80397369293E-02 -0.21338601563E-01  0.10201600778E+01  0.10198831184E+01 0.  0.
     999903    2    3    3    0    0  0.11818047225E+00 -0.37005694400E-01  0.36433636401E-01  0.13077707363E+00  0.20956805221E-01 0.  0.
         14    1    1    2    0    0 -0.67108803972E-02  0.80397369293E-02  0.21338601563E-01  0.23769922219E-01  0.00000000000E+00 0.  1.
     999901    1    3    3    0    0 -0.11146959185E+00  0.28965957471E-01 -0.57772237964E-01  0.88938300416E+00  0.88000000000E+00 0.  1.
        -11    1    4    4    0    0  0.15709265321E-01 -0.10814911033E-01  0.54220785135E-03  0.19086603363E-01  0.51100000000E-03 0.  1.
         11    1    4    4    0    0  0.10247120693E+00 -0.26190783367E-01  0.35891428550E-01  0.11169047026E+00  0.51100000000E-03 0. -1.
</event>
<event>
 8    1  0.1191842E+005  0.1043930E+01  0.7957747E-01            NaN
         13   -1    0    0    0    0  0.00000000000E+00  0.00000000000E+00  0.74505805969E-08  0.10566000000E+00  0.10566000000E+00 0. -1.
     999900   -1    0    0    0    0 -0.00000000000E+00 -0.00000000000E+00 -0.74505805969E-08  0.93827000000E+00  0.93827000000E+00 0.  1.
     999902    2    1    2    0    0  0.22589208578E-01  0.56949049305E-02 -0.32685541779E-02  0.10204058054E+01  0.10201346087E+01 0.  0.
     999903    2    3    3    0    0  0.99416410623E-02  0.36123869696E-01  0.12361637401E+00  0.13069480294E+00  0.19908626344E-01 0.  0.
         14    1    1    2    0    0 -0.22589208578E-01 -0.56949049305E-02  0.32685541779E-02  0.23524194625E-01  0.00000000000E+00 0.  1.
     999901    1    3    3    0    0  0.12647567516E-01 -0.30428964765E-01 -0.12688492819E+00  0.88971100244E+00  0.88000000000E+00 0.  1.
        -11    1    4    4    0    0  0.45900610442E-02  0.24914782296E-01  0.50193005105E-01  0.56226452135E-01  0.51100000000E-03 0.  1.
         11    1    4    4    0    0  0.53515800181E-02  0.11209087400E-01  0.73423368902E-01  0.74468350801E-01  0.51100000000E-03 0. -1.
</event>
<event>
 8    1  0.1191842E+005  0.1043930E+01  0.7957747E-01            NaN
         13   -1    0    0    0    0  0.00000000000E+00  0.00000000000E+00  0.74505805969E-08  0.10566000000E+00  0.10566000000E+00 0. -1.
     999900   -1    0    0    0    0 -0.00000000000E+00 -0.00000000000E+00 -0.74505805969E-08  0.93827000000E+00  0.93827000000E+00 0. -1.
     999902    2    1    2    0    0 -0.15124794814E-01  0.17656520355E-01  0.72271694480E-02  0.10195836634E+01  0.10192929424E+01 0.  0.
     999903    2    3    3    0    0 -0.31502119960E-01  0.51909835169E-01 -0.11373496669E+00  0.13049798429E+00  0.20175894235E-01 0.  0.
         14    1    1    2    0    0  0.15124794814E-01 -0.17656520355E-01 -0.72271694480E-02  0.24346336633E-01  0.00000000000E+00 0.  1.
     999901    1    3    3    0    0  0.16377325146E-01 -0.34253314813E-01  0.12096213614E+00  0.88908567907E+00  0.88000000000E+00 0.  1.
        -11    1    4    4    0    0  0.19084549071E-02  0.43846002515E-02 -0.16914013963E-01  0.17584422335E-01  0.51100000000E-03 0. -1.
         11    1    4    4    0    0 -0.33410574867E-01  0.47525234917E-01 -0.96820952724E-01  0.11291356196E+00  0.51100000000E-03 0.  1.
</event>
<event>
 8    1  0.1191842E+005  0.1043930E+01  0.7957747E-01            NaN
         13   -1    0    0    0    0  0.00000000000E+00  0.00000000000E+00  0.74505805969E-08  0.10566000000E+00  0.10566000000E+00 0. -1.
     999900   -1    0    0    0    0 -0.00000000000E+00 -0.00000000000E+00 -0.74505805969E-08  0.93827000000E+00  0.93827000000E+00 0.  1.
     999902    2    1    2    0    0 -0.13653303962E-01  0.18699395371E-01 -0.37956964928E-02  0.10204675319E+01  0.10201977731E+01 0.  0.
     999903    2    3    3    0    0  0.28714429445E-01 -0.10307992806E+00 -0.68706809539E-01  0.12870597128E+00  0.19864826638E-01 0.  0.
         14    1    1    2    0    0  0.13653303962E-01 -0.18699395371E-01  0.37956964928E-02  0.23462468075E-01  0.00000000000E+00 0. -1.
     999901    1    3    3    0    0 -0.42367733407E-01  0.12177932344E+00  0.64911113046E-01  0.89176156065E+00  0.88000000000E+00 0. -1.
        -11    1    4    4    0    0  0.93771855686E-03 -0.38697900579E-01 -0.24453722209E-01  0.45789217903E-01  0.51100000000E-03 0.  1.
         11    1    4    4    0    0  0.27776710889E-01 -0.64382027486E-01 -0.44253087331E-01  0.82916753375E-01  0.51100000000E-03 0. -1.
</event>
<event>
 8    1  0.1191842E+005  0.1043930E+01  0.7957747E-01            NaN
         13   -1    0    0    0    0  0.00000000000E+00  0.00000000000E+00  0.74505805969E-08  0.10566000000E+00  0.10566000000E+00 0.  1.
     999900   -1    0    0    0    0 -0.00000000000E+00 -0.00000000000E+00 -0.74505805969E-08  0.93827000000E+00  0.93827000000E+00 0. -1.
     999902    2    1    2    0    0 -0.25998074866E-02 -0.93075165017E-02 -0.21365622193E-01  0.10204805080E+01  0.10202110510E+01 0.  0.
     999903    2    3    3    0    0  0.13237803746E-01  0.80107639069E-01  0.96333253071E-01  0.12801262332E+00  0.22686180774E-01 0.  0.
         14    1    1    2    0    0  0.25998074866E-02  0.93075165017E-02  0.21365622193E-01  0.23449491979E-01  0.00000000000E+00 0.  1.
     999901    1    3    3    0    0 -0.15837611233E-01 -0.89415155570E-01 -0.11769887526E+00  0.89246788470E+00  0.88000000000E+00 0. -1.
        -11    1    4    4    0    0  0.19649292516E-01  0.55904626528E-01  0.68044408419E-01  0.90231505594E-01  0.51100000000E-03 0. -1.
         11    1    4    4    0    0 -0.64114887694E-02  0.24203012541E-01  0.28288844652E-01  0.37781117731E-01  0.51100000000E-03 0.  1.
</event>
<event>
 8    1  0.1191842E+005  0.1043930E+01  0.7957747E-01            NaN
         13   -1    0    0    0    0  0.00000000000E+00  0.00000000000E+00  0.74505805969E-08  0.10566000000E+00  0.10566000000E+00 0. -1.
     999900   -1    0    0    0    0 -0.00000000000E+00 -0.00000000000E+00 -0.74505805969E-08  0.93827000000E+00  0.93827000000E+00 0. -1.
     999902    2    1    2    0    0 -0.22403852686E-01  0.67328194094E-02 -0.48852067308E-02  0.10200317005E+01  0.10197517058E+01 0.  0.
     999903    2    3    3    0    0  0.95473654378E-01 -0.79602102156E-01  0.20745112581E-01  0.12761602462E+00  0.20094195587E-01 0.  0.
         14    1    1    2    0    0  0.22403852686E-01 -0.67328194094E-02  0.48852067308E-02  0.23898299462E-01  0.00000000000E+00 0. -1.
     999901    1    3    3    0    0 -0.11787750706E+00  0.86334921565E-01 -0.25630319312E-01  0.89241567592E+00  0.88000000000E+00 0. -1.
        -11    1    4    4    0    0  0.76769467563E-01 -0.53035019088E-01  0.12990835601E-01  0.94208743385E-01  0.51100000000E-03 0. -1.
         11    1    4    4    0    0  0.18704186815E-01 -0.26567083068E-01  0.77542769796E-02  0.33407281237E-01  0.51100000000E-03 0.  1.
</event>
<event>
 8    1  0.1191842E+005  0.1043930E+01  0.7957747E-01            NaN
         13   -1    0    0    0    0  0.00000000000E+00  0.00000000000E+00  0.74505805969E-08  0.10566000000E+00  0.10566000000E+00 0.  1.
     999900   -1    0    0    0    0 -0.00000000000E+00 -0.00000000000E+00 -0.74505805969E-08  0.93827000000E+00  0.93827000000E+00 0.  1.
     999902    2    1    2    0    0 -0.12694157945E-01 -0.15962613077E-01 -0.67225351362E-02  0.10224558495E+01  0.10222303190E+01 0.  0.
     999903    2    3    3    0    0 -0.15326148375E-01  0.10614505800E+00  0.71912751930E-01  0.13054737935E+00  0.19222648193E-01 0.  0.
         14    1    1    2    0    0  0.12694157945E-01  0.15962613077E-01  0.67225351362E-02  0.21474150526E-01  0.00000000000E+00 0.  1.
     999901    1    3    3    0    0  0.26319904307E-02 -0.12210767107E+00 -0.78635287066E-01  0.89190847012E+00  0.88000000000E+00 0.  1.
        -11    1    4    4    0    0 -0.17491581299E-01  0.95423924743E-01  0.58716821386E-01  0.11340020751E+00  0.51100000000E-03 0.  1.
         11    1    4    4    0    0  0.21654329237E-02  0.10721133254E-01  0.13195930544E-01  0.17147171834E-01  0.51100000000E-03 0. -1.
</event>
<event>
 8    1  0.1191842E+005  0.1043930E+01  0.7957747E-01            NaN
         13   -1    0    0    0    0  0.00000000000E+00  0.00000000000E+00  0.74505805969E-08  0.10566000000E+00  0.10566000000E+00 0.  1.
     999900   -1    0    0    0    0 -0.00000000000E+00 -0.00000000000E+00 -0.74505805969E-08  0.93827000000E+00  0.93827000000E+00 0.  1.
     999902    2    1    2    0    0 -0.22778640286E-01  0.34671817926E-02 -0.87378611049E-02  0.10192878000E+01  0.10189898828E+01 0.  0.
     999903    2    3    3    0    0  0.66634485067E-01 -0.90225075534E-01  0.56867747584E-01  0.12739260329E+00  0.20352292324E-01 0.  0.
         14    1    1    2    0    0  0.22778640286E-01 -0.34671817926E-02  0.87378611049E-02  0.24642199973E-01  0.00000000000E+00 0.  1.
     999901    1    3    3    0    0 -0.89413125352E-01  0.93692257326E-01 -0.65605608689E-01  0.89189519674E+00  0.88000000000E+00 0. -1.
        -11    1    4    4    0    0  0.53632000218E-01 -0.57084811525E-01  0.37112767035E-01  0.86675750659E-01  0.51100000000E-03 0. -1.
         11    1    4    4    0    0  0.13002484849E-01 -0.33140264009E-01  0.19754980549E-01  0.40716852632E-01  0.51100000000E-03 0.  1.
</event>
<event>
 8    1  0.1191842E+005  0.1043930E+01  0.7957747E-01            NaN
         13   -1    0    0    0    0  0.00000000000E+00  0.00000000000E+00  0.74505805969E-08  0.10566000000E+00  0.10566000000E+00 0.  1.
     999900   -1    0    0    0    0 -0.00000000000E+00 -0.00000000000E+00 -0.74505805969E-08  0.93827000000E+00  0.93827000000E+00 0. -1.
     999902    2    1    2    0    0 -0.84619562686E-02 -0.18441040300E-01  0.11031098950E-01  0.10208353726E+01  0.10205741012E+01 0.  0.
     999903    2    3    3    0    0  0.12627182633E+00 -0.20995267502E-01 -0.13997299991E-01  0.13022539229E+00  0.19425576143E-01 0.  0.
         14    1    1    2    0    0  0.84619562686E-02  0.18441040300E-01 -0.11031098950E-01  0.23094627412E-01  0.00000000000E+00 0. -1.
     999901    1    3    3    0    0 -0.13473378260E+00  0.25542272022E-02  0.25028398941E-01  0.89060998030E+00  0.88000000000E+00 0. -1.
        -11    1    4    4    0    0  0.88976985546E-02  0.28499397428E-02 -0.35124404205E-02  0.99944762150E-02  0.51100000000E-03 0. -1.
         11    1    4    4    0    0  0.11737412777E+00 -0.23845207245E-01 -0.10484859570E-01  0.12023091608E+00  0.51100000000E-03 0.  1.
</event>
<event>
 8    1  0.1191842E+005  0.1043930E+01  0.7957747E-01            NaN
         13   -1    0    0    0    0  0.00000000000E+00  0.00000000000E+00  0.74505805969E-08  0.10566000000E+00  0.10566000000E+00 0. -1.
     999900   -1    0    0    0    0 -0.00000000000E+00 -0.00000000000E+00 -0.74505805969E-08  0.93827000000E+00  0.93827000000E+00 0. -1.
     999902    2    1    2    0    0  0.28912877904E-03  0.17724126865E-02 -0.24034842810E-01  0.10198281596E+01  0.10195433176E+01 0.  0.
     999903    2    3    3    0    0  0.19754815821E-01 -0.81044111555E-01  0.94416887574E-01  0.12782574811E+00  0.21597973388E-01 0.  0.
         14    1    1    2    0    0 -0.28912877904E-03 -0.17724126865E-02  0.24034842810E-01  0.24101840409E-01  0.00000000000E+00 0. -1.
     999901    1    3    3    0    0 -0.19465687042E-01  0.82816524242E-01 -0.11845173038E+00  0.89200241148E+00  0.88000000000E+00 0. -1.
        -11    1    4    4    0    0  0.11299076409E-01 -0.30994729701E-01  0.23051927801E-01  0.40249160156E-01  0.51100000000E-03 0.  1.
         11    1    4    4    0    0  0.84557394119E-02 -0.50049381854E-01  0.71364959774E-01  0.87576587953E-01  0.51100000000E-03 0. -1.
</event>
<event>
 8    1  0.1191842E+005  0.1043930E+01  0.7957747E-01            NaN
         13   -1    0    0    0    0  0.00000000000E+00  0.00000000000E+00  0.74505805969E-08  0.10566000000E+00  0.10566000000E+00 0. -1.
     999900   -1    0    0    0    0 -0.00000000000E+00 -0.00000000000E+00 -0.74505805969E-08  0.93827000000E+00  0.93827000000E+00 0. -1.
     999902    2    1    2    0    0  0.17036825645E-01  0.10572789438E-01 -0.12625376134E-01  0.10202353291E+01  0.10199601411E+01 0.  0.
     999903    2    3    3    0    0  0.10581912240E-01  0.20266725114E-01  0.12559537116E+00  0.12937023651E+00  0.20970069686E-01 0.  0.
         14    1    1    2    0    0 -0.17036825645E-01 -0.10572789438E-01  0.12625376134E-01  0.23694670858E-01  0.00000000000E+00 0. -1.
     999901    1    3    3    0    0  0.64549134044E-02 -0.96939356766E-02 -0.13822074730E+00  0.89086509264E+00  0.88000000000E+00 0. -1.
        -11    1    4    4    0    0  0.73941328074E-02  0.22990502776E-01  0.79681359019E-01  0.83262335507E-01  0.51100000000E-03 0. -1.
         11    1    4    4    0    0  0.31877794328E-02 -0.27237776622E-02  0.45914012142E-01  0.46107900998E-01  0.51100000000E-03 0.  1.
</event>
<event>
 8    1  0.1191842E+005  0.1043930E+01  0.7957747E-01            NaN
         13   -1    0    0    0    0  0.00000000000E+00  0.00000000000E+00  0.74505805969E-08  0.10566000000E+00  0.10566000000E+00 0.  1.
     999900   -1    0    0    0    0 -0.00000000000E+00 -0.00000000000E+00 -0.74505805969E-08  0.93827000000E+00  0.93827000000E+00 0. -1.
     999902    2    1    2    0    0 -0.56375638532E-02 -0.77897703256E-02 -0.29316012683E-01  0.10130772652E+01  0.10126073543E+01 0.  0.
     999903    2    3    3    0    0 -0.11044892494E-01  0.64722277032E-01  0.98701734711E-01  0.12084647670E+00  0.23470741392E-01 0.  0.
         14    1    1    2    0    0  0.56375638532E-02  0.77897703256E-02  0.29316012683E-01  0.30852734847E-01  0.00000000000E+00 0.  1.
     999901    1    3    3    0    0  0.54073286403E-02 -0.72512047357E-01 -0.12801774739E+00  0.89223078845E+00  0.88000000000E+00 0. -1.
        -11    1    4    4    0    0 -0.11426070897E-01  0.11179772803E-01  0.19119971833E-01  0.24927431877E-01  0.51100000000E-03 0. -1.
         11    1    4    4    0    0  0.38117840368E-03  0.53542504228E-01  0.79581762878E-01  0.95919044823E-01  0.51100000000E-03 0.  1.
</event>
<event>
 8    1  0.1191842E+005  0.1043930E+01  0.7957747E-01            NaN
         13   -1    0    0    0    0  0.00000000000E+00  0.00000000000E+00  0.74505805969E-08  0.10566000000E+00  0.10566000000E+00 0.  1.
     999900   -1    0    0    0    0 -0.00000000000E+00 -0.00000000000E+00 -0.74505805969E-08  0.93827000000E+00  0.93827000000E+00 0.  1.
     999902    2    1    2    0    0  0.74147596936E-02  0.21946759008E-01  0.32765358895E-02  0.10205339623E+01  0.10202657466E+01 0.  0.
     999903    2    3    3    0    0 -0.11768581111E+00  0.34985980031E-01  0.38465649632E-01  0.13089445789E+00  0.24078703611E-01 0.  0.
         14    1    1    2    0    0 -0.74147596936E-02 -0.21946759008E-01 -0.32765358895E-02  0.23396037693E-01  0.00000000000E+00 0. -1.
     999901    1    3    3    0    0  0.12510057081E+00 -0.13039221022E-01 -0.35189113742E-01  0.88963950442E+00  0.88000000000E+00 0. -1.
        -11    1    4    4    0    0 -0.45506524399E-01  0.24673026988E-01  0.21358177700E-01  0.56000311600E-01  0.51100000000E-03 0. -1.
         11    1    4    4    0    0 -0.72179286714E-01  0.10312953043E-01  0.17107471932E-01  0.74894146286E-01  0.51100000000E-03 0.  1.
</event>
<event>
 8    1  0.1191842E+005  0.1043930E+01  0.7957747E-01            NaN
         13   -1    0    0    0    0  0.00000000000E+00  0.00000000000E+00  0.74505805969E-08  0.10566000000E+00  0.10566000000E+00 0. -1.
     999900   -1    0    0    0    0 -0.00000000000E+00 -0.00000000000E+00 -0.74505805969E-08  0.93827000000E+00  0.93827000000E+00 0.  1.
     999902    2    1    2    0    0  0.11216619165E-01  0.16572371554E-02  0.17498532113E-01  0.10230791581E+01  0.10228666610E+01 0.  0.
     999903    2    3    3    0    0 -0.10421882965E+00 -0.68209682065E-01  0.41321226804E-01  0.13247585136E+00  0.18118560321E-01 0.  0.
         14    1    1    2    0    0 -0.11216619165E-01 -0.16572371554E-02 -0.17498532113E-01  0.20850841868E-01  0.00000000000E+00 0.  1.
     999901    1    3    3    0    0  0.11543544882E+00  0.69866919220E-01 -0.23822694690E-01  0.89060330677E+00  0.88000000000E+00 0.  1.
        -11    1    4    4    0    0 -0.15678492327E-01 -0.64053677869E-02  0.11420233722E-01  0.20433470518E-01  0.51100000000E-03 0. -1.
         11    1    4    4    0    0 -0.88540337327E-01 -0.61804314278E-01  0.29900993082E-01  0.11204238085E+00  0.51100000000E-03 0.  1.
</event>
<event>
 8    1  0.1191842E+005  0.1043930E+01  0.7957747E-01            NaN
         13   -1    0    0    0    0  0.00000000000E+00  0.00000000000E+00  0.74505805969E-08  0.10566000000E+00  0.10566000000E+00 0. -1.
     999900   -1    0    0    0    0 -0.00000000000E+00 -0.00000000000E+00 -0.74505805969E-08  0.93827000000E+00  0.93827000000E+00 0.  1.
     999902    2    1    2    0    0  0.23525164281E-01  0.48159921266E-03  0.27203666318E-02  0.10202431748E+01  0.10199681711E+01 0.  0.
     999903    2    3    3    0    0  0.81297662309E-01 -0.21698901521E-01 -0.99954612807E-01  0.13211492533E+00  0.19577452609E-01 0.  0.
         14    1    1    2    0    0 -0.23525164281E-01 -0.48159921266E-03 -0.27203666318E-02  0.23686825174E-01  0.00000000000E+00 0. -1.
     999901    1    3    3    0    0 -0.57772498028E-01  0.22180500734E-01  0.10267497944E+00  0.88812824949E+00  0.88000000000E+00 0. -1.
        -11    1    4    4    0    0  0.29248392092E-01 -0.39937361858E-02 -0.22453119624E-01  0.37092075576E-01  0.51100000000E-03 0.  1.
         11    1    4    4    0    0  0.52049270217E-01 -0.17705165335E-01 -0.77501493183E-01  0.95022849758E-01  0.51100000000E-03 0. -1.
</event>
<event>
 8    1  0.1191842E+005  0.1043930E+01  0.7957747E-01            NaN
         13   -1    0    0    0    0  0.00000000000E+00  0.00000000000E+00  0.74505805969E-08  0.10566000000E+00  0.10566000000E+00 0. -1.
     999900   -1    0    0    0    0 -0.00000000000E+00 -0.00000000000E+00 -0.74505805969E-08  0.93827000000E+00  0.93827000000E+00 0. -1.
     999902    2    1    2    0    0 -0.35362847470E-02  0.11923892301E-01  0.20367133923E-01  0.10200657032E+01  0.10197865140E+01 0.  0.
     999903    2    3    3    0    0 -0.95433968867E-01  0.84694824708E-01  0.28791443244E-01  0.13225279389E+00  0.19519183950E-01 0.  0.
         14    1    1    2    0    0  0.35362847470E-02 -0.11923892301E-01 -0.20367133923E-01  0.23864296798E-01  0.00000000000E+00 0. -1.
     999901    1    3    3    0    0  0.91897684120E-01 -0.72770932408E-01 -0.84243093206E-02  0.88781290931E+00  0.88000000000E+00 0.  1.
        -11    1    4    4    0    0 -0.58169424117E-01  0.62842292706E-01  0.22964686432E-01  0.88659311968E-01  0.51100000000E-03 0. -1.
         11    1    4    4    0    0 -0.37264544750E-01  0.21852532002E-01  0.58267568116E-02  0.43593481924E-01  0.51100000000E-03 0.  1.
</event>
<event>
 8    1  0.1191842E+005  0.1043930E+01  0.7957747E-01            NaN
         13   -1    0    0    0    0  0.00000000000E+00  0.00000000000E+00  0.74505805969E-08  0.10566000000E+00  0.10566000000E+00 0. -1.
     999900   -1    0    0    0    0 -0.00000000000E+00 -0.00000000000E+00 -0.74505805969E-08  0.93827000000E+00  0.93827000000E+00 0. -1.
     999902    2    1    2    0    0 -0.92836611575E-02  0.16359688595E-01 -0.14910166432E-01  0.10199271077E+01  0.10196446274E+01 0.  0.
     999903    2    3    3    0    0  0.22591121314E-01  0.90906060448E-01  0.88102794437E-01  0.13021657421E+00  0.20493492186E-01 0.  0.
         14    1    1    2    0    0  0.92836611575E-02 -0.16359688595E-01  0.14910166432E-01  0.24002892293E-01  0.00000000000E+00 0. -1.
     999901    1    3    3    0    0 -0.31874782472E-01 -0.74546371853E-01 -0.10301296087E+00  0.88971053350E+00  0.88000000000E+00 0. -1.
        -11    1    4    4    0    0 -0.27221043256E-02  0.16534516508E-01  0.21192696548E-01  0.27022057584E-01  0.51100000000E-03 0.  1.
         11    1    4    4    0    0  0.25313225640E-01  0.74371543941E-01  0.66910097889E-01  0.10319451662E+00  0.51100000000E-03 0. -1.
</event>
<event>
 8    1  0.1191842E+005  0.1043930E+01  0.7957747E-01            NaN
         13   -1    0    0    0    0  0.00000000000E+00  0.00000000000E+00  0.74505805969E-08  0.10566000000E+00  0.10566000000E+00 0. -1.
     999900   -1    0    0    0    0 -0.00000000000E+00 -0.00000000000E+00 -0.74505805969E-08  0.93827000000E+00  0.93827000000E+00 0.  1.
     999902    2    1    2    0    0  0.96440142431E-02  0.20659368816E-01 -0.13075193801E-01  0.10176473589E+01  0.10173079032E+01 0.  0.
     999903    2    3    3    0    0 -0.82789909770E-01 -0.47734546761E-01  0.78809459109E-01  0.12542286504E+00  0.19677604404E-01 0.  0.
         14    1    1    2    0    0 -0.96440142431E-02 -0.20659368816E-01  0.13075193801E-01  0.26282641106E-01  0.00000000000E+00 0. -1.
     999901    1    3    3    0    0  0.92433924013E-01  0.68393915577E-01 -0.91884652909E-01  0.89222449386E+00  0.88000000000E+00 0.  1.
        -11    1    4    4    0    0 -0.38904338588E-01 -0.33206844124E-01  0.37501806804E-01  0.63426246083E-01  0.51100000000E-03 0.  1.
         11    1    4    4    0    0 -0.43885571182E-01 -0.14527702637E-01  0.41307652304E-01  0.61996618954E-01  0.51100000000E-03 0. -1.
</event>
<event>
 8    1  0.1191842E+005  0.1043930E+01  0.7957747E-01            NaN
         13   -1    0    0    0    0  0.00000000000E+00  0.00000000000E+00  0.74505805969E-08  0.10566000000E+00  0.10566000000E+00 0. -1.
     999900   -1    0    0    0    0 -0.00000000000E+00 -0.00000000000E+00 -0.74505805969E-08  0.93827000000E+00  0.93827000000E+00 0. -1.
     999902    2    1    2    0    0  0.18759846321E-01 -0.74223288553E-02 -0.10001146179E-01  0.10214123242E+01  0.10211640859E+01 0.  0.
     999903    2    3    3    0    0 -0.93351383914E-01 -0.88897514911E-01 -0.53332023176E-02  0.13055379243E+00  0.19964985207E-01 0.  0.
         14    1    1    2    0    0 -0.18759846321E-01  0.74223288553E-02  0.10001146179E-01  0.22517675824E-01  0.00000000000E+00 0. -1.
     999901    1    3    3    0    0  0.11211123024E+00  0.81475186056E-01 -0.46679438616E-02  0.89085853175E+00  0.88000000000E+00 0. -1.
        -11    1    4    4    0    0 -0.44031760508E-01 -0.29290078553E-01 -0.56348452460E-02  0.53185686392E-01  0.51100000000E-03 0.  1.
         11    1    4    4    0    0 -0.49319623407E-01 -0.59607436358E-01  0.30164292842E-03  0.77368106036E-01  0.51100000000E-03 0. -1.
</event>
<event>
 8    1  0.1191842E+005  0.1043930E+01  0.7957747E-01            NaN
         13   -1    0    0    0    0  0.00000000000E+00  0.00000000000E+00  0.74505805969E-08  0.10566000000E+00  0.10566000000E+00 0.  1.
     999900   -1    0    0    0    0 -0.00000000000E+00 -0.00000000000E+00 -0.74505805969E-08  0.93827000000E+00  0.93827000000E+00 0.  1.
     999902    2    1    2    0    0 -0.78334268568E-02  0.11610377325E-01 -0.17059152712E-01  0.10218578880E+01  0.10216194816E+01 0.  0.
     999903    2    3    3    0    0 -0.11757849625E+00 -0.52843293306E-01 -0.24138608253E-01  0.13267378184E+00  0.20063488003E-01 0.  0.
         14    1    1    2    0    0  0.78334268568E-02 -0.11610377325E-01  0.17059152712E-01  0.22072112024E-01  0.00000000000E+00 0.  1.
     999901    1    3    3    0    0  0.10974506940E+00  0.64453670631E-01  0.70794555415E-02  0.88918410614E+00  0.88000000000E+00 0. -1.
        -11    1    4    4    0    0 -0.45602143402E-01 -0.22940338443E-01 -0.19316911123E-01  0.54582220431E-01  0.51100000000E-03 0.  1.
         11    1    4    4    0    0 -0.71976352851E-01 -0.29902954862E-01 -0.48216971299E-02  0.78091561409E-01  0.51100000000E-03 0. -1.
</event>
<event>
 8    1  0.1191842E+005  0.1043930E+01  0.7957747E-01            NaN
         13   -1    0    0    0    0  0.00000000000E+00  0.00000000000E+00  0.74505805969E-08  0.10566000000E+00  0.10566000000E+00 0. -1.
     999900   -1    0    0    0    0 -0.00000000000E+00 -0.00000000000E+00 -0.74505805969E-08  0.93827000000E+00  0.93827000000E+00 0. -1.
     999902    2    1    2    0    0 -0.29845763040E-02  0.23573597532E-01  0.51286063523E-02  0.10196210552E+01  0.10193312373E+01 0.  0.
     999903    2    3    3    0    0  0.11434822100E+00 -0.33757742281E-01 -0.47188659806E-01  0.12844713039E+00  0.75362378798E-02 0.  0.
         14    1    1    2    0    0  0.29845763040E-02 -0.23573597532E-01 -0.51286063523E-02  0.24308944844E-01  0.00000000000E+00 0. -1.
     999901    1    3    3    0    0 -0.11733279730E+00  0.57331339813E-01  0.52317266158E-01  0.89117392477E+00  0.88000000000E+00 0.  1.
        -11    1    4    4    0    0  0.16523106218E-01 -0.36196301761E-02 -0.91994379679E-02  0.19261504137E-01  0.51100000000E-03 0.  1.
         11    1    4    4    0    0  0.97825114781E-01 -0.30138112105E-01 -0.37989221838E-01  0.10918562625E+00  0.51100000000E-03 0. -1.
</event>
<event>
 8    1  0.1191842E+005  0.1043930E+01  0.7957747E-01            NaN
         13   -1    0    0    0    0  0.00000000000E+00  0.00000000000E+00  0.74505805969E-08  0.10566000000E+00  0.10566000000E+00 0.  1.
     999900   -1    0    0    0    0 -0.00000000000E+00 -0.00000000000E+00 -0.74505805969E-08  0.93827000000E+00  0.93827000000E+00 0.  1.
     999902    2    1    2    0    0  0.20529095294E-01  0.11206129063E-01  0.13443761252E-02  0.10205029125E+01  0.10202339761E+01 0.  0.
     999903    2    3    3    0    0  0.50529915344E-01  0.11557350398E+00  0.37293112933E-01  0.13309944741E+00  0.20351399489E-01 0.  0.
         14    1    1    2    0    0 -0.20529095294E-01 -0.11206129063E-01 -0.13443761252E-02  0.23427087513E-01  0.00000000000E+00 0. -1.
     999901    1    3    3    0    0 -0.30000820049E-01 -0.10436737492E+00 -0.35948736808E-01  0.88740346508E+00  0.88000000000E+00 0.  1.
        -11    1    4    4    0    0  0.77154094181E-02  0.28127219977E-01  0.16583545545E-01  0.33555076367E-01  0.51100000000E-03 0.  1.
         11    1    4    4    0    0  0.42814505925E-01  0.87446284006E-01  0.20709567389E-01  0.99544371044E-01  0.51100000000E-03 0. -1.
</event>
<event>
 8    1  0.1191842E+005  0.1043930E+01  0.7957747E-01            NaN
         13   -1    0    0    0    0  0.00000000000E+00  0.00000000000E+00  0.74505805969E-08  0.10566000000E+00  0.10566000000E+00 0. -1.
     999900   -1    0    0    0    0 -0.00000000000E+00 -0.00000000000E+00 -0.74505805969E-08  0.93827000000E+00  0.93827000000E+00 0. -1.
     999902    2    1    2    0    0 -0.21276751267E-01 -0.19485160700E-02  0.11723851786E-01  0.10195590017E+01  0.10192676843E+01 0.  0.
     999903    2    3    3    0    0  0.76044559505E-01  0.85591338172E-01 -0.52381256024E-01  0.12757014049E+00  0.20535154260E-01 0.  0.
         14    1    1    2    0    0  0.21276751267E-01  0.19485160700E-02 -0.11723851786E-01  0.24370998340E-01  0.00000000000E+00 0.  1.
     999901    1    3    3    0    0 -0.97321310773E-01 -0.87539854242E-01  0.64105107810E-01  0.89198886117E+00  0.88000000000E+00 0.  1.
        -11    1    4    4    0    0  0.22628518020E-02  0.11576114036E-01 -0.49929651077E-02  0.12818647979E-01  0.51100000000E-03 0. -1.
         11    1    4    4    0    0  0.73781707703E-01  0.74015224137E-01 -0.47388290916E-01  0.11475149251E+00  0.51100000000E-03 0.  1.
</event>
<event>
 8    1  0.1191842E+005  0.1043930E+01  0.7957747E-01            NaN
         13   -1    0    0    0    0  0.00000000000E+00  0.00000000000E+00  0.74505805969E-08  0.10566000000E+00  0.10566000000E+00 0.  1.
     999900   -1    0    0    0    0 -0.00000000000E+00 -0.00000000000E+00 -0.74505805969E-08  0.93827000000E+00  0.93827000000E+00 0.  1.
     999902    2    1    2    0    0  0.20245868437E-01  0.56986635476E-02  0.97243243028E-02  0.10207581973E+01  0.10204951568E+01 0.  0.
     999903    2    3    3    0    0  0.57163537946E-01 -0.11224951357E+00 -0.30781712911E-01  0.13119907854E+00  0.19951465889E-01 0.  0.
         14    1    1    2    0    0 -0.20245868437E-01 -0.56986635476E-02 -0.97243243028E-02  0.23171802652E-01  0.00000000000E+00 0. -1.
     999901    1    3    3    0    0 -0.36917669509E-01  0.11794817712E+00  0.40506037214E-01  0.88955911881E+00  0.88000000000E+00 0.  1.
        -11    1    4    4    0    0  0.80192566761E-02 -0.24516697263E-01 -0.13653628269E-01  0.29190060093E-01  0.51100000000E-03 0. -1.
         11    1    4    4    0    0  0.49144281270E-01 -0.87732816312E-01 -0.17128084641E-01  0.10200901844E+00  0.51100000000E-03 0.  1.
</event>
<event>
 8    1  0.1191842E+005  0.1043930E+01  0.7957747E-01            NaN
         13   -1    0    0    0    0  0.00000000000E+00  0.00000000000E+00  0.74505805969E-08  0.10566000000E+00  0.10566000000E+00 0.  1.
     999900   -1    0    0    0    0 -0.00000000000E+00 -0.00000000000E+00 -0.74505805969E-08  0.93827000000E+00  0.93827000000E+00 0.  1.
     999902    2    1    2    0    0  0.11281606428E-01  0.18360538376E-01  0.87645020881E-02  0.10206662834E+01  0.10204011278E+01 0.  0.
     999903    2    3    3    0    0  0.38852046971E-01 -0.98801411495E-01 -0.70286729340E-01  0.12896221316E+00  0.20489695841E-01 0.  0.
         14    1    1    2    0    0 -0.11281606428E-01 -0.18360538376E-01 -0.87645020881E-02  0.23263716597E-01  0.00000000000E+00 0.  1.
     999901    1    3    3    0    0 -0.27570440543E-01  0.11716194987E+00  0.79051231428E-01  0.89170407024E+00  0.88000000000E+00 0. -1.
        -11    1    4    4    0    0  0.68208145930E-02 -0.44796045480E-01 -0.28309857587E-01  0.53431436065E-01  0.51100000000E-03 0. -1.
         11    1    4    4    0    0  0.32031232378E-01 -0.54005366015E-01 -0.41976871753E-01  0.75530777099E-01  0.51100000000E-03 0.  1.
</event>
<event>
 8    1  0.1191842E+005  0.1043930E+01  0.7957747E-01            NaN
         13   -1    0    0    0    0  0.00000000000E+00  0.00000000000E+00  0.74505805969E-08  0.10566000000E+00  0.10566000000E+00 0.  1.
     999900   -1    0    0    0    0 -0.00000000000E+00 -0.00000000000E+00 -0.74505805969E-08  0.93827000000E+00  0.93827000000E+00 0. -1.
     999902    2    1    2    0    0  0.20388548936E-01 -0.70510628074E-02  0.11748440526E-01  0.10193650602E+01  0.10190690308E+01 0.  0.
     999903    2    3    3    0    0 -0.46914582722E-01  0.10640996305E+00 -0.48221759895E-01  0.12751331191E+00  0.20254586636E-01 0.  0.
         14    1    1    2    0    0 -0.20388548936E-01  0.70510628074E-02 -0.11748440526E-01  0.24564939838E-01  0.00000000000E+00 0. -1.
     999901    1    3    3    0    0  0.67303131658E-01 -0.11346102585E+00  0.59970200421E-01  0.89185174825E+00  0.88000000000E+00 0.  1.
        -11    1    4    4    0    0 -0.12914340757E-01  0.49466821687E-01 -0.27351367590E-01  0.57983662139E-01  0.51100000000E-03 0. -1.
         11    1    4    4    0    0 -0.34000241965E-01  0.56943141360E-01 -0.20870392305E-01  0.69529649773E-01  0.51100000000E-03 0.  1.
</event>
<event>
 8    1  0.1265365E+005  0.1043930E+01  0.7957747E-01            NaN
         13   -1    0    0    0    0  0.00000000000E+00  0.00000000000E+00  0.74505805969E-08  0.10566000000E+00  0.10566000000E+00 0. -1.
     999900   -1    0    0    0    0 -0.00000000000E+00 -0.00000000000E+00 -0.74505805969E-08  0.93827000000E+00  0.93827000000E+00 0. -1.
     999902    2    1    2    0    0  0.15552866063E-01 -0.20458980186E-01 -0.19175022678E-02  0.10181591186E+01  0.10178329197E+01 0.  0.
     999903    2    3    3    0    0  0.11574901027E+00  0.34137306503E-02  0.56208372926E-01  0.13024707848E+00  0.19885505503E-01 0.  0.
         14    1    1    2    0    0 -0.15552866063E-01  0.20458980186E-01  0.19175022678E-02  0.25770881397E-01  0.00000000000E+00 0.  1.
     999901    1    3    3    0    0 -0.10019614421E+00 -0.23872710836E-01 -0.58125875194E-01  0.88791204013E+00  0.88000000000E+00 0.  1.
        -11    1    4    4    0    0  0.47219171727E-01 -0.48244918891E-02  0.31332341403E-01  0.56876204509E-01  0.51100000000E-03 0. -1.
         11    1    4    4    0    0  0.68529838542E-01  0.82382225395E-02  0.24876031523E-01  0.73370873966E-01  0.51100000000E-03 0.  1.
</event>
<event>
 8    1  0.1191842E+005  0.1043930E+01  0.7957747E-01            NaN
         13   -1    0    0    0    0  0.00000000000E+00  0.00000000000E+00  0.74505805969E-08  0.10566000000E+00  0.10566000000E+00 0.  1.
     999900   -1    0    0    0    0 -0.00000000000E+00 -0.00000000000E+00 -0.74505805969E-08  0.93827000000E+00  0.93827000000E+00 0. -1.
     999902    2    1    2    0    0  0.95970751417E-02 -0.18593951610E-01 -0.28777471042E-04  0.10230053801E+01  0.10227913610E+01 0.  0.
     999903    2    3    3    0    0 -0.38390525254E-01  0.23887333488E-01 -0.12282670244E+00  0.13217049099E+00  0.18390288884E-01 0.  0.
         14    1    1    2    0    0 -0.95970751417E-02  0.18593951610E-01  0.28777471042E-04  0.20924619851E-01  0.00000000000E+00 0. -1.
     999901    1    3    3    0    0  0.47987600396E-01 -0.42481285098E-01  0.12279792497E+00  0.89083488916E+00  0.88000000000E+00 0.  1.
        -11    1    4    4    0    0 -0.14416305540E-01  0.85850134530E-02 -0.71940460875E-01  0.73873021824E-01  0.51100000000E-03 0.  1.
         11    1    4    4    0    0 -0.23974219714E-01  0.15302320035E-01 -0.50886241562E-01  0.58297469162E-01  0.51100000000E-03 0. -1.
</event>
<event>
 8    1  0.1191842E+005  0.1043930E+01  0.7957747E-01            NaN
         13   -1    0    0    0    0  0.00000000000E+00  0.00000000000E+00  0.74505805969E-08  0.10566000000E+00  0.10566000000E+00 0.  1.
     999900   -1    0    0    0    0 -0.00000000000E+00 -0.00000000000E+00 -0.74505805969E-08  0.93827000000E+00  0.93827000000E+00 0. -1.
     999902    2    1    2    0    0  0.62591299247E-02  0.12244670795E-01  0.20952384265E-01  0.10188678557E+01  0.10185595693E+01 0.  0.
     999903    2    3    3    0    0 -0.12448047730E+00  0.27325382338E-01  0.16265777803E-02  0.12887136158E+00  0.19055611555E-01 0.  0.
         14    1    1    2    0    0 -0.62591299247E-02 -0.12244670795E-01 -0.20952384265E-01  0.25062144295E-01  0.00000000000E+00 0. -1.
     999901    1    3    3    0    0  0.13073960722E+00 -0.15080711543E-01  0.19325806485E-01  0.88999649412E+00  0.88000000000E+00 0.  1.
        -11    1    4    4    0    0 -0.98816512562E-01  0.27541817827E-01 -0.37153985250E-02  0.10265145002E+00  0.51100000000E-03 0. -1.
         11    1    4    4    0    0 -0.25663964737E-01 -0.21643548892E-03  0.53419763053E-02  0.26219911559E-01  0.51100000000E-03 0.  1.
</event>
<event>
 8    1  0.1191842E+005  0.1043930E+01  0.7957747E-01            NaN
         13   -1    0    0    0    0  0.00000000000E+00  0.00000000000E+00  0.74505805969E-08  0.10566000000E+00  0.10566000000E+00 0. -1.
     999900   -1    0    0    0    0 -0.00000000000E+00 -0.00000000000E+00 -0.74505805969E-08  0.93827000000E+00  0.93827000000E+00 0. -1.
     999902    2    1    2    0    0 -0.15036603664E-01  0.15151877230E-01  0.88230173345E-02  0.10208318514E+01  0.10205704995E+01 0.  0.
     999903    2    3    3    0    0 -0.26884277463E-01 -0.15002784138E-01 -0.12504029201E+00  0.13011918362E+00  0.18656886490E-01 0.  0.
         14    1    1    2    0    0  0.15036603664E-01 -0.15151877230E-01 -0.88230173345E-02  0.23098148589E-01  0.00000000000E+00 0.  1.
     999901    1    3    3    0    0  0.11847673799E-01  0.30154661368E-01  0.13386330934E+00  0.89071266779E+00  0.88000000000E+00 0.  1.
        -11    1    4    4    0    0  0.14355708137E-03 -0.59155105729E-02 -0.39647684686E-01  0.40090072286E-01  0.51100000000E-03 0.  1.
         11    1    4    4    0    0 -0.27027834544E-01 -0.90872735651E-02 -0.85392607323E-01  0.90029111333E-01  0.51100000000E-03 0. -1.
</event>
<event>
 8    1  0.1191842E+005  0.1043930E+01  0.7957747E-01            NaN
         13   -1    0    0    0    0  0.00000000000E+00  0.00000000000E+00  0.74505805969E-08  0.10566000000E+00  0.10566000000E+00 0. -1.
     999900   -1    0    0    0    0 -0.00000000000E+00 -0.00000000000E+00 -0.74505805969E-08  0.93827000000E+00  0.93827000000E+00 0.  1.
     999902    2    1    2    0    0 -0.22792732282E-02 -0.23121638040E-01 -0.32515569722E-02  0.10204698667E+01  0.10202001622E+01 0.  0.
     999903    2    3    3    0    0 -0.12677748452E+00 -0.54955529436E-02  0.24932298929E-01  0.13108535298E+00  0.21424718250E-01 0.  0.
         14    1    1    2    0    0  0.22792732282E-02  0.23121638040E-01  0.32515569722E-02  0.23460133309E-01  0.00000000000E+00 0.  1.
     999901    1    3    3    0    0  0.12449821130E+00 -0.17626085097E-01 -0.28183855901E-01  0.88938451371E+00  0.88000000000E+00 0. -1.
        -11    1    4    4    0    0 -0.55332069287E-01 -0.75198231901E-02  0.14884718903E-02  0.55862888414E-01  0.51100000000E-03 0. -1.
         11    1    4    4    0    0 -0.71445415238E-01  0.20242702466E-02  0.23443827039E-01  0.75222464568E-01  0.51100000000E-03 0.  1.
</event>
<event>
 8    1  0.1191842E+005  0.1043930E+01  0.7957747E-01            NaN
         13   -1    0    0    0    0  0.00000000000E+00  0.00000000000E+00  0.74505805969E-08  0.10566000000E+00  0.10566000000E+00 0. -1.
     999900   -1    0    0    0    0 -0.00000000000E+00 -0.00000000000E+00 -0.74505805969E-08  0.93827000000E+00  0.93827000000E+00 0.  1.
     999902    2    1    2    0    0  0.55635526859E-02 -0.21197138218E-01 -0.10618230924E-01  0.10195780265E+01  0.10192871693E+01 0.  0.
     999903    2    3    3    0    0  0.10531823702E+00 -0.75485083748E-01  0.15152445871E-01  0.13190561737E+00  0.19482462910E-01 0.  0.
         14    1    1    2    0    0 -0.55635526859E-02  0.21197138218E-01  0.10618230924E-01  0.24351973535E-01  0.00000000000E+00 0.  1.
     999901    1    3    3    0    0 -0.99754684338E-01  0.54287945530E-01 -0.25770676795E-01  0.88767240909E+00  0.88000000000E+00 0. -1.
        -11    1    4    4    0    0  0.58544884164E-01 -0.41745312241E-01  0.18122887122E-01  0.74154397810E-01  0.51100000000E-03 0. -1.
         11    1    4    4    0    0  0.46773352859E-01 -0.33739771507E-01 -0.29704412511E-02  0.57751219565E-01  0.51100000000E-03 0.  1.
</event>
<event>
 8    1  0.1191842E+005  0.1043930E+01  0.7957747E-01            NaN
         13   -1    0    0    0    0  0.00000000000E+00  0.00000000000E+00  0.74505805969E-08  0.10566000000E+00  0.10566000000E+00 0. -1.
     999900   -1    0    0    0    0 -0.00000000000E+00 -0.00000000000E+00 -0.74505805969E-08  0.93827000000E+00  0.93827000000E+00 0. -1.
     999902    2    1    2    0    0  0.13243744298E-01  0.53947009225E-03 -0.21432473975E-01  0.10187300252E+01  0.10184182959E+01 0.  0.
     999903    2    3    3    0    0  0.19096260497E-01  0.92075623742E-01  0.84141044075E-01  0.12768631856E+00  0.19531845699E-01 0.  0.
         14    1    1    2    0    0 -0.13243744298E-01 -0.53947009225E-03  0.21432473975E-01  0.25199974835E-01  0.00000000000E+00 0. -1.
     999901    1    3    3    0    0 -0.58525161992E-02 -0.91536153649E-01 -0.10557351805E+00  0.89104370661E+00  0.88000000000E+00 0. -1.
        -11    1    4    4    0    0  0.56782478500E-02  0.69779018983E-01  0.61770976736E-01  0.93366314465E-01  0.51100000000E-03 0. -1.
         11    1    4    4    0    0  0.13418012647E-01  0.22296604759E-01  0.22370067339E-01  0.34320004093E-01  0.51100000000E-03 0.  1.
</event>
<event>
 8    1  0.1191842E+005  0.1043930E+01  0.7957747E-01            NaN
         13   -1    0    0    0    0  0.00000000000E+00  0.00000000000E+00  0.74505805969E-08  0.10566000000E+00  0.10566000000E+00 0. -1.
     999900   -1    0    0    0    0 -0.00000000000E+00 -0.00000000000E+00 -0.74505805969E-08  0.93827000000E+00  0.93827000000E+00 0.  1.
     999902    2    1    2    0    0  0.72572535261E-02 -0.21933128978E-01 -0.11783574758E-01  0.10179958042E+01  0.10176654042E+01 0.  0.
     999903    2    3    3    0    0  0.38528757525E-01  0.10731812881E+00 -0.52317548300E-01  0.12708234177E+00  0.20276829209E-01 0.  0.
         14    1    1    2    0    0 -0.72572535261E-02  0.21933128978E-01  0.11783574758E-01  0.25934195758E-01  0.00000000000E+00 0.  1.
     999901    1    3    3    0    0 -0.31271503999E-01 -0.12925125779E+00  0.40533973542E-01  0.89091346247E+00  0.88000000000E+00 0. -1.
        -11    1    4    4    0    0  0.10198249451E-01  0.35578334788E-01 -0.71532199180E-02  0.37699494351E-01  0.51100000000E-03 0. -1.
         11    1    4    4    0    0  0.28330508074E-01  0.71739794020E-01 -0.45164328382E-01  0.89382847420E-01  0.51100000000E-03 0.  1.
</event>
<event>
 8    1  0.1191842E+005  0.1043930E+01  0.7957747E-01            NaN
         13   -1    0    0    0    0  0.00000000000E+00  0.00000000000E+00  0.74505805969E-08  0.10566000000E+00  0.10566000000E+00 0.  1.
     999900   -1    0    0    0    0 -0.00000000000E+00 -0.00000000000E+00 -0.74505805969E-08  0.93827000000E+00  0.93827000000E+00 0.  1.
     999902    2    1    2    0    0 -0.29610282507E-02 -0.17980315654E-02 -0.24425093000E-01  0.10192604687E+01  0.10189618822E+01 0.  0.
     999903    2    3    3    0    0  0.40239168373E-01  0.11707302434E+00  0.29944314258E-01  0.12855702908E+00  0.17463220519E-01 0.  0.
         14    1    1    2    0    0  0.29610282507E-02  0.17980315654E-02  0.24425093000E-01  0.24669531286E-01  0.00000000000E+00 0.  1.
     999901    1    3    3    0    0 -0.43200196624E-01 -0.11887105591E+00 -0.54369407259E-01  0.89070343963E+00  0.88000000000E+00 0. -1.
        -11    1    4    4    0    0  0.73009267677E-02  0.24010039300E-01 -0.93736125274E-03  0.25118226171E-01  0.51100000000E-03 0. -1.
         11    1    4    4    0    0  0.32938241605E-01  0.93062985042E-01  0.30881675511E-01  0.10343880291E+00  0.51100000000E-03 0.  1.
</event>
<event>
 8    1  0.1191842E+005  0.1043930E+01  0.7957747E-01            NaN
         13   -1    0    0    0    0  0.00000000000E+00  0.00000000000E+00  0.74505805969E-08  0.10566000000E+00  0.10566000000E+00 0. -1.
     999900   -1    0    0    0    0 -0.00000000000E+00 -0.00000000000E+00 -0.74505805969E-08  0.93827000000E+00  0.93827000000E+00 0.  1.
     999902    2    1    2    0    0  0.13920049553E-01 -0.15772424905E-01 -0.10416111660E-01  0.10204559175E+01  0.10201858885E+01 0.  0.
     999903    2    3    3    0    0  0.11371377538E+00  0.62332138606E-01 -0.36617017962E-02  0.13135258683E+00  0.20590672509E-01 0.  0.
         14    1    1    2    0    0 -0.13920049553E-01  0.15772424905E-01  0.10416111660E-01  0.23474082496E-01  0.00000000000E+00 0. -1.
     999901    1    3    3    0    0 -0.99793725824E-01 -0.78104563510E-01 -0.67544098637E-02  0.88910333067E+00  0.88000000000E+00 0. -1.
        -11    1    4    4    0    0  0.18143538416E-01  0.18640059965E-01 -0.36147851415E-02  0.26267234616E-01  0.51100000000E-03 0.  1.
         11    1    4    4    0    0  0.95570236961E-01  0.43692078641E-01 -0.46916654728E-04  0.10508535222E+00  0.51100000000E-03 0. -1.
</event>
<event>
 8    1  0.1191842E+005  0.1043930E+01  0.7957747E-01            NaN
         13   -1    0    0    0    0  0.00000000000E+00  0.00000000000E+00  0.74505805969E-08  0.10566000000E+00  0.10566000000E+00 0.  1.
     999900   -1    0    0    0    0 -0.00000000000E+00 -0.00000000000E+00 -0.74505805969E-08  0.93827000000E+00  0.93827000000E+00 0. -1.
     999902    2    1    2    0    0 -0.15683678143E-02  0.15306317548E-01 -0.20034112141E-01  0.10186691848E+01  0.10183559296E+01 0.  0.
     999903    2    3    3    0    0 -0.51529310992E-01  0.10873628056E+00 -0.49863784582E-01  0.13181234000E+00  0.20229863152E-01 0.  0.
         14    1    1    2    0    0  0.15683678143E-02 -0.15306317548E-01  0.20034112141E-01  0.25260815184E-01  0.00000000000E+00 0.  1.
     999901    1    3    3    0    0  0.49960943178E-01 -0.93429963012E-01  0.29829672440E-01  0.88685684481E+00  0.88000000000E+00 0.  1.
        -11    1    4    4    0    0 -0.32560711829E-01  0.47104551921E-01 -0.27792196268E-01  0.63653012976E-01  0.51100000000E-03 0. -1.
         11    1    4    4    0    0 -0.18968599163E-01  0.61631728639E-01 -0.22071588313E-01  0.68159327028E-01  0.51100000000E-03 0.  1.
</event>
<event>
 8    1  0.1191842E+005  0.1043930E+01  0.7957747E-01            NaN
         13   -1    0    0    0    0  0.00000000000E+00  0.00000000000E+00  0.74505805969E-08  0.10566000000E+00  0.10566000000E+00 0.  1.
     999900   -1    0    0    0    0 -0.00000000000E+00 -0.00000000000E+00 -0.74505805969E-08  0.93827000000E+00  0.93827000000E+00 0.  1.
     999902    2    1    2    0    0  0.28836967742E-02  0.23167033301E-01  0.42686335546E-03  0.10205802816E+01  0.10203131391E+01 0.  0.
     999903    2    3    3    0    0 -0.59423237477E-01 -0.93368401305E-01  0.62226596628E-01  0.12857026558E+00  0.20233248580E-01 0.  0.
         14    1    1    2    0    0 -0.28836967742E-02 -0.23167033301E-01 -0.42686335546E-03  0.23349718444E-01  0.00000000000E+00 0. -1.
     999901    1    3    3    0    0  0.62306934251E-01  0.11653543461E+00 -0.61799733273E-01  0.89201001598E+00  0.88000000000E+00 0. -1.
        -11    1    4    4    0    0 -0.51717193188E-01 -0.72375894477E-01  0.56832412677E-01  0.10556098912E+00  0.51100000000E-03 0.  1.
         11    1    4    4    0    0 -0.77060442884E-02 -0.20992506828E-01  0.53941839508E-02  0.23009276455E-01  0.51100000000E-03 0. -1.
</event>
<event>
 8    1  0.1191842E+005  0.1043930E+01  0.7957747E-01            NaN
         13   -1    0    0    0    0  0.00000000000E+00  0.00000000000E+00  0.74505805969E-08  0.10566000000E+00  0.10566000000E+00 0.  1.
     999900   -1    0    0    0    0 -0.00000000000E+00 -0.00000000000E+00 -0.74505805969E-08  0.93827000000E+00  0.93827000000E+00 0. -1.
     999902    2    1    2    0    0  0.12311792497E-01  0.15857124572E-01 -0.12064359011E-01  0.10205082709E+01  0.10202394590E+01 0.  0.
     999903    2    3    3    0    0 -0.54373796854E-01 -0.97322430252E-01  0.59202057064E-01  0.12790786677E+00  0.20673016365E-01 0.  0.
         14    1    1    2    0    0 -0.12311792497E-01 -0.15857124572E-01  0.12064359011E-01  0.23421729068E-01  0.00000000000E+00 0.  1.
     999901    1    3    3    0    0  0.66685589351E-01  0.11317955482E+00 -0.71266416075E-01  0.89260040417E+00  0.88000000000E+00 0. -1.
        -11    1    4    4    0    0 -0.12167355280E-01 -0.80889157666E-02  0.89236412748E-02  0.17127976745E-01  0.51100000000E-03 0.  1.
         11    1    4    4    0    0 -0.42206441574E-01 -0.89233514485E-01  0.50278415789E-01  0.11077989002E+00  0.51100000000E-03 0. -1.
</event>
<event>
 8    1  0.1191842E+005  0.1043930E+01  0.7957747E-01            NaN
         13   -1    0    0    0    0  0.00000000000E+00  0.00000000000E+00  0.74505805969E-08  0.10566000000E+00  0.10566000000E+00 0.  1.
     999900   -1    0    0    0    0 -0.00000000000E+00 -0.00000000000E+00 -0.74505805969E-08  0.93827000000E+00  0.93827000000E+00 0.  1.
     999902    2    1    2    0    0 -0.97616480467E-02  0.13216245329E-01  0.17305023453E-01  0.10200674195E+01  0.10197882709E+01 0.  0.
     999903    2    3    3    0    0  0.15541355329E-01  0.54579275767E-01  0.11859079910E+00  0.13293160651E+00  0.19662230560E-01 0.  0.
         14    1    1    2    0    0  0.97616480467E-02 -0.13216245329E-01 -0.17305023453E-01  0.23862580537E-01  0.00000000000E+00 0. -1.
     999901    1    3    3    0    0 -0.25303003375E-01 -0.41363030438E-01 -0.10128577565E+00  0.88713581295E+00  0.88000000000E+00 0.  1.
        -11    1    4    4    0    0  0.83174689324E-02  0.40324421832E-01  0.64463081997E-01  0.76491759995E-01  0.51100000000E-03 0.  1.
         11    1    4    4    0    0  0.72238863963E-02  0.14254853935E-01  0.54127717103E-01  0.56439846520E-01  0.51100000000E-03 0. -1.
</event>
<event>
 8    1  0.1191842E+005  0.1043930E+01  0.7957747E-01            NaN
         13   -1    0    0    0    0  0.00000000000E+00  0.00000000000E+00  0.74505805969E-08  0.10566000000E+00  0.10566000000E+00 0. -1.
     999900   -1    0    0    0    0 -0.00000000000E+00 -0.00000000000E+00 -0.74505805969E-08  0.93827000000E+00  0.93827000000E+00 0. -1.
     999902    2    1    2    0    0  0.11386282161E-01 -0.17678413683E-01 -0.12119999356E-01  0.10196592745E+01  0.10193703782E+01 0.  0.
     999903    2    3    3    0    0 -0.62208538634E-01 -0.10494151514E+00  0.42205805283E-01  0.13062477597E+00  0.19971935777E-01 0.  0.
         14    1    1    2    0    0 -0.11386282161E-01  0.17678413683E-01  0.12119999356E-01  0.24270725498E-01  0.00000000000E+00 0. -1.
     999901    1    3    3    0    0  0.73594820795E-01  0.87263101462E-01 -0.54325804639E-01  0.88903449853E+00  0.88000000000E+00 0. -1.
        -11    1    4    4    0    0 -0.17856739305E-01 -0.48573416142E-01  0.20736736917E-01  0.55754042663E-01  0.51100000000E-03 0.  1.
         11    1    4    4    0    0 -0.44351799330E-01 -0.56368099002E-01  0.21469068365E-01  0.74870733310E-01  0.51100000000E-03 0. -1.
</event>
<event>
 8    1  0.1191842E+005  0.1043930E+01  0.7957747E-01            NaN
         13   -1    0    0    0    0  0.00000000000E+00  0.00000000000E+00  0.74505805969E-08  0.10566000000E+00  0.10566000000E+00 0.  1.
     999900   -1    0    0    0    0 -0.00000000000E+00 -0.00000000000E+00 -0.74505805969E-08  0.93827000000E+00  0.93827000000E+00 0.  1.
     999902    2    1    2    0    0  0.95765180284E-02 -0.11313243455E-02  0.21636574416E-01  0.10202417973E+01  0.10199667613E+01 0.  0.
     999903    2    3    3    0    0  0.53367067346E-01  0.71213687967E-01 -0.91040196956E-01  0.12903617135E+00  0.21037652502E-01 0.  0.
         14    1    1    2    0    0 -0.95765180284E-02  0.11313243455E-02 -0.21636574416E-01  0.23688202650E-01  0.00000000000E+00 0. -1.
     999901    1    3    3    0    0 -0.43790549317E-01 -0.72345012312E-01  0.11267677137E+00  0.89120562600E+00  0.88000000000E+00 0. -1.
        -11    1    4    4    0    0  0.85964991803E-02  0.52502166865E-02 -0.36036342528E-02  0.10710362937E-01  0.51100000000E-03 0. -1.
         11    1    4    4    0    0  0.44770568165E-01  0.65963471280E-01 -0.87436562703E-01  0.11832580841E+00  0.51100000000E-03 0.  1.
</event>
<event>
 8    1  0.1191842E+005  0.1043930E+01  0.7957747E-01            NaN
         13   -1    0    0    0    0  0.00000000000E+00  0.00000000000E+00  0.74505805969E-08  0.10566000000E+00  0.10566000000E+00 0. -1.
     999900   -1    0    0    0    0 -0.00000000000E+00 -0.00000000000E+00 -0.74505805969E-08  0.93827000000E+00  0.93827000000E+00 0. -1.
     999902    2    1    2    0    0  0.88571441460E-02 -0.20033998077E-01 -0.84626608033E-02  0.10204475234E+01  0.10201772989E+01 0.  0.
     999903    2    3    3    0    0  0.98885673257E-01  0.80362767058E-01  0.15313809422E-01  0.12985784958E+00  0.19798930116E-01 0.  0.
         14    1    1    2    0    0 -0.88571441460E-02  0.20033998077E-01  0.84626608033E-02  0.23482476642E-01  0.00000000000E+00 0. -1.
     999901    1    3    3    0    0 -0.90028529111E-01 -0.10039676514E+00 -0.23776470225E-01  0.89058967378E+00  0.88000000000E+00 0.  1.
        -11    1    4    4    0    0  0.75691207067E-02  0.13064055816E-01 -0.14984617763E-02  0.15181161066E-01  0.51100000000E-03 0. -1.
         11    1    4    4    0    0  0.91316552551E-01  0.67298711242E-01  0.16812271198E-01  0.11467668851E+00  0.51100000000E-03 0.  1.
</event>
<event>
 8    1  0.1191842E+005  0.1043930E+01  0.7957747E-01            NaN
         13   -1    0    0    0    0  0.00000000000E+00  0.00000000000E+00  0.74505805969E-08  0.10566000000E+00  0.10566000000E+00 0.  1.
     999900   -1    0    0    0    0 -0.00000000000E+00 -0.00000000000E+00 -0.74505805969E-08  0.93827000000E+00  0.93827000000E+00 0. -1.
     999902    2    1    2    0    0 -0.44201706238E-02 -0.74330100330E-02  0.22599537659E-01  0.10197323421E+01  0.10194452034E+01 0.  0.
     999903    2    3    3    0    0  0.38322370783E-01  0.83368831605E-01 -0.86021674424E-01  0.12739245896E+00  0.20252010844E-01 0.  0.
         14    1    1    2    0    0  0.44201706238E-02  0.74330100330E-02 -0.22599537659E-01  0.24197657922E-01  0.00000000000E+00 0. -1.
     999901    1    3    3    0    0 -0.42742541406E-01 -0.90801841638E-01  0.10862121208E+00  0.89233988312E+00  0.88000000000E+00 0.  1.
        -11    1    4    4    0    0  0.54476064275E-02  0.69503568159E-02 -0.18304603524E-02  0.90330272754E-02  0.51100000000E-03 0.  1.
         11    1    4    4    0    0  0.32874764355E-01  0.76418474789E-01 -0.84191214072E-01  0.11835943168E+00  0.51100000000E-03 0. -1.
</event>
<event>
 8    1  0.1191842E+005  0.1043930E+01  0.7957747E-01            NaN
         13   -1    0    0    0    0  0.00000000000E+00  0.00000000000E+00  0.74505805969E-08  0.10566000000E+00  0.10566000000E+00 0. -1.
     999900   -1    0    0    0    0 -0.00000000000E+00 -0.00000000000E+00 -0.74505805969E-08  0.93827000000E+00  0.93827000000E+00 0.  1.
     999902    2    1    2    0    0  0.12867463651E-01 -0.17695038560E-01 -0.83688669457E-02  0.10205051426E+01  0.10202362580E+01 0.  0.
     999903    2    3    3    0    0 -0.24784783847E-01 -0.21329566701E-02 -0.12758583604E+00  0.13153238944E+00  0.20094499210E-01 0.  0.
         14    1    1    2    0    0 -0.12867463651E-01  0.17695038560E-01  0.83688669457E-02  0.23424857404E-01  0.00000000000E+00 0. -1.
     999901    1    3    3    0    0  0.37652247498E-01 -0.15562081890E-01  0.11921696910E+00  0.88897275316E+00  0.88000000000E+00 0. -1.
        -11    1    4    4    0    0  0.35302088254E-02 -0.39518581590E-03 -0.13031154164E-01  0.13516310370E-01  0.51100000000E-03 0.  1.
         11    1    4    4    0    0 -0.28314992673E-01 -0.17377708542E-02 -0.11455468188E+00  0.11801607907E+00  0.51100000000E-03 0. -1.
</event>
<event>
 8    1  0.1191842E+005  0.1043930E+01  0.7957747E-01            NaN
         13   -1    0    0    0    0  0.00000000000E+00  0.00000000000E+00  0.74505805969E-08  0.10566000000E+00  0.10566000000E+00 0.  1.
     999900   -1    0    0    0    0 -0.00000000000E+00 -0.00000000000E+00 -0.74505805969E-08  0.93827000000E+00  0.93827000000E+00 0.  1.
     999902    2    1    2    0    0 -0.19465018402E-01  0.16683966922E-01 -0.16879967599E-01  0.10132351307E+01  0.10127700900E+01 0.  0.
     999903    2    3    3    0    0 -0.11282586830E+00 -0.15603550303E-01  0.50773955387E-01  0.12512715004E+00  0.10279192177E-01 0.  0.
         14    1    1    2    0    0  0.19465018402E-01 -0.16683966922E-01  0.16879967599E-01  0.30694869274E-01  0.00000000000E+00 0.  1.
     999901    1    3    3    0    0  0.93360849898E-01  0.32287517225E-01 -0.67653922986E-01  0.88810798069E+00  0.88000000000E+00 0.  1.
        -11    1    4    4    0    0 -0.73638192371E-01 -0.14926974733E-01  0.32045108827E-01  0.81685666252E-01  0.51100000000E-03 0.  1.
         11    1    4    4    0    0 -0.39187675929E-01 -0.67657556974E-03  0.18728846560E-01  0.43441483788E-01  0.51100000000E-03 0. -1.
</event>
<event>
 8    1  0.1191842E+005  0.1043930E+01  0.7957747E-01            NaN
         13   -1    0    0    0    0  0.00000000000E+00  0.00000000000E+00  0.74505805969E-08  0.10566000000E+00  0.10566000000E+00 0. -1.
     999900   -1    0    0    0    0 -0.00000000000E+00 -0.00000000000E+00 -0.74505805969E-08  0.93827000000E+00  0.93827000000E+00 0. -1.
     999902    2    1    2    0    0  0.21817926580E-01  0.40697339179E-03 -0.14126083952E-01  0.10179351198E+01  0.10176031517E+01 0.  0.
     999903    2    3    3    0    0  0.54847271664E-01 -0.11402185624E+00  0.18275287297E-01  0.12932117466E+00  0.19513410219E-01 0.  0.
         14    1    1    2    0    0 -0.21817926580E-01 -0.40697339179E-03  0.14126083952E-01  0.25994880176E-01  0.00000000000E+00 0. -1.
     999901    1    3    3    0    0 -0.33029345084E-01  0.11442882964E+00 -0.32401371249E-01  0.88861394517E+00  0.88000000000E+00 0. -1.
        -11    1    4    4    0    0  0.58547044625E-02 -0.15616426520E-01  0.91129202878E-02  0.19012016694E-01  0.51100000000E-03 0.  1.
         11    1    4    4    0    0  0.48992567201E-01 -0.98405429723E-01  0.91623670090E-02  0.11030915796E+00  0.51100000000E-03 0. -1.
</event>
<event>
 8    1  0.1191842E+005  0.1043930E+01  0.7957747E-01            NaN
         13   -1    0    0    0    0  0.00000000000E+00  0.00000000000E+00  0.74505805969E-08  0.10566000000E+00  0.10566000000E+00 0.  1.
     999900   -1    0    0    0    0 -0.00000000000E+00 -0.00000000000E+00 -0.74505805969E-08  0.93827000000E+00  0.93827000000E+00 0.  1.
     999902    2    1    2    0    0 -0.12598743178E-01  0.48077269281E-02  0.19173213045E-01  0.10204895506E+01  0.10202203038E+01 0.  0.
     999903    2    3    3    0    0 -0.75551994067E-01 -0.45670445999E-01 -0.92966818852E-01  0.12971093364E+00  0.19702879330E-01 0.  0.
         14    1    1    2    0    0  0.12598743178E-01 -0.48077269281E-02 -0.19173213045E-01  0.23440449363E-01  0.00000000000E+00 0. -1.
     999901    1    3    3    0    0  0.62953250889E-01  0.50478172927E-01  0.11214003190E+00  0.89077861699E+00  0.88000000000E+00 0. -1.
        -11    1    4    4    0    0 -0.45641311856E-01 -0.18642359807E-01 -0.42316810128E-01  0.64974152303E-01  0.51100000000E-03 0. -1.
         11    1    4    4    0    0 -0.29910682211E-01 -0.27028086192E-01 -0.50650008724E-01  0.64736781340E-01  0.51100000000E-03 0.  1.
</event>
<event>
 8    1  0.1191842E+005  0.1043930E+01  0.7957747E-01            NaN
         13   -1    0    0    0    0  0.00000000000E+00  0.00000000000E+00  0.74505805969E-08  0.10566000000E+00  0.10566000000E+00 0.  1.
     999900   -1    0    0    0    0 -0.00000000000E+00 -0.00000000000E+00 -0.74505805969E-08  0.93827000000E+00  0.93827000000E+00 0. -1.
     999902    2    1    2    0    0  0.50885568487E-03 -0.17640760999E-01 -0.17570360077E-01  0.10190267284E+01  0.10187223863E+01 0.  0.
     999903    2    3    3    0    0 -0.12320957793E+00 -0.24976861348E-01 -0.28267304009E-01  0.13027789224E+00  0.19205338664E-01 0.  0.
         14    1    1    2    0    0 -0.50885568487E-03  0.17640760999E-01  0.17570360077E-01  0.24903271592E-01  0.00000000000E+00 0.  1.
     999901    1    3    3    0    0  0.12371843362E+00  0.73361003488E-02  0.10696943931E-01  0.88874883617E+00  0.88000000000E+00 0.  1.
        -11    1    4    4    0    0 -0.65737289982E-01 -0.48064087774E-02 -0.19502231056E-01  0.68739297324E-01  0.51100000000E-03 0. -1.
         11    1    4    4    0    0 -0.57472287950E-01 -0.20170452570E-01 -0.87650729527E-02  0.61538594913E-01  0.51100000000E-03 0.  1.
</event>
<event>
 8    1  0.1191842E+005  0.1043930E+01  0.7957747E-01            NaN
         13   -1    0    0    0    0  0.00000000000E+00  0.00000000000E+00  0.74505805969E-08  0.10566000000E+00  0.10566000000E+00 0. -1.
     999900   -1    0    0    0    0 -0.00000000000E+00 -0.00000000000E+00 -0.74505805969E-08  0.93827000000E+00  0.93827000000E+00 0.  1.
     999902    2    1    2    0    0 -0.76825895319E-02  0.21838360211E-01 -0.16879052218E-03  0.10207790897E+01  0.10205165287E+01 0.  0.
     999903    2    3    3    0    0 -0.61580607606E-01 -0.43052029105E-01  0.10480708267E+00  0.13053435202E+00  0.20224837121E-01 0.  0.
         14    1    1    2    0    0  0.76825895319E-02 -0.21838360211E-01  0.16879052218E-03  0.23150910324E-01  0.00000000000E+00 0. -1.
     999901    1    3    3    0    0  0.53898018074E-01  0.64890389315E-01 -0.10497587319E+00  0.89024473766E+00  0.88000000000E+00 0.  1.
        -11    1    4    4    0    0 -0.37311807649E-01 -0.17506717026E-01  0.44269466747E-01  0.60487213014E-01  0.51100000000E-03 0.  1.
         11    1    4    4    0    0 -0.24268799957E-01 -0.25545312078E-01  0.60537615918E-01  0.70047139003E-01  0.51100000000E-03 0. -1.
</event>
<event>
 8    1  0.1191842E+005  0.1043930E+01  0.7957747E-01            NaN
         13   -1    0    0    0    0  0.00000000000E+00  0.00000000000E+00  0.74505805969E-08  0.10566000000E+00  0.10566000000E+00 0. -1.
     999900   -1    0    0    0    0 -0.00000000000E+00 -0.00000000000E+00 -0.74505805969E-08  0.93827000000E+00  0.93827000000E+00 0.  1.
     999902    2    1    2    0    0  0.20123620424E-01 -0.12549619109E-01  0.32453266048E-03  0.10202116872E+01  0.10199359433E+01 0.  0.
     999903    2    3    3    0    0 -0.15246464410E-01 -0.11362304087E+00 -0.61343705800E-01  0.13157798817E+00  0.20175892457E-01 0.  0.
         14    1    1    2    0    0 -0.20123620424E-01  0.12549619109E-01 -0.32453266048E-03  0.23718312760E-01  0.00000000000E+00 0. -1.
     999901    1    3    3    0    0  0.35370084834E-01  0.10107342176E+00  0.61668238461E-01  0.88863369907E+00  0.88000000000E+00 0.  1.
        -11    1    4    4    0    0 -0.99216251774E-02 -0.52728253538E-01 -0.39638305856E-01  0.66709547888E-01  0.51100000000E-03 0. -1.
         11    1    4    4    0    0 -0.53248392326E-02 -0.60894787330E-01 -0.21705399944E-01  0.64868440282E-01  0.51100000000E-03 0.  1.
</event>
<event>
 8    1  0.1191842E+005  0.1043930E+01  0.7957747E-01            NaN
         13   -1    0    0    0    0  0.00000000000E+00  0.00000000000E+00  0.74505805969E-08  0.10566000000E+00  0.10566000000E+00 0. -1.
     999900   -1    0    0    0    0 -0.00000000000E+00 -0.00000000000E+00 -0.74505805969E-08  0.93827000000E+00  0.93827000000E+00 0.  1.
     999902    2    1    2    0    0 -0.21053289715E-01  0.40837810633E-02 -0.14258666557E-01  0.10181767896E+01  0.10178510436E+01 0.  0.
     999903    2    3    3    0    0 -0.28478131162E-01  0.46240932074E-01  0.11402201367E+00  0.12784635284E+00  0.19860578489E-01 0.  0.
         14    1    1    2    0    0  0.21053289715E-01 -0.40837810633E-02  0.14258666557E-01  0.25753210433E-01  0.00000000000E+00 0. -1.
     999901    1    3    3    0    0  0.74248414471E-02 -0.42157151011E-01 -0.12828068023E+00  0.89033043673E+00  0.88000000000E+00 0. -1.
        -11    1    4    4    0    0 -0.25468764346E-01  0.22887693792E-01  0.65632372783E-01  0.74029547902E-01  0.51100000000E-03 0.  1.
         11    1    4    4    0    0 -0.30093668165E-02  0.23353238282E-01  0.48389640889E-01  0.53816804934E-01  0.51100000000E-03 0. -1.
</event>
<event>
 8    1  0.1191842E+005  0.1043930E+01  0.7957747E-01            NaN
         13   -1    0    0    0    0  0.00000000000E+00  0.00000000000E+00  0.74505805969E-08  0.10566000000E+00  0.10566000000E+00 0.  1.
     999900   -1    0    0    0    0 -0.00000000000E+00 -0.00000000000E+00 -0.74505805969E-08  0.93827000000E+00  0.93827000000E+00 0. -1.
     999902    2    1    2    0    0 -0.12268466721E-01  0.97414578532E-02 -0.17778879421E-01  0.10202340124E+01  0.10199587934E+01 0.  0.
     999903    2    3    3    0    0  0.77095982979E-01  0.49838813103E-01 -0.90953740565E-01  0.13178122066E+00  0.25807156256E-01 0.  0.
         14    1    1    2    0    0  0.12268466721E-01 -0.97414578532E-02  0.17778879421E-01  0.23695987640E-01  0.00000000000E+00 0.  1.
     999901    1    3    3    0    0 -0.89364449700E-01 -0.40097355250E-01  0.73174861144E-01  0.88845279170E+00  0.88000000000E+00 0.  1.
        -11    1    4    4    0    0  0.44871694585E-01  0.14535809412E-01 -0.39228120695E-01  0.61350348853E-01  0.51100000000E-03 0.  1.
         11    1    4    4    0    0  0.32224288394E-01  0.35303003691E-01 -0.51725619869E-01  0.70430871811E-01  0.51100000000E-03 0. -1.
</event>
<event>
 8    1  0.1191842E+005  0.1043930E+01  0.7957747E-01            NaN
         13   -1    0    0    0    0  0.00000000000E+00  0.00000000000E+00  0.74505805969E-08  0.10566000000E+00  0.10566000000E+00 0.  1.
     999900   -1    0    0    0    0 -0.00000000000E+00 -0.00000000000E+00 -0.74505805969E-08  0.93827000000E+00  0.93827000000E+00 0. -1.
     999902    2    1    2    0    0  0.13058503698E-01  0.14662162401E-01  0.12054653180E-01  0.10208905081E+01  0.10206304969E+01 0.  0.
     999903    2    3    3    0    0 -0.16601918363E-01  0.12845788205E+00  0.16498593087E-01  0.13305665253E+00  0.25589412897E-01 0.  0.
         14    1    1    2    0    0 -0.13058503698E-01 -0.14662162401E-01 -0.12054653180E-01  0.23039491930E-01  0.00000000000E+00 0. -1.
     999901    1    3    3    0    0  0.29660422061E-01 -0.11379571965E+00 -0.44439399070E-02  0.88783385554E+00  0.88000000000E+00 0. -1.
        -11    1    4    4    0    0 -0.11415284247E-01  0.83218609296E-01  0.22913471456E-01  0.87068558865E-01  0.51100000000E-03 0. -1.
         11    1    4    4    0    0 -0.51866341166E-02  0.45239272757E-01 -0.64148783683E-02  0.45988093661E-01  0.51100000000E-03 0.  1.
</event>
<event>
 8    1  0.1434573E+005  0.1043930E+01  0.7957747E-01            NaN
         13   -1    0    0    0    0  0.00000000000E+00  0.00000000000E+00  0.74505805969E-08  0.10566000000E+00  0.10566000000E+00 0.  1.
     999900   -1    0    0    0    0 -0.00000000000E+00 -0.00000000000E+00 -0.74505805969E-08  0.93827000000E+00  0.93827000000E+00 0. -1.
     999902    2    1    2    0    0  0.18723874983E-01  0.97370303056E-02 -0.83406798480E-02  0.10212372656E+01  0.10209851088E+01 0.  0.
     999903    2    3    3    0    0 -0.26793774885E-01 -0.23117820260E-01 -0.12539598672E+00  0.13171309926E+00  0.19283335995E-01 0.  0.
         14    1    1    2    0    0 -0.18723874983E-01 -0.97370303056E-02  0.83406798480E-02  0.22692734385E-01  0.00000000000E+00 0.  1.
     999901    1    3    3    0    0  0.45517649868E-01  0.32854850565E-01  0.11705530687E+00  0.88952416635E+00  0.88000000000E+00 0.  1.
        -11    1    4    4    0    0 -0.15704280716E-01 -0.15861945994E-01 -0.45041160639E-01  0.50271194895E-01  0.51100000000E-03 0. -1.
         11    1    4    4    0    0 -0.11089494169E-01 -0.72558742658E-02 -0.80354826078E-01  0.81441904369E-01  0.51100000000E-03 0.  1.
</event>
<event>
 8    1  0.1191842E+005  0.1043930E+01  0.7957747E-01            NaN
         13   -1    0    0    0    0  0.00000000000E+00  0.00000000000E+00  0.74505805969E-08  0.10566000000E+00  0.10566000000E+00 0. -1.
     999900   -1    0    0    0    0 -0.00000000000E+00 -0.00000000000E+00 -0.74505805969E-08  0.93827000000E+00  0.93827000000E+00 0. -1.
     999902    2    1    2    0    0 -0.22237017118E-02  0.12992443086E-01  0.26978419244E-01  0.10139036194E+01  0.10134589118E+01 0.  0.
     999903    2    3    3    0    0 -0.98128752513E-02  0.68233124493E-01  0.10680261916E+00  0.12853305782E+00  0.19023556274E-01 0.  0.
         14    1    1    2    0    0  0.22237017118E-02 -0.12992443086E-01 -0.26978419244E-01  0.30026380594E-01  0.00000000000E+00 0.  1.
     999901    1    3    3    0    0  0.75891735395E-02 -0.55240681407E-01 -0.79824199916E-01  0.88537056159E+00  0.88000000000E+00 0. -1.
        -11    1    4    4    0    0 -0.91572366078E-02  0.12851308771E-01  0.29146308317E-01  0.33147843503E-01  0.51100000000E-03 0. -1.
         11    1    4    4    0    0 -0.65563864346E-03  0.55381815722E-01  0.77656310844E-01  0.95385214313E-01  0.51100000000E-03 0.  1.
</event>
<event>
 8    1  0.1191842E+005  0.1043930E+01  0.7957747E-01            NaN
         13   -1    0    0    0    0  0.00000000000E+00  0.00000000000E+00  0.74505805969E-08  0.10566000000E+00  0.10566000000E+00 0. -1.
     999900   -1    0    0    0    0 -0.00000000000E+00 -0.00000000000E+00 -0.74505805969E-08  0.93827000000E+00  0.93827000000E+00 0.  1.
     999902    2    1    2    0    0  0.18812490075E-01 -0.83290935968E-02  0.12585294251E-01  0.10198120976E+01  0.10195268713E+01 0.  0.
     999903    2    3    3    0    0 -0.12123568885E+00  0.32584412848E-01 -0.93336865026E-02  0.12752971568E+00  0.20417503948E-01 0.  0.
         14    1    1    2    0    0 -0.18812490075E-01  0.83290935968E-02 -0.12585294251E-01  0.24117902362E-01  0.00000000000E+00 0. -1.
     999901    1    3    3    0    0  0.14004817892E+00 -0.40913506445E-01  0.21918980753E-01  0.89228238195E+00  0.88000000000E+00 0. -1.
        -11    1    4    4    0    0 -0.13384520407E-01  0.45209030422E-02 -0.76488946204E-02  0.16073290290E-01  0.51100000000E-03 0. -1.
         11    1    4    4    0    0 -0.10785116844E+00  0.28063509806E-01 -0.16847918823E-02  0.11145642539E+00  0.51100000000E-03 0.  1.
</event>
<event>
 8    1  0.1191842E+005  0.1043930E+01  0.7957747E-01            NaN
         13   -1    0    0    0    0  0.00000000000E+00  0.00000000000E+00  0.74505805969E-08  0.10566000000E+00  0.10566000000E+00 0.  1.
     999900   -1    0    0    0    0 -0.00000000000E+00 -0.00000000000E+00 -0.74505805969E-08  0.93827000000E+00  0.93827000000E+00 0. -1.
     999902    2    1    2    0    0 -0.23613029834E-01  0.41161508501E-02  0.29567701453E-02  0.10197792160E+01  0.10194932021E+01 0.  0.
     999903    2    3    3    0    0  0.95092730849E-02  0.72948942127E-01  0.10577363957E+00  0.13050628340E+00  0.20781067008E-01 0.  0.
         14    1    1    2    0    0  0.23613029834E-01 -0.41161508501E-02 -0.29567701453E-02  0.24150783951E-01  0.00000000000E+00 0.  1.
     999901    1    3    3    0    0 -0.33122302919E-01 -0.68832791277E-01 -0.10281686943E+00  0.88927293265E+00  0.88000000000E+00 0. -1.
        -11    1    4    4    0    0 -0.19889817040E-02  0.53118910720E-01  0.67908204132E-01  0.86240130066E-01  0.51100000000E-03 0. -1.
         11    1    4    4    0    0  0.11498254789E-01  0.19830031408E-01  0.37865435440E-01  0.44266153333E-01  0.51100000000E-03 0.  1.
</event>
<event>
 8    1  0.1191842E+005  0.1043930E+01  0.7957747E-01            NaN
         13   -1    0    0    0    0  0.00000000000E+00  0.00000000000E+00  0.74505805969E-08  0.10566000000E+00  0.10566000000E+00 0.  1.
     999900   -1    0    0    0    0 -0.00000000000E+00 -0.00000000000E+00 -0.74505805969E-08  0.93827000000E+00  0.93827000000E+00 0.  1.
     999902    2    1    2    0    0  0.22080010211E-02 -0.23068066584E-01 -0.75912344574E-03  0.10207440725E+01  0.10204807075E+01 0.  0.
     999903    2    3    3    0    0  0.64859220116E-01 -0.47887900397E-01 -0.10278912451E+00  0.13228961645E+00  0.20855912000E-01 0.  0.
         14    1    1    2    0    0 -0.22080010211E-02  0.23068066584E-01  0.75912344574E-03  0.23185927474E-01  0.00000000000E+00 0. -1.
     999901    1    3    3    0    0 -0.62651219095E-01  0.24819833813E-01  0.10203000106E+00  0.88845445608E+00  0.88000000000E+00 0. -1.
        -11    1    4    4    0    0  0.13740667255E-01 -0.13266312357E-01 -0.12228880752E-01  0.22684964748E-01  0.51100000000E-03 0. -1.
         11    1    4    4    0    0  0.51118552861E-01 -0.34621588039E-01 -0.90560243754E-01  0.10960465170E+00  0.51100000000E-03 0.  1.
</event>
<event>
 8    1  0.1191842E+005  0.1043930E+01  0.7957747E-01            NaN
         13   -1    0    0    0    0  0.00000000000E+00  0.00000000000E+00  0.74505805969E-08  0.10566000000E+00  0.10566000000E+00 0. -1.
     999900   -1    0    0    0    0 -0.00000000000E+00 -0.00000000000E+00 -0.74505805969E-08  0.93827000000E+00  0.93827000000E+00 0. -1.
     999902    2    1    2    0    0 -0.22409015392E-01 -0.51532690965E-02 -0.64251680834E-02  0.10200552657E+01  0.10197758294E+01 0.  0.
     999903    2    3    3    0    0 -0.78003490174E-01 -0.69511025825E-01 -0.79663678507E-01  0.13292700784E+00  0.20173263227E-01 0.  0.
         14    1    1    2    0    0  0.22409015392E-01  0.51532690965E-02  0.64251680834E-02  0.23874734305E-01  0.00000000000E+00 0.  1.
     999901    1    3    3    0    0  0.55594474782E-01  0.64357756729E-01  0.73238510423E-01  0.88712825786E+00  0.88000000000E+00 0.  1.
        -11    1    4    4    0    0 -0.43039373257E-01 -0.30963188562E-01 -0.29665168158E-01  0.60756810476E-01  0.51100000000E-03 0.  1.
         11    1    4    4    0    0 -0.34964116917E-01 -0.38547837263E-01 -0.49998510348E-01  0.72170197364E-01  0.51100000000E-03 0. -1.
</event>
<event>
 8    1  0.1191842E+005  0.1043930E+01  0.7957747E-01            NaN
         13   -1    0    0    0    0  0.00000000000E+00  0.00000000000E+00  0.74505805969E-08  0.10566000000E+00  0.10566000000E+00 0.  1.
     999900   -1    0    0    0    0 -0.00000000000E+00 -0.00000000000E+00 -0.74505805969E-08  0.93827000000E+00  0.93827000000E+00 0.  1.
     999902    2    1    2    0    0 -0.21112026156E-01 -0.68413835358E-02 -0.98123366763E-02  0.10196647135E+01  0.10193759482E+01 0.  0.
     999903    2    3    3    0    0 -0.79525655627E-01  0.80216594188E-01  0.62210674069E-01  0.13051986723E+00  0.20155294307E-01 0.  0.
         14    1    1    2    0    0  0.21112026156E-01  0.68413835358E-02  0.98123366763E-02  0.24265286484E-01  0.00000000000E+00 0. -1.
     999901    1    3    3    0    0  0.58413629470E-01 -0.87057977723E-01 -0.72023010746E-01  0.88914484628E+00  0.88000000000E+00 0.  1.
        -11    1    4    4    0    0 -0.19656612044E-01  0.19348362484E-01  0.25559060880E-01  0.37606757929E-01  0.51100000000E-03 0. -1.
         11    1    4    4    0    0 -0.59869043583E-01  0.60868231704E-01  0.36651613189E-01  0.92913109305E-01  0.51100000000E-03 0.  1.
</event>
<event>
 8    1  0.1191842E+005  0.1043930E+01  0.7957747E-01            NaN
         13   -1    0    0    0    0  0.00000000000E+00  0.00000000000E+00  0.74505805969E-08  0.10566000000E+00  0.10566000000E+00 0.  1.
     999900   -1    0    0    0    0 -0.00000000000E+00 -0.00000000000E+00 -0.74505805969E-08  0.93827000000E+00  0.93827000000E+00 0. -1.
     999902    2    1    2    0    0  0.11291784760E-01  0.78954859591E-03  0.20692851178E-01  0.10203435234E+01  0.10200708719E+01 0.  0.
     999903    2    3    3    0    0  0.46668995781E-01  0.12080091125E+00 -0.13376870711E-02  0.13122057414E+00  0.21123312824E-01 0.  0.
         14    1    1    2    0    0 -0.11291784760E-01 -0.78954859591E-03 -0.20692851178E-01  0.23586476632E-01  0.00000000000E+00 0. -1.
     999901    1    3    3    0    0 -0.35377211021E-01 -0.12001136266E+00  0.22030538249E-01  0.88912294923E+00  0.88000000000E+00 0. -1.
        -11    1    4    4    0    0  0.90112968361E-02  0.50499711644E-01 -0.36888904138E-02  0.51432415657E-01  0.51100000000E-03 0.  1.
         11    1    4    4    0    0  0.37657698945E-01  0.70301199608E-01  0.23512033427E-02  0.79788158484E-01  0.51100000000E-03 0. -1.
</event>
<event>
 8    1  0.1191842E+005  0.1043930E+01  0.7957747E-01            NaN
         13   -1    0    0    0    0  0.00000000000E+00  0.00000000000E+00  0.74505805969E-08  0.10566000000E+00  0.10566000000E+00 0. -1.
     999900   -1    0    0    0    0 -0.00000000000E+00 -0.00000000000E+00 -0.74505805969E-08  0.93827000000E+00  0.93827000000E+00 0. -1.
     999902    2    1    2    0    0 -0.14929711070E-01  0.84596398132E-02  0.16996893527E-01  0.10197772327E+01  0.10194911712E+01 0.  0.
     999903    2    3    3    0    0  0.30146365434E-01  0.12469710676E+00 -0.13354879691E-01  0.13047175564E+00  0.19655900545E-01 0.  0.
         14    1    1    2    0    0  0.14929711070E-01 -0.84596398132E-02 -0.16996893527E-01  0.24152767294E-01  0.00000000000E+00 0.  1.
     999901    1    3    3    0    0 -0.45076076505E-01 -0.11623746695E+00  0.30351773218E-01  0.88930547706E+00  0.88000000000E+00 0.  1.
        -11    1    4    4    0    0  0.19531780188E-01  0.50931908572E-01 -0.12382408724E-01  0.55938671015E-01  0.51100000000E-03 0.  1.
         11    1    4    4    0    0  0.10614585246E-01  0.73765198187E-01 -0.97247096693E-03  0.74533084629E-01  0.51100000000E-03 0. -1.
</event>
<event>
 8    1  0.1191842E+005  0.1043930E+01  0.7957747E-01            NaN
         13   -1    0    0    0    0  0.00000000000E+00  0.00000000000E+00  0.74505805969E-08  0.10566000000E+00  0.10566000000E+00 0. -1.
     999900   -1    0    0    0    0 -0.00000000000E+00 -0.00000000000E+00 -0.74505805969E-08  0.93827000000E+00  0.93827000000E+00 0.  1.
     999902    2    1    2    0    0  0.58534121296E-02 -0.91758261997E-02 -0.22282448302E-01  0.10191314976E+01  0.10188297422E+01 0.  0.
     999903    2    3    3    0    0 -0.67903994645E-01 -0.10614494319E+00 -0.28486143525E-01  0.13071625090E+00  0.19939318506E-01 0.  0.
         14    1    1    2    0    0 -0.58534121296E-02  0.91758261997E-02  0.22282448302E-01  0.24798502421E-01  0.00000000000E+00 0. -1.
     999901    1    3    3    0    0  0.73757406775E-01  0.96969116988E-01  0.62036952229E-02  0.88841524668E+00  0.88000000000E+00 0.  1.
        -11    1    4    4    0    0 -0.26984817453E-01 -0.54509686303E-01 -0.60943254428E-02  0.61130092405E-01  0.51100000000E-03 0. -1.
         11    1    4    4    0    0 -0.40919177192E-01 -0.51635256884E-01 -0.22391818082E-01  0.69586158492E-01  0.51100000000E-03 0.  1.
</event>
<event>
 8    1  0.1191842E+005  0.1043930E+01  0.7957747E-01            NaN
         13   -1    0    0    0    0  0.00000000000E+00  0.00000000000E+00  0.74505805969E-08  0.10566000000E+00  0.10566000000E+00 0. -1.
     999900   -1    0    0    0    0 -0.00000000000E+00 -0.00000000000E+00 -0.74505805969E-08  0.93827000000E+00  0.93827000000E+00 0. -1.
     999902    2    1    2    0    0 -0.12364447156E-01  0.93909912252E-02  0.17608262414E-01  0.10204540298E+01  0.10201839569E+01 0.  0.
     999903    2    3    3    0    0 -0.37639768668E-01  0.12492082262E+00 -0.75643151557E-02  0.13218625350E+00  0.19850003590E-01 0.  0.
         14    1    1    2    0    0  0.12364447156E-01 -0.93909912252E-02 -0.17608262414E-01  0.23475970159E-01  0.00000000000E+00 0. -1.
     999901    1    3    3    0    0  0.25275321512E-01 -0.11552983139E+00  0.25172577569E-01  0.88826777634E+00  0.88000000000E+00 0. -1.
        -11    1    4    4    0    0 -0.31894919753E-01  0.72234144927E-01 -0.40098310328E-02  0.79065779357E-01  0.51100000000E-03 0. -1.
         11    1    4    4    0    0 -0.57448489148E-02  0.52686677691E-01 -0.35544841228E-02  0.53120474146E-01  0.51100000000E-03 0.  1.
</event>
<event>
 7    1  0.1191842E+005  0.1043930E+01  0.7957747E-01            NaN
         13   -1    0    0    0    0  0.00000000000E+00  0.00000000000E+00  0.74505805969E-08  0.10566000000E+00  0.10566000000E+00 0. -1.
     999900   -1    0    0    0    0 -0.00000000000E+00 -0.00000000000E+00 -0.74505805969E-08  0.93827000000E+00  0.93827000000E+00 0.  1.
     999903    2    1    2    0    0  0.58948977988E-01  0.64184070141E-01  0.64799188586E-01  0.11040871002E+00  0.19914104071E-01 0.  0.
         14    1    1    2    0    0 -0.36892054429E-01  0.27315307361E-01  0.23081445245E-02  0.45961693042E-01  0.00000000000E+00 0.  1.
     999901    1    1    2    0    0 -0.22056923559E-01 -0.91499377502E-01 -0.67107333111E-01  0.88755959694E+00  0.88000000000E+00 0.  1.
        -11    1    3    3    0    0  0.25894215933E-01  0.15515015835E-01  0.17324311178E-01  0.34808318172E-01  0.51100000000E-03 0.  1.
         11    1    3    3    0    0  0.33054762055E-01  0.48669054306E-01  0.47474877408E-01  0.75600391848E-01  0.51100000000E-03 0. -1.
</event>
<event>
 8    1  0.1191842E+005  0.1043930E+01  0.7957747E-01            NaN
         13   -1    0    0    0    0  0.00000000000E+00  0.00000000000E+00  0.74505805969E-08  0.10566000000E+00  0.10566000000E+00 0. -1.
     999900   -1    0    0    0    0 -0.00000000000E+00 -0.00000000000E+00 -0.74505805969E-08  0.93827000000E+00  0.93827000000E+00 0. -1.
     999902    2    1    2    0    0  0.14098641611E-01  0.64396426826E-02  0.17552501857E-01  0.10205135311E+01  0.10202448413E+01 0.  0.
     999903    2    3    3    0    0 -0.10438303448E+00  0.10548631241E-01 -0.71431705821E-01  0.12811620898E+00  0.17440839987E-01 0.  0.
         14    1    1    2    0    0 -0.14098641611E-01 -0.64396426826E-02 -0.17552501857E-01  0.23416468875E-01  0.00000000000E+00 0.  1.
     999901    1    3    3    0    0  0.11848167609E+00 -0.41089885587E-02  0.88984207678E-01  0.89239732214E+00  0.88000000000E+00 0.  1.
        -11    1    4    4    0    0 -0.18431672913E-01  0.86681273222E-02 -0.13133357552E-01  0.24240651791E-01  0.51100000000E-03 0.  1.
         11    1    4    4    0    0 -0.85951361562E-01  0.18805039190E-02 -0.58298348270E-01  0.10387555719E+00  0.51100000000E-03 0. -1.
</event>
<event>
 8    1  0.1191842E+005  0.1043930E+01  0.7957747E-01            NaN
         13   -1    0    0    0    0  0.00000000000E+00  0.00000000000E+00  0.74505805969E-08  0.10566000000E+00  0.10566000000E+00 0. -1.
     999900   -1    0    0    0    0 -0.00000000000E+00 -0.00000000000E+00 -0.74505805969E-08  0.93827000000E+00  0.93827000000E+00 0.  1.
     999902    2    1    2    0    0  0.75345068838E-02 -0.30933004931E-02  0.21825269744E-01  0.10206345133E+01  0.10203686246E+01 0.  0.
     999903    2    3    3    0    0 -0.43589104522E-01  0.36608592996E-01  0.11847583341E+00  0.13297962796E+00  0.20170752002E-01 0.  0.
         14    1    1    2    0    0 -0.75345068838E-02  0.30933004931E-02 -0.21825269744E-01  0.23295486715E-01  0.00000000000E+00 0. -1.
     999901    1    3    3    0    0  0.51123611406E-01 -0.39701893489E-01 -0.96650563662E-01  0.88765488533E+00  0.88000000000E+00 0.  1.
        -11    1    4    4    0    0 -0.30946744902E-01  0.12930292803E-01  0.66130352394E-01  0.74151049357E-01  0.51100000000E-03 0.  1.
         11    1    4    4    0    0 -0.12642359620E-01  0.23678300193E-01  0.52345481011E-01  0.58828578600E-01  0.51100000000E-03 0. -1.
</event>
<event>
 8    1  0.1191842E+005  0.1043930E+01  0.7957747E-01            NaN
         13   -1    0    0    0    0  0.00000000000E+00  0.00000000000E+00  0.74505805969E-08  0.10566000000E+00  0.10566000000E+00 0. -1.
     999900   -1    0    0    0    0 -0.00000000000E+00 -0.00000000000E+00 -0.74505805969E-08  0.93827000000E+00  0.93827000000E+00 0.  1.
     999902    2    1    2    0    0 -0.18573505900E-01  0.12805731504E-01  0.61090592400E-02  0.10205573133E+01  0.10202896389E+01 0.  0.
     999903    2    3    3    0    0 -0.29911104224E-01  0.76824744478E-02 -0.12539785034E+00  0.13069841648E+00  0.20093795863E-01 0.  0.
         14    1    1    2    0    0  0.18573505900E-01 -0.12805731504E-01 -0.61090592400E-02  0.23372686743E-01  0.00000000000E+00 0.  1.
     999901    1    3    3    0    0  0.11337598324E-01  0.51232570565E-02  0.13150690958E+00  0.88985889677E+00  0.88000000000E+00 0. -1.
        -11    1    4    4    0    0 -0.68204487230E-02 -0.55165691309E-02 -0.49495358412E-01  0.50269301578E-01  0.51100000000E-03 0.  1.
         11    1    4    4    0    0 -0.23090655501E-01  0.13199043579E-01 -0.75902491927E-01  0.80429114906E-01  0.51100000000E-03 0. -1.
</event>
<event>
 8    1  0.1191842E+005  0.1043930E+01  0.7957747E-01            NaN
         13   -1    0    0    0    0  0.00000000000E+00  0.00000000000E+00  0.74505805969E-08  0.10566000000E+00  0.10566000000E+00 0.  1.
     999900   -1    0    0    0    0 -0.00000000000E+00 -0.00000000000E+00 -0.74505805969E-08  0.93827000000E+00  0.93827000000E+00 0. -1.
     999902    2    1    2    0    0  0.13306652517E-01  0.15268255808E-01  0.20133638339E-01  0.10153721634E+01  0.10149704825E+01 0.  0.
     999903    2    3    3    0    0  0.67090638281E-01 -0.18929305611E-01  0.10598148264E+00  0.12890048159E+00  0.22886396312E-01 0.  0.
         14    1    1    2    0    0 -0.13306652517E-01 -0.15268255808E-01 -0.20133638339E-01  0.28557836567E-01  0.00000000000E+00 0. -1.
     999901    1    3    3    0    0 -0.53783985764E-01  0.34197561419E-01 -0.85847844304E-01  0.88647168184E+00  0.88000000000E+00 0. -1.
        -11    1    4    4    0    0  0.54656925566E-01 -0.22445802967E-01  0.76144619427E-01  0.96381833204E-01  0.51100000000E-03 0.  1.
         11    1    4    4    0    0  0.12433712715E-01  0.35164973559E-02  0.29836863216E-01  0.32518648390E-01  0.51100000000E-03 0. -1.
</event>
<event>
 8    1  0.1191842E+005  0.1043930E+01  0.7957747E-01            NaN
         13   -1    0    0    0    0  0.00000000000E+00  0.00000000000E+00  0.74505805969E-08  0.10566000000E+00  0.10566000000E+00 0. -1.
     999900   -1    0    0    0    0 -0.00000000000E+00 -0.00000000000E+00 -0.74505805969E-08  0.93827000000E+00  0.93827000000E+00 0.  1.
     999902    2    1    2    0    0 -0.22464200453E-01  0.82556782697E-03 -0.41841954296E-02  0.10210645379E+01  0.10208084841E+01 0.  0.
     999903    2    3    3    0    0  0.10636909080E+00 -0.68239640781E-01 -0.15647493790E-01  0.12893258178E+00  0.20192437456E-01 0.  0.
         14    1    1    2    0    0  0.22464200453E-01 -0.82556782697E-03  0.41841954296E-02  0.22865462069E-01  0.00000000000E+00 0. -1.
     999901    1    3    3    0    0 -0.12883329126E+00  0.69065208608E-01  0.11463298360E-01  0.89213195615E+00  0.88000000000E+00 0. -1.
        -11    1    4    4    0    0  0.74285459735E-01 -0.55594423780E-01 -0.53583248269E-02  0.92941068691E-01  0.51100000000E-03 0. -1.
         11    1    4    4    0    0  0.32083631068E-01 -0.12645217001E-01 -0.10289168963E-01  0.35991513089E-01  0.51100000000E-03 0.  1.
</event>
<event>
 8    1  0.1191842E+005  0.1043930E+01  0.7957747E-01            NaN
         13   -1    0    0    0    0  0.00000000000E+00  0.00000000000E+00  0.74505805969E-08  0.10566000000E+00  0.10566000000E+00 0. -1.
     999900   -1    0    0    0    0 -0.00000000000E+00 -0.00000000000E+00 -0.74505805969E-08  0.93827000000E+00  0.93827000000E+00 0.  1.
     999902    2    1    2    0    0 -0.10957655270E-01 -0.12931224027E-01  0.16437644005E-01  0.10203189241E+01  0.10200456970E+01 0.  0.
     999903    2    3    3    0    0  0.61497394603E-01 -0.10886864430E+00  0.37645596964E-01  0.13189138057E+00  0.18542762581E-01 0.  0.
         14    1    1    2    0    0  0.10957655270E-01  0.12931224027E-01 -0.16437644005E-01  0.23611075882E-01  0.00000000000E+00 0. -1.
     999901    1    3    3    0    0 -0.72455049873E-01  0.95937420273E-01 -0.21207952958E-01  0.88842754354E+00  0.88000000000E+00 0. -1.
        -11    1    4    4    0    0  0.18199846115E-01 -0.49045464902E-01  0.19618672720E-01  0.55873477307E-01  0.51100000000E-03 0. -1.
         11    1    4    4    0    0  0.43297548488E-01 -0.59823179398E-01  0.18026924243E-01  0.76017903266E-01  0.51100000000E-03 0.  1.
</event>
<event>
 8    1  0.1191842E+005  0.1043930E+01  0.7957747E-01            NaN
         13   -1    0    0    0    0  0.00000000000E+00  0.00000000000E+00  0.74505805969E-08  0.10566000000E+00  0.10566000000E+00 0.  1.
     999900   -1    0    0    0    0 -0.00000000000E+00 -0.00000000000E+00 -0.74505805969E-08  0.93827000000E+00  0.93827000000E+00 0.  1.
     999902    2    1    2    0    0  0.76442450058E-02  0.12292713779E-01 -0.17644959852E-01  0.10211069874E+01  0.10208518942E+01 0.  0.
     999903    2    3    3    0    0 -0.49072115283E-01  0.10448523980E+00 -0.63392342035E-01  0.13329561652E+00  0.20588698803E-01 0.  0.
         14    1    1    2    0    0 -0.76442450058E-02 -0.12292713779E-01  0.17644959852E-01  0.22823012552E-01  0.00000000000E+00 0.  1.
     999901    1    3    3    0    0  0.56716360289E-01 -0.92192526025E-01  0.45747382183E-01  0.88781137093E+00  0.88000000000E+00 0. -1.
        -11    1    4    4    0    0 -0.43916110414E-01  0.84120585891E-01 -0.59262175322E-01  0.11188013349E+00  0.51100000000E-03 0. -1.
         11    1    4    4    0    0 -0.51560048697E-02  0.20364653913E-01 -0.41301667127E-02  0.21415483027E-01  0.51100000000E-03 0.  1.
</event>
<event>
 8    1  0.1191842E+005  0.1043930E+01  0.7957747E-01            NaN
         13   -1    0    0    0    0  0.00000000000E+00  0.00000000000E+00  0.74505805969E-08  0.10566000000E+00  0.10566000000E+00 0. -1.
     999900   -1    0    0    0    0 -0.00000000000E+00 -0.00000000000E+00 -0.74505805969E-08  0.93827000000E+00  0.93827000000E+00 0.  1.
     999902    2    1    2    0    0 -0.70453049120E-02  0.12696645313E-01 -0.16787588229E-01  0.10217339589E+01  0.10214928382E+01 0.  0.
     999903    2    3    3    0    0  0.90813643797E-01 -0.25820028155E-01  0.86354993016E-01  0.12949055035E+00  0.19920493392E-01 0.  0.
         14    1    1    2    0    0  0.70453049120E-02 -0.12696645313E-01  0.16787588229E-01  0.22196041135E-01  0.00000000000E+00 0. -1.
     999901    1    3    3    0    0 -0.97858948709E-01  0.38516673468E-01 -0.10314258124E+00  0.89224340852E+00  0.88000000000E+00 0.  1.
        -11    1    4    4    0    0  0.17681290047E-01 -0.35928523205E-02  0.28045447302E-01  0.33351834146E-01  0.51100000000E-03 0.  1.
         11    1    4    4    0    0  0.73132353750E-01 -0.22227175834E-01  0.58309545714E-01  0.96138716202E-01  0.51100000000E-03 0. -1.
</event>
<event>
 8    1  0.1191842E+005  0.1043930E+01  0.7957747E-01            NaN
         13   -1    0    0    0    0  0.00000000000E+00  0.00000000000E+00  0.74505805969E-08  0.10566000000E+00  0.10566000000E+00 0. -1.
     999900   -1    0    0    0    0 -0.00000000000E+00 -0.00000000000E+00 -0.74505805969E-08  0.93827000000E+00  0.93827000000E+00 0. -1.
     999902    2    1    2    0    0 -0.22585463184E-01  0.77777439687E-02 -0.52908440281E-02  0.10194639117E+01  0.10191702889E+01 0.  0.
     999903    2    3    3    0    0  0.11851465221E+00  0.42647775570E-01  0.21014144819E-02  0.12751110620E+00  0.19751220552E-01 0.  0.
         14    1    1    2    0    0  0.22585463184E-01 -0.77777439687E-02  0.52908440281E-02  0.24466088347E-01  0.00000000000E+00 0. -1.
     999901    1    3    3    0    0 -0.14110011539E+00 -0.34870031601E-01 -0.73922585099E-02  0.89195280545E+00  0.88000000000E+00 0.  1.
        -11    1    4    4    0    0  0.28463485731E-01  0.12534653111E-01 -0.77238671749E-02  0.32050066984E-01  0.51100000000E-03 0.  1.
         11    1    4    4    0    0  0.90051166475E-01  0.30113122458E-01  0.98252816568E-02  0.95461039217E-01  0.51100000000E-03 0. -1.
</event>
<event>
 8    1  0.1191842E+005  0.1043930E+01  0.7957747E-01            NaN
         13   -1    0    0    0    0  0.00000000000E+00  0.00000000000E+00  0.74505805969E-08  0.10566000000E+00  0.10566000000E+00 0.  1.
     999900   -1    0    0    0    0 -0.00000000000E+00 -0.00000000000E+00 -0.74505805969E-08  0.93827000000E+00  0.93827000000E+00 0. -1.
     999902    2    1    2    0    0 -0.19530142569E-01 -0.99227168008E-02  0.91171587575E-02  0.10202021817E+01  0.10199262141E+01 0.  0.
     999903    2    3    3    0    0  0.19148240425E-01  0.40670672978E-01 -0.11893588498E+00  0.12865673114E+00  0.19648180041E-01 0.  0.
         14    1    1    2    0    0  0.19530142569E-01  0.99227168008E-02 -0.91171587575E-02  0.23727818300E-01  0.00000000000E+00 0. -1.
     999901    1    3    3    0    0 -0.38678382994E-01 -0.50593389778E-01  0.12805304374E+00  0.89154545056E+00  0.88000000000E+00 0.  1.
        -11    1    4    4    0    0  0.72488026537E-02  0.21016173073E-01 -0.33688146446E-01  0.40365542267E-01  0.51100000000E-03 0. -1.
         11    1    4    4    0    0  0.11899437771E-01  0.19654499905E-01 -0.85247738539E-01  0.88291188874E-01  0.51100000000E-03 0.  1.
</event>
<event>
 8    1  0.1191842E+005  0.1043930E+01  0.7957747E-01            NaN
         13   -1    0    0    0    0  0.00000000000E+00  0.00000000000E+00  0.74505805969E-08  0.10566000000E+00  0.10566000000E+00 0. -1.
     999900   -1    0    0    0    0 -0.00000000000E+00 -0.00000000000E+00 -0.74505805969E-08  0.93827000000E+00  0.93827000000E+00 0.  1.
     999902    2    1    2    0    0 -0.25963870390E-02  0.16204754498E-01 -0.16507771161E-01  0.10206525044E+01  0.10203870309E+01 0.  0.
     999903    2    3    3    0    0  0.61187073545E-01 -0.16945791648E-01  0.11017669695E+00  0.12867927438E+00  0.19708710791E-01 0.  0.
         14    1    1    2    0    0  0.25963870390E-02 -0.16204754498E-01  0.16507771161E-01  0.23277495628E-01  0.00000000000E+00 0. -1.
     999901    1    3    3    0    0 -0.63783460584E-01  0.33150546147E-01 -0.12668446811E+00  0.89197322999E+00  0.88000000000E+00 0.  1.
        -11    1    4    4    0    0  0.17718294939E-02  0.20308356138E-02  0.12413331747E-01  0.12712812400E-01  0.51100000000E-03 0. -1.
         11    1    4    4    0    0  0.59415244051E-01 -0.18976627262E-01  0.97763365206E-01  0.11596646198E+00  0.51100000000E-03 0.  1.
</event>
<event>
 8    1  0.1191842E+005  0.1043930E+01  0.7957747E-01            NaN
         13   -1    0    0    0    0  0.00000000000E+00  0.00000000000E+00  0.74505805969E-08  0.10566000000E+00  0.10566000000E+00 0. -1.
     999900   -1    0    0    0    0 -0.00000000000E+00 -0.00000000000E+00 -0.74505805969E-08  0.93827000000E+00  0.93827000000E+00 0. -1.
     999902    2    1    2    0    0 -0.12352217135E-01  0.16829479414E-01  0.90833736357E-02  0.10211634385E+01  0.10209096198E+01 0.  0.
     999903    2    3    3    0    0  0.78898596963E-02  0.82710329725E-01 -0.10021350220E+00  0.13172775495E+00  0.20154574475E-01 0.  0.
         14    1    1    2    0    0  0.12352217135E-01 -0.16829479414E-01 -0.90833736357E-02  0.22766561491E-01  0.00000000000E+00 0.  1.
     999901    1    3    3    0    0 -0.20242076832E-01 -0.65880850310E-01  0.10929687584E+00  0.88943568355E+00  0.88000000000E+00 0.  1.
        -11    1    4    4    0    0  0.10972023824E-01  0.37015864708E-01 -0.56359738091E-01  0.68317206804E-01  0.51100000000E-03 0. -1.
         11    1    4    4    0    0 -0.30821641276E-02  0.45694465017E-01 -0.43853764113E-01  0.63410548150E-01  0.51100000000E-03 0.  1.
</event>
<event>
 8    1  0.1191842E+005  0.1043930E+01  0.7957747E-01            NaN
         13   -1    0    0    0    0  0.00000000000E+00  0.00000000000E+00  0.74505805969E-08  0.10566000000E+00  0.10566000000E+00 0.  1.
     999900   -1    0    0    0    0 -0.00000000000E+00 -0.00000000000E+00 -0.74505805969E-08  0.93827000000E+00  0.93827000000E+00 0.  1.
     999902    2    1    2    0    0 -0.12766996914E-01 -0.37816031146E-02  0.19850458506E-01  0.10200273341E+01  0.10197472358E+01 0.  0.
     999903    2    3    3    0    0 -0.33947705858E-01 -0.10170476249E+00  0.75374608851E-01  0.13260381696E+00  0.20152795517E-01 0.  0.
         14    1    1    2    0    0  0.12766996914E-01  0.37816031146E-02 -0.19850458506E-01  0.23902665860E-01  0.00000000000E+00 0. -1.
     999901    1    3    3    0    0  0.21180708943E-01  0.97923159373E-01 -0.55524150345E-01  0.88742351718E+00  0.88000000000E+00 0.  1.
        -11    1    4    4    0    0 -0.58855779134E-02 -0.47500178020E-01  0.29239807153E-01  0.56090412573E-01  0.51100000000E-03 0. -1.
         11    1    4    4    0    0 -0.28062127944E-01 -0.54204584468E-01  0.46134801698E-01  0.76513404386E-01  0.51100000000E-03 0.  1.
</event>
<event>
 8    1  0.1191842E+005  0.1043930E+01  0.7957747E-01            NaN
         13   -1    0    0    0    0  0.00000000000E+00  0.00000000000E+00  0.74505805969E-08  0.10566000000E+00  0.10566000000E+00 0. -1.
     999900   -1    0    0    0    0 -0.00000000000E+00 -0.00000000000E+00 -0.74505805969E-08  0.93827000000E+00  0.93827000000E+00 0. -1.
     999902    2    1    2    0    0  0.91865332057E-03  0.16428294521E-03 -0.23868956285E-01  0.10200428071E+01  0.10197630755E+01 0.  0.
     999903    2    3    3    0    0  0.66178198460E-01  0.96414590284E-01 -0.57583300442E-01  0.13175254655E+00  0.19172111579E-01 0.  0.
         14    1    1    2    0    0 -0.91865332057E-03 -0.16428294521E-03  0.23868956285E-01  0.23887192949E-01  0.00000000000E+00 0. -1.
     999901    1    3    3    0    0 -0.65259545140E-01 -0.96250307338E-01  0.33714344156E-01  0.88829026050E+00  0.88000000000E+00 0.  1.
        -11    1    4    4    0    0  0.51257843963E-01  0.58797285140E-01 -0.39229259015E-01  0.87313705633E-01  0.51100000000E-03 0. -1.
         11    1    4    4    0    0  0.14920354498E-01  0.37617305143E-01 -0.18354041427E-01  0.44438840920E-01  0.51100000000E-03 0.  1.
</event>
<event>
 8    1  0.1191842E+005  0.1043930E+01  0.7957747E-01            NaN
         13   -1    0    0    0    0  0.00000000000E+00  0.00000000000E+00  0.74505805969E-08  0.10566000000E+00  0.10566000000E+00 0.  1.
     999900   -1    0    0    0    0 -0.00000000000E+00 -0.00000000000E+00 -0.74505805969E-08  0.93827000000E+00  0.93827000000E+00 0.  1.
     999902    2    1    2    0    0  0.15770631477E-01  0.78996335094E-02 -0.87872959807E-02  0.10242238183E+01  0.10240342262E+01 0.  0.
     999903    2    3    3    0    0  0.10584402468E+00  0.82504622589E-01 -0.15407990275E-01  0.13646092531E+00  0.19344447888E-01 0.  0.
         14    1    1    2    0    0 -0.15770631477E-01 -0.78996335094E-02  0.87872959807E-02  0.19706181706E-01  0.00000000000E+00 0.  1.
     999901    1    3    3    0    0 -0.90073393204E-01 -0.74604989080E-01  0.66206942946E-02  0.88776289298E+00  0.88000000000E+00 0. -1.
        -11    1    4    4    0    0  0.53652903880E-01  0.31879281093E-01 -0.12746792322E-01  0.63699799790E-01  0.51100000000E-03 0.  1.
         11    1    4    4    0    0  0.52191120801E-01  0.50625341496E-01 -0.26611979532E-02  0.72761125525E-01  0.51100000000E-03 0. -1.
</event>
<event>
 8    1  0.1191842E+005  0.1043930E+01  0.7957747E-01            NaN
         13   -1    0    0    0    0  0.00000000000E+00  0.00000000000E+00  0.74505805969E-08  0.10566000000E+00  0.10566000000E+00 0.  1.
     999900   -1    0    0    0    0 -0.00000000000E+00 -0.00000000000E+00 -0.74505805969E-08  0.93827000000E+00  0.93827000000E+00 0. -1.
     999902    2    1    2    0    0  0.17268846869E-01  0.11848322379E-01 -0.10215746914E-01  0.10206285558E+01  0.10203625295E+01 0.  0.
     999903    2    3    3    0    0 -0.99266880437E-01 -0.54881150279E-01  0.55828179116E-01  0.12799470120E+00  0.20000093629E-01 0.  0.
         14    1    1    2    0    0 -0.17268846869E-01 -0.11848322379E-01  0.10215746914E-01  0.23301444170E-01  0.00000000000E+00 0.  1.
     999901    1    3    3    0    0  0.11653572731E+00  0.66729472658E-01 -0.66043926030E-01  0.89263385463E+00  0.88000000000E+00 0.  1.
        -11    1    4    4    0    0 -0.90443553174E-02 -0.49655588155E-02 -0.79174109136E-03  0.10360748642E-01  0.51100000000E-03 0. -1.
         11    1    4    4    0    0 -0.90222525120E-01 -0.49915591464E-01  0.56619920207E-01  0.11763395256E+00  0.51100000000E-03 0.  1.
</event>
<event>
 8    1  0.1191842E+005  0.1043930E+01  0.7957747E-01            NaN
         13   -1    0    0    0    0  0.00000000000E+00  0.00000000000E+00  0.74505805969E-08  0.10566000000E+00  0.10566000000E+00 0. -1.
     999900   -1    0    0    0    0 -0.00000000000E+00 -0.00000000000E+00 -0.74505805969E-08  0.93827000000E+00  0.93827000000E+00 0.  1.
     999902    2    1    2    0    0  0.19235724199E-01  0.39892657803E-02 -0.47033378952E-02  0.10237297843E+01  0.10235304698E+01 0.  0.
     999903    2    3    3    0    0  0.92245648002E-01 -0.79223654686E-01  0.54919314259E-01  0.13479238507E+00  0.19162696999E-01 0.  0.
         14    1    1    2    0    0 -0.19235724199E-01 -0.39892657803E-02  0.47033378952E-02  0.20200215699E-01  0.00000000000E+00 0.  1.
     999901    1    3    3    0    0 -0.73009923803E-01  0.83212920467E-01 -0.59622652155E-01  0.88893739923E+00  0.88000000000E+00 0.  1.
        -11    1    4    4    0    0  0.34758267924E-01 -0.38876559147E-01  0.16297106051E-01  0.54638638589E-01  0.51100000000E-03 0. -1.
         11    1    4    4    0    0  0.57487380077E-01 -0.40347095540E-01  0.38622208209E-01  0.80153746479E-01  0.51100000000E-03 0.  1.
</event>
<event>
 8    1  0.1191842E+005  0.1043930E+01  0.7957747E-01            NaN
         13   -1    0    0    0    0  0.00000000000E+00  0.00000000000E+00  0.74505805969E-08  0.10566000000E+00  0.10566000000E+00 0. -1.
     999900   -1    0    0    0    0 -0.00000000000E+00 -0.00000000000E+00 -0.74505805969E-08  0.93827000000E+00  0.93827000000E+00 0. -1.
     999902    2    1    2    0    0  0.34389166669E-02 -0.20563902743E-01  0.10824360579E-01  0.10204381498E+01  0.10201677071E+01 0.  0.
     999903    2    3    3    0    0 -0.45896303144E-02  0.31003679214E-01 -0.12312080402E+00  0.12877398645E+00  0.21017002002E-01 0.  0.
         14    1    1    2    0    0 -0.34389166669E-02  0.20563902743E-01 -0.10824360579E-01  0.23491850200E-01  0.00000000000E+00 0.  1.
     999901    1    3    3    0    0  0.80285469814E-02 -0.51567581957E-01  0.13394516460E+00  0.89166416335E+00  0.88000000000E+00 0.  1.
        -11    1    4    4    0    0 -0.41712779348E-02  0.28933044955E-01 -0.73439838609E-01  0.79045503768E-01  0.51100000000E-03 0. -1.
         11    1    4    4    0    0 -0.41835237962E-03  0.20706342583E-02 -0.49680965413E-01  0.49728482686E-01  0.51100000000E-03 0.  1.
</event>
<event>
 8    1  0.1191842E+005  0.1043930E+01  0.7957747E-01            NaN
         13   -1    0    0    0    0  0.00000000000E+00  0.00000000000E+00  0.74505805969E-08  0.10566000000E+00  0.10566000000E+00 0. -1.
     999900   -1    0    0    0    0 -0.00000000000E+00 -0.00000000000E+00 -0.74505805969E-08  0.93827000000E+00  0.93827000000E+00 0. -1.
     999902    2    1    2    0    0 -0.15656384652E-02  0.20811993753E-01  0.10595794445E-01  0.10205235657E+01  0.10202551088E+01 0.  0.
     999903    2    3    3    0    0  0.21499599827E-01 -0.93263523119E-01 -0.82420309607E-01  0.12800061114E+00  0.20754071373E-01 0.  0.
         14    1    1    2    0    0  0.15656384652E-02 -0.20811993753E-01 -0.10595794445E-01  0.23406434323E-01  0.00000000000E+00 0. -1.
     999901    1    3    3    0    0 -0.23065238293E-01  0.11407551687E+00  0.93016104052E-01  0.89252295454E+00  0.88000000000E+00 0.  1.
        -11    1    4    4    0    0  0.16406485987E-01 -0.43248063017E-01 -0.28773684555E-01  0.54477094096E-01  0.51100000000E-03 0. -1.
         11    1    4    4    0    0  0.50931138400E-02 -0.50015460101E-01 -0.53646625052E-01  0.73523517042E-01  0.51100000000E-03 0.  1.
</event>
<event>
 8    1  0.1191842E+005  0.1043930E+01  0.7957747E-01            NaN
         13   -1    0    0    0    0  0.00000000000E+00  0.00000000000E+00  0.74505805969E-08  0.10566000000E+00  0.10566000000E+00 0. -1.
     999900   -1    0    0    0    0 -0.00000000000E+00 -0.00000000000E+00 -0.74505805969E-08  0.93827000000E+00  0.93827000000E+00 0.  1.
     999902    2    1    2    0    0  0.12217179844E-01  0.16786492739E-01 -0.12431139795E-01  0.10197312592E+01  0.10194440945E+01 0.  0.
     999903    2    3    3    0    0 -0.11668777443E+00 -0.45888384734E-01  0.14726647027E-01  0.12772107262E+00  0.19339537315E-01 0.  0.
         14    1    1    2    0    0 -0.12217179844E-01 -0.16786492739E-01  0.12431139795E-01  0.24198740843E-01  0.00000000000E+00 0.  1.
     999901    1    3    3    0    0  0.12890495427E+00  0.62674877472E-01 -0.27157786823E-01  0.89201018654E+00  0.88000000000E+00 0. -1.
        -11    1    4    4    0    0 -0.72678376662E-01 -0.38165780152E-01  0.71986621202E-02  0.82406644551E-01  0.51100000000E-03 0.  1.
         11    1    4    4    0    0 -0.44009397767E-01 -0.77226045815E-02  0.75279849072E-02  0.45314428068E-01  0.51100000000E-03 0. -1.
</event>
<event>
 8    1  0.1191842E+005  0.1043930E+01  0.7957747E-01            NaN
         13   -1    0    0    0    0  0.00000000000E+00  0.00000000000E+00  0.74505805969E-08  0.10566000000E+00  0.10566000000E+00 0. -1.
     999900   -1    0    0    0    0 -0.00000000000E+00 -0.00000000000E+00 -0.74505805969E-08  0.93827000000E+00  0.93827000000E+00 0. -1.
     999902    2    1    2    0    0  0.13660600082E-02  0.53262750014E-02  0.22328251613E-01  0.10209346495E+01  0.10206756450E+01 0.  0.
     999903    2    3    3    0    0 -0.11650386429E+00 -0.46177249669E-01 -0.29029730914E-01  0.13010157057E+00  0.19447483305E-01 0.  0.
         14    1    1    2    0    0 -0.13660600082E-02 -0.53262750014E-02 -0.22328251613E-01  0.22995350517E-01  0.00000000000E+00 0.  1.
     999901    1    3    3    0    0  0.11786992430E+00  0.51503524670E-01  0.51357982527E-01  0.89083307891E+00  0.88000000000E+00 0.  1.
        -11    1    4    4    0    0 -0.87009633948E-01 -0.30734747708E-01 -0.13148601244E-01  0.93211844484E-01  0.51100000000E-03 0.  1.
         11    1    4    4    0    0 -0.29494230344E-01 -0.15442501960E-01 -0.15881129670E-01  0.36889726090E-01  0.51100000000E-03 0. -1.
</event>
<event>
 8    1  0.1191842E+005  0.1043930E+01  0.7957747E-01            NaN
         13   -1    0    0    0    0  0.00000000000E+00  0.00000000000E+00  0.74505805969E-08  0.10566000000E+00  0.10566000000E+00 0. -1.
     999900   -1    0    0    0    0 -0.00000000000E+00 -0.00000000000E+00 -0.74505805969E-08  0.93827000000E+00  0.93827000000E+00 0. -1.
     999902    2    1    2    0    0 -0.15518832065E-01 -0.15093266094E-01  0.11045904944E-01  0.10196266495E+01  0.10193369666E+01 0.  0.
     999903    2    3    3    0    0  0.11183664550E+00 -0.13404487247E-01 -0.56704408436E-01  0.12787983867E+00  0.21230818318E-01 0.  0.
         14    1    1    2    0    0  0.15518832065E-01  0.15093266094E-01 -0.11045904944E-01  0.24303350512E-01  0.00000000000E+00 0.  1.
     999901    1    3    3    0    0 -0.12735547757E+00 -0.16887788474E-02  0.67750313380E-01  0.89174681082E+00  0.88000000000E+00 0. -1.
        -11    1    4    4    0    0  0.91686275980E-01 -0.10008249225E-01 -0.36659953213E-01  0.99250952370E-01  0.51100000000E-03 0.  1.
         11    1    4    4    0    0  0.20150369523E-01 -0.33962380221E-02 -0.20044455224E-01  0.28628886301E-01  0.51100000000E-03 0. -1.
</event>
<event>
 8    1  0.1191842E+005  0.1043930E+01  0.7957747E-01            NaN
         13   -1    0    0    0    0  0.00000000000E+00  0.00000000000E+00  0.74505805969E-08  0.10566000000E+00  0.10566000000E+00 0. -1.
     999900   -1    0    0    0    0 -0.00000000000E+00 -0.00000000000E+00 -0.74505805969E-08  0.93827000000E+00  0.93827000000E+00 0. -1.
     999902    2    1    2    0    0  0.50907689124E-02 -0.85540331545E-02 -0.20947795954E-01  0.10207373812E+01  0.10204738624E+01 0.  0.
     999903    2    3    3    0    0  0.86284461938E-01 -0.94124612686E-01  0.24581253647E-01  0.13169990493E+00  0.20884823231E-01 0.  0.
         14    1    1    2    0    0 -0.50907689124E-02  0.85540331545E-02  0.20947795954E-01  0.23192618797E-01  0.00000000000E+00 0. -1.
     999901    1    3    3    0    0 -0.81193693025E-01  0.85570579532E-01 -0.45529049601E-01  0.88903747628E+00  0.88000000000E+00 0.  1.
        -11    1    4    4    0    0  0.59304017222E-01 -0.72355204252E-01  0.10002400604E-01  0.94087997002E-01  0.51100000000E-03 0.  1.
         11    1    4    4    0    0  0.26980444716E-01 -0.21769408435E-01  0.14578853042E-01  0.37611907924E-01  0.51100000000E-03 0. -1.
</event>
<event>
 8    1  0.1191842E+005  0.1043930E+01  0.7957747E-01            NaN
         13   -1    0    0    0    0  0.00000000000E+00  0.00000000000E+00  0.74505805969E-08  0.10566000000E+00  0.10566000000E+00 0. -1.
     999900   -1    0    0    0    0 -0.00000000000E+00 -0.00000000000E+00 -0.74505805969E-08  0.93827000000E+00  0.93827000000E+00 0. -1.
     999902    2    1    2    0    0  0.13858339123E-02 -0.23613834279E-01  0.82053176166E-03  0.10202613081E+01  0.10199867302E+01 0.  0.
     999903    2    3    3    0    0 -0.48226900516E-01  0.33685274091E-01 -0.11375811826E+00  0.12960263144E+00  0.19884692154E-01 0.  0.
         14    1    1    2    0    0 -0.13858339123E-02  0.23613834279E-01 -0.82053176166E-03  0.23668691923E-01  0.00000000000E+00 0.  1.
     999901    1    3    3    0    0  0.49612734428E-01 -0.57299108369E-01  0.11457865002E+00  0.89065867664E+00  0.88000000000E+00 0.  1.
        -11    1    4    4    0    0 -0.78210092159E-02  0.16147014538E-01 -0.36283712954E-01  0.40480405264E-01  0.51100000000E-03 0.  1.
         11    1    4    4    0    0 -0.40405891300E-01  0.17538259553E-01 -0.77474405302E-01  0.89122226171E-01  0.51100000000E-03 0. -1.
</event>
<event>
 7    1  0.1191842E+005  0.1043930E+01  0.7957747E-01            NaN
         13   -1    0    0    0    0  0.00000000000E+00  0.00000000000E+00  0.74505805969E-08  0.10566000000E+00  0.10566000000E+00 0. -1.
     999900   -1    0    0    0    0 -0.00000000000E+00 -0.00000000000E+00 -0.74505805969E-08  0.93827000000E+00  0.93827000000E+00 0.  1.
     999902    2    1    2    0    0  0.16305124465E-01  0.13345309077E-01 -0.88412814910E-02  0.10210799974E+01  0.10208242937E+01 0.  0.
         14    1    1    2    0    0 -0.16305124465E-01 -0.13345309077E-01  0.88412814910E-02  0.22850002551E-01  0.00000000000E+00 0. -1.
     999901    1    3    3    0    0  0.13732087433E-01 -0.64421905760E-01 -0.10844648797E+00  0.88910032781E+00  0.88000000000E+00 0.  1.
        -11    1    3    3    0    0 -0.16203192050E-01  0.20030436492E-01  0.32682327860E-01  0.41619196220E-01  0.51100000000E-03 0. -1.
         11    1    3    3    0    0  0.18776229081E-01  0.57736778345E-01  0.66922878618E-01  0.90360473415E-01  0.51100000000E-03 0.  1.
</event>
<event>
 8    1  0.1191842E+005  0.1043930E+01  0.7957747E-01            NaN
         13   -1    0    0    0    0  0.00000000000E+00  0.00000000000E+00  0.74505805969E-08  0.10566000000E+00  0.10566000000E+00 0.  1.
     999900   -1    0    0    0    0 -0.00000000000E+00 -0.00000000000E+00 -0.74505805969E-08  0.93827000000E+00  0.93827000000E+00 0.  1.
     999902    2    1    2    0    0  0.13242984250E-01  0.83718082450E-03 -0.19378483648E-01  0.10204437672E+01  0.10201734553E+01 0.  0.
     999903    2    3    3    0    0 -0.10854818557E+00 -0.66213094611E-01 -0.16768638656E-01  0.12952534231E+00  0.18131314589E-01 0.  0.
         14    1    1    2    0    0 -0.13242984250E-01 -0.83718082450E-03  0.19378483648E-01  0.23486232820E-01  0.00000000000E+00 0.  1.
     999901    1    3    3    0    0  0.12179116982E+00  0.67050275436E-01 -0.26098449921E-02  0.89091842487E+00  0.88000000000E+00 0.  1.
        -11    1    4    4    0    0 -0.26752873198E-01 -0.99905802891E-02  0.15041849187E-02  0.28601601566E-01  0.51100000000E-03 0.  1.
         11    1    4    4    0    0 -0.81795312376E-01 -0.56222514322E-01 -0.18272823574E-01  0.10092374074E+00  0.51100000000E-03 0. -1.
</event>
<event>
 8    1  0.1191842E+005  0.1043930E+01  0.7957747E-01            NaN
         13   -1    0    0    0    0  0.00000000000E+00  0.00000000000E+00  0.74505805969E-08  0.10566000000E+00  0.10566000000E+00 0.  1.
     999900   -1    0    0    0    0 -0.00000000000E+00 -0.00000000000E+00 -0.74505805969E-08  0.93827000000E+00  0.93827000000E+00 0. -1.
     999902    2    1    2    0    0 -0.23311679844E-01  0.63757234289E-03  0.28488654506E-02  0.10204362359E+01  0.10201657486E+01 0.  0.
     999903    2    3    3    0    0  0.55571974202E-02 -0.57460882004E-01 -0.11539080273E+00  0.13016129997E+00  0.17154919166E-01 0.  0.
         14    1    1    2    0    0  0.23311679844E-01 -0.63757234289E-03 -0.28488654506E-02  0.23493764066E-01  0.00000000000E+00 0.  1.
     999901    1    3    3    0    0 -0.28868877264E-01  0.58098454347E-01  0.11823966818E+00  0.89027493596E+00  0.88000000000E+00 0.  1.
        -11    1    4    4    0    0 -0.20492140194E-02 -0.41024771256E-01 -0.68254697665E-01  0.79663015315E-01  0.51100000000E-03 0.  1.
         11    1    4    4    0    0  0.76064114396E-02 -0.16436110748E-01 -0.47136105066E-01  0.50498284657E-01  0.51100000000E-03 0. -1.
</event>
<event>
 8    1  0.1191842E+005  0.1043930E+01  0.7957747E-01            NaN
         13   -1    0    0    0    0  0.00000000000E+00  0.00000000000E+00  0.74505805969E-08  0.10566000000E+00  0.10566000000E+00 0. -1.
     999900   -1    0    0    0    0 -0.00000000000E+00 -0.00000000000E+00 -0.74505805969E-08  0.93827000000E+00  0.93827000000E+00 0. -1.
     999902    2    1    2    0    0  0.12588586372E-01 -0.88959649342E-02  0.18091466433E-01  0.10201621255E+01  0.10198852144E+01 0.  0.
     999903    2    3    3    0    0 -0.89562011627E-01  0.49782545943E-01  0.77937702154E-01  0.13029725701E+00  0.20085665506E-01 0.  0.
         14    1    1    2    0    0 -0.12588586372E-01  0.88959649342E-02 -0.18091466433E-01  0.23767874466E-01  0.00000000000E+00 0.  1.
     999901    1    3    3    0    0  0.10215059800E+00 -0.58678510877E-01 -0.59846235722E-01  0.88986486853E+00  0.88000000000E+00 0. -1.
        -11    1    4    4    0    0 -0.40528932535E-01  0.12152397935E-01  0.36502150225E-01  0.55883300190E-01  0.51100000000E-03 0. -1.
         11    1    4    4    0    0 -0.49033079092E-01  0.37630148008E-01  0.41435551929E-01  0.74413956816E-01  0.51100000000E-03 0.  1.
</event>
<event>
 8    1  0.1191842E+005  0.1043930E+01  0.7957747E-01            NaN
         13   -1    0    0    0    0  0.00000000000E+00  0.00000000000E+00  0.74505805969E-08  0.10566000000E+00  0.10566000000E+00 0.  1.
     999900   -1    0    0    0    0 -0.00000000000E+00 -0.00000000000E+00 -0.74505805969E-08  0.93827000000E+00  0.93827000000E+00 0.  1.
     999902    2    1    2    0    0 -0.11096398033E-01  0.21137489845E-01  0.16779708559E-02  0.10199980316E+01  0.10197172379E+01 0.  0.
     999903    2    3    3    0    0 -0.90755420246E-01 -0.85148347624E-01 -0.29574965164E-01  0.12948189749E+00  0.20102134357E-01 0.  0.
         14    1    1    2    0    0  0.11096398033E-01 -0.21137489845E-01 -0.16779708559E-02  0.23931968420E-01  0.00000000000E+00 0.  1.
     999901    1    3    3    0    0  0.79659022213E-01  0.10628583747E+00  0.31252936020E-01  0.89051613409E+00  0.88000000000E+00 0. -1.
        -11    1    4    4    0    0 -0.69175819971E-01 -0.66181821484E-01 -0.13872697353E-01  0.96736965099E-01  0.51100000000E-03 0. -1.
         11    1    4    4    0    0 -0.21579600275E-01 -0.18966526140E-01 -0.15702267810E-01  0.32744932390E-01  0.51100000000E-03 0.  1.
</event>
<event>
 8    1  0.1191842E+005  0.1043930E+01  0.7957747E-01            NaN
         13   -1    0    0    0    0  0.00000000000E+00  0.00000000000E+00  0.74505805969E-08  0.10566000000E+00  0.10566000000E+00 0. -1.
     999900   -1    0    0    0    0 -0.00000000000E+00 -0.00000000000E+00 -0.74505805969E-08  0.93827000000E+00  0.93827000000E+00 0. -1.
     999902    2    1    2    0    0 -0.17231771744E-01 -0.14286195840E-01 -0.51232405389E-02  0.10209674883E+01  0.10207092315E+01 0.  0.
     999903    2    3    3    0    0 -0.12586445659E-01 -0.55712291820E-01 -0.11820042377E+00  0.13275346577E+00  0.19744984739E-01 0.  0.
         14    1    1    2    0    0  0.17231771744E-01  0.14286195840E-01  0.51232405389E-02  0.22962511679E-01  0.00000000000E+00 0.  1.
     999901    1    3    3    0    0 -0.46453260847E-02  0.41426095980E-01  0.11307718323E+00  0.88821402255E+00  0.88000000000E+00 0.  1.
        -11    1    4    4    0    0 -0.85723580105E-02 -0.39752311814E-01 -0.61659420031E-01  0.73863907397E-01  0.51100000000E-03 0. -1.
         11    1    4    4    0    0 -0.40140876489E-02 -0.15959980006E-01 -0.56541003735E-01  0.58889558377E-01  0.51100000000E-03 0.  1.
</event>
<event>
 8    1  0.1191842E+005  0.1043930E+01  0.7957747E-01            NaN
         13   -1    0    0    0    0  0.00000000000E+00  0.00000000000E+00  0.74505805969E-08  0.10566000000E+00  0.10566000000E+00 0. -1.
     999900   -1    0    0    0    0 -0.00000000000E+00 -0.00000000000E+00 -0.74505805969E-08  0.93827000000E+00  0.93827000000E+00 0. -1.
     999902    2    1    2    0    0  0.18929293520E-01 -0.12355992509E-01  0.73667904909E-02  0.10201548385E+01  0.10198777555E+01 0.  0.
     999903    2    3    3    0    0 -0.11195432330E+00  0.68117484517E-06  0.60460442418E-01  0.12880634073E+00  0.20045892581E-01 0.  0.
         14    1    1    2    0    0 -0.18929293520E-01  0.12355992509E-01 -0.73667904909E-02  0.23775161539E-01  0.00000000000E+00 0. -1.
     999901    1    3    3    0    0  0.13088361682E+00 -0.12356673684E-01 -0.53093651927E-01  0.89134849773E+00  0.88000000000E+00 0. -1.
        -11    1    4    4    0    0 -0.30675717069E-01 -0.37937956930E-02  0.26185589187E-01  0.40513438579E-01  0.51100000000E-03 0.  1.
         11    1    4    4    0    0 -0.81278606227E-01  0.37944768679E-02  0.34274853231E-01  0.88292902149E-01  0.51100000000E-03 0. -1.
</event>
<event>
 8    1  0.1191842E+005  0.1043930E+01  0.7957747E-01            NaN
         13   -1    0    0    0    0  0.00000000000E+00  0.00000000000E+00  0.74505805969E-08  0.10566000000E+00  0.10566000000E+00 0. -1.
     999900   -1    0    0    0    0 -0.00000000000E+00 -0.00000000000E+00 -0.74505805969E-08  0.93827000000E+00  0.93827000000E+00 0. -1.
     999902    2    1    2    0    0 -0.58115348859E-02 -0.91913931097E-02  0.20473644064E-01  0.10207475552E+01  0.10204842702E+01 0.  0.
     999903    2    3    3    0    0  0.23741381362E-01  0.45269702375E-01 -0.11598445819E+00  0.12807729165E+00  0.18395623169E-01 0.  0.
         14    1    1    2    0    0  0.58115348859E-02  0.91913931097E-02 -0.20473644064E-01  0.23182444787E-01  0.00000000000E+00 0.  1.
     999901    1    3    3    0    0 -0.29552916248E-01 -0.54461095485E-01  0.13645810226E+00  0.89267026356E+00  0.88000000000E+00 0.  1.
        -11    1    4    4    0    0  0.35736015411E-02  0.25143102247E-01 -0.46696190012E-01  0.53157704063E-01  0.51100000000E-03 0. -1.
         11    1    4    4    0    0  0.20167779821E-01  0.20126600128E-01 -0.69288268181E-01  0.74919587586E-01  0.51100000000E-03 0.  1.
</event>
<event>
 8    1  0.1191842E+005  0.1043930E+01  0.7957747E-01            NaN
         13   -1    0    0    0    0  0.00000000000E+00  0.00000000000E+00  0.74505805969E-08  0.10566000000E+00  0.10566000000E+00 0.  1.
     999900   -1    0    0    0    0 -0.00000000000E+00 -0.00000000000E+00 -0.74505805969E-08  0.93827000000E+00  0.93827000000E+00 0. -1.
     999902    2    1    2    0    0  0.20719734070E-01 -0.94084720272E-02  0.86002519800E-02  0.10196032439E+01  0.10193129961E+01 0.  0.
     999903    2    3    3    0    0 -0.21341403384E-01  0.89966352768E-01  0.88490361281E-01  0.12941959736E+00  0.19222070989E-01 0.  0.
         14    1    1    2    0    0 -0.20719734070E-01  0.94084720272E-02 -0.86002519800E-02  0.24326756050E-01  0.00000000000E+00 0. -1.
     999901    1    3    3    0    0  0.42061137453E-01 -0.99374824795E-01 -0.79890109301E-01  0.89018364659E+00  0.88000000000E+00 0. -1.
        -11    1    4    4    0    0  0.34635740174E-02  0.17181926067E-01  0.15779316520E-01  0.23589465428E-01  0.51100000000E-03 0. -1.
         11    1    4    4    0    0 -0.24804977401E-01  0.72784426702E-01  0.72711044761E-01  0.10583013193E+00  0.51100000000E-03 0.  1.
</event>
<event>
 8    1  0.1191842E+005  0.1043930E+01  0.7957747E-01            NaN
         13   -1    0    0    0    0  0.00000000000E+00  0.00000000000E+00  0.74505805969E-08  0.10566000000E+00  0.10566000000E+00 0.  1.
     999900   -1    0    0    0    0 -0.00000000000E+00 -0.00000000000E+00 -0.74505805969E-08  0.93827000000E+00  0.93827000000E+00 0. -1.
     999902    2    1    2    0    0  0.71390104435E-02  0.54819634331E-02  0.22084556181E-01  0.10200816245E+01  0.10198028121E+01 0.  0.
     999903    2    3    3    0    0  0.96385459226E-01  0.25181498111E-01 -0.80240255093E-01  0.12945074286E+00  0.19867855782E-01 0.  0.
         14    1    1    2    0    0 -0.71390104435E-02 -0.54819634331E-02 -0.22084556181E-01  0.23848375519E-01  0.00000000000E+00 0. -1.
     999901    1    3    3    0    0 -0.89246448783E-01 -0.19699534678E-01  0.10232481127E+00  0.89063088162E+00  0.88000000000E+00 0. -1.
        -11    1    4    4    0    0  0.29221400565E-01  0.48153621144E-03 -0.30848889315E-01  0.42497496645E-01  0.51100000000E-03 0.  1.
         11    1    4    4    0    0  0.67164058662E-01  0.24699961899E-01 -0.49391365778E-01  0.86953246219E-01  0.51100000000E-03 0. -1.
</event>
<event>
 8    1  0.1191842E+005  0.1043930E+01  0.7957747E-01            NaN
         13   -1    0    0    0    0  0.00000000000E+00  0.00000000000E+00  0.74505805969E-08  0.10566000000E+00  0.10566000000E+00 0.  1.
     999900   -1    0    0    0    0 -0.00000000000E+00 -0.00000000000E+00 -0.74505805969E-08  0.93827000000E+00  0.93827000000E+00 0. -1.
     999902    2    1    2    0    0  0.11035911897E-01  0.19579173015E-01 -0.64181325337E-02  0.10205563440E+01  0.10202886472E+01 0.  0.
     999903    2    3    3    0    0 -0.63398383158E-01  0.10415473289E+00  0.48962562704E-01  0.13164661240E+00  0.81200147380E-02 0.  0.
         14    1    1    2    0    0 -0.11035911897E-01 -0.19579173015E-01  0.64181325337E-02  0.23373655952E-01  0.00000000000E+00 0.  1.
     999901    1    3    3    0    0  0.74434295056E-01 -0.84575559878E-01 -0.55380695238E-01  0.88890973165E+00  0.88000000000E+00 0. -1.
        -11    1    4    4    0    0 -0.24479751258E-01  0.35116888231E-01  0.14195150157E-01  0.45102300049E-01  0.51100000000E-03 0. -1.
         11    1    4    4    0    0 -0.38918631900E-01  0.69037844661E-01  0.34767412547E-01  0.86544312353E-01  0.51100000000E-03 0.  1.
</event>
<event>
 8    1  0.1191842E+005  0.1043930E+01  0.7957747E-01            NaN
         13   -1    0    0    0    0  0.00000000000E+00  0.00000000000E+00  0.74505805969E-08  0.10566000000E+00  0.10566000000E+00 0. -1.
     999900   -1    0    0    0    0 -0.00000000000E+00 -0.00000000000E+00 -0.74505805969E-08  0.93827000000E+00  0.93827000000E+00 0. -1.
     999902    2    1    2    0    0  0.68545862973E-02  0.18656241639E-01 -0.13733334406E-01  0.10197712505E+01  0.10194850455E+01 0.  0.
     999903    2    3    3    0    0  0.58332799432E-01  0.81907343675E-01  0.81469895605E-01  0.13088747665E+00  0.19561677252E-01 0.  0.
         14    1    1    2    0    0 -0.68545862973E-02 -0.18656241639E-01  0.13733334406E-01  0.24158749539E-01  0.00000000000E+00 0. -1.
     999901    1    3    3    0    0 -0.51478213134E-01 -0.63251102036E-01 -0.95203230011E-01  0.88888377381E+00  0.88000000000E+00 0. -1.
        -11    1    4    4    0    0  0.30564275226E-01  0.33553558805E-01  0.26368504465E-01  0.52493574628E-01  0.51100000000E-03 0. -1.
         11    1    4    4    0    0  0.27768524206E-01  0.48353784870E-01  0.55101391140E-01  0.78393902023E-01  0.51100000000E-03 0.  1.
</event>
<event>
 8    1  0.1191842E+005  0.1043930E+01  0.7957747E-01            NaN
         13   -1    0    0    0    0  0.00000000000E+00  0.00000000000E+00  0.74505805969E-08  0.10566000000E+00  0.10566000000E+00 0. -1.
     999900   -1    0    0    0    0 -0.00000000000E+00 -0.00000000000E+00 -0.74505805969E-08  0.93827000000E+00  0.93827000000E+00 0.  1.
     999902    2    1    2    0    0  0.52008506003E-02  0.29465428408E-02 -0.22424010950E-01  0.10207229487E+01  0.10204590981E+01 0.  0.
     999903    2    3    3    0    0  0.81714062737E-01  0.33116803018E-02 -0.10426039279E+00  0.13362002440E+00  0.17202503932E-01 0.  0.
         14    1    1    2    0    0 -0.52008506003E-02 -0.29465428408E-02  0.22424010950E-01  0.23207051272E-01  0.00000000000E+00 0. -1.
     999901    1    3    3    0    0 -0.76513212137E-01 -0.36513746098E-03  0.81836381837E-01  0.88710292433E+00  0.88000000000E+00 0. -1.
        -11    1    4    4    0    0  0.72517705078E-01  0.65093500887E-02 -0.84196346520E-01  0.11131251087E+00  0.51100000000E-03 0. -1.
         11    1    4    4    0    0  0.91963576591E-02 -0.31976697869E-02 -0.20064046267E-01  0.22307513529E-01  0.51100000000E-03 0.  1.
</event>
<event>
 8    1  0.1191842E+005  0.1043930E+01  0.7957747E-01            NaN
         13   -1    0    0    0    0  0.00000000000E+00  0.00000000000E+00  0.74505805969E-08  0.10566000000E+00  0.10566000000E+00 0.  1.
     999900   -1    0    0    0    0 -0.00000000000E+00 -0.00000000000E+00 -0.74505805969E-08  0.93827000000E+00  0.93827000000E+00 0.  1.
     999902    2    1    2    0    0 -0.10506026512E-01  0.85800474334E-02  0.19736170397E-01  0.10199819264E+01  0.10197007502E+01 0.  0.
     999903    2    3    3    0    0 -0.31244674884E-01 -0.88063756149E-01  0.90470831387E-01  0.13162754409E+00  0.20233244330E-01 0.  0.
         14    1    1    2    0    0  0.10506026512E-01 -0.85800474334E-02 -0.19736170397E-01  0.23948073596E-01  0.00000000000E+00 0. -1.
     999901    1    3    3    0    0  0.20738648372E-01  0.96643803583E-01 -0.70734660990E-01  0.88835438231E+00  0.88000000000E+00 0.  1.
        -11    1    4    4    0    0  0.73402637749E-03 -0.12368269467E-01  0.19173354476E-01  0.22833999369E-01  0.51100000000E-03 0. -1.
         11    1    4    4    0    0 -0.31978701262E-01 -0.75695486683E-01  0.71297476911E-01  0.10879354472E+00  0.51100000000E-03 0.  1.
</event>
<event>
 8    1  0.1191842E+005  0.1043930E+01  0.7957747E-01            NaN
         13   -1    0    0    0    0  0.00000000000E+00  0.00000000000E+00  0.74505805969E-08  0.10566000000E+00  0.10566000000E+00 0. -1.
     999900   -1    0    0    0    0 -0.00000000000E+00 -0.00000000000E+00 -0.74505805969E-08  0.93827000000E+00  0.93827000000E+00 0.  1.
     999902    2    1    2    0    0 -0.12205928486E-01 -0.40276592434E-02  0.19778023765E-01  0.10203423559E+01  0.10200696772E+01 0.  0.
     999903    2    3    3    0    0 -0.55380207510E-01  0.11645749120E+00 -0.11006646068E-01  0.13055115247E+00  0.17121405127E-01 0.  0.
         14    1    1    2    0    0  0.12205928486E-01  0.40276592434E-02 -0.19778023765E-01  0.23587644080E-01  0.00000000000E+00 0.  1.
     999901    1    3    3    0    0  0.43174279023E-01 -0.12048515044E+00  0.30784669832E-01  0.88979120345E+00  0.88000000000E+00 0.  1.
        -11    1    4    4    0    0 -0.72411518398E-02  0.17698678876E-01  0.43428880034E-02  0.19616302178E-01  0.51100000000E-03 0. -1.
         11    1    4    4    0    0 -0.48139055670E-01  0.98758812319E-01 -0.15349534071E-01  0.11093485029E+00  0.51100000000E-03 0.  1.
</event>
<event>
 8    1  0.1191842E+005  0.1043930E+01  0.7957747E-01            NaN
         13   -1    0    0    0    0  0.00000000000E+00  0.00000000000E+00  0.74505805969E-08  0.10566000000E+00  0.10566000000E+00 0. -1.
     999900   -1    0    0    0    0 -0.00000000000E+00 -0.00000000000E+00 -0.74505805969E-08  0.93827000000E+00  0.93827000000E+00 0. -1.
     999902    2    1    2    0    0 -0.96359450436E-02 -0.21019298898E-02 -0.15771912445E-01  0.10253283128E+01  0.10251595613E+01 0.  0.
     999903    2    3    3    0    0 -0.54108873820E-01 -0.84607903966E-01 -0.91245714348E-01  0.13713837140E+00  0.19871710641E-01 0.  0.
         14    1    1    2    0    0  0.96359450436E-02  0.21019298898E-02  0.15771912445E-01  0.18601687244E-01  0.00000000000E+00 0. -1.
     999901    1    3    3    0    0  0.44472928777E-01  0.82505974076E-01  0.75473801903E-01  0.88818994136E+00  0.88000000000E+00 0.  1.
        -11    1    4    4    0    0 -0.72685508161E-02 -0.10552345919E-01 -0.38754036193E-02  0.13396406592E-01  0.51100000000E-03 0.  1.
         11    1    4    4    0    0 -0.46840323004E-01 -0.74055558047E-01 -0.87370310729E-01  0.12374196481E+00  0.51100000000E-03 0. -1.
</event>
<event>
 8    1  0.1191842E+005  0.1043930E+01  0.7957747E-01            NaN
         13   -1    0    0    0    0  0.00000000000E+00  0.00000000000E+00  0.74505805969E-08  0.10566000000E+00  0.10566000000E+00 0.  1.
     999900   -1    0    0    0    0 -0.00000000000E+00 -0.00000000000E+00 -0.74505805969E-08  0.93827000000E+00  0.93827000000E+00 0.  1.
     999902    2    1    2    0    0 -0.57758097962E-02  0.41462636296E-02 -0.21768547585E-01  0.10210297567E+01  0.10207729144E+01 0.  0.
     999903    2    3    3    0    0  0.43627213126E-01  0.95948735856E-01  0.72709511041E-01  0.12985387271E+00  0.21583827836E-01 0.  0.
         14    1    1    2    0    0  0.57758097962E-02 -0.41462636296E-02  0.21768547585E-01  0.22900243336E-01  0.00000000000E+00 0.  1.
     999901    1    3    3    0    0 -0.49403022922E-01 -0.91802472227E-01 -0.94478058626E-01  0.89117588395E+00  0.88000000000E+00 0. -1.
        -11    1    4    4    0    0  0.27059005541E-01  0.53020997539E-01  0.53327102766E-01  0.79921567623E-01  0.51100000000E-03 0.  1.
         11    1    4    4    0    0  0.16568207585E-01  0.42927738318E-01  0.19382408275E-01  0.49932305086E-01  0.51100000000E-03 0. -1.
</event>
<event>
 8    1  0.1191842E+005  0.1043930E+01  0.7957747E-01            NaN
         13   -1    0    0    0    0  0.00000000000E+00  0.00000000000E+00  0.74505805969E-08  0.10566000000E+00  0.10566000000E+00 0.  1.
     999900   -1    0    0    0    0 -0.00000000000E+00 -0.00000000000E+00 -0.74505805969E-08  0.93827000000E+00  0.93827000000E+00 0. -1.
     999902    2    1    2    0    0 -0.11281970122E-01  0.91940283581E-02 -0.18160216630E-01  0.10206575597E+01  0.10203922029E+01 0.  0.
     999903    2    3    3    0    0 -0.75249032588E-01  0.96200945326E-01  0.45360790880E-01  0.13178360520E+00  0.19806020870E-01 0.  0.
         14    1    1    2    0    0  0.11281970122E-01 -0.91940283581E-02  0.18160216630E-01  0.23272440253E-01  0.00000000000E+00 0.  1.
     999901    1    3    3    0    0  0.63967062466E-01 -0.87006916968E-01 -0.63521007509E-01  0.88887395455E+00  0.88000000000E+00 0. -1.
        -11    1    4    4    0    0 -0.38282246498E-01  0.49396456948E-01  0.33722883680E-01  0.71014325038E-01  0.51100000000E-03 0. -1.
         11    1    4    4    0    0 -0.36966786090E-01  0.46804488378E-01  0.11637907200E-01  0.60769280160E-01  0.51100000000E-03 0.  1.
</event>
<event>
 8    1  0.1191842E+005  0.1043930E+01  0.7957747E-01            NaN
         13   -1    0    0    0    0  0.00000000000E+00  0.00000000000E+00  0.74505805969E-08  0.10566000000E+00  0.10566000000E+00 0. -1.
     999900   -1    0    0    0    0 -0.00000000000E+00 -0.00000000000E+00 -0.74505805969E-08  0.93827000000E+00  0.93827000000E+00 0. -1.
     999902    2    1    2    0    0 -0.14838087302E-01 -0.13354381700E-01  0.12063138631E-01  0.10206055995E+01  0.10203390427E+01 0.  0.
     999903    2    3    3    0    0 -0.93858949594E-01 -0.67962766513E-01 -0.60923296592E-01  0.13237511584E+00  0.19572510687E-01 0.  0.
         14    1    1    2    0    0  0.14838087302E-01  0.13354381700E-01 -0.12063138631E-01  0.23324400506E-01  0.00000000000E+00 0.  1.
     999901    1    3    3    0    0  0.79020862292E-01  0.54608384813E-01  0.72986435222E-01  0.88823048366E+00  0.88000000000E+00 0.  1.
        -11    1    4    4    0    0 -0.47945915627E-01 -0.37607128282E-01 -0.21296099366E-01  0.64551467002E-01  0.51100000000E-03 0.  1.
         11    1    4    4    0    0 -0.45913033966E-01 -0.30355638230E-01 -0.39627197226E-01  0.67823648835E-01  0.51100000000E-03 0. -1.
</event>
<event>
 8    1  0.1191842E+005  0.1043930E+01  0.7957747E-01            NaN
         13   -1    0    0    0    0  0.00000000000E+00  0.00000000000E+00  0.74505805969E-08  0.10566000000E+00  0.10566000000E+00 0. -1.
     999900   -1    0    0    0    0 -0.00000000000E+00 -0.00000000000E+00 -0.74505805969E-08  0.93827000000E+00  0.93827000000E+00 0.  1.
     999902    2    1    2    0    0 -0.61529281697E-02 -0.21569483539E-01  0.51391016888E-02  0.10209188829E+01  0.10206595191E+01 0.  0.
     999903    2    3    3    0    0 -0.12778430713E+00  0.13689944623E-02 -0.23508060323E-01  0.13179514232E+00  0.22059631547E-01 0.  0.
         14    1    1    2    0    0  0.61529281697E-02  0.21569483539E-01 -0.51391016888E-02  0.23011117126E-01  0.00000000000E+00 0.  1.
     999901    1    3    3    0    0  0.12163137896E+00 -0.22938478001E-01  0.28647162012E-01  0.88912374055E+00  0.88000000000E+00 0.  1.
        -11    1    4    4    0    0 -0.76251372383E-01  0.23968856455E-02 -0.24838240824E-01  0.80232263954E-01  0.51100000000E-03 0.  1.
         11    1    4    4    0    0 -0.51532934752E-01 -0.10278911832E-02  0.13301805010E-02  0.51562878368E-01  0.51100000000E-03 0. -1.
</event>
<event>
 8    1  0.1191842E+005  0.1043930E+01  0.7957747E-01            NaN
         13   -1    0    0    0    0  0.00000000000E+00  0.00000000000E+00  0.74505805969E-08  0.10566000000E+00  0.10566000000E+00 0. -1.
     999900   -1    0    0    0    0 -0.00000000000E+00 -0.00000000000E+00 -0.74505805969E-08  0.93827000000E+00  0.93827000000E+00 0. -1.
     999902    2    1    2    0    0 -0.94520019702E-03  0.22552607392E-02 -0.23334022583E-01  0.10204681967E+01  0.10201984534E+01 0.  0.
     999903    2    3    3    0    0 -0.73310653706E-01 -0.40470982606E-02  0.10342579373E+00  0.12842305791E+00  0.20118549767E-01 0.  0.
         14    1    1    2    0    0  0.94520019702E-03 -0.22552607392E-02  0.23334022583E-01  0.23461803305E-01  0.00000000000E+00 0. -1.
     999901    1    3    3    0    0  0.72365453509E-01  0.63023589998E-02 -0.12675981631E+00  0.89204513878E+00  0.88000000000E+00 0. -1.
        -11    1    4    4    0    0 -0.15091642772E-01 -0.87763762713E-02  0.19603941807E-01  0.26255630204E-01  0.51100000000E-03 0. -1.
         11    1    4    4    0    0 -0.58219010934E-01  0.47292780108E-02  0.83821851921E-01  0.10216742771E+00  0.51100000000E-03 0.  1.
</event>
<event>
 8    1  0.1191842E+005  0.1043930E+01  0.7957747E-01            NaN
         13   -1    0    0    0    0  0.00000000000E+00  0.00000000000E+00  0.74505805969E-08  0.10566000000E+00  0.10566000000E+00 0. -1.
     999900   -1    0    0    0    0 -0.00000000000E+00 -0.00000000000E+00 -0.74505805969E-08  0.93827000000E+00  0.93827000000E+00 0. -1.
     999902    2    1    2    0    0  0.16792954051E-01 -0.20920688746E-03 -0.16026690352E-01  0.10207157398E+01  0.10204517233E+01 0.  0.
     999903    2    3    3    0    0 -0.92787428295E-01 -0.41562892724E-01 -0.79597468773E-01  0.13068246435E+00  0.20128799079E-01 0.  0.
         14    1    1    2    0    0 -0.16792954051E-01  0.20920688746E-03  0.16026690352E-01  0.23214260206E-01  0.00000000000E+00 0. -1.
     999901    1    3    3    0    0  0.10958038235E+00  0.41353685837E-01  0.63570778421E-01  0.89003327544E+00  0.88000000000E+00 0. -1.
        -11    1    4    4    0    0 -0.77205324202E-03 -0.33810812683E-02 -0.63991662084E-03  0.35634801855E-02  0.51100000000E-03 0.  1.
         11    1    4    4    0    0 -0.92015375053E-01 -0.38181811456E-01 -0.78957552152E-01  0.12711898416E+00  0.51100000000E-03 0. -1.
</event>
<event>
 8    1  0.1191842E+005  0.1043930E+01  0.7957747E-01            NaN
         13   -1    0    0    0    0  0.00000000000E+00  0.00000000000E+00  0.74505805969E-08  0.10566000000E+00  0.10566000000E+00 0.  1.
     999900   -1    0    0    0    0 -0.00000000000E+00 -0.00000000000E+00 -0.74505805969E-08  0.93827000000E+00  0.93827000000E+00 0. -1.
     999902    2    1    2    0    0  0.21190452658E-01 -0.73006996478E-02 -0.50632068460E-02  0.10209523682E+01  0.10206937673E+01 0.  0.
     999903    2    3    3    0    0 -0.14172936593E-01 -0.94333305162E-01  0.87643435930E-01  0.13110981734E+00  0.20218005504E-01 0.  0.
         14    1    1    2    0    0 -0.21190452658E-01  0.73006996478E-02  0.50632068460E-02  0.22977631792E-01  0.00000000000E+00 0.  1.
     999901    1    3    3    0    0  0.35363389251E-01  0.87032605514E-01 -0.92706642776E-01  0.88984255087E+00  0.88000000000E+00 0. -1.
        -11    1    4    4    0    0 -0.14161911507E-01 -0.71376155726E-01  0.76512571718E-01  0.10559143003E+00  0.51100000000E-03 0. -1.
         11    1    4    4    0    0 -0.11025086735E-04 -0.22957149436E-01  0.11130864212E-01  0.25518387310E-01  0.51100000000E-03 0.  1.
</event>
<event>
 8    1  0.1191842E+005  0.1043930E+01  0.7957747E-01            NaN
         13   -1    0    0    0    0  0.00000000000E+00  0.00000000000E+00  0.74505805969E-08  0.10566000000E+00  0.10566000000E+00 0.  1.
     999900   -1    0    0    0    0 -0.00000000000E+00 -0.00000000000E+00 -0.74505805969E-08  0.93827000000E+00  0.93827000000E+00 0. -1.
     999902    2    1    2    0    0 -0.16078080623E-01  0.17577643916E-01 -0.24285564235E-02  0.10199847264E+01  0.10197036167E+01 0.  0.
     999903    2    3    3    0    0 -0.97251908056E-01 -0.84108853081E-01  0.63861189961E-02  0.13037411919E+00  0.20600865314E-01 0.  0.
         14    1    1    2    0    0  0.16078080623E-01 -0.17577643916E-01  0.24285564235E-02  0.23945273614E-01  0.00000000000E+00 0.  1.
     999901    1    3    3    0    0  0.81173827433E-01  0.10168649700E+00 -0.88146754196E-02  0.88961060720E+00  0.88000000000E+00 0. -1.
        -11    1    4    4    0    0 -0.46565341845E-01 -0.51605376900E-01 -0.22265851763E-02  0.69546134247E-01  0.51100000000E-03 0. -1.
         11    1    4    4    0    0 -0.50686566211E-01 -0.32503476181E-01  0.86127041724E-02  0.60827984944E-01  0.51100000000E-03 0.  1.
</event>
<event>
 8    1  0.1191842E+005  0.1043930E+01  0.7957747E-01            NaN
         13   -1    0    0    0    0  0.00000000000E+00  0.00000000000E+00  0.74505805969E-08  0.10566000000E+00  0.10566000000E+00 0.  1.
     999900   -1    0    0    0    0 -0.00000000000E+00 -0.00000000000E+00 -0.74505805969E-08  0.93827000000E+00  0.93827000000E+00 0. -1.
     999902    2    1    2    0    0 -0.21067808042E-02 -0.15386970519E-01 -0.15970356761E-01  0.10216533377E+01  0.10214104429E+01 0.  0.
     999903    2    3    3    0    0 -0.67367731701E-01  0.10583160876E+00 -0.31150365860E-01  0.13082037451E+00  0.20121739636E-01 0.  0.
         14    1    1    2    0    0  0.21067808042E-02  0.15386970519E-01  0.15970356761E-01  0.22276662277E-01  0.00000000000E+00 0.  1.
     999901    1    3    3    0    0  0.65260950897E-01 -0.12121857928E+00  0.15180009098E-01  0.89083296322E+00  0.88000000000E+00 0. -1.
        -11    1    4    4    0    0 -0.24127534212E-01  0.41412211534E-01 -0.21853562799E-01  0.52677779939E-01  0.51100000000E-03 0.  1.
         11    1    4    4    0    0 -0.43240197489E-01  0.64419397226E-01 -0.92968030609E-02  0.78142594569E-01  0.51100000000E-03 0. -1.
</event>
<event>
 8    1  0.1191842E+005  0.1043930E+01  0.7957747E-01            NaN
         13   -1    0    0    0    0  0.00000000000E+00  0.00000000000E+00  0.74505805969E-08  0.10566000000E+00  0.10566000000E+00 0.  1.
     999900   -1    0    0    0    0 -0.00000000000E+00 -0.00000000000E+00 -0.74505805969E-08  0.93827000000E+00  0.93827000000E+00 0.  1.
     999902    2    1    2    0    0  0.92125035183E-02  0.14549522997E-01 -0.16403362770E-01  0.10201470408E+01  0.10198697738E+01 0.  0.
     999903    2    3    3    0    0  0.28713552517E-01  0.46519773450E-01  0.11562894040E+00  0.12950967520E+00  0.20350594434E-01 0.  0.
         14    1    1    2    0    0 -0.92125035183E-02 -0.14549522997E-01  0.16403362770E-01  0.23782959249E-01  0.00000000000E+00 0.  1.
     999901    1    3    3    0    0 -0.19501048999E-01 -0.31970250454E-01 -0.13203230317E+00  0.89063736555E+00  0.88000000000E+00 0.  1.
        -11    1    4    4    0    0  0.26441108927E-01  0.27330822638E-01  0.64891630162E-01  0.75214964558E-01  0.51100000000E-03 0.  1.
         11    1    4    4    0    0  0.22724435902E-02  0.19188950812E-01  0.50737310237E-01  0.54294710647E-01  0.51100000000E-03 0. -1.
</event>
<event>
 8    1  0.1191842E+005  0.1043930E+01  0.7957747E-01            NaN
         13   -1    0    0    0    0  0.00000000000E+00  0.00000000000E+00  0.74505805969E-08  0.10566000000E+00  0.10566000000E+00 0.  1.
     999900   -1    0    0    0    0 -0.00000000000E+00 -0.00000000000E+00 -0.74505805969E-08  0.93827000000E+00  0.93827000000E+00 0. -1.
     999902    2    1    2    0    0  0.34206073070E-02 -0.12872312316E-01  0.15577187097E-01  0.10234349826E+01  0.10232297484E+01 0.  0.
     999903    2    3    3    0    0  0.42826250288E-01  0.65104145888E-01  0.10741939193E+00  0.13435223997E+00  0.20951398406E-01 0.  0.
         14    1    1    2    0    0 -0.34206073070E-02  0.12872312316E-01 -0.15577187097E-01  0.20495017360E-01  0.00000000000E+00 0. -1.
     999901    1    3    3    0    0 -0.39405642981E-01 -0.77976458204E-01 -0.91842204835E-01  0.88908274267E+00  0.88000000000E+00 0.  1.
        -11    1    4    4    0    0  0.20480996648E-01  0.14006516658E-01  0.29975009912E-01  0.38915499134E-01  0.51100000000E-03 0. -1.
         11    1    4    4    0    0  0.22345253640E-01  0.51097629230E-01  0.77444382021E-01  0.95436740832E-01  0.51100000000E-03 0.  1.
</event>
<event>
 8    1  0.1191842E+005  0.1043930E+01  0.7957747E-01            NaN
         13   -1    0    0    0    0  0.00000000000E+00  0.00000000000E+00  0.74505805969E-08  0.10566000000E+00  0.10566000000E+00 0.  1.
     999900   -1    0    0    0    0 -0.00000000000E+00 -0.00000000000E+00 -0.74505805969E-08  0.93827000000E+00  0.93827000000E+00 0.  1.
     999902    2    1    2    0    0  0.15229820872E-01  0.83528016994E-02  0.14238099819E-01  0.10214702532E+01  0.10212233046E+01 0.  0.
     999903    2    3    3    0    0  0.78287746312E-01  0.99376627210E-01 -0.36331501622E-01  0.13309031006E+00  0.19707038448E-01 0.  0.
         14    1    1    2    0    0 -0.15229820872E-01 -0.83528016994E-02 -0.14238099819E-01  0.22459746804E-01  0.00000000000E+00 0. -1.
     999901    1    3    3    0    0 -0.63057925440E-01 -0.91023825511E-01  0.50569601441E-01  0.88837994313E+00  0.88000000000E+00 0. -1.
        -11    1    4    4    0    0  0.56571791397E-01  0.64967067437E-01 -0.16072069973E-01  0.87633669257E-01  0.51100000000E-03 0.  1.
         11    1    4    4    0    0  0.21715954915E-01  0.34409559773E-01 -0.20259431649E-01  0.45456640806E-01  0.51100000000E-03 0. -1.
</event>
<event>
 8    1  0.1191842E+005  0.1043930E+01  0.7957747E-01            NaN
         13   -1    0    0    0    0  0.00000000000E+00  0.00000000000E+00  0.74505805969E-08  0.10566000000E+00  0.10566000000E+00 0.  1.
     999900   -1    0    0    0    0 -0.00000000000E+00 -0.00000000000E+00 -0.74505805969E-08  0.93827000000E+00  0.93827000000E+00 0.  1.
     999902    2    1    2    0    0  0.15317253474E-01  0.18288215993E-01  0.22064238552E-02  0.10199728423E+01  0.10196914502E+01 0.  0.
     999903    2    3    3    0    0 -0.92022767640E-01  0.91964656328E-02 -0.87413279414E-01  0.12888573587E+00  0.20437386037E-01 0.  0.
         14    1    1    2    0    0 -0.15317253474E-01 -0.18288215993E-01 -0.22064238552E-02  0.23957157687E-01  0.00000000000E+00 0.  1.
     999901    1    3    3    0    0  0.10734002111E+00  0.90917503606E-02  0.89619703270E-01  0.89108710644E+00  0.88000000000E+00 0. -1.
        -11    1    4    4    0    0 -0.57439417555E-01  0.65098978839E-02 -0.40699132247E-01  0.70698981224E-01  0.51100000000E-03 0.  1.
         11    1    4    4    0    0 -0.34583350085E-01  0.26865677489E-02 -0.46714147168E-01  0.58186754644E-01  0.51100000000E-03 0. -1.
</event>
<event>
 8    1  0.1191842E+005  0.1043930E+01  0.7957747E-01            NaN
         13   -1    0    0    0    0  0.00000000000E+00  0.00000000000E+00  0.74505805969E-08  0.10566000000E+00  0.10566000000E+00 0.  1.
     999900   -1    0    0    0    0 -0.00000000000E+00 -0.00000000000E+00 -0.74505805969E-08  0.93827000000E+00  0.93827000000E+00 0. -1.
     999902    2    1    2    0    0  0.26233962057E-01 -0.26874128035E-01 -0.64303080506E-02  0.10058276591E+01  0.10051057115E+01 0.  0.
     999903    2    3    3    0    0  0.73798008496E-01  0.76476343676E-01  0.44495316547E-01  0.11704361457E+00  0.20605759310E-01 0.  0.
         14    1    1    2    0    0 -0.26233962057E-01  0.26874128035E-01  0.64303080506E-02  0.38102340932E-01  0.00000000000E+00 0.  1.
     999901    1    3    3    0    0 -0.47564046439E-01 -0.10335047171E+00 -0.50925624598E-01  0.88878404450E+00  0.88000000000E+00 0. -1.
        -11    1    4    4    0    0  0.45156229946E-01  0.35606859342E-01  0.16544811721E-01  0.59840834311E-01  0.51100000000E-03 0. -1.
         11    1    4    4    0    0  0.28641778550E-01  0.40869484334E-01  0.27950504826E-01  0.57202780258E-01  0.51100000000E-03 0.  1.
</event>
<event>
 8    1  0.1191842E+005  0.1043930E+01  0.7957747E-01            NaN
         13   -1    0    0    0    0  0.00000000000E+00  0.00000000000E+00  0.74505805969E-08  0.10566000000E+00  0.10566000000E+00 0.  1.
     999900   -1    0    0    0    0 -0.00000000000E+00 -0.00000000000E+00 -0.74505805969E-08  0.93827000000E+00  0.93827000000E+00 0.  1.
     999902    2    1    2    0    0 -0.19748869021E-01  0.21839993752E-03  0.13265876995E-01  0.10201382153E+01  0.10198607402E+01 0.  0.
     999903    2    3    3    0    0  0.25276304859E-01  0.95205353260E-01  0.83873977105E-01  0.13107393677E+00  0.21037632654E-01 0.  0.
         14    1    1    2    0    0  0.19748869021E-01 -0.21839993752E-03 -0.13265876995E-01  0.23791784687E-01  0.00000000000E+00 0. -1.
     999901    1    3    3    0    0 -0.45025173881E-01 -0.94986953323E-01 -0.70608100110E-01  0.88906427855E+00  0.88000000000E+00 0.  1.
        -11    1    4    4    0    0  0.60031822041E-02  0.59991207673E-01  0.55131932557E-01  0.81699291937E-01  0.51100000000E-03 0. -1.
         11    1    4    4    0    0  0.19273122655E-01  0.35214145587E-01  0.28742044548E-01  0.49374644830E-01  0.51100000000E-03 0.  1.
</event>
<event>
 8    1  0.1191842E+005  0.1043930E+01  0.7957747E-01            NaN
         13   -1    0    0    0    0  0.00000000000E+00  0.00000000000E+00  0.74505805969E-08  0.10566000000E+00  0.10566000000E+00 0.  1.
     999900   -1    0    0    0    0 -0.00000000000E+00 -0.00000000000E+00 -0.74505805969E-08  0.93827000000E+00  0.93827000000E+00 0. -1.
     999902    2    1    2    0    0  0.19089837623E-01 -0.91183142549E-02 -0.12526162388E-01  0.10193440223E+01  0.10190474795E+01 0.  0.
     999903    2    3    3    0    0 -0.33932347955E-01 -0.11165493936E+00  0.53745938368E-01  0.12933441393E+00  0.14850421340E-01 0.  0.
         14    1    1    2    0    0 -0.19089837623E-01  0.91183142549E-02  0.12526162388E-01  0.24585977701E-01  0.00000000000E+00 0.  1.
     999901    1    3    3    0    0  0.53022185578E-01  0.10253662511E+00 -0.66272100756E-01  0.89000960837E+00  0.88000000000E+00 0. -1.
        -11    1    4    4    0    0 -0.32578057796E-02 -0.23750794904E-01  0.60764170868E-02  0.24736562467E-01  0.51100000000E-03 0.  1.
         11    1    4    4    0    0 -0.30674542175E-01 -0.87904144457E-01  0.47669521281E-01  0.10459785146E+00  0.51100000000E-03 0. -1.
</event>
<event>
 8    1  0.1191842E+005  0.1043930E+01  0.7957747E-01            NaN
         13   -1    0    0    0    0  0.00000000000E+00  0.00000000000E+00  0.74505805969E-08  0.10566000000E+00  0.10566000000E+00 0.  1.
     999900   -1    0    0    0    0 -0.00000000000E+00 -0.00000000000E+00 -0.74505805969E-08  0.93827000000E+00  0.93827000000E+00 0. -1.
     999902    2    1    2    0    0 -0.16709341345E-01  0.16890967508E-01 -0.60319659313E-02  0.10194169120E+01  0.10191221462E+01 0.  0.
     999903    2    3    3    0    0 -0.69601020515E-01 -0.32000262113E-01  0.10308616169E+00  0.12975706246E+00  0.18488366496E-01 0.  0.
         14    1    1    2    0    0  0.16709341345E-01 -0.16890967508E-01  0.60319659313E-02  0.24513088025E-01  0.00000000000E+00 0. -1.
     999901    1    3    3    0    0  0.52891679171E-01  0.48891229621E-01 -0.10911812762E+00  0.88965984951E+00  0.88000000000E+00 0. -1.
        -11    1    4    4    0    0 -0.61551988031E-01 -0.21173526566E-01  0.81622033280E-01  0.10440010965E+00  0.51100000000E-03 0. -1.
         11    1    4    4    0    0 -0.80490324838E-02 -0.10826735548E-01  0.21464128406E-01  0.25356952810E-01  0.51100000000E-03 0.  1.
</event>
<event>
 8    1  0.1191842E+005  0.1043930E+01  0.7957747E-01            NaN
         13   -1    0    0    0    0  0.00000000000E+00  0.00000000000E+00  0.74505805969E-08  0.10566000000E+00  0.10566000000E+00 0.  1.
     999900   -1    0    0    0    0 -0.00000000000E+00 -0.00000000000E+00 -0.74505805969E-08  0.93827000000E+00  0.93827000000E+00 0.  1.
     999902    2    1    2    0    0 -0.12538889815E-01  0.10185156725E-01  0.15885780543E-01  0.10212734513E+01  0.10210221071E+01 0.  0.
     999903    2    3    3    0    0 -0.44049031363E-01 -0.86456866120E-01  0.88511876610E-01  0.13245000459E+00  0.17133141908E-01 0.  0.
         14    1    1    2    0    0  0.12538889815E-01 -0.10185156725E-01 -0.15885780543E-01  0.22656548695E-01  0.00000000000E+00 0. -1.
     999901    1    3    3    0    0  0.31510141549E-01  0.96642022845E-01 -0.72626096067E-01  0.88882344671E+00  0.88000000000E+00 0.  1.
        -11    1    4    4    0    0 -0.15070752368E-01 -0.38978150705E-01  0.28284370034E-01  0.50464745303E-01  0.51100000000E-03 0. -1.
         11    1    4    4    0    0 -0.28978278996E-01 -0.47478715415E-01  0.60227506576E-01  0.81985259287E-01  0.51100000000E-03 0.  1.
</event>
<event>
 8    1  0.1191842E+005  0.1043930E+01  0.7957747E-01            NaN
         13   -1    0    0    0    0  0.00000000000E+00  0.00000000000E+00  0.74505805969E-08  0.10566000000E+00  0.10566000000E+00 0.  1.
     999900   -1    0    0    0    0 -0.00000000000E+00 -0.00000000000E+00 -0.74505805969E-08  0.93827000000E+00  0.93827000000E+00 0.  1.
     999902    2    1    2    0    0 -0.68756899660E-02  0.21612730791E-01  0.78975486682E-02  0.10199142443E+01  0.10196314576E+01 0.  0.
     999903    2    3    3    0    0 -0.38625542740E-01 -0.54096856420E-01 -0.10826479577E+00  0.12849196225E+00  0.19248790465E-01 0.  0.
         14    1    1    2    0    0  0.68756899660E-02 -0.21612730791E-01 -0.78975486682E-02  0.24015755656E-01  0.00000000000E+00 0. -1.
     999901    1    3    3    0    0  0.31749852774E-01  0.75709587212E-01  0.11616234443E+00  0.89142228209E+00  0.88000000000E+00 0. -1.
        -11    1    4    4    0    0 -0.20179969025E-01 -0.32688578884E-01 -0.78779349710E-01  0.87648282362E-01  0.51100000000E-03 0. -1.
         11    1    4    4    0    0 -0.18445573715E-01 -0.21408277537E-01 -0.29485446056E-01  0.40843679889E-01  0.51100000000E-03 0.  1.
</event>
<event>
 8    1  0.1191842E+005  0.1043930E+01  0.7957747E-01            NaN
         13   -1    0    0    0    0  0.00000000000E+00  0.00000000000E+00  0.74505805969E-08  0.10566000000E+00  0.10566000000E+00 0. -1.
     999900   -1    0    0    0    0 -0.00000000000E+00 -0.00000000000E+00 -0.74505805969E-08  0.93827000000E+00  0.93827000000E+00 0. -1.
     999902    2    1    2    0    0  0.53662055383E-02  0.92809140636E-02  0.20855455388E-01  0.10204804468E+01  0.10202109883E+01 0.  0.
     999903    2    3    3    0    0 -0.62264357894E-01  0.25013615230E-01  0.11279935035E+00  0.13296983228E+00  0.21324906696E-01 0.  0.
         14    1    1    2    0    0 -0.53662055383E-02 -0.92809140636E-02 -0.20855455388E-01  0.23449553240E-01  0.00000000000E+00 0.  1.
     999901    1    3    3    0    0  0.67630563432E-01 -0.15732701167E-01 -0.91943894964E-01  0.88751061448E+00  0.88000000000E+00 0. -1.
        -11    1    4    4    0    0 -0.16249818722E-01  0.32929622423E-02  0.46657170306E-01  0.49518207468E-01  0.51100000000E-03 0. -1.
         11    1    4    4    0    0 -0.46014539172E-01  0.21720652988E-01  0.66142180045E-01  0.83451624811E-01  0.51100000000E-03 0.  1.
</event>
<event>
 8    1  0.1191842E+005  0.1043930E+01  0.7957747E-01            NaN
         13   -1    0    0    0    0  0.00000000000E+00  0.00000000000E+00  0.74505805969E-08  0.10566000000E+00  0.10566000000E+00 0. -1.
     999900   -1    0    0    0    0 -0.00000000000E+00 -0.00000000000E+00 -0.74505805969E-08  0.93827000000E+00  0.93827000000E+00 0. -1.
     999902    2    1    2    0    0  0.92862440251E-02  0.20099520147E-01 -0.62650645324E-02  0.10209196529E+01  0.10206603067E+01 0.  0.
     999903    2    3    3    0    0  0.84019321766E-01 -0.36879505902E-01 -0.92390122204E-01  0.13173510074E+00  0.19971422078E-01 0.  0.
         14    1    1    2    0    0 -0.92862440251E-02 -0.20099520147E-01  0.62650645324E-02  0.23010347060E-01  0.00000000000E+00 0.  1.
     999901    1    3    3    0    0 -0.74733077740E-01  0.56979026049E-01  0.86125057671E-01  0.88918455220E+00  0.88000000000E+00 0.  1.
        -11    1    4    4    0    0  0.36016772030E-01 -0.11342909098E-01 -0.25662779129E-01  0.45658611541E-01  0.51100000000E-03 0. -1.
         11    1    4    4    0    0  0.48002549736E-01 -0.25536596803E-01 -0.66727343074E-01  0.86076489195E-01  0.51100000000E-03 0.  1.
</event>
<event>
 8    1  0.1191842E+005  0.1043930E+01  0.7957747E-01            NaN
         13   -1    0    0    0    0  0.00000000000E+00  0.00000000000E+00  0.74505805969E-08  0.10566000000E+00  0.10566000000E+00 0. -1.
     999900   -1    0    0    0    0 -0.00000000000E+00 -0.00000000000E+00 -0.74505805969E-08  0.93827000000E+00  0.93827000000E+00 0. -1.
     999902    2    1    2    0    0 -0.36698488308E-02  0.17695391469E-01 -0.17643972221E-01  0.10186732301E+01  0.10183600765E+01 0.  0.
     999903    2    3    3    0    0 -0.12342391123E+00  0.35549833275E-01  0.27246065994E-02  0.13014934435E+00  0.20836886639E-01 0.  0.
         14    1    1    2    0    0  0.36698488308E-02 -0.17695391469E-01  0.17643972221E-01  0.25256769893E-01  0.00000000000E+00 0. -1.
     999901    1    3    3    0    0  0.11975406240E+00 -0.17854441807E-01 -0.20368578821E-01  0.88852388575E+00  0.88000000000E+00 0. -1.
        -11    1    4    4    0    0 -0.62212350641E-01  0.26138476360E-01 -0.53414841664E-02  0.67693346001E-01  0.51100000000E-03 0.  1.
         11    1    4    4    0    0 -0.61211560590E-01  0.94113569155E-02  0.80660907658E-02  0.62455998352E-01  0.51100000000E-03 0. -1.
</event>
<event>
 8    1  0.1191842E+005  0.1043930E+01  0.7957747E-01            NaN
         13   -1    0    0    0    0  0.00000000000E+00  0.00000000000E+00  0.74505805969E-08  0.10566000000E+00  0.10566000000E+00 0.  1.
     999900   -1    0    0    0    0 -0.00000000000E+00 -0.00000000000E+00 -0.74505805969E-08  0.93827000000E+00  0.93827000000E+00 0. -1.
     999902    2    1    2    0    0 -0.37790704582E-03  0.12059593680E-01  0.19424087749E-01  0.10210636099E+01  0.10208075350E+01 0.  0.
     999903    2    3    3    0    0 -0.20972265581E-01  0.61208682468E-01 -0.11084689540E+00  0.12987884249E+00  0.19878148154E-01 0.  0.
         14    1    1    2    0    0  0.37790704582E-03 -0.12059593680E-01 -0.19424087749E-01  0.22866390146E-01  0.00000000000E+00 0.  1.
     999901    1    3    3    0    0  0.20594358536E-01 -0.49149088788E-01  0.13027098315E+00  0.89118476736E+00  0.88000000000E+00 0.  1.
        -11    1    4    4    0    0 -0.10946954636E-01  0.38525094610E-01 -0.85483668533E-01  0.94401999118E-01  0.51100000000E-03 0.  1.
         11    1    4    4    0    0 -0.10025310945E-01  0.22683587858E-01 -0.25363226864E-01  0.35476843372E-01  0.51100000000E-03 0. -1.
</event>
<event>
 8    1  0.1191842E+005  0.1043930E+01  0.7957747E-01            NaN
         13   -1    0    0    0    0  0.00000000000E+00  0.00000000000E+00  0.74505805969E-08  0.10566000000E+00  0.10566000000E+00 0. -1.
     999900   -1    0    0    0    0 -0.00000000000E+00 -0.00000000000E+00 -0.74505805969E-08  0.93827000000E+00  0.93827000000E+00 0.  1.
     999902    2    1    2    0    0 -0.82233282064E-02  0.94723050284E-02  0.20115543377E-01  0.10202238241E+01  0.10199483656E+01 0.  0.
     999903    2    3    3    0    0 -0.10309546546E+00  0.21720353009E-01 -0.74139748569E-01  0.13003575570E+00  0.17667674136E-01 0.  0.
         14    1    1    2    0    0  0.82233282064E-02 -0.94723050284E-02 -0.20115543377E-01  0.23706175877E-01  0.00000000000E+00 0.  1.
     999901    1    3    3    0    0  0.94872137251E-01 -0.12248047981E-01  0.94255291946E-01  0.89018806842E+00  0.88000000000E+00 0. -1.
        -11    1    4    4    0    0 -0.90363049849E-02  0.51859043559E-02 -0.27153432018E-02  0.10778804269E-01  0.51100000000E-03 0.  1.
         11    1    4    4    0    0 -0.94059160473E-01  0.16534448653E-01 -0.71424405367E-01  0.11925695143E+00  0.51100000000E-03 0. -1.
</event>
<event>
 8    1  0.1191842E+005  0.1043930E+01  0.7957747E-01            NaN
         13   -1    0    0    0    0  0.00000000000E+00  0.00000000000E+00  0.74505805969E-08  0.10566000000E+00  0.10566000000E+00 0. -1.
     999900   -1    0    0    0    0 -0.00000000000E+00 -0.00000000000E+00 -0.74505805969E-08  0.93827000000E+00  0.93827000000E+00 0. -1.
     999902    2    1    2    0    0  0.20270119136E-01  0.94713665288E-02  0.89825914950E-02  0.10198204280E+01  0.10195354010E+01 0.  0.
     999903    2    3    3    0    0  0.12412746173E+00  0.43056270321E-01  0.36505386345E-02  0.13306075130E+00  0.20745311151E-01 0.  0.
         14    1    1    2    0    0 -0.20270119136E-01 -0.94713665288E-02 -0.89825914950E-02  0.24109572034E-01  0.00000000000E+00 0.  1.
     999901    1    3    3    0    0 -0.10385734259E+00 -0.33584903792E-01  0.53320528605E-02  0.88675967667E+00  0.88000000000E+00 0. -1.
        -11    1    4    4    0    0  0.48272139737E-01  0.25674064363E-01 -0.42238534632E-02  0.54840305568E-01  0.51100000000E-03 0. -1.
         11    1    4    4    0    0  0.75855321993E-01  0.17382205957E-01  0.78743920977E-02  0.78220445732E-01  0.51100000000E-03 0.  1.
</event>
<event>
 8    1  0.1191842E+005  0.1043930E+01  0.7957747E-01            NaN
         13   -1    0    0    0    0  0.00000000000E+00  0.00000000000E+00  0.74505805969E-08  0.10566000000E+00  0.10566000000E+00 0.  1.
     999900   -1    0    0    0    0 -0.00000000000E+00 -0.00000000000E+00 -0.74505805969E-08  0.93827000000E+00  0.93827000000E+00 0.  1.
     999902    2    1    2    0    0  0.56828559417E-02  0.20070814592E-01  0.11074010689E-01  0.10203129265E+01  0.10200395589E+01 0.  0.
     999903    2    3    3    0    0 -0.38866178565E-01 -0.11859346160E+00 -0.19051089451E-01  0.12783327984E+00  0.20085179985E-01 0.  0.
         14    1    1    2    0    0 -0.56828559417E-02 -0.20070814592E-01 -0.11074010689E-01  0.23617073544E-01  0.00000000000E+00 0. -1.
     999901    1    3    3    0    0  0.44549034507E-01  0.13866427619E+00  0.30125100140E-01  0.89247964662E+00  0.88000000000E+00 0. -1.
        -11    1    4    4    0    0 -0.36677329856E-01 -0.10387504359E+00 -0.22762959877E-01  0.11248850905E+00  0.51100000000E-03 0.  1.
         11    1    4    4    0    0 -0.21888487090E-02 -0.14718418010E-01  0.37118704258E-02  0.15344770785E-01  0.51100000000E-03 0. -1.
</event>
<event>
 8    1  0.1191842E+005  0.1043930E+01  0.7957747E-01            NaN
         13   -1    0    0    0    0  0.00000000000E+00  0.00000000000E+00  0.74505805969E-08  0.10566000000E+00  0.10566000000E+00 0.  1.
     999900   -1    0    0    0    0 -0.00000000000E+00 -0.00000000000E+00 -0.74505805969E-08  0.93827000000E+00  0.93827000000E+00 0. -1.
     999902    2    1    2    0    0 -0.46377769301E-02  0.15691798569E-01  0.16527199312E-01  0.10206729616E+01  0.10204079600E+01 0.  0.
     999903    2    3    3    0    0 -0.67557775376E-01 -0.10868988094E+00  0.21442790999E-02  0.12958565007E+00  0.20255852001E-01 0.  0.
         14    1    1    2    0    0  0.46377769301E-02 -0.15691798569E-01 -0.16527199312E-01  0.23257038382E-01  0.00000000000E+00 0. -1.
     999901    1    3    3    0    0  0.62919998445E-01  0.12438167951E+00  0.14382920212E-01  0.89108731154E+00  0.88000000000E+00 0. -1.
        -11    1    4    4    0    0 -0.42094738515E-01 -0.83874781064E-01 -0.13438313401E-02  0.93856341890E-01  0.51100000000E-03 0. -1.
         11    1    4    4    0    0 -0.25463036860E-01 -0.24815099873E-01  0.34881104400E-02  0.35729308184E-01  0.51100000000E-03 0.  1.
</event>
<event>
 8    1  0.1191842E+005  0.1043930E+01  0.7957747E-01            NaN
         13   -1    0    0    0    0  0.00000000000E+00  0.00000000000E+00  0.74505805969E-08  0.10566000000E+00  0.10566000000E+00 0. -1.
     999900   -1    0    0    0    0 -0.00000000000E+00 -0.00000000000E+00 -0.74505805969E-08  0.93827000000E+00  0.93827000000E+00 0.  1.
     999902    2    1    2    0    0  0.10304040927E-01 -0.33911217480E-02 -0.20875507506E-01  0.10204042741E+01  0.10201330417E+01 0.  0.
     999903    2    3    3    0    0  0.12410339339E+00 -0.35341486323E-01  0.17107471883E-01  0.13168957007E+00  0.19970086702E-01 0.  0.
         14    1    1    2    0    0 -0.10304040927E-01  0.33911217480E-02  0.20875507506E-01  0.23525725913E-01  0.00000000000E+00 0. -1.
     999901    1    3    3    0    0 -0.11379935247E+00  0.31950364575E-01 -0.37982979389E-01  0.88871470402E+00  0.88000000000E+00 0.  1.
        -11    1    4    4    0    0  0.77115230283E-01 -0.11921705126E-01  0.11762737885E-01  0.78914567212E-01  0.51100000000E-03 0.  1.
         11    1    4    4    0    0  0.46988163110E-01 -0.23419781197E-01  0.53447339980E-02  0.52775002855E-01  0.51100000000E-03 0. -1.
</event>
<event>
 8    1  0.1191842E+005  0.1043930E+01  0.7957747E-01            NaN
         13   -1    0    0    0    0  0.00000000000E+00  0.00000000000E+00  0.74505805969E-08  0.10566000000E+00  0.10566000000E+00 0. -1.
     999900   -1    0    0    0    0 -0.00000000000E+00 -0.00000000000E+00 -0.74505805969E-08  0.93827000000E+00  0.93827000000E+00 0.  1.
     999902    2    1    2    0    0  0.14190786076E-01 -0.17626378530E-01  0.66525813282E-02  0.10203434685E+01  0.10200708158E+01 0.  0.
     999903    2    3    3    0    0 -0.83552483575E-01  0.86822138211E-01 -0.37204579542E-01  0.12771437982E+00  0.20191108902E-01 0.  0.
         14    1    1    2    0    0 -0.14190786076E-01  0.17626378530E-01 -0.66525813282E-02  0.23586531493E-01  0.00000000000E+00 0. -1.
     999901    1    3    3    0    0  0.97743269651E-01 -0.10444851674E+00  0.43857160870E-01  0.89262908869E+00  0.88000000000E+00 0.  1.
        -11    1    4    4    0    0 -0.41841036165E-01  0.51762208440E-01 -0.11824419123E-01  0.67602341221E-01  0.51100000000E-03 0. -1.
         11    1    4    4    0    0 -0.41711447409E-01  0.35059929772E-01 -0.25380160419E-01  0.60112038599E-01  0.51100000000E-03 0.  1.
</event>
<event>
 8    1  0.1191842E+005  0.1043930E+01  0.7957747E-01            NaN
         13   -1    0    0    0    0  0.00000000000E+00  0.00000000000E+00  0.74505805969E-08  0.10566000000E+00  0.10566000000E+00 0. -1.
     999900   -1    0    0    0    0 -0.00000000000E+00 -0.00000000000E+00 -0.74505805969E-08  0.93827000000E+00  0.93827000000E+00 0. -1.
     999902    2    1    2    0    0  0.16987668114E-01  0.15468226345E-01 -0.23830116987E-02  0.10208318261E+01  0.10205704735E+01 0.  0.
     999903    2    3    3    0    0  0.12936167604E+00  0.21732645888E-01  0.15076047140E-01  0.13349199300E+00  0.19648762639E-01 0.  0.
         14    1    1    2    0    0 -0.16987668114E-01 -0.15468226345E-01  0.23830116987E-02  0.23098173932E-01  0.00000000000E+00 0. -1.
     999901    1    3    3    0    0 -0.11237400793E+00 -0.62644195432E-02 -0.17459058839E-01  0.88733983307E+00  0.88000000000E+00 0.  1.
        -11    1    4    4    0    0  0.21074379035E-01  0.53781305782E-03 -0.41347615931E-02  0.21488975523E-01  0.51100000000E-03 0. -1.
         11    1    4    4    0    0  0.10828729701E+00  0.21194832830E-01  0.19210808734E-01  0.11200301748E+00  0.51100000000E-03 0.  1.
</event>
<event>
 8    1  0.1191842E+005  0.1043930E+01  0.7957747E-01            NaN
         13   -1    0    0    0    0  0.00000000000E+00  0.00000000000E+00  0.74505805969E-08  0.10566000000E+00  0.10566000000E+00 0.  1.
     999900   -1    0    0    0    0 -0.00000000000E+00 -0.00000000000E+00 -0.74505805969E-08  0.93827000000E+00  0.93827000000E+00 0.  1.
     999902    2    1    2    0    0  0.16951698623E-01 -0.15957075905E-01  0.12620882863E-01  0.10174484018E+01  0.10171037191E+01 0.  0.
     999903    2    3    3    0    0  0.12110577104E+00  0.39892172701E-01  0.12664621573E-01  0.12954795060E+00  0.19086268422E-01 0.  0.
         14    1    1    2    0    0 -0.16951698623E-01  0.15957075905E-01 -0.12620882863E-01  0.26481598174E-01  0.00000000000E+00 0. -1.
     999901    1    3    3    0    0 -0.10415407242E+00 -0.55849248606E-01 -0.43738710087E-04  0.88790045122E+00  0.88000000000E+00 0. -1.
        -11    1    4    4    0    0  0.10448244662E+00  0.27088508028E-01  0.10739896301E-01  0.10847108100E+00  0.51100000000E-03 0.  1.
         11    1    4    4    0    0  0.16623324424E-01  0.12803664673E-01  0.19247252722E-02  0.21076869605E-01  0.51100000000E-03 0. -1.
</event>
<event>
 8    1  0.1191842E+005  0.1043930E+01  0.7957747E-01            NaN
         13   -1    0    0    0    0  0.00000000000E+00  0.00000000000E+00  0.74505805969E-08  0.10566000000E+00  0.10566000000E+00 0.  1.
     999900   -1    0    0    0    0 -0.00000000000E+00 -0.00000000000E+00 -0.74505805969E-08  0.93827000000E+00  0.93827000000E+00 0. -1.
     999902    2    1    2    0    0 -0.12223528134E-01 -0.19144054916E-01  0.63605068586E-02  0.10203425981E+01  0.10200699251E+01 0.  0.
     999903    2    3    3    0    0 -0.21057170415E-01 -0.12851651402E+00 -0.18865580817E-01  0.13316915200E+00  0.20450283690E-01 0.  0.
         14    1    1    2    0    0  0.12223528134E-01  0.19144054916E-01 -0.63605068586E-02  0.23587401853E-01  0.00000000000E+00 0. -1.
     999901    1    3    3    0    0  0.88336422802E-02  0.10937245911E+00  0.25226087675E-01  0.88717344615E+00  0.88000000000E+00 0. -1.
        -11    1    4    4    0    0 -0.20484394980E-01 -0.87183291870E-01 -0.20194325611E-01  0.91807454637E-01  0.51100000000E-03 0. -1.
         11    1    4    4    0    0 -0.57277543472E-03 -0.41333222151E-01  0.13287447944E-02  0.41361697364E-01  0.51100000000E-03 0.  1.
</event>
<event>
 8    1  0.1191842E+005  0.1043930E+01  0.7957747E-01            NaN
         13   -1    0    0    0    0  0.00000000000E+00  0.00000000000E+00  0.74505805969E-08  0.10566000000E+00  0.10566000000E+00 0. -1.
     999900   -1    0    0    0    0 -0.00000000000E+00 -0.00000000000E+00 -0.74505805969E-08  0.93827000000E+00  0.93827000000E+00 0. -1.
     999902    2    1    2    0    0 -0.18836267321E-01  0.27876484667E-02  0.14426440205E-01  0.10200407110E+01  0.10197609298E+01 0.  0.
     999903    2    3    3    0    0  0.60624905293E-01  0.46751748516E-01 -0.99880700765E-01  0.12801322125E+00  0.23454750006E-01 0.  0.
         14    1    1    2    0    0  0.18836267321E-01 -0.27876484667E-02 -0.14426440205E-01  0.23889288971E-01  0.00000000000E+00 0.  1.
     999901    1    3    3    0    0 -0.79461172615E-01 -0.43964100049E-01  0.11430714097E+00  0.89202748978E+00  0.88000000000E+00 0.  1.
        -11    1    4    4    0    0  0.39564686422E-01  0.22524226731E-01 -0.73500976827E-01  0.86460163758E-01  0.51100000000E-03 0.  1.
         11    1    4    4    0    0  0.21060218871E-01  0.24227521785E-01 -0.26379723938E-01  0.41553057490E-01  0.51100000000E-03 0. -1.
</event>
<event>
 8    1  0.1191842E+005  0.1043930E+01  0.7957747E-01            NaN
         13   -1    0    0    0    0  0.00000000000E+00  0.00000000000E+00  0.74505805969E-08  0.10566000000E+00  0.10566000000E+00 0. -1.
     999900   -1    0    0    0    0 -0.00000000000E+00 -0.00000000000E+00 -0.74505805969E-08  0.93827000000E+00  0.93827000000E+00 0.  1.
     999902    2    1    2    0    0  0.30892577239E-02  0.35408390850E-02 -0.23157720121E-01  0.10203003353E+01  0.10200266727E+01 0.  0.
     999903    2    3    3    0    0  0.67252729230E-01 -0.10988768899E+00 -0.73066680166E-02  0.13056203783E+00  0.19870192349E-01 0.  0.
         14    1    1    2    0    0 -0.30892577239E-02 -0.35408390850E-02  0.23157720121E-01  0.23629664744E-01  0.00000000000E+00 0. -1.
     999901    1    3    3    0    0 -0.64163471506E-01  0.11342852807E+00 -0.15851052105E-01  0.88973829743E+00  0.88000000000E+00 0.  1.
        -11    1    4    4    0    0  0.41579662735E-01 -0.50619170922E-01 -0.77715527746E-02  0.65968378573E-01  0.51100000000E-03 0.  1.
         11    1    4    4    0    0  0.25673066495E-01 -0.59268518067E-01  0.46488475805E-03  0.64593659255E-01  0.51100000000E-03 0. -1.
</event>
<event>
 8    1  0.1191842E+005  0.1043930E+01  0.7957747E-01            NaN
         13   -1    0    0    0    0  0.00000000000E+00  0.00000000000E+00  0.74505805969E-08  0.10566000000E+00  0.10566000000E+00 0.  1.
     999900   -1    0    0    0    0 -0.00000000000E+00 -0.00000000000E+00 -0.74505805969E-08  0.93827000000E+00  0.93827000000E+00 0.  1.
     999902    2    1    2    0    0  0.11131978811E-02 -0.23156716205E-01 -0.60105942565E-02  0.10199800531E+01  0.10196988323E+01 0.  0.
     999903    2    3    3    0    0 -0.71405584111E-01 -0.72298616145E-01  0.80673913556E-01  0.13139235116E+00  0.20732155636E-01 0.  0.
         14    1    1    2    0    0 -0.11131978811E-02  0.23156716205E-01  0.60105942565E-02  0.23949946936E-01  0.00000000000E+00 0. -1.
     999901    1    3    3    0    0  0.72518781992E-01  0.49141899940E-01 -0.86684507813E-01  0.88858770190E+00  0.88000000000E+00 0.  1.
        -11    1    4    4    0    0 -0.66707120135E-01 -0.57167345677E-01  0.67923377053E-01  0.11104859999E+00  0.51100000000E-03 0.  1.
         11    1    4    4    0    0 -0.46984639751E-02 -0.15131270469E-01  0.12750536503E-01  0.20343751174E-01  0.51100000000E-03 0. -1.
</event>
<event>
 8    1  0.1191842E+005  0.1043930E+01  0.7957747E-01            NaN
         13   -1    0    0    0    0  0.00000000000E+00  0.00000000000E+00  0.74505805969E-08  0.10566000000E+00  0.10566000000E+00 0. -1.
     999900   -1    0    0    0    0 -0.00000000000E+00 -0.00000000000E+00 -0.74505805969E-08  0.93827000000E+00  0.93827000000E+00 0.  1.
     999902    2    1    2    0    0  0.16530185774E-01 -0.14762854286E-01  0.32644362757E-02  0.10215280927E+01  0.10212824284E+01 0.  0.
     999903    2    3    3    0    0 -0.87582811401E-01  0.34209961213E-01  0.87275256308E-01  0.13007104337E+00  0.21457764589E-01 0.  0.
         14    1    1    2    0    0 -0.16530185774E-01  0.14762854286E-01 -0.32644362757E-02  0.22401907342E-01  0.00000000000E+00 0. -1.
     999901    1    3    3    0    0  0.10411299717E+00 -0.48972815499E-01 -0.84010820032E-01  0.89145704929E+00  0.88000000000E+00 0.  1.
        -11    1    4    4    0    0 -0.50926928330E-01  0.28371444096E-01  0.43896466861E-01  0.72977063473E-01  0.51100000000E-03 0. -1.
         11    1    4    4    0    0 -0.36655883071E-01  0.58385171167E-02  0.43378789447E-01  0.57093979899E-01  0.51100000000E-03 0.  1.
</event>
<event>
 8    1  0.1191842E+005  0.1043930E+01  0.7957747E-01            NaN
         13   -1    0    0    0    0  0.00000000000E+00  0.00000000000E+00  0.74505805969E-08  0.10566000000E+00  0.10566000000E+00 0. -1.
     999900   -1    0    0    0    0 -0.00000000000E+00 -0.00000000000E+00 -0.74505805969E-08  0.93827000000E+00  0.93827000000E+00 0. -1.
     999902    2    1    2    0    0 -0.82744200179E-02 -0.85745708161E-02  0.19298834675E-01  0.10212488556E+01  0.10209969592E+01 0.  0.
     999903    2    3    3    0    0 -0.74380546059E-01  0.26725776221E-01  0.10711298516E+00  0.13370873852E+00  0.12573878549E-01 0.  0.
         14    1    1    2    0    0  0.82744200179E-02  0.85745708161E-02 -0.19298834675E-01  0.22681144397E-01  0.00000000000E+00 0.  1.
     999901    1    3    3    0    0  0.66106126041E-01 -0.35300347037E-01 -0.87814150481E-01  0.88754011708E+00  0.88000000000E+00 0. -1.
        -11    1    4    4    0    0 -0.48366617346E-01  0.13672744961E-01  0.75835969558E-01  0.90981476291E-01  0.51100000000E-03 0.  1.
         11    1    4    4    0    0 -0.26013928712E-01  0.13053031259E-01  0.31277015599E-01  0.42727262232E-01  0.51100000000E-03 0. -1.
</event>
<event>
 7    1  0.1191842E+005  0.1043930E+01  0.7957747E-01            NaN
         13   -1    0    0    0    0  0.00000000000E+00  0.00000000000E+00  0.74505805969E-08  0.10566000000E+00  0.10566000000E+00 0.  1.
     999900   -1    0    0    0    0 -0.00000000000E+00 -0.00000000000E+00 -0.74505805969E-08  0.93827000000E+00  0.93827000000E+00 0. -1.
     999903    2    1    2    0    0  0.43558907233E-01  0.72167018765E-01  0.61731293885E-01  0.10653152789E+00  0.20802807323E-01 0.  0.
         14    1    1    2    0    0 -0.39770318939E-02  0.24338962696E-01 -0.44726433900E-01  0.51075001490E-01  0.00000000000E+00 0.  1.
     999901    1    1    2    0    0 -0.39581875339E-01 -0.96505981461E-01 -0.17004859985E-01  0.88632347062E+00  0.88000000000E+00 0. -1.
        -11    1    3    3    0    0  0.25659313961E-01  0.59310258747E-01  0.48737349299E-01  0.80942556936E-01  0.51100000000E-03 0.  1.
         11    1    3    3    0    0  0.17899593272E-01  0.12856760018E-01  0.12993944586E-01  0.25588970951E-01  0.51100000000E-03 0. -1.
</event>
<event>
 8    1  0.1191842E+005  0.1043930E+01  0.7957747E-01            NaN
         13   -1    0    0    0    0  0.00000000000E+00  0.00000000000E+00  0.74505805969E-08  0.10566000000E+00  0.10566000000E+00 0. -1.
     999900   -1    0    0    0    0 -0.00000000000E+00 -0.00000000000E+00 -0.74505805969E-08  0.93827000000E+00  0.93827000000E+00 0. -1.
     999902    2    1    2    0    0 -0.72489981917E-02 -0.17789993894E-01 -0.12561715800E-01  0.10209772537E+01  0.10207192190E+01 0.  0.
     999903    2    3    3    0    0 -0.38501504898E-01 -0.40025957248E-01 -0.12013072316E+00  0.13359782610E+00  0.18235826219E-01 0.  0.
         14    1    1    2    0    0  0.72489981917E-02  0.17789993894E-01  0.12561715800E-01  0.22952746271E-01  0.00000000000E+00 0. -1.
     999901    1    3    3    0    0  0.31252506707E-01  0.22235963355E-01  0.10756900736E+00  0.88737942763E+00  0.88000000000E+00 0.  1.
        -11    1    4    4    0    0 -0.33229209747E-01 -0.32334010926E-01 -0.80662017534E-01  0.93039189789E-01  0.51100000000E-03 0.  1.
         11    1    4    4    0    0 -0.52722951515E-02 -0.76919463225E-02 -0.39468705625E-01  0.40558636307E-01  0.51100000000E-03 0. -1.
</event>
<event>
 8    1  0.1191842E+005  0.1043930E+01  0.7957747E-01            NaN
         13   -1    0    0    0    0  0.00000000000E+00  0.00000000000E+00  0.74505805969E-08  0.10566000000E+00  0.10566000000E+00 0.  1.
     999900   -1    0    0    0    0 -0.00000000000E+00 -0.00000000000E+00 -0.74505805969E-08  0.93827000000E+00  0.93827000000E+00 0.  1.
     999902    2    1    2    0    0  0.88327201647E-03  0.47873397252E-02  0.23877476829E-01  0.10195613174E+01  0.10192700561E+01 0.  0.
     999903    2    3    3    0    0  0.18656821655E-02 -0.11817024236E+00  0.51477640468E-01  0.13058364551E+00  0.20843561521E-01 0.  0.
         14    1    1    2    0    0 -0.88327201647E-03 -0.47873397252E-02 -0.23877476829E-01  0.24368682583E-01  0.00000000000E+00 0. -1.
     999901    1    3    3    0    0 -0.98241014907E-03  0.12295758208E+00 -0.27600163640E-01  0.88897767191E+00  0.88000000000E+00 0. -1.
        -11    1    4    4    0    0  0.88145215734E-02 -0.53312807758E-01  0.16148641548E-01  0.56400274879E-01  0.51100000000E-03 0. -1.
         11    1    4    4    0    0 -0.69488394078E-02 -0.64857434600E-01  0.35328998921E-01  0.74183370628E-01  0.51100000000E-03 0.  1.
</event>
<event>
 8    1  0.1191842E+005  0.1043930E+01  0.7957747E-01            NaN
         13   -1    0    0    0    0  0.00000000000E+00  0.00000000000E+00  0.74505805969E-08  0.10566000000E+00  0.10566000000E+00 0.  1.
     999900   -1    0    0    0    0 -0.00000000000E+00 -0.00000000000E+00 -0.74505805969E-08  0.93827000000E+00  0.93827000000E+00 0. -1.
     999902    2    1    2    0    0  0.19949078152E-01 -0.85758588515E-02 -0.85720145078E-02  0.10205849683E+01  0.10203179342E+01 0.  0.
     999903    2    3    3    0    0  0.40327716244E-01  0.11061384340E+00  0.51704577912E-01  0.13027337022E+00  0.20881584256E-01 0.  0.
         14    1    1    2    0    0 -0.19949078152E-01  0.85758588515E-02  0.85720145078E-02  0.23345031739E-01  0.00000000000E+00 0.  1.
     999901    1    3    3    0    0 -0.20378638092E-01 -0.11918970226E+00 -0.60276592420E-01  0.89031159804E+00  0.88000000000E+00 0.  1.
        -11    1    4    4    0    0  0.12376594852E-01  0.43662839506E-01  0.30510469702E-01  0.54687965187E-01  0.51100000000E-03 0.  1.
         11    1    4    4    0    0  0.27951121392E-01  0.66951003899E-01  0.21194108210E-01  0.75585405032E-01  0.51100000000E-03 0. -1.
</event>
<event>
 8    1  0.1191842E+005  0.1043930E+01  0.7957747E-01            NaN
         13   -1    0    0    0    0  0.00000000000E+00  0.00000000000E+00  0.74505805969E-08  0.10566000000E+00  0.10566000000E+00 0. -1.
     999900   -1    0    0    0    0 -0.00000000000E+00 -0.00000000000E+00 -0.74505805969E-08  0.93827000000E+00  0.93827000000E+00 0. -1.
     999902    2    1    2    0    0  0.13054436317E-01 -0.10144131650E-02 -0.20413294324E-01  0.10196781975E+01  0.10193897569E+01 0.  0.
     999903    2    3    3    0    0  0.66547131500E-01  0.55360242615E-01  0.93510287177E-01  0.12893797007E+00  0.19686267931E-01 0.  0.
         14    1    1    2    0    0 -0.13054436317E-01  0.10144131650E-02  0.20413294324E-01  0.24251802547E-01  0.00000000000E+00 0. -1.
     999901    1    3    3    0    0 -0.53492695183E-01 -0.56374655780E-01 -0.11392358150E+00  0.89074022738E+00  0.88000000000E+00 0. -1.
        -11    1    4    4    0    0  0.29379061997E-01  0.27425006475E-01  0.57357869817E-01  0.70038893587E-01  0.51100000000E-03 0.  1.
         11    1    4    4    0    0  0.37168069503E-01  0.27935236140E-01  0.36152417360E-01  0.58899076485E-01  0.51100000000E-03 0. -1.
</event>
<event>
 8    1  0.1191842E+005  0.1043930E+01  0.7957747E-01            NaN
         13   -1    0    0    0    0  0.00000000000E+00  0.00000000000E+00  0.74505805969E-08  0.10566000000E+00  0.10566000000E+00 0.  1.
     999900   -1    0    0    0    0 -0.00000000000E+00 -0.00000000000E+00 -0.74505805969E-08  0.93827000000E+00  0.93827000000E+00 0. -1.
     999902    2    1    2    0    0  0.13635985872E-01  0.19380168159E-01 -0.35701438721E-02  0.10199659236E+01  0.10196843671E+01 0.  0.
     999903    2    3    3    0    0  0.12268726965E+00  0.45398577747E-01  0.95516387300E-02  0.13275607174E+00  0.20487649609E-01 0.  0.
         14    1    1    2    0    0 -0.13635985872E-01 -0.19380168159E-01  0.35701438721E-02  0.23964076361E-01  0.00000000000E+00 0. -1.
     999901    1    3    3    0    0 -0.10905128377E+00 -0.26018409588E-01 -0.13121782602E-01  0.88720985190E+00  0.88000000000E+00 0. -1.
        -11    1    4    4    0    0  0.62189336728E-01  0.33066406525E-01  0.11669188425E-02  0.70445181976E-01  0.51100000000E-03 0. -1.
         11    1    4    4    0    0  0.60497932918E-01  0.12332171223E-01  0.83847198875E-02  0.62310889763E-01  0.51100000000E-03 0.  1.
</event>
<event>
 8    1  0.1191842E+005  0.1043930E+01  0.7957747E-01            NaN
         13   -1    0    0    0    0  0.00000000000E+00  0.00000000000E+00  0.74505805969E-08  0.10566000000E+00  0.10566000000E+00 0.  1.
     999900   -1    0    0    0    0 -0.00000000000E+00 -0.00000000000E+00 -0.74505805969E-08  0.93827000000E+00  0.93827000000E+00 0. -1.
     999902    2    1    2    0    0  0.82755429097E-02  0.10134791665E-01 -0.19253848462E-01  0.10206510547E+01  0.10203855478E+01 0.  0.
     999903    2    3    3    0    0  0.72570986882E-01 -0.10645767294E+00  0.91552400205E-03  0.13040698117E+00  0.20133511600E-01 0.  0.
         14    1    1    2    0    0 -0.82755429097E-02 -0.10134791665E-01  0.19253848462E-01  0.23278945275E-01  0.00000000000E+00 0.  1.
     999901    1    3    3    0    0 -0.64295443972E-01  0.11659246460E+00 -0.20169372464E-01  0.89024407356E+00  0.88000000000E+00 0. -1.
        -11    1    4    4    0    0  0.44769861935E-01 -0.81740416685E-01  0.87930132930E-03  0.93203382714E-01  0.51100000000E-03 0.  1.
         11    1    4    4    0    0  0.27801124946E-01 -0.24717256251E-01  0.36222672748E-04  0.37203598454E-01  0.51100000000E-03 0. -1.
</event>
<event>
 8    1  0.1191842E+005  0.1043930E+01  0.7957747E-01            NaN
         13   -1    0    0    0    0  0.00000000000E+00  0.00000000000E+00  0.74505805969E-08  0.10566000000E+00  0.10566000000E+00 0. -1.
     999900   -1    0    0    0    0 -0.00000000000E+00 -0.00000000000E+00 -0.74505805969E-08  0.93827000000E+00  0.93827000000E+00 0. -1.
     999902    2    1    2    0    0  0.89114456988E-02  0.17692882760E-01  0.13393550059E-01  0.10200168415E+01  0.10197364943E+01 0.  0.
     999903    2    3    3    0    0 -0.53549721738E-01 -0.45532513248E-01  0.10805208669E+00  0.13048939019E+00  0.20284108388E-01 0.  0.
         14    1    1    2    0    0 -0.89114456988E-02 -0.17692882760E-01 -0.13393550059E-01  0.23913158469E-01  0.00000000000E+00 0.  1.
     999901    1    3    3    0    0  0.62461167437E-01  0.63225396009E-01 -0.94658536627E-01  0.88952745134E+00  0.88000000000E+00 0. -1.
        -11    1    4    4    0    0 -0.18506536091E-01 -0.23878778546E-01  0.60123111536E-01  0.67288465614E-01  0.51100000000E-03 0.  1.
         11    1    4    4    0    0 -0.35043185647E-01 -0.21653734702E-01  0.47928975150E-01  0.63200924572E-01  0.51100000000E-03 0. -1.
</event>
<event>
 8    1  0.1191842E+005  0.1043930E+01  0.7957747E-01            NaN
         13   -1    0    0    0    0  0.00000000000E+00  0.00000000000E+00  0.74505805969E-08  0.10566000000E+00  0.10566000000E+00 0. -1.
     999900   -1    0    0    0    0 -0.00000000000E+00 -0.00000000000E+00 -0.74505805969E-08  0.93827000000E+00  0.93827000000E+00 0. -1.
     999902    2    1    2    0    0  0.76296152188E-02  0.91772017806E-03 -0.22556924673E-01  0.10201000170E+01  0.10198216396E+01 0.  0.
     999903    2    3    3    0    0  0.87162704147E-01  0.73998471881E-01 -0.65757742834E-01  0.13244432971E+00  0.12012863706E-01 0.  0.
         14    1    1    2    0    0 -0.76296152188E-02 -0.91772017806E-03  0.22556924673E-01  0.23829982992E-01  0.00000000000E+00 0. -1.
     999901    1    3    3    0    0 -0.79533088928E-01 -0.73080751703E-01  0.43200818161E-01  0.88765568730E+00  0.88000000000E+00 0.  1.
        -11    1    4    4    0    0  0.56038777336E-01  0.40700830498E-01 -0.36637596460E-01  0.78354813278E-01  0.51100000000E-03 0.  1.
         11    1    4    4    0    0  0.31123926811E-01  0.33297641383E-01 -0.29120146374E-01  0.54089516430E-01  0.51100000000E-03 0. -1.
</event>
<event>
 8    1  0.1191842E+005  0.1043930E+01  0.7957747E-01            NaN
         13   -1    0    0    0    0  0.00000000000E+00  0.00000000000E+00  0.74505805969E-08  0.10566000000E+00  0.10566000000E+00 0. -1.
     999900   -1    0    0    0    0 -0.00000000000E+00 -0.00000000000E+00 -0.74505805969E-08  0.93827000000E+00  0.93827000000E+00 0. -1.
     999902    2    1    2    0    0 -0.20572251841E-01  0.57835636297E-02  0.10632780419E-01  0.10200611254E+01  0.10197818279E+01 0.  0.
     999903    2    3    3    0    0  0.99406833071E-01  0.79225209756E-01  0.71080653995E-02  0.12888152522E+00  0.20039227220E-01 0.  0.
         14    1    1    2    0    0  0.20572251841E-01 -0.57835636297E-02 -0.10632780419E-01  0.23868874576E-01  0.00000000000E+00 0.  1.
     999901    1    3    3    0    0 -0.11997908491E+00 -0.73441646126E-01  0.35247150198E-02  0.89117960020E+00  0.88000000000E+00 0. -1.
        -11    1    4    4    0    0  0.39462673793E-01  0.42101968571E-01 -0.22603074290E-02  0.57751610291E-01  0.51100000000E-03 0. -1.
         11    1    4    4    0    0  0.59944159278E-01  0.37123241184E-01  0.93683728285E-02  0.71129914931E-01  0.51100000000E-03 0.  1.
</event>
<event>
 8    1  0.1191842E+005  0.1043930E+01  0.7957747E-01            NaN
         13   -1    0    0    0    0  0.00000000000E+00  0.00000000000E+00  0.74505805969E-08  0.10566000000E+00  0.10566000000E+00 0. -1.
     999900   -1    0    0    0    0 -0.00000000000E+00 -0.00000000000E+00 -0.74505805969E-08  0.93827000000E+00  0.93827000000E+00 0.  1.
     999902    2    1    2    0    0 -0.59706799781E-02 -0.74237367297E-02  0.20545643438E-01  0.10212830499E+01  0.10210319209E+01 0.  0.
     999903    2    3    3    0    0 -0.93727264022E-01  0.89407408320E-01  0.11194892778E-01  0.13158370444E+00  0.20259836300E-01 0.  0.
         14    1    1    2    0    0  0.59706799781E-02  0.74237367297E-02 -0.20545643438E-01  0.22646950142E-01  0.00000000000E+00 0.  1.
     999901    1    3    3    0    0  0.87756584044E-01 -0.96831145050E-01  0.93507506607E-02  0.88969934542E+00  0.88000000000E+00 0.  1.
        -11    1    4    4    0    0 -0.54301919513E-01  0.49064125201E-01  0.16177657508E-01  0.74953082445E-01  0.51100000000E-03 0. -1.
         11    1    4    4    0    0 -0.39425344510E-01  0.40343283119E-01 -0.49827647300E-02  0.56630621998E-01  0.51100000000E-03 0.  1.
</event>
<event>
 8    1  0.1191842E+005  0.1043930E+01  0.7957747E-01            NaN
         13   -1    0    0    0    0  0.00000000000E+00  0.00000000000E+00  0.74505805969E-08  0.10566000000E+00  0.10566000000E+00 0. -1.
     999900   -1    0    0    0    0 -0.00000000000E+00 -0.00000000000E+00 -0.74505805969E-08  0.93827000000E+00  0.93827000000E+00 0. -1.
     999902    2    1    2    0    0  0.24015391070E-01  0.69767936237E-02 -0.11694912289E-01  0.10163222904E+01  0.10159472488E+01 0.  0.
     999903    2    3    3    0    0  0.70037779905E-03 -0.51054777796E-01 -0.11571323459E+00  0.12799179754E+00  0.19628212149E-01 0.  0.
         14    1    1    2    0    0 -0.24015391070E-01 -0.69767936237E-02  0.11694912289E-01  0.27607709630E-01  0.00000000000E+00 0. -1.
     999901    1    3    3    0    0  0.23315013271E-01  0.58031571419E-01  0.10401832230E+00  0.88833049283E+00  0.88000000000E+00 0.  1.
        -11    1    4    4    0    0  0.60750376784E-02 -0.30302533668E-01 -0.49164667878E-01  0.58073878104E-01  0.51100000000E-03 0. -1.
         11    1    4    4    0    0 -0.53746598793E-02 -0.20752244128E-01 -0.66548566712E-01  0.69917919431E-01  0.51100000000E-03 0.  1.
</event>
<event>
 8    1  0.1191842E+005  0.1043930E+01  0.7957747E-01            NaN
         13   -1    0    0    0    0  0.00000000000E+00  0.00000000000E+00  0.74505805969E-08  0.10566000000E+00  0.10566000000E+00 0. -1.
     999900   -1    0    0    0    0 -0.00000000000E+00 -0.00000000000E+00 -0.74505805969E-08  0.93827000000E+00  0.93827000000E+00 0.  1.
     999902    2    1    2    0    0 -0.22766345822E-01 -0.40700917370E-02 -0.22655256524E-02  0.10206919976E+01  0.10204274346E+01 0.  0.
     999903    2    3    3    0    0 -0.50655768970E-02 -0.10947095246E+00  0.70999909738E-01  0.13120310915E+00  0.12795279014E-01 0.  0.
         14    1    1    2    0    0  0.22766345822E-01  0.40700917370E-02  0.22655256524E-02  0.23238002396E-01  0.00000000000E+00 0. -1.
     999901    1    3    3    0    0 -0.17700768925E-01  0.10540086073E+00 -0.73265435390E-01  0.88948888846E+00  0.88000000000E+00 0.  1.
        -11    1    4    4    0    0  0.16193214946E-02 -0.44354774068E-01  0.22719095629E-01  0.49863680289E-01  0.51100000000E-03 0. -1.
         11    1    4    4    0    0 -0.66848983916E-02 -0.65116178395E-01  0.48280814108E-01  0.81339428860E-01  0.51100000000E-03 0.  1.
</event>
<event>
 8    1  0.1191842E+005  0.1043930E+01  0.7957747E-01            NaN
         13   -1    0    0    0    0  0.00000000000E+00  0.00000000000E+00  0.74505805969E-08  0.10566000000E+00  0.10566000000E+00 0. -1.
     999900   -1    0    0    0    0 -0.00000000000E+00 -0.00000000000E+00 -0.74505805969E-08  0.93827000000E+00  0.93827000000E+00 0.  1.
     999902    2    1    2    0    0  0.12779592381E-01 -0.18564177270E-01  0.65303496566E-02  0.10204653004E+01  0.10201954897E+01 0.  0.
     999903    2    3    3    0    0  0.81716239522E-01  0.17635628410E-01  0.10031565448E+00  0.13206315577E+00  0.19720227854E-01 0.  0.
         14    1    1    2    0    0 -0.12779592381E-01  0.18564177270E-01 -0.65303496566E-02  0.23464699567E-01  0.00000000000E+00 0. -1.
     999901    1    3    3    0    0 -0.68936647140E-01 -0.36199805680E-01 -0.93785304820E-01  0.88840214467E+00  0.88000000000E+00 0.  1.
        -11    1    4    4    0    0  0.61468522688E-01  0.21408326587E-01  0.79907557998E-01  0.10306393489E+00  0.51100000000E-03 0.  1.
         11    1    4    4    0    0  0.20247716834E-01 -0.37726981776E-02  0.20408096479E-01  0.28999220876E-01  0.51100000000E-03 0. -1.
</event>
<event>
 8    1  0.1191842E+005  0.1043930E+01  0.7957747E-01            NaN
         13   -1    0    0    0    0  0.00000000000E+00  0.00000000000E+00  0.74505805969E-08  0.10566000000E+00  0.10566000000E+00 0. -1.
     999900   -1    0    0    0    0 -0.00000000000E+00 -0.00000000000E+00 -0.74505805969E-08  0.93827000000E+00  0.93827000000E+00 0. -1.
     999902    2    1    2    0    0  0.16737831978E-01 -0.57432836215E-02 -0.14757563678E-01  0.10208881682E+01  0.10206281037E+01 0.  0.
     999903    2    3    3    0    0 -0.64577592901E-01 -0.86043271251E-01  0.69332214618E-01  0.12952327260E+00  0.19890000695E-01 0.  0.
         14    1    1    2    0    0 -0.16737831978E-01  0.57432836215E-02  0.14757563678E-01  0.23041831780E-01  0.00000000000E+00 0. -1.
     999901    1    3    3    0    0  0.81315424879E-01  0.80299987630E-01 -0.84089778296E-01  0.89136489562E+00  0.88000000000E+00 0. -1.
        -11    1    4    4    0    0 -0.41784131157E-01 -0.41985663486E-01  0.44223975251E-01  0.73923816615E-01  0.51100000000E-03 0. -1.
         11    1    4    4    0    0 -0.22793461744E-01 -0.44057607766E-01  0.25108239367E-01  0.55599455981E-01  0.51100000000E-03 0.  1.
</event>
<event>
 8    1  0.1191842E+005  0.1043930E+01  0.7957747E-01            NaN
         13   -1    0    0    0    0  0.00000000000E+00  0.00000000000E+00  0.74505805969E-08  0.10566000000E+00  0.10566000000E+00 0. -1.
     999900   -1    0    0    0    0 -0.00000000000E+00 -0.00000000000E+00 -0.74505805969E-08  0.93827000000E+00  0.93827000000E+00 0.  1.
     999902    2    1    2    0    0 -0.23470791863E-01 -0.51803216084E-03 -0.11012662540E-03  0.10204532337E+01  0.10201831422E+01 0.  0.
     999903    2    3    3    0    0  0.47684861026E-01 -0.10887723701E+00 -0.48076580815E-01  0.12966390679E+00  0.19320258548E-01 0.  0.
         14    1    1    2    0    0  0.23470791863E-01  0.51803216084E-03  0.11012662540E-03  0.23476766300E-01  0.00000000000E+00 0.  1.
     999901    1    3    3    0    0 -0.71155652889E-01  0.10835920485E+00  0.47966454190E-01  0.89078932691E+00  0.88000000000E+00 0. -1.
        -11    1    4    4    0    0  0.69291458257E-02 -0.35669381395E-01 -0.10439771180E-01  0.37809625419E-01  0.51100000000E-03 0.  1.
         11    1    4    4    0    0  0.40755715200E-01 -0.73207855616E-01 -0.37636809635E-01  0.91854281369E-01  0.51100000000E-03 0. -1.
</event>
<event>
 8    1  0.1191842E+005  0.1043930E+01  0.7957747E-01            NaN
         13   -1    0    0    0    0  0.00000000000E+00  0.00000000000E+00  0.74505805969E-08  0.10566000000E+00  0.10566000000E+00 0. -1.
     999900   -1    0    0    0    0 -0.00000000000E+00 -0.00000000000E+00 -0.74505805969E-08  0.93827000000E+00  0.93827000000E+00 0.  1.
     999902    2    1    2    0    0 -0.12600068202E-01  0.84263023311E-02  0.17169442780E-01  0.10210268549E+01  0.10207699468E+01 0.  0.
     999903    2    3    3    0    0 -0.74575782529E-01 -0.97882874591E-01  0.43771227266E-01  0.13206662790E+00  0.19572158562E-01 0.  0.
         14    1    1    2    0    0  0.12600068202E-01 -0.84263023311E-02 -0.17169442780E-01  0.22903145090E-01  0.00000000000E+00 0.  1.
     999901    1    3    3    0    0  0.61975714327E-01  0.10630917692E+00 -0.26601784486E-01  0.88896022701E+00  0.88000000000E+00 0.  1.
        -11    1    4    4    0    0 -0.84071026310E-02 -0.23860477157E-01  0.96244398674E-02  0.27071991219E-01  0.51100000000E-03 0.  1.
         11    1    4    4    0    0 -0.66168679898E-01 -0.74022397434E-01  0.34146787399E-01  0.10499463668E+00  0.51100000000E-03 0. -1.
</event>
<event>
 8    1  0.1191842E+005  0.1043930E+01  0.7957747E-01            NaN
         13   -1    0    0    0    0  0.00000000000E+00  0.00000000000E+00  0.74505805969E-08  0.10566000000E+00  0.10566000000E+00 0. -1.
     999900   -1    0    0    0    0 -0.00000000000E+00 -0.00000000000E+00 -0.74505805969E-08  0.93827000000E+00  0.93827000000E+00 0.  1.
     999902    2    1    2    0    0  0.63078869853E-02 -0.90404934254E-02 -0.22629132771E-01  0.10187586351E+01  0.10184476221E+01 0.  0.
     999903    2    3    3    0    0  0.18540263852E-01 -0.68920595098E-02 -0.12921536674E+00  0.13224023595E+00  0.19990676179E-01 0.  0.
         14    1    1    2    0    0 -0.63078869853E-02  0.90404934254E-02  0.22629132771E-01  0.25171364873E-01  0.00000000000E+00 0. -1.
     999901    1    3    3    0    0 -0.12232376867E-01 -0.21484339156E-02  0.10658623397E+00  0.88651839918E+00  0.88000000000E+00 0. -1.
        -11    1    4    4    0    0 -0.26271659072E-02  0.12217664933E-02 -0.42749878711E-01  0.42850997245E-01  0.51100000000E-03 0. -1.
         11    1    4    4    0    0  0.21167429759E-01 -0.81138260031E-02 -0.86465488028E-01  0.89389238703E-01  0.51100000000E-03 0.  1.
</event>
<event>
 8    1  0.1191842E+005  0.1043930E+01  0.7957747E-01            NaN
         13   -1    0    0    0    0  0.00000000000E+00  0.00000000000E+00  0.74505805969E-08  0.10566000000E+00  0.10566000000E+00 0. -1.
     999900   -1    0    0    0    0 -0.00000000000E+00 -0.00000000000E+00 -0.74505805969E-08  0.93827000000E+00  0.93827000000E+00 0.  1.
     999902    2    1    2    0    0  0.63758615548E-02 -0.32736456010E-02 -0.21986064635E-01  0.10208052210E+01  0.10205432592E+01 0.  0.
     999903    2    3    3    0    0 -0.91933017188E-01  0.28731180502E-01  0.82741337764E-01  0.12858508372E+00  0.20269050263E-01 0.  0.
         14    1    1    2    0    0 -0.63758615548E-02  0.32736456010E-02  0.21986064635E-01  0.23124779009E-01  0.00000000000E+00 0. -1.
     999901    1    3    3    0    0  0.98308878743E-01 -0.32004826103E-01 -0.10472740240E+00  0.89222013727E+00  0.88000000000E+00 0.  1.
        -11    1    4    4    0    0 -0.34297625107E-01  0.82602643560E-03  0.31337868301E-01  0.46468618640E-01  0.51100000000E-03 0.  1.
         11    1    4    4    0    0 -0.57635392081E-01  0.27905154066E-01  0.51403469463E-01  0.82116465082E-01  0.51100000000E-03 0. -1.
</event>
<event>
 8    1  0.1191842E+005  0.1043930E+01  0.7957747E-01            NaN
         13   -1    0    0    0    0  0.00000000000E+00  0.00000000000E+00  0.74505805969E-08  0.10566000000E+00  0.10566000000E+00 0.  1.
     999900   -1    0    0    0    0 -0.00000000000E+00 -0.00000000000E+00 -0.74505805969E-08  0.93827000000E+00  0.93827000000E+00 0. -1.
     999902    2    1    2    0    0  0.71869460277E-02 -0.15127663467E-01  0.15760049410E-01  0.10209326621E+01  0.10206736123E+01 0.  0.
     999903    2    3    3    0    0 -0.11657197930E+00 -0.50582072046E-01 -0.23529812192E-01  0.13069843450E+00  0.19515541172E-01 0.  0.
         14    1    1    2    0    0 -0.71869460277E-02  0.15127663467E-01 -0.15760049410E-01  0.22997337946E-01  0.00000000000E+00 0.  1.
     999901    1    3    3    0    0  0.12375892533E+00  0.35454408580E-01  0.39289861603E-01  0.89023422756E+00  0.88000000000E+00 0. -1.
        -11    1    4    4    0    0 -0.85670142428E-01 -0.29197242762E-01 -0.21675433485E-01  0.93069532213E-01  0.51100000000E-03 0. -1.
         11    1    4    4    0    0 -0.30901836876E-01 -0.21384829285E-01 -0.18543787068E-02  0.37628902286E-01  0.51100000000E-03 0.  1.
</event>
<event>
 8    1  0.1191842E+005  0.1043930E+01  0.7957747E-01            NaN
         13   -1    0    0    0    0  0.00000000000E+00  0.00000000000E+00  0.74505805969E-08  0.10566000000E+00  0.10566000000E+00 0. -1.
     999900   -1    0    0    0    0 -0.00000000000E+00 -0.00000000000E+00 -0.74505805969E-08  0.93827000000E+00  0.93827000000E+00 0.  1.
     999902    2    1    2    0    0 -0.18549241993E-01 -0.13624991056E-01  0.13606836435E-02  0.10208742801E+01  0.10206138984E+01 0.  0.
     999903    2    3    3    0    0  0.64273251366E-01 -0.32591279742E-01 -0.10654779280E+00  0.13022085436E+00  0.20292767271E-01 0.  0.
         14    1    1    2    0    0  0.18549241993E-01  0.13624991056E-01 -0.13606836435E-02  0.23055719893E-01  0.00000000000E+00 0. -1.
     999901    1    3    3    0    0 -0.82822493359E-01  0.18966288686E-01  0.10790847644E+00  0.89065342575E+00  0.88000000000E+00 0. -1.
        -11    1    4    4    0    0  0.46889043206E-01 -0.13251407590E-01 -0.65773407469E-01  0.81857097597E-01  0.51100000000E-03 0. -1.
         11    1    4    4    0    0  0.17384208160E-01 -0.19339872152E-01 -0.40774385326E-01  0.48363756760E-01  0.51100000000E-03 0.  1.
</event>
<event>
 8    1  0.1191842E+005  0.1043930E+01  0.7957747E-01            NaN
         13   -1    0    0    0    0  0.00000000000E+00  0.00000000000E+00  0.74505805969E-08  0.10566000000E+00  0.10566000000E+00 0.  1.
     999900   -1    0    0    0    0 -0.00000000000E+00 -0.00000000000E+00 -0.74505805969E-08  0.93827000000E+00  0.93827000000E+00 0. -1.
     999902    2    1    2    0    0 -0.11078014775E-01  0.17946611422E-01 -0.87119690602E-02  0.10211111114E+01  0.10208561114E+01 0.  0.
     999903    2    3    3    0    0 -0.11361699572E+00 -0.48025771537E-01 -0.41255422217E-01  0.13210848244E+00  0.23137519779E-01 0.  0.
         14    1    1    2    0    0  0.11078014775E-01 -0.17946611422E-01  0.87119690602E-02  0.22818888618E-01  0.00000000000E+00 0. -1.
     999901    1    3    3    0    0  0.10253898094E+00  0.65972382959E-01  0.32543453157E-01  0.88900262894E+00  0.88000000000E+00 0.  1.
        -11    1    4    4    0    0 -0.53203758260E-01 -0.23543332928E-01 -0.73920773155E-02  0.58650083942E-01  0.51100000000E-03 0.  1.
         11    1    4    4    0    0 -0.60413237460E-01 -0.24482438609E-01 -0.33863344902E-01  0.73458398495E-01  0.51100000000E-03 0. -1.
</event>
<event>
 8    1  0.1191842E+005  0.1043930E+01  0.7957747E-01            NaN
         13   -1    0    0    0    0  0.00000000000E+00  0.00000000000E+00  0.74505805969E-08  0.10566000000E+00  0.10566000000E+00 0.  1.
     999900   -1    0    0    0    0 -0.00000000000E+00 -0.00000000000E+00 -0.74505805969E-08  0.93827000000E+00  0.93827000000E+00 0.  1.
     999902    2    1    2    0    0 -0.11693200685E-01  0.19891088189E-01 -0.47908604304E-02  0.10203643751E+01  0.10200922112E+01 0.  0.
     999903    2    3    3    0    0 -0.11553497228E+00 -0.56124425704E-01 -0.16031983583E-01  0.13093318908E+00  0.19702652758E-01 0.  0.
         14    1    1    2    0    0  0.11693200685E-01 -0.19891088189E-01  0.47908604304E-02  0.23565624864E-01  0.00000000000E+00 0. -1.
     999901    1    3    3    0    0  0.10384177159E+00  0.76015513893E-01  0.11241123152E-01  0.88943118606E+00  0.88000000000E+00 0.  1.
        -11    1    4    4    0    0 -0.65908447163E-01 -0.21527170165E-01 -0.11283540417E-01  0.70248999054E-01  0.51100000000E-03 0. -1.
         11    1    4    4    0    0 -0.49626525112E-01 -0.34597255539E-01 -0.47484431653E-02  0.60684190025E-01  0.51100000000E-03 0.  1.
</event>
<event>
 8    1  0.1191842E+005  0.1043930E+01  0.7957747E-01            NaN
         13   -1    0    0    0    0  0.00000000000E+00  0.00000000000E+00  0.74505805969E-08  0.10566000000E+00  0.10566000000E+00 0. -1.
     999900   -1    0    0    0    0 -0.00000000000E+00 -0.00000000000E+00 -0.74505805969E-08  0.93827000000E+00  0.93827000000E+00 0.  1.
     999902    2    1    2    0    0  0.15068838688E-01  0.92896730791E-02  0.18996478200E-01  0.10179639816E+01  0.10176327598E+01 0.  0.
     999903    2    3    3    0    0 -0.22972964699E-01 -0.11080401886E+00  0.56279660982E-01  0.12821137031E+00  0.21574696620E-01 0.  0.
         14    1    1    2    0    0 -0.15068838688E-01 -0.92896730791E-02 -0.18996478200E-01  0.25966018357E-01  0.00000000000E+00 0.  1.
     999901    1    3    3    0    0  0.38041803387E-01  0.12009369194E+00 -0.37283182782E-01  0.88975261133E+00  0.88000000000E+00 0. -1.
        -11    1    4    4    0    0 -0.35083411481E-02 -0.67372112803E-01  0.29913791895E-01  0.73799770377E-01  0.51100000000E-03 0. -1.
         11    1    4    4    0    0 -0.19464623551E-01 -0.43431906060E-01  0.26365869087E-01  0.54411599937E-01  0.51100000000E-03 0.  1.
</event>
<event>
 8    1  0.1191842E+005  0.1043930E+01  0.7957747E-01            NaN
         13   -1    0    0    0    0  0.00000000000E+00  0.00000000000E+00  0.74505805969E-08  0.10566000000E+00  0.10566000000E+00 0. -1.
     999900   -1    0    0    0    0 -0.00000000000E+00 -0.00000000000E+00 -0.74505805969E-08  0.93827000000E+00  0.93827000000E+00 0.  1.
     999902    2    1    2    0    0 -0.85196016568E-02 -0.15077033897E-02 -0.22203115514E-01  0.10201007088E+01  0.10198223477E+01 0.  0.
     999903    2    3    3    0    0 -0.11305012955E+00  0.65463201332E-01 -0.79755900820E-03  0.13112943185E+00  0.11337075291E-01 0.  0.
         14    1    1    2    0    0  0.85196016568E-02  0.15077033897E-02  0.22203115514E-01  0.23829291228E-01  0.00000000000E+00 0. -1.
     999901    1    3    3    0    0  0.10453052790E+00 -0.66970904722E-01 -0.21405556506E-01  0.88897127692E+00  0.88000000000E+00 0.  1.
        -11    1    4    4    0    0 -0.49658094610E-01  0.25206501861E-01  0.43222512317E-02  0.55859082279E-01  0.51100000000E-03 0. -1.
         11    1    4    4    0    0 -0.63392034945E-01  0.40256699471E-01 -0.51198102399E-02  0.75270349572E-01  0.51100000000E-03 0.  1.
</event>
<event>
 8    1  0.1191842E+005  0.1043930E+01  0.7957747E-01            NaN
         13   -1    0    0    0    0  0.00000000000E+00  0.00000000000E+00  0.74505805969E-08  0.10566000000E+00  0.10566000000E+00 0.  1.
     999900   -1    0    0    0    0 -0.00000000000E+00 -0.00000000000E+00 -0.74505805969E-08  0.93827000000E+00  0.93827000000E+00 0.  1.
     999902    2    1    2    0    0 -0.91160234477E-02 -0.82296637481E-02  0.22525629809E-01  0.10182739433E+01  0.10179506817E+01 0.  0.
     999903    2    3    3    0    0 -0.10773513885E+00  0.87514757494E-02 -0.66102607142E-01  0.12817897451E+00  0.19412531086E-01 0.  0.
         14    1    1    2    0    0  0.91160234477E-02  0.82296637481E-02 -0.22525629809E-01  0.25656056735E-01  0.00000000000E+00 0. -1.
     999901    1    3    3    0    0  0.98619115406E-01 -0.16981139497E-01  0.88628236951E-01  0.89009496876E+00  0.88000000000E+00 0. -1.
        -11    1    4    4    0    0 -0.90530356092E-01  0.14441137976E-01 -0.54405986256E-01  0.10660471050E+00  0.51100000000E-03 0.  1.
         11    1    4    4    0    0 -0.17204782762E-01 -0.56896622264E-02 -0.11696620886E-01  0.21574264003E-01  0.51100000000E-03 0. -1.
</event>
<event>
 8    1  0.1191842E+005  0.1043930E+01  0.7957747E-01            NaN
         13   -1    0    0    0    0  0.00000000000E+00  0.00000000000E+00  0.74505805969E-08  0.10566000000E+00  0.10566000000E+00 0.  1.
     999900   -1    0    0    0    0 -0.00000000000E+00 -0.00000000000E+00 -0.74505805969E-08  0.93827000000E+00  0.93827000000E+00 0. -1.
     999902    2    1    2    0    0  0.22292995384E-01 -0.30435115057E-02 -0.95263355856E-02  0.10194965869E+01  0.10192037574E+01 0.  0.
     999903    2    3    3    0    0  0.96415082091E-01 -0.74355192313E-01  0.45007297535E-01  0.13182921864E+00  0.22993985660E-01 0.  0.
         14    1    1    2    0    0 -0.22292995384E-01  0.30435115057E-02  0.95263355856E-02  0.24433413089E-01  0.00000000000E+00 0.  1.
     999901    1    3    3    0    0 -0.74122086707E-01  0.71311680807E-01 -0.54533633121E-01  0.88766736827E+00  0.88000000000E+00 0.  1.
        -11    1    4    4    0    0  0.19235634836E-01 -0.11784192667E-01  0.18004801012E-01  0.28867123598E-01  0.51100000000E-03 0.  1.
         11    1    4    4    0    0  0.77179447255E-01 -0.62570999646E-01  0.27002496523E-01  0.10296209504E+00  0.51100000000E-03 0. -1.
</event>
<event>
 8    1  0.1191842E+005  0.1043930E+01  0.7957747E-01            NaN
         13   -1    0    0    0    0  0.00000000000E+00  0.00000000000E+00  0.74505805969E-08  0.10566000000E+00  0.10566000000E+00 0. -1.
     999900   -1    0    0    0    0 -0.00000000000E+00 -0.00000000000E+00 -0.74505805969E-08  0.93827000000E+00  0.93827000000E+00 0.  1.
     999902    2    1    2    0    0 -0.51901600882E-02  0.22726462870E-01  0.33661711472E-02  0.10203766354E+01  0.10201047579E+01 0.  0.
     999903    2    3    3    0    0  0.68254475146E-01  0.55512906843E-01  0.96037473871E-01  0.13186268744E+00  0.20596498427E-01 0.  0.
         14    1    1    2    0    0  0.51901600882E-02 -0.22726462870E-01 -0.33661711472E-02  0.23553364611E-01  0.00000000000E+00 0.  1.
     999901    1    3    3    0    0 -0.73444635234E-01 -0.32786443973E-01 -0.92671302724E-01  0.88851394795E+00  0.88000000000E+00 0.  1.
        -11    1    4    4    0    0  0.32127577111E-01  0.24665015540E-01  0.59267251661E-01  0.71787272152E-01  0.51100000000E-03 0.  1.
         11    1    4    4    0    0  0.36126898035E-01  0.30847891303E-01  0.36770222210E-01  0.60075415287E-01  0.51100000000E-03 0. -1.
</event>
<event>
 8    1  0.1191842E+005  0.1043930E+01  0.7957747E-01            NaN
         13   -1    0    0    0    0  0.00000000000E+00  0.00000000000E+00  0.74505805969E-08  0.10566000000E+00  0.10566000000E+00 0.  1.
     999900   -1    0    0    0    0 -0.00000000000E+00 -0.00000000000E+00 -0.74505805969E-08  0.93827000000E+00  0.93827000000E+00 0. -1.
     999902    2    1    2    0    0 -0.10366568977E-01  0.57992494372E-02  0.20366102223E-01  0.10203529950E+01  0.10200805650E+01 0.  0.
     999903    2    3    3    0    0 -0.56381041816E-01  0.88539235655E-01  0.79635093171E-01  0.13329265299E+00  0.20178333666E-01 0.  0.
         14    1    1    2    0    0  0.10366568977E-01 -0.57992494372E-02 -0.20366102223E-01  0.23577005029E-01  0.00000000000E+00 0. -1.
     999901    1    3    3    0    0  0.46014472839E-01 -0.82739986218E-01 -0.59268990948E-01  0.88706034198E+00  0.88000000000E+00 0.  1.
        -11    1    4    4    0    0 -0.27884190637E-01  0.60454295530E-01  0.54501146320E-01  0.86040025608E-01  0.51100000000E-03 0. -1.
         11    1    4    4    0    0 -0.28496851179E-01  0.28084940126E-01  0.25133946851E-01  0.47252627380E-01  0.51100000000E-03 0.  1.
</event>
<event>
 8    1  0.1191842E+005  0.1043930E+01  0.7957747E-01            NaN
         13   -1    0    0    0    0  0.00000000000E+00  0.00000000000E+00  0.74505805969E-08  0.10566000000E+00  0.10566000000E+00 0.  1.
     999900   -1    0    0    0    0 -0.00000000000E+00 -0.00000000000E+00 -0.74505805969E-08  0.93827000000E+00  0.93827000000E+00 0.  1.
     999902    2    1    2    0    0  0.11149325563E-01  0.12036370669E-01 -0.97476894868E-02  0.10248459981E+01  0.10246682979E+01 0.  0.
     999903    2    3    3    0    0  0.23877299743E-01 -0.88376377527E-01  0.94359632058E-01  0.13294743000E+00  0.19767888940E-01 0.  0.
         14    1    1    2    0    0 -0.11149325563E-01 -0.12036370669E-01  0.97476894868E-02  0.19084001932E-01  0.00000000000E+00 0.  1.
     999901    1    3    3    0    0 -0.12727974180E-01  0.10041274820E+00 -0.10410732154E+00  0.89189856807E+00  0.88000000000E+00 0.  1.
        -11    1    4    4    0    0  0.16012395889E-01 -0.63249887059E-01  0.79003727936E-01  0.10246362859E+00  0.51100000000E-03 0. -1.
         11    1    4    4    0    0  0.78649038537E-02 -0.25126490468E-01  0.15355904122E-01  0.30483801408E-01  0.51100000000E-03 0.  1.
</event>
<event>
 8    1  0.1191842E+005  0.1043930E+01  0.7957747E-01            NaN
         13   -1    0    0    0    0  0.00000000000E+00  0.00000000000E+00  0.74505805969E-08  0.10566000000E+00  0.10566000000E+00 0. -1.
     999900   -1    0    0    0    0 -0.00000000000E+00 -0.00000000000E+00 -0.74505805969E-08  0.93827000000E+00  0.93827000000E+00 0. -1.
     999902    2    1    2    0    0  0.11304095996E-01 -0.26151889716E-01 -0.20104370382E-01  0.10090603910E+01  0.10084577250E+01 0.  0.
     999903    2    3    3    0    0 -0.49901865830E-01 -0.40967607469E-01 -0.10222045537E+00  0.12299677780E+00  0.22597450701E-01 0.  0.
         14    1    1    2    0    0 -0.11304095996E-01  0.26151889716E-01  0.20104370382E-01  0.34869608980E-01  0.00000000000E+00 0. -1.
     999901    1    3    3    0    0  0.61205961826E-01  0.14815717753E-01  0.82116084989E-01  0.88606361322E+00  0.88000000000E+00 0.  1.
        -11    1    4    4    0    0 -0.43146375328E-01 -0.23158999214E-01 -0.67523924609E-01  0.83412771589E-01  0.51100000000E-03 0. -1.
         11    1    4    4    0    0 -0.67554905023E-02 -0.17808608255E-01 -0.34696530762E-01  0.39584006212E-01  0.51100000000E-03 0.  1.
</event>
<event>
 8    1  0.1191842E+005  0.1043930E+01  0.7957747E-01            NaN
         13   -1    0    0    0    0  0.00000000000E+00  0.00000000000E+00  0.74505805969E-08  0.10566000000E+00  0.10566000000E+00 0.  1.
     999900   -1    0    0    0    0 -0.00000000000E+00 -0.00000000000E+00 -0.74505805969E-08  0.93827000000E+00  0.93827000000E+00 0. -1.
     999902    2    1    2    0    0  0.20717074823E-02 -0.14249833099E-01  0.18291891079E-01  0.10206503309E+01  0.10203848073E+01 0.  0.
     999903    2    3    3    0    0 -0.37894321478E-01 -0.12431439596E+00 -0.75318135367E-02  0.13251838393E+00  0.24785988405E-01 0.  0.
         14    1    1    2    0    0 -0.20717074823E-02  0.14249833099E-01 -0.18291891079E-01  0.23279669123E-01  0.00000000000E+00 0. -1.
     999901    1    3    3    0    0  0.39966028961E-01  0.11006456286E+00  0.25823704616E-01  0.88813194695E+00  0.88000000000E+00 0. -1.
        -11    1    4    4    0    0 -0.79011112807E-02 -0.81980002370E-02 -0.52994218987E-02  0.12568999993E-01  0.51100000000E-03 0. -1.
         11    1    4    4    0    0 -0.29993210198E-01 -0.11611639572E+00 -0.22323916381E-02  0.11994938394E+00  0.51100000000E-03 0.  1.
</event>
<event>
 8    1  0.1191842E+005  0.1043930E+01  0.7957747E-01            NaN
         13   -1    0    0    0    0  0.00000000000E+00  0.00000000000E+00  0.74505805969E-08  0.10566000000E+00  0.10566000000E+00 0.  1.
     999900   -1    0    0    0    0 -0.00000000000E+00 -0.00000000000E+00 -0.74505805969E-08  0.93827000000E+00  0.93827000000E+00 0.  1.
     999902    2    1    2    0    0  0.14419323046E-02 -0.23648569790E-01 -0.60061360513E-03  0.10202298996E+01  0.10199545839E+01 0.  0.
     999903    2    3    3    0    0 -0.12088366310E+00 -0.42995619102E-01  0.19990527210E-01  0.13131941216E+00  0.19587842306E-01 0.  0.
         14    1    1    2    0    0 -0.14419323046E-02  0.23648569790E-01  0.60061360513E-03  0.23700100392E-01  0.00000000000E+00 0.  1.
     999901    1    3    3    0    0  0.12232559541E+00  0.19347049312E-01 -0.20591140815E-01  0.88891048744E+00  0.88000000000E+00 0.  1.
        -11    1    4    4    0    0 -0.60410251708E-01 -0.25384498909E-01  0.10193220746E-02  0.65536794511E-01  0.51100000000E-03 0. -1.
         11    1    4    4    0    0 -0.60473411393E-01 -0.17611120193E-01  0.18971205135E-01  0.65782617653E-01  0.51100000000E-03 0.  1.
</event>
<event>
 8    1  0.1191842E+005  0.1043930E+01  0.7957747E-01            NaN
         13   -1    0    0    0    0  0.00000000000E+00  0.00000000000E+00  0.74505805969E-08  0.10566000000E+00  0.10566000000E+00 0. -1.
     999900   -1    0    0    0    0 -0.00000000000E+00 -0.00000000000E+00 -0.74505805969E-08  0.93827000000E+00  0.93827000000E+00 0.  1.
     999902    2    1    2    0    0  0.12835717560E-02 -0.19213813213E-01 -0.10707904938E-01  0.10218964482E+01  0.10216588832E+01 0.  0.
     999903    2    3    3    0    0  0.91287168224E-01  0.88960944826E-01  0.17899643313E-01  0.13025704946E+00  0.19977610381E-01 0.  0.
         14    1    1    2    0    0 -0.12835717560E-02  0.19213813213E-01  0.10707904938E-01  0.22033551752E-01  0.00000000000E+00 0.  1.
     999901    1    3    3    0    0 -0.90003596468E-01 -0.10817475804E+00 -0.28607548252E-01  0.89163939879E+00  0.88000000000E+00 0. -1.
        -11    1    4    4    0    0  0.73505029108E-01  0.61164016129E-01  0.17724520447E-01  0.97254541895E-01  0.51100000000E-03 0.  1.
         11    1    4    4    0    0  0.17782139116E-01  0.27796928697E-01  0.17512286606E-03  0.33002507564E-01  0.51100000000E-03 0. -1.
</event>
<event>
 8    1  0.1191842E+005  0.1043930E+01  0.7957747E-01            NaN
         13   -1    0    0    0    0  0.00000000000E+00  0.00000000000E+00  0.74505805969E-08  0.10566000000E+00  0.10566000000E+00 0.  1.
     999900   -1    0    0    0    0 -0.00000000000E+00 -0.00000000000E+00 -0.74505805969E-08  0.93827000000E+00  0.93827000000E+00 0.  1.
     999902    2    1    2    0    0 -0.70316093597E-02 -0.21383738342E-01  0.73541744137E-02  0.10202489595E+01  0.10199740917E+01 0.  0.
     999903    2    3    3    0    0  0.19786674920E-01 -0.11539852922E+00  0.60124009725E-01  0.13326380928E+00  0.20880930749E-01 0.  0.
         14    1    1    2    0    0  0.70316093597E-02  0.21383738342E-01 -0.73541744137E-02  0.23681040453E-01  0.00000000000E+00 0. -1.
     999901    1    3    3    0    0 -0.26818284280E-01  0.94014790874E-01 -0.52769835311E-01  0.88698515027E+00  0.88000000000E+00 0.  1.
        -11    1    4    4    0    0  0.35758936927E-02 -0.22026026329E-02  0.38613390340E-03  0.42483755074E-02  0.51100000000E-03 0. -1.
         11    1    4    4    0    0  0.16210781227E-01 -0.11319592658E+00  0.59737875821E-01  0.12901543377E+00  0.51100000000E-03 0.  1.
</event>
<event>
 8    1  0.1191842E+005  0.1043930E+01  0.7957747E-01            NaN
         13   -1    0    0    0    0  0.00000000000E+00  0.00000000000E+00  0.74505805969E-08  0.10566000000E+00  0.10566000000E+00 0.  1.
     999900   -1    0    0    0    0 -0.00000000000E+00 -0.00000000000E+00 -0.74505805969E-08  0.93827000000E+00  0.93827000000E+00 0.  1.
     999902    2    1    2    0    0 -0.20710503659E-01 -0.85838065099E-02 -0.82899654060E-02  0.10200274850E+01  0.10197473903E+01 0.  0.
     999903    2    3    3    0    0 -0.75477522271E-01  0.10553872964E+00 -0.17510295030E-02  0.13094585926E+00  0.17563374647E-01 0.  0.
         14    1    1    2    0    0  0.20710503659E-01  0.85838065099E-02  0.82899654060E-02  0.23902514982E-01  0.00000000000E+00 0.  1.
     999901    1    3    3    0    0  0.54767018611E-01 -0.11412253615E+00 -0.65389359030E-02  0.88908162576E+00  0.88000000000E+00 0. -1.
        -11    1    4    4    0    0 -0.48061704176E-03  0.45943214969E-02  0.21689857874E-02  0.51287818342E-02  0.51100000000E-03 0. -1.
         11    1    4    4    0    0 -0.74996905229E-01  0.10094440815E+00 -0.39200152904E-02  0.12581707742E+00  0.51100000000E-03 0.  1.
</event>
<event>
 8    1  0.1191842E+005  0.1043930E+01  0.7957747E-01            NaN
         13   -1    0    0    0    0  0.00000000000E+00  0.00000000000E+00  0.74505805969E-08  0.10566000000E+00  0.10566000000E+00 0. -1.
     999900   -1    0    0    0    0 -0.00000000000E+00 -0.00000000000E+00 -0.74505805969E-08  0.93827000000E+00  0.93827000000E+00 0.  1.
     999902    2    1    2    0    0 -0.21237607347E-01 -0.44061692945E-02 -0.10066714344E-01  0.10200178894E+01  0.10197375671E+01 0.  0.
     999903    2    3    3    0    0 -0.76993747507E-01 -0.44417800911E-01 -0.97165155503E-01  0.13305914391E+00  0.19044425435E-01 0.  0.
         14    1    1    2    0    0  0.21237607347E-01  0.44061692945E-02  0.10066714344E-01  0.23912110559E-01  0.00000000000E+00 0.  1.
     999901    1    3    3    0    0  0.55756140160E-01  0.40011631616E-01  0.87098441158E-01  0.88695874554E+00  0.88000000000E+00 0. -1.
        -11    1    4    4    0    0 -0.43974044586E-01 -0.18567408537E-01 -0.62526937242E-01  0.78666029892E-01  0.51100000000E-03 0. -1.
         11    1    4    4    0    0 -0.33019702921E-01 -0.25850392374E-01 -0.34638218260E-01  0.54393114014E-01  0.51100000000E-03 0.  1.
</event>
<event>
 7    1  0.1509971E+005  0.1043930E+01  0.7957747E-01            NaN
         13   -1    0    0    0    0  0.00000000000E+00  0.00000000000E+00  0.74505805969E-08  0.10566000000E+00  0.10566000000E+00 0.  1.
     999900   -1    0    0    0    0 -0.00000000000E+00 -0.00000000000E+00 -0.74505805969E-08  0.93827000000E+00  0.93827000000E+00 0. -1.
     999903    2    1    2    0    0  0.84335179208E-02 -0.88889374589E-01  0.23514968866E-02  0.91685148140E-01  0.20692793736E-01 0.  0.
         14    1    1    2    0    0 -0.42503241628E-01  0.42002196009E-01 -0.35882226185E-01  0.69701105977E-01  0.00000000000E+00 0. -1.
     999901    1    1    2    0    0  0.34069723708E-01  0.46887178580E-01  0.33530729299E-01  0.88254374588E+00  0.88000000000E+00 0. -1.
        -11    1    3    3    0    0  0.12186443181E-01 -0.28676081761E-01 -0.17677766025E-02  0.31212388849E-01  0.51100000000E-03 0. -1.
         11    1    3    3    0    0 -0.37529252606E-02 -0.60213292828E-01  0.41192734891E-02  0.60472759291E-01  0.51100000000E-03 0.  1.
</event>
<event>
 8    1  0.1191842E+005  0.1043930E+01  0.7957747E-01            NaN
         13   -1    0    0    0    0  0.00000000000E+00  0.00000000000E+00  0.74505805969E-08  0.10566000000E+00  0.10566000000E+00 0. -1.
     999900   -1    0    0    0    0 -0.00000000000E+00 -0.00000000000E+00 -0.74505805969E-08  0.93827000000E+00  0.93827000000E+00 0.  1.
     999902    2    1    2    0    0  0.19124127327E-01 -0.12623713753E-01  0.70735613619E-02  0.10199482222E+01  0.10196662446E+01 0.  0.
     999903    2    3    3    0    0 -0.81754936604E-01 -0.95633349968E-01 -0.29886357234E-01  0.12953639569E+00  0.75416294758E-02 0.  0.
         14    1    1    2    0    0 -0.19124127327E-01  0.12623713753E-01 -0.70735613619E-02  0.23981777776E-01  0.00000000000E+00 0.  1.
     999901    1    3    3    0    0  0.10087906393E+00  0.83009636215E-01  0.36959918596E-01  0.89041182653E+00  0.88000000000E+00 0.  1.
        -11    1    4    4    0    0 -0.47382429961E-01 -0.54003882557E-01 -0.13377204867E-01  0.73080262255E-01  0.51100000000E-03 0. -1.
         11    1    4    4    0    0 -0.34372506643E-01 -0.41629467412E-01 -0.16509152367E-01  0.56456133438E-01  0.51100000000E-03 0.  1.
</event>
<event>
 8    1  0.1191842E+005  0.1043930E+01  0.7957747E-01            NaN
         13   -1    0    0    0    0  0.00000000000E+00  0.00000000000E+00  0.74505805969E-08  0.10566000000E+00  0.10566000000E+00 0.  1.
     999900   -1    0    0    0    0 -0.00000000000E+00 -0.00000000000E+00 -0.74505805969E-08  0.93827000000E+00  0.93827000000E+00 0.  1.
     999902    2    1    2    0    0 -0.18590704378E-01  0.79138013119E-02  0.11850471774E-01  0.10205061613E+01  0.10202373003E+01 0.  0.
     999903    2    3    3    0    0 -0.79400856221E-01  0.74074861535E-01 -0.71924422645E-01  0.13197175371E+00  0.21256531302E-01 0.  0.
         14    1    1    2    0    0  0.18590704378E-01 -0.79138013119E-02 -0.11850471774E-01  0.23423838750E-01  0.00000000000E+00 0.  1.
     999901    1    3    3    0    0  0.60810151843E-01 -0.66161060224E-01  0.83774894420E-01  0.88853440755E+00  0.88000000000E+00 0. -1.
        -11    1    4    4    0    0 -0.70427970631E-01  0.68437304501E-01 -0.71274147445E-01  0.12134260962E+00  0.51100000000E-03 0. -1.
         11    1    4    4    0    0 -0.89728855896E-02  0.56375570346E-02 -0.65027520016E-03  0.10629144084E-01  0.51100000000E-03 0.  1.
</event>
<event>
 8    1  0.1191842E+005  0.1043930E+01  0.7957747E-01            NaN
         13   -1    0    0    0    0  0.00000000000E+00  0.00000000000E+00  0.74505805969E-08  0.10566000000E+00  0.10566000000E+00 0.  1.
     999900   -1    0    0    0    0 -0.00000000000E+00 -0.00000000000E+00 -0.74505805969E-08  0.93827000000E+00  0.93827000000E+00 0. -1.
     999902    2    1    2    0    0  0.22374793929E-01 -0.58872656580E-05  0.73522246517E-02  0.10203782135E+01  0.10201063729E+01 0.  0.
     999903    2    3    3    0    0 -0.48567416769E-01  0.35236534763E-01 -0.11219029259E+00  0.12876998175E+00  0.19865525271E-01 0.  0.
         14    1    1    2    0    0 -0.22374793929E-01  0.58872656580E-05 -0.73522246517E-02  0.23551786458E-01  0.00000000000E+00 0.  1.
     999901    1    3    3    0    0  0.70942210698E-01 -0.35242422029E-01  0.11954251724E+00  0.89160823179E+00  0.88000000000E+00 0.  1.
        -11    1    4    4    0    0 -0.35155928641E-01  0.28240023060E-01 -0.98620571148E-01  0.10844222607E+00  0.51100000000E-03 0.  1.
         11    1    4    4    0    0 -0.13411488128E-01  0.69965117024E-02 -0.13569721444E-01  0.20327755677E-01  0.51100000000E-03 0. -1.
</event>
<event>
 8    1  0.1191842E+005  0.1043930E+01  0.7957747E-01            NaN
         13   -1    0    0    0    0  0.00000000000E+00  0.00000000000E+00  0.74505805969E-08  0.10566000000E+00  0.10566000000E+00 0.  1.
     999900   -1    0    0    0    0 -0.00000000000E+00 -0.00000000000E+00 -0.74505805969E-08  0.93827000000E+00  0.93827000000E+00 0. -1.
     999902    2    1    2    0    0 -0.24941419242E-01 -0.20103633311E-02  0.50575182164E-02  0.10184016933E+01  0.10180816836E+01 0.  0.
     999903    2    3    3    0    0 -0.59691001386E-02  0.12410284655E+00 -0.25307749010E-01  0.12869020067E+00  0.21989518191E-01 0.  0.
         14    1    1    2    0    0  0.24941419242E-01  0.20103633311E-02 -0.50575182164E-02  0.25528306740E-01  0.00000000000E+00 0. -1.
     999901    1    3    3    0    0 -0.18972319103E-01 -0.12611320988E+00  0.30365267227E-01  0.88971149259E+00  0.88000000000E+00 0.  1.
        -11    1    4    4    0    0 -0.47951843286E-02  0.68564030120E-02  0.12271482187E-02  0.84717807313E-02  0.51100000000E-03 0.  1.
         11    1    4    4    0    0 -0.11739158100E-02  0.11724644353E+00 -0.26534897229E-01  0.12021841994E+00  0.51100000000E-03 0. -1.
</event>
<event>
 8    1  0.1191842E+005  0.1043930E+01  0.7957747E-01            NaN
         13   -1    0    0    0    0  0.00000000000E+00  0.00000000000E+00  0.74505805969E-08  0.10566000000E+00  0.10566000000E+00 0. -1.
     999900   -1    0    0    0    0 -0.00000000000E+00 -0.00000000000E+00 -0.74505805969E-08  0.93827000000E+00  0.93827000000E+00 0.  1.
     999902    2    1    2    0    0 -0.11649561868E-01 -0.80652851960E-02  0.20256537074E-01  0.10192097975E+01  0.10189099680E+01 0.  0.
     999903    2    3    3    0    0  0.45275143661E-01  0.11451139102E+00  0.32501922484E-01  0.12880797074E+00  0.19298213742E-01 0.  0.
         14    1    1    2    0    0  0.11649561868E-01  0.80652851960E-02 -0.20256537074E-01  0.24720202492E-01  0.00000000000E+00 0. -1.
     999901    1    3    3    0    0 -0.56924705529E-01 -0.12257667622E+00 -0.12245385410E-01  0.89040182677E+00  0.88000000000E+00 0.  1.
        -11    1    4    4    0    0  0.31568569690E-01  0.69485223861E-01  0.11185797616E-01  0.77137242086E-01  0.51100000000E-03 0. -1.
         11    1    4    4    0    0  0.13706573970E-01  0.45026167159E-01  0.21316124868E-01  0.51670728652E-01  0.51100000000E-03 0.  1.
</event>
<event>
 8    1  0.1191842E+005  0.1043930E+01  0.7957747E-01            NaN
         13   -1    0    0    0    0  0.00000000000E+00  0.00000000000E+00  0.74505805969E-08  0.10566000000E+00  0.10566000000E+00 0.  1.
     999900   -1    0    0    0    0 -0.00000000000E+00 -0.00000000000E+00 -0.74505805969E-08  0.93827000000E+00  0.93827000000E+00 0.  1.
     999902    2    1    2    0    0  0.67562974708E-02 -0.16215793237E-01 -0.16173376487E-01  0.10200516078E+01  0.10197720848E+01 0.  0.
     999903    2    3    3    0    0  0.84497495415E-01 -0.36872808100E-01 -0.93797167227E-01  0.13298010056E+00  0.19656242150E-01 0.  0.
         14    1    1    2    0    0 -0.67562974708E-02  0.16215793237E-01  0.16173376487E-01  0.23878392174E-01  0.00000000000E+00 0.  1.
     999901    1    3    3    0    0 -0.77741197944E-01  0.20657014863E-01  0.77623790741E-01  0.88707150727E+00  0.88000000000E+00 0. -1.
        -11    1    4    4    0    0  0.35966707743E-01 -0.24976619003E-01 -0.50684713028E-01  0.66982361995E-01  0.51100000000E-03 0.  1.
         11    1    4    4    0    0  0.48530787673E-01 -0.11896189098E-01 -0.43112454199E-01  0.65997738561E-01  0.51100000000E-03 0. -1.
</event>
<event>
 8    1  0.1191842E+005  0.1043930E+01  0.7957747E-01            NaN
         13   -1    0    0    0    0  0.00000000000E+00  0.00000000000E+00  0.74505805969E-08  0.10566000000E+00  0.10566000000E+00 0.  1.
     999900   -1    0    0    0    0 -0.00000000000E+00 -0.00000000000E+00 -0.74505805969E-08  0.93827000000E+00  0.93827000000E+00 0. -1.
     999902    2    1    2    0    0 -0.17898131919E-01  0.30763815337E-02  0.14558090208E-01  0.10206545786E+01  0.10203891530E+01 0.  0.
     999903    2    3    3    0    0 -0.93994705783E-02  0.67759216403E-01  0.11212789277E+00  0.13286183100E+00  0.19998508546E-01 0.  0.
         14    1    1    2    0    0  0.17898131919E-01 -0.30763815337E-02 -0.14558090208E-01  0.23275421372E-01  0.00000000000E+00 0.  1.
     999901    1    3    3    0    0 -0.84986613406E-02 -0.64682834870E-01 -0.97569802564E-01  0.88779274763E+00  0.88000000000E+00 0. -1.
        -11    1    4    4    0    0 -0.64181471175E-02  0.18877590885E-01  0.49435423502E-01  0.53307394121E-01  0.51100000000E-03 0.  1.
         11    1    4    4    0    0 -0.29813234608E-02  0.48881625518E-01  0.62692469270E-01  0.79554436878E-01  0.51100000000E-03 0. -1.
</event>
<event>
 8    1  0.1191842E+005  0.1043930E+01  0.7957747E-01            NaN
         13   -1    0    0    0    0  0.00000000000E+00  0.00000000000E+00  0.74505805969E-08  0.10566000000E+00  0.10566000000E+00 0. -1.
     999900   -1    0    0    0    0 -0.00000000000E+00 -0.00000000000E+00 -0.74505805969E-08  0.93827000000E+00  0.93827000000E+00 0.  1.
     999902    2    1    2    0    0 -0.14337079906E-01  0.14018048493E-01  0.11191950472E-01  0.10209666096E+01  0.10207083328E+01 0.  0.
     999903    2    3    3    0    0 -0.46237271922E-02 -0.79030631841E-01  0.10279768181E+00  0.13127901490E+00  0.19989916084E-01 0.  0.
         14    1    1    2    0    0  0.14337079906E-01 -0.14018048493E-01 -0.11191950472E-01  0.22963390410E-01  0.00000000000E+00 0. -1.
     999901    1    3    3    0    0 -0.97133527137E-02  0.93048680334E-01 -0.91605731338E-01  0.88968759469E+00  0.88000000000E+00 0.  1.
        -11    1    4    4    0    0  0.25463471346E-02 -0.42113341033E-01  0.68077536593E-01  0.80092630661E-01  0.51100000000E-03 0. -1.
         11    1    4    4    0    0 -0.71700743268E-02 -0.36917290808E-01  0.34720145217E-01  0.51186384238E-01  0.51100000000E-03 0.  1.
</event>
<event>
 8    1  0.1191842E+005  0.1043930E+01  0.7957747E-01            NaN
         13   -1    0    0    0    0  0.00000000000E+00  0.00000000000E+00  0.74505805969E-08  0.10566000000E+00  0.10566000000E+00 0. -1.
     999900   -1    0    0    0    0 -0.00000000000E+00 -0.00000000000E+00 -0.74505805969E-08  0.93827000000E+00  0.93827000000E+00 0.  1.
     999902    2    1    2    0    0  0.21520449743E-01 -0.94837564883E-02  0.55193133138E-02  0.10197735472E+01  0.10194873973E+01 0.  0.
     999903    2    3    3    0    0  0.10701916581E+00  0.35441844684E-01 -0.65037487950E-01  0.13168199653E+00  0.20026162046E-01 0.  0.
         14    1    1    2    0    0 -0.21520449743E-01  0.94837564883E-02 -0.55193133138E-02  0.24156452838E-01  0.00000000000E+00 0. -1.
     999901    1    3    3    0    0 -0.85498716072E-01 -0.44925601172E-01  0.70556801263E-01  0.88809155063E+00  0.88000000000E+00 0. -1.
        -11    1    4    4    0    0  0.65618623754E-01  0.11365753357E-01 -0.38575353165E-01  0.76962998418E-01  0.51100000000E-03 0.  1.
         11    1    4    4    0    0  0.41400542061E-01  0.24076091327E-01 -0.26462134785E-01  0.54718998117E-01  0.51100000000E-03 0. -1.
</event>
<event>
 8    1  0.1191842E+005  0.1043930E+01  0.7957747E-01            NaN
         13   -1    0    0    0    0  0.00000000000E+00  0.00000000000E+00  0.74505805969E-08  0.10566000000E+00  0.10566000000E+00 0. -1.
     999900   -1    0    0    0    0 -0.00000000000E+00 -0.00000000000E+00 -0.74505805969E-08  0.93827000000E+00  0.93827000000E+00 0.  1.
     999902    2    1    2    0    0  0.11978552067E-01 -0.14715573013E-01  0.88268871733E-02  0.10230027991E+01  0.10227887266E+01 0.  0.
     999903    2    3    3    0    0 -0.35817809792E-02 -0.13337736697E+00  0.61162323313E-03  0.13486416364E+00  0.19637142785E-01 0.  0.
         14    1    1    2    0    0 -0.11978552067E-01  0.14715573013E-01 -0.88268871733E-02  0.20927200861E-01  0.00000000000E+00 0.  1.
     999901    1    3    3    0    0  0.15560333046E-01  0.11866179395E+00  0.82152639402E-02  0.88813863550E+00  0.88000000000E+00 0. -1.
        -11    1    4    4    0    0 -0.10725878940E-01 -0.48159529554E-01 -0.15963345144E-03  0.49342389177E-01  0.51100000000E-03 0. -1.
         11    1    4    4    0    0  0.71440979607E-02 -0.85217837412E-01  0.77125668457E-03  0.85521774460E-01  0.51100000000E-03 0.  1.
</event>
<event>
 8    1  0.1191842E+005  0.1043930E+01  0.7957747E-01            NaN
         13   -1    0    0    0    0  0.00000000000E+00  0.00000000000E+00  0.74505805969E-08  0.10566000000E+00  0.10566000000E+00 0.  1.
     999900   -1    0    0    0    0 -0.00000000000E+00 -0.00000000000E+00 -0.74505805969E-08  0.93827000000E+00  0.93827000000E+00 0.  1.
     999902    2    1    2    0    0 -0.21446986750E-01 -0.92717862743E-02  0.31554335165E-02  0.10203525527E+01  0.10200801124E+01 0.  0.
     999903    2    3    3    0    0 -0.11030182692E+00 -0.71908912976E-01  0.10509617214E-01  0.13363237344E+00  0.20242884903E-01 0.  0.
         14    1    1    2    0    0  0.21446986750E-01  0.92717862743E-02 -0.31554335165E-02  0.23577447318E-01  0.00000000000E+00 0.  1.
     999901    1    3    3    0    0  0.88854840169E-01  0.62637126702E-01 -0.73541836974E-02  0.88672017925E+00  0.88000000000E+00 0.  1.
        -11    1    4    4    0    0 -0.16769648121E-01 -0.19571393202E-01 -0.12479568618E-02  0.25808507266E-01  0.51100000000E-03 0.  1.
         11    1    4    4    0    0 -0.93532178798E-01 -0.52337519774E-01  0.11757574076E-01  0.10782386617E+00  0.51100000000E-03 0. -1.
</event>
<event>
 8    1  0.1191842E+005  0.1043930E+01  0.7957747E-01            NaN
         13   -1    0    0    0    0  0.00000000000E+00  0.00000000000E+00  0.74505805969E-08  0.10566000000E+00  0.10566000000E+00 0.  1.
     999900   -1    0    0    0    0 -0.00000000000E+00 -0.00000000000E+00 -0.74505805969E-08  0.93827000000E+00  0.93827000000E+00 0. -1.
     999902    2    1    2    0    0 -0.60584010177E-03  0.23646964216E-02  0.23974159323E-01  0.10198318850E+01  0.10195471321E+01 0.  0.
     999903    2    3    3    0    0  0.94512333625E-01 -0.24864602825E-01  0.86444500330E-01  0.13208673845E+00  0.20577297120E-01 0.  0.
         14    1    1    2    0    0  0.60584010177E-03 -0.23646964216E-02 -0.23974159323E-01  0.24098115002E-01  0.00000000000E+00 0. -1.
     999901    1    3    3    0    0 -0.95118173727E-01  0.27229299247E-01 -0.62470341007E-01  0.88774514655E+00  0.88000000000E+00 0. -1.
        -11    1    4    4    0    0  0.16186540309E-01 -0.80507703704E-02  0.26266104746E-01  0.31890255098E-01  0.51100000000E-03 0.  1.
         11    1    4    4    0    0  0.78325793316E-01 -0.16813832455E-01  0.60178395584E-01  0.10019648335E+00  0.51100000000E-03 0. -1.
</event>
<event>
 8    1  0.1191842E+005  0.1043930E+01  0.7957747E-01            NaN
         13   -1    0    0    0    0  0.00000000000E+00  0.00000000000E+00  0.74505805969E-08  0.10566000000E+00  0.10566000000E+00 0. -1.
     999900   -1    0    0    0    0 -0.00000000000E+00 -0.00000000000E+00 -0.74505805969E-08  0.93827000000E+00  0.93827000000E+00 0.  1.
     999902    2    1    2    0    0 -0.21066806234E-01 -0.19177365247E-02  0.93575304943E-02  0.10207988216E+01  0.10205367131E+01 0.  0.
     999903    2    3    3    0    0 -0.83178114856E-01 -0.21576335846E-01  0.10040494730E+00  0.13370586856E+00  0.20297014227E-01 0.  0.
         14    1    1    2    0    0  0.21066806234E-01  0.19177365247E-02 -0.93575304943E-02  0.23131178423E-01  0.00000000000E+00 0. -1.
     999901    1    3    3    0    0  0.62111308622E-01  0.19658599322E-01 -0.91047416802E-01  0.88709295302E+00  0.88000000000E+00 0.  1.
        -11    1    4    4    0    0 -0.36497302704E-01 -0.17510256458E-01  0.56378897083E-01  0.69408236854E-01  0.51100000000E-03 0. -1.
         11    1    4    4    0    0 -0.46680812151E-01 -0.40660793889E-02  0.44026050213E-01  0.64297631707E-01  0.51100000000E-03 0.  1.
</event>
<event>
 8    1  0.1191842E+005  0.1043930E+01  0.7957747E-01            NaN
         13   -1    0    0    0    0  0.00000000000E+00  0.00000000000E+00  0.74505805969E-08  0.10566000000E+00  0.10566000000E+00 0. -1.
     999900   -1    0    0    0    0 -0.00000000000E+00 -0.00000000000E+00 -0.74505805969E-08  0.93827000000E+00  0.93827000000E+00 0. -1.
     999902    2    1    2    0    0  0.15032974858E-02  0.31687794770E-03 -0.25522734835E-01  0.10183610675E+01  0.10180400255E+01 0.  0.
     999903    2    3    3    0    0 -0.88950951666E-01  0.90425714790E-01 -0.12903969004E-01  0.12905751590E+00  0.20006206446E-01 0.  0.
         14    1    1    2    0    0 -0.15032974858E-02 -0.31687794770E-03  0.25522734835E-01  0.25568932485E-01  0.00000000000E+00 0. -1.
     999901    1    3    3    0    0  0.90454249151E-01 -0.90108836842E-01 -0.12618765831E-01  0.88930355162E+00  0.88000000000E+00 0. -1.
        -11    1    4    4    0    0 -0.46498985989E-01  0.61142683599E-01 -0.88186182021E-02  0.77321488628E-01  0.51100000000E-03 0. -1.
         11    1    4    4    0    0 -0.42451965676E-01  0.29283031191E-01 -0.40853508020E-02  0.51736027270E-01  0.51100000000E-03 0.  1.
</event>
<event>
 8    1  0.1191842E+005  0.1043930E+01  0.7957747E-01            NaN
         13   -1    0    0    0    0  0.00000000000E+00  0.00000000000E+00  0.74505805969E-08  0.10566000000E+00  0.10566000000E+00 0.  1.
     999900   -1    0    0    0    0 -0.00000000000E+00 -0.00000000000E+00 -0.74505805969E-08  0.93827000000E+00  0.93827000000E+00 0. -1.
     999902    2    1    2    0    0 -0.12129714353E-01  0.20513964203E-01 -0.48597451088E-02  0.10196077916E+01  0.10193176536E+01 0.  0.
     999903    2    3    3    0    0 -0.96947868794E-01 -0.41002497705E-01  0.73329023408E-01  0.12994949884E+00  0.20727578059E-01 0.  0.
         14    1    1    2    0    0  0.12129714353E-01 -0.20513964203E-01  0.48597451088E-02  0.24322208373E-01  0.00000000000E+00 0. -1.
     999901    1    3    3    0    0  0.84818154440E-01  0.61516461908E-01 -0.78188768517E-01  0.88965829279E+00  0.88000000000E+00 0. -1.
        -11    1    4    4    0    0 -0.69206452349E-01 -0.32056719671E-01  0.41670064739E-01  0.86912724840E-01  0.51100000000E-03 0. -1.
         11    1    4    4    0    0 -0.27741416445E-01 -0.89457780341E-02  0.31658958669E-01  0.43036773997E-01  0.51100000000E-03 0.  1.
</event>
<event>
 8    1  0.1191842E+005  0.1043930E+01  0.7957747E-01            NaN
         13   -1    0    0    0    0  0.00000000000E+00  0.00000000000E+00  0.74505805969E-08  0.10566000000E+00  0.10566000000E+00 0. -1.
     999900   -1    0    0    0    0 -0.00000000000E+00 -0.00000000000E+00 -0.74505805969E-08  0.93827000000E+00  0.93827000000E+00 0.  1.
     999902    2    1    2    0    0  0.17392523138E-01 -0.92838120549E-02 -0.13688241319E-01  0.10199288130E+01  0.10196463733E+01 0.  0.
     999903    2    3    3    0    0  0.26381039760E-01  0.11491046629E+00  0.48330214566E-01  0.12900159875E+00  0.20130283593E-01 0.  0.
         14    1    1    2    0    0 -0.17392523138E-01  0.92838120549E-02  0.13688241319E-01  0.24001187007E-01  0.00000000000E+00 0. -1.
     999901    1    3    3    0    0 -0.89885166224E-02 -0.12419427835E+00 -0.62018455885E-01  0.89092721424E+00  0.88000000000E+00 0.  1.
        -11    1    4    4    0    0  0.26497788534E-01  0.97560021615E-01  0.47296946947E-01  0.11161251241E+00  0.51100000000E-03 0.  1.
         11    1    4    4    0    0 -0.11674877417E-03  0.17350444679E-01  0.10332676193E-02  0.17389086342E-01  0.51100000000E-03 0. -1.
</event>
<event>
 8    1  0.1191842E+005  0.1043930E+01  0.7957747E-01            NaN
         13   -1    0    0    0    0  0.00000000000E+00  0.00000000000E+00  0.74505805969E-08  0.10566000000E+00  0.10566000000E+00 0.  1.
     999900   -1    0    0    0    0 -0.00000000000E+00 -0.00000000000E+00 -0.74505805969E-08  0.93827000000E+00  0.93827000000E+00 0.  1.
     999902    2    1    2    0    0  0.41974733067E-02  0.15794933975E-01 -0.17126846453E-01  0.10202566481E+01  0.10199819608E+01 0.  0.
     999903    2    3    3    0    0  0.11790579951E+00  0.51206490626E-01 -0.22472910770E-01  0.13221828056E+00  0.21278152052E-01 0.  0.
         14    1    1    2    0    0 -0.41974733067E-02 -0.15794933975E-01  0.17126846453E-01  0.23673351914E-01  0.00000000000E+00 0.  1.
     999901    1    3    3    0    0 -0.11370832621E+00 -0.35411556652E-01  0.53460643169E-02  0.88803836753E+00  0.88000000000E+00 0. -1.
        -11    1    4    4    0    0  0.84643212119E-01  0.34228580018E-01 -0.63064377849E-02  0.91521043079E-01  0.51100000000E-03 0.  1.
         11    1    4    4    0    0  0.33262587395E-01  0.16977910608E-01 -0.16166472985E-01  0.40697237481E-01  0.51100000000E-03 0. -1.
</event>
<event>
 8    1  0.1191842E+005  0.1043930E+01  0.7957747E-01            NaN
         13   -1    0    0    0    0  0.00000000000E+00  0.00000000000E+00  0.74505805969E-08  0.10566000000E+00  0.10566000000E+00 0. -1.
     999900   -1    0    0    0    0 -0.00000000000E+00 -0.00000000000E+00 -0.74505805969E-08  0.93827000000E+00  0.93827000000E+00 0.  1.
     999902    2    1    2    0    0  0.56696902897E-02  0.75646113074E-02 -0.18631427792E-01  0.10230374455E+01  0.10228240885E+01 0.  0.
     999903    2    3    3    0    0  0.41599498771E-01 -0.29466934981E-01  0.11868494588E+00  0.13089503924E+00  0.21179621452E-01 0.  0.
         14    1    1    2    0    0 -0.56696902897E-02 -0.75646113074E-02  0.18631427792E-01  0.20892554506E-01  0.00000000000E+00 0. -1.
     999901    1    3    3    0    0 -0.35929808482E-01  0.37031546289E-01 -0.13731637367E+00  0.89214240625E+00  0.88000000000E+00 0.  1.
        -11    1    4    4    0    0  0.27381701644E-02  0.31225458267E-02  0.13245043769E-01  0.13890290628E-01  0.51100000000E-03 0.  1.
         11    1    4    4    0    0  0.38861328607E-01 -0.32589480808E-01  0.10543990211E+00  0.11700474861E+00  0.51100000000E-03 0. -1.
</event>
<event>
 8    1  0.1191842E+005  0.1043930E+01  0.7957747E-01            NaN
         13   -1    0    0    0    0  0.00000000000E+00  0.00000000000E+00  0.74505805969E-08  0.10566000000E+00  0.10566000000E+00 0. -1.
     999900   -1    0    0    0    0 -0.00000000000E+00 -0.00000000000E+00 -0.74505805969E-08  0.93827000000E+00  0.93827000000E+00 0. -1.
     999902    2    1    2    0    0  0.15338074515E-02 -0.23018779784E-01 -0.74234176961E-02  0.10196952333E+01  0.10194072027E+01 0.  0.
     999903    2    3    3    0    0 -0.89159156271E-01 -0.95141111332E-01 -0.19870158213E-01  0.13201186307E+00  0.55787626429E-02 0.  0.
         14    1    1    2    0    0 -0.15338074515E-02  0.23018779784E-01  0.74234176961E-02  0.24234766728E-01  0.00000000000E+00 0.  1.
     999901    1    3    3    0    0  0.90692963722E-01  0.72122331547E-01  0.12446740517E-01  0.88768337020E+00  0.88000000000E+00 0. -1.
        -11    1    4    4    0    0 -0.79857495304E-01 -0.83103442925E-01 -0.16612177042E-01  0.11644581285E+00  0.51100000000E-03 0.  1.
         11    1    4    4    0    0 -0.93016609663E-02 -0.12037668407E-01 -0.32579811715E-02  0.15566050229E-01  0.51100000000E-03 0. -1.
</event>
<event>
 8    1  0.1191842E+005  0.1043930E+01  0.7957747E-01            NaN
         13   -1    0    0    0    0  0.00000000000E+00  0.00000000000E+00  0.74505805969E-08  0.10566000000E+00  0.10566000000E+00 0.  1.
     999900   -1    0    0    0    0 -0.00000000000E+00 -0.00000000000E+00 -0.74505805969E-08  0.93827000000E+00  0.93827000000E+00 0. -1.
     999902    2    1    2    0    0 -0.18892975240E-01 -0.23950119280E-02 -0.13416582410E-01  0.10206343936E+01  0.10203685021E+01 0.  0.
     999903    2    3    3    0    0  0.10823420647E+00 -0.41515018312E-01  0.50935235183E-01  0.12831558750E+00  0.20793066538E-01 0.  0.
         14    1    1    2    0    0  0.18892975240E-01  0.23950119280E-02  0.13416582410E-01  0.23295606434E-01  0.00000000000E+00 0.  1.
     999901    1    3    3    0    0 -0.12712718171E+00  0.39120006384E-01 -0.64351817594E-01  0.89231880607E+00  0.88000000000E+00 0.  1.
        -11    1    4    4    0    0  0.42493287648E-01 -0.64255461377E-02  0.14460047967E-01  0.45346678450E-01  0.51100000000E-03 0. -1.
         11    1    4    4    0    0  0.65740918826E-01 -0.35089472174E-01  0.36475187216E-01  0.82968909050E-01  0.51100000000E-03 0.  1.
</event>
<event>
 8    1  0.1191842E+005  0.1043930E+01  0.7957747E-01            NaN
         13   -1    0    0    0    0  0.00000000000E+00  0.00000000000E+00  0.74505805969E-08  0.10566000000E+00  0.10566000000E+00 0.  1.
     999900   -1    0    0    0    0 -0.00000000000E+00 -0.00000000000E+00 -0.74505805969E-08  0.93827000000E+00  0.93827000000E+00 0.  1.
     999902    2    1    2    0    0 -0.35350655633E-02  0.21650742642E-01 -0.70724120441E-02  0.10208806972E+01  0.10206204621E+01 0.  0.
     999903    2    3    3    0    0  0.10969412148E+00 -0.14524509466E-01 -0.66998155640E-01  0.13086912855E+00  0.19854830248E-01 0.  0.
         14    1    1    2    0    0  0.35350655633E-02 -0.21650742642E-01  0.70724120441E-02  0.23049302757E-01  0.00000000000E+00 0.  1.
     999901    1    3    3    0    0 -0.11322918705E+00  0.36175252108E-01  0.59925743596E-01  0.89001156869E+00  0.88000000000E+00 0. -1.
        -11    1    4    4    0    0  0.50736641499E-01 -0.16656679437E-02 -0.40588926538E-01  0.64997717797E-01  0.51100000000E-03 0. -1.
         11    1    4    4    0    0  0.58957479986E-01 -0.12858841523E-01 -0.26409229103E-01  0.65871410751E-01  0.51100000000E-03 0.  1.
</event>
<event>
 8    1  0.1191842E+005  0.1043930E+01  0.7957747E-01            NaN
         13   -1    0    0    0    0  0.00000000000E+00  0.00000000000E+00  0.74505805969E-08  0.10566000000E+00  0.10566000000E+00 0.  1.
     999900   -1    0    0    0    0 -0.00000000000E+00 -0.00000000000E+00 -0.74505805969E-08  0.93827000000E+00  0.93827000000E+00 0.  1.
     999902    2    1    2    0    0 -0.37289622734E-02  0.22228366927E-01 -0.85102645043E-02  0.10198378839E+01  0.10195532744E+01 0.  0.
     999903    2    3    3    0    0  0.14398976223E-01 -0.72523113079E-01  0.10209285189E+00  0.12768346091E+00  0.20326911604E-01 0.  0.
         14    1    1    2    0    0  0.37289622734E-02 -0.22228366927E-01  0.85102645043E-02  0.24092116093E-01  0.00000000000E+00 0.  1.
     999901    1    3    3    0    0 -0.18127938496E-01  0.94751480006E-01 -0.11060311640E+00  0.89215442300E+00  0.88000000000E+00 0.  1.
        -11    1    4    4    0    0  0.12740545341E-01 -0.32858169078E-01  0.61621606879E-01  0.70989184571E-01  0.51100000000E-03 0.  1.
         11    1    4    4    0    0  0.16584308819E-02 -0.39664944001E-01  0.40471245014E-01  0.56694276339E-01  0.51100000000E-03 0. -1.
</event>
<event>
 8    1  0.1191842E+005  0.1043930E+01  0.7957747E-01            NaN
         13   -1    0    0    0    0  0.00000000000E+00  0.00000000000E+00  0.74505805969E-08  0.10566000000E+00  0.10566000000E+00 0. -1.
     999900   -1    0    0    0    0 -0.00000000000E+00 -0.00000000000E+00 -0.74505805969E-08  0.93827000000E+00  0.93827000000E+00 0. -1.
     999902    2    1    2    0    0 -0.76984480348E-02 -0.15416863042E-01  0.13136372073E-01  0.10222618197E+01  0.10220321511E+01 0.  0.
     999903    2    3    3    0    0  0.12615124672E+00 -0.24886589080E-01 -0.18915125242E-01  0.13151341804E+00  0.20112627833E-01 0.  0.
         14    1    1    2    0    0  0.76984480348E-02  0.15416863042E-01 -0.13136372073E-01  0.21668180344E-01  0.00000000000E+00 0.  1.
     999901    1    3    3    0    0 -0.13384969475E+00  0.94697260380E-02  0.32051497314E-01  0.89074840161E+00  0.88000000000E+00 0. -1.
        -11    1    4    4    0    0  0.62209872528E-01 -0.11696030204E-01 -0.19446378272E-01  0.66221507922E-01  0.51100000000E-03 0. -1.
         11    1    4    4    0    0  0.63941374188E-01 -0.13190558876E-01  0.53125303071E-03  0.65291910121E-01  0.51100000000E-03 0.  1.
</event>
<event>
 8    1  0.1191842E+005  0.1043930E+01  0.7957747E-01            NaN
         13   -1    0    0    0    0  0.00000000000E+00  0.00000000000E+00  0.74505805969E-08  0.10566000000E+00  0.10566000000E+00 0.  1.
     999900   -1    0    0    0    0 -0.00000000000E+00 -0.00000000000E+00 -0.74505805969E-08  0.93827000000E+00  0.93827000000E+00 0. -1.
     999902    2    1    2    0    0  0.22404045885E-01 -0.71252461777E-02  0.58900381235E-02  0.10196936027E+01  0.10194055329E+01 0.  0.
     999903    2    3    3    0    0 -0.18202429733E-01 -0.61030306583E-01  0.11240769273E+00  0.13070504701E+00  0.19806391863E-01 0.  0.
         14    1    1    2    0    0 -0.22404045885E-01  0.71252461777E-02 -0.58900381235E-02  0.24236397302E-01  0.00000000000E+00 0. -1.
     999901    1    3    3    0    0  0.40606475618E-01  0.53905060406E-01 -0.10651765461E+00  0.88898855569E+00  0.88000000000E+00 0. -1.
        -11    1    4    4    0    0 -0.46142313478E-02 -0.39399228358E-01  0.81194495873E-01  0.90368122738E-01  0.51100000000E-03 0. -1.
         11    1    4    4    0    0 -0.13588198385E-01 -0.21631078225E-01  0.31213196860E-01  0.40336924272E-01  0.51100000000E-03 0.  1.
</event>
<event>
 8    1  0.1191842E+005  0.1043930E+01  0.7957747E-01            NaN
         13   -1    0    0    0    0  0.00000000000E+00  0.00000000000E+00  0.74505805969E-08  0.10566000000E+00  0.10566000000E+00 0. -1.
     999900   -1    0    0    0    0 -0.00000000000E+00 -0.00000000000E+00 -0.74505805969E-08  0.93827000000E+00  0.93827000000E+00 0.  1.
     999902    2    1    2    0    0 -0.79510882656E-02  0.11411443525E-01 -0.18991556264E-01  0.10203902452E+01  0.10201186854E+01 0.  0.
     999903    2    3    3    0    0 -0.37887547165E-01 -0.12010307339E+00  0.25004197593E-01  0.12902730782E+00  0.12752325194E-01 0.  0.
         14    1    1    2    0    0  0.79510882656E-02 -0.11411443525E-01  0.18991556264E-01  0.23539754826E-01  0.00000000000E+00 0. -1.
     999901    1    3    3    0    0  0.29936458900E-01  0.13151451692E+00 -0.43995753857E-01  0.89136293735E+00  0.88000000000E+00 0.  1.
        -11    1    4    4    0    0 -0.15204318988E-01 -0.44514989175E-01  0.15534715816E-01  0.49541337221E-01  0.51100000000E-03 0. -1.
         11    1    4    4    0    0 -0.22683228177E-01 -0.75588084216E-01  0.94694817773E-02  0.79485970599E-01  0.51100000000E-03 0.  1.
</event>
<event>
 8    1  0.1191842E+005  0.1043930E+01  0.7957747E-01            NaN
         13   -1    0    0    0    0  0.00000000000E+00  0.00000000000E+00  0.74505805969E-08  0.10566000000E+00  0.10566000000E+00 0. -1.
     999900   -1    0    0    0    0 -0.00000000000E+00 -0.00000000000E+00 -0.74505805969E-08  0.93827000000E+00  0.93827000000E+00 0.  1.
     999902    2    1    2    0    0 -0.22449321342E-01 -0.94124895132E-03 -0.10633905558E-01  0.10190716427E+01  0.10187684109E+01 0.  0.
     999903    2    3    3    0    0  0.91121061876E-01 -0.25370821544E-01  0.81855966412E-01  0.12663149776E+00  0.19708132416E-01 0.  0.
         14    1    1    2    0    0  0.22449321342E-01  0.94124895132E-03  0.10633905558E-01  0.24858357261E-01  0.00000000000E+00 0.  1.
     999901    1    3    3    0    0 -0.11357038322E+00  0.24429572592E-01 -0.92489871970E-01  0.89244014498E+00  0.88000000000E+00 0.  1.
        -11    1    4    4    0    0  0.52382093643E-01 -0.22475429279E-01  0.40743170170E-01  0.70066366341E-01  0.51100000000E-03 0.  1.
         11    1    4    4    0    0  0.38738968233E-01 -0.28953922649E-02  0.41112796242E-01  0.56565131414E-01  0.51100000000E-03 0. -1.
</event>
<event>
 8    1  0.1191842E+005  0.1043930E+01  0.7957747E-01            NaN
         13   -1    0    0    0    0  0.00000000000E+00  0.00000000000E+00  0.74505805969E-08  0.10566000000E+00  0.10566000000E+00 0.  1.
     999900   -1    0    0    0    0 -0.00000000000E+00 -0.00000000000E+00 -0.74505805969E-08  0.93827000000E+00  0.93827000000E+00 0. -1.
     999902    2    1    2    0    0 -0.23614841610E-01 -0.21081160677E-03 -0.43481431933E-02  0.10199172631E+01  0.10196345482E+01 0.  0.
     999903    2    3    3    0    0 -0.13180749058E+00  0.11443313514E-02 -0.65791220477E-03  0.13328255615E+00  0.19730252386E-01 0.  0.
         14    1    1    2    0    0  0.23614841610E-01  0.21081160677E-03  0.43481431933E-02  0.24012736933E-01  0.00000000000E+00 0.  1.
     999901    1    3    3    0    0  0.10819264897E+00 -0.13551429581E-02 -0.36902309885E-02  0.88663470692E+00  0.88000000000E+00 0. -1.
        -11    1    4    4    0    0 -0.10426964030E+00  0.79554571806E-02  0.33559298717E-02  0.10462777153E+00  0.51100000000E-03 0.  1.
         11    1    4    4    0    0 -0.27537850274E-01 -0.68111258292E-02 -0.40138420765E-02  0.28654784626E-01  0.51100000000E-03 0. -1.
</event>
<event>
 8    1  0.1191842E+005  0.1043930E+01  0.7957747E-01            NaN
         13   -1    0    0    0    0  0.00000000000E+00  0.00000000000E+00  0.74505805969E-08  0.10566000000E+00  0.10566000000E+00 0.  1.
     999900   -1    0    0    0    0 -0.00000000000E+00 -0.00000000000E+00 -0.74505805969E-08  0.93827000000E+00  0.93827000000E+00 0. -1.
     999902    2    1    2    0    0 -0.81035824815E-02  0.19828352400E-01 -0.10087143152E-01  0.10202533857E+01  0.10199786218E+01 0.  0.
     999903    2    3    3    0    0 -0.65715938015E-02  0.13110693568E+00 -0.12510305324E-01  0.13324090450E+00  0.19089695195E-01 0.  0.
         14    1    1    2    0    0  0.81035824815E-02 -0.19828352400E-01  0.10087143152E-01  0.23676614304E-01  0.00000000000E+00 0.  1.
     999901    1    3    3    0    0 -0.15319886800E-02 -0.11127858328E+00  0.24231621722E-02  0.88701248120E+00  0.88000000000E+00 0.  1.
        -11    1    4    4    0    0  0.52762428512E-02  0.77298144314E-01 -0.94809463281E-02  0.78057615370E-01  0.51100000000E-03 0. -1.
         11    1    4    4    0    0 -0.11847836653E-01  0.53808791370E-01 -0.30293589960E-02  0.55183289128E-01  0.51100000000E-03 0.  1.
</event>
<event>
 8    1  0.1191842E+005  0.1043930E+01  0.7957747E-01            NaN
         13   -1    0    0    0    0  0.00000000000E+00  0.00000000000E+00  0.74505805969E-08  0.10566000000E+00  0.10566000000E+00 0. -1.
     999900   -1    0    0    0    0 -0.00000000000E+00 -0.00000000000E+00 -0.74505805969E-08  0.93827000000E+00  0.93827000000E+00 0. -1.
     999902    2    1    2    0    0 -0.22875652692E-01 -0.73335192543E-02 -0.76939973202E-03  0.10198952758E+01  0.10196120368E+01 0.  0.
     999903    2    3    3    0    0 -0.70458775741E-01  0.81789086796E-01  0.71399204860E-01  0.13117974203E+00  0.21363156733E-01 0.  0.
         14    1    1    2    0    0  0.22875652692E-01  0.73335192543E-02  0.76939973202E-03  0.24034724185E-01  0.00000000000E+00 0. -1.
     999901    1    3    3    0    0  0.47583123049E-01 -0.89122606051E-01 -0.72168604592E-01  0.88871553379E+00  0.88000000000E+00 0.  1.
        -11    1    4    4    0    0 -0.43533376814E-01  0.46779805258E-01  0.54152487200E-01  0.83763106842E-01  0.51100000000E-03 0. -1.
         11    1    4    4    0    0 -0.26925398926E-01  0.35009281539E-01  0.17246717660E-01  0.47416635184E-01  0.51100000000E-03 0.  1.
</event>
<event>
 8    1  0.1191842E+005  0.1043930E+01  0.7957747E-01            NaN
         13   -1    0    0    0    0  0.00000000000E+00  0.00000000000E+00  0.74505805969E-08  0.10566000000E+00  0.10566000000E+00 0. -1.
     999900   -1    0    0    0    0 -0.00000000000E+00 -0.00000000000E+00 -0.74505805969E-08  0.93827000000E+00  0.93827000000E+00 0.  1.
     999902    2    1    2    0    0 -0.20791406869E-01  0.10888855960E-01 -0.25214313418E-02  0.10203247591E+01  0.10200516686E+01 0.  0.
     999903    2    3    3    0    0 -0.10045505368E+00  0.16933602975E-01  0.82523859497E-01  0.13262236688E+00  0.20013497748E-01 0.  0.
         14    1    1    2    0    0  0.20791406869E-01 -0.10888855960E-01  0.25214313418E-02  0.23605240938E-01  0.00000000000E+00 0.  1.
     999901    1    3    3    0    0  0.79663646808E-01 -0.60447470146E-02 -0.85045290838E-01  0.88770239218E+00  0.88000000000E+00 0.  1.
        -11    1    4    4    0    0 -0.96681954824E-02 -0.42497982366E-02  0.76438503755E-02  0.13047005729E-01  0.51100000000E-03 0. -1.
         11    1    4    4    0    0 -0.90786858195E-01  0.21183401212E-01  0.74880009121E-01  0.11957536115E+00  0.51100000000E-03 0.  1.
</event>
<event>
 8    1  0.1191842E+005  0.1043930E+01  0.7957747E-01            NaN
         13   -1    0    0    0    0  0.00000000000E+00  0.00000000000E+00  0.74505805969E-08  0.10566000000E+00  0.10566000000E+00 0.  1.
     999900   -1    0    0    0    0 -0.00000000000E+00 -0.00000000000E+00 -0.74505805969E-08  0.93827000000E+00  0.93827000000E+00 0. -1.
     999902    2    1    2    0    0  0.13046589294E-01 -0.19366284835E-01  0.49142351181E-02  0.10200675570E+01  0.10197884117E+01 0.  0.
     999903    2    3    3    0    0 -0.45435287814E-01  0.31887392547E-01 -0.11440248067E+00  0.12861730706E+00  0.19321307153E-01 0.  0.
         14    1    1    2    0    0 -0.13046589294E-01  0.19366284835E-01 -0.49142351181E-02  0.23862443029E-01  0.00000000000E+00 0. -1.
     999901    1    3    3    0    0  0.58481877108E-01 -0.51253677382E-01  0.11931671579E+00  0.89145024991E+00  0.88000000000E+00 0.  1.
        -11    1    4    4    0    0 -0.14490702532E-01  0.21449096417E-01 -0.56194311230E-01  0.61871689266E-01  0.51100000000E-03 0.  1.
         11    1    4    4    0    0 -0.30944585282E-01  0.10438296130E-01 -0.58208169441E-01  0.66745617796E-01  0.51100000000E-03 0. -1.
</event>
<event>
 8    1  0.1191842E+005  0.1043930E+01  0.7957747E-01            NaN
         13   -1    0    0    0    0  0.00000000000E+00  0.00000000000E+00  0.74505805969E-08  0.10566000000E+00  0.10566000000E+00 0.  1.
     999900   -1    0    0    0    0 -0.00000000000E+00 -0.00000000000E+00 -0.74505805969E-08  0.93827000000E+00  0.93827000000E+00 0. -1.
     999902    2    1    2    0    0  0.24356341499E-02  0.87345643816E-02  0.20446204192E-01  0.10215632346E+01  0.10213183490E+01 0.  0.
     999903    2    3    3    0    0  0.28179895587E-01  0.12813250361E+00  0.96207538310E-02  0.13306122263E+00  0.20017119369E-01 0.  0.
         14    1    1    2    0    0 -0.24356341499E-02 -0.87345643816E-02 -0.20446204192E-01  0.22366765401E-01  0.00000000000E+00 0. -1.
     999901    1    3    3    0    0 -0.25744261438E-01 -0.11939793923E+00  0.10825450361E-01  0.88850201196E+00  0.88000000000E+00 0.  1.
        -11    1    4    4    0    0  0.20138269648E-01  0.99739233957E-01  0.15614245273E-01  0.10294430762E+00  0.51100000000E-03 0. -1.
         11    1    4    4    0    0  0.80416259394E-02  0.28393269654E-01 -0.59934914417E-02  0.30116915016E-01  0.51100000000E-03 0.  1.
</event>
<event>
 8    1  0.1191842E+005  0.1043930E+01  0.7957747E-01            NaN
         13   -1    0    0    0    0  0.00000000000E+00  0.00000000000E+00  0.74505805969E-08  0.10566000000E+00  0.10566000000E+00 0. -1.
     999900   -1    0    0    0    0 -0.00000000000E+00 -0.00000000000E+00 -0.74505805969E-08  0.93827000000E+00  0.93827000000E+00 0.  1.
     999902    2    1    2    0    0 -0.14099860070E-01 -0.18612686537E-01 -0.99020431276E-02  0.10185668651E+01  0.10182510349E+01 0.  0.
     999903    2    3    3    0    0  0.12430242698E+00  0.15835121513E-01 -0.84438146694E-02  0.12708272560E+00  0.19413312763E-01 0.  0.
         14    1    1    2    0    0  0.14099860070E-01  0.18612686537E-01  0.99020431276E-02  0.25363134905E-01  0.00000000000E+00 0. -1.
     999901    1    3    3    0    0 -0.13840228705E+00 -0.34447808049E-01 -0.14582284582E-02  0.89148413950E+00  0.88000000000E+00 0.  1.
        -11    1    4    4    0    0  0.60363667835E-01  0.16919433860E-01 -0.99127295934E-03  0.62699947206E-01  0.51100000000E-03 0. -1.
         11    1    4    4    0    0  0.63938759149E-01 -0.10843123471E-02 -0.74525417100E-02  0.64382778393E-01  0.51100000000E-03 0.  1.
</event>
<event>
 8    1  0.1191842E+005  0.1043930E+01  0.7957747E-01            NaN
         13   -1    0    0    0    0  0.00000000000E+00  0.00000000000E+00  0.74505805969E-08  0.10566000000E+00  0.10566000000E+00 0. -1.
     999900   -1    0    0    0    0 -0.00000000000E+00 -0.00000000000E+00 -0.74505805969E-08  0.93827000000E+00  0.93827000000E+00 0.  1.
     999902    2    1    2    0    0 -0.22393277385E-01 -0.11078790551E-02  0.48007633353E-02  0.10210011187E+01  0.10207436264E+01 0.  0.
     999903    2    3    3    0    0  0.50595443696E-01  0.10788307179E+00  0.48600575238E-01  0.13020102651E+00  0.19789777389E-01 0.  0.
         14    1    1    2    0    0  0.22393277385E-01  0.11078790551E-02 -0.48007633353E-02  0.22928881277E-01  0.00000000000E+00 0.  1.
     999901    1    3    3    0    0 -0.72988721081E-01 -0.10899095084E+00 -0.43799811902E-01  0.89080009222E+00  0.88000000000E+00 0.  1.
        -11    1    4    4    0    0  0.19753377618E-01  0.23650997135E-01  0.86925632233E-02  0.32021670306E-01  0.51100000000E-03 0.  1.
         11    1    4    4    0    0  0.30842066078E-01  0.84232074651E-01  0.39908012014E-01  0.98179356200E-01  0.51100000000E-03 0. -1.
</event>
<event>
 8    1  0.1191842E+005  0.1043930E+01  0.7957747E-01            NaN
         13   -1    0    0    0    0  0.00000000000E+00  0.00000000000E+00  0.74505805969E-08  0.10566000000E+00  0.10566000000E+00 0.  1.
     999900   -1    0    0    0    0 -0.00000000000E+00 -0.00000000000E+00 -0.74505805969E-08  0.93827000000E+00  0.93827000000E+00 0. -1.
     999902    2    1    2    0    0 -0.22503183939E-01  0.41871222568E-02  0.65710695132E-02  0.10201160496E+01  0.10198380511E+01 0.  0.
     999903    2    3    3    0    0  0.88046837200E-01  0.88379089177E-02  0.92225186936E-01  0.12906073995E+00  0.17911876376E-01 0.  0.
         14    1    1    2    0    0  0.22503183939E-01 -0.41871222568E-02 -0.65710695132E-02  0.23813950422E-01  0.00000000000E+00 0. -1.
     999901    1    3    3    0    0 -0.11055002114E+00 -0.46507866609E-02 -0.85654117422E-01  0.89105530963E+00  0.88000000000E+00 0.  1.
        -11    1    4    4    0    0  0.64631381188E-01 -0.15505061673E-02  0.65162325542E-01  0.91793296568E-01  0.51100000000E-03 0.  1.
         11    1    4    4    0    0  0.23415456012E-01  0.10388415085E-01  0.27062861393E-01  0.37267443379E-01  0.51100000000E-03 0. -1.
</event>
<event>
 8    1  0.1191842E+005  0.1043930E+01  0.7957747E-01            NaN
         13   -1    0    0    0    0  0.00000000000E+00  0.00000000000E+00  0.74505805969E-08  0.10566000000E+00  0.10566000000E+00 0. -1.
     999900   -1    0    0    0    0 -0.00000000000E+00 -0.00000000000E+00 -0.74505805969E-08  0.93827000000E+00  0.93827000000E+00 0.  1.
     999902    2    1    2    0    0  0.97038208225E-02 -0.19354887895E-01  0.10431120384E-01  0.10198970207E+01  0.10196138233E+01 0.  0.
     999903    2    3    3    0    0  0.45962276778E-01  0.84310031726E-01 -0.82654229225E-01  0.12819865601E+00  0.19556621842E-01 0.  0.
         14    1    1    2    0    0 -0.97038208225E-02  0.19354887895E-01 -0.10431120384E-01  0.24032979350E-01  0.00000000000E+00 0.  1.
     999901    1    3    3    0    0 -0.36258455956E-01 -0.10366491962E+00  0.93085349609E-01  0.89169836464E+00  0.88000000000E+00 0. -1.
        -11    1    4    4    0    0  0.13949827435E-01  0.41403816202E-01 -0.29245184095E-01  0.52577710062E-01  0.51100000000E-03 0.  1.
         11    1    4    4    0    0  0.32012449343E-01  0.42906215524E-01 -0.53409045130E-01  0.75620945949E-01  0.51100000000E-03 0. -1.
</event>
<event>
 8    1  0.1191842E+005  0.1043930E+01  0.7957747E-01            NaN
         13   -1    0    0    0    0  0.00000000000E+00  0.00000000000E+00  0.74505805969E-08  0.10566000000E+00  0.10566000000E+00 0. -1.
     999900   -1    0    0    0    0 -0.00000000000E+00 -0.00000000000E+00 -0.74505805969E-08  0.93827000000E+00  0.93827000000E+00 0.  1.
     999902    2    1    2    0    0  0.94791572218E-04  0.14536460547E-01 -0.18970821393E-01  0.10200300055E+01  0.10197499706E+01 0.  0.
     999903    2    3    3    0    0  0.30443566016E-01 -0.65648372138E-01  0.10265415688E+00  0.12753726561E+00  0.22166612676E-01 0.  0.
         14    1    1    2    0    0 -0.94791572218E-04 -0.14536460547E-01  0.18970821393E-01  0.23899994456E-01  0.00000000000E+00 0. -1.
     999901    1    3    3    0    0 -0.30348774444E-01  0.80184832685E-01 -0.12162497827E+00  0.89249273994E+00  0.88000000000E+00 0.  1.
        -11    1    4    4    0    0 -0.24154795454E-02 -0.15693003456E-01  0.21269946525E-01  0.26547629745E-01  0.51100000000E-03 0. -1.
         11    1    4    4    0    0  0.32859045561E-01 -0.49955368682E-01  0.81384210353E-01  0.10098963586E+00  0.51100000000E-03 0.  1.
</event>
<event>
 8    1  0.1191842E+005  0.1043930E+01  0.7957747E-01            NaN
         13   -1    0    0    0    0  0.00000000000E+00  0.00000000000E+00  0.74505805969E-08  0.10566000000E+00  0.10566000000E+00 0.  1.
     999900   -1    0    0    0    0 -0.00000000000E+00 -0.00000000000E+00 -0.74505805969E-08  0.93827000000E+00  0.93827000000E+00 0.  1.
     999902    2    1    2    0    0 -0.12753802960E-01  0.15992694165E-01  0.11332440039E-01  0.10205451768E+01  0.10202772212E+01 0.  0.
     999903    2    3    3    0    0 -0.12134206468E+00  0.20264779778E-01  0.46713806378E-01  0.13315490060E+00  0.20334450734E-01 0.  0.
         14    1    1    2    0    0  0.12753802960E-01 -0.15992694165E-01 -0.11332440039E-01  0.23384823152E-01  0.00000000000E+00 0. -1.
     999901    1    3    3    0    0  0.10858826172E+00 -0.42720856132E-02 -0.35381366339E-01  0.88739027625E+00  0.88000000000E+00 0.  1.
        -11    1    4    4    0    0 -0.85938634959E-01  0.78817837954E-02  0.25161506398E-01  0.89894015483E-01  0.51100000000E-03 0. -1.
         11    1    4    4    0    0 -0.35403429722E-01  0.12382995983E-01  0.21552299980E-01  0.43260885116E-01  0.51100000000E-03 0.  1.
</event>
<event>
 8    1  0.1191842E+005  0.1043930E+01  0.7957747E-01            NaN
         13   -1    0    0    0    0  0.00000000000E+00  0.00000000000E+00  0.74505805969E-08  0.10566000000E+00  0.10566000000E+00 0. -1.
     999900   -1    0    0    0    0 -0.00000000000E+00 -0.00000000000E+00 -0.74505805969E-08  0.93827000000E+00  0.93827000000E+00 0.  1.
     999902    2    1    2    0    0 -0.69727282444E-02 -0.18763978530E-01 -0.10794199944E-01  0.10211875159E+01  0.10209342399E+01 0.  0.
     999903    2    3    3    0    0  0.26045314143E-01 -0.45758398072E-01 -0.12108587518E+00  0.13327809293E+00  0.18140328123E-01 0.  0.
         14    1    1    2    0    0  0.69727282444E-02  0.18763978530E-01  0.10794199944E-01  0.22742484074E-01  0.00000000000E+00 0. -1.
     999901    1    3    3    0    0 -0.33018042388E-01  0.26994419542E-01  0.11029167524E+00  0.88790942299E+00  0.88000000000E+00 0.  1.
        -11    1    4    4    0    0  0.25214050534E-01 -0.40091791147E-01 -0.90382717307E-01  0.10204115234E+00  0.51100000000E-03 0. -1.
         11    1    4    4    0    0  0.83126360900E-03 -0.56666069247E-02 -0.30703157877E-01  0.31236940596E-01  0.51100000000E-03 0.  1.
</event>
<event>
 8    1  0.1191842E+005  0.1043930E+01  0.7957747E-01            NaN
         13   -1    0    0    0    0  0.00000000000E+00  0.00000000000E+00  0.74505805969E-08  0.10566000000E+00  0.10566000000E+00 0. -1.
     999900   -1    0    0    0    0 -0.00000000000E+00 -0.00000000000E+00 -0.74505805969E-08  0.93827000000E+00  0.93827000000E+00 0. -1.
     999902    2    1    2    0    0  0.12813783407E-01 -0.19567164214E-01 -0.50657899685E-02  0.10199982389E+01  0.10197174502E+01 0.  0.
     999903    2    3    3    0    0  0.69874557222E-01  0.21374721212E-01 -0.10718021989E+00  0.13131408429E+00  0.20407271815E-01 0.  0.
         14    1    1    2    0    0 -0.12813783407E-01  0.19567164214E-01  0.50657899685E-02  0.23931761084E-01  0.00000000000E+00 0. -1.
     999901    1    3    3    0    0 -0.57060773816E-01 -0.40941885425E-01  0.10211442992E+00  0.88868415463E+00  0.88000000000E+00 0.  1.
        -11    1    4    4    0    0  0.32544952079E-01  0.13610513229E-01 -0.68196337532E-01  0.76781648523E-01  0.51100000000E-03 0. -1.
         11    1    4    4    0    0  0.37329605143E-01  0.77642079830E-02 -0.38983882357E-01  0.54532435764E-01  0.51100000000E-03 0.  1.
</event>
<event>
 8    1  0.1191842E+005  0.1043930E+01  0.7957747E-01            NaN
         13   -1    0    0    0    0  0.00000000000E+00  0.00000000000E+00  0.74505805969E-08  0.10566000000E+00  0.10566000000E+00 0.  1.
     999900   -1    0    0    0    0 -0.00000000000E+00 -0.00000000000E+00 -0.74505805969E-08  0.93827000000E+00  0.93827000000E+00 0.  1.
     999902    2    1    2    0    0  0.10629383052E-01 -0.10961989120E-01 -0.18190138523E-01  0.10201806815E+01  0.10199042077E+01 0.  0.
     999903    2    3    3    0    0 -0.64305071562E-01 -0.96434769878E-01 -0.59614457105E-01  0.13190327950E+00  0.20243136548E-01 0.  0.
         14    1    1    2    0    0 -0.10629383052E-01  0.10961989120E-01  0.18190138523E-01  0.23749318496E-01  0.00000000000E+00 0.  1.
     999901    1    3    3    0    0  0.74934454614E-01  0.85472780758E-01  0.41424318582E-01  0.88827740200E+00  0.88000000000E+00 0. -1.
        -11    1    4    4    0    0 -0.63424981565E-01 -0.93521561676E-01 -0.53439525462E-01  0.12500021915E+00  0.51100000000E-03 0.  1.
         11    1    4    4    0    0 -0.88008999750E-03 -0.29132082029E-02 -0.61749316431E-02  0.69030603527E-02  0.51100000000E-03 0. -1.
</event>
<event>
 8    1  0.1191842E+005  0.1043930E+01  0.7957747E-01            NaN
         13   -1    0    0    0    0  0.00000000000E+00  0.00000000000E+00  0.74505805969E-08  0.10566000000E+00  0.10566000000E+00 0.  1.
     999900   -1    0    0    0    0 -0.00000000000E+00 -0.00000000000E+00 -0.74505805969E-08  0.93827000000E+00  0.93827000000E+00 0. -1.
     999902    2    1    2    0    0  0.22903061649E-01 -0.35359579397E-02 -0.29360171230E-02  0.10205703461E+01  0.10203029736E+01 0.  0.
     999903    2    3    3    0    0  0.81369711526E-02  0.11815482656E+00  0.50452282060E-01  0.13047091634E+00  0.21223899422E-01 0.  0.
         14    1    1    2    0    0 -0.22903061649E-01  0.35359579397E-02  0.29360171230E-02  0.23359653850E-01  0.00000000000E+00 0. -1.
     999901    1    3    3    0    0  0.14766090497E-01 -0.12169078450E+00 -0.53388299183E-01  0.89009942981E+00  0.88000000000E+00 0. -1.
        -11    1    4    4    0    0  0.10685910862E-01  0.60205762503E-01  0.34931854181E-01  0.70423136021E-01  0.51100000000E-03 0.  1.
         11    1    4    4    0    0 -0.25489397097E-02  0.57949064056E-01  0.15520427878E-01  0.60047780318E-01  0.51100000000E-03 0. -1.
</event>
<event>
 8    1  0.1191842E+005  0.1043930E+01  0.7957747E-01            NaN
         13   -1    0    0    0    0  0.00000000000E+00  0.00000000000E+00  0.74505805969E-08  0.10566000000E+00  0.10566000000E+00 0. -1.
     999900   -1    0    0    0    0 -0.00000000000E+00 -0.00000000000E+00 -0.74505805969E-08  0.93827000000E+00  0.93827000000E+00 0. -1.
     999902    2    1    2    0    0  0.15697728287E-01  0.37476234189E-02 -0.17135190213E-01  0.10203911364E+01  0.10201195975E+01 0.  0.
     999903    2    3    3    0    0 -0.12900421126E-01 -0.10994949865E+00 -0.67269384825E-01  0.13120143384E+00  0.20816651738E-01 0.  0.
         14    1    1    2    0    0 -0.15697728287E-01 -0.37476234189E-02  0.17135190213E-01  0.23538863573E-01  0.00000000000E+00 0. -1.
     999901    1    3    3    0    0  0.28598149412E-01  0.11369712206E+00  0.50134194612E-01  0.88918970259E+00  0.88000000000E+00 0.  1.
        -11    1    4    4    0    0  0.28945870564E-02 -0.34683506366E-01 -0.13369776475E-01  0.37287213520E-01  0.51100000000E-03 0. -1.
         11    1    4    4    0    0 -0.15795008182E-01 -0.75265992279E-01 -0.53899608350E-01  0.93914220321E-01  0.51100000000E-03 0.  1.
</event>
<event>
 8    1  0.1191842E+005  0.1043930E+01  0.7957747E-01            NaN
         13   -1    0    0    0    0  0.00000000000E+00  0.00000000000E+00  0.74505805969E-08  0.10566000000E+00  0.10566000000E+00 0. -1.
     999900   -1    0    0    0    0 -0.00000000000E+00 -0.00000000000E+00 -0.74505805969E-08  0.93827000000E+00  0.93827000000E+00 0. -1.
     999902    2    1    2    0    0 -0.12900146296E-01  0.36138596317E-02  0.19838661894E-01  0.10199916153E+01  0.10197106693E+01 0.  0.
     999903    2    3    3    0    0 -0.89397405341E-01 -0.89639735403E-01 -0.24992433529E-01  0.13063348118E+00  0.20329939156E-01 0.  0.
         14    1    1    2    0    0  0.12900146296E-01 -0.36138596317E-02 -0.19838661894E-01  0.23938384692E-01  0.00000000000E+00 0.  1.
     999901    1    3    3    0    0  0.76497259045E-01  0.93253595034E-01  0.44831095423E-01  0.88935813413E+00  0.88000000000E+00 0.  1.
        -11    1    4    4    0    0 -0.37020955609E-01 -0.23925313931E-01 -0.61183904612E-02  0.44504692154E-01  0.51100000000E-03 0. -1.
         11    1    4    4    0    0 -0.52376449732E-01 -0.65714421472E-01 -0.18874043068E-01  0.86128789023E-01  0.51100000000E-03 0.  1.
</event>
<event>
 8    1  0.1191842E+005  0.1043930E+01  0.7957747E-01            NaN
         13   -1    0    0    0    0  0.00000000000E+00  0.00000000000E+00  0.74505805969E-08  0.10566000000E+00  0.10566000000E+00 0. -1.
     999900   -1    0    0    0    0 -0.00000000000E+00 -0.00000000000E+00 -0.74505805969E-08  0.93827000000E+00  0.93827000000E+00 0. -1.
     999902    2    1    2    0    0  0.21844601403E-01 -0.88621608435E-02  0.32053717580E-02  0.10201392683E+01  0.10198618180E+01 0.  0.
     999903    2    3    3    0    0 -0.10520044466E+00  0.28799599646E-01  0.64026948640E-01  0.12814256646E+00  0.20603802821E-01 0.  0.
         14    1    1    2    0    0 -0.21844601403E-01  0.88621608435E-02 -0.32053717580E-02  0.23790731670E-01  0.00000000000E+00 0. -1.
     999901    1    3    3    0    0  0.12704504606E+00 -0.37661760490E-01 -0.60821576882E-01  0.89199670187E+00  0.88000000000E+00 0. -1.
        -11    1    4    4    0    0 -0.15218666195E-01  0.98165945077E-02  0.17035473975E-01  0.24868490566E-01  0.51100000000E-03 0.  1.
         11    1    4    4    0    0 -0.89981778464E-01  0.18983005139E-01  0.46991474665E-01  0.10327407589E+00  0.51100000000E-03 0. -1.
</event>
<event>
 8    1  0.1191842E+005  0.1043930E+01  0.7957747E-01            NaN
         13   -1    0    0    0    0  0.00000000000E+00  0.00000000000E+00  0.74505805969E-08  0.10566000000E+00  0.10566000000E+00 0. -1.
     999900   -1    0    0    0    0 -0.00000000000E+00 -0.00000000000E+00 -0.74505805969E-08  0.93827000000E+00  0.93827000000E+00 0. -1.
     999902    2    1    2    0    0 -0.12464508664E-01 -0.17810489307E-01  0.48267943645E-02  0.10216617390E+01  0.10214190293E+01 0.  0.
     999903    2    3    3    0    0 -0.30580904728E-01  0.11650036640E+00 -0.44564206529E-01  0.12991789641E+00  0.19625600611E-01 0.  0.
         14    1    1    2    0    0  0.12464508664E-01  0.17810489307E-01 -0.48267943645E-02  0.22268261033E-01  0.00000000000E+00 0.  1.
     999901    1    3    3    0    0  0.18116396063E-01 -0.13431085571E+00  0.49391000894E-01  0.89174384256E+00  0.88000000000E+00 0.  1.
        -11    1    4    4    0    0 -0.21507597567E-01  0.47803859488E-01 -0.14562058962E-01  0.54406804880E-01  0.51100000000E-03 0. -1.
         11    1    4    4    0    0 -0.90733071604E-02  0.68696506912E-01 -0.30002147567E-01  0.75511091532E-01  0.51100000000E-03 0.  1.
</event>
<event>
 8    1  0.1191842E+005  0.1043930E+01  0.7957747E-01            NaN
         13   -1    0    0    0    0  0.00000000000E+00  0.00000000000E+00  0.74505805969E-08  0.10566000000E+00  0.10566000000E+00 0.  1.
     999900   -1    0    0    0    0 -0.00000000000E+00 -0.00000000000E+00 -0.74505805969E-08  0.93827000000E+00  0.93827000000E+00 0.  1.
     999902    2    1    2    0    0  0.85222268838E-02 -0.15624373887E-01 -0.15934968766E-01  0.10200412445E+01  0.10197614759E+01 0.  0.
     999903    2    3    3    0    0 -0.84231620603E-01  0.89408738827E-01 -0.33757831723E-01  0.12877647718E+00  0.18838826537E-01 0.  0.
         14    1    1    2    0    0 -0.85222268838E-02  0.15624373887E-01  0.15934968766E-01  0.23888755514E-01  0.00000000000E+00 0.  1.
     999901    1    3    3    0    0  0.92753847487E-01 -0.10503311271E+00  0.17822862957E-01  0.89126476730E+00  0.88000000000E+00 0. -1.
        -11    1    4    4    0    0 -0.64402232958E-01  0.57511648522E-01 -0.18943566525E-01  0.88398852704E-01  0.51100000000E-03 0.  1.
         11    1    4    4    0    0 -0.19829387645E-01  0.31897090305E-01 -0.14814265198E-01  0.40377624480E-01  0.51100000000E-03 0. -1.
</event>
<event>
 8    1  0.1191842E+005  0.1043930E+01  0.7957747E-01            NaN
         13   -1    0    0    0    0  0.00000000000E+00  0.00000000000E+00  0.74505805969E-08  0.10566000000E+00  0.10566000000E+00 0.  1.
     999900   -1    0    0    0    0 -0.00000000000E+00 -0.00000000000E+00 -0.74505805969E-08  0.93827000000E+00  0.93827000000E+00 0.  1.
     999902    2    1    2    0    0 -0.51324171840E-02 -0.23561571577E-01 -0.16332382155E-03  0.10198153564E+01  0.10195302080E+01 0.  0.
     999903    2    3    3    0    0 -0.77229731818E-01  0.45086435427E-01  0.91445617844E-01  0.12947678606E+00  0.20117628315E-01 0.  0.
         14    1    1    2    0    0  0.51324171840E-02  0.23561571577E-01  0.16332382155E-03  0.24114643601E-01  0.00000000000E+00 0. -1.
     999901    1    3    3    0    0  0.72097314634E-01 -0.68648007004E-01 -0.91608941666E-01  0.89033857034E+00  0.88000000000E+00 0. -1.
        -11    1    4    4    0    0 -0.32297269210E-01  0.89730327646E-02  0.40195967220E-01  0.52341243939E-01  0.51100000000E-03 0.  1.
         11    1    4    4    0    0 -0.44932462608E-01  0.36113402663E-01  0.51249650624E-01  0.77135542119E-01  0.51100000000E-03 0. -1.
</event>
<event>
 8    1  0.1191842E+005  0.1043930E+01  0.7957747E-01            NaN
         13   -1    0    0    0    0  0.00000000000E+00  0.00000000000E+00  0.74505805969E-08  0.10566000000E+00  0.10566000000E+00 0. -1.
     999900   -1    0    0    0    0 -0.00000000000E+00 -0.00000000000E+00 -0.74505805969E-08  0.93827000000E+00  0.93827000000E+00 0. -1.
     999902    2    1    2    0    0  0.31808627106E-02  0.38357864487E-03 -0.23211497148E-01  0.10204984269E+01  0.10202293863E+01 0.  0.
     999903    2    3    3    0    0 -0.40667798749E-01 -0.40541206343E-01  0.11252980563E+00  0.12807294290E+00  0.21030032826E-01 0.  0.
         14    1    1    2    0    0 -0.31808627106E-02 -0.38357864487E-03  0.23211497148E-01  0.23431573144E-01  0.00000000000E+00 0. -1.
     999901    1    3    3    0    0  0.43848661459E-01  0.40924784988E-01 -0.13574130278E+00  0.89242548396E+00  0.88000000000E+00 0. -1.
        -11    1    4    4    0    0 -0.26617528644E-01 -0.28215008019E-01  0.53027480013E-01  0.65702011128E-01  0.51100000000E-03 0.  1.
         11    1    4    4    0    0 -0.14050270104E-01 -0.12326198324E-01  0.59502325617E-01  0.62370931771E-01  0.51100000000E-03 0. -1.
</event>
<event>
 8    1  0.1191842E+005  0.1043930E+01  0.7957747E-01            NaN
         13   -1    0    0    0    0  0.00000000000E+00  0.00000000000E+00  0.74505805969E-08  0.10566000000E+00  0.10566000000E+00 0. -1.
     999900   -1    0    0    0    0 -0.00000000000E+00 -0.00000000000E+00 -0.74505805969E-08  0.93827000000E+00  0.93827000000E+00 0.  1.
     999902    2    1    2    0    0  0.23891910750E-01  0.12974667553E-01  0.65785837304E-02  0.10159578145E+01  0.10155726649E+01 0.  0.
     999903    2    3    3    0    0 -0.17591984826E-01  0.12478205841E+00 -0.50491291520E-02  0.12783788457E+00  0.20904329575E-01 0.  0.
         14    1    1    2    0    0 -0.23891910750E-01 -0.12974667553E-01 -0.65785837304E-02  0.27972185493E-01  0.00000000000E+00 0. -1.
     999901    1    3    3    0    0  0.41483895575E-01 -0.11180739086E+00  0.11627712882E-01  0.88811992994E+00  0.88000000000E+00 0.  1.
        -11    1    4    4    0    0 -0.11866431124E-01  0.79763340478E-01 -0.13234042690E-01  0.81721500712E-01  0.51100000000E-03 0.  1.
         11    1    4    4    0    0 -0.57255537017E-02  0.45018717933E-01  0.81849135379E-02  0.46116383858E-01  0.51100000000E-03 0. -1.
</event>
<event>
 8    1  0.1191842E+005  0.1043930E+01  0.7957747E-01            NaN
         13   -1    0    0    0    0  0.00000000000E+00  0.00000000000E+00  0.74505805969E-08  0.10566000000E+00  0.10566000000E+00 0.  1.
     999900   -1    0    0    0    0 -0.00000000000E+00 -0.00000000000E+00 -0.74505805969E-08  0.93827000000E+00  0.93827000000E+00 0.  1.
     999902    2    1    2    0    0  0.19586397497E-02  0.98224417308E-02  0.21223724137E-01  0.10204616575E+01  0.10201917621E+01 0.  0.
     999903    2    3    3    0    0 -0.42525502990E-01 -0.17239523419E-01  0.12338155941E+00  0.13302297672E+00  0.19143760383E-01 0.  0.
         14    1    1    2    0    0 -0.19586397497E-02 -0.98224417308E-02 -0.21223724137E-01  0.23468342453E-01  0.00000000000E+00 0. -1.
     999901    1    3    3    0    0  0.44484142740E-01  0.27061965150E-01 -0.10215783527E+00  0.88743868082E+00  0.88000000000E+00 0.  1.
        -11    1    4    4    0    0  0.21598856394E-03  0.24630533639E-02  0.44431913187E-02  0.51104161306E-02  0.51100000000E-03 0.  1.
         11    1    4    4    0    0 -0.42741491554E-01 -0.19702576783E-01  0.11893836809E+00  0.12791256059E+00  0.51100000000E-03 0. -1.
</event>
<event>
 8    1  0.1191842E+005  0.1043930E+01  0.7957747E-01            NaN
         13   -1    0    0    0    0  0.00000000000E+00  0.00000000000E+00  0.74505805969E-08  0.10566000000E+00  0.10566000000E+00 0. -1.
     999900   -1    0    0    0    0 -0.00000000000E+00 -0.00000000000E+00 -0.74505805969E-08  0.93827000000E+00  0.93827000000E+00 0. -1.
     999902    2    1    2    0    0 -0.19342177623E-01 -0.10175354556E-01 -0.12141239460E-01  0.10189286526E+01  0.10186218787E+01 0.  0.
     999903    2    3    3    0    0  0.72364987757E-01 -0.78614037464E-01  0.67478567425E-01  0.12795538076E+00  0.20059014562E-01 0.  0.
         14    1    1    2    0    0  0.19342177623E-01  0.10175354556E-01  0.12141239460E-01  0.25001347387E-01  0.00000000000E+00 0. -1.
     999901    1    3    3    0    0 -0.91707165380E-01  0.68438682908E-01 -0.79619806885E-01  0.89097327185E+00  0.88000000000E+00 0. -1.
        -11    1    4    4    0    0  0.27482337181E-01 -0.39721414602E-01  0.39029349242E-01  0.62101697708E-01  0.51100000000E-03 0.  1.
         11    1    4    4    0    0  0.44882650576E-01 -0.38892622862E-01  0.28449218183E-01  0.65853683056E-01  0.51100000000E-03 0. -1.
</event>
<event>
 8    1  0.1191842E+005  0.1043930E+01  0.7957747E-01            NaN
         13   -1    0    0    0    0  0.00000000000E+00  0.00000000000E+00  0.74505805969E-08  0.10566000000E+00  0.10566000000E+00 0. -1.
     999900   -1    0    0    0    0 -0.00000000000E+00 -0.00000000000E+00 -0.74505805969E-08  0.93827000000E+00  0.93827000000E+00 0.  1.
     999902    2    1    2    0    0 -0.26549624719E-02 -0.13461583070E-01 -0.19583915492E-01  0.10200178108E+01  0.10197374866E+01 0.  0.
     999903    2    3    3    0    0  0.54811954173E-01 -0.18304136948E-04 -0.11900188668E+00  0.13245536163E+00  0.19458240763E-01 0.  0.
         14    1    1    2    0    0  0.26549624719E-02  0.13461583070E-01  0.19583915492E-01  0.23912189162E-01  0.00000000000E+00 0. -1.
     999901    1    3    3    0    0 -0.57466916645E-01 -0.13443278933E-01  0.99417971192E-01  0.88756244921E+00  0.88000000000E+00 0. -1.
        -11    1    4    4    0    0  0.19112630891E-01 -0.91986520933E-02 -0.46897830034E-01  0.51474026875E-01  0.51100000000E-03 0.  1.
         11    1    4    4    0    0  0.35699323282E-01  0.91803479563E-02 -0.72104056651E-01  0.80981334750E-01  0.51100000000E-03 0. -1.
</event>
<event>
 8    1  0.1191842E+005  0.1043930E+01  0.7957747E-01            NaN
         13   -1    0    0    0    0  0.00000000000E+00  0.00000000000E+00  0.74505805969E-08  0.10566000000E+00  0.10566000000E+00 0.  1.
     999900   -1    0    0    0    0 -0.00000000000E+00 -0.00000000000E+00 -0.74505805969E-08  0.93827000000E+00  0.93827000000E+00 0.  1.
     999902    2    1    2    0    0 -0.16833242408E-01  0.10702193614E-02  0.14650458359E-01  0.10215885732E+01  0.10213442483E+01 0.  0.
     999903    2    3    3    0    0 -0.10938076977E-01 -0.63558779639E-01 -0.11172611759E+00  0.13019488949E+00  0.17567694786E-01 0.  0.
         14    1    1    2    0    0  0.16833242408E-01 -0.10702193614E-02 -0.14650458359E-01  0.22341426758E-01  0.00000000000E+00 0.  1.
     999901    1    3    3    0    0 -0.58951654315E-02  0.64628999001E-01  0.12637657595E+00  0.89139368375E+00  0.88000000000E+00 0. -1.
        -11    1    4    4    0    0  0.14494048738E-02 -0.40858136977E-01 -0.65103331775E-01  0.76877780021E-01  0.51100000000E-03 0. -1.
         11    1    4    4    0    0 -0.12387481850E-01 -0.22700642662E-01 -0.46622785814E-01  0.53317109467E-01  0.51100000000E-03 0.  1.
</event>
<event>
 8    1  0.1191842E+005  0.1043930E+01  0.7957747E-01            NaN
         13   -1    0    0    0    0  0.00000000000E+00  0.00000000000E+00  0.74505805969E-08  0.10566000000E+00  0.10566000000E+00 0. -1.
     999900   -1    0    0    0    0 -0.00000000000E+00 -0.00000000000E+00 -0.74505805969E-08  0.93827000000E+00  0.93827000000E+00 0. -1.
     999902    2    1    2    0    0  0.74628094798E-02  0.21787716581E-01 -0.53660793466E-02  0.10202827396E+01  0.10200086645E+01 0.  0.
     999903    2    3    3    0    0  0.81379617748E-01  0.57020211771E-01 -0.85918396140E-01  0.13281798025E+00  0.19613728537E-01 0.  0.
         14    1    1    2    0    0 -0.74628094798E-02 -0.21787716581E-01  0.53660793466E-02  0.23647260448E-01  0.00000000000E+00 0.  1.
     999901    1    3    3    0    0 -0.73916808269E-01 -0.35232495190E-01  0.80552316794E-01  0.88746475930E+00  0.88000000000E+00 0.  1.
        -11    1    4    4    0    0  0.57079389276E-01  0.42450456367E-01 -0.49456763209E-01  0.86639081677E-01  0.51100000000E-03 0.  1.
         11    1    4    4    0    0  0.24300228473E-01  0.14569755404E-01 -0.36461632931E-01  0.46178898573E-01  0.51100000000E-03 0. -1.
</event>
<event>
 8    1  0.1191842E+005  0.1043930E+01  0.7957747E-01            NaN
         13   -1    0    0    0    0  0.00000000000E+00  0.00000000000E+00  0.74505805969E-08  0.10566000000E+00  0.10566000000E+00 0. -1.
     999900   -1    0    0    0    0 -0.00000000000E+00 -0.00000000000E+00 -0.74505805969E-08  0.93827000000E+00  0.93827000000E+00 0.  1.
     999902    2    1    2    0    0 -0.15667307450E-01  0.32371027866E-02  0.16739067336E-01  0.10207753086E+01  0.10205126609E+01 0.  0.
     999903    2    3    3    0    0  0.78424806748E-01 -0.11592361842E-01  0.10278451817E+00  0.13146261976E+00  0.20806971264E-01 0.  0.
         14    1    1    2    0    0  0.15667307450E-01 -0.32371027866E-02 -0.16739067336E-01  0.23154691371E-01  0.00000000000E+00 0.  1.
     999901    1    3    3    0    0 -0.94092114198E-01  0.14829464628E-01 -0.86045450829E-01  0.88931268887E+00  0.88000000000E+00 0.  1.
        -11    1    4    4    0    0  0.28287148254E-01 -0.90524116486E-03  0.22291128803E-01  0.36029678909E-01  0.51100000000E-03 0. -1.
         11    1    4    4    0    0  0.50137658493E-01 -0.10687120677E-01  0.80493389362E-01  0.95432940852E-01  0.51100000000E-03 0.  1.
</event>
<event>
 8    1  0.1191842E+005  0.1043930E+01  0.7957747E-01            NaN
         13   -1    0    0    0    0  0.00000000000E+00  0.00000000000E+00  0.74505805969E-08  0.10566000000E+00  0.10566000000E+00 0. -1.
     999900   -1    0    0    0    0 -0.00000000000E+00 -0.00000000000E+00 -0.74505805969E-08  0.93827000000E+00  0.93827000000E+00 0. -1.
     999902    2    1    2    0    0 -0.74006132469E-02  0.19188379920E-01  0.12985941349E-01  0.10196072191E+01  0.10193170672E+01 0.  0.
     999903    2    3    3    0    0  0.12107522179E-01 -0.63774950824E-01 -0.10757395127E+00  0.12730784703E+00  0.20525507974E-01 0.  0.
         14    1    1    2    0    0  0.74006132469E-02 -0.19188379920E-01 -0.12985941349E-01  0.24322780950E-01  0.00000000000E+00 0.  1.
     999901    1    3    3    0    0 -0.19508135426E-01  0.82963330744E-01  0.12055989262E+00  0.89229937202E+00  0.88000000000E+00 0.  1.
        -11    1    4    4    0    0  0.12436377137E-01 -0.26058535144E-01 -0.60049843260E-01  0.66632991278E-01  0.51100000000E-03 0.  1.
         11    1    4    4    0    0 -0.32885495788E-03 -0.37716415680E-01 -0.47524108013E-01  0.60674855754E-01  0.51100000000E-03 0. -1.
</event>
<event>
 8    1  0.1191842E+005  0.1043930E+01  0.7957747E-01            NaN
         13   -1    0    0    0    0  0.00000000000E+00  0.00000000000E+00  0.74505805969E-08  0.10566000000E+00  0.10566000000E+00 0.  1.
     999900   -1    0    0    0    0 -0.00000000000E+00 -0.00000000000E+00 -0.74505805969E-08  0.93827000000E+00  0.93827000000E+00 0. -1.
     999902    2    1    2    0    0  0.13785078835E-01  0.17122796144E-02  0.18221222945E-01  0.10210177049E+01  0.10207605892E+01 0.  0.
     999903    2    3    3    0    0 -0.12124146956E+00  0.41123402665E-01 -0.20734667138E-03  0.12965637664E+00  0.20496458780E-01 0.  0.
         14    1    1    2    0    0 -0.13785078835E-01 -0.17122796144E-02 -0.18221222945E-01  0.22912295075E-01  0.00000000000E+00 0. -1.
     999901    1    3    3    0    0  0.13502654839E+00 -0.39411123051E-01  0.18428569617E-01  0.89136132829E+00  0.88000000000E+00 0.  1.
        -11    1    4    4    0    0 -0.45624560448E-01  0.10467903377E-01 -0.87175971338E-02  0.47617592736E-01  0.51100000000E-03 0. -1.
         11    1    4    4    0    0 -0.75616909110E-01  0.30655499288E-01  0.85102504624E-02  0.82038783900E-01  0.51100000000E-03 0.  1.
</event>
<event>
 8    1  0.1191842E+005  0.1043930E+01  0.7957747E-01            NaN
         13   -1    0    0    0    0  0.00000000000E+00  0.00000000000E+00  0.74505805969E-08  0.10566000000E+00  0.10566000000E+00 0. -1.
     999900   -1    0    0    0    0 -0.00000000000E+00 -0.00000000000E+00 -0.74505805969E-08  0.93827000000E+00  0.93827000000E+00 0.  1.
     999902    2    1    2    0    0 -0.14596329739E-01 -0.17315072788E-02  0.19399528953E-01  0.10195908816E+01  0.10193003351E+01 0.  0.
     999903    2    3    3    0    0 -0.86936289378E-01  0.70135778706E-01  0.68217007051E-01  0.13235859935E+00  0.19705149215E-01 0.  0.
         14    1    1    2    0    0  0.14596329739E-01  0.17315072788E-02 -0.19399528953E-01  0.24339118367E-01  0.00000000000E+00 0.  1.
     999901    1    3    3    0    0  0.72339959639E-01 -0.71867285985E-01 -0.48817478099E-01  0.88723228228E+00  0.88000000000E+00 0.  1.
        -11    1    4    4    0    0 -0.42370221854E-01  0.27601205844E-01  0.21086802682E-01  0.54790296882E-01  0.51100000000E-03 0.  1.
         11    1    4    4    0    0 -0.44566067524E-01  0.42534572862E-01  0.47130204369E-01  0.77568302469E-01  0.51100000000E-03 0. -1.
</event>
<event>
 8    1  0.1191842E+005  0.1043930E+01  0.7957747E-01            NaN
         13   -1    0    0    0    0  0.00000000000E+00  0.00000000000E+00  0.74505805969E-08  0.10566000000E+00  0.10566000000E+00 0.  1.
     999900   -1    0    0    0    0 -0.00000000000E+00 -0.00000000000E+00 -0.74505805969E-08  0.93827000000E+00  0.93827000000E+00 0.  1.
     999902    2    1    2    0    0 -0.50158537041E-02  0.11926858914E-01  0.20181650713E-01  0.10199569364E+01  0.10196751661E+01 0.  0.
     999903    2    3    3    0    0  0.12699429847E+00 -0.10934585432E-01  0.14430902987E-01  0.12979830055E+00  0.19804819170E-01 0.  0.
         14    1    1    2    0    0  0.50158537041E-02 -0.11926858914E-01 -0.20181650713E-01  0.23973063581E-01  0.00000000000E+00 0. -1.
     999901    1    3    3    0    0 -0.13201015217E+00  0.22861444346E-01  0.57507477262E-02  0.89015863587E+00  0.88000000000E+00 0.  1.
        -11    1    4    4    0    0  0.59790861518E-01  0.34768552699E-03 -0.15088852910E-02  0.59813091060E-01  0.51100000000E-03 0.  1.
         11    1    4    4    0    0  0.67203436950E-01 -0.11282270959E-01  0.15939788278E-01  0.69985209489E-01  0.51100000000E-03 0. -1.
</event>
<event>
 8    1  0.1191842E+005  0.1043930E+01  0.7957747E-01            NaN
         13   -1    0    0    0    0  0.00000000000E+00  0.00000000000E+00  0.74505805969E-08  0.10566000000E+00  0.10566000000E+00 0. -1.
     999900   -1    0    0    0    0 -0.00000000000E+00 -0.00000000000E+00 -0.74505805969E-08  0.93827000000E+00  0.93827000000E+00 0.  1.
     999902    2    1    2    0    0 -0.14648953012E-01  0.18013998347E-01  0.43855806739E-02  0.10203010077E+01  0.10200273609E+01 0.  0.
     999903    2    3    3    0    0  0.11863140558E+00 -0.41979748447E-01  0.14292443756E-01  0.12819056071E+00  0.19820096768E-01 0.  0.
         14    1    1    2    0    0  0.14648953012E-01 -0.18013998347E-01 -0.43855806739E-02  0.23628992333E-01  0.00000000000E+00 0.  1.
     999901    1    3    3    0    0 -0.13328035859E+00  0.59993746794E-01 -0.99068630817E-02  0.89211044696E+00  0.88000000000E+00 0.  1.
        -11    1    4    4    0    0  0.76953311972E-01 -0.18087667136E-01  0.13116573014E-01  0.80132899202E-01  0.51100000000E-03 0. -1.
         11    1    4    4    0    0  0.41678093608E-01 -0.23892081311E-01  0.11758707419E-02  0.48057661504E-01  0.51100000000E-03 0.  1.
</event>
<event>
 8    1  0.1191842E+005  0.1043930E+01  0.7957747E-01            NaN
         13   -1    0    0    0    0  0.00000000000E+00  0.00000000000E+00  0.74505805969E-08  0.10566000000E+00  0.10566000000E+00 0.  1.
     999900   -1    0    0    0    0 -0.00000000000E+00 -0.00000000000E+00 -0.74505805969E-08  0.93827000000E+00  0.93827000000E+00 0. -1.
     999902    2    1    2    0    0 -0.18263620716E-01  0.17261195753E-01  0.12887398747E-02  0.10187671391E+01  0.10184563388E+01 0.  0.
     999903    2    3    3    0    0  0.11813682585E+00  0.50921776987E-02 -0.42005248427E-01  0.12712397262E+00  0.20342655272E-01 0.  0.
         14    1    1    2    0    0  0.18263620716E-01 -0.17261195753E-01 -0.12887398747E-02  0.25162860946E-01  0.00000000000E+00 0. -1.
     999901    1    3    3    0    0 -0.13640044657E+00  0.12169018055E-01  0.43293988302E-01  0.89164316643E+00  0.88000000000E+00 0.  1.
        -11    1    4    4    0    0  0.66744350738E-01 -0.43285418704E-02 -0.31023979755E-01  0.73731221820E-01  0.51100000000E-03 0. -1.
         11    1    4    4    0    0  0.51392475114E-01  0.94207195691E-02 -0.10981268672E-01  0.53392750801E-01  0.51100000000E-03 0.  1.
</event>
<event>
 8    1  0.1191842E+005  0.1043930E+01  0.7957747E-01            NaN
         13   -1    0    0    0    0  0.00000000000E+00  0.00000000000E+00  0.74505805969E-08  0.10566000000E+00  0.10566000000E+00 0. -1.
     999900   -1    0    0    0    0 -0.00000000000E+00 -0.00000000000E+00 -0.74505805969E-08  0.93827000000E+00  0.93827000000E+00 0. -1.
     999902    2    1    2    0    0 -0.16914821081E-01  0.29691531008E-02  0.14730962051E-01  0.10213041677E+01  0.10210535122E+01 0.  0.
     999903    2    3    3    0    0 -0.13103924686E+00  0.10137468395E-01 -0.12396528096E-01  0.13349131020E+00  0.19804128541E-01 0.  0.
         14    1    1    2    0    0  0.16914821081E-01 -0.29691531008E-02 -0.14730962051E-01  0.22625832256E-01  0.00000000000E+00 0.  1.
     999901    1    3    3    0    0  0.11412442577E+00 -0.71683152945E-02  0.27127490147E-01  0.88781285755E+00  0.88000000000E+00 0.  1.
        -11    1    4    4    0    0 -0.78098822851E-01  0.14239096706E-01 -0.21919822603E-02  0.79418158584E-01  0.51100000000E-03 0. -1.
         11    1    4    4    0    0 -0.52940424005E-01 -0.41016283104E-02 -0.10204545836E-01  0.54073151613E-01  0.51100000000E-03 0.  1.
</event>
<event>
 8    1  0.1191842E+005  0.1043930E+01  0.7957747E-01            NaN
         13   -1    0    0    0    0  0.00000000000E+00  0.00000000000E+00  0.74505805969E-08  0.10566000000E+00  0.10566000000E+00 0.  1.
     999900   -1    0    0    0    0 -0.00000000000E+00 -0.00000000000E+00 -0.74505805969E-08  0.93827000000E+00  0.93827000000E+00 0. -1.
     999902    2    1    2    0    0 -0.18742548378E-01  0.14912101416E-01 -0.13951411731E-02  0.10199383284E+01  0.10196561153E+01 0.  0.
     999903    2    3    3    0    0  0.78984637215E-01  0.27658848419E-02  0.99631595841E-01  0.12870068612E+00  0.19778490429E-01 0.  0.
         14    1    1    2    0    0  0.18742548378E-01 -0.14912101416E-01  0.13951411731E-02  0.23991671622E-01  0.00000000000E+00 0.  1.
     999901    1    3    3    0    0 -0.97727185593E-01  0.12146216574E-01 -0.10102673701E+00  0.89123764226E+00  0.88000000000E+00 0. -1.
        -11    1    4    4    0    0  0.67642921466E-01 -0.45672287742E-02  0.85911445669E-01  0.10944159182E+00  0.51100000000E-03 0.  1.
         11    1    4    4    0    0  0.11341715748E-01  0.73331136161E-02  0.13720150172E-01  0.19259094298E-01  0.51100000000E-03 0. -1.
</event>
<event>
 8    1  0.1191842E+005  0.1043930E+01  0.7957747E-01            NaN
         13   -1    0    0    0    0  0.00000000000E+00  0.00000000000E+00  0.74505805969E-08  0.10566000000E+00  0.10566000000E+00 0.  1.
     999900   -1    0    0    0    0 -0.00000000000E+00 -0.00000000000E+00 -0.74505805969E-08  0.93827000000E+00  0.93827000000E+00 0. -1.
     999902    2    1    2    0    0 -0.68628507592E-02 -0.44701242495E-02 -0.21254766503E-01  0.10211518124E+01  0.10208977315E+01 0.  0.
     999903    2    3    3    0    0  0.73251298451E-01 -0.10236912273E+00 -0.34851228416E-01  0.13200201929E+00  0.19098035514E-01 0.  0.
         14    1    1    2    0    0  0.68628507592E-02  0.44701242495E-02  0.21254766503E-01  0.22778187602E-01  0.00000000000E+00 0.  1.
     999901    1    3    3    0    0 -0.80114149211E-01  0.97898998484E-01  0.13596461913E-01  0.88914979311E+00  0.88000000000E+00 0.  1.
        -11    1    4    4    0    0  0.62077415040E-01 -0.76001391522E-01 -0.21793511048E-01  0.10052380423E+00  0.51100000000E-03 0. -1.
         11    1    4    4    0    0  0.11173883412E-01 -0.26367731211E-01 -0.13057717368E-01  0.31478215064E-01  0.51100000000E-03 0.  1.
</event>
<event>
 8    1  0.1191842E+005  0.1043930E+01  0.7957747E-01            NaN
         13   -1    0    0    0    0  0.00000000000E+00  0.00000000000E+00  0.74505805969E-08  0.10566000000E+00  0.10566000000E+00 0. -1.
     999900   -1    0    0    0    0 -0.00000000000E+00 -0.00000000000E+00 -0.74505805969E-08  0.93827000000E+00  0.93827000000E+00 0.  1.
     999902    2    1    2    0    0  0.10983023434E-01 -0.12018599183E-01  0.16299852720E-01  0.10208917985E+01  0.10206318168E+01 0.  0.
     999903    2    3    3    0    0  0.99370350770E-01  0.20198190201E-01  0.84484432737E-01  0.13325483548E+00  0.18352065399E-01 0.  0.
         14    1    1    2    0    0 -0.10983023434E-01  0.12018599183E-01 -0.16299852720E-01  0.23038201509E-01  0.00000000000E+00 0.  1.
     999901    1    3    3    0    0 -0.88387327336E-01 -0.32216789384E-01 -0.68184580017E-01  0.88763696301E+00  0.88000000000E+00 0.  1.
        -11    1    4    4    0    0  0.26602160772E-01  0.76688534902E-02  0.33792793978E-01  0.43688674934E-01  0.51100000000E-03 0. -1.
         11    1    4    4    0    0  0.72768189998E-01  0.12529336711E-01  0.50691638758E-01  0.89566160546E-01  0.51100000000E-03 0.  1.
</event>
<event>
 8    1  0.1191842E+005  0.1043930E+01  0.7957747E-01            NaN
         13   -1    0    0    0    0  0.00000000000E+00  0.00000000000E+00  0.74505805969E-08  0.10566000000E+00  0.10566000000E+00 0. -1.
     999900   -1    0    0    0    0 -0.00000000000E+00 -0.00000000000E+00 -0.74505805969E-08  0.93827000000E+00  0.93827000000E+00 0.  1.
     999902    2    1    2    0    0  0.78314840790E-02 -0.18928655688E-02 -0.23495766705E-01  0.10190911970E+01  0.10187884479E+01 0.  0.
     999903    2    3    3    0    0 -0.59715629508E-01  0.24714317669E-03 -0.11558568714E+00  0.13170867199E+00  0.20520860593E-01 0.  0.
         14    1    1    2    0    0 -0.78314840790E-02  0.18928655688E-02  0.23495766705E-01  0.24838803030E-01  0.00000000000E+00 0. -1.
     999901    1    3    3    0    0  0.67547113588E-01 -0.21400087455E-02  0.92089920433E-01  0.88738252498E+00  0.88000000000E+00 0. -1.
        -11    1    4    4    0    0 -0.25377765847E-01  0.10248753964E-01 -0.49684182338E-01  0.56726070310E-01  0.51100000000E-03 0. -1.
         11    1    4    4    0    0 -0.34337863661E-01 -0.10001610787E-01 -0.65901504799E-01  0.74982601682E-01  0.51100000000E-03 0.  1.
</event>
<event>
 7    1  0.1736288E+005  0.1043930E+01  0.7957747E-01            NaN
         13   -1    0    0    0    0  0.00000000000E+00  0.00000000000E+00  0.74505805969E-08  0.10566000000E+00  0.10566000000E+00 0.  1.
     999900   -1    0    0    0    0 -0.00000000000E+00 -0.00000000000E+00 -0.74505805969E-08  0.93827000000E+00  0.93827000000E+00 0. -1.
     999903    2    1    2    0    0 -0.10441105584E-02  0.74545722680E-02 -0.89977444214E-01  0.92504638526E-01  0.20112356076E-01 0.  0.
         14    1    1    2    0    0 -0.61161218580E-01 -0.21566551301E-01  0.63319004308E-02  0.65160599724E-01  0.00000000000E+00 0.  1.
     999901    1    1    2    0    0  0.62205329139E-01  0.14111979033E-01  0.83645543784E-01  0.88626476175E+00  0.88000000000E+00 0.  1.
        -11    1    3    3    0    0  0.11124056433E-02  0.11911404770E-01 -0.29713418710E-01  0.32035408259E-01  0.51100000000E-03 0. -1.
         11    1    3    3    0    0 -0.21565162018E-02 -0.44568325017E-02 -0.60264025504E-01  0.60469230267E-01  0.51100000000E-03 0.  1.
</event>
<event>
 8    1  0.1191842E+005  0.1043930E+01  0.7957747E-01            NaN
         13   -1    0    0    0    0  0.00000000000E+00  0.00000000000E+00  0.74505805969E-08  0.10566000000E+00  0.10566000000E+00 0. -1.
     999900   -1    0    0    0    0 -0.00000000000E+00 -0.00000000000E+00 -0.74505805969E-08  0.93827000000E+00  0.93827000000E+00 0.  1.
     999902    2    1    2    0    0 -0.16094764328E-01 -0.93347236708E-02  0.14726456559E-01  0.10202013880E+01  0.10199254017E+01 0.  0.
     999903    2    3    3    0    0 -0.91660967506E-01  0.38593442828E-01  0.86053312807E-01  0.13279230498E+00  0.18369453512E-01 0.  0.
         14    1    1    2    0    0  0.16094764328E-01  0.93347236708E-02 -0.14726456559E-01  0.23728612003E-01  0.00000000000E+00 0.  1.
     999901    1    3    3    0    0  0.75566203178E-01 -0.47928166499E-01 -0.71326856248E-01  0.88740908302E+00  0.88000000000E+00 0.  1.
        -11    1    4    4    0    0 -0.72444521273E-01  0.36080943361E-01  0.62320408533E-01  0.10214762639E+00  0.51100000000E-03 0. -1.
         11    1    4    4    0    0 -0.19216446233E-01  0.25124994671E-02  0.23732904274E-01  0.30644678586E-01  0.51100000000E-03 0.  1.
</event>
<event>
 8    1  0.1191842E+005  0.1043930E+01  0.7957747E-01            NaN
         13   -1    0    0    0    0  0.00000000000E+00  0.00000000000E+00  0.74505805969E-08  0.10566000000E+00  0.10566000000E+00 0.  1.
     999900   -1    0    0    0    0 -0.00000000000E+00 -0.00000000000E+00 -0.74505805969E-08  0.93827000000E+00  0.93827000000E+00 0. -1.
     999902    2    1    2    0    0 -0.56493691192E-02  0.23139631815E-01 -0.19087269842E-02  0.10200343692E+01  0.10197544377E+01 0.  0.
     999903    2    3    3    0    0 -0.50529746056E-01  0.91629044117E-01 -0.79402403906E-01  0.13284198997E+00  0.19827142754E-01 0.  0.
         14    1    1    2    0    0  0.56493691192E-02 -0.23139631815E-01  0.19087269842E-02  0.23895630787E-01  0.00000000000E+00 0. -1.
     999901    1    3    3    0    0  0.44880376937E-01 -0.68489412302E-01  0.77493676922E-01  0.88719237925E+00  0.88000000000E+00 0.  1.
        -11    1    4    4    0    0 -0.11854532246E-02  0.16870457534E-01 -0.13018617564E-01  0.21348610284E-01  0.51100000000E-03 0.  1.
         11    1    4    4    0    0 -0.49344292832E-01  0.74758586583E-01 -0.66383786341E-01  0.11149337968E+00  0.51100000000E-03 0. -1.
</event>
<event>
 8    1  0.1191842E+005  0.1043930E+01  0.7957747E-01            NaN
         13   -1    0    0    0    0  0.00000000000E+00  0.00000000000E+00  0.74505805969E-08  0.10566000000E+00  0.10566000000E+00 0. -1.
     999900   -1    0    0    0    0 -0.00000000000E+00 -0.00000000000E+00 -0.74505805969E-08  0.93827000000E+00  0.93827000000E+00 0.  1.
     999902    2    1    2    0    0  0.20324008236E-01  0.57612207778E-02 -0.77208103166E-02  0.10214384930E+01  0.10211908377E+01 0.  0.
     999903    2    3    3    0    0 -0.48987519557E-01 -0.73732921157E-01 -0.94228180604E-01  0.13092912662E+00  0.20667981073E-01 0.  0.
         14    1    1    2    0    0 -0.20324008236E-01 -0.57612207778E-02  0.77208103166E-02  0.22491507010E-01  0.00000000000E+00 0. -1.
     999901    1    3    3    0    0  0.69311527794E-01  0.79494141935E-01  0.86507370287E-01  0.89050936637E+00  0.88000000000E+00 0. -1.
        -11    1    4    4    0    0 -0.67393598806E-02 -0.18797938086E-01 -0.11657859493E-01  0.23128948459E-01  0.51100000000E-03 0. -1.
         11    1    4    4    0    0 -0.42248159677E-01 -0.54934983071E-01 -0.82570321111E-01  0.10780017816E+00  0.51100000000E-03 0.  1.
</event>
<event>
 8    1  0.1191842E+005  0.1043930E+01  0.7957747E-01            NaN
         13   -1    0    0    0    0  0.00000000000E+00  0.00000000000E+00  0.74505805969E-08  0.10566000000E+00  0.10566000000E+00 0. -1.
     999900   -1    0    0    0    0 -0.00000000000E+00 -0.00000000000E+00 -0.74505805969E-08  0.93827000000E+00  0.93827000000E+00 0. -1.
     999902    2    1    2    0    0 -0.79762897927E-02  0.14895104095E-01 -0.16973004505E-01  0.10199807159E+01  0.10196995110E+01 0.  0.
     999903    2    3    3    0    0  0.58114817135E-01  0.41389574216E-01  0.10553113592E+00  0.12864617954E+00  0.17960791683E-01 0.  0.
         14    1    1    2    0    0  0.79762897927E-02 -0.14895104095E-01  0.16973004505E-01  0.23949284056E-01  0.00000000000E+00 0. -1.
     999901    1    3    3    0    0 -0.66091106928E-01 -0.26494470121E-01 -0.12250414042E+00  0.89133453640E+00  0.88000000000E+00 0. -1.
        -11    1    4    4    0    0  0.34219620882E-01  0.30625574094E-01  0.54448521846E-01  0.71230687868E-01  0.51100000000E-03 0. -1.
         11    1    4    4    0    0  0.23895196253E-01  0.10764000122E-01  0.51082614074E-01  0.57415491674E-01  0.51100000000E-03 0.  1.
</event>
<event>
 8    1  0.1191842E+005  0.1043930E+01  0.7957747E-01            NaN
         13   -1    0    0    0    0  0.00000000000E+00  0.00000000000E+00  0.74505805969E-08  0.10566000000E+00  0.10566000000E+00 0.  1.
     999900   -1    0    0    0    0 -0.00000000000E+00 -0.00000000000E+00 -0.74505805969E-08  0.93827000000E+00  0.93827000000E+00 0.  1.
     999902    2    1    2    0    0 -0.72864177432E-02 -0.21056474678E-01 -0.70421432549E-02  0.10205620991E+01  0.10202945356E+01 0.  0.
     999903    2    3    3    0    0 -0.82352875367E-01  0.69754325784E-01  0.68640716405E-01  0.12949000901E+00  0.20210206303E-01 0.  0.
         14    1    1    2    0    0  0.72864177432E-02  0.21056474678E-01  0.70421432549E-02  0.23367900869E-01  0.00000000000E+00 0.  1.
     999901    1    3    3    0    0  0.75066457624E-01 -0.90810800463E-01 -0.75682859660E-01  0.89107209012E+00  0.88000000000E+00 0.  1.
        -11    1    4    4    0    0 -0.44659425038E-01  0.35201284547E-01  0.24433801947E-01  0.61893993869E-01  0.51100000000E-03 0. -1.
         11    1    4    4    0    0 -0.37693450329E-01  0.34553041238E-01  0.44206914458E-01  0.67596015145E-01  0.51100000000E-03 0.  1.
</event>
<event>
 8    1  0.1191842E+005  0.1043930E+01  0.7957747E-01            NaN
         13   -1    0    0    0    0  0.00000000000E+00  0.00000000000E+00  0.74505805969E-08  0.10566000000E+00  0.10566000000E+00 0. -1.
     999900   -1    0    0    0    0 -0.00000000000E+00 -0.00000000000E+00 -0.74505805969E-08  0.93827000000E+00  0.93827000000E+00 0.  1.
     999902    2    1    2    0    0  0.63608877112E-02 -0.24507260572E-02 -0.22973550723E-01  0.10199664655E+01  0.10196849219E+01 0.  0.
     999903    2    3    3    0    0 -0.35854968846E-01  0.63948535606E-01 -0.10839985004E+00  0.13233552134E+00  0.19676603467E-01 0.  0.
         14    1    1    2    0    0 -0.63608877112E-02  0.24507260572E-02  0.22973550723E-01  0.23963534454E-01  0.00000000000E+00 0. -1.
     999901    1    3    3    0    0  0.42215856557E-01 -0.66399261663E-01  0.85426299313E-01  0.88763094420E+00  0.88000000000E+00 0.  1.
        -11    1    4    4    0    0 -0.23267511958E-01  0.23405522488E-01 -0.40380454293E-01  0.52153981685E-01  0.51100000000E-03 0. -1.
         11    1    4    4    0    0 -0.12587456887E-01  0.40543013118E-01 -0.68019395743E-01  0.80181539657E-01  0.51100000000E-03 0.  1.
</event>
<event>
 8    1  0.1191842E+005  0.1043930E+01  0.7957747E-01            NaN
         13   -1    0    0    0    0  0.00000000000E+00  0.00000000000E+00  0.74505805969E-08  0.10566000000E+00  0.10566000000E+00 0. -1.
     999900   -1    0    0    0    0 -0.00000000000E+00 -0.00000000000E+00 -0.74505805969E-08  0.93827000000E+00  0.93827000000E+00 0.  1.
     999902    2    1    2    0    0 -0.21663009957E-01  0.46012901180E-03 -0.93695306809E-02  0.10203230980E+01  0.10200499686E+01 0.  0.
     999903    2    3    3    0    0 -0.12289325953E+00 -0.21591047515E-01 -0.43278208420E-01  0.13359674995E+00  0.20153453860E-01 0.  0.
         14    1    1    2    0    0  0.21663009957E-01 -0.46012901180E-03  0.93695306809E-02  0.23606902048E-01  0.00000000000E+00 0.  1.
     999901    1    3    3    0    0  0.10123024957E+00  0.22051176527E-01  0.33908677739E-01  0.88672634800E+00  0.88000000000E+00 0. -1.
        -11    1    4    4    0    0 -0.45449626658E-01 -0.12002736267E-02 -0.23144381408E-01  0.51019924852E-01  0.51100000000E-03 0. -1.
         11    1    4    4    0    0 -0.77443632872E-01 -0.20390773889E-01 -0.20133827013E-01  0.82576825099E-01  0.51100000000E-03 0.  1.
</event>
<event>
 8    1  0.1191842E+005  0.1043930E+01  0.7957747E-01            NaN
         13   -1    0    0    0    0  0.00000000000E+00  0.00000000000E+00  0.74505805969E-08  0.10566000000E+00  0.10566000000E+00 0. -1.
     999900   -1    0    0    0    0 -0.00000000000E+00 -0.00000000000E+00 -0.74505805969E-08  0.93827000000E+00  0.93827000000E+00 0. -1.
     999902    2    1    2    0    0 -0.38063505581E-02 -0.20661744358E-01 -0.12000957530E-01  0.10197345672E+01  0.10194474821E+01 0.  0.
     999903    2    3    3    0    0 -0.10335947397E+00 -0.47610016405E-01  0.63100967631E-01  0.13053417762E+00  0.10370385242E-01 0.  0.
         14    1    1    2    0    0  0.38063505581E-02  0.20661744358E-01  0.12000957530E-01  0.24195432753E-01  0.00000000000E+00 0. -1.
     999901    1    3    3    0    0  0.99553123411E-01  0.26948272047E-01 -0.75101925160E-01  0.88920038963E+00  0.88000000000E+00 0. -1.
        -11    1    4    4    0    0 -0.27976367783E-01 -0.16095070006E-01  0.13804643741E-01  0.35107801735E-01  0.51100000000E-03 0. -1.
         11    1    4    4    0    0 -0.75383106186E-01 -0.31514946399E-01  0.49296323889E-01  0.95426375886E-01  0.51100000000E-03 0.  1.
</event>
<event>
 8    1  0.1191842E+005  0.1043930E+01  0.7957747E-01            NaN
         13   -1    0    0    0    0  0.00000000000E+00  0.00000000000E+00  0.74505805969E-08  0.10566000000E+00  0.10566000000E+00 0. -1.
     999900   -1    0    0    0    0 -0.00000000000E+00 -0.00000000000E+00 -0.74505805969E-08  0.93827000000E+00  0.93827000000E+00 0. -1.
     999902    2    1    2    0    0  0.69636172092E-02 -0.71451934705E-02 -0.23365899004E-01  0.10185230917E+01  0.10182061566E+01 0.  0.
     999903    2    3    3    0    0  0.10398117697E+00  0.62811697384E-01  0.36183106545E-01  0.12843744549E+00  0.20725967140E-01 0.  0.
         14    1    1    2    0    0 -0.69636172092E-02  0.71451934705E-02  0.23365899004E-01  0.25406908325E-01  0.00000000000E+00 0. -1.
     999901    1    3    3    0    0 -0.97017559757E-01 -0.69956890854E-01 -0.59549005549E-01  0.89008564618E+00  0.88000000000E+00 0.  1.
        -11    1    4    4    0    0  0.24064491208E-01  0.68506281281E-02  0.12808755960E-01  0.28113274322E-01  0.51100000000E-03 0.  1.
         11    1    4    4    0    0  0.79916685758E-01  0.55961069255E-01  0.23374350585E-01  0.10032417117E+00  0.51100000000E-03 0. -1.
</event>
<event>
 8    1  0.1191842E+005  0.1043930E+01  0.7957747E-01            NaN
         13   -1    0    0    0    0  0.00000000000E+00  0.00000000000E+00  0.74505805969E-08  0.10566000000E+00  0.10566000000E+00 0.  1.
     999900   -1    0    0    0    0 -0.00000000000E+00 -0.00000000000E+00 -0.74505805969E-08  0.93827000000E+00  0.93827000000E+00 0.  1.
     999902    2    1    2    0    0 -0.21961862806E-01  0.61676570916E-02  0.63350883087E-02  0.10202551873E+01  0.10199804657E+01 0.  0.
     999903    2    3    3    0    0 -0.90580289819E-01 -0.26385243584E-01  0.91392395647E-01  0.13289791687E+00  0.20206839056E-01 0.  0.
         14    1    1    2    0    0  0.21961862806E-01 -0.61676570916E-02 -0.63350883087E-02  0.23674812688E-01  0.00000000000E+00 0.  1.
     999901    1    3    3    0    0  0.68618427013E-01  0.32552900676E-01 -0.85057307338E-01  0.88735727044E+00  0.88000000000E+00 0.  1.
        -11    1    4    4    0    0 -0.28978072619E-01 -0.23460257362E-02  0.18424988323E-01  0.34423449059E-01  0.51100000000E-03 0. -1.
         11    1    4    4    0    0 -0.61602217201E-01 -0.24039217848E-01  0.72967407324E-01  0.98474467815E-01  0.51100000000E-03 0.  1.
</event>
<event>
 8    1  0.1191842E+005  0.1043930E+01  0.7957747E-01            NaN
         13   -1    0    0    0    0  0.00000000000E+00  0.00000000000E+00  0.74505805969E-08  0.10566000000E+00  0.10566000000E+00 0. -1.
     999900   -1    0    0    0    0 -0.00000000000E+00 -0.00000000000E+00 -0.74505805969E-08  0.93827000000E+00  0.93827000000E+00 0. -1.
     999902    2    1    2    0    0 -0.12363648536E-01  0.50474446558E-02 -0.17415261191E-01  0.10219839793E+01  0.10217483184E+01 0.  0.
     999903    2    3    3    0    0 -0.74107436628E-01  0.10878677718E+00  0.81325892302E-02  0.13337448286E+00  0.19903231369E-01 0.  0.
         14    1    1    2    0    0  0.12363648536E-01 -0.50474446558E-02  0.17415261191E-01  0.21946020711E-01  0.00000000000E+00 0. -1.
     999901    1    3    3    0    0  0.61743788092E-01 -0.10373933252E+00 -0.25547850421E-01  0.88860949643E+00  0.88000000000E+00 0. -1.
        -11    1    4    4    0    0 -0.56619578520E-01  0.72733570909E-01 -0.13872106581E-02  0.92185326833E-01  0.51100000000E-03 0. -1.
         11    1    4    4    0    0 -0.17487858107E-01  0.36053206269E-01  0.95197998884E-02  0.41189156029E-01  0.51100000000E-03 0.  1.
</event>
<event>
 8    1  0.1191842E+005  0.1043930E+01  0.7957747E-01            NaN
         13   -1    0    0    0    0  0.00000000000E+00  0.00000000000E+00  0.74505805969E-08  0.10566000000E+00  0.10566000000E+00 0.  1.
     999900   -1    0    0    0    0 -0.00000000000E+00 -0.00000000000E+00 -0.74505805969E-08  0.93827000000E+00  0.93827000000E+00 0. -1.
     999902    2    1    2    0    0 -0.21970932085E-01 -0.93754024146E-02  0.25328141231E-02  0.10199084435E+01  0.10196255185E+01 0.  0.
     999903    2    3    3    0    0 -0.11229108737E-01 -0.19649962308E-02 -0.12801697030E+00  0.13018177366E+00  0.20712204487E-01 0.  0.
         14    1    1    2    0    0  0.21970932085E-01  0.93754024146E-02 -0.25328141231E-02  0.24021556455E-01  0.00000000000E+00 0.  1.
     999901    1    3    3    0    0 -0.10741823348E-01 -0.74104061837E-02  0.13054978443E+00  0.88972666988E+00  0.88000000000E+00 0.  1.
        -11    1    4    4    0    0 -0.60651137104E-02  0.26567303134E-02 -0.11678713123E+00  0.11697580503E+00  0.51100000000E-03 0.  1.
         11    1    4    4    0    0 -0.51639950265E-02 -0.46217265443E-02 -0.11229839069E-01  0.13205968628E-01  0.51100000000E-03 0. -1.
</event>
<event>
 8    1  0.1191842E+005  0.1043930E+01  0.7957747E-01            NaN
         13   -1    0    0    0    0  0.00000000000E+00  0.00000000000E+00  0.74505805969E-08  0.10566000000E+00  0.10566000000E+00 0. -1.
     999900   -1    0    0    0    0 -0.00000000000E+00 -0.00000000000E+00 -0.74505805969E-08  0.93827000000E+00  0.93827000000E+00 0. -1.
     999902    2    1    2    0    0  0.16107299723E-01  0.11585249078E-01  0.11364114915E-01  0.10210650441E+01  0.10208090018E+01 0.  0.
     999903    2    3    3    0    0  0.69075338386E-01 -0.60101495326E-01 -0.91443976140E-01  0.13060779862E+00  0.17686270773E-01 0.  0.
         14    1    1    2    0    0 -0.16107299723E-01 -0.11585249078E-01 -0.11364114915E-01  0.22864955901E-01  0.00000000000E+00 0. -1.
     999901    1    3    3    0    0 -0.52968038663E-01  0.71686744404E-01  0.10280809106E+00  0.89045724548E+00  0.88000000000E+00 0.  1.
        -11    1    4    4    0    0  0.13528460003E-01 -0.68217889467E-02 -0.23352283796E-01  0.27841449567E-01  0.51100000000E-03 0. -1.
         11    1    4    4    0    0  0.55546878383E-01 -0.53279706379E-01 -0.68091692344E-01  0.10276634905E+00  0.51100000000E-03 0.  1.
</event>
<event>
 8    1  0.1191842E+005  0.1043930E+01  0.7957747E-01            NaN
         13   -1    0    0    0    0  0.00000000000E+00  0.00000000000E+00  0.74505805969E-08  0.10566000000E+00  0.10566000000E+00 0.  1.
     999900   -1    0    0    0    0 -0.00000000000E+00 -0.00000000000E+00 -0.74505805969E-08  0.93827000000E+00  0.93827000000E+00 0.  1.
     999902    2    1    2    0    0  0.16416870805E-01  0.10417833234E-01 -0.13450228812E-01  0.10202878015E+01  0.10200138451E+01 0.  0.
     999903    2    3    3    0    0 -0.25973649529E-01 -0.49892625025E-01 -0.11658836595E+00  0.13120300072E+00  0.21388684435E-01 0.  0.
         14    1    1    2    0    0 -0.16416870805E-01 -0.10417833234E-01  0.13450228812E-01  0.23642198531E-01  0.00000000000E+00 0.  1.
     999901    1    3    3    0    0  0.42390520334E-01  0.60310458259E-01  0.10313813714E+00  0.88908480075E+00  0.88000000000E+00 0. -1.
        -11    1    4    4    0    0 -0.22121648708E-01 -0.30385216746E-01 -0.56102624789E-01  0.67530692040E-01  0.51100000000E-03 0. -1.
         11    1    4    4    0    0 -0.38520008214E-02 -0.19507408280E-01 -0.60485741159E-01  0.63672308680E-01  0.51100000000E-03 0.  1.
</event>
<event>
 8    1  0.1191842E+005  0.1043930E+01  0.7957747E-01            NaN
         13   -1    0    0    0    0  0.00000000000E+00  0.00000000000E+00  0.74505805969E-08  0.10566000000E+00  0.10566000000E+00 0.  1.
     999900   -1    0    0    0    0 -0.00000000000E+00 -0.00000000000E+00 -0.74505805969E-08  0.93827000000E+00  0.93827000000E+00 0. -1.
     999902    2    1    2    0    0  0.17731991608E-01 -0.41235369188E-02  0.15448764593E-01  0.10200534129E+01  0.10197739327E+01 0.  0.
     999903    2    3    3    0    0 -0.64226088136E-01  0.10780391083E+00  0.23298011708E-01  0.12915134699E+00  0.19763590105E-01 0.  0.
         14    1    1    2    0    0 -0.17731991608E-01  0.41235369188E-02 -0.15448764593E-01  0.23876587080E-01  0.00000000000E+00 0. -1.
     999901    1    3    3    0    0  0.81958079744E-01 -0.11192744774E+00 -0.78492471144E-02  0.89090206593E+00  0.88000000000E+00 0.  1.
        -11    1    4    4    0    0 -0.21714411777E-01  0.26531391957E-01  0.13721015189E-01  0.36931799534E-01  0.51100000000E-03 0. -1.
         11    1    4    4    0    0 -0.42511676359E-01  0.81272518869E-01  0.95769965188E-02  0.92219547459E-01  0.51100000000E-03 0.  1.
</event>
<event>
 7    1  0.1191842E+005  0.1043930E+01  0.7957747E-01            NaN
         13   -1    0    0    0    0  0.00000000000E+00  0.00000000000E+00  0.74505805969E-08  0.10566000000E+00  0.10566000000E+00 0. -1.
     999900   -1    0    0    0    0 -0.00000000000E+00 -0.00000000000E+00 -0.74505805969E-08  0.93827000000E+00  0.93827000000E+00 0.  1.
     999903    2    1    2    0    0  0.12305901599E-01 -0.82089451805E-01  0.69281998781E-01  0.11024624249E+00  0.21543567848E-01 0.  0.
         14    1    1    2    0    0  0.12215865661E-01  0.29455425976E-01  0.32963077189E-01  0.45862991083E-01  0.00000000000E+00 0. -1.
     999901    1    1    2    0    0 -0.24521767260E-01  0.52634025829E-01 -0.10224507597E+00  0.88782076643E+00  0.88000000000E+00 0.  1.
        -11    1    3    3    0    0  0.42157036813E-02 -0.38944679008E-01  0.46448644822E-01  0.60763458652E-01  0.51100000000E-03 0. -1.
         11    1    3    3    0    0  0.80901979180E-02 -0.43144772797E-01  0.22833353959E-01  0.49482783835E-01  0.51100000000E-03 0.  1.
</event>
<event>
 8    1  0.1191842E+005  0.1043930E+01  0.7957747E-01            NaN
         13   -1    0    0    0    0  0.00000000000E+00  0.00000000000E+00  0.74505805969E-08  0.10566000000E+00  0.10566000000E+00 0. -1.
     999900   -1    0    0    0    0 -0.00000000000E+00 -0.00000000000E+00 -0.74505805969E-08  0.93827000000E+00  0.93827000000E+00 0. -1.
     999902    2    1    2    0    0  0.14481033638E-01 -0.20214080195E-01 -0.96458493429E-03  0.10190454707E+01  0.10187415922E+01 0.  0.
     999903    2    3    3    0    0 -0.10122107990E+00  0.10366616948E-02 -0.75415275922E-01  0.12810132068E+00  0.21810612850E-01 0.  0.
         14    1    1    2    0    0 -0.14481033638E-01  0.20214080195E-01  0.96458493429E-03  0.24884529280E-01  0.00000000000E+00 0. -1.
     999901    1    3    3    0    0  0.11570211354E+00 -0.21250741890E-01  0.74450690988E-01  0.89094415004E+00  0.88000000000E+00 0. -1.
        -11    1    4    4    0    0 -0.63327473657E-01  0.44379246123E-02 -0.34600181713E-01  0.72301436986E-01  0.51100000000E-03 0.  1.
         11    1    4    4    0    0 -0.37893606244E-01 -0.34012629175E-02 -0.40815094209E-01  0.55799883691E-01  0.51100000000E-03 0. -1.
</event>
<event>
 8    1  0.1191842E+005  0.1043930E+01  0.7957747E-01            NaN
         13   -1    0    0    0    0  0.00000000000E+00  0.00000000000E+00  0.74505805969E-08  0.10566000000E+00  0.10566000000E+00 0. -1.
     999900   -1    0    0    0    0 -0.00000000000E+00 -0.00000000000E+00 -0.74505805969E-08  0.93827000000E+00  0.93827000000E+00 0.  1.
     999902    2    1    2    0    0 -0.53784635984E-03  0.26937033031E-01 -0.10767597951E-01  0.10149156209E+01  0.10145008050E+01 0.  0.
     999903    2    3    3    0    0 -0.43052395717E-01 -0.91493809716E-01 -0.68050698738E-01  0.12412119736E+00  0.23463760200E-01 0.  0.
         14    1    1    2    0    0  0.53784635984E-03 -0.26937033031E-01  0.10767597951E-01  0.29014379071E-01  0.00000000000E+00 0. -1.
     999901    1    3    3    0    0  0.42514549357E-01  0.11843084275E+00  0.57283100787E-01  0.89079442357E+00  0.88000000000E+00 0. -1.
        -11    1    4    4    0    0 -0.28874168319E-01 -0.42283243920E-01 -0.44124627438E-01  0.67593151872E-01  0.51100000000E-03 0. -1.
         11    1    4    4    0    0 -0.14178227399E-01 -0.49210565796E-01 -0.23926071300E-01  0.56528045491E-01  0.51100000000E-03 0.  1.
</event>
<event>
 8    1  0.1191842E+005  0.1043930E+01  0.7957747E-01            NaN
         13   -1    0    0    0    0  0.00000000000E+00  0.00000000000E+00  0.74505805969E-08  0.10566000000E+00  0.10566000000E+00 0. -1.
     999900   -1    0    0    0    0 -0.00000000000E+00 -0.00000000000E+00 -0.74505805969E-08  0.93827000000E+00  0.93827000000E+00 0. -1.
     999902    2    1    2    0    0  0.17011546568E-01 -0.15904623277E-01  0.44302957552E-02  0.10202239400E+01  0.10199484843E+01 0.  0.
     999903    2    3    3    0    0  0.11898817089E+00 -0.51931764493E-01  0.22504502967E-01  0.13341851393E+00  0.20951234602E-01 0.  0.
         14    1    1    2    0    0 -0.17011546568E-01  0.15904623277E-01 -0.44302957552E-02  0.23706059957E-01  0.00000000000E+00 0.  1.
     999901    1    3    3    0    0 -0.10197662432E+00  0.36027141217E-01 -0.18074207212E-01  0.88680542611E+00  0.88000000000E+00 0. -1.
        -11    1    4    4    0    0  0.11275873459E+00 -0.48281522343E-01  0.25989867273E-01  0.12538489522E+00  0.51100000000E-03 0.  1.
         11    1    4    4    0    0  0.62294362973E-02 -0.36502421499E-02 -0.34853643063E-02  0.80336187165E-02  0.51100000000E-03 0. -1.
</event>
<event>
 8    1  0.1191842E+005  0.1043930E+01  0.7957747E-01            NaN
         13   -1    0    0    0    0  0.00000000000E+00  0.00000000000E+00  0.74505805969E-08  0.10566000000E+00  0.10566000000E+00 0.  1.
     999900   -1    0    0    0    0 -0.00000000000E+00 -0.00000000000E+00 -0.74505805969E-08  0.93827000000E+00  0.93827000000E+00 0.  1.
     999902    2    1    2    0    0  0.14481434917E-01 -0.15257055951E-01 -0.23144936997E-01  0.10126541655E+01  0.10121710731E+01 0.  0.
     999903    2    3    3    0    0  0.12461608228E-01 -0.53990872555E-01 -0.11264119715E+00  0.12726500316E+00  0.20929303248E-01 0.  0.
         14    1    1    2    0    0 -0.14481434917E-01  0.15257055951E-01  0.23144936997E-01  0.31275834475E-01  0.00000000000E+00 0.  1.
     999901    1    3    3    0    0  0.20198266891E-02  0.38733816604E-01  0.89496260157E-01  0.88538916236E+00  0.88000000000E+00 0. -1.
        -11    1    4    4    0    0  0.12229366882E-01 -0.28316209942E-01 -0.79937644711E-01  0.85683448359E-01  0.51100000000E-03 0. -1.
         11    1    4    4    0    0  0.23224134673E-03 -0.25674662614E-01 -0.32703552443E-01  0.41581554802E-01  0.51100000000E-03 0.  1.
</event>
<event>
 8    1  0.1191842E+005  0.1043930E+01  0.7957747E-01            NaN
         13   -1    0    0    0    0  0.00000000000E+00  0.00000000000E+00  0.74505805969E-08  0.10566000000E+00  0.10566000000E+00 0. -1.
     999900   -1    0    0    0    0 -0.00000000000E+00 -0.00000000000E+00 -0.74505805969E-08  0.93827000000E+00  0.93827000000E+00 0.  1.
     999902    2    1    2    0    0  0.15343859978E-01 -0.17974997859E-01 -0.45232266562E-02  0.10198677024E+01  0.10195838054E+01 0.  0.
     999903    2    3    3    0    0  0.29044994478E-02 -0.12548634978E+00  0.36922210768E-01  0.13226917109E+00  0.19406799671E-01 0.  0.
         14    1    1    2    0    0 -0.15343859978E-01  0.17974997859E-01  0.45232266562E-02  0.24062297613E-01  0.00000000000E+00 0. -1.
     999901    1    3    3    0    0  0.12439360530E-01  0.10751135192E+00 -0.41445437424E-01  0.88759853130E+00  0.88000000000E+00 0.  1.
        -11    1    4    4    0    0  0.10632499008E-01 -0.56931181726E-01  0.19496599688E-01  0.61111275623E-01  0.51100000000E-03 0. -1.
         11    1    4    4    0    0 -0.77279995605E-02 -0.68555168056E-01  0.17425611080E-01  0.71157895464E-01  0.51100000000E-03 0.  1.
</event>
<event>
 8    1  0.1191842E+005  0.1043930E+01  0.7957747E-01            NaN
         13   -1    0    0    0    0  0.00000000000E+00  0.00000000000E+00  0.74505805969E-08  0.10566000000E+00  0.10566000000E+00 0. -1.
     999900   -1    0    0    0    0 -0.00000000000E+00 -0.00000000000E+00 -0.74505805969E-08  0.93827000000E+00  0.93827000000E+00 0.  1.
     999902    2    1    2    0    0 -0.66457173070E-02 -0.86782659326E-02  0.21024129121E-01  0.10202341805E+01  0.10199589654E+01 0.  0.
     999903    2    3    3    0    0 -0.25786968038E-01 -0.45417943082E-01  0.12130192999E+00  0.13357086855E+00  0.19981527228E-01 0.  0.
         14    1    1    2    0    0  0.66457173070E-02  0.86782659326E-02 -0.21024129121E-01  0.23695819535E-01  0.00000000000E+00 0.  1.
     999901    1    3    3    0    0  0.19141250731E-01  0.36739677150E-01 -0.10027780087E+00  0.88666331192E+00  0.88000000000E+00 0.  1.
        -11    1    4    4    0    0 -0.35140476895E-02 -0.11902969837E-01  0.51704357312E-01  0.53175472806E-01  0.51100000000E-03 0. -1.
         11    1    4    4    0    0 -0.22272920348E-01 -0.33514973245E-01  0.69597572678E-01  0.80395395739E-01  0.51100000000E-03 0.  1.
</event>
<event>
 8    1  0.1191842E+005  0.1043930E+01  0.7957747E-01            NaN
         13   -1    0    0    0    0  0.00000000000E+00  0.00000000000E+00  0.74505805969E-08  0.10566000000E+00  0.10566000000E+00 0.  1.
     999900   -1    0    0    0    0 -0.00000000000E+00 -0.00000000000E+00 -0.74505805969E-08  0.93827000000E+00  0.93827000000E+00 0. -1.
     999902    2    1    2    0    0 -0.17204087889E-01 -0.17197335353E-01 -0.37463973399E-02  0.10193177170E+01  0.10190205315E+01 0.  0.
     999903    2    3    3    0    0 -0.82686222967E-01 -0.97499124811E-01 -0.30159598660E-01  0.13284496238E+00  0.19876917064E-01 0.  0.
         14    1    1    2    0    0  0.17204087889E-01  0.17197335353E-01  0.37463973399E-02  0.24612283039E-01  0.00000000000E+00 0.  1.
     999901    1    3    3    0    0  0.65482135078E-01  0.80301789458E-01  0.26413201320E-01  0.88647275458E+00  0.88000000000E+00 0. -1.
        -11    1    4    4    0    0 -0.54855049277E-01 -0.72027873080E-01 -0.29094233950E-01  0.95099035230E-01  0.51100000000E-03 0.  1.
         11    1    4    4    0    0 -0.27831173690E-01 -0.25471251731E-01 -0.10653647098E-02  0.37745927153E-01  0.51100000000E-03 0. -1.
</event>
<event>
 8    1  0.1191842E+005  0.1043930E+01  0.7957747E-01            NaN
         13   -1    0    0    0    0  0.00000000000E+00  0.00000000000E+00  0.74505805969E-08  0.10566000000E+00  0.10566000000E+00 0.  1.
     999900   -1    0    0    0    0 -0.00000000000E+00 -0.00000000000E+00 -0.74505805969E-08  0.93827000000E+00  0.93827000000E+00 0. -1.
     999902    2    1    2    0    0  0.21765937886E-01 -0.42563654166E-02 -0.25651316168E-02  0.10216039480E+01  0.10213599630E+01 0.  0.
     999903    2    3    3    0    0  0.64384630293E-01 -0.47736682767E-01 -0.10499747016E+00  0.13357282526E+00  0.19825725894E-01 0.  0.
         14    1    1    2    0    0 -0.21765937886E-01  0.42563654166E-02  0.25651316168E-02  0.22326052021E-01  0.00000000000E+00 0.  1.
     999901    1    3    3    0    0 -0.42618692407E-01  0.43480317350E-01  0.10243233855E+00  0.88803112272E+00  0.88000000000E+00 0.  1.
        -11    1    4    4    0    0  0.42550579543E-01 -0.42426168144E-01 -0.76562290251E-01  0.97327164617E-01  0.51100000000E-03 0.  1.
         11    1    4    4    0    0  0.21834050750E-01 -0.53105146233E-02 -0.28435179913E-01  0.36245660643E-01  0.51100000000E-03 0. -1.
</event>
<event>
 8    1  0.1191842E+005  0.1043930E+01  0.7957747E-01            NaN
         13   -1    0    0    0    0  0.00000000000E+00  0.00000000000E+00  0.74505805969E-08  0.10566000000E+00  0.10566000000E+00 0. -1.
     999900   -1    0    0    0    0 -0.00000000000E+00 -0.00000000000E+00 -0.74505805969E-08  0.93827000000E+00  0.93827000000E+00 0. -1.
     999902    2    1    2    0    0 -0.98022944668E-02 -0.29922858340E-02 -0.19808223572E-01  0.10216274335E+01  0.10213839672E+01 0.  0.
     999903    2    3    3    0    0 -0.44622734163E-01 -0.39511473101E-01  0.11358787097E+00  0.13014516666E+00  0.21982153278E-01 0.  0.
         14    1    1    2    0    0  0.98022944668E-02  0.29922858340E-02  0.19808223572E-01  0.22302566499E-01  0.00000000000E+00 0. -1.
     999901    1    3    3    0    0  0.34820439696E-01  0.36519187267E-01 -0.13339609454E+00  0.89148226684E+00  0.88000000000E+00 0. -1.
        -11    1    4    4    0    0 -0.51931298336E-02 -0.24285079131E-02  0.30096072593E-01  0.30641490738E-01  0.51100000000E-03 0. -1.
         11    1    4    4    0    0 -0.39429604329E-01 -0.37082965188E-01  0.83491798373E-01  0.99503675919E-01  0.51100000000E-03 0.  1.
</event>
<event>
 8    1  0.1191842E+005  0.1043930E+01  0.7957747E-01            NaN
         13   -1    0    0    0    0  0.00000000000E+00  0.00000000000E+00  0.74505805969E-08  0.10566000000E+00  0.10566000000E+00 0. -1.
     999900   -1    0    0    0    0 -0.00000000000E+00 -0.00000000000E+00 -0.74505805969E-08  0.93827000000E+00  0.93827000000E+00 0. -1.
     999902    2    1    2    0    0 -0.24405852090E-01  0.55671448410E-02  0.41763318746E-02  0.10185512596E+01  0.10182350357E+01 0.  0.
     999903    2    3    3    0    0 -0.17494492190E-01 -0.12549985458E+00  0.10440060420E-01  0.12879536072E+00  0.20566461195E-01 0.  0.
         14    1    1    2    0    0  0.24405852090E-01 -0.55671448410E-02 -0.41763318746E-02  0.25378740431E-01  0.00000000000E+00 0.  1.
     999901    1    3    3    0    0 -0.69113598997E-02  0.13106699942E+00 -0.62637285453E-02  0.88975589884E+00  0.88000000000E+00 0. -1.
        -11    1    4    4    0    0 -0.13319328791E-01 -0.49814594159E-01  0.12129925388E-01  0.52974470470E-01  0.51100000000E-03 0. -1.
         11    1    4    4    0    0 -0.41751633997E-02 -0.75685260421E-01 -0.16898649685E-02  0.75820890255E-01  0.51100000000E-03 0.  1.
</event>
<event>
 8    1  0.1191842E+005  0.1043930E+01  0.7957747E-01            NaN
         13   -1    0    0    0    0  0.00000000000E+00  0.00000000000E+00  0.74505805969E-08  0.10566000000E+00  0.10566000000E+00 0.  1.
     999900   -1    0    0    0    0 -0.00000000000E+00 -0.00000000000E+00 -0.74505805969E-08  0.93827000000E+00  0.93827000000E+00 0.  1.
     999902    2    1    2    0    0  0.72682059735E-02  0.17675109479E-01  0.13096803684E-01  0.10207618628E+01  0.10204989064E+01 0.  0.
     999903    2    3    3    0    0 -0.39981196905E-02  0.52648941438E-01 -0.11758704260E+00  0.13035276208E+00  0.19422512666E-01 0.  0.
         14    1    1    2    0    0 -0.72682059735E-02 -0.17675109479E-01 -0.13096803684E-01  0.23168137170E-01  0.00000000000E+00 0. -1.
     999901    1    3    3    0    0  0.11266325664E-01 -0.34973831959E-01  0.13068384629E+00  0.89040910075E+00  0.88000000000E+00 0. -1.
        -11    1    4    4    0    0 -0.11139798288E-01  0.41785419200E-01 -0.90690806449E-01  0.10047487178E+00  0.51100000000E-03 0.  1.
         11    1    4    4    0    0  0.71416785980E-02  0.10863522239E-01 -0.26896236155E-01  0.29877890302E-01  0.51100000000E-03 0. -1.
</event>
<event>
 8    1  0.1191842E+005  0.1043930E+01  0.7957747E-01            NaN
         13   -1    0    0    0    0  0.00000000000E+00  0.00000000000E+00  0.74505805969E-08  0.10566000000E+00  0.10566000000E+00 0.  1.
     999900   -1    0    0    0    0 -0.00000000000E+00 -0.00000000000E+00 -0.74505805969E-08  0.93827000000E+00  0.93827000000E+00 0. -1.
     999902    2    1    2    0    0  0.12512842511E-01  0.54118932887E-02 -0.19818447793E-01  0.10198752564E+01  0.10195915398E+01 0.  0.
     999903    2    3    3    0    0 -0.96224171574E-01  0.73052439807E-01  0.39338630183E-01  0.12864097652E+00  0.20130147988E-01 0.  0.
         14    1    1    2    0    0 -0.12512842511E-01 -0.54118932887E-02  0.19818447793E-01  0.24054743599E-01  0.00000000000E+00 0.  1.
     999901    1    3    3    0    0  0.10873701408E+00 -0.67640546518E-01 -0.59157077976E-01  0.89123427988E+00  0.88000000000E+00 0. -1.
        -11    1    4    4    0    0 -0.48908088917E-01  0.37899787717E-01  0.95981128334E-02  0.62616131799E-01  0.51100000000E-03 0. -1.
         11    1    4    4    0    0 -0.47316082656E-01  0.35152652090E-01  0.29740517350E-01  0.66024844719E-01  0.51100000000E-03 0.  1.
</event>
<event>
 8    1  0.1191842E+005  0.1043930E+01  0.7957747E-01            NaN
         13   -1    0    0    0    0  0.00000000000E+00  0.00000000000E+00  0.74505805969E-08  0.10566000000E+00  0.10566000000E+00 0. -1.
     999900   -1    0    0    0    0 -0.00000000000E+00 -0.00000000000E+00 -0.74505805969E-08  0.93827000000E+00  0.93827000000E+00 0.  1.
     999902    2    1    2    0    0  0.14604394943E-01  0.17572868193E-01  0.64962712212E-02  0.10201750934E+01  0.10198984879E+01 0.  0.
     999903    2    3    3    0    0 -0.89740956821E-01  0.42330024198E-01 -0.80590265214E-01  0.12939738036E+00  0.20090318980E-01 0.  0.
         14    1    1    2    0    0 -0.14604394943E-01 -0.17572868193E-01 -0.64962712212E-02  0.23754906608E-01  0.00000000000E+00 0.  1.
     999901    1    3    3    0    0  0.10434535176E+00 -0.24757156005E-01  0.87086536435E-01  0.89077771303E+00  0.88000000000E+00 0. -1.
        -11    1    4    4    0    0 -0.12272996242E-01  0.13346889983E-01 -0.19025504591E-01  0.26286819034E-01  0.51100000000E-03 0. -1.
         11    1    4    4    0    0 -0.77467960578E-01  0.28983134215E-01 -0.61564760623E-01  0.10311056132E+00  0.51100000000E-03 0.  1.
</event>
<event>
 8    1  0.1191842E+005  0.1043930E+01  0.7957747E-01            NaN
         13   -1    0    0    0    0  0.00000000000E+00  0.00000000000E+00  0.74505805969E-08  0.10566000000E+00  0.10566000000E+00 0.  1.
     999900   -1    0    0    0    0 -0.00000000000E+00 -0.00000000000E+00 -0.74505805969E-08  0.93827000000E+00  0.93827000000E+00 0.  1.
     999902    2    1    2    0    0  0.13194703916E-01 -0.16637519154E-01  0.16086527848E-02  0.10226345775E+01  0.10224128247E+01 0.  0.
     999903    2    3    3    0    0  0.11255401605E-01 -0.40554274745E-01  0.12537465647E+00  0.13364987812E+00  0.19291245938E-01 0.  0.
         14    1    1    2    0    0 -0.13194703916E-01  0.16637519154E-01 -0.16086527848E-02  0.21295422485E-01  0.00000000000E+00 0. -1.
     999901    1    3    3    0    0  0.19393023106E-02  0.23916755592E-01 -0.12376600369E+00  0.88898469940E+00  0.88000000000E+00 0.  1.
        -11    1    4    4    0    0 -0.51612613399E-02 -0.63462611686E-02  0.18353219352E-01  0.20100135100E-01  0.51100000000E-03 0. -1.
         11    1    4    4    0    0  0.16416662945E-01 -0.34208013577E-01  0.10702143712E+00  0.11354974302E+00  0.51100000000E-03 0.  1.
</event>
<event>
 8    1  0.1191842E+005  0.1043930E+01  0.7957747E-01            NaN
         13   -1    0    0    0    0  0.00000000000E+00  0.00000000000E+00  0.74505805969E-08  0.10566000000E+00  0.10566000000E+00 0. -1.
     999900   -1    0    0    0    0 -0.00000000000E+00 -0.00000000000E+00 -0.74505805969E-08  0.93827000000E+00  0.93827000000E+00 0.  1.
     999902    2    1    2    0    0  0.54519466181E-02 -0.23062545687E-01  0.59107057576E-02  0.10195058075E+01  0.10192132016E+01 0.  0.
     999903    2    3    3    0    0 -0.12431788039E+00 -0.30294312417E-01 -0.10329609345E-01  0.12981133509E+00  0.19276958769E-01 0.  0.
         14    1    1    2    0    0 -0.54519466181E-02  0.23062545687E-01 -0.59107057576E-02  0.24424192474E-01  0.00000000000E+00 0.  1.
     999901    1    3    3    0    0  0.12976982701E+00  0.72317667308E-02  0.16240315103E-01  0.88969447244E+00  0.88000000000E+00 0.  1.
        -11    1    4    4    0    0 -0.80878494666E-01 -0.10923344187E-01 -0.10169734569E-01  0.82245577206E-01  0.51100000000E-03 0.  1.
         11    1    4    4    0    0 -0.43439385721E-01 -0.19370968231E-01 -0.15987477597E-03  0.47565757882E-01  0.51100000000E-03 0. -1.
</event>
<event>
 8    1  0.1191842E+005  0.1043930E+01  0.7957747E-01            NaN
         13   -1    0    0    0    0  0.00000000000E+00  0.00000000000E+00  0.74505805969E-08  0.10566000000E+00  0.10566000000E+00 0.  1.
     999900   -1    0    0    0    0 -0.00000000000E+00 -0.00000000000E+00 -0.74505805969E-08  0.93827000000E+00  0.93827000000E+00 0.  1.
     999902    2    1    2    0    0  0.55630277315E-02  0.15981675792E-01 -0.16800977835E-01  0.10200839501E+01  0.10198051928E+01 0.  0.
     999903    2    3    3    0    0  0.10987318581E+00  0.69408763586E-01 -0.14136568216E-01  0.13231023916E+00  0.20407434985E-01 0.  0.
         14    1    1    2    0    0 -0.55630277315E-02 -0.15981675792E-01  0.16800977835E-01  0.23846049880E-01  0.00000000000E+00 0.  1.
     999901    1    3    3    0    0 -0.10431015808E+00 -0.53427087793E-01 -0.26644096185E-02  0.88777371096E+00  0.88000000000E+00 0.  1.
        -11    1    4    4    0    0  0.67855643094E-01  0.35670425801E-01 -0.25517223473E-03  0.76662205880E-01  0.51100000000E-03 0. -1.
         11    1    4    4    0    0  0.42017542720E-01  0.33738337785E-01 -0.13881395982E-01  0.55648033282E-01  0.51100000000E-03 0.  1.
</event>
<event>
 8    1  0.1191842E+005  0.1043930E+01  0.7957747E-01            NaN
         13   -1    0    0    0    0  0.00000000000E+00  0.00000000000E+00  0.74505805969E-08  0.10566000000E+00  0.10566000000E+00 0.  1.
     999900   -1    0    0    0    0 -0.00000000000E+00 -0.00000000000E+00 -0.74505805969E-08  0.93827000000E+00  0.93827000000E+00 0. -1.
     999902    2    1    2    0    0 -0.45765032632E-03  0.65293420514E-02  0.21544760060E-01  0.10214129301E+01  0.10211647053E+01 0.  0.
     999903    2    3    3    0    0  0.21816986488E-01  0.35287426672E-01 -0.12014592603E+00  0.12933701549E+00  0.23913106310E-01 0.  0.
         14    1    1    2    0    0  0.45765032632E-03 -0.65293420514E-02 -0.21544760060E-01  0.22517069914E-01  0.00000000000E+00 0. -1.
     999901    1    3    3    0    0 -0.22274636814E-01 -0.28758084620E-01  0.14169068609E+00  0.89207591460E+00  0.88000000000E+00 0.  1.
        -11    1    4    4    0    0  0.17339604530E-01  0.38505815575E-01 -0.10312130216E+00  0.11143439235E+00  0.51100000000E-03 0.  1.
         11    1    4    4    0    0  0.44773819573E-02 -0.32183889028E-02 -0.17024623868E-01  0.17902623137E-01  0.51100000000E-03 0. -1.
</event>
<event>
 7    1  0.1191842E+005  0.1043930E+01  0.7957747E-01            NaN
         13   -1    0    0    0    0  0.00000000000E+00  0.00000000000E+00  0.74505805969E-08  0.10566000000E+00  0.10566000000E+00 0. -1.
     999900   -1    0    0    0    0 -0.00000000000E+00 -0.00000000000E+00 -0.74505805969E-08  0.93827000000E+00  0.93827000000E+00 0. -1.
     999902    2    1    2    0    0 -0.60763783981E-02 -0.22399375648E-01  0.15620546548E-02  0.10206685637E+01  0.10204034607E+01 0.  0.
         14    1    1    2    0    0  0.60763783981E-02  0.22399375648E-01 -0.15620546548E-02  0.23261436297E-01  0.00000000000E+00 0. -1.
     999901    1    3    3    0    0  0.38032973093E-01 -0.80086712158E-01 -0.97160529840E-01  0.88977556556E+00  0.88000000000E+00 0.  1.
        -11    1    3    3    0    0 -0.30785948087E-01  0.60065915147E-01  0.61615739300E-01  0.91391734924E-01  0.51100000000E-03 0. -1.
         11    1    3    3    0    0 -0.13323403405E-01 -0.23785786371E-02  0.37106845195E-01  0.39501263220E-01  0.51100000000E-03 0.  1.
</event>
<event>
 8    1  0.1191842E+005  0.1043930E+01  0.7957747E-01            NaN
         13   -1    0    0    0    0  0.00000000000E+00  0.00000000000E+00  0.74505805969E-08  0.10566000000E+00  0.10566000000E+00 0. -1.
     999900   -1    0    0    0    0 -0.00000000000E+00 -0.00000000000E+00 -0.74505805969E-08  0.93827000000E+00  0.93827000000E+00 0. -1.
     999902    2    1    2    0    0  0.70996184705E-02  0.21649316206E-01  0.32681539026E-02  0.10209130866E+01  0.10206535906E+01 0.  0.
     999903    2    3    3    0    0  0.54923979022E-01 -0.97613629519E-01  0.62139809543E-01  0.12963496412E+00  0.19970073962E-01 0.  0.
         14    1    1    2    0    0 -0.70996184705E-02 -0.21649316206E-01 -0.32681539026E-02  0.23016913445E-01  0.00000000000E+00 0. -1.
     999901    1    3    3    0    0 -0.47824360552E-01  0.11926294572E+00 -0.58871655641E-01  0.89127812243E+00  0.88000000000E+00 0. -1.
        -11    1    4    4    0    0  0.34710021641E-01 -0.45124489823E-01  0.37846629566E-01  0.68363979365E-01  0.51100000000E-03 0. -1.
         11    1    4    4    0    0  0.20213957381E-01 -0.52489139695E-01  0.24293179977E-01  0.61270984759E-01  0.51100000000E-03 0.  1.
</event>
<event>
 8    1  0.1191842E+005  0.1043930E+01  0.7957747E-01            NaN
         13   -1    0    0    0    0  0.00000000000E+00  0.00000000000E+00  0.74505805969E-08  0.10566000000E+00  0.10566000000E+00 0. -1.
     999900   -1    0    0    0    0 -0.00000000000E+00 -0.00000000000E+00 -0.74505805969E-08  0.93827000000E+00  0.93827000000E+00 0.  1.
     999902    2    1    2    0    0 -0.10298696954E-01 -0.19043147074E-01 -0.10722697505E-01  0.10197705122E+01  0.10194842896E+01 0.  0.
     999903    2    3    3    0    0 -0.13807592793E-01  0.31697237840E-02  0.12641821565E+00  0.12886459457E+00  0.20586930773E-01 0.  0.
         14    1    1    2    0    0  0.10298696954E-01  0.19043147074E-01  0.10722697505E-01  0.24159487810E-01  0.00000000000E+00 0.  1.
     999901    1    3    3    0    0  0.35088958385E-02 -0.22212870858E-01 -0.13714091316E+00  0.89090591762E+00  0.88000000000E+00 0.  1.
        -11    1    4    4    0    0 -0.63686272969E-02  0.11710541071E-01  0.78335951700E-01  0.79463693821E-01  0.51100000000E-03 0. -1.
         11    1    4    4    0    0 -0.74389654958E-02 -0.85408172872E-02  0.48082263951E-01  0.49400900754E-01  0.51100000000E-03 0.  1.
</event>
<event>
 8    1  0.1191842E+005  0.1043930E+01  0.7957747E-01            NaN
         13   -1    0    0    0    0  0.00000000000E+00  0.00000000000E+00  0.74505805969E-08  0.10566000000E+00  0.10566000000E+00 0.  1.
     999900   -1    0    0    0    0 -0.00000000000E+00 -0.00000000000E+00 -0.74505805969E-08  0.93827000000E+00  0.93827000000E+00 0.  1.
     999902    2    1    2    0    0  0.32423114293E-02 -0.80701303989E-02 -0.21893278969E-01  0.10203725118E+01  0.10201005379E+01 0.  0.
     999903    2    3    3    0    0  0.12025996274E+00 -0.43923943983E-01  0.21346761450E-01  0.13085110799E+00  0.16569753901E-01 0.  0.
         14    1    1    2    0    0 -0.32423114293E-02  0.80701303989E-02  0.21893278969E-01  0.23557488238E-01  0.00000000000E+00 0.  1.
     999901    1    3    3    0    0 -0.11701765131E+00  0.35853813584E-01 -0.43240040419E-01  0.88952140377E+00  0.88000000000E+00 0.  1.
        -11    1    4    4    0    0  0.25295945638E-01 -0.13166352398E-01  0.10699631708E-01  0.30462779599E-01  0.51100000000E-03 0.  1.
         11    1    4    4    0    0  0.94964017106E-01 -0.30757591585E-01  0.10647129742E-01  0.10038832839E+00  0.51100000000E-03 0. -1.
</event>
<event>
 8    1  0.1191842E+005  0.1043930E+01  0.7957747E-01            NaN
         13   -1    0    0    0    0  0.00000000000E+00  0.00000000000E+00  0.74505805969E-08  0.10566000000E+00  0.10566000000E+00 0. -1.
     999900   -1    0    0    0    0 -0.00000000000E+00 -0.00000000000E+00 -0.74505805969E-08  0.93827000000E+00  0.93827000000E+00 0.  1.
     999902    2    1    2    0    0 -0.13417523316E-01 -0.12234446718E-01  0.14733095784E-01  0.10205467639E+01  0.10202788450E+01 0.  0.
     999903    2    3    3    0    0 -0.63294361554E-01 -0.10834213070E+00 -0.37714963189E-01  0.13236030556E+00  0.18778672776E-01 0.  0.
         14    1    1    2    0    0  0.13417523316E-01  0.12234446718E-01 -0.14733095784E-01  0.23383236085E-01  0.00000000000E+00 0. -1.
     999901    1    3    3    0    0  0.49876838237E-01  0.96107683980E-01  0.52448058973E-01  0.88818645835E+00  0.88000000000E+00 0.  1.
        -11    1    4    4    0    0 -0.37553346572E-01 -0.60104132517E-01 -0.11791187288E-01  0.71847434214E-01  0.51100000000E-03 0.  1.
         11    1    4    4    0    0 -0.25741014981E-01 -0.48237998181E-01 -0.25923775901E-01  0.60512871347E-01  0.51100000000E-03 0. -1.
</event>
<event>
 8    1  0.1191842E+005  0.1043930E+01  0.7957747E-01            NaN
         13   -1    0    0    0    0  0.00000000000E+00  0.00000000000E+00  0.74505805969E-08  0.10566000000E+00  0.10566000000E+00 0. -1.
     999900   -1    0    0    0    0 -0.00000000000E+00 -0.00000000000E+00 -0.74505805969E-08  0.93827000000E+00  0.93827000000E+00 0. -1.
     999902    2    1    2    0    0  0.18982432489E-01 -0.13904733707E-01  0.39172517771E-02  0.10200758762E+01  0.10197969278E+01 0.  0.
     999903    2    3    3    0    0  0.32906651549E-01 -0.27703653800E-02 -0.12471956894E+00  0.13054493815E+00  0.19911990347E-01 0.  0.
         14    1    1    2    0    0 -0.18982432489E-01  0.13904733707E-01 -0.39172517771E-02  0.23854123840E-01  0.00000000000E+00 0.  1.
     999901    1    3    3    0    0 -0.13924219059E-01 -0.11134368327E-01  0.12863682072E+00  0.88953093801E+00  0.88000000000E+00 0.  1.
        -11    1    4    4    0    0  0.20527988216E-01 -0.59993453527E-02 -0.45267647401E-01  0.50068068338E-01  0.51100000000E-03 0.  1.
         11    1    4    4    0    0  0.12378663333E-01  0.32289799727E-02 -0.79451921538E-01  0.80476869812E-01  0.51100000000E-03 0. -1.
</event>
<event>
 8    1  0.1191842E+005  0.1043930E+01  0.7957747E-01            NaN
         13   -1    0    0    0    0  0.00000000000E+00  0.00000000000E+00  0.74505805969E-08  0.10566000000E+00  0.10566000000E+00 0.  1.
     999900   -1    0    0    0    0 -0.00000000000E+00 -0.00000000000E+00 -0.74505805969E-08  0.93827000000E+00  0.93827000000E+00 0.  1.
     999902    2    1    2    0    0  0.86677863717E-02 -0.16684268479E-01 -0.44728097369E-02  0.10246038167E+01  0.10244215342E+01 0.  0.
     999903    2    3    3    0    0 -0.89466129274E-01  0.38535368839E-02  0.96760444585E-01  0.13314420534E+00  0.18594562256E-01 0.  0.
         14    1    1    2    0    0 -0.86677863717E-02  0.16684268479E-01  0.44728097369E-02  0.19326183332E-01  0.00000000000E+00 0.  1.
     999901    1    3    3    0    0  0.98133915646E-01 -0.20537805363E-01 -0.10123325432E+00  0.89145961133E+00  0.88000000000E+00 0.  1.
        -11    1    4    4    0    0 -0.68807571364E-01 -0.26294465804E-02  0.64930754229E-01  0.94644914454E-01  0.51100000000E-03 0.  1.
         11    1    4    4    0    0 -0.20658557910E-01  0.64829834643E-02  0.31829690356E-01  0.38499290885E-01  0.51100000000E-03 0. -1.
</event>
<event>
 8    1  0.1191842E+005  0.1043930E+01  0.7957747E-01            NaN
         13   -1    0    0    0    0  0.00000000000E+00  0.00000000000E+00  0.74505805969E-08  0.10566000000E+00  0.10566000000E+00 0.  1.
     999900   -1    0    0    0    0 -0.00000000000E+00 -0.00000000000E+00 -0.74505805969E-08  0.93827000000E+00  0.93827000000E+00 0. -1.
     999902    2    1    2    0    0 -0.22355542622E-01  0.67059556694E-02  0.37693990721E-02  0.10202879084E+01  0.10200139545E+01 0.  0.
     999903    2    3    3    0    0  0.10095097688E+00 -0.54823803009E-01  0.53721014985E-01  0.12816371696E+00  0.18526785642E-01 0.  0.
         14    1    1    2    0    0  0.22355542622E-01 -0.67059556694E-02 -0.37693990721E-02  0.23642091632E-01  0.00000000000E+00 0.  1.
     999901    1    3    3    0    0 -0.12330651950E+00  0.61529758679E-01 -0.49951615913E-01  0.89212419140E+00  0.88000000000E+00 0.  1.
        -11    1    4    4    0    0  0.71164776353E-01 -0.29560586269E-01  0.31731500219E-01  0.83339083755E-01  0.51100000000E-03 0. -1.
         11    1    4    4    0    0  0.29786200524E-01 -0.25263216740E-01  0.21989514766E-01  0.44824633209E-01  0.51100000000E-03 0.  1.
</event>
<event>
 8    1  0.1191842E+005  0.1043930E+01  0.7957747E-01            NaN
         13   -1    0    0    0    0  0.00000000000E+00  0.00000000000E+00  0.74505805969E-08  0.10566000000E+00  0.10566000000E+00 0.  1.
     999900   -1    0    0    0    0 -0.00000000000E+00 -0.00000000000E+00 -0.74505805969E-08  0.93827000000E+00  0.93827000000E+00 0.  1.
     999902    2    1    2    0    0 -0.22076823291E-01  0.10548427969E-02 -0.47854154740E-02  0.10213158668E+01  0.10210654733E+01 0.  0.
     999903    2    3    3    0    0  0.71001753732E-02 -0.93055856813E-02 -0.13074127840E+00  0.13180841030E+00  0.11965313774E-01 0.  0.
         14    1    1    2    0    0  0.22076823291E-01 -0.10548427969E-02  0.47854154740E-02  0.22614133219E-01  0.00000000000E+00 0. -1.
     999901    1    3    3    0    0 -0.29176998665E-01  0.10360428478E-01  0.12595586292E+00  0.88950745648E+00  0.88000000000E+00 0. -1.
        -11    1    4    4    0    0  0.13020291987E-02 -0.10107831669E-01 -0.63927342580E-01  0.64736618629E-01  0.51100000000E-03 0. -1.
         11    1    4    4    0    0  0.57981461745E-02  0.80224598786E-03 -0.66813935818E-01  0.67071791673E-01  0.51100000000E-03 0.  1.
</event>
<event>
 8    1  0.1191842E+005  0.1043930E+01  0.7957747E-01            NaN
         13   -1    0    0    0    0  0.00000000000E+00  0.00000000000E+00  0.74505805969E-08  0.10566000000E+00  0.10566000000E+00 0. -1.
     999900   -1    0    0    0    0 -0.00000000000E+00 -0.00000000000E+00 -0.74505805969E-08  0.93827000000E+00  0.93827000000E+00 0. -1.
     999902    2    1    2    0    0 -0.17312935432E-01 -0.14566556491E-01 -0.95174043044E-02  0.10193840576E+01  0.10190884916E+01 0.  0.
     999903    2    3    3    0    0  0.25485471066E-01  0.12224563452E+00  0.15498525573E-01  0.12743390436E+00  0.20141779737E-01 0.  0.
         14    1    1    2    0    0  0.17312935432E-01  0.14566556491E-01  0.95174043044E-02  0.24545942353E-01  0.00000000000E+00 0. -1.
     999901    1    3    3    0    0 -0.42798406498E-01 -0.13681219101E+00 -0.25015929877E-01  0.89195015329E+00  0.88000000000E+00 0.  1.
        -11    1    4    4    0    0  0.46516894221E-02  0.69111513248E-01  0.11513268901E-01  0.70220053829E-01  0.51100000000E-03 0. -1.
         11    1    4    4    0    0  0.20833781643E-01  0.53134121269E-01  0.39852566712E-02  0.57213850529E-01  0.51100000000E-03 0.  1.
</event>
<event>
 8    1  0.1191842E+005  0.1043930E+01  0.7957747E-01            NaN
         13   -1    0    0    0    0  0.00000000000E+00  0.00000000000E+00  0.74505805969E-08  0.10566000000E+00  0.10566000000E+00 0. -1.
     999900   -1    0    0    0    0 -0.00000000000E+00 -0.00000000000E+00 -0.74505805969E-08  0.93827000000E+00  0.93827000000E+00 0.  1.
     999902    2    1    2    0    0 -0.16780308826E-01  0.16665578087E-01 -0.13380806900E-02  0.10202422243E+01  0.10199671983E+01 0.  0.
     999903    2    3    3    0    0  0.40336722623E-01 -0.11946056977E+00  0.66372329504E-02  0.12791028549E+00  0.20472160359E-01 0.  0.
         14    1    1    2    0    0  0.16780308826E-01 -0.16665578087E-01  0.13380806900E-02  0.23687775692E-01  0.00000000000E+00 0.  1.
     999901    1    3    3    0    0 -0.57117031450E-01  0.13612614786E+00 -0.79753136404E-02  0.89233193882E+00  0.88000000000E+00 0. -1.
        -11    1    4    4    0    0  0.47659547461E-02 -0.77687842941E-02  0.55533330587E-02  0.10684987745E-01  0.51100000000E-03 0. -1.
         11    1    4    4    0    0  0.35570767877E-01 -0.11169178548E+00  0.10838998917E-02  0.11722529774E+00  0.51100000000E-03 0.  1.
</event>
<event>
 8    1  0.1191842E+005  0.1043930E+01  0.7957747E-01            NaN
         13   -1    0    0    0    0  0.00000000000E+00  0.00000000000E+00  0.74505805969E-08  0.10566000000E+00  0.10566000000E+00 0. -1.
     999900   -1    0    0    0    0 -0.00000000000E+00 -0.00000000000E+00 -0.74505805969E-08  0.93827000000E+00  0.93827000000E+00 0.  1.
     999902    2    1    2    0    0 -0.64466625843E-02 -0.26321469615E-02 -0.22184722957E-01  0.10206781272E+01  0.10204132446E+01 0.  0.
     999903    2    3    3    0    0  0.21554770624E-01  0.40314580071E-01 -0.12362922091E+00  0.13336787267E+00  0.20320720817E-01 0.  0.
         14    1    1    2    0    0  0.64466625843E-02  0.26321469615E-02  0.22184722957E-01  0.23251872801E-01  0.00000000000E+00 0. -1.
     999901    1    3    3    0    0 -0.28001433208E-01 -0.42946727032E-01  0.10144449796E+00  0.88731025453E+00  0.88000000000E+00 0. -1.
        -11    1    4    4    0    0  0.12303072308E-01  0.46669021123E-02 -0.30646246692E-01  0.33355646012E-01  0.51100000000E-03 0. -1.
         11    1    4    4    0    0  0.92516983163E-02  0.35647677959E-01 -0.92982974220E-01  0.10001222666E+00  0.51100000000E-03 0.  1.
</event>
<event>
 8    1  0.1191842E+005  0.1043930E+01  0.7957747E-01            NaN
         13   -1    0    0    0    0  0.00000000000E+00  0.00000000000E+00  0.74505805969E-08  0.10566000000E+00  0.10566000000E+00 0.  1.
     999900   -1    0    0    0    0 -0.00000000000E+00 -0.00000000000E+00 -0.74505805969E-08  0.93827000000E+00  0.93827000000E+00 0. -1.
     999902    2    1    2    0    0  0.65390179920E-02 -0.50483897652E-02  0.22443521961E-01  0.10200143843E+01  0.10197339788E+01 0.  0.
     999903    2    3    3    0    0  0.11968765650E+00 -0.47015462340E-01  0.20692800772E-01  0.13177628864E+00  0.20030212843E-01 0.  0.
         14    1    1    2    0    0 -0.65390179920E-02  0.50483897652E-02 -0.22443521961E-01  0.23915615684E-01  0.00000000000E+00 0.  1.
     999901    1    3    3    0    0 -0.11314863851E+00  0.41967072575E-01  0.17507211890E-02  0.88823809567E+00  0.88000000000E+00 0.  1.
        -11    1    4    4    0    0  0.59538117529E-01 -0.23935490379E-01  0.20440785096E-01  0.67348214193E-01  0.51100000000E-03 0.  1.
         11    1    4    4    0    0  0.60149538975E-01 -0.23079971961E-01  0.25201567606E-03  0.64428074452E-01  0.51100000000E-03 0. -1.
</event>
<event>
 8    1  0.1191842E+005  0.1043930E+01  0.7957747E-01            NaN
         13   -1    0    0    0    0  0.00000000000E+00  0.00000000000E+00  0.74505805969E-08  0.10566000000E+00  0.10566000000E+00 0.  1.
     999900   -1    0    0    0    0 -0.00000000000E+00 -0.00000000000E+00 -0.74505805969E-08  0.93827000000E+00  0.93827000000E+00 0.  1.
     999902    2    1    2    0    0 -0.20673832265E-01  0.10241918915E-01  0.73196572278E-02  0.10197250083E+01  0.10194376935E+01 0.  0.
     999903    2    3    3    0    0  0.33986818358E-01  0.84683312244E-01  0.91756399790E-01  0.13087244947E+00  0.19544665050E-01 0.  0.
         14    1    1    2    0    0  0.20673832265E-01 -0.10241918915E-01 -0.73196572278E-02  0.24204991748E-01  0.00000000000E+00 0. -1.
     999901    1    3    3    0    0 -0.54660650623E-01 -0.74441393329E-01 -0.84436742562E-01  0.88885255879E+00  0.88000000000E+00 0. -1.
        -11    1    4    4    0    0  0.11568765499E-02  0.46145072849E-02  0.13032279327E-01  0.13882847917E-01  0.51100000000E-03 0.  1.
         11    1    4    4    0    0  0.32829941808E-01  0.80068804959E-01  0.78724120462E-01  0.11698960155E+00  0.51100000000E-03 0. -1.
</event>
<event>
 8    1  0.1191842E+005  0.1043930E+01  0.7957747E-01            NaN
         13   -1    0    0    0    0  0.00000000000E+00  0.00000000000E+00  0.74505805969E-08  0.10566000000E+00  0.10566000000E+00 0.  1.
     999900   -1    0    0    0    0 -0.00000000000E+00 -0.00000000000E+00 -0.74505805969E-08  0.93827000000E+00  0.93827000000E+00 0.  1.
     999902    2    1    2    0    0 -0.16482662000E-01 -0.14425556737E-01 -0.10573997084E-01  0.10196074950E+01  0.10193173498E+01 0.  0.
     999903    2    3    3    0    0  0.16639045142E-01 -0.10045312388E+00 -0.81467189738E-01  0.13195686862E+00  0.20199610223E-01 0.  0.
         14    1    1    2    0    0  0.16482662000E-01  0.14425556737E-01  0.10573997084E-01  0.24322504972E-01  0.00000000000E+00 0.  1.
     999901    1    3    3    0    0 -0.33121707142E-01  0.86027567139E-01  0.70893192654E-01  0.88765062640E+00  0.88000000000E+00 0. -1.
        -11    1    4    4    0    0  0.13114936268E-01 -0.30654938677E-01 -0.32939733906E-01  0.46872316024E-01  0.51100000000E-03 0. -1.
         11    1    4    4    0    0  0.35241088734E-02 -0.69798185200E-01 -0.48527455832E-01  0.85084552599E-01  0.51100000000E-03 0.  1.
</event>
<event>
 8    1  0.1191842E+005  0.1043930E+01  0.7957747E-01            NaN
         13   -1    0    0    0    0  0.00000000000E+00  0.00000000000E+00  0.74505805969E-08  0.10566000000E+00  0.10566000000E+00 0.  1.
     999900   -1    0    0    0    0 -0.00000000000E+00 -0.00000000000E+00 -0.74505805969E-08  0.93827000000E+00  0.93827000000E+00 0. -1.
     999902    2    1    2    0    0 -0.10165347773E-01 -0.11826935412E-02 -0.22712552372E-01  0.10190182940E+01  0.10187137431E+01 0.  0.
     999903    2    3    3    0    0 -0.12526504855E+00  0.30554616982E-01  0.48673223012E-02  0.13052752453E+00  0.19718692279E-01 0.  0.
         14    1    1    2    0    0  0.10165347773E-01  0.11826935412E-02  0.22712552372E-01  0.24911705975E-01  0.00000000000E+00 0.  1.
     999901    1    3    3    0    0  0.11509970078E+00 -0.31737310523E-01 -0.27579874673E-01  0.88849076950E+00  0.88000000000E+00 0.  1.
        -11    1    4    4    0    0 -0.65136185730E-01  0.16340939230E-01 -0.73020424650E-02  0.67552423580E-01  0.51100000000E-03 0. -1.
         11    1    4    4    0    0 -0.60128862821E-01  0.14213677751E-01  0.12169364766E-01  0.62975100946E-01  0.51100000000E-03 0.  1.
</event>
<event>
 8    1  0.1191842E+005  0.1043930E+01  0.7957747E-01            NaN
         13   -1    0    0    0    0  0.00000000000E+00  0.00000000000E+00  0.74505805969E-08  0.10566000000E+00  0.10566000000E+00 0. -1.
     999900   -1    0    0    0    0 -0.00000000000E+00 -0.00000000000E+00 -0.74505805969E-08  0.93827000000E+00  0.93827000000E+00 0.  1.
     999902    2    1    2    0    0  0.23375473824E-01  0.44404300889E-02 -0.26030358111E-02  0.10199945453E+01  0.10197136689E+01 0.  0.
     999903    2    3    3    0    0  0.12023554391E+00  0.30975108468E-01  0.42737608296E-01  0.13312266260E+00  0.21888279280E-01 0.  0.
         14    1    1    2    0    0 -0.23375473824E-01 -0.44404300889E-02  0.26030358111E-02  0.23935454692E-01  0.00000000000E+00 0.  1.
     999901    1    3    3    0    0 -0.96860070087E-01 -0.26534678379E-01 -0.45340644107E-01  0.88687188271E+00  0.88000000000E+00 0.  1.
        -11    1    4    4    0    0  0.11391818270E+00  0.33290882570E-01  0.37152191403E-01  0.12436310409E+00  0.51100000000E-03 0. -1.
         11    1    4    4    0    0  0.63173612122E-02 -0.23157741022E-02  0.55854168930E-02  0.87595585075E-02  0.51100000000E-03 0.  1.
</event>
<event>
 8    1  0.1191842E+005  0.1043930E+01  0.7957747E-01            NaN
         13   -1    0    0    0    0  0.00000000000E+00  0.00000000000E+00  0.74505805969E-08  0.10566000000E+00  0.10566000000E+00 0.  1.
     999900   -1    0    0    0    0 -0.00000000000E+00 -0.00000000000E+00 -0.74505805969E-08  0.93827000000E+00  0.93827000000E+00 0.  1.
     999902    2    1    2    0    0  0.12174336887E-01 -0.13413805511E-01  0.13306693575E-01  0.10214530618E+01  0.10212057308E+01 0.  0.
     999903    2    3    3    0    0 -0.80787929976E-01  0.60430411645E-01  0.80886109593E-01  0.13091281625E+00  0.20422498703E-01 0.  0.
         14    1    1    2    0    0 -0.12174336887E-01  0.13413805511E-01 -0.13306693575E-01  0.22476938199E-01  0.00000000000E+00 0. -1.
     999901    1    3    3    0    0  0.92962266863E-01 -0.73844217156E-01 -0.67579416018E-01  0.89054024555E+00  0.88000000000E+00 0.  1.
        -11    1    4    4    0    0 -0.67229237822E-01  0.58308374011E-01  0.67116551642E-01  0.11146537365E+00  0.51100000000E-03 0.  1.
         11    1    4    4    0    0 -0.13558692155E-01  0.21220376343E-02  0.13769557951E-01  0.19447442604E-01  0.51100000000E-03 0. -1.
</event>
<event>
 8    1  0.1191842E+005  0.1043930E+01  0.7957747E-01            NaN
         13   -1    0    0    0    0  0.00000000000E+00  0.00000000000E+00  0.74505805969E-08  0.10566000000E+00  0.10566000000E+00 0. -1.
     999900   -1    0    0    0    0 -0.00000000000E+00 -0.00000000000E+00 -0.74505805969E-08  0.93827000000E+00  0.93827000000E+00 0.  1.
     999902    2    1    2    0    0  0.13760405999E-01  0.45676868424E-02 -0.18442605027E-01  0.10204706263E+01  0.10202009394E+01 0.  0.
     999903    2    3    3    0    0 -0.64318620329E-01  0.88361414425E-02  0.10806805017E+00  0.12799121476E+00  0.22092652030E-01 0.  0.
         14    1    1    2    0    0 -0.13760405999E-01 -0.45676868424E-02  0.18442605027E-01  0.23459373745E-01  0.00000000000E+00 0. -1.
     999901    1    3    3    0    0  0.78079026328E-01 -0.42684546001E-02 -0.12651065519E+00  0.89247941149E+00  0.88000000000E+00 0.  1.
        -11    1    4    4    0    0 -0.41150836549E-01  0.13840373819E-01  0.81783215462E-01  0.92594291122E-01  0.51100000000E-03 0. -1.
         11    1    4    4    0    0 -0.23167783780E-01 -0.50042323763E-02  0.26284834704E-01  0.35396923643E-01  0.51100000000E-03 0.  1.
</event>
<event>
 8    1  0.1191842E+005  0.1043930E+01  0.7957747E-01            NaN
         13   -1    0    0    0    0  0.00000000000E+00  0.00000000000E+00  0.74505805969E-08  0.10566000000E+00  0.10566000000E+00 0.  1.
     999900   -1    0    0    0    0 -0.00000000000E+00 -0.00000000000E+00 -0.74505805969E-08  0.93827000000E+00  0.93827000000E+00 0.  1.
     999902    2    1    2    0    0 -0.14260478858E-02  0.24431406273E-01  0.85265748575E-02  0.10180141804E+01  0.10176842545E+01 0.  0.
     999903    2    3    3    0    0 -0.67060289624E-02 -0.41906027139E-01  0.11964826943E+00  0.12853311584E+00  0.20098944104E-01 0.  0.
         14    1    1    2    0    0  0.14260478858E-02 -0.24431406273E-01 -0.85265748575E-02  0.25915819567E-01  0.00000000000E+00 0.  1.
     999901    1    3    3    0    0  0.52799810766E-02  0.66337433412E-01 -0.11112169457E+00  0.88948106460E+00  0.88000000000E+00 0.  1.
        -11    1    4    4    0    0 -0.10203879652E-01 -0.32081673945E-01  0.10677689218E+00  0.11195945153E+00  0.51100000000E-03 0. -1.
         11    1    4    4    0    0  0.34978506900E-02 -0.98243531937E-02  0.12871377251E-01  0.16573664304E-01  0.51100000000E-03 0.  1.
</event>
<event>
 8    1  0.1191842E+005  0.1043930E+01  0.7957747E-01            NaN
         13   -1    0    0    0    0  0.00000000000E+00  0.00000000000E+00  0.74505805969E-08  0.10566000000E+00  0.10566000000E+00 0. -1.
     999900   -1    0    0    0    0 -0.00000000000E+00 -0.00000000000E+00 -0.74505805969E-08  0.93827000000E+00  0.93827000000E+00 0. -1.
     999902    2    1    2    0    0 -0.24262923719E-02  0.69676877321E-04  0.23645149522E-01  0.10201605901E+01  0.10198836428E+01 0.  0.
     999903    2    3    3    0    0 -0.12075050367E+00 -0.17699534489E-01 -0.39388792024E-01  0.12982939241E+00  0.20254296797E-01 0.  0.
         14    1    1    2    0    0  0.24262923719E-02 -0.69676877321E-04 -0.23645149522E-01  0.23769409868E-01  0.00000000000E+00 0.  1.
     999901    1    3    3    0    0  0.11832421130E+00  0.17769211366E-01  0.63033941546E-01  0.89033119772E+00  0.88000000000E+00 0.  1.
        -11    1    4    4    0    0 -0.54726171659E-01 -0.71101359465E-03 -0.10240757376E-01  0.55682974394E-01  0.51100000000E-03 0.  1.
         11    1    4    4    0    0 -0.66024332011E-01 -0.16988520894E-01 -0.29148034648E-01  0.74146418015E-01  0.51100000000E-03 0. -1.
</event>
<event>
 8    1  0.1191842E+005  0.1043930E+01  0.7957747E-01            NaN
         13   -1    0    0    0    0  0.00000000000E+00  0.00000000000E+00  0.74505805969E-08  0.10566000000E+00  0.10566000000E+00 0. -1.
     999900   -1    0    0    0    0 -0.00000000000E+00 -0.00000000000E+00 -0.74505805969E-08  0.93827000000E+00  0.93827000000E+00 0.  1.
     999902    2    1    2    0    0 -0.14166708156E-01 -0.74427654672E-02  0.19026416941E-01  0.10190684852E+01  0.10187651754E+01 0.  0.
     999903    2    3    3    0    0 -0.10983995607E+00  0.74201388643E-02 -0.65862292480E-01  0.12969771363E+00  0.19073042243E-01 0.  0.
         14    1    1    2    0    0  0.14166708156E-01  0.74427654672E-02 -0.19026416941E-01  0.24861514825E-01  0.00000000000E+00 0.  1.
     999901    1    3    3    0    0  0.95673247912E-01 -0.14862904331E-01  0.84888709421E-01  0.88937077154E+00  0.88000000000E+00 0. -1.
        -11    1    4    4    0    0 -0.47362822246E-01 -0.40020877879E-02 -0.35326325089E-01  0.59223846574E-01  0.51100000000E-03 0. -1.
         11    1    4    4    0    0 -0.62477133822E-01  0.11422226652E-01 -0.30535967390E-01  0.70473867056E-01  0.51100000000E-03 0.  1.
</event>
<event>
 8    1  0.1191842E+005  0.1043930E+01  0.7957747E-01            NaN
         13   -1    0    0    0    0  0.00000000000E+00  0.00000000000E+00  0.74505805969E-08  0.10566000000E+00  0.10566000000E+00 0. -1.
     999900   -1    0    0    0    0 -0.00000000000E+00 -0.00000000000E+00 -0.74505805969E-08  0.93827000000E+00  0.93827000000E+00 0. -1.
     999902    2    1    2    0    0  0.38165757634E-02 -0.18013604575E-01  0.16892304629E-01  0.10189418797E+01  0.10186354343E+01 0.  0.
     999903    2    3    3    0    0 -0.70065345517E-01  0.96777113072E-01  0.41769001117E-01  0.12806910698E+00  0.19546980621E-01 0.  0.
         14    1    1    2    0    0 -0.38165757634E-02  0.18013604575E-01 -0.16892304629E-01  0.24988120298E-01  0.00000000000E+00 0. -1.
     999901    1    3    3    0    0  0.73881921280E-01 -0.11479071765E+00 -0.24876696489E-01  0.89087277272E+00  0.88000000000E+00 0. -1.
        -11    1    4    4    0    0 -0.49251937257E-01  0.71024567869E-01  0.20889561017E-01  0.88920624408E-01  0.51100000000E-03 0. -1.
         11    1    4    4    0    0 -0.20813408259E-01  0.25752545203E-01  0.20879440100E-01  0.39148482572E-01  0.51100000000E-03 0.  1.
</event>
<event>
 8    1  0.1191842E+005  0.1043930E+01  0.7957747E-01            NaN
         13   -1    0    0    0    0  0.00000000000E+00  0.00000000000E+00  0.74505805969E-08  0.10566000000E+00  0.10566000000E+00 0.  1.
     999900   -1    0    0    0    0 -0.00000000000E+00 -0.00000000000E+00 -0.74505805969E-08  0.93827000000E+00  0.93827000000E+00 0.  1.
     999902    2    1    2    0    0 -0.11329012404E-01 -0.20077990639E-01 -0.38234862530E-03  0.10208731481E+01  0.10206127405E+01 0.  0.
     999903    2    3    3    0    0  0.11234920453E+00 -0.57866273433E-01 -0.28144599053E-01  0.13098832507E+00  0.19873940005E-01 0.  0.
         14    1    1    2    0    0  0.11329012404E-01  0.20077990639E-01  0.38234862530E-03  0.23056851924E-01  0.00000000000E+00 0.  1.
     999901    1    3    3    0    0 -0.12367821693E+00  0.37788282794E-01  0.27762250428E-01  0.88988482300E+00  0.88000000000E+00 0. -1.
        -11    1    4    4    0    0  0.78264215763E-01 -0.45894038028E-01 -0.27671076442E-01  0.94855151615E-01  0.51100000000E-03 0.  1.
         11    1    4    4    0    0  0.34084988764E-01 -0.11972235405E-01 -0.47352261124E-03  0.36133173460E-01  0.51100000000E-03 0. -1.
</event>
<event>
 8    1  0.1191842E+005  0.1043930E+01  0.7957747E-01            NaN
         13   -1    0    0    0    0  0.00000000000E+00  0.00000000000E+00  0.74505805969E-08  0.10566000000E+00  0.10566000000E+00 0.  1.
     999900   -1    0    0    0    0 -0.00000000000E+00 -0.00000000000E+00 -0.74505805969E-08  0.93827000000E+00  0.93827000000E+00 0.  1.
     999902    2    1    2    0    0 -0.12808133284E-01 -0.11878313388E-01  0.58206041105E-02  0.10255174489E+01  0.10253521424E+01 0.  0.
     999903    2    3    3    0    0  0.11342094526E+00  0.10207396576E-01 -0.66314768784E-01  0.13331507783E+00  0.20168283250E-01 0.  0.
         14    1    1    2    0    0  0.12808133284E-01  0.11878313388E-01 -0.58206041105E-02  0.18412551137E-01  0.00000000000E+00 0.  1.
     999901    1    3    3    0    0 -0.12622907854E+00 -0.22085709963E-01  0.72135372894E-01  0.89220237103E+00  0.88000000000E+00 0. -1.
        -11    1    4    4    0    0  0.16765512562E-01 -0.86683921309E-03 -0.18243922172E-01  0.24797895857E-01  0.51100000000E-03 0. -1.
         11    1    4    4    0    0  0.96655432698E-01  0.11074235789E-01 -0.48070846611E-01  0.10851718197E+00  0.51100000000E-03 0.  1.
</event>
<event>
 8    1  0.1191842E+005  0.1043930E+01  0.7957747E-01            NaN
         13   -1    0    0    0    0  0.00000000000E+00  0.00000000000E+00  0.74505805969E-08  0.10566000000E+00  0.10566000000E+00 0. -1.
     999900   -1    0    0    0    0 -0.00000000000E+00 -0.00000000000E+00 -0.74505805969E-08  0.93827000000E+00  0.93827000000E+00 0. -1.
     999902    2    1    2    0    0  0.28170594149E-02 -0.23051086939E-01  0.64392135460E-02  0.10198312053E+01  0.10195464362E+01 0.  0.
     999903    2    3    3    0    0  0.10888917482E+00  0.10971259677E-01  0.68706331240E-01  0.13062593788E+00  0.19114255526E-01 0.  0.
         14    1    1    2    0    0 -0.28170594149E-02  0.23051086939E-01 -0.64392135460E-02  0.24098794657E-01  0.00000000000E+00 0.  1.
     999901    1    3    3    0    0 -0.10607211540E+00 -0.34022346616E-01 -0.62267117694E-01  0.88920526746E+00  0.88000000000E+00 0.  1.
        -11    1    4    4    0    0  0.50088521380E-01 -0.13153418592E-02  0.39633329141E-01  0.63887807898E-01  0.51100000000E-03 0. -1.
         11    1    4    4    0    0  0.58800653435E-01  0.12286601536E-01  0.29073002099E-01  0.66738129984E-01  0.51100000000E-03 0.  1.
</event>
<event>
 8    1  0.1191842E+005  0.1043930E+01  0.7957747E-01            NaN
         13   -1    0    0    0    0  0.00000000000E+00  0.00000000000E+00  0.74505805969E-08  0.10566000000E+00  0.10566000000E+00 0. -1.
     999900   -1    0    0    0    0 -0.00000000000E+00 -0.00000000000E+00 -0.74505805969E-08  0.93827000000E+00  0.93827000000E+00 0. -1.
     999902    2    1    2    0    0  0.21676171846E-01  0.82742506523E-03  0.94489406698E-02  0.10202694096E+01  0.10199950219E+01 0.  0.
     999903    2    3    3    0    0 -0.51965677021E-01  0.10905208640E+00 -0.41720933537E-01  0.12911619312E+00  0.18372966414E-01 0.  0.
         14    1    1    2    0    0 -0.21676171846E-01 -0.82742506523E-03 -0.94489406698E-02  0.23660590397E-01  0.00000000000E+00 0.  1.
     999901    1    3    3    0    0  0.73641848867E-01 -0.10822466133E+00  0.51169874207E-01  0.89115321648E+00  0.88000000000E+00 0.  1.
        -11    1    4    4    0    0  0.78206373897E-03  0.89115657904E-02 -0.21589752317E-02  0.92168282819E-02  0.51100000000E-03 0.  1.
         11    1    4    4    0    0 -0.52747740760E-01  0.10014052060E+00 -0.39561958306E-01  0.11989936484E+00  0.51100000000E-03 0. -1.
</event>
<event>
 8    1  0.1191842E+005  0.1043930E+01  0.7957747E-01            NaN
         13   -1    0    0    0    0  0.00000000000E+00  0.00000000000E+00  0.74505805969E-08  0.10566000000E+00  0.10566000000E+00 0. -1.
     999900   -1    0    0    0    0 -0.00000000000E+00 -0.00000000000E+00 -0.74505805969E-08  0.93827000000E+00  0.93827000000E+00 0.  1.
     999902    2    1    2    0    0 -0.17508886720E-01  0.75906911676E-02  0.14679319307E-01  0.10198538267E+01  0.10195695982E+01 0.  0.
     999903    2    3    3    0    0  0.25957610996E-01 -0.12261493848E+00  0.23018655937E-01  0.12917297084E+00  0.21156019672E-01 0.  0.
         14    1    1    2    0    0  0.17508886720E-01 -0.75906911676E-02 -0.14679319307E-01  0.24076173323E-01  0.00000000000E+00 0.  1.
     999901    1    3    3    0    0 -0.43466497716E-01  0.13020562965E+00 -0.83393366297E-02  0.89068085583E+00  0.88000000000E+00 0. -1.
        -11    1    4    4    0    0  0.22802532397E-01 -0.10761495697E+00  0.27116399433E-01  0.11329825545E+00  0.51100000000E-03 0. -1.
         11    1    4    4    0    0  0.31550785992E-02 -0.14999981504E-01 -0.40977434965E-02  0.15874715394E-01  0.51100000000E-03 0.  1.
</event>
<event>
 8    1  0.1191842E+005  0.1043930E+01  0.7957747E-01            NaN
         13   -1    0    0    0    0  0.00000000000E+00  0.00000000000E+00  0.74505805969E-08  0.10566000000E+00  0.10566000000E+00 0. -1.
     999900   -1    0    0    0    0 -0.00000000000E+00 -0.00000000000E+00 -0.74505805969E-08  0.93827000000E+00  0.93827000000E+00 0.  1.
     999902    2    1    2    0    0 -0.19190273054E-01  0.34594095123E-02 -0.24194891789E-01  0.10128554625E+01  0.10123786648E+01 0.  0.
     999903    2    3    3    0    0 -0.75863202153E-01  0.40975584433E-01 -0.92017818774E-01  0.12763275959E+00  0.19713406288E-01 0.  0.
         14    1    1    2    0    0  0.19190273054E-01 -0.34594095123E-02  0.24194891789E-01  0.31074537530E-01  0.00000000000E+00 0. -1.
     999901    1    3    3    0    0  0.56672929099E-01 -0.37516174921E-01  0.67822926985E-01  0.88522270288E+00  0.88000000000E+00 0. -1.
        -11    1    4    4    0    0 -0.60400334365E-01  0.23945773969E-01 -0.61986565879E-01  0.89800868330E-01  0.51100000000E-03 0.  1.
         11    1    4    4    0    0 -0.15462867788E-01  0.17029810464E-01 -0.30031252895E-01  0.37831891257E-01  0.51100000000E-03 0. -1.
</event>
<event>
 8    1  0.1191842E+005  0.1043930E+01  0.7957747E-01            NaN
         13   -1    0    0    0    0  0.00000000000E+00  0.00000000000E+00  0.74505805969E-08  0.10566000000E+00  0.10566000000E+00 0. -1.
     999900   -1    0    0    0    0 -0.00000000000E+00 -0.00000000000E+00 -0.74505805969E-08  0.93827000000E+00  0.93827000000E+00 0.  1.
     999902    2    1    2    0    0 -0.15089703746E-02  0.23282081687E-02 -0.23179689962E-01  0.10205848598E+01  0.10203178233E+01 0.  0.
     999903    2    3    3    0    0  0.16118448508E-01 -0.12795043899E+00 -0.67230857645E-02  0.13066684580E+00  0.19937539673E-01 0.  0.
         14    1    1    2    0    0  0.15089703746E-02 -0.23282081687E-02  0.23179689962E-01  0.23345140214E-01  0.00000000000E+00 0. -1.
     999901    1    3    3    0    0 -0.17627418883E-01  0.13027864716E+00 -0.16456604198E-01  0.88991801399E+00  0.88000000000E+00 0. -1.
        -11    1    4    4    0    0  0.13036304048E-01 -0.78301121870E-01  0.50642594860E-02  0.79541930795E-01  0.51100000000E-03 0.  1.
         11    1    4    4    0    0  0.30821444597E-02 -0.49649317119E-01 -0.11787345250E-01  0.51124915002E-01  0.51100000000E-03 0. -1.
</event>
<event>
 8    1  0.1191842E+005  0.1043930E+01  0.7957747E-01            NaN
         13   -1    0    0    0    0  0.00000000000E+00  0.00000000000E+00  0.74505805969E-08  0.10566000000E+00  0.10566000000E+00 0. -1.
     999900   -1    0    0    0    0 -0.00000000000E+00 -0.00000000000E+00 -0.74505805969E-08  0.93827000000E+00  0.93827000000E+00 0.  1.
     999902    2    1    2    0    0 -0.12313413733E-01 -0.19466958596E-01  0.46009018044E-02  0.10204406209E+01  0.10201702357E+01 0.  0.
     999903    2    3    3    0    0 -0.93250057533E-01 -0.90693353517E-01 -0.21996101310E-01  0.13346184986E+00  0.20183639224E-01 0.  0.
         14    1    1    2    0    0  0.12313413733E-01  0.19466958596E-01 -0.46009018044E-02  0.23489379135E-01  0.00000000000E+00 0.  1.
     999901    1    3    3    0    0  0.80936643801E-01  0.71226394921E-01  0.26597003114E-01  0.88697877101E+00  0.88000000000E+00 0. -1.
        -11    1    4    4    0    0 -0.51824704641E-01 -0.49766721352E-01 -0.19692998617E-02  0.71879523010E-01  0.51100000000E-03 0.  1.
         11    1    4    4    0    0 -0.41425352893E-01 -0.40926632166E-01 -0.20026801448E-01  0.61582326848E-01  0.51100000000E-03 0. -1.
</event>
<event>
 8    1  0.1191842E+005  0.1043930E+01  0.7957747E-01            NaN
         13   -1    0    0    0    0  0.00000000000E+00  0.00000000000E+00  0.74505805969E-08  0.10566000000E+00  0.10566000000E+00 0. -1.
     999900   -1    0    0    0    0 -0.00000000000E+00 -0.00000000000E+00 -0.74505805969E-08  0.93827000000E+00  0.93827000000E+00 0. -1.
     999902    2    1    2    0    0  0.13512797529E-01  0.53302182526E-02  0.18272941501E-01  0.10205867501E+01  0.10203197573E+01 0.  0.
     999903    2    3    3    0    0  0.53087990215E-01  0.86633603816E-01 -0.79443085043E-01  0.13057278494E+00  0.20355156361E-01 0.  0.
         14    1    1    2    0    0 -0.13512797529E-01 -0.53302182526E-02 -0.18272941501E-01  0.23343249876E-01  0.00000000000E+00 0.  1.
     999901    1    3    3    0    0 -0.39575192685E-01 -0.81303385564E-01  0.97716026543E-01  0.89001396518E+00  0.88000000000E+00 0.  1.
        -11    1    4    4    0    0  0.19487278508E-01  0.50605968630E-01 -0.38400206741E-01  0.66449643215E-01  0.51100000000E-03 0. -1.
         11    1    4    4    0    0  0.33600711707E-01  0.36027635186E-01 -0.41042878302E-01  0.64123141725E-01  0.51100000000E-03 0.  1.
</event>
<event>
 8    1  0.1191842E+005  0.1043930E+01  0.7957747E-01            NaN
         13   -1    0    0    0    0  0.00000000000E+00  0.00000000000E+00  0.74505805969E-08  0.10566000000E+00  0.10566000000E+00 0.  1.
     999900   -1    0    0    0    0 -0.00000000000E+00 -0.00000000000E+00 -0.74505805969E-08  0.93827000000E+00  0.93827000000E+00 0. -1.
     999902    2    1    2    0    0 -0.14400573316E-01  0.11475544299E-01 -0.14059884938E-01  0.10207622424E+01  0.10204992947E+01 0.  0.
     999903    2    3    3    0    0  0.89183283545E-01  0.63447710989E-01 -0.69713360212E-01  0.13142089575E+00  0.20790121544E-01 0.  0.
         14    1    1    2    0    0  0.14400573316E-01 -0.11475544299E-01  0.14059884938E-01  0.23167757623E-01  0.00000000000E+00 0.  1.
     999901    1    3    3    0    0 -0.10358385686E+00 -0.51972166689E-01  0.55653475274E-01  0.88934134663E+00  0.88000000000E+00 0.  1.
        -11    1    4    4    0    0  0.35797640827E-01  0.15059116597E-01 -0.30528502454E-01  0.49401403468E-01  0.51100000000E-03 0. -1.
         11    1    4    4    0    0  0.53385642717E-01  0.48388594392E-01 -0.39184857758E-01  0.82019492281E-01  0.51100000000E-03 0.  1.
</event>
<event>
 8    1  0.1370574E+005  0.1043930E+01  0.7957747E-01            NaN
         13   -1    0    0    0    0  0.00000000000E+00  0.00000000000E+00  0.74505805969E-08  0.10566000000E+00  0.10566000000E+00 0. -1.
     999900   -1    0    0    0    0 -0.00000000000E+00 -0.00000000000E+00 -0.74505805969E-08  0.93827000000E+00  0.93827000000E+00 0.  1.
     999902    2    1    2    0    0 -0.14287368082E-02  0.15748208591E-01 -0.17581579203E-01  0.10202834508E+01  0.10200093924E+01 0.  0.
     999903    2    3    3    0    0 -0.30750148211E-01 -0.25034190263E-01 -0.12476035160E+00  0.13235877015E+00  0.19529884982E-01 0.  0.
         14    1    1    2    0    0  0.14287368082E-02 -0.15748208591E-01  0.17581579203E-01  0.23646549219E-01  0.00000000000E+00 0.  1.
     999901    1    3    3    0    0  0.29321411403E-01  0.40782398853E-01  0.10717877240E+00  0.88792468063E+00  0.88000000000E+00 0. -1.
        -11    1    4    4    0    0 -0.25426977283E-01 -0.88372367850E-02 -0.69807936623E-01  0.74820031170E-01  0.51100000000E-03 0.  1.
         11    1    4    4    0    0 -0.53231709278E-02 -0.16196953478E-01 -0.54952414976E-01  0.57538738979E-01  0.51100000000E-03 0. -1.
</event>
<event>
 8    1  0.1191842E+005  0.1043930E+01  0.7957747E-01            NaN
         13   -1    0    0    0    0  0.00000000000E+00  0.00000000000E+00  0.74505805969E-08  0.10566000000E+00  0.10566000000E+00 0.  1.
     999900   -1    0    0    0    0 -0.00000000000E+00 -0.00000000000E+00 -0.74505805969E-08  0.93827000000E+00  0.93827000000E+00 0.  1.
     999902    2    1    2    0    0 -0.17330173734E-01  0.13410403750E-01 -0.86747824865E-02  0.10203625287E+01  0.10200903217E+01 0.  0.
     999903    2    3    3    0    0  0.27269616747E-01  0.11691133541E+00 -0.51342110876E-01  0.13214966851E+00  0.20387010434E-01 0.  0.
         14    1    1    2    0    0  0.17330173734E-01 -0.13410403750E-01  0.86747824865E-02  0.23567471260E-01  0.00000000000E+00 0.  1.
     999901    1    3    3    0    0 -0.44599790481E-01 -0.10350093166E+00  0.42667328389E-01  0.88821286023E+00  0.88000000000E+00 0.  1.
        -11    1    4    4    0    0  0.36715710522E-02  0.24597528926E-01 -0.22879748007E-02  0.24980288488E-01  0.51100000000E-03 0. -1.
         11    1    4    4    0    0  0.23598045694E-01  0.92313806480E-01 -0.49054136075E-01  0.10716938002E+00  0.51100000000E-03 0.  1.
</event>
<event>
 8    1  0.1191842E+005  0.1043930E+01  0.7957747E-01            NaN
         13   -1    0    0    0    0  0.00000000000E+00  0.00000000000E+00  0.74505805969E-08  0.10566000000E+00  0.10566000000E+00 0. -1.
     999900   -1    0    0    0    0 -0.00000000000E+00 -0.00000000000E+00 -0.74505805969E-08  0.93827000000E+00  0.93827000000E+00 0.  1.
     999902    2    1    2    0    0 -0.15382299586E-01  0.16567514055E-01  0.78946692458E-02  0.10199837380E+01  0.10197026048E+01 0.  0.
     999903    2    3    3    0    0  0.91103900047E-02 -0.40246658858E-01  0.12208756420E+00  0.13045141178E+00  0.20233752657E-01 0.  0.
         14    1    1    2    0    0  0.15382299586E-01 -0.16567514055E-01 -0.78946692458E-02  0.23946262026E-01  0.00000000000E+00 0.  1.
     999901    1    3    3    0    0 -0.24492689591E-01  0.56814172913E-01 -0.11419289496E+00  0.88953232620E+00  0.88000000000E+00 0.  1.
        -11    1    4    4    0    0  0.15223479308E-01 -0.22515104067E-01  0.73714891601E-01  0.78567363442E-01  0.51100000000E-03 0.  1.
         11    1    4    4    0    0 -0.61130893031E-02 -0.17731554791E-01  0.48372672603E-01  0.51884048337E-01  0.51100000000E-03 0. -1.
</event>
<event>
 8    1  0.1191842E+005  0.1043930E+01  0.7957747E-01            NaN
         13   -1    0    0    0    0  0.00000000000E+00  0.00000000000E+00  0.74505805969E-08  0.10566000000E+00  0.10566000000E+00 0. -1.
     999900   -1    0    0    0    0 -0.00000000000E+00 -0.00000000000E+00 -0.74505805969E-08  0.93827000000E+00  0.93827000000E+00 0. -1.
     999902    2    1    2    0    0  0.22998459248E-01 -0.35756488450E-02  0.30931041088E-03  0.10206531861E+01  0.10203877284E+01 0.  0.
     999903    2    3    3    0    0 -0.51829639084E-03 -0.93196856309E-01  0.90259378667E-01  0.13122864551E+00  0.19704804187E-01 0.  0.
         14    1    1    2    0    0 -0.22998459248E-01  0.35756488450E-02 -0.30931041088E-03  0.23276813901E-01  0.00000000000E+00 0.  1.
     999901    1    3    3    0    0  0.23516755639E-01  0.89621207464E-01 -0.89950068256E-01  0.88942454059E+00  0.88000000000E+00 0.  1.
        -11    1    4    4    0    0  0.62286977229E-02 -0.15381289452E-01  0.10796157181E-01  0.19804011498E-01  0.51100000000E-03 0. -1.
         11    1    4    4    0    0 -0.67469941138E-02 -0.77815566857E-01  0.79463221485E-01  0.11142463401E+00  0.51100000000E-03 0.  1.
</event>
<event>
 8    1  0.1191842E+005  0.1043930E+01  0.7957747E-01            NaN
         13   -1    0    0    0    0  0.00000000000E+00  0.00000000000E+00  0.74505805969E-08  0.10566000000E+00  0.10566000000E+00 0. -1.
     999900   -1    0    0    0    0 -0.00000000000E+00 -0.00000000000E+00 -0.74505805969E-08  0.93827000000E+00  0.93827000000E+00 0.  1.
     999902    2    1    2    0    0 -0.12597827943E-01  0.13882897144E-01 -0.14476511614E-01  0.10202443611E+01  0.10199693853E+01 0.  0.
     999903    2    3    3    0    0 -0.97185532674E-01 -0.47264136949E-01  0.69572932085E-01  0.13009923329E+00  0.20161627415E-01 0.  0.
         14    1    1    2    0    0  0.12597827943E-01 -0.13882897144E-01  0.14476511614E-01  0.23685638908E-01  0.00000000000E+00 0. -1.
     999901    1    3    3    0    0  0.84587704732E-01  0.61147034093E-01 -0.84049443699E-01  0.89014512781E+00  0.88000000000E+00 0.  1.
        -11    1    4    4    0    0 -0.87299778490E-02 -0.11121201540E-01  0.11906769933E-01  0.18491239228E-01  0.51100000000E-03 0.  1.
         11    1    4    4    0    0 -0.88455554825E-01 -0.36142935409E-01  0.57666162152E-01  0.11160799406E+00  0.51100000000E-03 0. -1.
</event>
<event>
 8    1  0.1191842E+005  0.1043930E+01  0.7957747E-01            NaN
         13   -1    0    0    0    0  0.00000000000E+00  0.00000000000E+00  0.74505805969E-08  0.10566000000E+00  0.10566000000E+00 0.  1.
     999900   -1    0    0    0    0 -0.00000000000E+00 -0.00000000000E+00 -0.74505805969E-08  0.93827000000E+00  0.93827000000E+00 0. -1.
     999902    2    1    2    0    0  0.70779450251E-02 -0.15960939441E-01 -0.15246063494E-01  0.10207504542E+01  0.10204872357E+01 0.  0.
     999903    2    3    3    0    0 -0.72253010029E-01  0.10054485577E+00 -0.31557540058E-01  0.12938461174E+00  0.20365017605E-01 0.  0.
         14    1    1    2    0    0 -0.70779450251E-02  0.15960939441E-01  0.15246063494E-01  0.23179545847E-01  0.00000000000E+00 0.  1.
     999901    1    3    3    0    0  0.79330955054E-01 -0.11650579521E+00  0.16311476564E-01  0.89136584241E+00  0.88000000000E+00 0.  1.
        -11    1    4    4    0    0 -0.51650603714E-01  0.62565899749E-01 -0.28776588586E-01  0.86085015230E-01  0.51100000000E-03 0. -1.
         11    1    4    4    0    0 -0.20602406315E-01  0.37978956018E-01 -0.27809514721E-02  0.43299596513E-01  0.51100000000E-03 0.  1.
</event>
<event>
 8    1  0.1191842E+005  0.1043930E+01  0.7957747E-01            NaN
         13   -1    0    0    0    0  0.00000000000E+00  0.00000000000E+00  0.74505805969E-08  0.10566000000E+00  0.10566000000E+00 0.  1.
     999900   -1    0    0    0    0 -0.00000000000E+00 -0.00000000000E+00 -0.74505805969E-08  0.93827000000E+00  0.93827000000E+00 0. -1.
     999902    2    1    2    0    0 -0.21052235050E-02 -0.81122194848E-02 -0.21788176634E-01  0.10205855207E+01  0.10203184995E+01 0.  0.
     999903    2    3    3    0    0 -0.63584875674E-01  0.83321725798E-01  0.72264378856E-01  0.12874147766E+00  0.19148922003E-01 0.  0.
         14    1    1    2    0    0  0.21052235050E-02  0.81122194848E-02  0.21788176634E-01  0.23344479262E-01  0.00000000000E+00 0.  1.
     999901    1    3    3    0    0  0.61479652169E-01 -0.91433945283E-01 -0.94052555491E-01  0.89184404308E+00  0.88000000000E+00 0.  1.
        -11    1    4    4    0    0 -0.34628610048E-01  0.39073895134E-01  0.25320179713E-01  0.58028290829E-01  0.51100000000E-03 0.  1.
         11    1    4    4    0    0 -0.28956265626E-01  0.44247830664E-01  0.46944199143E-01  0.70713186830E-01  0.51100000000E-03 0. -1.
</event>
<event>
 8    1  0.1191842E+005  0.1043930E+01  0.7957747E-01            NaN
         13   -1    0    0    0    0  0.00000000000E+00  0.00000000000E+00  0.74505805969E-08  0.10566000000E+00  0.10566000000E+00 0. -1.
     999900   -1    0    0    0    0 -0.00000000000E+00 -0.00000000000E+00 -0.74505805969E-08  0.93827000000E+00  0.93827000000E+00 0.  1.
     999902    2    1    2    0    0  0.17336431745E-01 -0.92943268060E-02 -0.13782644995E-01  0.10199113056E+01  0.10196284488E+01 0.  0.
     999903    2    3    3    0    0 -0.57963232705E-01  0.10963705196E+00  0.24128615906E-01  0.12791804555E+00  0.20020408659E-01 0.  0.
         14    1    1    2    0    0 -0.17336431745E-01  0.92943268060E-02  0.13782644995E-01  0.24018694375E-01  0.00000000000E+00 0. -1.
     999901    1    3    3    0    0  0.75299664450E-01 -0.11893137877E+00 -0.37911260901E-01  0.89199326008E+00  0.88000000000E+00 0. -1.
        -11    1    4    4    0    0 -0.48045780985E-01  0.71279188829E-01  0.15055174261E-01  0.87269921643E-01  0.51100000000E-03 0.  1.
         11    1    4    4    0    0 -0.99174517201E-02  0.38357863131E-01  0.90734416444E-02  0.40648123904E-01  0.51100000000E-03 0. -1.
</event>
<event>
 8    1  0.1191842E+005  0.1043930E+01  0.7957747E-01            NaN
         13   -1    0    0    0    0  0.00000000000E+00  0.00000000000E+00  0.74505805969E-08  0.10566000000E+00  0.10566000000E+00 0.  1.
     999900   -1    0    0    0    0 -0.00000000000E+00 -0.00000000000E+00 -0.74505805969E-08  0.93827000000E+00  0.93827000000E+00 0.  1.
     999902    2    1    2    0    0 -0.84220968733E-02 -0.20357279822E-01 -0.82815628543E-02  0.10203941796E+01  0.10201227117E+01 0.  0.
     999903    2    3    3    0    0 -0.12265141503E-01 -0.74077411876E-01  0.10591039863E+00  0.13138325413E+00  0.20165571696E-01 0.  0.
         14    1    1    2    0    0  0.84220968733E-02  0.20357279822E-01  0.82815628543E-02  0.23535820377E-01  0.00000000000E+00 0.  1.
     999901    1    3    3    0    0  0.38430446296E-02  0.53720132053E-01 -0.11419196148E+00  0.88901092549E+00  0.88000000000E+00 0.  1.
        -11    1    4    4    0    0  0.19884983418E-02 -0.44616343058E-01  0.54882738462E-01  0.70759792931E-01  0.51100000000E-03 0. -1.
         11    1    4    4    0    0 -0.14253639845E-01 -0.29461068818E-01  0.51027660166E-01  0.60623461198E-01  0.51100000000E-03 0.  1.
</event>
<event>
 8    1  0.1191842E+005  0.1043930E+01  0.7957747E-01            NaN
         13   -1    0    0    0    0  0.00000000000E+00  0.00000000000E+00  0.74505805969E-08  0.10566000000E+00  0.10566000000E+00 0.  1.
     999900   -1    0    0    0    0 -0.00000000000E+00 -0.00000000000E+00 -0.74505805969E-08  0.93827000000E+00  0.93827000000E+00 0.  1.
     999902    2    1    2    0    0  0.13823482126E-01 -0.19269309937E-01 -0.64182212034E-02  0.10193619613E+01  0.10190658563E+01 0.  0.
     999903    2    3    3    0    0 -0.89832380038E-01 -0.42501395260E-01 -0.81344703755E-01  0.12981249928E+00  0.18923504879E-01 0.  0.
         14    1    1    2    0    0 -0.13823482126E-01  0.19269309937E-01  0.64182212034E-02  0.24568038728E-01  0.00000000000E+00 0. -1.
     999901    1    3    3    0    0  0.10365586216E+00  0.23232085322E-01  0.74926482552E-01  0.88954946200E+00  0.88000000000E+00 0. -1.
        -11    1    4    4    0    0 -0.76755443016E-01 -0.28799533653E-01 -0.69415450068E-01  0.10742242317E+00  0.51100000000E-03 0.  1.
         11    1    4    4    0    0 -0.13076937022E-01 -0.13701861606E-01 -0.11929253688E-01  0.22390076103E-01  0.51100000000E-03 0. -1.
</event>
<event>
 8    1  0.1191842E+005  0.1043930E+01  0.7957747E-01            NaN
         13   -1    0    0    0    0  0.00000000000E+00  0.00000000000E+00  0.74505805969E-08  0.10566000000E+00  0.10566000000E+00 0. -1.
     999900   -1    0    0    0    0 -0.00000000000E+00 -0.00000000000E+00 -0.74505805969E-08  0.93827000000E+00  0.93827000000E+00 0. -1.
     999902    2    1    2    0    0  0.61356670175E-02  0.20797243618E-01 -0.95186367395E-02  0.10202492864E+01  0.10199744262E+01 0.  0.
     999903    2    3    3    0    0 -0.34204338629E-01  0.11617374920E+00  0.45917296260E-01  0.13244461387E+00  0.27692974992E-01 0.  0.
         14    1    1    2    0    0 -0.61356670175E-02 -0.20797243618E-01  0.95186367395E-02  0.23680713614E-01  0.00000000000E+00 0.  1.
     999901    1    3    3    0    0  0.40340005646E-01 -0.95376505580E-01 -0.55435932999E-01  0.88780467252E+00  0.88000000000E+00 0. -1.
        -11    1    4    4    0    0 -0.85695197967E-02  0.62060762363E-01  0.12553190586E-01  0.63896937403E-01  0.51100000000E-03 0.  1.
         11    1    4    4    0    0 -0.25634818832E-01  0.54112986836E-01  0.33364105673E-01  0.68547676468E-01  0.51100000000E-03 0. -1.
</event>
<event>
 8    1  0.1191842E+005  0.1043930E+01  0.7957747E-01            NaN
         13   -1    0    0    0    0  0.00000000000E+00  0.00000000000E+00  0.74505805969E-08  0.10566000000E+00  0.10566000000E+00 0. -1.
     999900   -1    0    0    0    0 -0.00000000000E+00 -0.00000000000E+00 -0.74505805969E-08  0.93827000000E+00  0.93827000000E+00 0.  1.
     999902    2    1    2    0    0 -0.21238274434E-02 -0.20835690335E-01  0.11188746798E-01  0.10201850071E+01  0.10199086351E+01 0.  0.
     999903    2    3    3    0    0 -0.53316263333E-01  0.10345580938E+00  0.52572736015E-01  0.12901629298E+00  0.18318920614E-01 0.  0.
         14    1    1    2    0    0  0.21238274434E-02  0.20835690335E-01 -0.11188746798E-01  0.23744992939E-01  0.00000000000E+00 0. -1.
     999901    1    3    3    0    0  0.51192435890E-01 -0.12429149971E+00 -0.41383989217E-01  0.89116871408E+00  0.88000000000E+00 0.  1.
        -11    1    4    4    0    0 -0.11107767179E-01  0.89028886519E-02  0.72684984867E-02  0.15991751290E-01  0.51100000000E-03 0.  1.
         11    1    4    4    0    0 -0.42208496154E-01  0.94552920726E-01  0.45304237529E-01  0.11302454169E+00  0.51100000000E-03 0. -1.
</event>
<event>
 8    1  0.1191842E+005  0.1043930E+01  0.7957747E-01            NaN
         13   -1    0    0    0    0  0.00000000000E+00  0.00000000000E+00  0.74505805969E-08  0.10566000000E+00  0.10566000000E+00 0. -1.
     999900   -1    0    0    0    0 -0.00000000000E+00 -0.00000000000E+00 -0.74505805969E-08  0.93827000000E+00  0.93827000000E+00 0. -1.
     999902    2    1    2    0    0  0.19833304495E-01 -0.80491688832E-02 -0.11699327695E-01  0.10195368994E+01  0.10192450471E+01 0.  0.
     999903    2    3    3    0    0 -0.11541734859E+00  0.38265537989E-01 -0.33635361080E-01  0.12773031682E+00  0.19956967833E-01 0.  0.
         14    1    1    2    0    0 -0.19833304495E-01  0.80491688832E-02  0.11699327695E-01  0.24393100569E-01  0.00000000000E+00 0. -1.
     999901    1    3    3    0    0  0.13525065309E+00 -0.46314706873E-01  0.21936033385E-01  0.89180658261E+00  0.88000000000E+00 0. -1.
        -11    1    4    4    0    0 -0.44172256612E-01  0.12724491824E-01 -0.29692522919E-02  0.46067108945E-01  0.51100000000E-03 0. -1.
         11    1    4    4    0    0 -0.71245091982E-01  0.25541046165E-01 -0.30666108788E-01  0.81663207872E-01  0.51100000000E-03 0.  1.
</event>
<event>
 7    1  0.1191842E+005  0.1043930E+01  0.7957747E-01            NaN
         13   -1    0    0    0    0  0.00000000000E+00  0.00000000000E+00  0.74505805969E-08  0.10566000000E+00  0.10566000000E+00 0. -1.
     999900   -1    0    0    0    0 -0.00000000000E+00 -0.00000000000E+00 -0.74505805969E-08  0.93827000000E+00  0.93827000000E+00 0.  1.
     999903    2    1    2    0    0 -0.27365426352E-01  0.30182219333E-01  0.97141675906E-01  0.10691030295E+00  0.18261291159E-01 0.  0.
         14    1    1    2    0    0  0.23351081558E-01 -0.30693242783E-01  0.28679637643E-01  0.48061104626E-01  0.00000000000E+00 0. -1.
     999901    1    1    2    0    0  0.40143447939E-02  0.51102344938E-03 -0.12582131355E+00  0.88895859243E+00  0.88000000000E+00 0.  1.
        -11    1    3    3    0    0 -0.56459018018E-02  0.19612864613E-01  0.47499385118E-01  0.51700999730E-01  0.51100000000E-03 0.  1.
         11    1    3    3    0    0 -0.21719524551E-01  0.10569354720E-01  0.49642290789E-01  0.55209303216E-01  0.51100000000E-03 0. -1.
</event>
<event>
 8    1  0.1191842E+005  0.1043930E+01  0.7957747E-01            NaN
         13   -1    0    0    0    0  0.00000000000E+00  0.00000000000E+00  0.74505805969E-08  0.10566000000E+00  0.10566000000E+00 0. -1.
     999900   -1    0    0    0    0 -0.00000000000E+00 -0.00000000000E+00 -0.74505805969E-08  0.93827000000E+00  0.93827000000E+00 0.  1.
     999902    2    1    2    0    0  0.51797798603E-02  0.64304438263E-02  0.22473773690E-01  0.10199873345E+01  0.10197062868E+01 0.  0.
     999903    2    3    3    0    0  0.53918332224E-01  0.11683332725E+00  0.24508021993E-01  0.13174841320E+00  0.14134650014E-01 0.  0.
         14    1    1    2    0    0 -0.51797798603E-02 -0.64304438263E-02 -0.22473773690E-01  0.23942665496E-01  0.00000000000E+00 0. -1.
     999901    1    3    3    0    0 -0.48738552364E-01 -0.11040288343E+00 -0.20342483036E-02  0.88823892131E+00  0.88000000000E+00 0.  1.
        -11    1    4    4    0    0  0.18363521913E-01  0.47428126106E-01  0.34870739090E-02  0.50981044403E-01  0.51100000000E-03 0.  1.
         11    1    4    4    0    0  0.35554810311E-01  0.69405201148E-01  0.21020948085E-01  0.80767368795E-01  0.51100000000E-03 0. -1.
</event>
<event>
 8    1  0.1191842E+005  0.1043930E+01  0.7957747E-01            NaN
         13   -1    0    0    0    0  0.00000000000E+00  0.00000000000E+00  0.74505805969E-08  0.10566000000E+00  0.10566000000E+00 0.  1.
     999900   -1    0    0    0    0 -0.00000000000E+00 -0.00000000000E+00 -0.74505805969E-08  0.93827000000E+00  0.93827000000E+00 0. -1.
     999902    2    1    2    0    0  0.65150288249E-02 -0.20587325911E-01 -0.72156762832E-02  0.10211627083E+01  0.10209088731E+01 0.  0.
     999903    2    3    3    0    0 -0.12394981972E+00 -0.23867702022E-01 -0.29915115136E-01  0.13124861011E+00  0.19951404328E-01 0.  0.
         14    1    1    2    0    0 -0.65150288249E-02  0.20587325911E-01  0.72156762832E-02  0.22767291735E-01  0.00000000000E+00 0. -1.
     999901    1    3    3    0    0  0.13046484854E+00  0.32803761117E-02  0.22699438853E-01  0.88991409816E+00  0.88000000000E+00 0. -1.
        -11    1    4    4    0    0 -0.26126652789E-01 -0.95784488361E-02 -0.13856044613E-01  0.31090187541E-01  0.51100000000E-03 0.  1.
         11    1    4    4    0    0 -0.97823166927E-01 -0.14289253186E-01 -0.16059070523E-01  0.10015842257E+00  0.51100000000E-03 0. -1.
</event>
<event>
 8    1  0.1191842E+005  0.1043930E+01  0.7957747E-01            NaN
         13   -1    0    0    0    0  0.00000000000E+00  0.00000000000E+00  0.74505805969E-08  0.10566000000E+00  0.10566000000E+00 0. -1.
     999900   -1    0    0    0    0 -0.00000000000E+00 -0.00000000000E+00 -0.74505805969E-08  0.93827000000E+00  0.93827000000E+00 0.  1.
     999902    2    1    2    0    0  0.10219402849E-01  0.19904986181E-01 -0.93718838457E-02  0.10196714577E+01  0.10193828548E+01 0.  0.
     999903    2    3    3    0    0  0.25836056388E-01  0.33703705055E-01  0.12081876237E+00  0.12984906591E+00  0.21451457598E-01 0.  0.
         14    1    1    2    0    0 -0.10219402849E-01 -0.19904986181E-01  0.93718838457E-02  0.24258542336E-01  0.00000000000E+00 0.  1.
     999901    1    3    3    0    0 -0.15616653538E-01 -0.13798718874E-01 -0.13019064621E+00  0.88982239176E+00  0.88000000000E+00 0.  1.
        -11    1    4    4    0    0  0.19649941851E-01  0.11431084416E-01  0.42656104583E-01  0.48338331424E-01  0.51100000000E-03 0.  1.
         11    1    4    4    0    0  0.61861145368E-02  0.22272620639E-01  0.78162657784E-01  0.81510734483E-01  0.51100000000E-03 0. -1.
</event>
<event>
 8    1  0.1191842E+005  0.1043930E+01  0.7957747E-01            NaN
         13   -1    0    0    0    0  0.00000000000E+00  0.00000000000E+00  0.74505805969E-08  0.10566000000E+00  0.10566000000E+00 0.  1.
     999900   -1    0    0    0    0 -0.00000000000E+00 -0.00000000000E+00 -0.74505805969E-08  0.93827000000E+00  0.93827000000E+00 0. -1.
     999902    2    1    2    0    0 -0.89894939505E-02 -0.17736374168E-01  0.12081782335E-01  0.10206628679E+01  0.10203976335E+01 0.  0.
     999903    2    3    3    0    0 -0.55106587630E-02 -0.72465496186E-01 -0.10692153380E+00  0.13096113795E+00  0.20904300179E-01 0.  0.
         14    1    1    2    0    0  0.89894939505E-02  0.17736374168E-01 -0.12081782335E-01  0.23267132065E-01  0.00000000000E+00 0. -1.
     999901    1    3    3    0    0 -0.34788351874E-02  0.54729122018E-01  0.11900331613E+00  0.88970172999E+00  0.88000000000E+00 0.  1.
        -11    1    4    4    0    0 -0.12973218709E-01 -0.53835807266E-01 -0.82209716685E-01  0.99122637102E-01  0.51100000000E-03 0.  1.
         11    1    4    4    0    0  0.74625599462E-02 -0.18629688920E-01 -0.24711817111E-01  0.31838500846E-01  0.51100000000E-03 0. -1.
</event>
<event>
 8    1  0.1191842E+005  0.1043930E+01  0.7957747E-01            NaN
         13   -1    0    0    0    0  0.00000000000E+00  0.00000000000E+00  0.74505805969E-08  0.10566000000E+00  0.10566000000E+00 0. -1.
     999900   -1    0    0    0    0 -0.00000000000E+00 -0.00000000000E+00 -0.74505805969E-08  0.93827000000E+00  0.93827000000E+00 0. -1.
     999902    2    1    2    0    0 -0.14275220653E-01  0.68699795032E-02  0.16726011895E-01  0.10208922480E+01  0.10206322766E+01 0.  0.
     999903    2    3    3    0    0  0.10934624985E+00 -0.19533373330E-01 -0.61386070557E-01  0.12843446052E+00  0.19723234037E-01 0.  0.
         14    1    1    2    0    0  0.14275220653E-01 -0.68699795032E-02 -0.16726011895E-01  0.23037751995E-01  0.00000000000E+00 0.  1.
     999901    1    3    3    0    0 -0.12362147051E+00  0.26403352833E-01  0.78112082452E-01  0.89245778748E+00  0.88000000000E+00 0.  1.
        -11    1    4    4    0    0  0.81047383297E-01 -0.21442847421E-01 -0.51507029693E-01  0.98395677109E-01  0.51100000000E-03 0.  1.
         11    1    4    4    0    0  0.28298866556E-01  0.19094740904E-02 -0.98790408637E-02  0.30038783415E-01  0.51100000000E-03 0. -1.
</event>
<event>
 8    1  0.1191842E+005  0.1043930E+01  0.7957747E-01            NaN
         13   -1    0    0    0    0  0.00000000000E+00  0.00000000000E+00  0.74505805969E-08  0.10566000000E+00  0.10566000000E+00 0.  1.
     999900   -1    0    0    0    0 -0.00000000000E+00 -0.00000000000E+00 -0.74505805969E-08  0.93827000000E+00  0.93827000000E+00 0.  1.
     999902    2    1    2    0    0 -0.20553888671E-01 -0.97860172750E-02 -0.21194431850E-02  0.10210669181E+01  0.10208109182E+01 0.  0.
     999903    2    3    3    0    0  0.87811262965E-01 -0.93757005183E-01 -0.33751647264E-02  0.13045156358E+00  0.22472756403E-01 0.  0.
         14    1    1    2    0    0  0.20553888671E-01  0.97860172750E-02  0.21194431850E-02  0.22863081879E-01  0.00000000000E+00 0. -1.
     999901    1    3    3    0    0 -0.10836515164E+00  0.83970987908E-01  0.12557215414E-02  0.89061535454E+00  0.88000000000E+00 0.  1.
        -11    1    4    4    0    0  0.62691204903E-01 -0.77646403831E-01  0.33635486453E-02  0.99853521623E-01  0.51100000000E-03 0. -1.
         11    1    4    4    0    0  0.25120058062E-01 -0.16110601352E-01 -0.67387133717E-02  0.30598041961E-01  0.51100000000E-03 0.  1.
</event>
<event>
 8    1  0.1191842E+005  0.1043930E+01  0.7957747E-01            NaN
         13   -1    0    0    0    0  0.00000000000E+00  0.00000000000E+00  0.74505805969E-08  0.10566000000E+00  0.10566000000E+00 0. -1.
     999900   -1    0    0    0    0 -0.00000000000E+00 -0.00000000000E+00 -0.74505805969E-08  0.93827000000E+00  0.93827000000E+00 0. -1.
     999902    2    1    2    0    0 -0.15874384624E-02 -0.35807927260E-03  0.21522070825E-01  0.10223464944E+01  0.10221186364E+01 0.  0.
     999903    2    3    3    0    0  0.74073286499E-01 -0.10109274762E+00  0.40109828776E-01  0.13317973644E+00  0.20529209391E-01 0.  0.
         14    1    1    2    0    0  0.15874384624E-02  0.35807927260E-03 -0.21522070825E-01  0.21583505605E-01  0.00000000000E+00 0.  1.
     999901    1    3    3    0    0 -0.75660724961E-01  0.10073466835E+00 -0.18587757951E-01  0.88916675796E+00  0.88000000000E+00 0. -1.
        -11    1    4    4    0    0  0.51891100042E-01 -0.80612145604E-01  0.23466605625E-01  0.98701301830E-01  0.51100000000E-03 0.  1.
         11    1    4    4    0    0  0.22182186457E-01 -0.20480602020E-01  0.16643223151E-01  0.34478434607E-01  0.51100000000E-03 0. -1.
</event>
<event>
 7    1  0.1191842E+005  0.1043930E+01  0.7957747E-01            NaN
         13   -1    0    0    0    0  0.00000000000E+00  0.00000000000E+00  0.74505805969E-08  0.10566000000E+00  0.10566000000E+00 0. -1.
     999900   -1    0    0    0    0 -0.00000000000E+00 -0.00000000000E+00 -0.74505805969E-08  0.93827000000E+00  0.93827000000E+00 0. -1.
     999903    2    1    2    0    0  0.70501351799E-01 -0.42228000158E-01  0.74087078303E-01  0.11242446839E+00  0.19917864285E-01 0.  0.
         14    1    1    2    0    0  0.39720795091E-01 -0.68963211846E-02 -0.37873535497E-02  0.40492528390E-01  0.00000000000E+00 0.  1.
     999901    1    1    2    0    0 -0.11022214689E+00  0.49124321343E-01 -0.70299724754E-01  0.89101300322E+00  0.88000000000E+00 0. -1.
        -11    1    3    3    0    0  0.39668938901E-01 -0.16836515069E-01  0.48993727193E-01  0.65251355376E-01  0.51100000000E-03 0.  1.
         11    1    3    3    0    0  0.30832412898E-01 -0.25391485089E-01  0.25093351111E-01  0.47173113010E-01  0.51100000000E-03 0. -1.
</event>
<event>
 8    1  0.1191842E+005  0.1043930E+01  0.7957747E-01            NaN
         13   -1    0    0    0    0  0.00000000000E+00  0.00000000000E+00  0.74505805969E-08  0.10566000000E+00  0.10566000000E+00 0.  1.
     999900   -1    0    0    0    0 -0.00000000000E+00 -0.00000000000E+00 -0.74505805969E-08  0.93827000000E+00  0.93827000000E+00 0.  1.
     999902    2    1    2    0    0 -0.13239352500E-01 -0.12762486771E-02 -0.18584353695E-01  0.10210763905E+01  0.10208206051E+01 0.  0.
     999903    2    3    3    0    0  0.88226742463E-02  0.18344073200E-01  0.12563867875E+00  0.12884773530E+00  0.20057833687E-01 0.  0.
         14    1    1    2    0    0  0.13239352500E-01  0.12762486771E-02  0.18584353695E-01  0.22853609508E-01  0.00000000000E+00 0.  1.
     999901    1    3    3    0    0 -0.22062026746E-01 -0.19620321877E-01 -0.14422303244E+00  0.89222865519E+00  0.88000000000E+00 0.  1.
        -11    1    4    4    0    0  0.13493565120E-01  0.61671264724E-02  0.80612702858E-01  0.81968156815E-01  0.51100000000E-03 0.  1.
         11    1    4    4    0    0 -0.46708908741E-02  0.12176946728E-01  0.45025975891E-01  0.46879578487E-01  0.51100000000E-03 0. -1.
</event>
<event>
 8    1  0.1191842E+005  0.1043930E+01  0.7957747E-01            NaN
         13   -1    0    0    0    0  0.00000000000E+00  0.00000000000E+00  0.74505805969E-08  0.10566000000E+00  0.10566000000E+00 0.  1.
     999900   -1    0    0    0    0 -0.00000000000E+00 -0.00000000000E+00 -0.74505805969E-08  0.93827000000E+00  0.93827000000E+00 0. -1.
     999902    2    1    2    0    0 -0.86702445627E-02 -0.20261605598E-01  0.55881170756E-02  0.10211938426E+01  0.10209407090E+01 0.  0.
     999903    2    3    3    0    0  0.12759894325E+00 -0.20027536187E-01  0.21942011759E-03  0.13068939607E+00  0.19926805452E-01 0.  0.
         14    1    1    2    0    0  0.86702445627E-02  0.20261605598E-01 -0.55881170756E-02  0.22736157429E-01  0.00000000000E+00 0. -1.
     999901    1    3    3    0    0 -0.13626918781E+00 -0.23406941059E-03  0.53686969580E-02  0.89050444650E+00  0.88000000000E+00 0.  1.
        -11    1    4    4    0    0  0.73973066825E-01 -0.21940680456E-02 -0.31395928404E-02  0.74073927358E-01  0.51100000000E-03 0.  1.
         11    1    4    4    0    0  0.53625876424E-01 -0.17833468141E-01  0.33590129580E-02  0.56615468710E-01  0.51100000000E-03 0. -1.
</event>
<event>
 8    1  0.1191842E+005  0.1043930E+01  0.7957747E-01            NaN
         13   -1    0    0    0    0  0.00000000000E+00  0.00000000000E+00  0.74505805969E-08  0.10566000000E+00  0.10566000000E+00 0. -1.
     999900   -1    0    0    0    0 -0.00000000000E+00 -0.00000000000E+00 -0.74505805969E-08  0.93827000000E+00  0.93827000000E+00 0. -1.
     999902    2    1    2    0    0 -0.14937231262E-01  0.86483411086E-02  0.16277797855E-01  0.10202048786E+01  0.10199289745E+01 0.  0.
     999903    2    3    3    0    0  0.11436110630E+00  0.25717260927E-01  0.51859063834E-01  0.12988165944E+00  0.20977197419E-01 0.  0.
         14    1    1    2    0    0  0.14937231262E-01 -0.86483411086E-02 -0.16277797855E-01  0.23725121385E-01  0.00000000000E+00 0.  1.
     999901    1    3    3    0    0 -0.12929833757E+00 -0.17068919818E-01 -0.35581265979E-01  0.89032321918E+00  0.88000000000E+00 0. -1.
        -11    1    4    4    0    0  0.62771662799E-01  0.37116604528E-02  0.30154486474E-01  0.69739603163E-01  0.51100000000E-03 0. -1.
         11    1    4    4    0    0  0.51589443504E-01  0.22005600474E-01  0.21704577360E-01  0.60142056272E-01  0.51100000000E-03 0.  1.
</event>
<event>
 8    1  0.1191842E+005  0.1043930E+01  0.7957747E-01            NaN
         13   -1    0    0    0    0  0.00000000000E+00  0.00000000000E+00  0.74505805969E-08  0.10566000000E+00  0.10566000000E+00 0.  1.
     999900   -1    0    0    0    0 -0.00000000000E+00 -0.00000000000E+00 -0.74505805969E-08  0.93827000000E+00  0.93827000000E+00 0.  1.
     999902    2    1    2    0    0 -0.15857338417E-01 -0.36027133548E-02  0.17558870005E-01  0.10199978325E+01  0.10197170341E+01 0.  0.
     999903    2    3    3    0    0  0.11298999852E+00 -0.17361632571E-01 -0.52890596936E-01  0.12772317104E+00  0.21157200345E-01 0.  0.
         14    1    1    2    0    0  0.15857338417E-01  0.36027133548E-02 -0.17558870005E-01  0.23932167496E-01  0.00000000000E+00 0. -1.
     999901    1    3    3    0    0 -0.12884733693E+00  0.13758919216E-01  0.70449466942E-01  0.89227466146E+00  0.88000000000E+00 0. -1.
        -11    1    4    4    0    0  0.34787329829E-01 -0.40404900166E-02 -0.58962631533E-02  0.35517754946E-01  0.51100000000E-03 0.  1.
         11    1    4    4    0    0  0.78202668689E-01 -0.13321142554E-01 -0.46994333783E-01  0.92205416098E-01  0.51100000000E-03 0. -1.
</event>
<event>
 7    1  0.1191842E+005  0.1043930E+01  0.7957747E-01            NaN
         13   -1    0    0    0    0  0.00000000000E+00  0.00000000000E+00  0.74505805969E-08  0.10566000000E+00  0.10566000000E+00 0.  1.
     999900   -1    0    0    0    0 -0.00000000000E+00 -0.00000000000E+00 -0.74505805969E-08  0.93827000000E+00  0.93827000000E+00 0.  1.
     999903    2    1    2    0    0  0.71982272626E-01 -0.73457067162E-01 -0.37383623623E-01  0.11148430296E+00  0.21303197035E-01 0.  0.
         14    1    1    2    0    0  0.33352819469E-02 -0.10884977673E-01 -0.40241825361E-01  0.41821183065E-01  0.00000000000E+00 0. -1.
     999901    1    1    2    0    0 -0.75317554573E-01  0.84342044836E-01  0.77625448983E-01  0.89062451397E+00  0.88000000000E+00 0. -1.
        -11    1    3    3    0    0  0.34699118171E-01 -0.49346984895E-01 -0.25675311677E-01  0.65563987605E-01  0.51100000000E-03 0. -1.
         11    1    3    3    0    0  0.37283154456E-01 -0.24110082267E-01 -0.11708311946E-01  0.45920315360E-01  0.51100000000E-03 0.  1.
</event>
<event>
 8    1  0.1191842E+005  0.1043930E+01  0.7957747E-01            NaN
         13   -1    0    0    0    0  0.00000000000E+00  0.00000000000E+00  0.74505805969E-08  0.10566000000E+00  0.10566000000E+00 0.  1.
     999900   -1    0    0    0    0 -0.00000000000E+00 -0.00000000000E+00 -0.74505805969E-08  0.93827000000E+00  0.93827000000E+00 0.  1.
     999902    2    1    2    0    0  0.20649476370E-01 -0.94649746517E-04  0.10282864630E-01  0.10208616854E+01  0.10206010159E+01 0.  0.
     999903    2    3    3    0    0  0.18032317942E-01 -0.34697201400E-01 -0.12250936115E+00  0.13022261074E+00  0.20501817085E-01 0.  0.
         14    1    1    2    0    0 -0.20649476370E-01  0.94649746517E-04 -0.10282864630E-01  0.23068314588E-01  0.00000000000E+00 0. -1.
     999901    1    3    3    0    0  0.26171584285E-02  0.34602551653E-01  0.13279222578E+00  0.89063907467E+00  0.88000000000E+00 0. -1.
        -11    1    4    4    0    0  0.16164739208E-01 -0.26020711367E-01 -0.63018224316E-01  0.70070920720E-01  0.51100000000E-03 0. -1.
         11    1    4    4    0    0  0.18675787341E-02 -0.86764900324E-02 -0.59491136835E-01  0.60151690023E-01  0.51100000000E-03 0.  1.
</event>
<event>
 8    1  0.1191842E+005  0.1043930E+01  0.7957747E-01            NaN
         13   -1    0    0    0    0  0.00000000000E+00  0.00000000000E+00  0.74505805969E-08  0.10566000000E+00  0.10566000000E+00 0. -1.
     999900   -1    0    0    0    0 -0.00000000000E+00 -0.00000000000E+00 -0.74505805969E-08  0.93827000000E+00  0.93827000000E+00 0. -1.
     999902    2    1    2    0    0 -0.15443482740E-01  0.15865895000E-01  0.67326865424E-02  0.10207878987E+01  0.10205255398E+01 0.  0.
     999903    2    3    3    0    0  0.58817111209E-01 -0.40932924197E-01 -0.10497378099E+00  0.12881308038E+00  0.20937003755E-01 0.  0.
         14    1    1    2    0    0  0.15443482740E-01 -0.15865895000E-01 -0.67326865424E-02  0.23142101274E-01  0.00000000000E+00 0. -1.
     999901    1    3    3    0    0 -0.74260593948E-01  0.56798819197E-01  0.11170646754E+00  0.89197481835E+00  0.88000000000E+00 0.  1.
        -11    1    4    4    0    0  0.30781576402E-01 -0.11468598793E-01 -0.58161851499E-01  0.66798924354E-01  0.51100000000E-03 0. -1.
         11    1    4    4    0    0  0.28035534807E-01 -0.29464325404E-01 -0.46811929496E-01  0.62014156025E-01  0.51100000000E-03 0.  1.
</event>
<event>
 8    1  0.1191842E+005  0.1043930E+01  0.7957747E-01            NaN
         13   -1    0    0    0    0  0.00000000000E+00  0.00000000000E+00  0.74505805969E-08  0.10566000000E+00  0.10566000000E+00 0. -1.
     999900   -1    0    0    0    0 -0.00000000000E+00 -0.00000000000E+00 -0.74505805969E-08  0.93827000000E+00  0.93827000000E+00 0. -1.
     999902    2    1    2    0    0 -0.34466629912E-02  0.10851325505E-01  0.19158294690E-01  0.10216438831E+01  0.10214007797E+01 0.  0.
     999903    2    3    3    0    0 -0.10353635248E+00  0.67677240101E-01  0.46635678622E-01  0.13372376443E+00  0.20178541592E-01 0.  0.
         14    1    1    2    0    0  0.34466629912E-02 -0.10851325505E-01 -0.19158294690E-01  0.22286116898E-01  0.00000000000E+00 0.  1.
     999901    1    3    3    0    0  0.10008968949E+00 -0.56825914596E-01 -0.27477383932E-01  0.88792011867E+00  0.88000000000E+00 0.  1.
        -11    1    4    4    0    0 -0.30649187418E-01  0.16768198421E-01  0.22644461248E-01  0.41636257203E-01  0.51100000000E-03 0.  1.
         11    1    4    4    0    0 -0.72887165061E-01  0.50909041680E-01  0.23991217374E-01  0.92087507228E-01  0.51100000000E-03 0. -1.
</event>
<event>
 8    1  0.1191842E+005  0.1043930E+01  0.7957747E-01            NaN
         13   -1    0    0    0    0  0.00000000000E+00  0.00000000000E+00  0.74505805969E-08  0.10566000000E+00  0.10566000000E+00 0.  1.
     999900   -1    0    0    0    0 -0.00000000000E+00 -0.00000000000E+00 -0.74505805969E-08  0.93827000000E+00  0.93827000000E+00 0.  1.
     999902    2    1    2    0    0 -0.15482261380E-01 -0.24635333688E-02  0.18291071891E-01  0.10198399040E+01  0.10195553428E+01 0.  0.
     999903    2    3    3    0    0  0.53026211946E-01  0.91296908897E-01 -0.69337818061E-01  0.12789637788E+00  0.20071017230E-01 0.  0.
         14    1    1    2    0    0  0.15482261380E-01  0.24635333688E-02 -0.18291071891E-01  0.24090095994E-01  0.00000000000E+00 0. -1.
     999901    1    3    3    0    0 -0.68508473326E-01 -0.93760442266E-01  0.87628889952E-01  0.89194352613E+00  0.88000000000E+00 0. -1.
        -11    1    4    4    0    0  0.16506132583E-01  0.45204320870E-01 -0.24902214680E-01  0.54187308986E-01  0.51100000000E-03 0. -1.
         11    1    4    4    0    0  0.36520079363E-01  0.46092588028E-01 -0.44435603381E-01  0.73709068890E-01  0.51100000000E-03 0.  1.
</event>
<event>
 8    1  0.1191842E+005  0.1043930E+01  0.7957747E-01            NaN
         13   -1    0    0    0    0  0.00000000000E+00  0.00000000000E+00  0.74505805969E-08  0.10566000000E+00  0.10566000000E+00 0. -1.
     999900   -1    0    0    0    0 -0.00000000000E+00 -0.00000000000E+00 -0.74505805969E-08  0.93827000000E+00  0.93827000000E+00 0. -1.
     999902    2    1    2    0    0  0.12982856199E-01 -0.17174999042E-01 -0.10123783839E-01  0.10201386960E+01  0.10198612322E+01 0.  0.
     999903    2    3    3    0    0  0.99059406597E-01 -0.74358796953E-01  0.42486690570E-01  0.13253122572E+00  0.20430619042E-01 0.  0.
         14    1    1    2    0    0 -0.12982856199E-01  0.17174999042E-01  0.10123783839E-01  0.23791304008E-01  0.00000000000E+00 0. -1.
     999901    1    3    3    0    0 -0.86076550398E-01  0.57183797911E-01 -0.52610474410E-01  0.88760747028E+00  0.88000000000E+00 0. -1.
        -11    1    4    4    0    0  0.59792351090E-01 -0.50953979263E-01  0.35785718960E-01  0.86326774839E-01  0.51100000000E-03 0. -1.
         11    1    4    4    0    0  0.39267055507E-01 -0.23404817691E-01  0.67009716099E-02  0.46204450877E-01  0.51100000000E-03 0.  1.
</event>
<event>
 8    1  0.1424746E+005  0.1043930E+01  0.7957747E-01            NaN
         13   -1    0    0    0    0  0.00000000000E+00  0.00000000000E+00  0.74505805969E-08  0.10566000000E+00  0.10566000000E+00 0.  1.
     999900   -1    0    0    0    0 -0.00000000000E+00 -0.00000000000E+00 -0.74505805969E-08  0.93827000000E+00  0.93827000000E+00 0.  1.
     999902    2    1    2    0    0 -0.82815714738E-03  0.23907888208E-01 -0.40598458004E-02  0.10196657194E+01  0.10193769784E+01 0.  0.
     999903    2    3    3    0    0 -0.47328533400E-01  0.10679136672E+00  0.58781812021E-01  0.13232078654E+00  0.20226295923E-01 0.  0.
         14    1    1    2    0    0  0.82815714738E-03 -0.23907888208E-01  0.40598458004E-02  0.24264280553E-01  0.00000000000E+00 0.  1.
     999901    1    3    3    0    0  0.46500376253E-01 -0.82883478508E-01 -0.62841657822E-01  0.88734493291E+00  0.88000000000E+00 0.  1.
        -11    1    4    4    0    0 -0.25157907708E-01  0.37677791602E-01  0.29426088623E-01  0.54024921220E-01  0.51100000000E-03 0.  1.
         11    1    4    4    0    0 -0.22170625692E-01  0.69113575114E-01  0.29355723398E-01  0.78295865318E-01  0.51100000000E-03 0. -1.
</event>
<event>
 8    1  0.1191842E+005  0.1043930E+01  0.7957747E-01            NaN
         13   -1    0    0    0    0  0.00000000000E+00  0.00000000000E+00  0.74505805969E-08  0.10566000000E+00  0.10566000000E+00 0. -1.
     999900   -1    0    0    0    0 -0.00000000000E+00 -0.00000000000E+00 -0.74505805969E-08  0.93827000000E+00  0.93827000000E+00 0.  1.
     999902    2    1    2    0    0 -0.49977720555E-03 -0.19280472153E-01 -0.18218305436E-01  0.10173990174E+01  0.10170530309E+01 0.  0.
     999903    2    3    3    0    0  0.22217322836E-01 -0.81829771465E-01 -0.98420187520E-01  0.13124958117E+00  0.18713586340E-01 0.  0.
         14    1    1    2    0    0  0.49977720555E-03  0.19280472153E-01  0.18218305436E-01  0.26530982580E-01  0.00000000000E+00 0. -1.
     999901    1    3    3    0    0 -0.22717100042E-01  0.62549299312E-01  0.80201882084E-01  0.88614943625E+00  0.88000000000E+00 0. -1.
        -11    1    4    4    0    0 -0.16882391794E-02 -0.14148630281E-01 -0.10276682552E-01  0.17575699577E-01  0.51100000000E-03 0.  1.
         11    1    4    4    0    0  0.23905562015E-01 -0.67681141184E-01 -0.88143504967E-01  0.11367388159E+00  0.51100000000E-03 0. -1.
</event>
<event>
 8    1  0.1191842E+005  0.1043930E+01  0.7957747E-01            NaN
         13   -1    0    0    0    0  0.00000000000E+00  0.00000000000E+00  0.74505805969E-08  0.10566000000E+00  0.10566000000E+00 0. -1.
     999900   -1    0    0    0    0 -0.00000000000E+00 -0.00000000000E+00 -0.74505805969E-08  0.93827000000E+00  0.93827000000E+00 0. -1.
     999902    2    1    2    0    0  0.70692757815E-02  0.19320556125E-01 -0.71015817505E-03  0.10233444985E+01  0.10231374295E+01 0.  0.
     999903    2    3    3    0    0  0.90552498192E-01  0.78005644492E-01  0.60584044645E-01  0.13532965212E+00  0.18948687962E-01 0.  0.
         14    1    1    2    0    0 -0.70692757815E-02 -0.19320556125E-01  0.71015817505E-03  0.20585501541E-01  0.00000000000E+00 0.  1.
     999901    1    3    3    0    0 -0.83483222411E-01 -0.58685088367E-01 -0.61294202820E-01  0.88801484634E+00  0.88000000000E+00 0. -1.
        -11    1    4    4    0    0  0.34648023226E-01  0.42182794657E-01  0.26071927635E-01  0.60496943808E-01  0.51100000000E-03 0. -1.
         11    1    4    4    0    0  0.55904474966E-01  0.35822849836E-01  0.34512117010E-01  0.74832708311E-01  0.51100000000E-03 0.  1.
</event>
<event>
 8    1  0.1191842E+005  0.1043930E+01  0.7957747E-01            NaN
         13   -1    0    0    0    0  0.00000000000E+00  0.00000000000E+00  0.74505805969E-08  0.10566000000E+00  0.10566000000E+00 0.  1.
     999900   -1    0    0    0    0 -0.00000000000E+00 -0.00000000000E+00 -0.74505805969E-08  0.93827000000E+00  0.93827000000E+00 0. -1.
     999902    2    1    2    0    0  0.15139408124E-01 -0.14130733368E-01 -0.69972016233E-02  0.10220704452E+01  0.10218366576E+01 0.  0.
     999903    2    3    3    0    0  0.12382794223E-02  0.12869786618E+00  0.26287690433E-02  0.13039454585E+00  0.20764225616E-01 0.  0.
         14    1    1    2    0    0 -0.15139408124E-01  0.14130733368E-01  0.69972016233E-02  0.21859554763E-01  0.00000000000E+00 0.  1.
     999901    1    3    3    0    0  0.13901128702E-01 -0.14282859955E+00 -0.96259706666E-02  0.89167589938E+00  0.88000000000E+00 0.  1.
        -11    1    4    4    0    0  0.99599112637E-02  0.66039850698E-01  0.58793746759E-02  0.67046922974E-01  0.51100000000E-03 0.  1.
         11    1    4    4    0    0 -0.87216318414E-02  0.62658015487E-01 -0.32506056325E-02  0.63347622881E-01  0.51100000000E-03 0. -1.
</event>
<event>
 8    1  0.1191842E+005  0.1043930E+01  0.7957747E-01            NaN
         13   -1    0    0    0    0  0.00000000000E+00  0.00000000000E+00  0.74505805969E-08  0.10566000000E+00  0.10566000000E+00 0.  1.
     999900   -1    0    0    0    0 -0.00000000000E+00 -0.00000000000E+00 -0.74505805969E-08  0.93827000000E+00  0.93827000000E+00 0. -1.
     999902    2    1    2    0    0  0.14549110417E-01 -0.16983572365E-01  0.68934810018E-02  0.10205283243E+01  0.10202599778E+01 0.  0.
     999903    2    3    3    0    0 -0.12009234416E+00  0.15925494180E-01 -0.32523164833E-01  0.12880807676E+00  0.29291157322E-01 0.  0.
         14    1    1    2    0    0 -0.14549110417E-01  0.16983572365E-01 -0.68934810018E-02  0.23401675678E-01  0.00000000000E+00 0.  1.
     999901    1    3    3    0    0  0.13464145457E+00 -0.32909066545E-01  0.39416645835E-01  0.89172024757E+00  0.88000000000E+00 0.  1.
        -11    1    4    4    0    0 -0.88526767013E-02 -0.66998137098E-02 -0.31200679655E-02  0.11543540775E-01  0.51100000000E-03 0.  1.
         11    1    4    4    0    0 -0.11123966745E+00  0.22625307890E-01 -0.29403096867E-01  0.11726453598E+00  0.51100000000E-03 0. -1.
</event>
<event>
 8    1  0.1191842E+005  0.1043930E+01  0.7957747E-01            NaN
         13   -1    0    0    0    0  0.00000000000E+00  0.00000000000E+00  0.74505805969E-08  0.10566000000E+00  0.10566000000E+00 0. -1.
     999900   -1    0    0    0    0 -0.00000000000E+00 -0.00000000000E+00 -0.74505805969E-08  0.93827000000E+00  0.93827000000E+00 0. -1.
     999902    2    1    2    0    0 -0.61514565555E-02 -0.99791868712E-04  0.26956595032E-01  0.10162802551E+01  0.10159040548E+01 0.  0.
     999903    2    3    3    0    0 -0.11169092341E+00 -0.20070291982E-01  0.58674626992E-01  0.12918193278E+00  0.19172399766E-01 0.  0.
         14    1    1    2    0    0  0.61514565555E-02  0.99791868712E-04 -0.26956595032E-01  0.27649744880E-01  0.00000000000E+00 0.  1.
     999901    1    3    3    0    0  0.10553946686E+00  0.19970500113E-01 -0.31718031959E-01  0.88709832234E+00  0.88000000000E+00 0. -1.
        -11    1    4    4    0    0 -0.64362492031E-01 -0.15057863497E-01  0.43875196758E-01  0.79338286124E-01  0.51100000000E-03 0. -1.
         11    1    4    4    0    0 -0.47328431380E-01 -0.50124284846E-02  0.14799430234E-01  0.49843646661E-01  0.51100000000E-03 0.  1.
</event>
<event>
 8    1  0.1191842E+005  0.1043930E+01  0.7957747E-01            NaN
         13   -1    0    0    0    0  0.00000000000E+00  0.00000000000E+00  0.74505805969E-08  0.10566000000E+00  0.10566000000E+00 0. -1.
     999900   -1    0    0    0    0 -0.00000000000E+00 -0.00000000000E+00 -0.74505805969E-08  0.93827000000E+00  0.93827000000E+00 0. -1.
     999902    2    1    2    0    0  0.11747939767E-02 -0.16533818845E-01 -0.16473445921E-01  0.10205607525E+01  0.10202931578E+01 0.  0.
     999903    2    3    3    0    0 -0.29371091205E-01 -0.10378649066E+00  0.72229212808E-01  0.13128338214E+00  0.19595167793E-01 0.  0.
         14    1    1    2    0    0 -0.11747939767E-02  0.16533818845E-01  0.16473445921E-01  0.23369247463E-01  0.00000000000E+00 0. -1.
     999901    1    3    3    0    0  0.30545885182E-01  0.87252671812E-01 -0.88702658729E-01  0.88927737040E+00  0.88000000000E+00 0. -1.
        -11    1    4    4    0    0 -0.53791745894E-02 -0.54494544762E-01  0.37933008245E-01  0.66616553226E-01  0.51100000000E-03 0. -1.
         11    1    4    4    0    0 -0.23991916616E-01 -0.49291945895E-01  0.34296204563E-01  0.64666828911E-01  0.51100000000E-03 0.  1.
</event>
<event>
 8    1  0.1191842E+005  0.1043930E+01  0.7957747E-01            NaN
         13   -1    0    0    0    0  0.00000000000E+00  0.00000000000E+00  0.74505805969E-08  0.10566000000E+00  0.10566000000E+00 0.  1.
     999900   -1    0    0    0    0 -0.00000000000E+00 -0.00000000000E+00 -0.74505805969E-08  0.93827000000E+00  0.93827000000E+00 0.  1.
     999902    2    1    2    0    0  0.12736471626E-01 -0.20038263419E-01  0.84686261240E-03  0.10201714881E+01  0.10198947977E+01 0.  0.
     999903    2    3    3    0    0 -0.40440078291E-01  0.87673181450E-02  0.12244138661E+00  0.12975431889E+00  0.11490183471E-01 0.  0.
         14    1    1    2    0    0 -0.12736471626E-01  0.20038263419E-01 -0.84686261240E-03  0.23758511877E-01  0.00000000000E+00 0.  1.
     999901    1    3    3    0    0  0.53176549917E-01 -0.28805581564E-01 -0.12159452400E+00  0.89041716923E+00  0.88000000000E+00 0.  1.
        -11    1    4    4    0    0 -0.34247387741E-01  0.11427930443E-01  0.10012010698E+00  0.10643203514E+00  0.51100000000E-03 0. -1.
         11    1    4    4    0    0 -0.61926905496E-02 -0.26606122979E-02  0.22321279630E-01  0.23322283751E-01  0.51100000000E-03 0.  1.
</event>
<event>
 8    1  0.1191842E+005  0.1043930E+01  0.7957747E-01            NaN
         13   -1    0    0    0    0  0.00000000000E+00  0.00000000000E+00  0.74505805969E-08  0.10566000000E+00  0.10566000000E+00 0. -1.
     999900   -1    0    0    0    0 -0.00000000000E+00 -0.00000000000E+00 -0.74505805969E-08  0.93827000000E+00  0.93827000000E+00 0.  1.
     999902    2    1    2    0    0 -0.20144505380E-01 -0.32486644832E-03 -0.10680485020E-01  0.10211269433E+01  0.10208723010E+01 0.  0.
     999903    2    3    3    0    0  0.51474485940E-01 -0.96440526653E-01 -0.69466150163E-01  0.13105770189E+00  0.20004432564E-01 0.  0.
         14    1    1    2    0    0  0.20144505380E-01  0.32486644832E-03  0.10680485020E-01  0.22803056714E-01  0.00000000000E+00 0.  1.
     999901    1    3    3    0    0 -0.71618991320E-01  0.96115660205E-01  0.58785665143E-01  0.89006924140E+00  0.88000000000E+00 0. -1.
        -11    1    4    4    0    0  0.29118788858E-01 -0.72286087611E-01 -0.44480786176E-01  0.89732846754E-01  0.51100000000E-03 0.  1.
         11    1    4    4    0    0  0.22355697081E-01 -0.24154439042E-01 -0.24985363987E-01  0.41324855136E-01  0.51100000000E-03 0. -1.
</event>
<event>
 8    1  0.1346314E+005  0.1043930E+01  0.7957747E-01            NaN
         13   -1    0    0    0    0  0.00000000000E+00  0.00000000000E+00  0.74505805969E-08  0.10566000000E+00  0.10566000000E+00 0.  1.
     999900   -1    0    0    0    0 -0.00000000000E+00 -0.00000000000E+00 -0.74505805969E-08  0.93827000000E+00  0.93827000000E+00 0.  1.
     999902    2    1    2    0    0  0.57024110046E-02  0.23362908320E-01  0.82844403706E-03  0.10198669724E+01  0.10195830580E+01 0.  0.
     999903    2    3    3    0    0  0.12215900021E+00  0.42536740120E-02 -0.42373576175E-01  0.13093856442E+00  0.20210705564E-01 0.  0.
         14    1    1    2    0    0 -0.57024110046E-02 -0.23362908320E-01 -0.82844403706E-03  0.24063027572E-01  0.00000000000E+00 0. -1.
     999901    1    3    3    0    0 -0.11645658921E+00  0.19109234308E-01  0.43202020212E-01  0.88892840800E+00  0.88000000000E+00 0. -1.
        -11    1    4    4    0    0  0.24497025526E-01 -0.59021690759E-02 -0.13501453878E-01  0.28591786185E-01  0.51100000000E-03 0. -1.
         11    1    4    4    0    0  0.97661974689E-01  0.10155843088E-01 -0.28872122297E-01  0.10234677824E+00  0.51100000000E-03 0.  1.
</event>
<event>
 8    1  0.1191842E+005  0.1043930E+01  0.7957747E-01            NaN
         13   -1    0    0    0    0  0.00000000000E+00  0.00000000000E+00  0.74505805969E-08  0.10566000000E+00  0.10566000000E+00 0. -1.
     999900   -1    0    0    0    0 -0.00000000000E+00 -0.00000000000E+00 -0.74505805969E-08  0.93827000000E+00  0.93827000000E+00 0. -1.
     999902    2    1    2    0    0 -0.10158204213E-01 -0.11741112764E-01 -0.18774450605E-01  0.10195676759E+01  0.10192765684E+01 0.  0.
     999903    2    3    3    0    0 -0.36646513502E-01 -0.70426932137E-01  0.99501455288E-01  0.12932341397E+00  0.22827309827E-01 0.  0.
         14    1    1    2    0    0  0.10158204213E-01  0.11741112764E-01  0.18774450605E-01  0.24362324136E-01  0.00000000000E+00 0. -1.
     999901    1    3    3    0    0  0.26488309289E-01  0.58685819372E-01 -0.11827590589E+00  0.89024426190E+00  0.88000000000E+00 0. -1.
        -11    1    4    4    0    0 -0.23382033459E-01 -0.60838267981E-01  0.87073256902E-01  0.10876593000E+00  0.51100000000E-03 0. -1.
         11    1    4    4    0    0 -0.13264480043E-01 -0.95886641561E-02  0.12428198386E-01  0.20557483971E-01  0.51100000000E-03 0.  1.
</event>
<event>
 8    1  0.1191842E+005  0.1043930E+01  0.7957747E-01            NaN
         13   -1    0    0    0    0  0.00000000000E+00  0.00000000000E+00  0.74505805969E-08  0.10566000000E+00  0.10566000000E+00 0.  1.
     999900   -1    0    0    0    0 -0.00000000000E+00 -0.00000000000E+00 -0.74505805969E-08  0.93827000000E+00  0.93827000000E+00 0.  1.
     999902    2    1    2    0    0 -0.22164218109E-01 -0.64877499913E-02  0.60433742852E-02  0.10200581371E+01  0.10197787688E+01 0.  0.
     999903    2    3    3    0    0 -0.18423520485E-01 -0.11690105230E+00  0.48330132524E-01  0.13214301727E+00  0.33476755634E-01 0.  0.
         14    1    1    2    0    0  0.22164218109E-01  0.64877499913E-02 -0.60433742852E-02  0.23871862874E-01  0.00000000000E+00 0. -1.
     999901    1    3    3    0    0 -0.37406976243E-02  0.11041330231E+00 -0.42286758239E-01  0.88791511986E+00  0.88000000000E+00 0.  1.
        -11    1    4    4    0    0 -0.22294065049E-01 -0.85243531852E-01  0.22088739427E-01  0.90838640399E-01  0.51100000000E-03 0.  1.
         11    1    4    4    0    0  0.38705445637E-02 -0.31657520447E-01  0.26241393097E-01  0.41304376871E-01  0.51100000000E-03 0. -1.
</event>
<event>
 8    1  0.1191842E+005  0.1043930E+01  0.7957747E-01            NaN
         13   -1    0    0    0    0  0.00000000000E+00  0.00000000000E+00  0.74505805969E-08  0.10566000000E+00  0.10566000000E+00 0. -1.
     999900   -1    0    0    0    0 -0.00000000000E+00 -0.00000000000E+00 -0.74505805969E-08  0.93827000000E+00  0.93827000000E+00 0.  1.
     999902    2    1    2    0    0  0.21790589837E-01  0.10023569262E-01 -0.54669542958E-02  0.10193294038E+01  0.10190325039E+01 0.  0.
     999903    2    3    3    0    0  0.52463504613E-01  0.21153872930E-01 -0.11731927984E+00  0.13164947603E+00  0.19179819120E-01 0.  0.
         14    1    1    2    0    0 -0.21790589837E-01 -0.10023569262E-01  0.54669542958E-02  0.24600596242E-01  0.00000000000E+00 0. -1.
     999901    1    3    3    0    0 -0.30672914777E-01 -0.11130303667E-01  0.11185232554E+00  0.88767992773E+00  0.88000000000E+00 0. -1.
        -11    1    4    4    0    0  0.22009169219E-01  0.19174021571E-01 -0.58759984246E-01  0.65612830320E-01  0.51100000000E-03 0. -1.
         11    1    4    4    0    0  0.30454335394E-01  0.19798513587E-02 -0.58559295591E-01  0.66036645711E-01  0.51100000000E-03 0.  1.
</event>
<event>
 8    1  0.1191842E+005  0.1043930E+01  0.7957747E-01            NaN
         13   -1    0    0    0    0  0.00000000000E+00  0.00000000000E+00  0.74505805969E-08  0.10566000000E+00  0.10566000000E+00 0.  1.
     999900   -1    0    0    0    0 -0.00000000000E+00 -0.00000000000E+00 -0.74505805969E-08  0.93827000000E+00  0.93827000000E+00 0. -1.
     999902    2    1    2    0    0 -0.21576822020E-01  0.59052269407E-02  0.68311085776E-02  0.10205399380E+01  0.10202718609E+01 0.  0.
     999903    2    3    3    0    0 -0.52940824616E-01 -0.10775838955E+00 -0.48227542587E-01  0.13097005690E+00  0.20313997896E-01 0.  0.
         14    1    1    2    0    0  0.21576822020E-01 -0.59052269407E-02 -0.68311085776E-02  0.23390061952E-01  0.00000000000E+00 0.  1.
     999901    1    3    3    0    0  0.31364002596E-01  0.11366361650E+00  0.55058651165E-01  0.88956988115E+00  0.88000000000E+00 0.  1.
        -11    1    4    4    0    0 -0.45241354253E-01 -0.70891754974E-01 -0.33694708836E-01  0.90598099221E-01  0.51100000000E-03 0.  1.
         11    1    4    4    0    0 -0.76994703635E-02 -0.36866634581E-01 -0.14532833751E-01  0.40371957681E-01  0.51100000000E-03 0. -1.
</event>
<event>
 8    1  0.1191842E+005  0.1043930E+01  0.7957747E-01            NaN
         13   -1    0    0    0    0  0.00000000000E+00  0.00000000000E+00  0.74505805969E-08  0.10566000000E+00  0.10566000000E+00 0.  1.
     999900   -1    0    0    0    0 -0.00000000000E+00 -0.00000000000E+00 -0.74505805969E-08  0.93827000000E+00  0.93827000000E+00 0.  1.
     999902    2    1    2    0    0  0.18375011797E-01 -0.11342535623E-01 -0.10813385010E-01  0.10197799800E+01  0.10194939843E+01 0.  0.
     999903    2    3    3    0    0  0.75978329462E-01 -0.10094077131E+00  0.33430285974E-01  0.13225336713E+00  0.20288500107E-01 0.  0.
         14    1    1    2    0    0 -0.18375011797E-01  0.11342535623E-01  0.10813385010E-01  0.24150020047E-01  0.00000000000E+00 0.  1.
     999901    1    3    3    0    0 -0.57603317665E-01  0.89598235689E-01 -0.44243670983E-01  0.88752661282E+00  0.88000000000E+00 0.  1.
        -11    1    4    4    0    0  0.26733501425E-01 -0.51537274934E-01  0.12098290256E-01  0.59307677026E-01  0.51100000000E-03 0. -1.
         11    1    4    4    0    0  0.49244828037E-01 -0.49403496377E-01  0.21331995718E-01  0.72945690106E-01  0.51100000000E-03 0.  1.
</event>
<event>
 8    1  0.1191842E+005  0.1043930E+01  0.7957747E-01            NaN
         13   -1    0    0    0    0  0.00000000000E+00  0.00000000000E+00  0.74505805969E-08  0.10566000000E+00  0.10566000000E+00 0.  1.
     999900   -1    0    0    0    0 -0.00000000000E+00 -0.00000000000E+00 -0.74505805969E-08  0.93827000000E+00  0.93827000000E+00 0.  1.
     999902    2    1    2    0    0  0.21577316615E-01 -0.11793173109E-01 -0.23374073958E-01  0.10100035080E+01  0.10094335438E+01 0.  0.
     999903    2    3    3    0    0  0.63809114648E-01 -0.98820946323E-01 -0.35814472435E-01  0.12461538884E+00  0.20227114391E-01 0.  0.
         14    1    1    2    0    0 -0.21577316615E-01  0.11793173109E-01  0.23374073958E-01  0.33926491974E-01  0.00000000000E+00 0. -1.
     999901    1    3    3    0    0 -0.42231798033E-01  0.87027773214E-01  0.12440398477E-01  0.88538811918E+00  0.88000000000E+00 0. -1.
        -11    1    4    4    0    0  0.28955533688E-01 -0.29528234561E-01 -0.17543679734E-01  0.44926399668E-01  0.51100000000E-03 0.  1.
         11    1    4    4    0    0  0.34853580959E-01 -0.69292711762E-01 -0.18270792700E-01  0.79688989176E-01  0.51100000000E-03 0. -1.
</event>
<event>
 8    1  0.1191842E+005  0.1043930E+01  0.7957747E-01            NaN
         13   -1    0    0    0    0  0.00000000000E+00  0.00000000000E+00  0.74505805969E-08  0.10566000000E+00  0.10566000000E+00 0. -1.
     999900   -1    0    0    0    0 -0.00000000000E+00 -0.00000000000E+00 -0.74505805969E-08  0.93827000000E+00  0.93827000000E+00 0. -1.
     999902    2    1    2    0    0  0.13019401267E-01 -0.18527046250E-01  0.53658907649E-02  0.10206587938E+01  0.10203934655E+01 0.  0.
     999903    2    3    3    0    0  0.98922384227E-01 -0.87662457977E-01  0.59429723847E-02  0.13377697497E+00  0.19763994307E-01 0.  0.
         14    1    1    2    0    0 -0.13019401267E-01  0.18527046250E-01 -0.53658907649E-02  0.23271206152E-01  0.00000000000E+00 0. -1.
     999901    1    3    3    0    0 -0.85902982960E-01  0.69135411728E-01 -0.57708161981E-03  0.88688181888E+00  0.88000000000E+00 0. -1.
        -11    1    4    4    0    0  0.32894817933E-01 -0.39564917086E-01  0.79260427336E-02  0.52062798477E-01  0.51100000000E-03 0.  1.
         11    1    4    4    0    0  0.66027566294E-01 -0.48097540891E-01 -0.19830703489E-02  0.81714176491E-01  0.51100000000E-03 0. -1.
</event>
<event>
 8    1  0.1191842E+005  0.1043930E+01  0.7957747E-01            NaN
         13   -1    0    0    0    0  0.00000000000E+00  0.00000000000E+00  0.74505805969E-08  0.10566000000E+00  0.10566000000E+00 0.  1.
     999900   -1    0    0    0    0 -0.00000000000E+00 -0.00000000000E+00 -0.74505805969E-08  0.93827000000E+00  0.93827000000E+00 0. -1.
     999902    2    1    2    0    0  0.23835724192E-01 -0.25750333916E-02 -0.62627382705E-02  0.10191510889E+01  0.10188498160E+01 0.  0.
     999903    2    3    3    0    0  0.87894193220E-01  0.24340570923E-01 -0.93503512606E-01  0.13211169298E+00  0.19817667803E-01 0.  0.
         14    1    1    2    0    0 -0.23835724192E-01  0.25750333916E-02  0.62627382705E-02  0.24778911101E-01  0.00000000000E+00 0.  1.
     999901    1    3    3    0    0 -0.64058469028E-01 -0.26915604314E-01  0.87240774335E-01  0.88703939592E+00  0.88000000000E+00 0.  1.
        -11    1    4    4    0    0  0.75858239136E-01  0.27805514463E-01 -0.80893573355E-01  0.11433131859E+00  0.51100000000E-03 0.  1.
         11    1    4    4    0    0  0.12035954084E-01 -0.34649435408E-02 -0.12609939250E-01  0.17780374387E-01  0.51100000000E-03 0. -1.
</event>
<event>
 8    1  0.1191842E+005  0.1043930E+01  0.7957747E-01            NaN
         13   -1    0    0    0    0  0.00000000000E+00  0.00000000000E+00  0.74505805969E-08  0.10566000000E+00  0.10566000000E+00 0.  1.
     999900   -1    0    0    0    0 -0.00000000000E+00 -0.00000000000E+00 -0.74505805969E-08  0.93827000000E+00  0.93827000000E+00 0.  1.
     999902    2    1    2    0    0 -0.77411590582E-02 -0.11208045226E-01  0.19082921471E-01  0.10204842389E+01  0.10202148686E+01 0.  0.
     999903    2    3    3    0    0  0.78435362710E-01  0.69192779472E-01  0.75948940407E-01  0.13080765181E+00  0.20066224590E-01 0.  0.
         14    1    1    2    0    0  0.77411590582E-02  0.11208045226E-01 -0.19082921471E-01  0.23445761093E-01  0.00000000000E+00 0. -1.
     999901    1    3    3    0    0 -0.86176521768E-01 -0.80400824698E-01 -0.56866018936E-01  0.88967658710E+00  0.88000000000E+00 0.  1.
        -11    1    4    4    0    0  0.75426127956E-01  0.61102733086E-01  0.64861784454E-01  0.11674740671E+00  0.51100000000E-03 0.  1.
         11    1    4    4    0    0  0.30092347537E-02  0.80900463859E-02  0.11087155953E-01  0.14060245106E-01  0.51100000000E-03 0. -1.
</event>
<event>
 8    1  0.1191842E+005  0.1043930E+01  0.7957747E-01            NaN
         13   -1    0    0    0    0  0.00000000000E+00  0.00000000000E+00  0.74505805969E-08  0.10566000000E+00  0.10566000000E+00 0.  1.
     999900   -1    0    0    0    0 -0.00000000000E+00 -0.00000000000E+00 -0.74505805969E-08  0.93827000000E+00  0.93827000000E+00 0. -1.
     999902    2    1    2    0    0  0.15916641624E-01  0.41654093810E-02  0.16147057502E-01  0.10208775038E+01  0.10206171957E+01 0.  0.
     999903    2    3    3    0    0 -0.53793114434E-01 -0.14549236844E-01 -0.11399545517E+00  0.12838281938E+00  0.19539832642E-01 0.  0.
         14    1    1    2    0    0 -0.15916641624E-01 -0.41654093810E-02 -0.16147057502E-01  0.23052496218E-01  0.00000000000E+00 0. -1.
     999901    1    3    3    0    0  0.69709756058E-01  0.18714646225E-01  0.13014251268E+00  0.89249468440E+00  0.88000000000E+00 0.  1.
        -11    1    4    4    0    0 -0.48100701207E-01 -0.18804385598E-01 -0.10386105983E+00  0.11599423798E+00  0.51100000000E-03 0.  1.
         11    1    4    4    0    0 -0.56924132267E-02  0.42551487534E-02 -0.10134395340E-01  0.12388581402E-01  0.51100000000E-03 0. -1.
</event>
<event>
 8    1  0.1191842E+005  0.1043930E+01  0.7957747E-01            NaN
         13   -1    0    0    0    0  0.00000000000E+00  0.00000000000E+00  0.74505805969E-08  0.10566000000E+00  0.10566000000E+00 0. -1.
     999900   -1    0    0    0    0 -0.00000000000E+00 -0.00000000000E+00 -0.74505805969E-08  0.93827000000E+00  0.93827000000E+00 0. -1.
     999902    2    1    2    0    0  0.22201268143E-01  0.63508220877E-03 -0.61680780963E-02  0.10208790819E+01  0.10206188099E+01 0.  0.
     999903    2    3    3    0    0  0.76410239669E-01  0.71272010959E-02  0.10582127260E+00  0.13210330882E+00  0.19074085678E-01 0.  0.
         14    1    1    2    0    0 -0.22201268143E-01 -0.63508220877E-03  0.61680780963E-02  0.23050918072E-01  0.00000000000E+00 0.  1.
     999901    1    3    3    0    0 -0.54208971526E-01 -0.64921188871E-02 -0.11198935069E+00  0.88877577311E+00  0.88000000000E+00 0. -1.
        -11    1    4    4    0    0  0.40020028931E-01 -0.38986267931E-02  0.63937259422E-01  0.75531690501E-01  0.51100000000E-03 0. -1.
         11    1    4    4    0    0  0.36390210738E-01  0.11025827889E-01  0.41884013175E-01  0.56571618315E-01  0.51100000000E-03 0.  1.
</event>
<event>
 8    1  0.1191842E+005  0.1043930E+01  0.7957747E-01            NaN
         13   -1    0    0    0    0  0.00000000000E+00  0.00000000000E+00  0.74505805969E-08  0.10566000000E+00  0.10566000000E+00 0. -1.
     999900   -1    0    0    0    0 -0.00000000000E+00 -0.00000000000E+00 -0.74505805969E-08  0.93827000000E+00  0.93827000000E+00 0. -1.
     999902    2    1    2    0    0 -0.21728052973E-01 -0.15965256067E-01 -0.38443413890E-02  0.10166944231E+01  0.10163295594E+01 0.  0.
     999903    2    3    3    0    0 -0.90189323387E-01 -0.87169243077E-01 -0.31054116304E-01  0.13075011044E+00  0.19966027396E-01 0.  0.
         14    1    1    2    0    0  0.21728052973E-01  0.15965256067E-01  0.38443413890E-02  0.27235576880E-01  0.00000000000E+00 0. -1.
     999901    1    3    3    0    0  0.68461270414E-01  0.71203987009E-01  0.27209774915E-01  0.88594431268E+00  0.88000000000E+00 0.  1.
        -11    1    4    4    0    0 -0.66342662567E-01 -0.75218852842E-01 -0.23302687998E-01  0.10296844705E+00  0.51100000000E-03 0. -1.
         11    1    4    4    0    0 -0.23846660820E-01 -0.11950390235E-01 -0.77514283058E-02  0.27781663391E-01  0.51100000000E-03 0.  1.
</event>
<event>
 8    1  0.1191842E+005  0.1043930E+01  0.7957747E-01            NaN
         13   -1    0    0    0    0  0.00000000000E+00  0.00000000000E+00  0.74505805969E-08  0.10566000000E+00  0.10566000000E+00 0.  1.
     999900   -1    0    0    0    0 -0.00000000000E+00 -0.00000000000E+00 -0.74505805969E-08  0.93827000000E+00  0.93827000000E+00 0. -1.
     999902    2    1    2    0    0  0.19048213657E-01 -0.59233168329E-02 -0.12546961023E-01  0.10203642122E+01  0.10200920444E+01 0.  0.
     999903    2    3    3    0    0 -0.17671565328E-01 -0.26823510873E-01 -0.12685422711E+00  0.13196604052E+00  0.17066222770E-01 0.  0.
         14    1    1    2    0    0 -0.19048213657E-01  0.59233168329E-02  0.12546961023E-01  0.23565787845E-01  0.00000000000E+00 0.  1.
     999901    1    3    3    0    0  0.36719778986E-01  0.20900194040E-01  0.11430726608E+00  0.88839817163E+00  0.88000000000E+00 0.  1.
        -11    1    4    4    0    0 -0.10951492269E-01 -0.15819398627E-01 -0.10358871522E+00  0.10536162298E+00  0.51100000000E-03 0. -1.
         11    1    4    4    0    0 -0.67200730597E-02 -0.11004112246E-01 -0.23265511890E-01  0.26604417542E-01  0.51100000000E-03 0.  1.
</event>
<event>
 8    1  0.1191842E+005  0.1043930E+01  0.7957747E-01            NaN
         13   -1    0    0    0    0  0.00000000000E+00  0.00000000000E+00  0.74505805969E-08  0.10566000000E+00  0.10566000000E+00 0. -1.
     999900   -1    0    0    0    0 -0.00000000000E+00 -0.00000000000E+00 -0.74505805969E-08  0.93827000000E+00  0.93827000000E+00 0.  1.
     999902    2    1    2    0    0  0.19173582867E-01 -0.89759533627E-02  0.14243505475E-02  0.10227115459E+01  0.10224914099E+01 0.  0.
     999903    2    3    3    0    0  0.65271293735E-01  0.11285299120E+00  0.14586863574E-01  0.13302590345E+00  0.22067509854E-01 0.  0.
         14    1    1    2    0    0 -0.19173582867E-01  0.89759533627E-02 -0.14243505475E-02  0.21218454072E-01  0.00000000000E+00 0. -1.
     999901    1    3    3    0    0 -0.46097710867E-01 -0.12182894456E+00 -0.13162513027E-01  0.88968564248E+00  0.88000000000E+00 0. -1.
        -11    1    4    4    0    0  0.23388635367E-01  0.21744172355E-01  0.41868973259E-02  0.32212241865E-01  0.51100000000E-03 0. -1.
         11    1    4    4    0    0  0.41882658368E-01  0.91108818845E-01  0.10399966248E-01  0.10081366159E+00  0.51100000000E-03 0.  1.
</event>
<event>
 8    1  0.1191842E+005  0.1043930E+01  0.7957747E-01            NaN
         13   -1    0    0    0    0  0.00000000000E+00  0.00000000000E+00  0.74505805969E-08  0.10566000000E+00  0.10566000000E+00 0.  1.
     999900   -1    0    0    0    0 -0.00000000000E+00 -0.00000000000E+00 -0.74505805969E-08  0.93827000000E+00  0.93827000000E+00 0. -1.
     999902    2    1    2    0    0 -0.21215702757E-01  0.83689210874E-02  0.56648951110E-02  0.10204302996E+01  0.10201596740E+01 0.  0.
     999903    2    3    3    0    0  0.90880852123E-01 -0.29072319670E-01 -0.83194640664E-01  0.12809431956E+00  0.19551915882E-01 0.  0.
         14    1    1    2    0    0  0.21215702757E-01 -0.83689210874E-02 -0.56648951110E-02  0.23499700429E-01  0.00000000000E+00 0. -1.
     999901    1    3    3    0    0 -0.11209655488E+00  0.37441240757E-01  0.88859535775E-01  0.89233598001E+00  0.88000000000E+00 0.  1.
        -11    1    4    4    0    0  0.73648266292E-02 -0.20356754388E-02 -0.15328290441E-01  0.17134825783E-01  0.51100000000E-03 0.  1.
         11    1    4    4    0    0  0.83516025494E-01 -0.27036644231E-01 -0.67866350222E-01  0.11095949378E+00  0.51100000000E-03 0. -1.
</event>
<event>
 8    1  0.1191842E+005  0.1043930E+01  0.7957747E-01            NaN
         13   -1    0    0    0    0  0.00000000000E+00  0.00000000000E+00  0.74505805969E-08  0.10566000000E+00  0.10566000000E+00 0. -1.
     999900   -1    0    0    0    0 -0.00000000000E+00 -0.00000000000E+00 -0.74505805969E-08  0.93827000000E+00  0.93827000000E+00 0. -1.
     999902    2    1    2    0    0 -0.25085908526E-02 -0.23422797704E-01  0.50289725788E-02  0.10198424296E+01  0.10195579288E+01 0.  0.
     999903    2    3    3    0    0 -0.93069788376E-01 -0.86105099644E-01  0.33375915150E-01  0.13252402534E+00  0.19302639361E-01 0.  0.
         14    1    1    2    0    0  0.25085908526E-02  0.23422797704E-01 -0.50289725788E-02  0.24087570354E-01  0.00000000000E+00 0. -1.
     999901    1    3    3    0    0  0.90561197524E-01  0.62682301940E-01 -0.28346942571E-01  0.88731840431E+00  0.88000000000E+00 0. -1.
        -11    1    4    4    0    0 -0.12508580694E-02 -0.67436225107E-02  0.21780147517E-02  0.72142885814E-02  0.51100000000E-03 0.  1.
         11    1    4    4    0    0 -0.91818930307E-01 -0.79361477133E-01  0.31197900398E-01  0.12530973676E+00  0.51100000000E-03 0. -1.
</event>
<event>
 8    1  0.1191842E+005  0.1043930E+01  0.7957747E-01            NaN
         13   -1    0    0    0    0  0.00000000000E+00  0.00000000000E+00  0.74505805969E-08  0.10566000000E+00  0.10566000000E+00 0.  1.
     999900   -1    0    0    0    0 -0.00000000000E+00 -0.00000000000E+00 -0.74505805969E-08  0.93827000000E+00  0.93827000000E+00 0.  1.
     999902    2    1    2    0    0 -0.23031287673E-01  0.12275373466E-02 -0.58181930238E-02  0.10201434822E+01  0.10198661313E+01 0.  0.
     999903    2    3    3    0    0 -0.57845757037E-01  0.84107923015E-01  0.80110788734E-01  0.13139998965E+00  0.20686819191E-01 0.  0.
         14    1    1    2    0    0  0.23031287673E-01 -0.12275373466E-02  0.58181930238E-02  0.23786517818E-01  0.00000000000E+00 0.  1.
     999901    1    3    3    0    0  0.34814469363E-01 -0.82880385669E-01 -0.85928981758E-01  0.88874349253E+00  0.88000000000E+00 0.  1.
        -11    1    4    4    0    0 -0.54357820470E-01  0.68133530179E-01  0.61810090967E-01  0.10685363376E+00  0.51100000000E-03 0. -1.
         11    1    4    4    0    0 -0.34879365663E-02  0.15974392837E-01  0.18300697767E-01  0.24546355896E-01  0.51100000000E-03 0.  1.
</event>
<event>
 7    1  0.1191842E+005  0.1043930E+01  0.7957747E-01            NaN
         13   -1    0    0    0    0  0.00000000000E+00  0.00000000000E+00  0.74505805969E-08  0.10566000000E+00  0.10566000000E+00 0.  1.
     999900   -1    0    0    0    0 -0.00000000000E+00 -0.00000000000E+00 -0.74505805969E-08  0.93827000000E+00  0.93827000000E+00 0.  1.
     999903    2    1    2    0    0 -0.57475131162E-01 -0.72347730062E-01 -0.41248814416E-01  0.10315569074E+00  0.20051112024E-01 0.  0.
         14    1    1    2    0    0 -0.30744779193E-01 -0.31190624218E-01 -0.20149843692E-01  0.48209051925E-01  0.00000000000E+00 0. -1.
     999901    1    1    2    0    0  0.88219910355E-01  0.10353835428E+00  0.61398658107E-01  0.89256525734E+00  0.88000000000E+00 0. -1.
        -11    1    3    3    0    0 -0.17318118803E-01 -0.35539546122E-01 -0.22796154730E-01  0.45638825235E-01  0.51100000000E-03 0. -1.
         11    1    3    3    0    0 -0.40157012359E-01 -0.36808183940E-01 -0.18452659686E-01  0.57516865501E-01  0.51100000000E-03 0.  1.
</event>
<event>
 8    1  0.1191842E+005  0.1043930E+01  0.7957747E-01            NaN
         13   -1    0    0    0    0  0.00000000000E+00  0.00000000000E+00  0.74505805969E-08  0.10566000000E+00  0.10566000000E+00 0. -1.
     999900   -1    0    0    0    0 -0.00000000000E+00 -0.00000000000E+00 -0.74505805969E-08  0.93827000000E+00  0.93827000000E+00 0. -1.
     999902    2    1    2    0    0  0.12378889611E-01  0.15713479349E-01 -0.12798765522E-01  0.10201821845E+01  0.10199057461E+01 0.  0.
     999903    2    3    3    0    0  0.62157088224E-01 -0.10713830153E+00  0.31361059856E-01  0.12916000786E+00  0.18885769368E-01 0.  0.
         14    1    1    2    0    0 -0.12378889611E-01 -0.15713479349E-01  0.12798765522E-01  0.23747815481E-01  0.00000000000E+00 0. -1.
     999901    1    3    3    0    0 -0.49778198613E-01  0.12285178087E+00 -0.44159825378E-01  0.89102217666E+00  0.88000000000E+00 0. -1.
        -11    1    4    4    0    0  0.61298754995E-01 -0.10075081905E+00  0.33050095152E-01  0.12247789521E+00  0.51100000000E-03 0. -1.
         11    1    4    4    0    0  0.85833322937E-03 -0.63874824737E-02 -0.16890352952E-02  0.66821126534E-02  0.51100000000E-03 0.  1.
</event>
<event>
 8    1  0.1191842E+005  0.1043930E+01  0.7957747E-01            NaN
         13   -1    0    0    0    0  0.00000000000E+00  0.00000000000E+00  0.74505805969E-08  0.10566000000E+00  0.10566000000E+00 0. -1.
     999900   -1    0    0    0    0 -0.00000000000E+00 -0.00000000000E+00 -0.74505805969E-08  0.93827000000E+00  0.93827000000E+00 0. -1.
     999902    2    1    2    0    0 -0.24258335723E-02  0.76892848651E-02 -0.20929619812E-01  0.10215010287E+01  0.10212547639E+01 0.  0.
     999903    2    3    3    0    0  0.11660377794E+00  0.30393183788E-01 -0.51794521434E-01  0.13266124692E+00  0.19903450264E-01 0.  0.
         14    1    1    2    0    0  0.24258335723E-02 -0.76892848651E-02  0.20929619812E-01  0.22428971348E-01  0.00000000000E+00 0. -1.
     999901    1    3    3    0    0 -0.11902961151E+00 -0.22703898923E-01  0.30864901622E-01  0.88883978174E+00  0.88000000000E+00 0.  1.
        -11    1    4    4    0    0  0.66251287165E-02  0.32415110603E-02  0.13785364876E-02  0.75207186034E-02  0.51100000000E-03 0.  1.
         11    1    4    4    0    0  0.10997864922E+00  0.27151672728E-01 -0.53173057922E-01  0.12514052831E+00  0.51100000000E-03 0. -1.
</event>
<event>
 8    1  0.1191842E+005  0.1043930E+01  0.7957747E-01            NaN
         13   -1    0    0    0    0  0.00000000000E+00  0.00000000000E+00  0.74505805969E-08  0.10566000000E+00  0.10566000000E+00 0. -1.
     999900   -1    0    0    0    0 -0.00000000000E+00 -0.00000000000E+00 -0.74505805969E-08  0.93827000000E+00  0.93827000000E+00 0. -1.
     999902    2    1    2    0    0 -0.18228524467E-01 -0.18794992078E-02 -0.13532758651E-01  0.10211495878E+01  0.10208954567E+01 0.  0.
     999903    2    3    3    0    0 -0.82848765357E-01 -0.86992248082E-02  0.99816923305E-01  0.13150334658E+00  0.19751393620E-01 0.  0.
         14    1    1    2    0    0  0.18228524467E-01  0.18794992078E-02  0.13532758651E-01  0.22780412161E-01  0.00000000000E+00 0.  1.
     999901    1    3    3    0    0  0.64620240891E-01  0.68197256003E-02 -0.11334968196E+00  0.88964624126E+00  0.88000000000E+00 0. -1.
        -11    1    4    4    0    0 -0.38004328495E-01  0.55894073946E-02  0.48456725412E-01  0.61837576101E-01  0.51100000000E-03 0. -1.
         11    1    4    4    0    0 -0.44844436862E-01 -0.14288632203E-01  0.51360197893E-01  0.69665770478E-01  0.51100000000E-03 0.  1.
</event>
<event>
 8    1  0.1191842E+005  0.1043930E+01  0.7957747E-01            NaN
         13   -1    0    0    0    0  0.00000000000E+00  0.00000000000E+00  0.74505805969E-08  0.10566000000E+00  0.10566000000E+00 0.  1.
     999900   -1    0    0    0    0 -0.00000000000E+00 -0.00000000000E+00 -0.74505805969E-08  0.93827000000E+00  0.93827000000E+00 0. -1.
     999902    2    1    2    0    0  0.66429285591E-02  0.13827523832E-01  0.17953375530E-01  0.10203153307E+01  0.10200420194E+01 0.  0.
     999903    2    3    3    0    0  0.45218576230E-01  0.37497016873E-02 -0.11871360686E+00  0.12887407787E+00  0.21373525576E-01 0.  0.
         14    1    1    2    0    0 -0.66429285591E-02 -0.13827523832E-01 -0.17953375530E-01  0.23614669341E-01  0.00000000000E+00 0.  1.
     999901    1    3    3    0    0 -0.38575647671E-01  0.10077822145E-01  0.13666698239E+00  0.89144125279E+00  0.88000000000E+00 0.  1.
        -11    1    4    4    0    0  0.35878032967E-01  0.19678250109E-02 -0.64541152461E-01  0.73871016419E-01  0.51100000000E-03 0. -1.
         11    1    4    4    0    0  0.93405432628E-02  0.17818766765E-02 -0.54172454398E-01  0.55003061455E-01  0.51100000000E-03 0.  1.
</event>
<event>
 8    1  0.1191842E+005  0.1043930E+01  0.7957747E-01            NaN
         13   -1    0    0    0    0  0.00000000000E+00  0.00000000000E+00  0.74505805969E-08  0.10566000000E+00  0.10566000000E+00 0. -1.
     999900   -1    0    0    0    0 -0.00000000000E+00 -0.00000000000E+00 -0.74505805969E-08  0.93827000000E+00  0.93827000000E+00 0. -1.
     999902    2    1    2    0    0  0.17696615284E-01  0.88482429650E-02  0.12990840230E-01  0.10202609585E+01  0.10199863724E+01 0.  0.
     999903    2    3    3    0    0  0.10590777229E+00 -0.61871658209E-01 -0.42390320689E-01  0.13130112496E+00  0.19962159409E-01 0.  0.
         14    1    1    2    0    0 -0.17696615284E-01 -0.88482429650E-02 -0.12990840230E-01  0.23669041510E-01  0.00000000000E+00 0.  1.
     999901    1    3    3    0    0 -0.88211157001E-01  0.70719901174E-01  0.55381160920E-01  0.88895983353E+00  0.88000000000E+00 0. -1.
        -11    1    4    4    0    0  0.70222752938E-01 -0.45533534445E-01 -0.37622498832E-01  0.91761927446E-01  0.51100000000E-03 0. -1.
         11    1    4    4    0    0  0.35685019348E-01 -0.16338123763E-01 -0.47678218567E-02  0.39539197516E-01  0.51100000000E-03 0.  1.
</event>
<event>
 8    1  0.1191842E+005  0.1043930E+01  0.7957747E-01            NaN
         13   -1    0    0    0    0  0.00000000000E+00  0.00000000000E+00  0.74505805969E-08  0.10566000000E+00  0.10566000000E+00 0. -1.
     999900   -1    0    0    0    0 -0.00000000000E+00 -0.00000000000E+00 -0.74505805969E-08  0.93827000000E+00  0.93827000000E+00 0. -1.
     999902    2    1    2    0    0 -0.50478738781E-02 -0.23320303152E-01  0.16812180646E-02  0.10200104669E+01  0.10197299684E+01 0.  0.
     999903    2    3    3    0    0 -0.51949814763E-01  0.91341747309E-01  0.71316049279E-01  0.12860921740E+00  0.20304035592E-01 0.  0.
         14    1    1    2    0    0  0.50478738781E-02  0.23320303152E-01 -0.16812180646E-02  0.23919533105E-01  0.00000000000E+00 0.  1.
     999901    1    3    3    0    0  0.46901940885E-01 -0.11466205046E+00 -0.69634831214E-01  0.89140124949E+00  0.88000000000E+00 0. -1.
        -11    1    4    4    0    0 -0.74821973273E-02  0.30052355741E-01  0.16226687080E-01  0.34967039581E-01  0.51100000000E-03 0.  1.
         11    1    4    4    0    0 -0.44467617436E-01  0.61289391567E-01  0.55089362199E-01  0.93642177824E-01  0.51100000000E-03 0. -1.
</event>
<event>
 8    1  0.1261093E+005  0.1043930E+01  0.7957747E-01            NaN
         13   -1    0    0    0    0  0.00000000000E+00  0.00000000000E+00  0.74505805969E-08  0.10566000000E+00  0.10566000000E+00 0.  1.
     999900   -1    0    0    0    0 -0.00000000000E+00 -0.00000000000E+00 -0.74505805969E-08  0.93827000000E+00  0.93827000000E+00 0.  1.
     999902    2    1    2    0    0  0.21680759856E-01 -0.25727974235E-02  0.80694685426E-02  0.10206535966E+01  0.10203881483E+01 0.  0.
     999903    2    3    3    0    0  0.30985513006E-01  0.31392311558E-02 -0.12557658106E+00  0.13049604181E+00  0.17022997085E-01 0.  0.
         14    1    1    2    0    0 -0.21680759856E-01  0.25727974235E-02 -0.80694685426E-02  0.23276403440E-01  0.00000000000E+00 0.  1.
     999901    1    3    3    0    0 -0.93047531497E-02 -0.57120285794E-02  0.13364604960E+00  0.89015755475E+00  0.88000000000E+00 0. -1.
        -11    1    4    4    0    0  0.89259338426E-02  0.85938456798E-02 -0.53595797547E-01  0.55011790684E-01  0.51100000000E-03 0. -1.
         11    1    4    4    0    0  0.22059579163E-01 -0.54546145240E-02 -0.71980783512E-01  0.75484251128E-01  0.51100000000E-03 0.  1.
</event>
<event>
 8    1  0.1191842E+005  0.1043930E+01  0.7957747E-01            NaN
         13   -1    0    0    0    0  0.00000000000E+00  0.00000000000E+00  0.74505805969E-08  0.10566000000E+00  0.10566000000E+00 0.  1.
     999900   -1    0    0    0    0 -0.00000000000E+00 -0.00000000000E+00 -0.74505805969E-08  0.93827000000E+00  0.93827000000E+00 0.  1.
     999902    2    1    2    0    0  0.12010177877E-01 -0.13329269280E-01  0.15335206078E-01  0.10203274082E+01  0.10200543798E+01 0.  0.
     999903    2    3    3    0    0 -0.40168753998E-01 -0.91248117710E-01  0.85035730800E-01  0.13260439344E+00  0.20324907445E-01 0.  0.
         14    1    1    2    0    0 -0.12010177877E-01  0.13329269280E-01 -0.15335206078E-01  0.23602591757E-01  0.00000000000E+00 0. -1.
     999901    1    3    3    0    0  0.52178931874E-01  0.77918848429E-01 -0.69700524722E-01  0.88772301481E+00  0.88000000000E+00 0.  1.
        -11    1    4    4    0    0  0.65697929377E-03 -0.13837669715E-01  0.15739978862E-01  0.20974288558E-01  0.51100000000E-03 0.  1.
         11    1    4    4    0    0 -0.40825733292E-01 -0.77410447994E-01  0.69295751938E-01  0.11163010488E+00  0.51100000000E-03 0. -1.
</event>
<event>
 8    1  0.1191842E+005  0.1043930E+01  0.7957747E-01            NaN
         13   -1    0    0    0    0  0.00000000000E+00  0.00000000000E+00  0.74505805969E-08  0.10566000000E+00  0.10566000000E+00 0.  1.
     999900   -1    0    0    0    0 -0.00000000000E+00 -0.00000000000E+00 -0.74505805969E-08  0.93827000000E+00  0.93827000000E+00 0.  1.
     999902    2    1    2    0    0 -0.15527639768E-01  0.15591165744E-01  0.82242856582E-02  0.10204389183E+01  0.10201684934E+01 0.  0.
     999903    2    3    3    0    0  0.58964275959E-02 -0.12696104757E+00  0.31783569357E-02  0.12869591405E+00  0.19966493994E-01 0.  0.
         14    1    1    2    0    0  0.15527639768E-01 -0.15591165744E-01 -0.82242856582E-02  0.23491081725E-01  0.00000000000E+00 0. -1.
     999901    1    3    3    0    0 -0.21424067364E-01  0.14255221331E+00  0.50459287224E-02  0.89174300422E+00  0.88000000000E+00 0. -1.
        -11    1    4    4    0    0  0.10794715155E-01 -0.11428682139E+00  0.53740211826E-02  0.11492234179E+00  0.51100000000E-03 0.  1.
         11    1    4    4    0    0 -0.48982875595E-02 -0.12674226185E-01 -0.21956642469E-02  0.13773572263E-01  0.51100000000E-03 0. -1.
</event>
<event>
 8    1  0.1191842E+005  0.1043930E+01  0.7957747E-01            NaN
         13   -1    0    0    0    0  0.00000000000E+00  0.00000000000E+00  0.74505805969E-08  0.10566000000E+00  0.10566000000E+00 0.  1.
     999900   -1    0    0    0    0 -0.00000000000E+00 -0.00000000000E+00 -0.74505805969E-08  0.93827000000E+00  0.93827000000E+00 0. -1.
     999902    2    1    2    0    0 -0.37086173388E-02  0.22205443077E-01  0.51653157034E-02  0.10208320340E+01  0.10205706863E+01 0.  0.
     999903    2    3    3    0    0  0.49990137342E-01  0.14131408217E-01 -0.11826284925E+00  0.13056058208E+00  0.19006671193E-01 0.  0.
         14    1    1    2    0    0  0.37086173388E-02 -0.22205443077E-01 -0.51653157034E-02  0.23097965952E-01  0.00000000000E+00 0.  1.
     999901    1    3    3    0    0 -0.53698754681E-01  0.80740348593E-02  0.12342816495E+00  0.89027145197E+00  0.88000000000E+00 0.  1.
        -11    1    4    4    0    0  0.30727314582E-01  0.17904554244E-01 -0.80146996945E-01  0.87684338193E-01  0.51100000000E-03 0. -1.
         11    1    4    4    0    0  0.19262822760E-01 -0.37731460263E-02 -0.38115852304E-01  0.42876243883E-01  0.51100000000E-03 0.  1.
</event>
<event>
 8    1  0.1191842E+005  0.1043930E+01  0.7957747E-01            NaN
         13   -1    0    0    0    0  0.00000000000E+00  0.00000000000E+00  0.74505805969E-08  0.10566000000E+00  0.10566000000E+00 0.  1.
     999900   -1    0    0    0    0 -0.00000000000E+00 -0.00000000000E+00 -0.74505805969E-08  0.93827000000E+00  0.93827000000E+00 0.  1.
     999902    2    1    2    0    0  0.46843220896E-02 -0.18841243152E-01  0.12067236560E-01  0.10210705705E+01  0.10208146534E+01 0.  0.
     999903    2    3    3    0    0 -0.73423143925E-01 -0.10144798542E+00 -0.38530909501E-01  0.13231592358E+00  0.18445076164E-01 0.  0.
         14    1    1    2    0    0 -0.46843220896E-02  0.18841243152E-01 -0.12067236560E-01  0.22859429458E-01  0.00000000000E+00 0.  1.
     999901    1    3    3    0    0  0.78107466014E-01  0.82606742273E-01  0.50598146061E-01  0.88875464696E+00  0.88000000000E+00 0. -1.
        -11    1    4    4    0    0 -0.32161530299E-01 -0.34537516850E-01 -0.74377994067E-02  0.47778510676E-01  0.51100000000E-03 0. -1.
         11    1    4    4    0    0 -0.41261613626E-01 -0.66910468574E-01 -0.31093110094E-01  0.84537412902E-01  0.51100000000E-03 0.  1.
</event>
<event>
 8    1  0.1191842E+005  0.1043930E+01  0.7957747E-01            NaN
         13   -1    0    0    0    0  0.00000000000E+00  0.00000000000E+00  0.74505805969E-08  0.10566000000E+00  0.10566000000E+00 0.  1.
     999900   -1    0    0    0    0 -0.00000000000E+00 -0.00000000000E+00 -0.74505805969E-08  0.93827000000E+00  0.93827000000E+00 0. -1.
     999902    2    1    2    0    0 -0.10746457090E-02  0.23233209175E-01 -0.33228046357E-02  0.10204357900E+01  0.10201652923E+01 0.  0.
     999903    2    3    3    0    0 -0.95779371128E-01  0.21043523055E-01 -0.85411716616E-01  0.13155313792E+00  0.19863256625E-01 0.  0.
         14    1    1    2    0    0  0.10746457090E-02 -0.23233209175E-01  0.33228046357E-02  0.23494209981E-01  0.00000000000E+00 0.  1.
     999901    1    3    3    0    0  0.94704725419E-01  0.21896861198E-02  0.82088911980E-01  0.88888265210E+00  0.88000000000E+00 0.  1.
        -11    1    4    4    0    0 -0.75238221175E-01  0.79131572268E-02 -0.63581013571E-01  0.98824158942E-01  0.51100000000E-03 0. -1.
         11    1    4    4    0    0 -0.20541149953E-01  0.13130365828E-01 -0.21830703045E-01  0.32728978973E-01  0.51100000000E-03 0.  1.
</event>
<event>
 8    1  0.1191842E+005  0.1043930E+01  0.7957747E-01            NaN
         13   -1    0    0    0    0  0.00000000000E+00  0.00000000000E+00  0.74505805969E-08  0.10566000000E+00  0.10566000000E+00 0. -1.
     999900   -1    0    0    0    0 -0.00000000000E+00 -0.00000000000E+00 -0.74505805969E-08  0.93827000000E+00  0.93827000000E+00 0. -1.
     999902    2    1    2    0    0  0.83736997925E-03 -0.24294200480E-01  0.18804718826E-02  0.10195487461E+01  0.10192571806E+01 0.  0.
     999903    2    3    3    0    0 -0.10433297790E+00 -0.42755692669E-01 -0.62711178835E-01  0.13074409375E+00  0.21163803223E-01 0.  0.
         14    1    1    2    0    0 -0.83736997925E-03  0.24294200480E-01 -0.18804718826E-02  0.24381253863E-01  0.00000000000E+00 0. -1.
     999901    1    3    3    0    0  0.10517034788E+00  0.18461492189E-01  0.64591650718E-01  0.88880465239E+00  0.88000000000E+00 0. -1.
        -11    1    4    4    0    0 -0.99011860435E-01 -0.37875122857E-01 -0.52690623212E-01  0.11838258459E+00  0.51100000000E-03 0.  1.
         11    1    4    4    0    0 -0.53211174610E-02 -0.48805698122E-02 -0.10020555623E-01  0.12361509160E-01  0.51100000000E-03 0. -1.
</event>
<event>
 8    1  0.1191842E+005  0.1043930E+01  0.7957747E-01            NaN
         13   -1    0    0    0    0  0.00000000000E+00  0.00000000000E+00  0.74505805969E-08  0.10566000000E+00  0.10566000000E+00 0.  1.
     999900   -1    0    0    0    0 -0.00000000000E+00 -0.00000000000E+00 -0.74505805969E-08  0.93827000000E+00  0.93827000000E+00 0.  1.
     999902    2    1    2    0    0 -0.79932348485E-02  0.22082497684E-01  0.26714106527E-02  0.10202939059E+01  0.10200200927E+01 0.  0.
     999903    2    3    3    0    0 -0.10019990864E+00  0.71373064236E-01 -0.44562876373E-01  0.13284660694E+00  0.22983364318E-01 0.  0.
         14    1    1    2    0    0  0.79932348485E-02 -0.22082497684E-01 -0.26714106527E-02  0.23636094055E-01  0.00000000000E+00 0.  1.
     999901    1    3    3    0    0  0.92206673788E-01 -0.49290566553E-01  0.47234287026E-01  0.88744729901E+00  0.88000000000E+00 0.  1.
        -11    1    4    4    0    0 -0.42175410749E-01  0.29572882202E-01 -0.67581240289E-02  0.51954345294E-01  0.51100000000E-03 0. -1.
         11    1    4    4    0    0 -0.58024497888E-01  0.41800182034E-01 -0.37804752344E-01  0.80892261645E-01  0.51100000000E-03 0.  1.
</event>
<event>
 8    1  0.1191842E+005  0.1043930E+01  0.7957747E-01            NaN
         13   -1    0    0    0    0  0.00000000000E+00  0.00000000000E+00  0.74505805969E-08  0.10566000000E+00  0.10566000000E+00 0. -1.
     999900   -1    0    0    0    0 -0.00000000000E+00 -0.00000000000E+00 -0.74505805969E-08  0.93827000000E+00  0.93827000000E+00 0. -1.
     999902    2    1    2    0    0  0.16450622485E-01  0.50960996862E-03 -0.16500996138E-01  0.10206240875E+01  0.10203579580E+01 0.  0.
     999903    2    3    3    0    0  0.49326541365E-01 -0.30707560117E-01  0.11417898184E+00  0.12981962279E+00  0.20981721470E-01 0.  0.
         14    1    1    2    0    0 -0.16450622485E-01 -0.50960996862E-03  0.16500996138E-01  0.23305912469E-01  0.00000000000E+00 0. -1.
     999901    1    3    3    0    0 -0.32875918880E-01  0.31217170085E-01 -0.13067997798E+00  0.89080446474E+00  0.88000000000E+00 0. -1.
        -11    1    4    4    0    0  0.29181947257E-01 -0.28345647203E-01  0.85531679540E-01  0.94715316011E-01  0.51100000000E-03 0.  1.
         11    1    4    4    0    0  0.20144594107E-01 -0.23619129134E-02  0.28647302305E-01  0.35104306783E-01  0.51100000000E-03 0. -1.
</event>
<event>
 8    1  0.1191842E+005  0.1043930E+01  0.7957747E-01            NaN
         13   -1    0    0    0    0  0.00000000000E+00  0.00000000000E+00  0.74505805969E-08  0.10566000000E+00  0.10566000000E+00 0.  1.
     999900   -1    0    0    0    0 -0.00000000000E+00 -0.00000000000E+00 -0.74505805969E-08  0.93827000000E+00  0.93827000000E+00 0. -1.
     999902    2    1    2    0    0  0.16582195876E-01  0.84645670331E-02 -0.48335853738E-02  0.10246950926E+01  0.10245145441E+01 0.  0.
     999903    2    3    3    0    0 -0.12153998968E+00  0.27443413123E-01 -0.43083911649E-01  0.13289857870E+00  0.16754067055E-01 0.  0.
         14    1    1    2    0    0 -0.16582195876E-01 -0.84645670331E-02  0.48335853738E-02  0.19234907400E-01  0.00000000000E+00 0.  1.
     999901    1    3    3    0    0  0.13812218555E+00 -0.18978846090E-01  0.38250326275E-01  0.89179651390E+00  0.88000000000E+00 0.  1.
        -11    1    4    4    0    0 -0.79191528106E-01  0.24393356364E-01 -0.23459147559E-01  0.86121580824E-01  0.51100000000E-03 0.  1.
         11    1    4    4    0    0 -0.42348461573E-01  0.30500567595E-02 -0.19624764090E-01  0.46776997878E-01  0.51100000000E-03 0. -1.
</event>
<event>
 8    1  0.1191842E+005  0.1043930E+01  0.7957747E-01            NaN
         13   -1    0    0    0    0  0.00000000000E+00  0.00000000000E+00  0.74505805969E-08  0.10566000000E+00  0.10566000000E+00 0.  1.
     999900   -1    0    0    0    0 -0.00000000000E+00 -0.00000000000E+00 -0.74505805969E-08  0.93827000000E+00  0.93827000000E+00 0. -1.
     999902    2    1    2    0    0  0.11452157497E-02  0.38202689141E-03  0.23669695160E-01  0.10202295373E+01  0.10199542131E+01 0.  0.
     999903    2    3    3    0    0  0.82312003133E-02  0.54703923286E-01 -0.11352038398E+00  0.12791670122E+00  0.20384626351E-01 0.  0.
         14    1    1    2    0    0 -0.11452157497E-02 -0.38202689141E-03 -0.23669695160E-01  0.23700462709E-01  0.00000000000E+00 0. -1.
     999901    1    3    3    0    0 -0.70859845636E-02 -0.54321896395E-01  0.13719007913E+00  0.89231283607E+00  0.88000000000E+00 0.  1.
        -11    1    4    4    0    0 -0.51372804906E-02  0.24033891617E-01 -0.37260138543E-01  0.44638533156E-01  0.51100000000E-03 0. -1.
         11    1    4    4    0    0  0.13368480804E-01  0.30670031670E-01 -0.76260245432E-01  0.83278168064E-01  0.51100000000E-03 0.  1.
</event>
<event>
 7    1  0.1191842E+005  0.1043930E+01  0.7957747E-01            NaN
         13   -1    0    0    0    0  0.00000000000E+00  0.00000000000E+00  0.74505805969E-08  0.10566000000E+00  0.10566000000E+00 0.  1.
     999900   -1    0    0    0    0 -0.00000000000E+00 -0.00000000000E+00 -0.74505805969E-08  0.93827000000E+00  0.93827000000E+00 0. -1.
     999903    2    1    2    0    0 -0.64314170911E-01 -0.71427425461E-01 -0.47266537876E-01  0.10892539133E+00  0.19809734598E-01 0.  0.
         14    1    1    2    0    0 -0.20944292047E-01 -0.33527089195E-01 -0.15511712280E-01  0.42465777952E-01  0.00000000000E+00 0. -1.
     999901    1    1    2    0    0  0.85258462958E-01  0.10495451466E+00  0.62778250156E-01  0.89253883072E+00  0.88000000000E+00 0.  1.
        -11    1    3    3    0    0 -0.57603012400E-01 -0.53715367076E-01 -0.33965304556E-01  0.85775000625E-01  0.51100000000E-03 0. -1.
         11    1    3    3    0    0 -0.67111585112E-02 -0.17712058385E-01 -0.13301233319E-01  0.23150390701E-01  0.51100000000E-03 0.  1.
</event>
<event>
 8    1  0.1191842E+005  0.1043930E+01  0.7957747E-01            NaN
         13   -1    0    0    0    0  0.00000000000E+00  0.00000000000E+00  0.74505805969E-08  0.10566000000E+00  0.10566000000E+00 0. -1.
     999900   -1    0    0    0    0 -0.00000000000E+00 -0.00000000000E+00 -0.74505805969E-08  0.93827000000E+00  0.93827000000E+00 0. -1.
     999902    2    1    2    0    0  0.22806242332E-02 -0.14379853073E-01 -0.17039664706E-01  0.10215172448E+01  0.10212713400E+01 0.  0.
     999903    2    3    3    0    0  0.42432117605E-01 -0.90653321088E-01  0.82300887246E-01  0.13174293096E+00  0.23754043630E-01 0.  0.
         14    1    1    2    0    0 -0.22806242332E-02  0.14379853073E-01  0.17039664706E-01  0.22412755176E-01  0.00000000000E+00 0. -1.
     999901    1    3    3    0    0 -0.40151493372E-01  0.76273468015E-01 -0.99340551952E-01  0.88977431386E+00  0.88000000000E+00 0. -1.
        -11    1    4    4    0    0  0.13345803054E-01 -0.10325454654E-01  0.87699399429E-02  0.19023628481E-01  0.51100000000E-03 0. -1.
         11    1    4    4    0    0  0.29086314551E-01 -0.80327866434E-01  0.73530947303E-01  0.11271930248E+00  0.51100000000E-03 0.  1.
</event>
<event>
 8    1  0.1191842E+005  0.1043930E+01  0.7957747E-01            NaN
         13   -1    0    0    0    0  0.00000000000E+00  0.00000000000E+00  0.74505805969E-08  0.10566000000E+00  0.10566000000E+00 0. -1.
     999900   -1    0    0    0    0 -0.00000000000E+00 -0.00000000000E+00 -0.74505805969E-08  0.93827000000E+00  0.93827000000E+00 0.  1.
     999902    2    1    2    0    0  0.87754755988E-02  0.15660089554E-01  0.15308216346E-01  0.10203378644E+01  0.10200650806E+01 0.  0.
     999903    2    3    3    0    0 -0.53586849828E-01  0.27248837621E-01 -0.11230840515E+00  0.12887313661E+00  0.19520703026E-01 0.  0.
         14    1    1    2    0    0 -0.87754755988E-02 -0.15660089554E-01 -0.15308216346E-01  0.23592135650E-01  0.00000000000E+00 0.  1.
     999901    1    3    3    0    0  0.62362325427E-01 -0.11588748068E-01  0.12761662150E+00  0.89146472774E+00  0.88000000000E+00 0. -1.
        -11    1    4    4    0    0 -0.26802513582E-01  0.24249126275E-01 -0.60676699174E-01  0.70628024205E-01  0.51100000000E-03 0. -1.
         11    1    4    4    0    0 -0.26784336247E-01  0.29997113458E-02 -0.51631705978E-01  0.58245112409E-01  0.51100000000E-03 0.  1.
</event>
<event>
 8    1  0.1191842E+005  0.1043930E+01  0.7957747E-01            NaN
         13   -1    0    0    0    0  0.00000000000E+00  0.00000000000E+00  0.74505805969E-08  0.10566000000E+00  0.10566000000E+00 0.  1.
     999900   -1    0    0    0    0 -0.00000000000E+00 -0.00000000000E+00 -0.74505805969E-08  0.93827000000E+00  0.93827000000E+00 0.  1.
     999902    2    1    2    0    0  0.10787382411E-01 -0.21513002497E-01 -0.94143323563E-03  0.10198454989E+01  0.10195610715E+01 0.  0.
     999903    2    3    3    0    0 -0.54657645008E-01  0.57318926288E-01  0.98906094863E-01  0.12829232974E+00  0.20089519661E-01 0.  0.
         14    1    1    2    0    0 -0.10787382411E-01  0.21513002497E-01  0.94143323563E-03  0.24084501079E-01  0.00000000000E+00 0.  1.
     999901    1    3    3    0    0  0.65445027419E-01 -0.78831928785E-01 -0.99847528099E-01  0.89155316918E+00  0.88000000000E+00 0.  1.
        -11    1    4    4    0    0 -0.50851743171E-02  0.13125845095E-01  0.98020751229E-02  0.17160670296E-01  0.51100000000E-03 0. -1.
         11    1    4    4    0    0 -0.49572470691E-01  0.44193081193E-01  0.89104019740E-01  0.11113165944E+00  0.51100000000E-03 0.  1.
</event>
<event>
 8    1  0.1191842E+005  0.1043930E+01  0.7957747E-01            NaN
         13   -1    0    0    0    0  0.00000000000E+00  0.00000000000E+00  0.74505805969E-08  0.10566000000E+00  0.10566000000E+00 0. -1.
     999900   -1    0    0    0    0 -0.00000000000E+00 -0.00000000000E+00 -0.74505805969E-08  0.93827000000E+00  0.93827000000E+00 0.  1.
     999902    2    1    2    0    0 -0.20800055056E-01 -0.10471467048E-01 -0.11510551901E-02  0.10206143649E+01  0.10203480107E+01 0.  0.
     999903    2    3    3    0    0 -0.67237603015E-01  0.10497316863E+00  0.35296486354E-01  0.13111319398E+00  0.20113833435E-01 0.  0.
         14    1    1    2    0    0  0.20800055056E-01  0.10471467048E-01  0.11510551901E-02  0.23315635109E-01  0.00000000000E+00 0. -1.
     999901    1    3    3    0    0  0.46437547959E-01 -0.11544463568E+00 -0.36447541544E-01  0.88950117091E+00  0.88000000000E+00 0. -1.
        -11    1    4    4    0    0 -0.58950408746E-01  0.82102689884E-01  0.34388303622E-01  0.10676525148E+00  0.51100000000E-03 0.  1.
         11    1    4    4    0    0 -0.82871942690E-02  0.22870478746E-01  0.90818273136E-03  0.24347942496E-01  0.51100000000E-03 0. -1.
</event>
<event>
 8    1  0.1191842E+005  0.1043930E+01  0.7957747E-01            NaN
         13   -1    0    0    0    0  0.00000000000E+00  0.00000000000E+00  0.74505805969E-08  0.10566000000E+00  0.10566000000E+00 0. -1.
     999900   -1    0    0    0    0 -0.00000000000E+00 -0.00000000000E+00 -0.74505805969E-08  0.93827000000E+00  0.93827000000E+00 0. -1.
     999902    2    1    2    0    0 -0.18824003224E-01 -0.98810717899E-02 -0.11081255556E-01  0.10199555782E+01  0.10196737756E+01 0.  0.
     999903    2    3    3    0    0  0.59302373341E-01 -0.10582150116E+00 -0.44801804050E-01  0.13066070464E+00  0.18709796913E-01 0.  0.
         14    1    1    2    0    0  0.18824003224E-01  0.98810717899E-02  0.11081255556E-01  0.23974421824E-01  0.00000000000E+00 0. -1.
     999901    1    3    3    0    0 -0.78126376565E-01  0.95940429367E-01  0.33720548493E-01  0.88929487353E+00  0.88000000000E+00 0.  1.
        -11    1    4    4    0    0  0.33981851332E-01 -0.77025028444E-01 -0.27283843390E-01  0.88500228575E-01  0.51100000000E-03 0.  1.
         11    1    4    4    0    0  0.25320522009E-01 -0.28796472713E-01 -0.17517960660E-01  0.42160476067E-01  0.51100000000E-03 0. -1.
</event>
<event>
 8    1  0.1191842E+005  0.1043930E+01  0.7957747E-01            NaN
         13   -1    0    0    0    0  0.00000000000E+00  0.00000000000E+00  0.74505805969E-08  0.10566000000E+00  0.10566000000E+00 0. -1.
     999900   -1    0    0    0    0 -0.00000000000E+00 -0.00000000000E+00 -0.74505805969E-08  0.93827000000E+00  0.93827000000E+00 0.  1.
     999902    2    1    2    0    0  0.43621446532E-03 -0.19658037753E-01  0.12638206815E-01  0.10205558048E+01  0.10202880954E+01 0.  0.
     999903    2    3    3    0    0 -0.11140454071E+00 -0.57927910037E-01  0.36729888330E-01  0.13232534663E+00  0.19856943646E-01 0.  0.
         14    1    1    2    0    0 -0.43621446532E-03  0.19658037753E-01 -0.12638206815E-01  0.23374195235E-01  0.00000000000E+00 0. -1.
     999901    1    3    3    0    0  0.11184075518E+00  0.38269872284E-01 -0.24091681516E-01  0.88823045814E+00  0.88000000000E+00 0.  1.
        -11    1    4    4    0    0 -0.50265492156E-01 -0.16834385813E-01  0.99284434373E-02  0.53933768248E-01  0.51100000000E-03 0. -1.
         11    1    4    4    0    0 -0.61139048557E-01 -0.41093524225E-01  0.26801444893E-01  0.78391578380E-01  0.51100000000E-03 0.  1.
</event>
<event>
 8    1  0.1191842E+005  0.1043930E+01  0.7957747E-01            NaN
         13   -1    0    0    0    0  0.00000000000E+00  0.00000000000E+00  0.74505805969E-08  0.10566000000E+00  0.10566000000E+00 0.  1.
     999900   -1    0    0    0    0 -0.00000000000E+00 -0.00000000000E+00 -0.74505805969E-08  0.93827000000E+00  0.93827000000E+00 0.  1.
     999902    2    1    2    0    0 -0.30575530705E-02  0.23423583703E-01 -0.41142130854E-02  0.10199521007E+01  0.10196702154E+01 0.  0.
     999903    2    3    3    0    0 -0.85735555656E-01 -0.13371803140E-01  0.94477936086E-01  0.12983415097E+00  0.20035861033E-01 0.  0.
         14    1    1    2    0    0  0.30575530705E-02 -0.23423583703E-01  0.41142130854E-02  0.23977899274E-01  0.00000000000E+00 0.  1.
     999901    1    3    3    0    0  0.82678002586E-01  0.36795386844E-01 -0.98592149171E-01  0.89011794976E+00  0.88000000000E+00 0.  1.
        -11    1    4    4    0    0 -0.58400423159E-01 -0.72497122312E-02  0.49778066359E-01  0.77079729917E-01  0.51100000000E-03 0. -1.
         11    1    4    4    0    0 -0.27335132497E-01 -0.61220909089E-02  0.44699869727E-01  0.52754421050E-01  0.51100000000E-03 0.  1.
</event>
<event>
 8    1  0.1191842E+005  0.1043930E+01  0.7957747E-01            NaN
         13   -1    0    0    0    0  0.00000000000E+00  0.00000000000E+00  0.74505805969E-08  0.10566000000E+00  0.10566000000E+00 0.  1.
     999900   -1    0    0    0    0 -0.00000000000E+00 -0.00000000000E+00 -0.74505805969E-08  0.93827000000E+00  0.93827000000E+00 0. -1.
     999902    2    1    2    0    0 -0.16295614208E-01  0.12322794579E-01 -0.15644698645E-01  0.10181976293E+01  0.10178724170E+01 0.  0.
     999903    2    3    3    0    0  0.11384443001E-01  0.12425843891E+00 -0.32235463313E-01  0.13052030752E+00  0.20655759420E-01 0.  0.
         14    1    1    2    0    0  0.16295614208E-01 -0.12322794579E-01  0.15644698645E-01  0.25732370749E-01  0.00000000000E+00 0.  1.
     999901    1    3    3    0    0 -0.27680057209E-01 -0.11193564433E+00  0.16590764668E-01  0.88767732173E+00  0.88000000000E+00 0. -1.
        -11    1    4    4    0    0 -0.47044843778E-02  0.49113892813E-01 -0.83365008888E-02  0.50040633575E-01  0.51100000000E-03 0.  1.
         11    1    4    4    0    0  0.16088927378E-01  0.75144546100E-01 -0.23898962424E-01  0.80479673948E-01  0.51100000000E-03 0. -1.
</event>
<event>
 8    1  0.1191842E+005  0.1043930E+01  0.7957747E-01            NaN
         13   -1    0    0    0    0  0.00000000000E+00  0.00000000000E+00  0.74505805969E-08  0.10566000000E+00  0.10566000000E+00 0.  1.
     999900   -1    0    0    0    0 -0.00000000000E+00 -0.00000000000E+00 -0.74505805969E-08  0.93827000000E+00  0.93827000000E+00 0. -1.
     999902    2    1    2    0    0 -0.16356764634E-01 -0.17854259279E-01 -0.30595015647E-02  0.10195234666E+01  0.10192312888E+01 0.  0.
     999903    2    3    3    0    0  0.47801186319E-01 -0.22148788399E-01  0.11659460747E+00  0.12910121200E+00  0.17242337615E-01 0.  0.
         14    1    1    2    0    0  0.16356764634E-01  0.17854259279E-01  0.30595015647E-02  0.24406533419E-01  0.00000000000E+00 0.  1.
     999901    1    3    3    0    0 -0.64157950952E-01  0.42945291198E-02 -0.11965410904E+00  0.89042225458E+00  0.88000000000E+00 0. -1.
        -11    1    4    4    0    0  0.45733927704E-02  0.29189472864E-02  0.10731502565E-01  0.12035881479E-01  0.51100000000E-03 0.  1.
         11    1    4    4    0    0  0.43227793548E-01 -0.25067735686E-01  0.10586310491E+00  0.11706533052E+00  0.51100000000E-03 0. -1.
</event>
<event>
 8    1  0.1191842E+005  0.1043930E+01  0.7957747E-01            NaN
         13   -1    0    0    0    0  0.00000000000E+00  0.00000000000E+00  0.74505805969E-08  0.10566000000E+00  0.10566000000E+00 0. -1.
     999900   -1    0    0    0    0 -0.00000000000E+00 -0.00000000000E+00 -0.74505805969E-08  0.93827000000E+00  0.93827000000E+00 0. -1.
     999902    2    1    2    0    0  0.10315390669E-01 -0.14307354012E-01 -0.16569346675E-01  0.10197297745E+01  0.10194425742E+01 0.  0.
     999903    2    3    3    0    0 -0.42652052590E-01 -0.94360838043E-01 -0.79824020293E-01  0.13225286549E+00  0.19894242073E-01 0.  0.
         14    1    1    2    0    0 -0.10315390669E-01  0.14307354012E-01  0.16569346675E-01  0.24200225469E-01  0.00000000000E+00 0.  1.
     999901    1    3    3    0    0  0.52967443260E-01  0.80053484031E-01  0.63254673617E-01  0.88747690904E+00  0.88000000000E+00 0.  1.
        -11    1    4    4    0    0 -0.17771914240E-01 -0.57436728276E-01 -0.53780492235E-01  0.80668588415E-01  0.51100000000E-03 0.  1.
         11    1    4    4    0    0 -0.24880138351E-01 -0.36924109768E-01 -0.26043528057E-01  0.51584277073E-01  0.51100000000E-03 0. -1.
</event>
<event>
 8    1  0.1191842E+005  0.1043930E+01  0.7957747E-01            NaN
         13   -1    0    0    0    0  0.00000000000E+00  0.00000000000E+00  0.74505805969E-08  0.10566000000E+00  0.10566000000E+00 0.  1.
     999900   -1    0    0    0    0 -0.00000000000E+00 -0.00000000000E+00 -0.74505805969E-08  0.93827000000E+00  0.93827000000E+00 0.  1.
     999902    2    1    2    0    0 -0.73695549870E-02  0.97716162030E-02  0.20126378080E-01  0.10203744079E+01  0.10201024784E+01 0.  0.
     999903    2    3    3    0    0 -0.29567543818E-02 -0.54232748345E-01 -0.11338310267E+00  0.12799510911E+00  0.24022626734E-01 0.  0.
         14    1    1    2    0    0  0.73695549870E-02 -0.97716162030E-02 -0.20126378080E-01  0.23555592087E-01  0.00000000000E+00 0. -1.
     999901    1    3    3    0    0 -0.44128006052E-02  0.64004364548E-01  0.13350948075E+00  0.89237929881E+00  0.88000000000E+00 0. -1.
        -11    1    4    4    0    0  0.38321358234E-02 -0.29873811763E-01 -0.83933160988E-01  0.89174920963E-01  0.51100000000E-03 0.  1.
         11    1    4    4    0    0 -0.67888902052E-02 -0.24358936582E-01 -0.29449941679E-01  0.38820188143E-01  0.51100000000E-03 0. -1.
</event>
<event>
 8    1  0.1191842E+005  0.1043930E+01  0.7957747E-01            NaN
         13   -1    0    0    0    0  0.00000000000E+00  0.00000000000E+00  0.74505805969E-08  0.10566000000E+00  0.10566000000E+00 0. -1.
     999900   -1    0    0    0    0 -0.00000000000E+00 -0.00000000000E+00 -0.74505805969E-08  0.93827000000E+00  0.93827000000E+00 0.  1.
     999902    2    1    2    0    0  0.17821239568E-01  0.13683748348E-01 -0.11575745564E-01  0.10186547268E+01  0.10183411084E+01 0.  0.
     999903    2    3    3    0    0  0.10294041236E+00 -0.64838211805E-01  0.40069169714E-01  0.12956633467E+00  0.19523691008E-01 0.  0.
         14    1    1    2    0    0 -0.17821239568E-01 -0.13683748348E-01  0.11575745564E-01  0.25275273173E-01  0.00000000000E+00 0. -1.
     999901    1    3    3    0    0 -0.85119172790E-01  0.78521960153E-01 -0.51644915277E-01  0.88908839216E+00  0.88000000000E+00 0.  1.
        -11    1    4    4    0    0  0.74935711929E-01 -0.42866445581E-01  0.19696082466E-01  0.88549928653E-01  0.51100000000E-03 0.  1.
         11    1    4    4    0    0  0.28004700430E-01 -0.21971766224E-01  0.20373087248E-01  0.41016406012E-01  0.51100000000E-03 0. -1.
</event>
<event>
 8    1  0.1191842E+005  0.1043930E+01  0.7957747E-01            NaN
         13   -1    0    0    0    0  0.00000000000E+00  0.00000000000E+00  0.74505805969E-08  0.10566000000E+00  0.10566000000E+00 0.  1.
     999900   -1    0    0    0    0 -0.00000000000E+00 -0.00000000000E+00 -0.74505805969E-08  0.93827000000E+00  0.93827000000E+00 0. -1.
     999902    2    1    2    0    0  0.44135307902E-02  0.41884171923E-02 -0.21689661985E-01  0.10214030488E+01  0.10211546037E+01 0.  0.
     999903    2    3    3    0    0  0.58100653198E-01  0.10110422693E+00 -0.61953221340E-01  0.13354262313E+00  0.19941914445E-01 0.  0.
         14    1    1    2    0    0 -0.44135307902E-02 -0.41884171923E-02  0.21689661985E-01  0.22526951184E-01  0.00000000000E+00 0.  1.
     999901    1    3    3    0    0 -0.53687122408E-01 -0.96915809741E-01  0.40263559355E-01  0.88786042569E+00  0.88000000000E+00 0.  1.
        -11    1    4    4    0    0  0.43883166027E-01  0.90278506579E-01 -0.53888085434E-01  0.11393036419E+00  0.51100000000E-03 0. -1.
         11    1    4    4    0    0  0.14217487171E-01  0.10825720354E-01 -0.80651359063E-02  0.19612258943E-01  0.51100000000E-03 0.  1.
</event>
<event>
 8    1  0.1191842E+005  0.1043930E+01  0.7957747E-01            NaN
         13   -1    0    0    0    0  0.00000000000E+00  0.00000000000E+00  0.74505805969E-08  0.10566000000E+00  0.10566000000E+00 0. -1.
     999900   -1    0    0    0    0 -0.00000000000E+00 -0.00000000000E+00 -0.74505805969E-08  0.93827000000E+00  0.93827000000E+00 0.  1.
     999902    2    1    2    0    0 -0.12134234490E-01  0.20091168810E-01  0.44206368454E-02  0.10200461824E+01  0.10197665309E+01 0.  0.
     999903    2    3    3    0    0 -0.86703933812E-01  0.68485116183E-02  0.97423996071E-01  0.13191013833E+00  0.18557352574E-01 0.  0.
         14    1    1    2    0    0  0.12134234490E-01 -0.20091168810E-01 -0.44206368454E-02  0.23883817554E-01  0.00000000000E+00 0.  1.
     999901    1    3    3    0    0  0.74569699322E-01  0.13242657192E-01 -0.93003359226E-01  0.88813604411E+00  0.88000000000E+00 0.  1.
        -11    1    4    4    0    0 -0.66841384295E-01  0.90679725438E-02  0.64131071636E-01  0.93075529817E-01  0.51100000000E-03 0. -1.
         11    1    4    4    0    0 -0.19862549518E-01 -0.22194609255E-02  0.33292924435E-01  0.38834608516E-01  0.51100000000E-03 0.  1.
</event>
<event>
 8    1  0.1191842E+005  0.1043930E+01  0.7957747E-01            NaN
         13   -1    0    0    0    0  0.00000000000E+00  0.00000000000E+00  0.74505805969E-08  0.10566000000E+00  0.10566000000E+00 0. -1.
     999900   -1    0    0    0    0 -0.00000000000E+00 -0.00000000000E+00 -0.74505805969E-08  0.93827000000E+00  0.93827000000E+00 0. -1.
     999902    2    1    2    0    0  0.17743874971E-01  0.10902678716E-01 -0.14768810531E-01  0.10183990136E+01  0.10180789359E+01 0.  0.
     999903    2    3    3    0    0 -0.73224599082E-01 -0.82323719485E-01 -0.61061991632E-01  0.12760752104E+00  0.20397938716E-01 0.  0.
         14    1    1    2    0    0 -0.17743874971E-01 -0.10902678716E-01  0.14768810531E-01  0.25530986402E-01  0.00000000000E+00 0.  1.
     999901    1    3    3    0    0  0.90968474053E-01  0.93226398201E-01  0.46293181102E-01  0.89079149256E+00  0.88000000000E+00 0.  1.
        -11    1    4    4    0    0 -0.63316751294E-01 -0.65252380330E-01 -0.41974154827E-01  0.10014476985E+00  0.51100000000E-03 0.  1.
         11    1    4    4    0    0 -0.99078477882E-02 -0.17071339155E-01 -0.19087836805E-01  0.27462751196E-01  0.51100000000E-03 0. -1.
</event>
<event>
 7    1  0.1191842E+005  0.1043930E+01  0.7957747E-01            NaN
         13   -1    0    0    0    0  0.00000000000E+00  0.00000000000E+00  0.74505805969E-08  0.10566000000E+00  0.10566000000E+00 0.  1.
     999900   -1    0    0    0    0 -0.00000000000E+00 -0.00000000000E+00 -0.74505805969E-08  0.93827000000E+00  0.93827000000E+00 0.  1.
     999903    2    1    2    0    0 -0.30864466555E-01 -0.10018048768E+00 -0.22064306746E-01  0.10891538627E+00  0.19671866414E-01 0.  0.
         14    1    1    2    0    0  0.37461827601E-01  0.62528181351E-02  0.32413220492E-01  0.49930983612E-01  0.00000000000E+00 0.  1.
     999901    1    1    2    0    0 -0.65973610457E-02  0.93927669542E-01 -0.10348913746E-01  0.88508363011E+00  0.88000000000E+00 0.  1.
        -11    1    3    3    0    0 -0.81755044007E-02 -0.58272382457E-01 -0.15089053290E-01  0.60749074723E-01  0.51100000000E-03 0. -1.
         11    1    3    3    0    0 -0.22688962154E-01 -0.41908105220E-01 -0.69752534554E-02  0.48166311552E-01  0.51100000000E-03 0.  1.
</event>
<event>
 8    1  0.1191842E+005  0.1043930E+01  0.7957747E-01            NaN
         13   -1    0    0    0    0  0.00000000000E+00  0.00000000000E+00  0.74505805969E-08  0.10566000000E+00  0.10566000000E+00 0. -1.
     999900   -1    0    0    0    0 -0.00000000000E+00 -0.00000000000E+00 -0.74505805969E-08  0.93827000000E+00  0.93827000000E+00 0. -1.
     999902    2    1    2    0    0  0.31667900746E-01 -0.19657485162E-02 -0.16010492486E-02  0.10121607780E+01  0.10116620766E+01 0.  0.
     999903    2    3    3    0    0  0.81442028436E-01 -0.16697818099E-01  0.92172593603E-01  0.12565753848E+00  0.19555276554E-01 0.  0.
         14    1    1    2    0    0 -0.31667900746E-01  0.19657485162E-02  0.16010492486E-02  0.31769221954E-01  0.00000000000E+00 0.  1.
     999901    1    3    3    0    0 -0.49774127690E-01  0.14732069582E-01 -0.93773642852E-01  0.88650323956E+00  0.88000000000E+00 0. -1.
        -11    1    4    4    0    0  0.20603099129E-01 -0.70925540149E-02  0.13113264976E-01  0.25436408070E-01  0.51100000000E-03 0. -1.
         11    1    4    4    0    0  0.60838929307E-01 -0.96052640837E-02  0.79059328627E-01  0.10022113041E+00  0.51100000000E-03 0.  1.
</event>
<event>
 8    1  0.1191842E+005  0.1043930E+01  0.7957747E-01            NaN
         13   -1    0    0    0    0  0.00000000000E+00  0.00000000000E+00  0.74505805969E-08  0.10566000000E+00  0.10566000000E+00 0.  1.
     999900   -1    0    0    0    0 -0.00000000000E+00 -0.00000000000E+00 -0.74505805969E-08  0.93827000000E+00  0.93827000000E+00 0.  1.
     999902    2    1    2    0    0  0.27477473498E-02 -0.61900888926E-02  0.21846012136E-01  0.10210582803E+01  0.10208020847E+01 0.  0.
     999903    2    3    3    0    0  0.36074666227E-01 -0.12485591553E+00 -0.99785304328E-02  0.13189852893E+00  0.20180923655E-01 0.  0.
         14    1    1    2    0    0 -0.27477473498E-02  0.61900888926E-02 -0.21846012136E-01  0.22871719705E-01  0.00000000000E+00 0. -1.
     999901    1    3    3    0    0 -0.33326918877E-01  0.11866582663E+00  0.31824542569E-01  0.88915975136E+00  0.88000000000E+00 0. -1.
        -11    1    4    4    0    0  0.13282860477E-01 -0.81088468552E-01 -0.64618912031E-02  0.82424457982E-01  0.51100000000E-03 0.  1.
         11    1    4    4    0    0  0.22791805750E-01 -0.43767446975E-01 -0.35166392296E-02  0.49474070952E-01  0.51100000000E-03 0. -1.
</event>
<event>
 8    1  0.1191842E+005  0.1043930E+01  0.7957747E-01            NaN
         13   -1    0    0    0    0  0.00000000000E+00  0.00000000000E+00  0.74505805969E-08  0.10566000000E+00  0.10566000000E+00 0. -1.
     999900   -1    0    0    0    0 -0.00000000000E+00 -0.00000000000E+00 -0.74505805969E-08  0.93827000000E+00  0.93827000000E+00 0.  1.
     999902    2    1    2    0    0  0.13225589005E-01  0.15627583908E-01  0.62335578372E-02  0.10225291863E+01  0.10223052098E+01 0.  0.
     999903    2    3    3    0    0  0.30170438731E-01 -0.12362754764E+00 -0.25167654109E-01  0.13086492454E+00  0.17268229607E-01 0.  0.
         14    1    1    2    0    0 -0.13225589005E-01 -0.15627583908E-01 -0.62335578372E-02  0.21400813692E-01  0.00000000000E+00 0.  1.
     999901    1    3    3    0    0 -0.16944849725E-01  0.13925513155E+00  0.31401211946E-01  0.89166426176E+00  0.88000000000E+00 0. -1.
        -11    1    4    4    0    0  0.16800693012E-01 -0.36725861082E-01 -0.10409278282E-01  0.41709307753E-01  0.51100000000E-03 0.  1.
         11    1    4    4    0    0  0.13369745719E-01 -0.86901686560E-01 -0.14758375827E-01  0.89155616792E-01  0.51100000000E-03 0. -1.
</event>
<event>
 8    1  0.1191842E+005  0.1043930E+01  0.7957747E-01            NaN
         13   -1    0    0    0    0  0.00000000000E+00  0.00000000000E+00  0.74505805969E-08  0.10566000000E+00  0.10566000000E+00 0.  1.
     999900   -1    0    0    0    0 -0.00000000000E+00 -0.00000000000E+00 -0.74505805969E-08  0.93827000000E+00  0.93827000000E+00 0. -1.
     999902    2    1    2    0    0  0.15940188032E-03  0.85119857051E-02 -0.26107075726E-01  0.10164698705E+01  0.10160988824E+01 0.  0.
     999903    2    3    3    0    0 -0.12486430407E+00  0.12153201963E-01 -0.62063513776E-02  0.12740281772E+00  0.21311133621E-01 0.  0.
         14    1    1    2    0    0 -0.15940188032E-03 -0.85119857051E-02  0.26107075726E-01  0.27460129508E-01  0.00000000000E+00 0.  1.
     999901    1    3    3    0    0  0.12502370595E+00 -0.36412162580E-02 -0.19900724349E-01  0.88906705278E+00  0.88000000000E+00 0. -1.
        -11    1    4    4    0    0 -0.46231735074E-01 -0.30133758270E-02  0.47407809491E-02  0.46574562658E-01  0.51100000000E-03 0.  1.
         11    1    4    4    0    0 -0.78632568993E-01  0.15166577790E-01 -0.10947132327E-01  0.80828255057E-01  0.51100000000E-03 0. -1.
</event>
<event>
 8    1  0.1191842E+005  0.1043930E+01  0.7957747E-01            NaN
         13   -1    0    0    0    0  0.00000000000E+00  0.00000000000E+00  0.74505805969E-08  0.10566000000E+00  0.10566000000E+00 0. -1.
     999900   -1    0    0    0    0 -0.00000000000E+00 -0.00000000000E+00 -0.74505805969E-08  0.93827000000E+00  0.93827000000E+00 0.  1.
     999902    2    1    2    0    0  0.17699151817E-01  0.12213145788E-01 -0.82439896393E-02  0.10208999268E+01  0.10206401307E+01 0.  0.
     999903    2    3    3    0    0  0.12573964376E+00 -0.22621088132E-01  0.30267288632E-01  0.13277308324E+00  0.19758826613E-01 0.  0.
         14    1    1    2    0    0 -0.17699151817E-01 -0.12213145788E-01  0.82439896393E-02  0.23030073171E-01  0.00000000000E+00 0.  1.
     999901    1    3    3    0    0 -0.10804049195E+00  0.34834233920E-01 -0.38511278271E-01  0.88812684359E+00  0.88000000000E+00 0.  1.
        -11    1    4    4    0    0  0.33908513569E-01 -0.15141365119E-01  0.84116906016E-02  0.38079730696E-01  0.51100000000E-03 0. -1.
         11    1    4    4    0    0  0.91831130196E-01 -0.74797230129E-02  0.21855598030E-01  0.94693352542E-01  0.51100000000E-03 0.  1.
</event>
<event>
 8    1  0.1191842E+005  0.1043930E+01  0.7957747E-01            NaN
         13   -1    0    0    0    0  0.00000000000E+00  0.00000000000E+00  0.74505805969E-08  0.10566000000E+00  0.10566000000E+00 0.  1.
     999900   -1    0    0    0    0 -0.00000000000E+00 -0.00000000000E+00 -0.74505805969E-08  0.93827000000E+00  0.93827000000E+00 0.  1.
     999902    2    1    2    0    0  0.44907927477E-02 -0.26191288465E-02  0.19730667254E-01  0.10235259248E+01  0.10233225261E+01 0.  0.
     999903    2    3    3    0    0  0.16497415683E-01  0.12879279662E+00  0.24355432456E-01  0.13367501501E+00  0.20397876420E-01 0.  0.
         14    1    1    2    0    0 -0.44907927477E-02  0.26191288465E-02 -0.19730667254E-01  0.20404075223E-01  0.00000000000E+00 0. -1.
     999901    1    3    3    0    0 -0.12006622936E-01 -0.13141192547E+00 -0.46247652012E-02  0.88985090976E+00  0.88000000000E+00 0.  1.
        -11    1    4    4    0    0  0.17164194020E-01  0.83642638515E-01  0.84774060455E-02  0.85806923196E-01  0.51100000000E-03 0.  1.
         11    1    4    4    0    0 -0.66677833652E-03  0.45150158110E-01  0.15878026410E-01  0.47868091819E-01  0.51100000000E-03 0. -1.
</event>
<event>
 8    1  0.1191842E+005  0.1043930E+01  0.7957747E-01            NaN
         13   -1    0    0    0    0  0.00000000000E+00  0.00000000000E+00  0.74505805969E-08  0.10566000000E+00  0.10566000000E+00 0. -1.
     999900   -1    0    0    0    0 -0.00000000000E+00 -0.00000000000E+00 -0.74505805969E-08  0.93827000000E+00  0.93827000000E+00 0.  1.
     999902    2    1    2    0    0 -0.16511301353E-01  0.13452997556E-01  0.93661392500E-02  0.10206634837E+01  0.10203982635E+01 0.  0.
     999903    2    3    3    0    0 -0.12506520317E+00  0.25295524860E-01 -0.33459289478E-01  0.13288073304E+00  0.16018630967E-01 0.  0.
         14    1    1    2    0    0  0.16511301353E-01 -0.13452997556E-01 -0.93661392500E-02  0.23266516285E-01  0.00000000000E+00 0.  1.
     999901    1    3    3    0    0  0.10855390182E+00 -0.11842527304E-01  0.42825428728E-01  0.88778275068E+00  0.88000000000E+00 0. -1.
        -11    1    4    4    0    0 -0.76554116160E-01  0.22912034349E-01 -0.18066204785E-01  0.81927668680E-01  0.51100000000E-03 0. -1.
         11    1    4    4    0    0 -0.48511087012E-01  0.23834905104E-02 -0.15393084693E-01  0.50953064358E-01  0.51100000000E-03 0.  1.
</event>
<event>
 8    1  0.1191842E+005  0.1043930E+01  0.7957747E-01            NaN
         13   -1    0    0    0    0  0.00000000000E+00  0.00000000000E+00  0.74505805969E-08  0.10566000000E+00  0.10566000000E+00 0.  1.
     999900   -1    0    0    0    0 -0.00000000000E+00 -0.00000000000E+00 -0.74505805969E-08  0.93827000000E+00  0.93827000000E+00 0. -1.
     999902    2    1    2    0    0 -0.68616744471E-02  0.17624569510E-01  0.13274007966E-01  0.10208235655E+01  0.10205620239E+01 0.  0.
     999903    2    3    3    0    0  0.51444896762E-01  0.99112316199E-01 -0.66203596438E-01  0.13157860563E+00  0.21451914876E-01 0.  0.
         14    1    1    2    0    0  0.68616744471E-02 -0.17624569510E-01 -0.13274007966E-01  0.23106434474E-01  0.00000000000E+00 0.  1.
     999901    1    3    3    0    0 -0.58306571209E-01 -0.81487746689E-01  0.79477604404E-01  0.88924495990E+00  0.88000000000E+00 0.  1.
        -11    1    4    4    0    0  0.18660664657E-01  0.52707476177E-01 -0.41436981893E-01  0.69595855047E-01  0.51100000000E-03 0. -1.
         11    1    4    4    0    0  0.32784232105E-01  0.46404840022E-01 -0.24766614545E-01  0.61982750578E-01  0.51100000000E-03 0.  1.
</event>
<event>
 8    1  0.1191842E+005  0.1043930E+01  0.7957747E-01            NaN
         13   -1    0    0    0    0  0.00000000000E+00  0.00000000000E+00  0.74505805969E-08  0.10566000000E+00  0.10566000000E+00 0.  1.
     999900   -1    0    0    0    0 -0.00000000000E+00 -0.00000000000E+00 -0.74505805969E-08  0.93827000000E+00  0.93827000000E+00 0.  1.
     999902    2    1    2    0    0  0.13718565080E-01  0.70156180722E-02  0.19731851593E-01  0.10188947470E+01  0.10185871301E+01 0.  0.
     999903    2    3    3    0    0  0.83694866100E-01 -0.51478340703E-01  0.85661288801E-01  0.13172795514E+00  0.18961740236E-01 0.  0.
         14    1    1    2    0    0 -0.13718565080E-01 -0.70156180722E-02 -0.19731851593E-01  0.25035252986E-01  0.00000000000E+00 0. -1.
     999901    1    3    3    0    0 -0.69976301021E-01  0.58493958775E-01 -0.65929437208E-01  0.88716679188E+00  0.88000000000E+00 0.  1.
        -11    1    4    4    0    0  0.30174377844E-01 -0.29365274474E-01  0.33953706628E-01  0.54091845392E-01  0.51100000000E-03 0.  1.
         11    1    4    4    0    0  0.53520488257E-01 -0.22113066229E-01  0.51707582173E-01  0.77636109745E-01  0.51100000000E-03 0. -1.
</event>
<event>
 8    1  0.1191842E+005  0.1043930E+01  0.7957747E-01            NaN
         13   -1    0    0    0    0  0.00000000000E+00  0.00000000000E+00  0.74505805969E-08  0.10566000000E+00  0.10566000000E+00 0. -1.
     999900   -1    0    0    0    0 -0.00000000000E+00 -0.00000000000E+00 -0.74505805969E-08  0.93827000000E+00  0.93827000000E+00 0.  1.
     999902    2    1    2    0    0 -0.71354054405E-02 -0.21309795064E-01 -0.74590017768E-02  0.10202517804E+01  0.10199769788E+01 0.  0.
     999903    2    3    3    0    0 -0.11270510625E+00 -0.54060184017E-01  0.40461695962E-01  0.13204350359E+00  0.13167897688E-01 0.  0.
         14    1    1    2    0    0  0.71354054405E-02  0.21309795064E-01  0.74590017768E-02  0.23678219611E-01  0.00000000000E+00 0. -1.
     999901    1    3    3    0    0  0.10556970081E+00  0.32750388953E-01 -0.47920697739E-01  0.88820827680E+00  0.88000000000E+00 0.  1.
        -11    1    4    4    0    0 -0.24752557121E-01 -0.16319573053E-01  0.55618511632E-02  0.30169734139E-01  0.51100000000E-03 0.  1.
         11    1    4    4    0    0 -0.87952549126E-01 -0.37740610964E-01  0.34899844799E-01  0.10187376945E+00  0.51100000000E-03 0. -1.
</event>
<event>
 8    1  0.1191842E+005  0.1043930E+01  0.7957747E-01            NaN
         13   -1    0    0    0    0  0.00000000000E+00  0.00000000000E+00  0.74505805969E-08  0.10566000000E+00  0.10566000000E+00 0.  1.
     999900   -1    0    0    0    0 -0.00000000000E+00 -0.00000000000E+00 -0.74505805969E-08  0.93827000000E+00  0.93827000000E+00 0. -1.
     999902    2    1    2    0    0  0.66920435034E-02  0.21555584321E-01  0.12191310708E-01  0.10182774228E+01  0.10179542500E+01 0.  0.
     999903    2    3    3    0    0  0.83832232724E-01  0.94653750952E-01  0.30682719406E-01  0.13169077559E+00  0.20343433675E-01 0.  0.
         14    1    1    2    0    0 -0.66920435034E-02 -0.21555584321E-01 -0.12191310708E-01  0.25652577229E-01  0.00000000000E+00 0. -1.
     999901    1    3    3    0    0 -0.77140189221E-01 -0.73098166630E-01 -0.18491408698E-01  0.88658664718E+00  0.88000000000E+00 0. -1.
        -11    1    4    4    0    0  0.53547892036E-01  0.73705772547E-01  0.24567208076E-01  0.94359559568E-01  0.51100000000E-03 0.  1.
         11    1    4    4    0    0  0.30284340688E-01  0.20947978405E-01  0.61155113303E-02  0.37331216026E-01  0.51100000000E-03 0. -1.
</event>
<event>
 8    1  0.1191842E+005  0.1043930E+01  0.7957747E-01            NaN
         13   -1    0    0    0    0  0.00000000000E+00  0.00000000000E+00  0.74505805969E-08  0.10566000000E+00  0.10566000000E+00 0.  1.
     999900   -1    0    0    0    0 -0.00000000000E+00 -0.00000000000E+00 -0.74505805969E-08  0.93827000000E+00  0.93827000000E+00 0. -1.
     999902    2    1    2    0    0 -0.12999957370E-01 -0.12857329231E-01  0.14273043303E-01  0.10207345355E+01  0.10204709513E+01 0.  0.
     999903    2    3    3    0    0  0.20380606571E-01  0.82115265489E-01  0.98129163780E-01  0.13103463965E+00  0.19556534806E-01 0.  0.
         14    1    1    2    0    0  0.12999957370E-01  0.12857329231E-01 -0.14273043303E-01  0.23195464464E-01  0.00000000000E+00 0.  1.
     999901    1    3    3    0    0 -0.33380563940E-01 -0.94972594720E-01 -0.83856120477E-01  0.88969989589E+00  0.88000000000E+00 0. -1.
        -11    1    4    4    0    0 -0.60562879694E-03  0.14071805579E-01  0.26603832653E-01  0.30106602786E-01  0.51100000000E-03 0. -1.
         11    1    4    4    0    0  0.20986235368E-01  0.68043459910E-01  0.71525331127E-01  0.10092803686E+00  0.51100000000E-03 0.  1.
</event>
<event>
 8    1  0.1191842E+005  0.1043930E+01  0.7957747E-01            NaN
         13   -1    0    0    0    0  0.00000000000E+00  0.00000000000E+00  0.74505805969E-08  0.10566000000E+00  0.10566000000E+00 0. -1.
     999900   -1    0    0    0    0 -0.00000000000E+00 -0.00000000000E+00 -0.74505805969E-08  0.93827000000E+00  0.93827000000E+00 0.  1.
     999902    2    1    2    0    0  0.12460860083E-01 -0.19511320576E-01  0.91910373946E-02  0.10190213703E+01  0.10187168956E+01 0.  0.
     999903    2    3    3    0    0 -0.47817543264E-02  0.72538799465E-01  0.10440766866E+00  0.12894455384E+00  0.20999859219E-01 0.  0.
         14    1    1    2    0    0 -0.12460860083E-01  0.19511320576E-01 -0.91910373946E-02  0.24908629689E-01  0.00000000000E+00 0. -1.
     999901    1    3    3    0    0  0.17242614409E-01 -0.92050120041E-01 -0.95216631266E-01  0.89007681647E+00  0.88000000000E+00 0.  1.
        -11    1    4    4    0    0 -0.14444160826E-02  0.65354133126E-01  0.80195055362E-01  0.10346379599E+00  0.51100000000E-03 0.  1.
         11    1    4    4    0    0 -0.33373382438E-02  0.71846663394E-02  0.24212613299E-01  0.25480757852E-01  0.51100000000E-03 0. -1.
</event>
<event>
 8    1  0.1191842E+005  0.1043930E+01  0.7957747E-01            NaN
         13   -1    0    0    0    0  0.00000000000E+00  0.00000000000E+00  0.74505805969E-08  0.10566000000E+00  0.10566000000E+00 0. -1.
     999900   -1    0    0    0    0 -0.00000000000E+00 -0.00000000000E+00 -0.74505805969E-08  0.93827000000E+00  0.93827000000E+00 0. -1.
     999902    2    1    2    0    0 -0.46881106739E-02  0.19358460159E-01  0.64276781667E-02  0.10230005134E+01  0.10227863937E+01 0.  0.
     999903    2    3    3    0    0 -0.11651539020E+00 -0.17113581641E-01 -0.58079891567E-01  0.13283380049E+00  0.20070722895E-01 0.  0.
         14    1    1    2    0    0  0.46881106739E-02 -0.19358460159E-01 -0.64276781667E-02  0.20929486569E-01  0.00000000000E+00 0.  1.
     999901    1    3    3    0    0  0.11182727953E+00  0.36472041800E-01  0.64507569734E-01  0.89016671294E+00  0.88000000000E+00 0.  1.
        -11    1    4    4    0    0 -0.64123830900E-01 -0.16605578122E-01 -0.40126500770E-01  0.77446808192E-01  0.51100000000E-03 0. -1.
         11    1    4    4    0    0 -0.52391559300E-01 -0.50800351907E-03 -0.17953390797E-01  0.55386992296E-01  0.51100000000E-03 0.  1.
</event>
<event>
 8    1  0.1191842E+005  0.1043930E+01  0.7957747E-01            NaN
         13   -1    0    0    0    0  0.00000000000E+00  0.00000000000E+00  0.74505805969E-08  0.10566000000E+00  0.10566000000E+00 0.  1.
     999900   -1    0    0    0    0 -0.00000000000E+00 -0.00000000000E+00 -0.74505805969E-08  0.93827000000E+00  0.93827000000E+00 0. -1.
     999902    2    1    2    0    0  0.13860586138E-01 -0.17910025356E-02 -0.18812829575E-01  0.10204940000E+01  0.10202248566E+01 0.  0.
     999903    2    3    3    0    0 -0.86484674954E-02  0.12566110434E+00 -0.31110845317E-01  0.13094246232E+00  0.17678648392E-01 0.  0.
         14    1    1    2    0    0 -0.13860586138E-01  0.17910025356E-02  0.18812829575E-01  0.23435999974E-01  0.00000000000E+00 0. -1.
     999901    1    3    3    0    0  0.22509053633E-01 -0.12745210687E+00  0.12298015743E-01  0.88955153770E+00  0.88000000000E+00 0.  1.
        -11    1    4    4    0    0  0.22273584474E-02  0.68274555332E-01 -0.22367339207E-01  0.71881395476E-01  0.51100000000E-03 0.  1.
         11    1    4    4    0    0 -0.10875825943E-01  0.57386549006E-01 -0.87435061101E-02  0.59061066845E-01  0.51100000000E-03 0. -1.
</event>
<event>
 8    1  0.1191842E+005  0.1043930E+01  0.7957747E-01            NaN
         13   -1    0    0    0    0  0.00000000000E+00  0.00000000000E+00  0.74505805969E-08  0.10566000000E+00  0.10566000000E+00 0.  1.
     999900   -1    0    0    0    0 -0.00000000000E+00 -0.00000000000E+00 -0.74505805969E-08  0.93827000000E+00  0.93827000000E+00 0. -1.
     999902    2    1    2    0    0  0.70592037806E-02 -0.20735562876E-01 -0.80460999665E-02  0.10205947123E+01  0.10203279038E+01 0.  0.
     999903    2    3    3    0    0 -0.94464234808E-01 -0.49803862322E-01  0.72545434902E-01  0.13062450491E+00  0.19899869269E-01 0.  0.
         14    1    1    2    0    0 -0.70592037806E-02  0.20735562876E-01  0.80460999665E-02  0.23335287666E-01  0.00000000000E+00 0.  1.
     999901    1    3    3    0    0  0.10152343859E+00  0.29068299446E-01 -0.80591534869E-01  0.88997020743E+00  0.88000000000E+00 0. -1.
        -11    1    4    4    0    0 -0.32429633661E-01 -0.24181662460E-01  0.36244364688E-01  0.54317115454E-01  0.51100000000E-03 0. -1.
         11    1    4    4    0    0 -0.62034601147E-01 -0.25622199862E-01  0.36301070215E-01  0.76307389452E-01  0.51100000000E-03 0.  1.
</event>
<event>
 8    1  0.1191842E+005  0.1043930E+01  0.7957747E-01            NaN
         13   -1    0    0    0    0  0.00000000000E+00  0.00000000000E+00  0.74505805969E-08  0.10566000000E+00  0.10566000000E+00 0.  1.
     999900   -1    0    0    0    0 -0.00000000000E+00 -0.00000000000E+00 -0.74505805969E-08  0.93827000000E+00  0.93827000000E+00 0. -1.
     999902    2    1    2    0    0  0.82052058070E-02 -0.30066905723E-02 -0.22079526906E-01  0.10201840298E+01  0.10199076349E+01 0.  0.
     999903    2    3    3    0    0  0.87311156503E-01 -0.38199947722E-01  0.85700503391E-01  0.12939064655E+00  0.17745114164E-01 0.  0.
         14    1    1    2    0    0 -0.82052058070E-02  0.30066905723E-02  0.22079526906E-01  0.23745970162E-01  0.00000000000E+00 0.  1.
     999901    1    3    3    0    0 -0.79105950696E-01  0.35193257149E-01 -0.10778003030E+00  0.89079338329E+00  0.88000000000E+00 0. -1.
        -11    1    4    4    0    0  0.36345986202E-01 -0.21910650755E-01  0.47171183177E-01  0.63454621367E-01  0.51100000000E-03 0. -1.
         11    1    4    4    0    0  0.50965170301E-01 -0.16289296967E-01  0.38529320214E-01  0.65936025181E-01  0.51100000000E-03 0.  1.
</event>
<event>
 8    1  0.1191842E+005  0.1043930E+01  0.7957747E-01            NaN
         13   -1    0    0    0    0  0.00000000000E+00  0.00000000000E+00  0.74505805969E-08  0.10566000000E+00  0.10566000000E+00 0. -1.
     999900   -1    0    0    0    0 -0.00000000000E+00 -0.00000000000E+00 -0.74505805969E-08  0.93827000000E+00  0.93827000000E+00 0. -1.
     999902    2    1    2    0    0 -0.95465837831E-02 -0.17966374007E-01  0.11459520112E-01  0.10205794442E+01  0.10203122823E+01 0.  0.
     999903    2    3    3    0    0  0.42757710695E-01  0.11753061392E+00 -0.20186690429E-01  0.12811283100E+00  0.19071653450E-01 0.  0.
         14    1    1    2    0    0  0.95465837831E-02  0.17966374007E-01 -0.11459520112E-01  0.23350555841E-01  0.00000000000E+00 0.  1.
     999901    1    3    3    0    0 -0.52304294478E-01 -0.13549698792E+00  0.31646210541E-01  0.89246661316E+00  0.88000000000E+00 0.  1.
        -11    1    4    4    0    0  0.26702057319E-01  0.46012005961E-01 -0.76637380041E-02  0.53750335430E-01  0.51100000000E-03 0. -1.
         11    1    4    4    0    0  0.16055653376E-01  0.71518607956E-01 -0.12522952425E-01  0.74362495572E-01  0.51100000000E-03 0.  1.
</event>
<event>
 8    1  0.1284627E+005  0.1043930E+01  0.7957747E-01            NaN
         13   -1    0    0    0    0  0.00000000000E+00  0.00000000000E+00  0.74505805969E-08  0.10566000000E+00  0.10566000000E+00 0. -1.
     999900   -1    0    0    0    0 -0.00000000000E+00 -0.00000000000E+00 -0.74505805969E-08  0.93827000000E+00  0.93827000000E+00 0. -1.
     999902    2    1    2    0    0 -0.25297891788E-01  0.38244004816E-02  0.53840970385E-02  0.10177842954E+01  0.10174484135E+01 0.  0.
     999903    2    3    3    0    0  0.93301931398E-01 -0.79077129539E-01  0.21561470835E-01  0.12582000847E+00  0.20182534241E-01 0.  0.
         14    1    1    2    0    0  0.25297891788E-01 -0.38244004816E-02 -0.53840970385E-02  0.26145704597E-01  0.00000000000E+00 0.  1.
     999901    1    3    3    0    0 -0.11859982319E+00  0.82901530020E-01 -0.16177373796E-01  0.89196428693E+00  0.88000000000E+00 0. -1.
        -11    1    4    4    0    0  0.58095491696E-01 -0.37418709796E-01  0.16448998750E-01  0.71035742264E-01  0.51100000000E-03 0. -1.
         11    1    4    4    0    0  0.35206439703E-01 -0.41658419743E-01  0.51124720844E-02  0.54784266207E-01  0.51100000000E-03 0.  1.
</event>
<event>
 8    1  0.1191842E+005  0.1043930E+01  0.7957747E-01            NaN
         13   -1    0    0    0    0  0.00000000000E+00  0.00000000000E+00  0.74505805969E-08  0.10566000000E+00  0.10566000000E+00 0. -1.
     999900   -1    0    0    0    0 -0.00000000000E+00 -0.00000000000E+00 -0.74505805969E-08  0.93827000000E+00  0.93827000000E+00 0. -1.
     999902    2    1    2    0    0  0.16775830340E-01  0.82274450003E-03  0.15876951475E-01  0.10208176012E+01  0.10205559229E+01 0.  0.
     999903    2    3    3    0    0 -0.44612017479E-01  0.11167035333E+00 -0.44448767038E-01  0.12969760219E+00  0.19628428530E-01 0.  0.
         14    1    1    2    0    0 -0.16775830340E-01 -0.82274450003E-03 -0.15876951475E-01  0.23112398843E-01  0.00000000000E+00 0. -1.
     999901    1    3    3    0    0  0.61387847819E-01 -0.11084760883E+00  0.60325718514E-01  0.89111999897E+00  0.88000000000E+00 0. -1.
        -11    1    4    4    0    0 -0.13780227716E-01  0.58546497263E-01 -0.17678360899E-01  0.62692683646E-01  0.51100000000E-03 0.  1.
         11    1    4    4    0    0 -0.30831789762E-01  0.53123856067E-01 -0.26770406139E-01  0.67004918545E-01  0.51100000000E-03 0. -1.
</event>
<event>
 8    1  0.1191842E+005  0.1043930E+01  0.7957747E-01            NaN
         13   -1    0    0    0    0  0.00000000000E+00  0.00000000000E+00  0.74505805969E-08  0.10566000000E+00  0.10566000000E+00 0. -1.
     999900   -1    0    0    0    0 -0.00000000000E+00 -0.00000000000E+00 -0.74505805969E-08  0.93827000000E+00  0.93827000000E+00 0. -1.
     999902    2    1    2    0    0 -0.63848720199E-02 -0.20192362527E-01  0.11213223656E-01  0.10199668099E+01  0.10196852744E+01 0.  0.
     999903    2    3    3    0    0  0.88385611337E-01 -0.46926552491E-01 -0.80146188252E-01  0.12977430062E+00  0.20095770451E-01 0.  0.
         14    1    1    2    0    0  0.63848720199E-02  0.20192362527E-01 -0.11213223656E-01  0.23963190103E-01  0.00000000000E+00 0.  1.
     999901    1    3    3    0    0 -0.94770483357E-01  0.26734189963E-01  0.91359411908E-01  0.89019250928E+00  0.88000000000E+00 0.  1.
        -11    1    4    4    0    0  0.24469294629E-01 -0.34466502869E-02 -0.21128569393E-01  0.32516201245E-01  0.51100000000E-03 0. -1.
         11    1    4    4    0    0  0.63916316709E-01 -0.43479902204E-01 -0.59017618859E-01  0.97258099375E-01  0.51100000000E-03 0.  1.
</event>
<event>
 8    1  0.1191842E+005  0.1043930E+01  0.7957747E-01            NaN
         13   -1    0    0    0    0  0.00000000000E+00  0.00000000000E+00  0.74505805969E-08  0.10566000000E+00  0.10566000000E+00 0. -1.
     999900   -1    0    0    0    0 -0.00000000000E+00 -0.00000000000E+00 -0.74505805969E-08  0.93827000000E+00  0.93827000000E+00 0. -1.
     999902    2    1    2    0    0  0.23203171749E-01 -0.35428899011E-02 -0.26190372239E-02  0.10203122396E+01  0.10200388560E+01 0.  0.
     999903    2    3    3    0    0 -0.82838266302E-01  0.93470984313E-01  0.21674320026E-01  0.12832196751E+00  0.19943618672E-01 0.  0.
         14    1    1    2    0    0 -0.23203171749E-01  0.35428899011E-02  0.26190372239E-02  0.23617760352E-01  0.00000000000E+00 0. -1.
     999901    1    3    3    0    0  0.10604143805E+00 -0.97013874215E-01 -0.24293357250E-01  0.89199027213E+00  0.88000000000E+00 0.  1.
        -11    1    4    4    0    0 -0.66783711118E-01  0.62228633415E-01  0.17486377942E-01  0.92943538893E-01  0.51100000000E-03 0.  1.
         11    1    4    4    0    0 -0.16054555183E-01  0.31242350899E-01  0.41879420841E-02  0.35378428621E-01  0.51100000000E-03 0. -1.
</event>
<event>
 8    1  0.1191842E+005  0.1043930E+01  0.7957747E-01            NaN
         13   -1    0    0    0    0  0.00000000000E+00  0.00000000000E+00  0.74505805969E-08  0.10566000000E+00  0.10566000000E+00 0.  1.
     999900   -1    0    0    0    0 -0.00000000000E+00 -0.00000000000E+00 -0.74505805969E-08  0.93827000000E+00  0.93827000000E+00 0.  1.
     999902    2    1    2    0    0  0.10309033359E-01 -0.19357756780E-01 -0.98474910642E-02  0.10198889518E+01  0.10196055620E+01 0.  0.
     999903    2    3    3    0    0 -0.82582726011E-01  0.23408751170E-01  0.92832305125E-01  0.12803638908E+00  0.20189199747E-01 0.  0.
         14    1    1    2    0    0 -0.10309033359E-01  0.19357756780E-01  0.98474910642E-02  0.24041048159E-01  0.00000000000E+00 0.  1.
     999901    1    3    3    0    0  0.92891759370E-01 -0.42766507950E-01 -0.10267979619E+00  0.89185256276E+00  0.88000000000E+00 0.  1.
        -11    1    4    4    0    0 -0.44115154132E-01  0.18889149191E-01  0.39704835871E-01  0.62287092513E-01  0.51100000000E-03 0.  1.
         11    1    4    4    0    0 -0.38467571879E-01  0.45196019787E-02  0.53127469254E-01  0.65749296564E-01  0.51100000000E-03 0. -1.
</event>
<event>
 8    1  0.1191842E+005  0.1043930E+01  0.7957747E-01            NaN
         13   -1    0    0    0    0  0.00000000000E+00  0.00000000000E+00  0.74505805969E-08  0.10566000000E+00  0.10566000000E+00 0.  1.
     999900   -1    0    0    0    0 -0.00000000000E+00 -0.00000000000E+00 -0.74505805969E-08  0.93827000000E+00  0.93827000000E+00 0.  1.
     999902    2    1    2    0    0 -0.79660116298E-02 -0.20948433539E-01 -0.68751983946E-02  0.10204872493E+01  0.10202179489E+01 0.  0.
     999903    2    3    3    0    0 -0.93866317586E-01  0.87062345479E-01 -0.68415502617E-02  0.12973184396E+00  0.19819357963E-01 0.  0.
         14    1    1    2    0    0  0.79660116298E-02  0.20948433539E-01  0.68751983946E-02  0.23442750734E-01  0.00000000000E+00 0. -1.
     999901    1    3    3    0    0  0.85900305956E-01 -0.10801077902E+00 -0.33648132964E-04  0.89075540530E+00  0.88000000000E+00 0. -1.
        -11    1    4    4    0    0 -0.69727629451E-01  0.75281391464E-01 -0.36533415533E-02  0.10267832408E+00  0.51100000000E-03 0.  1.
         11    1    4    4    0    0 -0.24138688135E-01  0.11780954015E-01 -0.31882087083E-02  0.27053519885E-01  0.51100000000E-03 0. -1.
</event>
<event>
 8    1  0.1191842E+005  0.1043930E+01  0.7957747E-01            NaN
         13   -1    0    0    0    0  0.00000000000E+00  0.00000000000E+00  0.74505805969E-08  0.10566000000E+00  0.10566000000E+00 0. -1.
     999900   -1    0    0    0    0 -0.00000000000E+00 -0.00000000000E+00 -0.74505805969E-08  0.93827000000E+00  0.93827000000E+00 0. -1.
     999902    2    1    2    0    0  0.11889689696E-01 -0.15542512702E-01  0.15906107801E-01  0.10187121752E+01  0.10183999986E+01 0.  0.
     999903    2    3    3    0    0 -0.79802463193E-01 -0.66995240703E-01 -0.71774958070E-01  0.12812652327E+00  0.20198166999E-01 0.  0.
         14    1    1    2    0    0 -0.11889689696E-01  0.15542512702E-01 -0.15906107801E-01  0.25217824798E-01  0.00000000000E+00 0.  1.
     999901    1    3    3    0    0  0.91692152889E-01  0.51452728000E-01  0.87681065871E-01  0.89058565193E+00  0.88000000000E+00 0.  1.
        -11    1    4    4    0    0 -0.42119109752E-01 -0.28221477336E-01 -0.44987782159E-01  0.67783721157E-01  0.51100000000E-03 0. -1.
         11    1    4    4    0    0 -0.37683353441E-01 -0.38773763367E-01 -0.26787175910E-01  0.60342802109E-01  0.51100000000E-03 0.  1.
</event>
<event>
 8    1  0.1191842E+005  0.1043930E+01  0.7957747E-01            NaN
         13   -1    0    0    0    0  0.00000000000E+00  0.00000000000E+00  0.74505805969E-08  0.10566000000E+00  0.10566000000E+00 0.  1.
     999900   -1    0    0    0    0 -0.00000000000E+00 -0.00000000000E+00 -0.74505805969E-08  0.93827000000E+00  0.93827000000E+00 0. -1.
     999902    2    1    2    0    0 -0.11125526464E-01 -0.13529696178E-01 -0.16438556229E-01  0.10199080070E+01  0.10196250716E+01 0.  0.
     999903    2    3    3    0    0  0.52491653077E-01 -0.22472282459E-01  0.11296695958E+00  0.12812725876E+00  0.19866639326E-01 0.  0.
         14    1    1    2    0    0  0.11125526464E-01  0.13529696178E-01  0.16438556229E-01  0.24021993021E-01  0.00000000000E+00 0.  1.
     999901    1    3    3    0    0 -0.63617179541E-01  0.89425862812E-02 -0.12940551581E+00  0.89178074822E+00  0.88000000000E+00 0. -1.
        -11    1    4    4    0    0  0.63540100463E-02 -0.62515461503E-02  0.34743441531E-01  0.35872316950E-01  0.51100000000E-03 0.  1.
         11    1    4    4    0    0  0.46137643030E-01 -0.16220736309E-01  0.78223518047E-01  0.92254941805E-01  0.51100000000E-03 0. -1.
</event>
<event>
 8    1  0.1191842E+005  0.1043930E+01  0.7957747E-01            NaN
         13   -1    0    0    0    0  0.00000000000E+00  0.00000000000E+00  0.74505805969E-08  0.10566000000E+00  0.10566000000E+00 0. -1.
     999900   -1    0    0    0    0 -0.00000000000E+00 -0.00000000000E+00 -0.74505805969E-08  0.93827000000E+00  0.93827000000E+00 0. -1.
     999902    2    1    2    0    0  0.16228583756E-03 -0.12632320181E-01  0.18489630097E-01  0.10215365128E+01  0.10212910352E+01 0.  0.
     999903    2    3    3    0    0  0.10356851377E-01 -0.10839734689E+00  0.76099626232E-01  0.13440981314E+00  0.20435155341E-01 0.  0.
         14    1    1    2    0    0 -0.16228583756E-03  0.12632320181E-01 -0.18489630097E-01  0.22393487245E-01  0.00000000000E+00 0.  1.
     999901    1    3    3    0    0 -0.10194565539E-01  0.95765026709E-01 -0.57609996135E-01  0.88712669961E+00  0.88000000000E+00 0.  1.
        -11    1    4    4    0    0  0.10780157812E-01 -0.10696500168E+00  0.70428268891E-01  0.12852286009E+00  0.51100000000E-03 0. -1.
         11    1    4    4    0    0 -0.42330643526E-03 -0.14323452110E-02  0.56713573411E-02  0.58869530516E-02  0.51100000000E-03 0.  1.
</event>
<event>
 8    1  0.1191842E+005  0.1043930E+01  0.7957747E-01            NaN
         13   -1    0    0    0    0  0.00000000000E+00  0.00000000000E+00  0.74505805969E-08  0.10566000000E+00  0.10566000000E+00 0.  1.
     999900   -1    0    0    0    0 -0.00000000000E+00 -0.00000000000E+00 -0.74505805969E-08  0.93827000000E+00  0.93827000000E+00 0. -1.
     999902    2    1    2    0    0  0.12604658341E-01  0.19976000862E-01 -0.33970030482E-02  0.10200666882E+01  0.10197875223E+01 0.  0.
     999903    2    3    3    0    0  0.12715310758E+00  0.25974226817E-01 -0.17651949643E-01  0.13250794112E+00  0.20104474868E-01 0.  0.
         14    1    1    2    0    0 -0.12604658341E-01 -0.19976000862E-01  0.33970030482E-02  0.23863311841E-01  0.00000000000E+00 0. -1.
     999901    1    3    3    0    0 -0.11454844924E+00 -0.59982259548E-02  0.14254946595E-01  0.88755874704E+00  0.88000000000E+00 0. -1.
        -11    1    4    4    0    0  0.11246966366E+00  0.27840327087E-01 -0.11375047578E-01  0.11642234272E+00  0.51100000000E-03 0. -1.
         11    1    4    4    0    0  0.14683443914E-01 -0.18661002705E-02 -0.62769020652E-02  0.16085598401E-01  0.51100000000E-03 0.  1.
</event>
<event>
 8    1  0.1191842E+005  0.1043930E+01  0.7957747E-01            NaN
         13   -1    0    0    0    0  0.00000000000E+00  0.00000000000E+00  0.74505805969E-08  0.10566000000E+00  0.10566000000E+00 0. -1.
     999900   -1    0    0    0    0 -0.00000000000E+00 -0.00000000000E+00 -0.74505805969E-08  0.93827000000E+00  0.93827000000E+00 0.  1.
     999902    2    1    2    0    0  0.94046654797E-03  0.18685945045E-01  0.71055514748E-02  0.10239165575E+01  0.10237209477E+01 0.  0.
     999903    2    3    3    0    0 -0.27098749508E-01 -0.37686799681E-01  0.12457395643E+00  0.13388121541E+00  0.15838943283E-01 0.  0.
         14    1    1    2    0    0 -0.94046654797E-03 -0.18685945045E-01 -0.71055514748E-02  0.20013442515E-01  0.00000000000E+00 0.  1.
     999901    1    3    3    0    0  0.28039216056E-01  0.56372744726E-01 -0.11746840495E+00  0.89003534208E+00  0.88000000000E+00 0.  1.
        -11    1    4    4    0    0 -0.30493418839E-03 -0.82471299816E-02  0.33149062988E-01  0.34164742584E-01  0.51100000000E-03 0. -1.
         11    1    4    4    0    0 -0.26793815320E-01 -0.29439669700E-01  0.91424893437E-01  0.99716472824E-01  0.51100000000E-03 0.  1.
</event>
<event>
 8    1  0.1191842E+005  0.1043930E+01  0.7957747E-01            NaN
         13   -1    0    0    0    0  0.00000000000E+00  0.00000000000E+00  0.74505805969E-08  0.10566000000E+00  0.10566000000E+00 0.  1.
     999900   -1    0    0    0    0 -0.00000000000E+00 -0.00000000000E+00 -0.74505805969E-08  0.93827000000E+00  0.93827000000E+00 0. -1.
     999902    2    1    2    0    0 -0.18257589606E-01 -0.59043965303E-02  0.14675394240E-01  0.10197728339E+01  0.10194866670E+01 0.  0.
     999903    2    3    3    0    0  0.12327912430E+00  0.24381118591E-01  0.12041287282E-01  0.12794505216E+00  0.20802940662E-01 0.  0.
         14    1    1    2    0    0  0.18257589606E-01  0.59043965303E-02 -0.14675394240E-01  0.24157166074E-01  0.00000000000E+00 0. -1.
     999901    1    3    3    0    0 -0.14153671391E+00 -0.30285515121E-01  0.26341069587E-02  0.89182778177E+00  0.88000000000E+00 0.  1.
        -11    1    4    4    0    0  0.71343478632E-01  0.21620706432E-01  0.14196064539E-01  0.75888973239E-01  0.51100000000E-03 0. -1.
         11    1    4    4    0    0  0.51935645671E-01  0.27604121584E-02 -0.21547772575E-02  0.52056078920E-01  0.51100000000E-03 0.  1.
</event>
<event>
 8    1  0.1191842E+005  0.1043930E+01  0.7957747E-01            NaN
         13   -1    0    0    0    0  0.00000000000E+00  0.00000000000E+00  0.74505805969E-08  0.10566000000E+00  0.10566000000E+00 0.  1.
     999900   -1    0    0    0    0 -0.00000000000E+00 -0.00000000000E+00 -0.74505805969E-08  0.93827000000E+00  0.93827000000E+00 0. -1.
     999902    2    1    2    0    0  0.75249130016E-02  0.22596548397E-01 -0.13533573618E-02  0.10200750238E+01  0.10197960552E+01 0.  0.
     999903    2    3    3    0    0 -0.68856807018E-01 -0.28643983166E-01  0.10343424306E+00  0.12909791944E+00  0.20146774461E-01 0.  0.
         14    1    1    2    0    0 -0.75249130016E-02 -0.22596548397E-01  0.13533573618E-02  0.23854976237E-01  0.00000000000E+00 0.  1.
     999901    1    3    3    0    0  0.76381720020E-01  0.51240531563E-01 -0.10478760042E+00  0.89097710432E+00  0.88000000000E+00 0. -1.
        -11    1    4    4    0    0 -0.11046550035E-01 -0.12100290297E-01  0.29981878561E-01  0.34170417849E-01  0.51100000000E-03 0.  1.
         11    1    4    4    0    0 -0.57810256983E-01 -0.16543692869E-01  0.73452364501E-01  0.94927501589E-01  0.51100000000E-03 0. -1.
</event>
<event>
 8    1  0.1191842E+005  0.1043930E+01  0.7957747E-01            NaN
         13   -1    0    0    0    0  0.00000000000E+00  0.00000000000E+00  0.74505805969E-08  0.10566000000E+00  0.10566000000E+00 0.  1.
     999900   -1    0    0    0    0 -0.00000000000E+00 -0.00000000000E+00 -0.74505805969E-08  0.93827000000E+00  0.93827000000E+00 0.  1.
     999902    2    1    2    0    0 -0.10785225669E-01 -0.56093749384E-02  0.22903779363E-01  0.10179999154E+01  0.10176696214E+01 0.  0.
     999903    2    3    3    0    0 -0.80319184677E-01 -0.59932696169E-01 -0.76992966894E-01  0.12796320006E+00  0.20088905419E-01 0.  0.
         14    1    1    2    0    0  0.10785225669E-01  0.56093749384E-02 -0.22903779363E-01  0.25930084632E-01  0.00000000000E+00 0. -1.
     999901    1    3    3    0    0  0.69533959008E-01  0.54323321231E-01  0.99896746257E-01  0.89003671531E+00  0.88000000000E+00 0. -1.
        -11    1    4    4    0    0 -0.54409647230E-01 -0.41301004550E-01 -0.40226185217E-01  0.79275404677E-01  0.51100000000E-03 0.  1.
         11    1    4    4    0    0 -0.25909537446E-01 -0.18631691620E-01 -0.36766781677E-01  0.48687795382E-01  0.51100000000E-03 0. -1.
</event>
<event>
 8    1  0.1191842E+005  0.1043930E+01  0.7957747E-01            NaN
         13   -1    0    0    0    0  0.00000000000E+00  0.00000000000E+00  0.74505805969E-08  0.10566000000E+00  0.10566000000E+00 0.  1.
     999900   -1    0    0    0    0 -0.00000000000E+00 -0.00000000000E+00 -0.74505805969E-08  0.93827000000E+00  0.93827000000E+00 0.  1.
     999902    2    1    2    0    0  0.15470185872E-01 -0.98479714490E-02 -0.15253660512E-01  0.10200766281E+01  0.10197976975E+01 0.  0.
     999903    2    3    3    0    0 -0.26588543410E-01  0.12081942520E+00  0.28319092189E-01  0.12836956294E+00  0.19299988647E-01 0.  0.
         14    1    1    2    0    0 -0.15470185872E-01  0.98479714490E-02  0.15253660512E-01  0.23853371912E-01  0.00000000000E+00 0.  1.
     999901    1    3    3    0    0  0.42058729281E-01 -0.13066739665E+00 -0.43572752702E-01  0.89170706515E+00  0.88000000000E+00 0.  1.
        -11    1    4    4    0    0 -0.13883593309E-01  0.71176934735E-01  0.69667423322E-02  0.72854010330E-01  0.51100000000E-03 0.  1.
         11    1    4    4    0    0 -0.12704950101E-01  0.49642490462E-01  0.21352349857E-01  0.55515552611E-01  0.51100000000E-03 0. -1.
</event>
<event>
 8    1  0.1191842E+005  0.1043930E+01  0.7957747E-01            NaN
         13   -1    0    0    0    0  0.00000000000E+00  0.00000000000E+00  0.74505805969E-08  0.10566000000E+00  0.10566000000E+00 0. -1.
     999900   -1    0    0    0    0 -0.00000000000E+00 -0.00000000000E+00 -0.74505805969E-08  0.93827000000E+00  0.93827000000E+00 0. -1.
     999902    2    1    2    0    0  0.94520721393E-02 -0.15840080170E-01  0.16942225290E-01  0.10188842657E+01  0.10185763880E+01 0.  0.
     999903    2    3    3    0    0 -0.70401706052E-01 -0.99911314786E-01  0.42969674408E-01  0.13089663829E+00  0.18677953808E-01 0.  0.
         14    1    1    2    0    0 -0.94520721393E-02  0.15840080170E-01 -0.16942225290E-01  0.25045734274E-01  0.00000000000E+00 0.  1.
     999901    1    3    3    0    0  0.79853778191E-01  0.84071234615E-01 -0.26027449118E-01  0.88798762744E+00  0.88000000000E+00 0.  1.
        -11    1    4    4    0    0 -0.53461892291E-01 -0.81861740435E-01  0.41119002737E-01  0.10606861921E+00  0.51100000000E-03 0. -1.
         11    1    4    4    0    0 -0.16939813761E-01 -0.18049574351E-01  0.18506716716E-02  0.24828019074E-01  0.51100000000E-03 0.  1.
</event>
<event>
 8    1  0.1191842E+005  0.1043930E+01  0.7957747E-01            NaN
         13   -1    0    0    0    0  0.00000000000E+00  0.00000000000E+00  0.74505805969E-08  0.10566000000E+00  0.10566000000E+00 0. -1.
     999900   -1    0    0    0    0 -0.00000000000E+00 -0.00000000000E+00 -0.74505805969E-08  0.93827000000E+00  0.93827000000E+00 0.  1.
     999902    2    1    2    0    0 -0.18922518238E-01 -0.15693234645E-01  0.32648247842E-02  0.10191308389E+01  0.10188290673E+01 0.  0.
     999903    2    3    3    0    0  0.12316693958E+00  0.26112684864E-02  0.20745541163E-01  0.12737412079E+00  0.24836977306E-01 0.  0.
         14    1    1    2    0    0  0.18922518238E-01  0.15693234645E-01 -0.32648247842E-02  0.24799161094E-01  0.00000000000E+00 0. -1.
     999901    1    3    3    0    0 -0.14208945781E+00 -0.18304503131E-01 -0.17480716378E-01  0.89175671811E+00  0.88000000000E+00 0.  1.
        -11    1    4    4    0    0  0.73996949354E-01 -0.60716976541E-02  0.27543643682E-02  0.74298463444E-01  0.51100000000E-03 0.  1.
         11    1    4    4    0    0  0.49169990222E-01  0.86829661405E-02  0.17991176794E-01  0.53075657348E-01  0.51100000000E-03 0. -1.
</event>
<event>
 8    1  0.1191842E+005  0.1043930E+01  0.7957747E-01            NaN
         13   -1    0    0    0    0  0.00000000000E+00  0.00000000000E+00  0.74505805969E-08  0.10566000000E+00  0.10566000000E+00 0. -1.
     999900   -1    0    0    0    0 -0.00000000000E+00 -0.00000000000E+00 -0.74505805969E-08  0.93827000000E+00  0.93827000000E+00 0.  1.
     999902    2    1    2    0    0 -0.49952833772E-02 -0.11798865153E-01  0.19578326905E-01  0.10205317744E+01  0.10202635080E+01 0.  0.
     999903    2    3    3    0    0  0.11161208188E+00  0.49080127055E-01  0.42457797947E-01  0.13046042926E+00  0.18738818018E-01 0.  0.
         14    1    1    2    0    0  0.49952833772E-02  0.11798865153E-01 -0.19578326905E-01  0.23398225559E-01  0.00000000000E+00 0.  1.
     999901    1    3    3    0    0 -0.11660736526E+00 -0.60878992208E-01 -0.22879471042E-01  0.89007134519E+00  0.88000000000E+00 0.  1.
        -11    1    4    4    0    0  0.55154311597E-01  0.31509761633E-01  0.15022028608E-01  0.65274693645E-01  0.51100000000E-03 0.  1.
         11    1    4    4    0    0  0.56457770287E-01  0.17570365422E-01  0.27435769340E-01  0.65185735611E-01  0.51100000000E-03 0. -1.
</event>
<event>
 8    1  0.1191842E+005  0.1043930E+01  0.7957747E-01            NaN
         13   -1    0    0    0    0  0.00000000000E+00  0.00000000000E+00  0.74505805969E-08  0.10566000000E+00  0.10566000000E+00 0. -1.
     999900   -1    0    0    0    0 -0.00000000000E+00 -0.00000000000E+00 -0.74505805969E-08  0.93827000000E+00  0.93827000000E+00 0. -1.
     999902    2    1    2    0    0  0.27697998831E-02  0.19682895936E-01 -0.16315893810E-01  0.10182143127E+01  0.10178895274E+01 0.  0.
     999903    2    3    3    0    0  0.19525504651E-01  0.99398822679E-01 -0.82280932193E-01  0.13199381590E+00  0.19769783778E-01 0.  0.
         14    1    1    2    0    0 -0.27697998831E-02 -0.19682895936E-01  0.16315893810E-01  0.25715687326E-01  0.00000000000E+00 0. -1.
     999901    1    3    3    0    0 -0.16755704768E-01 -0.79715926743E-01  0.65965038383E-01  0.88622049678E+00  0.88000000000E+00 0.  1.
        -11    1    4    4    0    0  0.22208311867E-01  0.67405391014E-01 -0.59659106458E-01  0.92715510882E-01  0.51100000000E-03 0.  1.
         11    1    4    4    0    0 -0.26828072161E-02  0.31993431666E-01 -0.22621825735E-01  0.39278305015E-01  0.51100000000E-03 0. -1.
</event>
<event>
 8    1  0.1191842E+005  0.1043930E+01  0.7957747E-01            NaN
         13   -1    0    0    0    0  0.00000000000E+00  0.00000000000E+00  0.74505805969E-08  0.10566000000E+00  0.10566000000E+00 0. -1.
     999900   -1    0    0    0    0 -0.00000000000E+00 -0.00000000000E+00 -0.74505805969E-08  0.93827000000E+00  0.93827000000E+00 0. -1.
     999902    2    1    2    0    0 -0.14164153662E-01 -0.97541697807E-02 -0.16379655777E-01  0.10201800484E+01  0.10199035596E+01 0.  0.
     999903    2    3    3    0    0 -0.81081123505E-02  0.67799490895E-01  0.10643721402E+00  0.12825223215E+00  0.21383219355E-01 0.  0.
         14    1    1    2    0    0  0.14164153662E-01  0.97541697807E-02  0.16379655777E-01  0.23749951588E-01  0.00000000000E+00 0. -1.
     999901    1    3    3    0    0 -0.60560413114E-02 -0.77553660676E-01 -0.12281686980E+00  0.89192781627E+00  0.88000000000E+00 0. -1.
        -11    1    4    4    0    0 -0.68355849926E-02  0.24588481328E-01  0.57754787377E-01  0.63144241401E-01  0.51100000000E-03 0.  1.
         11    1    4    4    0    0 -0.12725273579E-02  0.43211009567E-01  0.48682426647E-01  0.65107990745E-01  0.51100000000E-03 0. -1.
</event>
<event>
 8    1  0.1191842E+005  0.1043930E+01  0.7957747E-01            NaN
         13   -1    0    0    0    0  0.00000000000E+00  0.00000000000E+00  0.74505805969E-08  0.10566000000E+00  0.10566000000E+00 0. -1.
     999900   -1    0    0    0    0 -0.00000000000E+00 -0.00000000000E+00 -0.74505805969E-08  0.93827000000E+00  0.93827000000E+00 0.  1.
     999902    2    1    2    0    0 -0.21135574949E-01  0.11929992099E-02 -0.66929336679E-02  0.10217279475E+01  0.10214866947E+01 0.  0.
     999903    2    3    3    0    0  0.56165892916E-01 -0.11106357150E+00 -0.34892230195E-01  0.13078897373E+00  0.19964054689E-01 0.  0.
         14    1    1    2    0    0  0.21135574949E-01 -0.11929992099E-02  0.66929336679E-02  0.22202052532E-01  0.00000000000E+00 0. -1.
     999901    1    3    3    0    0 -0.77301467865E-01  0.11225657071E+00  0.28199296528E-01  0.89093897374E+00  0.88000000000E+00 0. -1.
        -11    1    4    4    0    0  0.25204401204E-01 -0.65281291055E-01 -0.12172891458E-01  0.71030621631E-01  0.51100000000E-03 0. -1.
         11    1    4    4    0    0  0.30961491712E-01 -0.45782280446E-01 -0.22719338737E-01  0.59758352098E-01  0.51100000000E-03 0.  1.
</event>
<event>
 8    1  0.1191842E+005  0.1043930E+01  0.7957747E-01            NaN
         13   -1    0    0    0    0  0.00000000000E+00  0.00000000000E+00  0.74505805969E-08  0.10566000000E+00  0.10566000000E+00 0. -1.
     999900   -1    0    0    0    0 -0.00000000000E+00 -0.00000000000E+00 -0.74505805969E-08  0.93827000000E+00  0.93827000000E+00 0.  1.
     999902    2    1    2    0    0 -0.18803974865E-01  0.15558208070E-02 -0.12630645092E-01  0.10212244226E+01  0.10209719771E+01 0.  0.
     999903    2    3    3    0    0 -0.42229858048E-01 -0.11221167758E+00  0.49923837647E-01  0.13139023637E+00  0.19904350065E-01 0.  0.
         14    1    1    2    0    0  0.18803974865E-01 -0.15558208070E-02  0.12630645092E-01  0.22705577389E-01  0.00000000000E+00 0. -1.
     999901    1    3    3    0    0  0.23425883183E-01  0.11376749839E+00 -0.62554482739E-01  0.88983418624E+00  0.88000000000E+00 0.  1.
        -11    1    4    4    0    0 -0.24513796587E-01 -0.39348870471E-01  0.22619984181E-01  0.51586671107E-01  0.51100000000E-03 0.  1.
         11    1    4    4    0    0 -0.17716061461E-01 -0.72862807111E-01  0.27303853465E-01  0.79803565263E-01  0.51100000000E-03 0. -1.
</event>
<event>
 8    1  0.1191842E+005  0.1043930E+01  0.7957747E-01            NaN
         13   -1    0    0    0    0  0.00000000000E+00  0.00000000000E+00  0.74505805969E-08  0.10566000000E+00  0.10566000000E+00 0.  1.
     999900   -1    0    0    0    0 -0.00000000000E+00 -0.00000000000E+00 -0.74505805969E-08  0.93827000000E+00  0.93827000000E+00 0.  1.
     999902    2    1    2    0    0 -0.20623222930E-01  0.38761555962E-02 -0.75181209658E-02  0.10216395525E+01  0.10213963536E+01 0.  0.
     999903    2    3    3    0    0  0.12651753234E+00 -0.21267206235E-02  0.16347380178E-01  0.12908367273E+00  0.19599714213E-01 0.  0.
         14    1    1    2    0    0  0.20623222930E-01 -0.38761555962E-02  0.75181209658E-02  0.22290447485E-01  0.00000000000E+00 0.  1.
     999901    1    3    3    0    0 -0.14714075527E+00  0.60028762196E-02 -0.23865501144E-01  0.89255587978E+00  0.88000000000E+00 0. -1.
        -11    1    4    4    0    0  0.22387590161E-01  0.43547947045E-02  0.88929917125E-02  0.24484992398E-01  0.51100000000E-03 0. -1.
         11    1    4    4    0    0  0.10412994218E+00 -0.64815153280E-02  0.74543884653E-02  0.10459868034E+00  0.51100000000E-03 0.  1.
</event>
<event>
 8    1  0.1191842E+005  0.1043930E+01  0.7957747E-01            NaN
         13   -1    0    0    0    0  0.00000000000E+00  0.00000000000E+00  0.74505805969E-08  0.10566000000E+00  0.10566000000E+00 0. -1.
     999900   -1    0    0    0    0 -0.00000000000E+00 -0.00000000000E+00 -0.74505805969E-08  0.93827000000E+00  0.93827000000E+00 0. -1.
     999902    2    1    2    0    0  0.30703497082E-02 -0.13493561214E-01  0.18023592061E-01  0.10212065955E+01  0.10209537490E+01 0.  0.
     999903    2    3    3    0    0  0.10796876701E+00  0.10040502868E-01 -0.69584389777E-01  0.13034595061E+00  0.19748751649E-01 0.  0.
         14    1    1    2    0    0 -0.30703497082E-02  0.13493561214E-01 -0.18023592061E-01  0.22723404506E-01  0.00000000000E+00 0.  1.
     999901    1    3    3    0    0 -0.10489841730E+00 -0.23534064082E-01  0.87607981838E-01  0.89086064489E+00  0.88000000000E+00 0.  1.
        -11    1    4    4    0    0  0.63589690391E-01  0.13749035593E-01 -0.34449324085E-01  0.73618623695E-01  0.51100000000E-03 0. -1.
         11    1    4    4    0    0  0.44379076619E-01 -0.37085327254E-02 -0.35135065692E-01  0.56727326913E-01  0.51100000000E-03 0.  1.
</event>
<event>
 8    1  0.1191842E+005  0.1043930E+01  0.7957747E-01            NaN
         13   -1    0    0    0    0  0.00000000000E+00  0.00000000000E+00  0.74505805969E-08  0.10566000000E+00  0.10566000000E+00 0.  1.
     999900   -1    0    0    0    0 -0.00000000000E+00 -0.00000000000E+00 -0.74505805969E-08  0.93827000000E+00  0.93827000000E+00 0. -1.
     999902    2    1    2    0    0 -0.21548421701E-01 -0.38236885708E-02  0.11000136057E-01  0.10194359586E+01  0.10191416563E+01 0.  0.
     999903    2    3    3    0    0  0.87366996887E-01  0.84100658746E-01 -0.32978574220E-01  0.12728833278E+00  0.20219306544E-01 0.  0.
         14    1    1    2    0    0  0.21548421701E-01  0.38236885708E-02 -0.11000136057E-01  0.24494041426E-01  0.00000000000E+00 0. -1.
     999901    1    3    3    0    0 -0.10891541859E+00 -0.87924347317E-01  0.43978710277E-01  0.89214762580E+00  0.88000000000E+00 0. -1.
        -11    1    4    4    0    0  0.48183669911E-01  0.45990819268E-01 -0.76702464091E-02  0.67051586886E-01  0.51100000000E-03 0.  1.
         11    1    4    4    0    0  0.39183326976E-01  0.38109839479E-01 -0.25308327811E-01  0.60236745891E-01  0.51100000000E-03 0. -1.
</event>
<event>
 8    1  0.1191842E+005  0.1043930E+01  0.7957747E-01            NaN
         13   -1    0    0    0    0  0.00000000000E+00  0.00000000000E+00  0.74505805969E-08  0.10566000000E+00  0.10566000000E+00 0.  1.
     999900   -1    0    0    0    0 -0.00000000000E+00 -0.00000000000E+00 -0.74505805969E-08  0.93827000000E+00  0.93827000000E+00 0.  1.
     999902    2    1    2    0    0  0.38496547204E-02  0.22575684110E-01  0.14923780599E-02  0.10209798683E+01  0.10207218930E+01 0.  0.
     999903    2    3    3    0    0  0.50438967050E-02 -0.10205877383E+00  0.76241857551E-01  0.12905909880E+00  0.20049836177E-01 0.  0.
         14    1    1    2    0    0 -0.38496547204E-02 -0.22575684110E-01 -0.14923780599E-02  0.22950131737E-01  0.00000000000E+00 0. -1.
     999901    1    3    3    0    0 -0.11942419846E-02  0.12463445794E+00 -0.74749479491E-01  0.89192076947E+00  0.88000000000E+00 0. -1.
        -11    1    4    4    0    0 -0.72352913533E-02 -0.47138126522E-01  0.31419350217E-01  0.57112074923E-01  0.51100000000E-03 0.  1.
         11    1    4    4    0    0  0.12279188058E-01 -0.54920647304E-01  0.44822507333E-01  0.71947023874E-01  0.51100000000E-03 0. -1.
</event>
<event>
 8    1  0.1211476E+005  0.1043930E+01  0.7957747E-01            NaN
         13   -1    0    0    0    0  0.00000000000E+00  0.00000000000E+00  0.74505805969E-08  0.10566000000E+00  0.10566000000E+00 0. -1.
     999900   -1    0    0    0    0 -0.00000000000E+00 -0.00000000000E+00 -0.74505805969E-08  0.93827000000E+00  0.93827000000E+00 0.  1.
     999902    2    1    2    0    0 -0.14734169314E-02  0.14444828672E-01 -0.18705732562E-01  0.10202502943E+01  0.10199754578E+01 0.  0.
     999903    2    3    3    0    0  0.76076640128E-01 -0.60518703439E-01 -0.85875663062E-01  0.13112412659E+00  0.19202563037E-01 0.  0.
         14    1    1    2    0    0  0.14734169314E-02 -0.14444828672E-01  0.18705732562E-01  0.23679705731E-01  0.00000000000E+00 0. -1.
     999901    1    3    3    0    0 -0.77550057060E-01  0.74963532112E-01  0.67169930500E-01  0.88912616768E+00  0.88000000000E+00 0.  1.
        -11    1    4    4    0    0  0.48523841985E-01 -0.26489161589E-01 -0.49101347209E-01  0.73942155374E-01  0.51100000000E-03 0.  1.
         11    1    4    4    0    0  0.27552798143E-01 -0.34029541851E-01 -0.36774315853E-01  0.57181971211E-01  0.51100000000E-03 0. -1.
</event>
<event>
 8    1  0.1191842E+005  0.1043930E+01  0.7957747E-01            NaN
         13   -1    0    0    0    0  0.00000000000E+00  0.00000000000E+00  0.74505805969E-08  0.10566000000E+00  0.10566000000E+00 0. -1.
     999900   -1    0    0    0    0 -0.00000000000E+00 -0.00000000000E+00 -0.74505805969E-08  0.93827000000E+00  0.93827000000E+00 0. -1.
     999902    2    1    2    0    0  0.13653011379E-01  0.64095975421E-02  0.18082686807E-01  0.10203827874E+01  0.10201110535E+01 0.  0.
     999903    2    3    3    0    0 -0.99557463494E-01  0.34493473452E-01 -0.70389472881E-01  0.12828826393E+00  0.20042767344E-01 0.  0.
         14    1    1    2    0    0 -0.13653011379E-01 -0.64095975421E-02 -0.18082686807E-01  0.23547212628E-01  0.00000000000E+00 0.  1.
     999901    1    3    3    0    0  0.11321047487E+00 -0.28083875910E-01  0.88472159688E-01  0.89209452344E+00  0.88000000000E+00 0.  1.
        -11    1    4    4    0    0 -0.86113094719E-01  0.22038782837E-01 -0.57216426684E-01  0.10571259922E+00  0.51100000000E-03 0.  1.
         11    1    4    4    0    0 -0.13444368775E-01  0.12454690615E-01 -0.13173046196E-01  0.22575664711E-01  0.51100000000E-03 0. -1.
</event>
<event>
 8    1  0.1191842E+005  0.1043930E+01  0.7957747E-01            NaN
         13   -1    0    0    0    0  0.00000000000E+00  0.00000000000E+00  0.74505805969E-08  0.10566000000E+00  0.10566000000E+00 0.  1.
     999900   -1    0    0    0    0 -0.00000000000E+00 -0.00000000000E+00 -0.74505805969E-08  0.93827000000E+00  0.93827000000E+00 0. -1.
     999902    2    1    2    0    0 -0.13283381464E-01 -0.10239822495E-02 -0.18898566161E-01  0.10208074447E+01  0.10205455338E+01 0.  0.
     999903    2    3    3    0    0  0.18001316709E-01 -0.12634728198E+00  0.19609573534E-01  0.13054482126E+00  0.19228414311E-01 0.  0.
         14    1    1    2    0    0  0.13283381464E-01  0.10239822495E-02  0.18898566161E-01  0.23122555345E-01  0.00000000000E+00 0.  1.
     999901    1    3    3    0    0 -0.31284698173E-01  0.12532329973E+00 -0.38508139695E-01  0.89026262340E+00  0.88000000000E+00 0.  1.
        -11    1    4    4    0    0  0.89967363512E-02 -0.25312683281E-01 -0.15938455401E-02  0.26916067032E-01  0.51100000000E-03 0.  1.
         11    1    4    4    0    0  0.90045803581E-02 -0.10103459870E+00  0.21203419074E-01  0.10362875423E+00  0.51100000000E-03 0. -1.
</event>
<event>
 8    1  0.1191842E+005  0.1043930E+01  0.7957747E-01            NaN
         13   -1    0    0    0    0  0.00000000000E+00  0.00000000000E+00  0.74505805969E-08  0.10566000000E+00  0.10566000000E+00 0.  1.
     999900   -1    0    0    0    0 -0.00000000000E+00 -0.00000000000E+00 -0.74505805969E-08  0.93827000000E+00  0.93827000000E+00 0.  1.
     999902    2    1    2    0    0 -0.19415480911E-01  0.90598639322E-02 -0.10081633611E-01  0.10202512887E+01  0.10199764756E+01 0.  0.
     999903    2    3    3    0    0  0.17346149624E-01  0.11387110861E+00  0.60381905014E-01  0.13047495456E+00  0.10498620410E-01 0.  0.
         14    1    1    2    0    0  0.19415480911E-01 -0.90598639322E-02  0.10081633611E-01  0.23678711319E-01  0.00000000000E+00 0.  1.
     999901    1    3    3    0    0 -0.36761630535E-01 -0.10481124468E+00 -0.70463538626E-01  0.88977633412E+00  0.88000000000E+00 0.  1.
        -11    1    4    4    0    0  0.10360559536E-01  0.45788465554E-01  0.20204864929E-01  0.51111862219E-01  0.51100000000E-03 0.  1.
         11    1    4    4    0    0  0.69855900883E-02  0.68082643056E-01  0.40177040085E-01  0.79363092338E-01  0.51100000000E-03 0. -1.
</event>
<event>
 8    1  0.1191842E+005  0.1043930E+01  0.7957747E-01            NaN
         13   -1    0    0    0    0  0.00000000000E+00  0.00000000000E+00  0.74505805969E-08  0.10566000000E+00  0.10566000000E+00 0.  1.
     999900   -1    0    0    0    0 -0.00000000000E+00 -0.00000000000E+00 -0.74505805969E-08  0.93827000000E+00  0.93827000000E+00 0.  1.
     999902    2    1    2    0    0  0.90979604303E-02 -0.20584842384E-01  0.85929901600E-02  0.10198395849E+01  0.10195550161E+01 0.  0.
     999903    2    3    3    0    0 -0.33708911171E-01  0.17702956376E-02  0.12485902306E+00  0.13087953469E+00  0.20006307091E-01 0.  0.
         14    1    1    2    0    0 -0.90979604303E-02  0.20584842384E-01 -0.85929901600E-02  0.24090415103E-01  0.00000000000E+00 0. -1.
     999901    1    3    3    0    0  0.42806871601E-01 -0.22355138021E-01 -0.11626603290E+00  0.88896005020E+00  0.88000000000E+00 0.  1.
        -11    1    4    4    0    0 -0.33124809749E-01 -0.38011834455E-02  0.10083623934E+00  0.10620692210E+00  0.51100000000E-03 0.  1.
         11    1    4    4    0    0 -0.58410142175E-03  0.55714790831E-02  0.24022783717E-01  0.24672612593E-01  0.51100000000E-03 0. -1.
</event>
<event>
 8    1  0.1191842E+005  0.1043930E+01  0.7957747E-01            NaN
         13   -1    0    0    0    0  0.00000000000E+00  0.00000000000E+00  0.74505805969E-08  0.10566000000E+00  0.10566000000E+00 0.  1.
     999900   -1    0    0    0    0 -0.00000000000E+00 -0.00000000000E+00 -0.74505805969E-08  0.93827000000E+00  0.93827000000E+00 0.  1.
     999902    2    1    2    0    0 -0.18529263396E-01 -0.10956021752E-01  0.41085920635E-03  0.10224000948E+01  0.10221733791E+01 0.  0.
     999903    2    3    3    0    0  0.10819566175E+00 -0.13299193773E-01  0.69485549166E-01  0.13064003179E+00  0.18852230252E-01 0.  0.
         14    1    1    2    0    0  0.18529263396E-01  0.10956021752E-01 -0.41085920635E-03  0.21529905246E-01  0.00000000000E+00 0. -1.
     999901    1    3    3    0    0 -0.12672492515E+00  0.23431720214E-02 -0.69074689960E-01  0.89176006297E+00  0.88000000000E+00 0. -1.
        -11    1    4    4    0    0  0.98545220601E-01 -0.17447426285E-01  0.63788270371E-01  0.11867930631E+00  0.51100000000E-03 0. -1.
         11    1    4    4    0    0  0.96504411516E-02  0.41482325112E-02  0.56972787948E-02  0.11960725482E-01  0.51100000000E-03 0.  1.
</event>
<event>
 8    1  0.1191842E+005  0.1043930E+01  0.7957747E-01            NaN
         13   -1    0    0    0    0  0.00000000000E+00  0.00000000000E+00  0.74505805969E-08  0.10566000000E+00  0.10566000000E+00 0. -1.
     999900   -1    0    0    0    0 -0.00000000000E+00 -0.00000000000E+00 -0.74505805969E-08  0.93827000000E+00  0.93827000000E+00 0. -1.
     999902    2    1    2    0    0  0.15033569223E-01 -0.13273114851E-01  0.13472654678E-01  0.10197701944E+01  0.10194839642E+01 0.  0.
     999903    2    3    3    0    0 -0.30428540653E-02 -0.65870568154E-01  0.11309822815E+00  0.13240414591E+00  0.19785295843E-01 0.  0.
         14    1    1    2    0    0 -0.15033569223E-01  0.13273114851E-01 -0.13472654678E-01  0.24159805577E-01  0.00000000000E+00 0.  1.
     999901    1    3    3    0    0  0.18076423288E-01  0.52597453303E-01 -0.99625573475E-01  0.88736604852E+00  0.88000000000E+00 0. -1.
        -11    1    4    4    0    0 -0.58054482413E-02 -0.10773840062E-01  0.32513546255E-01  0.34744361701E-01  0.51100000000E-03 0. -1.
         11    1    4    4    0    0  0.27625941759E-02 -0.55096728092E-01  0.80584681898E-01  0.97659784204E-01  0.51100000000E-03 0.  1.
</event>
<event>
 8    1  0.1191842E+005  0.1043930E+01  0.7957747E-01            NaN
         13   -1    0    0    0    0  0.00000000000E+00  0.00000000000E+00  0.74505805969E-08  0.10566000000E+00  0.10566000000E+00 0.  1.
     999900   -1    0    0    0    0 -0.00000000000E+00 -0.00000000000E+00 -0.74505805969E-08  0.93827000000E+00  0.93827000000E+00 0.  1.
     999902    2    1    2    0    0  0.86413797948E-02 -0.73456347449E-02 -0.24359776050E-01  0.10170593751E+01  0.10167043533E+01 0.  0.
     999903    2    3    3    0    0 -0.10213035080E+00 -0.62368822264E-02 -0.75358165055E-01  0.12864931136E+00  0.20057044126E-01 0.  0.
         14    1    1    2    0    0 -0.86413797948E-02  0.73456347449E-02  0.24359776050E-01  0.26870624923E-01  0.00000000000E+00 0.  1.
     999901    1    3    3    0    0  0.11077173059E+00 -0.11087525186E-02  0.50998389006E-01  0.88841006372E+00  0.88000000000E+00 0. -1.
        -11    1    4    4    0    0 -0.73899967356E-01 -0.52975613178E-02 -0.64991435868E-01  0.98556669934E-01  0.51100000000E-03 0. -1.
         11    1    4    4    0    0 -0.28230383442E-01 -0.93932090860E-03 -0.10366729187E-01  0.30092641427E-01  0.51100000000E-03 0.  1.
</event>
<event>
 8    1  0.1191842E+005  0.1043930E+01  0.7957747E-01            NaN
         13   -1    0    0    0    0  0.00000000000E+00  0.00000000000E+00  0.74505805969E-08  0.10566000000E+00  0.10566000000E+00 0. -1.
     999900   -1    0    0    0    0 -0.00000000000E+00 -0.00000000000E+00 -0.74505805969E-08  0.93827000000E+00  0.93827000000E+00 0.  1.
     999902    2    1    2    0    0 -0.21701735539E-01  0.15799161471E-03  0.95175251493E-02  0.10202324564E+01  0.10199572008E+01 0.  0.
     999903    2    3    3    0    0  0.81479196692E-01 -0.76254259126E-01 -0.59936913597E-01  0.12820720123E+00  0.19775775756E-01 0.  0.
         14    1    1    2    0    0  0.21701735539E-01 -0.15799161471E-03 -0.95175251493E-02  0.23697543580E-01  0.00000000000E+00 0.  1.
     999901    1    3    3    0    0 -0.10318093223E+00  0.76412250740E-01  0.69454438746E-01  0.89202525519E+00  0.88000000000E+00 0. -1.
        -11    1    4    4    0    0  0.73416180963E-01 -0.64245263942E-01 -0.58275546506E-01  0.11363841783E+00  0.51100000000E-03 0.  1.
         11    1    4    4    0    0  0.80630157285E-02 -0.12008995184E-01 -0.16613670906E-02  0.14568783394E-01  0.51100000000E-03 0. -1.
</event>
<event>
 8    1  0.1191842E+005  0.1043930E+01  0.7957747E-01            NaN
         13   -1    0    0    0    0  0.00000000000E+00  0.00000000000E+00  0.74505805969E-08  0.10566000000E+00  0.10566000000E+00 0. -1.
     999900   -1    0    0    0    0 -0.00000000000E+00 -0.00000000000E+00 -0.74505805969E-08  0.93827000000E+00  0.93827000000E+00 0.  1.
     999902    2    1    2    0    0  0.16925376651E-01  0.15920030960E-01  0.14254579766E-04  0.10206939082E+01  0.10204293891E+01 0.  0.
     999903    2    3    3    0    0  0.94363014355E-01  0.69457175056E-01  0.60578087844E-01  0.13360271137E+00  0.21243872382E-01 0.  0.
         14    1    1    2    0    0 -0.16925376651E-01 -0.15920030960E-01 -0.14254579766E-04  0.23236091834E-01  0.00000000000E+00 0.  1.
     999901    1    3    3    0    0 -0.77437637704E-01 -0.53537144096E-01 -0.60563833264E-01  0.88709119679E+00  0.88000000000E+00 0.  1.
        -11    1    4    4    0    0  0.38281706308E-01  0.17530028682E-01  0.15510871855E-01  0.44873591456E-01  0.51100000000E-03 0. -1.
         11    1    4    4    0    0  0.56081308047E-01  0.51927146375E-01  0.45067215989E-01  0.88729119915E-01  0.51100000000E-03 0.  1.
</event>
<event>
 8    1  0.1191842E+005  0.1043930E+01  0.7957747E-01            NaN
         13   -1    0    0    0    0  0.00000000000E+00  0.00000000000E+00  0.74505805969E-08  0.10566000000E+00  0.10566000000E+00 0. -1.
     999900   -1    0    0    0    0 -0.00000000000E+00 -0.00000000000E+00 -0.74505805969E-08  0.93827000000E+00  0.93827000000E+00 0. -1.
     999902    2    1    2    0    0  0.56654117815E-02 -0.23251400464E-01  0.40862636409E-02  0.10196519839E+01  0.10193629119E+01 0.  0.
     999903    2    3    3    0    0  0.47851393740E-01  0.99937998062E-01  0.61617867521E-01  0.12821204179E+00  0.19084200859E-01 0.  0.
         14    1    1    2    0    0 -0.56654117815E-02  0.23251400464E-01 -0.40862636409E-02  0.24278016079E-01  0.00000000000E+00 0. -1.
     999901    1    3    3    0    0 -0.42185981959E-01 -0.12318939853E+00 -0.57531603880E-01  0.89143994213E+00  0.88000000000E+00 0.  1.
        -11    1    4    4    0    0  0.26917920906E-01  0.64214489665E-01  0.28696183849E-01  0.75311401775E-01  0.51100000000E-03 0.  1.
         11    1    4    4    0    0  0.20933472835E-01  0.35723508396E-01  0.32921683672E-01  0.52900640014E-01  0.51100000000E-03 0. -1.
</event>
<event>
 8    1  0.1191842E+005  0.1043930E+01  0.7957747E-01            NaN
         13   -1    0    0    0    0  0.00000000000E+00  0.00000000000E+00  0.74505805969E-08  0.10566000000E+00  0.10566000000E+00 0. -1.
     999900   -1    0    0    0    0 -0.00000000000E+00 -0.00000000000E+00 -0.74505805969E-08  0.93827000000E+00  0.93827000000E+00 0. -1.
     999902    2    1    2    0    0 -0.12250429886E-01 -0.18197898171E-01 -0.94411420513E-02  0.10200475442E+01  0.10197679250E+01 0.  0.
     999903    2    3    3    0    0 -0.37787127776E-02 -0.12336421923E+00 -0.45406509360E-01  0.13301584653E+00  0.19961339679E-01 0.  0.
         14    1    1    2    0    0  0.12250429886E-01  0.18197898171E-01  0.94411420513E-02  0.23882455768E-01  0.00000000000E+00 0. -1.
     999901    1    3    3    0    0 -0.84717171089E-02  0.10516632105E+00  0.35965367308E-01  0.88703169770E+00  0.88000000000E+00 0. -1.
        -11    1    4    4    0    0 -0.94661975271E-03 -0.82498789766E-02 -0.89792485064E-02  0.12241103579E-01  0.51100000000E-03 0.  1.
         11    1    4    4    0    0 -0.28320930249E-02 -0.11511434025E+00 -0.36427260853E-01  0.12077474296E+00  0.51100000000E-03 0. -1.
</event>
<event>
 8    1  0.1191842E+005  0.1043930E+01  0.7957747E-01            NaN
         13   -1    0    0    0    0  0.00000000000E+00  0.00000000000E+00  0.74505805969E-08  0.10566000000E+00  0.10566000000E+00 0.  1.
     999900   -1    0    0    0    0 -0.00000000000E+00 -0.00000000000E+00 -0.74505805969E-08  0.93827000000E+00  0.93827000000E+00 0.  1.
     999902    2    1    2    0    0 -0.38361671931E-02  0.68612020814E-02 -0.23451663202E-01  0.10191959591E+01  0.10188957897E+01 0.  0.
     999903    2    3    3    0    0 -0.51922830348E-01 -0.10511220317E+00 -0.52650221877E-01  0.13031861857E+00  0.21594928011E-01 0.  0.
         14    1    1    2    0    0  0.38361671931E-02 -0.68612020814E-02  0.23451663202E-01  0.24734040908E-01  0.00000000000E+00 0.  1.
     999901    1    3    3    0    0  0.48086663155E-01  0.11197340526E+00  0.29198558676E-01  0.88887734052E+00  0.88000000000E+00 0.  1.
        -11    1    4    4    0    0 -0.13705099462E-01 -0.51854215611E-01 -0.24842084075E-01  0.59110740903E-01  0.51100000000E-03 0. -1.
         11    1    4    4    0    0 -0.38217730886E-01 -0.53257987563E-01 -0.27808137802E-01  0.71207877670E-01  0.51100000000E-03 0.  1.
</event>
<event>
 8    1  0.1191842E+005  0.1043930E+01  0.7957747E-01            NaN
         13   -1    0    0    0    0  0.00000000000E+00  0.00000000000E+00  0.74505805969E-08  0.10566000000E+00  0.10566000000E+00 0.  1.
     999900   -1    0    0    0    0 -0.00000000000E+00 -0.00000000000E+00 -0.74505805969E-08  0.93827000000E+00  0.93827000000E+00 0. -1.
     999902    2    1    2    0    0  0.15560619636E-01 -0.57217851011E-02  0.18827158143E-01  0.10188434779E+01  0.10185345840E+01 0.  0.
     999903    2    3    3    0    0  0.12811146537E+00 -0.20853131298E-01 -0.24096782388E-02  0.13129198432E+00  0.19605559225E-01 0.  0.
         14    1    1    2    0    0 -0.15560619636E-01  0.57217851011E-02 -0.18827158143E-01  0.25086522118E-01  0.00000000000E+00 0. -1.
     999901    1    3    3    0    0 -0.11255084573E+00  0.15131346197E-01  0.21236836382E-01  0.88755149357E+00  0.88000000000E+00 0.  1.
        -11    1    4    4    0    0  0.57770217298E-01 -0.18998975768E-03 -0.44926147754E-02  0.57947207105E-01  0.51100000000E-03 0.  1.
         11    1    4    4    0    0  0.70341248070E-01 -0.20663141541E-01  0.20829365366E-02  0.73344777211E-01  0.51100000000E-03 0. -1.
</event>
<event>
 8    1  0.1191842E+005  0.1043930E+01  0.7957747E-01            NaN
         13   -1    0    0    0    0  0.00000000000E+00  0.00000000000E+00  0.74505805969E-08  0.10566000000E+00  0.10566000000E+00 0.  1.
     999900   -1    0    0    0    0 -0.00000000000E+00 -0.00000000000E+00 -0.74505805969E-08  0.93827000000E+00  0.93827000000E+00 0.  1.
     999902    2    1    2    0    0 -0.35160261482E-02 -0.16829182991E-01 -0.16944398534E-01  0.10197908931E+01  0.10195051590E+01 0.  0.
     999903    2    3    3    0    0 -0.11077185527E+00  0.62053995598E-01 -0.17653479530E-01  0.12977579686E+00  0.20223991223E-01 0.  0.
         14    1    1    2    0    0  0.35160261482E-02  0.16829182991E-01  0.16944398534E-01  0.24139106895E-01  0.00000000000E+00 0. -1.
     999901    1    3    3    0    0  0.10725582913E+00 -0.78883178589E-01  0.70908099558E-03  0.89001509624E+00  0.88000000000E+00 0. -1.
        -11    1    4    4    0    0 -0.32084132684E-01  0.19683480975E-01  0.38886884372E-02  0.37844603474E-01  0.51100000000E-03 0. -1.
         11    1    4    4    0    0 -0.78687722589E-01  0.42370514623E-01 -0.21542167967E-01  0.91931193387E-01  0.51100000000E-03 0.  1.
</event>
<event>
 8    1  0.1191842E+005  0.1043930E+01  0.7957747E-01            NaN
         13   -1    0    0    0    0  0.00000000000E+00  0.00000000000E+00  0.74505805969E-08  0.10566000000E+00  0.10566000000E+00 0. -1.
     999900   -1    0    0    0    0 -0.00000000000E+00 -0.00000000000E+00 -0.74505805969E-08  0.93827000000E+00  0.93827000000E+00 0. -1.
     999902    2    1    2    0    0  0.17967092999E-01 -0.13092732962E-01  0.90435978768E-02  0.10199295261E+01  0.10196471033E+01 0.  0.
     999903    2    3    3    0    0 -0.35732750796E-01  0.14724623935E-01 -0.12079532411E+00  0.12834911788E+00  0.19706387366E-01 0.  0.
         14    1    1    2    0    0 -0.17967092999E-01  0.13092732962E-01 -0.90435978768E-02  0.24000473950E-01  0.00000000000E+00 0.  1.
     999901    1    3    3    0    0  0.53699843796E-01 -0.27817356898E-01  0.12983892199E+00  0.89158040817E+00  0.88000000000E+00 0.  1.
        -11    1    4    4    0    0 -0.11511164967E-01  0.11287007288E-01 -0.27339340317E-01  0.31742780319E-01  0.51100000000E-03 0. -1.
         11    1    4    4    0    0 -0.24221585829E-01  0.34376166475E-02 -0.93455983798E-01  0.96606337561E-01  0.51100000000E-03 0.  1.
</event>
<event>
 8    1  0.1191842E+005  0.1043930E+01  0.7957747E-01            NaN
         13   -1    0    0    0    0  0.00000000000E+00  0.00000000000E+00  0.74505805969E-08  0.10566000000E+00  0.10566000000E+00 0. -1.
     999900   -1    0    0    0    0 -0.00000000000E+00 -0.00000000000E+00 -0.74505805969E-08  0.93827000000E+00  0.93827000000E+00 0. -1.
     999902    2    1    2    0    0  0.11261402522E-01 -0.55102995152E-02 -0.20989840968E-01  0.10194809507E+01  0.10191877417E+01 0.  0.
     999903    2    3    3    0    0 -0.29304031702E-01 -0.29192151590E-01  0.11944126932E+00  0.12710923370E+00  0.13402704470E-01 0.  0.
         14    1    1    2    0    0 -0.11261402522E-01  0.55102995152E-02  0.20989840968E-01  0.24449049294E-01  0.00000000000E+00 0. -1.
     999901    1    3    3    0    0  0.40565434224E-01  0.23681852075E-01 -0.14043111029E+00  0.89237171700E+00  0.88000000000E+00 0. -1.
        -11    1    4    4    0    0 -0.10922582176E-01 -0.71514691491E-02  0.55556106136E-01  0.57071782540E-01  0.51100000000E-03 0.  1.
         11    1    4    4    0    0 -0.18381449526E-01 -0.22040682441E-01  0.63885163185E-01  0.70037451162E-01  0.51100000000E-03 0. -1.
</event>
<event>
 8    1  0.1191842E+005  0.1043930E+01  0.7957747E-01            NaN
         13   -1    0    0    0    0  0.00000000000E+00  0.00000000000E+00  0.74505805969E-08  0.10566000000E+00  0.10566000000E+00 0.  1.
     999900   -1    0    0    0    0 -0.00000000000E+00 -0.00000000000E+00 -0.74505805969E-08  0.93827000000E+00  0.93827000000E+00 0.  1.
     999902    2    1    2    0    0  0.16108394538E-02  0.23730639064E-01  0.56137666721E-02  0.10194912519E+01  0.10191982929E+01 0.  0.
     999903    2    3    3    0    0 -0.49377914617E-01  0.79467262023E-01  0.91168451604E-01  0.13212096371E+00  0.19774688351E-01 0.  0.
         14    1    1    2    0    0 -0.16108394538E-02 -0.23730639064E-01 -0.56137666721E-02  0.24438748135E-01  0.00000000000E+00 0. -1.
     999901    1    3    3    0    0  0.50988754071E-01 -0.55736622959E-01 -0.85554684932E-01  0.88737028815E+00  0.88000000000E+00 0.  1.
        -11    1    4    4    0    0 -0.22719366482E-01  0.31035266641E-01  0.24914021071E-01  0.45829324191E-01  0.51100000000E-03 0. -1.
         11    1    4    4    0    0 -0.26658548135E-01  0.48431995382E-01  0.66254430533E-01  0.86291639523E-01  0.51100000000E-03 0.  1.
</event>
<event>
 8    1  0.1191842E+005  0.1043930E+01  0.7957747E-01            NaN
         13   -1    0    0    0    0  0.00000000000E+00  0.00000000000E+00  0.74505805969E-08  0.10566000000E+00  0.10566000000E+00 0.  1.
     999900   -1    0    0    0    0 -0.00000000000E+00 -0.00000000000E+00 -0.74505805969E-08  0.93827000000E+00  0.93827000000E+00 0.  1.
     999902    2    1    2    0    0  0.21718603620E-01  0.26869016433E-02 -0.94763723958E-02  0.10200821737E+01  0.10198033744E+01 0.  0.
     999903    2    3    3    0    0  0.46414164056E-01  0.99428094403E-01 -0.71161722566E-01  0.13229063767E+00  0.19914855657E-01 0.  0.
         14    1    1    2    0    0 -0.21718603620E-01 -0.26869016433E-02  0.94763723958E-02  0.23847826262E-01  0.00000000000E+00 0.  1.
     999901    1    3    3    0    0 -0.24695560437E-01 -0.96741192760E-01  0.61685350171E-01  0.88779153606E+00  0.88000000000E+00 0. -1.
        -11    1    4    4    0    0  0.27209869899E-01  0.72391230437E-01 -0.57723450307E-01  0.96504534092E-01  0.51100000000E-03 0. -1.
         11    1    4    4    0    0  0.19204294157E-01  0.27036863966E-01 -0.13438272260E-01  0.35786103582E-01  0.51100000000E-03 0.  1.
</event>
<event>
 8    1  0.1191842E+005  0.1043930E+01  0.7957747E-01            NaN
         13   -1    0    0    0    0  0.00000000000E+00  0.00000000000E+00  0.74505805969E-08  0.10566000000E+00  0.10566000000E+00 0. -1.
     999900   -1    0    0    0    0 -0.00000000000E+00 -0.00000000000E+00 -0.74505805969E-08  0.93827000000E+00  0.93827000000E+00 0.  1.
     999902    2    1    2    0    0 -0.20855225899E-01 -0.10700031843E-01  0.12725012897E-02  0.10204555375E+01  0.10201854996E+01 0.  0.
     999903    2    3    3    0    0  0.79352370135E-01  0.41469573146E-01  0.90181924278E-01  0.12878961607E+00  0.20915582688E-01 0.  0.
         14    1    1    2    0    0  0.20855225899E-01  0.10700031843E-01 -0.12725012897E-02  0.23474462471E-01  0.00000000000E+00 0.  1.
     999901    1    3    3    0    0 -0.10020759603E+00 -0.52169604989E-01 -0.88909422988E-01  0.89166592145E+00  0.88000000000E+00 0.  1.
        -11    1    4    4    0    0  0.65115453425E-01  0.30954032140E-01  0.82278217542E-01  0.10939899718E+00  0.51100000000E-03 0.  1.
         11    1    4    4    0    0  0.14236916710E-01  0.10515541006E-01  0.79037067359E-02  0.19390618898E-01  0.51100000000E-03 0. -1.
</event>
<event>
 8    1  0.1191842E+005  0.1043930E+01  0.7957747E-01            NaN
         13   -1    0    0    0    0  0.00000000000E+00  0.00000000000E+00  0.74505805969E-08  0.10566000000E+00  0.10566000000E+00 0. -1.
     999900   -1    0    0    0    0 -0.00000000000E+00 -0.00000000000E+00 -0.74505805969E-08  0.93827000000E+00  0.93827000000E+00 0. -1.
     999902    2    1    2    0    0 -0.62652618401E-02 -0.15154519781E-01 -0.16012508367E-01  0.10210102836E+01  0.10207529994E+01 0.  0.
     999903    2    3    3    0    0 -0.10921869588E+00  0.66108480328E-01 -0.23450448326E-01  0.13125840374E+00  0.19488209855E-01 0.  0.
         14    1    1    2    0    0  0.62652618401E-02  0.15154519781E-01  0.16012508367E-01  0.22919716401E-01  0.00000000000E+00 0. -1.
     999901    1    3    3    0    0  0.10295343404E+00 -0.81263000109E-01  0.74379399588E-02  0.88975187986E+00  0.88000000000E+00 0. -1.
        -11    1    4    4    0    0 -0.83362489736E-01  0.40243472409E-01 -0.17059740946E-01  0.94128304184E-01  0.51100000000E-03 0.  1.
         11    1    4    4    0    0 -0.25856206146E-01  0.25865007920E-01 -0.63907073797E-02  0.37130099552E-01  0.51100000000E-03 0. -1.
</event>
<event>
 7    1  0.1191842E+005  0.1043930E+01  0.7957747E-01            NaN
         13   -1    0    0    0    0  0.00000000000E+00  0.00000000000E+00  0.74505805969E-08  0.10566000000E+00  0.10566000000E+00 0.  1.
     999900   -1    0    0    0    0 -0.00000000000E+00 -0.00000000000E+00 -0.74505805969E-08  0.93827000000E+00  0.93827000000E+00 0.  1.
     999902    2    1    2    0    0 -0.20293003723E-01 -0.12062335278E-01  0.44019813608E-02  0.10199157673E+01  0.10196330168E+01 0.  0.
         14    1    1    2    0    0  0.20293003723E-01  0.12062335278E-01 -0.44019813608E-02  0.24014232704E-01  0.00000000000E+00 0.  1.
     999901    1    3    3    0    0  0.36305907262E-01  0.80547419458E-01  0.11370060825E-01  0.88449719274E+00  0.88000000000E+00 0. -1.
        -11    1    3    3    0    0 -0.44557159397E-01 -0.76361978361E-01 -0.39718159119E-01  0.96924122269E-01  0.51100000000E-03 0.  1.
         11    1    3    3    0    0 -0.12041751587E-01 -0.16247776376E-01  0.32750079655E-01  0.38494452287E-01  0.51100000000E-03 0. -1.
</event>
<event>
 8    1  0.1191842E+005  0.1043930E+01  0.7957747E-01            NaN
         13   -1    0    0    0    0  0.00000000000E+00  0.00000000000E+00  0.74505805969E-08  0.10566000000E+00  0.10566000000E+00 0.  1.
     999900   -1    0    0    0    0 -0.00000000000E+00 -0.00000000000E+00 -0.74505805969E-08  0.93827000000E+00  0.93827000000E+00 0. -1.
     999902    2    1    2    0    0  0.12976840171E-01  0.16110445162E-01  0.12099058064E-01  0.10199647746E+01  0.10196831907E+01 0.  0.
     999903    2    3    3    0    0 -0.18694142025E-01  0.12179768824E+00 -0.40930830395E-01  0.13149135710E+00  0.20748404995E-01 0.  0.
         14    1    1    2    0    0 -0.12976840171E-01 -0.16110445162E-01 -0.12099058064E-01  0.23965225436E-01  0.00000000000E+00 0.  1.
     999901    1    3    3    0    0  0.31670982196E-01 -0.10568724308E+00  0.53029888458E-01  0.88847341746E+00  0.88000000000E+00 0.  1.
        -11    1    4    4    0    0 -0.21141965808E-01  0.10484474153E+00 -0.29702637432E-01  0.11100410054E+00  0.51100000000E-03 0.  1.
         11    1    4    4    0    0  0.24478237836E-02  0.16952946705E-01 -0.11228192963E-01  0.20487256563E-01  0.51100000000E-03 0. -1.
</event>
<event>
 8    1  0.1191842E+005  0.1043930E+01  0.7957747E-01            NaN
         13   -1    0    0    0    0  0.00000000000E+00  0.00000000000E+00  0.74505805969E-08  0.10566000000E+00  0.10566000000E+00 0.  1.
     999900   -1    0    0    0    0 -0.00000000000E+00 -0.00000000000E+00 -0.74505805969E-08  0.93827000000E+00  0.93827000000E+00 0.  1.
     999902    2    1    2    0    0 -0.14078732983E-01  0.40720808995E-02  0.18106860691E-01  0.10206351300E+01  0.10203692555E+01 0.  0.
     999903    2    3    3    0    0  0.41414327356E-01  0.12250821378E+00  0.24202597329E-02  0.13083028240E+00  0.19679842018E-01 0.  0.
         14    1    1    2    0    0  0.14078732983E-01 -0.40720808995E-02 -0.18106860691E-01  0.23294870022E-01  0.00000000000E+00 0. -1.
     999901    1    3    3    0    0 -0.55493060339E-01 -0.11843613288E+00  0.15686600958E-01  0.88980484757E+00  0.88000000000E+00 0. -1.
        -11    1    4    4    0    0  0.27638348562E-01  0.52369582141E-01  0.37654110153E-02  0.59337095362E-01  0.51100000000E-03 0. -1.
         11    1    4    4    0    0  0.13775978794E-01  0.70138631642E-01 -0.13451512824E-02  0.71493187041E-01  0.51100000000E-03 0.  1.
</event>
<event>
 8    1  0.1191842E+005  0.1043930E+01  0.7957747E-01            NaN
         13   -1    0    0    0    0  0.00000000000E+00  0.00000000000E+00  0.74505805969E-08  0.10566000000E+00  0.10566000000E+00 0. -1.
     999900   -1    0    0    0    0 -0.00000000000E+00 -0.00000000000E+00 -0.74505805969E-08  0.93827000000E+00  0.93827000000E+00 0. -1.
     999902    2    1    2    0    0 -0.10181916620E-01  0.18454701236E-01 -0.10855103336E-01  0.10202217590E+01  0.10199462519E+01 0.  0.
     999903    2    3    3    0    0  0.17013451350E-01 -0.11492370880E+00 -0.53167648343E-01  0.12875120996E+00  0.15910966858E-01 0.  0.
         14    1    1    2    0    0  0.10181916620E-01 -0.18454701236E-01  0.10855103336E-01  0.23708241019E-01  0.00000000000E+00 0.  1.
     999901    1    3    3    0    0 -0.27195367970E-01  0.13337841003E+00  0.42312545007E-01  0.89147054902E+00  0.88000000000E+00 0.  1.
        -11    1    4    4    0    0  0.70218008572E-02 -0.52042013458E-01 -0.32723247547E-01  0.61876885047E-01  0.51100000000E-03 0. -1.
         11    1    4    4    0    0  0.99916504929E-02 -0.62881695337E-01 -0.20444400796E-01  0.66874324916E-01  0.51100000000E-03 0.  1.
</event>
<event>
 8    1  0.1191842E+005  0.1043930E+01  0.7957747E-01            NaN
         13   -1    0    0    0    0  0.00000000000E+00  0.00000000000E+00  0.74505805969E-08  0.10566000000E+00  0.10566000000E+00 0.  1.
     999900   -1    0    0    0    0 -0.00000000000E+00 -0.00000000000E+00 -0.74505805969E-08  0.93827000000E+00  0.93827000000E+00 0. -1.
     999902    2    1    2    0    0  0.24994808768E-02 -0.27524773613E-01 -0.17564072361E-03  0.10162914143E+01  0.10159155218E+01 0.  0.
     999903    2    3    3    0    0 -0.99592943822E-01  0.72346139165E-01 -0.53115657511E-02  0.12476270470E+00  0.19616356509E-01 0.  0.
         14    1    1    2    0    0 -0.24994808768E-02  0.27524773613E-01  0.17564072361E-03  0.27638585650E-01  0.00000000000E+00 0.  1.
     999901    1    3    3    0    0  0.10209242470E+00 -0.99870912777E-01  0.51359250275E-02  0.89152870965E+00  0.88000000000E+00 0.  1.
        -11    1    4    4    0    0 -0.86674415643E-01  0.58560145397E-01  0.16623935295E-02  0.10461725302E+00  0.51100000000E-03 0.  1.
         11    1    4    4    0    0 -0.12918528179E-01  0.13785993768E-01 -0.69739592806E-02  0.20145451683E-01  0.51100000000E-03 0. -1.
</event>
<event>
 8    1  0.1191842E+005  0.1043930E+01  0.7957747E-01            NaN
         13   -1    0    0    0    0  0.00000000000E+00  0.00000000000E+00  0.74505805969E-08  0.10566000000E+00  0.10566000000E+00 0.  1.
     999900   -1    0    0    0    0 -0.00000000000E+00 -0.00000000000E+00 -0.74505805969E-08  0.93827000000E+00  0.93827000000E+00 0. -1.
     999902    2    1    2    0    0  0.18146642778E-01 -0.63791385106E-02 -0.13612785229E-01  0.10203651539E+01  0.10200930081E+01 0.  0.
     999903    2    3    3    0    0  0.66849589453E-02 -0.69854867526E-01 -0.11058149076E+00  0.13269209004E+00  0.21319790515E-01 0.  0.
         14    1    1    2    0    0 -0.18146642778E-01  0.63791385106E-02  0.13612785229E-01  0.23564846147E-01  0.00000000000E+00 0. -1.
     999901    1    3    3    0    0  0.11461683833E-01  0.63475729016E-01  0.96968705527E-01  0.88767306381E+00  0.88000000000E+00 0.  1.
        -11    1    4    4    0    0  0.63348309803E-02 -0.17803214480E-01 -0.16148962769E-01  0.24862313828E-01  0.51100000000E-03 0. -1.
         11    1    4    4    0    0  0.35012796493E-03 -0.52051653046E-01 -0.94432527987E-01  0.10782977621E+00  0.51100000000E-03 0.  1.
</event>
<event>
 8    1  0.1191842E+005  0.1043930E+01  0.7957747E-01            NaN
         13   -1    0    0    0    0  0.00000000000E+00  0.00000000000E+00  0.74505805969E-08  0.10566000000E+00  0.10566000000E+00 0.  1.
     999900   -1    0    0    0    0 -0.00000000000E+00 -0.00000000000E+00 -0.74505805969E-08  0.93827000000E+00  0.93827000000E+00 0. -1.
     999902    2    1    2    0    0  0.13009132714E-03 -0.15303015252E-01 -0.17898573184E-01  0.10203809422E+01  0.10201091653E+01 0.  0.
     999903    2    3    3    0    0 -0.10331932623E+00  0.47878113693E-01  0.57006168608E-01  0.12891902079E+00  0.20080182245E-01 0.  0.
         14    1    1    2    0    0 -0.13009132714E-03  0.15303015252E-01  0.17898573184E-01  0.23549057764E-01  0.00000000000E+00 0.  1.
     999901    1    3    3    0    0  0.10344941755E+00 -0.63181128945E-01 -0.74904741791E-01  0.89146192145E+00  0.88000000000E+00 0.  1.
        -11    1    4    4    0    0 -0.47537904490E-01  0.16474915023E-01  0.15590908617E-01  0.52674592934E-01  0.51100000000E-03 0.  1.
         11    1    4    4    0    0 -0.55781421738E-01  0.31403198671E-01  0.41415259991E-01  0.76244427855E-01  0.51100000000E-03 0. -1.
</event>
<event>
 8    1  0.1191842E+005  0.1043930E+01  0.7957747E-01            NaN
         13   -1    0    0    0    0  0.00000000000E+00  0.00000000000E+00  0.74505805969E-08  0.10566000000E+00  0.10566000000E+00 0. -1.
     999900   -1    0    0    0    0 -0.00000000000E+00 -0.00000000000E+00 -0.74505805969E-08  0.93827000000E+00  0.93827000000E+00 0. -1.
     999902    2    1    2    0    0  0.15997706983E-01 -0.98804756830E-03 -0.18734958379E-01  0.10192743408E+01  0.10189760940E+01 0.  0.
     999903    2    3    3    0    0  0.78820796660E-01  0.65997817055E-01  0.75960188138E-01  0.12944232436E+00  0.20418993874E-01 0.  0.
         14    1    1    2    0    0 -0.15997706983E-01  0.98804756830E-03  0.18734958379E-01  0.24655659232E-01  0.00000000000E+00 0. -1.
     999901    1    3    3    0    0 -0.62823089677E-01 -0.66985864623E-01 -0.94695146518E-01  0.88983201641E+00  0.88000000000E+00 0. -1.
        -11    1    4    4    0    0  0.24757274800E-01  0.30167614343E-01  0.36999610345E-01  0.53779549062E-01  0.51100000000E-03 0.  1.
         11    1    4    4    0    0  0.54063521860E-01  0.35830202712E-01  0.38960577793E-01  0.75662775295E-01  0.51100000000E-03 0. -1.
</event>
<event>
 8    1  0.1191842E+005  0.1043930E+01  0.7957747E-01            NaN
         13   -1    0    0    0    0  0.00000000000E+00  0.00000000000E+00  0.74505805969E-08  0.10566000000E+00  0.10566000000E+00 0. -1.
     999900   -1    0    0    0    0 -0.00000000000E+00 -0.00000000000E+00 -0.74505805969E-08  0.93827000000E+00  0.93827000000E+00 0.  1.
     999902    2    1    2    0    0  0.47972951635E-03  0.20267233694E-01 -0.13041496301E-01  0.10198245747E+01  0.10195396469E+01 0.  0.
     999903    2    3    3    0    0  0.24992081449E-01 -0.18887029812E-01 -0.12606157843E+00  0.13139480782E+00  0.19792673842E-01 0.  0.
         14    1    1    2    0    0 -0.47972951635E-03 -0.20267233694E-01  0.13041496301E-01  0.24105425277E-01  0.00000000000E+00 0. -1.
     999901    1    3    3    0    0 -0.24512351932E-01  0.39154263506E-01  0.11302008212E+00  0.88842976690E+00  0.88000000000E+00 0. -1.
        -11    1    4    4    0    0 -0.28401261051E-02 -0.29494831986E-02 -0.73835617466E-02  0.84583611000E-02  0.51100000000E-03 0. -1.
         11    1    4    4    0    0  0.27832207554E-01 -0.15937546613E-01 -0.11867801668E+00  0.12293644672E+00  0.51100000000E-03 0.  1.
</event>
<event>
 8    1  0.1191842E+005  0.1043930E+01  0.7957747E-01            NaN
         13   -1    0    0    0    0  0.00000000000E+00  0.00000000000E+00  0.74505805969E-08  0.10566000000E+00  0.10566000000E+00 0. -1.
     999900   -1    0    0    0    0 -0.00000000000E+00 -0.00000000000E+00 -0.74505805969E-08  0.93827000000E+00  0.93827000000E+00 0. -1.
     999902    2    1    2    0    0  0.15561104709E-01  0.16515431968E-01  0.11688360591E-01  0.10184050074E+01  0.10180850819E+01 0.  0.
     999903    2    3    3    0    0  0.14685320013E-02  0.11170356122E+00 -0.64300939245E-01  0.12990416091E+00  0.16144288763E-01 0.  0.
         14    1    1    2    0    0 -0.15561104709E-01 -0.16515431968E-01 -0.11688360591E-01  0.25524992579E-01  0.00000000000E+00 0.  1.
     999901    1    3    3    0    0  0.14092572708E-01 -0.95188129249E-01  0.75989299836E-01  0.88850084651E+00  0.88000000000E+00 0.  1.
        -11    1    4    4    0    0 -0.76295054377E-03  0.10295060657E+00 -0.54222127419E-01  0.11636025829E+00  0.51100000000E-03 0.  1.
         11    1    4    4    0    0  0.22314825450E-02  0.87529546497E-02 -0.10078811827E-01  0.13543902624E-01  0.51100000000E-03 0. -1.
</event>
<event>
 8    1  0.1191842E+005  0.1043930E+01  0.7957747E-01            NaN
         13   -1    0    0    0    0  0.00000000000E+00  0.00000000000E+00  0.74505805969E-08  0.10566000000E+00  0.10566000000E+00 0. -1.
     999900   -1    0    0    0    0 -0.00000000000E+00 -0.00000000000E+00 -0.74505805969E-08  0.93827000000E+00  0.93827000000E+00 0.  1.
     999902    2    1    2    0    0 -0.17946359460E-01 -0.32322763500E-02 -0.15227693379E-01  0.10201728522E+01  0.10198961938E+01 0.  0.
     999903    2    3    3    0    0 -0.44724176311E-01 -0.58191934904E-01  0.10532307292E+00  0.12985262729E+00  0.19549984372E-01 0.  0.
         14    1    1    2    0    0  0.17946359460E-01  0.32322763500E-02  0.15227693379E-01  0.23757147849E-01  0.00000000000E+00 0. -1.
     999901    1    3    3    0    0  0.26777816850E-01  0.54959658554E-01 -0.12055076630E+00  0.89032022486E+00  0.88000000000E+00 0.  1.
        -11    1    4    4    0    0 -0.90897359982E-02 -0.10405721054E-01  0.87487221218E-02  0.16361650006E-01  0.51100000000E-03 0.  1.
         11    1    4    4    0    0 -0.35634440312E-01 -0.47786213850E-01  0.96574350802E-01  0.11349097728E+00  0.51100000000E-03 0. -1.
</event>
<event>
 8    1  0.1191842E+005  0.1043930E+01  0.7957747E-01            NaN
         13   -1    0    0    0    0  0.00000000000E+00  0.00000000000E+00  0.74505805969E-08  0.10566000000E+00  0.10566000000E+00 0. -1.
     999900   -1    0    0    0    0 -0.00000000000E+00 -0.00000000000E+00 -0.74505805969E-08  0.93827000000E+00  0.93827000000E+00 0. -1.
     999902    2    1    2    0    0 -0.12327245849E-01  0.57342064379E-02 -0.17695827574E-01  0.10216144353E+01  0.10213706820E+01 0.  0.
     999903    2    3    3    0    0 -0.12136185879E+00 -0.22838007822E-01  0.42907014365E-01  0.13235765423E+00  0.20670301913E-01 0.  0.
         14    1    1    2    0    0  0.12327245849E-01 -0.57342064379E-02  0.17695827574E-01  0.22315564685E-01  0.00000000000E+00 0. -1.
     999901    1    3    3    0    0  0.10903461295E+00  0.28572214259E-01 -0.60602841939E-01  0.88925678108E+00  0.88000000000E+00 0. -1.
        -11    1    4    4    0    0 -0.90230908438E-01 -0.23662858293E-01  0.38438580744E-01  0.10089268215E+00  0.51100000000E-03 0. -1.
         11    1    4    4    0    0 -0.31130950356E-01  0.82485047188E-03  0.44684336210E-02  0.31464972087E-01  0.51100000000E-03 0.  1.
</event>
<event>
 8    1  0.1191842E+005  0.1043930E+01  0.7957747E-01            NaN
         13   -1    0    0    0    0  0.00000000000E+00  0.00000000000E+00  0.74505805969E-08  0.10566000000E+00  0.10566000000E+00 0.  1.
     999900   -1    0    0    0    0 -0.00000000000E+00 -0.00000000000E+00 -0.74505805969E-08  0.93827000000E+00  0.93827000000E+00 0. -1.
     999902    2    1    2    0    0 -0.22868162885E-01 -0.61226754781E-03  0.91369202462E-02  0.10192964648E+01  0.10189987596E+01 0.  0.
     999903    2    3    3    0    0 -0.54907920269E-01 -0.10451921199E+00  0.54102246825E-01  0.13146479170E+00  0.20415507832E-01 0.  0.
         14    1    1    2    0    0  0.22868162885E-01  0.61226754781E-03 -0.91369202462E-02  0.24633535209E-01  0.00000000000E+00 0. -1.
     999901    1    3    3    0    0  0.32039757383E-01  0.10390694445E+00 -0.44965326579E-01  0.88783167310E+00  0.88000000000E+00 0. -1.
        -11    1    4    4    0    0 -0.40012721391E-01 -0.63328350934E-01  0.42592846249E-01  0.86173717442E-01  0.51100000000E-03 0. -1.
         11    1    4    4    0    0 -0.14895198877E-01 -0.41190861060E-01  0.11509400577E-01  0.45291074254E-01  0.51100000000E-03 0.  1.
</event>
<event>
 8    1  0.1191842E+005  0.1043930E+01  0.7957747E-01            NaN
         13   -1    0    0    0    0  0.00000000000E+00  0.00000000000E+00  0.74505805969E-08  0.10566000000E+00  0.10566000000E+00 0.  1.
     999900   -1    0    0    0    0 -0.00000000000E+00 -0.00000000000E+00 -0.74505805969E-08  0.93827000000E+00  0.93827000000E+00 0. -1.
     999902    2    1    2    0    0 -0.71034073346E-02  0.17600499553E-01 -0.12311019579E-01  0.10213070651E+01  0.10210564745E+01 0.  0.
     999903    2    3    3    0    0 -0.11424975234E+00 -0.47794840111E-01  0.37036675372E-01  0.13103065595E+00  0.21446790563E-01 0.  0.
         14    1    1    2    0    0  0.71034073346E-02 -0.17600499553E-01  0.12311019579E-01  0.22622934897E-01  0.00000000000E+00 0. -1.
     999901    1    3    3    0    0  0.10714634500E+00  0.65395339663E-01 -0.49347694950E-01  0.89027640915E+00  0.88000000000E+00 0. -1.
        -11    1    4    4    0    0 -0.76557467326E-01 -0.27215682223E-01  0.33666518067E-01  0.87951320184E-01  0.51100000000E-03 0. -1.
         11    1    4    4    0    0 -0.37692285013E-01 -0.20579157887E-01  0.33701573047E-02  0.43079335767E-01  0.51100000000E-03 0.  1.
</event>
<event>
 8    1  0.1191842E+005  0.1043930E+01  0.7957747E-01            NaN
         13   -1    0    0    0    0  0.00000000000E+00  0.00000000000E+00  0.74505805969E-08  0.10566000000E+00  0.10566000000E+00 0. -1.
     999900   -1    0    0    0    0 -0.00000000000E+00 -0.00000000000E+00 -0.74505805969E-08  0.93827000000E+00  0.93827000000E+00 0.  1.
     999902    2    1    2    0    0 -0.18787297842E-01  0.13325066366E-01 -0.26299229328E-02  0.10207473244E+01  0.10204840341E+01 0.  0.
     999903    2    3    3    0    0  0.83098615236E-01 -0.94041069238E-01 -0.17745170051E-01  0.12825827849E+00  0.19651778107E-01 0.  0.
         14    1    1    2    0    0  0.18787297842E-01 -0.13325066366E-01  0.26299229328E-02  0.23182675612E-01  0.00000000000E+00 0.  1.
     999901    1    3    3    0    0 -0.10188591308E+00  0.10736613560E+00  0.15115247118E-01  0.89248904590E+00  0.88000000000E+00 0.  1.
        -11    1    4    4    0    0  0.44270725219E-01 -0.51846699190E-01 -0.19422795765E-01  0.70890644268E-01  0.51100000000E-03 0. -1.
         11    1    4    4    0    0  0.38827890017E-01 -0.42194370048E-01  0.16776257144E-02  0.57367634219E-01  0.51100000000E-03 0.  1.
</event>
<event>
 8    1  0.1191842E+005  0.1043930E+01  0.7957747E-01            NaN
         13   -1    0    0    0    0  0.00000000000E+00  0.00000000000E+00  0.74505805969E-08  0.10566000000E+00  0.10566000000E+00 0.  1.
     999900   -1    0    0    0    0 -0.00000000000E+00 -0.00000000000E+00 -0.74505805969E-08  0.93827000000E+00  0.93827000000E+00 0.  1.
     999902    2    1    2    0    0  0.14748766851E-01 -0.17545903117E-01  0.12082100252E-02  0.10209769041E+01  0.10207188614E+01 0.  0.
     999903    2    3    3    0    0  0.25470471324E-01  0.12521597583E+00  0.17868698987E-02  0.12940736454E+00  0.20378605971E-01 0.  0.
         14    1    1    2    0    0 -0.14748766851E-01  0.17545903117E-01 -0.12082100252E-02  0.22953095897E-01  0.00000000000E+00 0.  1.
     999901    1    3    3    0    0 -0.10721704473E-01 -0.14276187895E+00 -0.57865987345E-03  0.89156953956E+00  0.88000000000E+00 0. -1.
        -11    1    4    4    0    0  0.12024980475E-01  0.22005971780E-01 -0.27005525326E-02  0.25227307712E-01  0.51100000000E-03 0.  1.
         11    1    4    4    0    0  0.13445490849E-01  0.10321000405E+00  0.44874224313E-02  0.10418005683E+00  0.51100000000E-03 0. -1.
</event>
<event>
 8    1  0.1191842E+005  0.1043930E+01  0.7957747E-01            NaN
         13   -1    0    0    0    0  0.00000000000E+00  0.00000000000E+00  0.74505805969E-08  0.10566000000E+00  0.10566000000E+00 0. -1.
     999900   -1    0    0    0    0 -0.00000000000E+00 -0.00000000000E+00 -0.74505805969E-08  0.93827000000E+00  0.93827000000E+00 0.  1.
     999902    2    1    2    0    0  0.11127764657E-01 -0.33484716205E-02 -0.17256684955E-01  0.10231253711E+01  0.10229138245E+01 0.  0.
     999903    2    3    3    0    0 -0.16866887356E-02  0.12700092247E+00  0.31628088427E-01  0.13208951557E+00  0.17754574605E-01 0.  0.
         14    1    1    2    0    0 -0.11127764657E-01  0.33484716205E-02  0.17256684955E-01  0.20804628911E-01  0.00000000000E+00 0. -1.
     999901    1    3    3    0    0  0.12814453393E-01 -0.13034939409E+00 -0.48884773382E-01  0.89103585552E+00  0.88000000000E+00 0.  1.
        -11    1    4    4    0    0 -0.81478494240E-02  0.76810514042E-01  0.24166070485E-01  0.80935175303E-01  0.51100000000E-03 0.  1.
         11    1    4    4    0    0  0.64611606884E-02  0.50190408425E-01  0.74620179421E-02  0.51154340266E-01  0.51100000000E-03 0. -1.
</event>
<event>
 8    1  0.1191842E+005  0.1043930E+01  0.7957747E-01            NaN
         13   -1    0    0    0    0  0.00000000000E+00  0.00000000000E+00  0.74505805969E-08  0.10566000000E+00  0.10566000000E+00 0.  1.
     999900   -1    0    0    0    0 -0.00000000000E+00 -0.00000000000E+00 -0.74505805969E-08  0.93827000000E+00  0.93827000000E+00 0.  1.
     999902    2    1    2    0    0 -0.25024688641E-02 -0.89294357609E-02  0.21761369520E-01  0.10202750982E+01  0.10200008440E+01 0.  0.
     999903    2    3    3    0    0 -0.10067832948E+00  0.20824840753E-01  0.80686370382E-01  0.13235845109E+00  0.20944431015E-01 0.  0.
         14    1    1    2    0    0  0.25024688641E-02  0.89294357609E-02 -0.21761369520E-01  0.23654901750E-01  0.00000000000E+00 0. -1.
     999901    1    3    3    0    0  0.98175860614E-01 -0.29754276514E-01 -0.58925000862E-01  0.88791664716E+00  0.88000000000E+00 0. -1.
        -11    1    4    4    0    0 -0.12259903869E-01  0.94121890410E-02  0.15669956056E-01  0.22015975772E-01  0.51100000000E-03 0. -1.
         11    1    4    4    0    0 -0.88418425609E-01  0.11412651712E-01  0.65016414326E-01  0.11034247532E+00  0.51100000000E-03 0.  1.
</event>
<event>
 8    1  0.1191842E+005  0.1043930E+01  0.7957747E-01            NaN
         13   -1    0    0    0    0  0.00000000000E+00  0.00000000000E+00  0.74505805969E-08  0.10566000000E+00  0.10566000000E+00 0. -1.
     999900   -1    0    0    0    0 -0.00000000000E+00 -0.00000000000E+00 -0.74505805969E-08  0.93827000000E+00  0.93827000000E+00 0.  1.
     999902    2    1    2    0    0 -0.18124816502E-01 -0.81906729453E-02 -0.12559585745E-01  0.10204068350E+01  0.10201356624E+01 0.  0.
     999903    2    3    3    0    0  0.29005208486E-01 -0.53469748182E-01  0.11232533784E+00  0.12918987039E+00  0.19306087138E-01 0.  0.
         14    1    1    2    0    0  0.18124816502E-01  0.81906729453E-02  0.12559585745E-01  0.23523164978E-01  0.00000000000E+00 0. -1.
     999901    1    3    3    0    0 -0.47130024988E-01  0.45279075237E-01 -0.12488492358E+00  0.89121696463E+00  0.88000000000E+00 0.  1.
        -11    1    4    4    0    0  0.23466237566E-01 -0.51787679646E-01  0.92946298227E-01  0.10895826515E+00  0.51100000000E-03 0.  1.
         11    1    4    4    0    0  0.55389709201E-02 -0.16820685360E-02  0.19379039612E-01  0.20231605243E-01  0.51100000000E-03 0. -1.
</event>
<event>
 8    1  0.1191842E+005  0.1043930E+01  0.7957747E-01            NaN
         13   -1    0    0    0    0  0.00000000000E+00  0.00000000000E+00  0.74505805969E-08  0.10566000000E+00  0.10566000000E+00 0. -1.
     999900   -1    0    0    0    0 -0.00000000000E+00 -0.00000000000E+00 -0.74505805969E-08  0.93827000000E+00  0.93827000000E+00 0.  1.
     999902    2    1    2    0    0 -0.18973366096E-01 -0.16263641766E-01 -0.29815690364E-02  0.10187628703E+01  0.10184519632E+01 0.  0.
     999903    2    3    3    0    0  0.34735439936E-02 -0.83702545996E-02  0.12705727624E+00  0.12888856982E+00  0.19661772953E-01 0.  0.
         14    1    1    2    0    0  0.18973366096E-01  0.16263641766E-01  0.29815690364E-02  0.25167129721E-01  0.00000000000E+00 0.  1.
     999901    1    3    3    0    0 -0.22446910089E-01 -0.78933871661E-02 -0.13003884527E+00  0.88987430046E+00  0.88000000000E+00 0.  1.
        -11    1    4    4    0    0  0.65670536456E-02  0.29456259069E-02  0.21462902033E-01  0.22643325512E-01  0.51100000000E-03 0.  1.
         11    1    4    4    0    0 -0.30935096520E-02 -0.11315880507E-01  0.10559437421E+00  0.10624524431E+00  0.51100000000E-03 0. -1.
</event>
<event>
 8    1  0.1191842E+005  0.1043930E+01  0.7957747E-01            NaN
         13   -1    0    0    0    0  0.00000000000E+00  0.00000000000E+00  0.74505805969E-08  0.10566000000E+00  0.10566000000E+00 0.  1.
     999900   -1    0    0    0    0 -0.00000000000E+00 -0.00000000000E+00 -0.74505805969E-08  0.93827000000E+00  0.93827000000E+00 0. -1.
     999902    2    1    2    0    0 -0.26044325188E-02 -0.20919825376E-01  0.11617994400E-01  0.10198592718E+01  0.10195751734E+01 0.  0.
     999903    2    3    3    0    0  0.36962673904E-02 -0.97585066464E-01 -0.83332591523E-01  0.13141519827E+00  0.28091385463E-01 0.  0.
         14    1    1    2    0    0  0.26044325188E-02  0.20919825376E-01 -0.11617994400E-01  0.24070728206E-01  0.00000000000E+00 0. -1.
     999901    1    3    3    0    0 -0.63006999092E-02  0.76665241088E-01  0.94950585922E-01  0.88844407352E+00  0.88000000000E+00 0.  1.
        -11    1    4    4    0    0  0.12578817439E-01 -0.21916656780E-01 -0.17727484902E-01  0.30872177354E-01  0.51100000000E-03 0.  1.
         11    1    4    4    0    0 -0.88825500490E-02 -0.75668409684E-01 -0.65605106621E-01  0.10054302092E+00  0.51100000000E-03 0. -1.
</event>
<event>
 8    1  0.1191842E+005  0.1043930E+01  0.7957747E-01            NaN
         13   -1    0    0    0    0  0.00000000000E+00  0.00000000000E+00  0.74505805969E-08  0.10566000000E+00  0.10566000000E+00 0.  1.
     999900   -1    0    0    0    0 -0.00000000000E+00 -0.00000000000E+00 -0.74505805969E-08  0.93827000000E+00  0.93827000000E+00 0.  1.
     999902    2    1    2    0    0  0.51513443254E-02  0.14308248732E-01 -0.17427741348E-01  0.10208001816E+01  0.10205381043E+01 0.  0.
     999903    2    3    3    0    0  0.58086446672E-01 -0.58964811444E-01 -0.10126508235E+00  0.13220591753E+00  0.19310708210E-01 0.  0.
         14    1    1    2    0    0 -0.51513443254E-02 -0.14308248732E-01  0.17427741348E-01  0.23129818387E-01  0.00000000000E+00 0.  1.
     999901    1    3    3    0    0 -0.52935102346E-01  0.73273060175E-01  0.83837341005E-01  0.88859426408E+00  0.88000000000E+00 0.  1.
        -11    1    4    4    0    0  0.30546168102E-01 -0.23187498498E-01 -0.58924305360E-01  0.70306922529E-01  0.51100000000E-03 0.  1.
         11    1    4    4    0    0  0.27540278570E-01 -0.35777312945E-01 -0.42340776993E-01  0.61898995005E-01  0.51100000000E-03 0. -1.
</event>
<event>
 8    1  0.1191842E+005  0.1043930E+01  0.7957747E-01            NaN
         13   -1    0    0    0    0  0.00000000000E+00  0.00000000000E+00  0.74505805969E-08  0.10566000000E+00  0.10566000000E+00 0. -1.
     999900   -1    0    0    0    0 -0.00000000000E+00 -0.00000000000E+00 -0.74505805969E-08  0.93827000000E+00  0.93827000000E+00 0.  1.
     999902    2    1    2    0    0  0.17041404871E-01  0.72929566755E-02 -0.12630450306E-01  0.10214995526E+01  0.10212532550E+01 0.  0.
     999903    2    3    3    0    0 -0.10359660421E+00 -0.52305321920E-01 -0.55632826816E-01  0.13023377378E+00  0.19942951395E-01 0.  0.
         14    1    1    2    0    0 -0.17041404871E-01 -0.72929566755E-02  0.12630450306E-01  0.22430447432E-01  0.00000000000E+00 0. -1.
     999901    1    3    3    0    0  0.12063800908E+00  0.59598278595E-01  0.43002376510E-01  0.89126577878E+00  0.88000000000E+00 0.  1.
        -11    1    4    4    0    0 -0.52306519724E-01 -0.35684528526E-01 -0.23973571819E-01  0.67707834469E-01  0.51100000000E-03 0.  1.
         11    1    4    4    0    0 -0.51290084482E-01 -0.16620793394E-01 -0.31659254998E-01  0.62525939315E-01  0.51100000000E-03 0. -1.
</event>
<event>
 8    1  0.1191842E+005  0.1043930E+01  0.7957747E-01            NaN
         13   -1    0    0    0    0  0.00000000000E+00  0.00000000000E+00  0.74505805969E-08  0.10566000000E+00  0.10566000000E+00 0.  1.
     999900   -1    0    0    0    0 -0.00000000000E+00 -0.00000000000E+00 -0.74505805969E-08  0.93827000000E+00  0.93827000000E+00 0.  1.
     999902    2    1    2    0    0  0.14732668455E-01 -0.16101482892E-02  0.18786734190E-01  0.10200012416E+01  0.10197205242E+01 0.  0.
     999903    2    3    3    0    0 -0.53262432798E-01  0.19633299335E-01 -0.11183064077E+00  0.12751285707E+00  0.23045244908E-01 0.  0.
         14    1    1    2    0    0 -0.14732668455E-01  0.16101482892E-02 -0.18786734190E-01  0.23928758406E-01  0.00000000000E+00 0. -1.
     999901    1    3    3    0    0  0.67995101253E-01 -0.21243447624E-01  0.13061737496E+00  0.89248838452E+00  0.88000000000E+00 0. -1.
        -11    1    4    4    0    0  0.49161863142E-03  0.39093893501E-02 -0.16269735667E-01  0.16747848628E-01  0.51100000000E-03 0. -1.
         11    1    4    4    0    0 -0.53754051429E-01  0.15723909985E-01 -0.95560905106E-01  0.11076500845E+00  0.51100000000E-03 0.  1.
</event>
<event>
 8    1  0.1191842E+005  0.1043930E+01  0.7957747E-01            NaN
         13   -1    0    0    0    0  0.00000000000E+00  0.00000000000E+00  0.74505805969E-08  0.10566000000E+00  0.10566000000E+00 0. -1.
     999900   -1    0    0    0    0 -0.00000000000E+00 -0.00000000000E+00 -0.74505805969E-08  0.93827000000E+00  0.93827000000E+00 0. -1.
     999902    2    1    2    0    0 -0.23073745650E-01  0.19250343879E-02  0.29186837387E-02  0.10205928577E+01  0.10203260062E+01 0.  0.
     999903    2    3    3    0    0  0.56188186256E-01 -0.20850077208E-01  0.11333015399E+00  0.12986739365E+00  0.20735914124E-01 0.  0.
         14    1    1    2    0    0  0.23073745650E-01 -0.19250343879E-02 -0.29186837387E-02  0.23337142294E-01  0.00000000000E+00 0. -1.
     999901    1    3    3    0    0 -0.79261931906E-01  0.22775111596E-01 -0.11041147025E+00  0.89072546406E+00  0.88000000000E+00 0.  1.
        -11    1    4    4    0    0  0.27733440369E-01 -0.25088569066E-02  0.66347995784E-01  0.71956624040E-01  0.51100000000E-03 0.  1.
         11    1    4    4    0    0  0.28454745887E-01 -0.18341220301E-01  0.46982158209E-01  0.57910769608E-01  0.51100000000E-03 0. -1.
</event>
<event>
 8    1  0.1191842E+005  0.1043930E+01  0.7957747E-01            NaN
         13   -1    0    0    0    0  0.00000000000E+00  0.00000000000E+00  0.74505805969E-08  0.10566000000E+00  0.10566000000E+00 0. -1.
     999900   -1    0    0    0    0 -0.00000000000E+00 -0.00000000000E+00 -0.74505805969E-08  0.93827000000E+00  0.93827000000E+00 0. -1.
     999902    2    1    2    0    0  0.45823517986E-02 -0.22395779605E-01  0.31179369518E-02  0.10208585800E+01  0.10205978394E+01 0.  0.
     999903    2    3    3    0    0 -0.10459657139E+00 -0.33862829107E-02 -0.74152736119E-01  0.13054843447E+00  0.24338360874E-01 0.  0.
         14    1    1    2    0    0 -0.45823517986E-02  0.22395779605E-01 -0.31179369518E-02  0.23071420046E-01  0.00000000000E+00 0.  1.
     999901    1    3    3    0    0  0.10917892319E+00 -0.19009496694E-01  0.77270673071E-01  0.89031014548E+00  0.88000000000E+00 0.  1.
        -11    1    4    4    0    0 -0.81964539917E-02 -0.29429885418E-02 -0.15267865318E-01  0.17584421286E-01  0.51100000000E-03 0.  1.
         11    1    4    4    0    0 -0.96400117399E-01 -0.44329436893E-03 -0.58884870801E-01  0.11296401318E+00  0.51100000000E-03 0. -1.
</event>
<event>
 8    1  0.1191842E+005  0.1043930E+01  0.7957747E-01            NaN
         13   -1    0    0    0    0  0.00000000000E+00  0.00000000000E+00  0.74505805969E-08  0.10566000000E+00  0.10566000000E+00 0. -1.
     999900   -1    0    0    0    0 -0.00000000000E+00 -0.00000000000E+00 -0.74505805969E-08  0.93827000000E+00  0.93827000000E+00 0.  1.
     999902    2    1    2    0    0  0.74187347270E-02  0.16828474021E-01  0.15078327604E-01  0.10201478402E+01  0.10198705921E+01 0.  0.
     999903    2    3    3    0    0 -0.69447210319E-01  0.69702850086E-01  0.86196287731E-01  0.13236304789E+00  0.20218162547E-01 0.  0.
         14    1    1    2    0    0 -0.74187347270E-02 -0.16828474021E-01 -0.15078327604E-01  0.23782159830E-01  0.00000000000E+00 0.  1.
     999901    1    3    3    0    0  0.76865945046E-01 -0.52874376065E-01 -0.71117960127E-01  0.88778479228E+00  0.88000000000E+00 0. -1.
        -11    1    4    4    0    0 -0.30566623408E-01  0.18036177731E-01  0.25800413421E-01  0.43881028103E-01  0.51100000000E-03 0. -1.
         11    1    4    4    0    0 -0.38880586911E-01  0.51666672355E-01  0.60395874310E-01  0.88482019786E-01  0.51100000000E-03 0.  1.
</event>
<event>
 8    1  0.1191842E+005  0.1043930E+01  0.7957747E-01            NaN
         13   -1    0    0    0    0  0.00000000000E+00  0.00000000000E+00  0.74505805969E-08  0.10566000000E+00  0.10566000000E+00 0.  1.
     999900   -1    0    0    0    0 -0.00000000000E+00 -0.00000000000E+00 -0.74505805969E-08  0.93827000000E+00  0.93827000000E+00 0.  1.
     999902    2    1    2    0    0  0.17237119636E-01 -0.10409407665E-01  0.77642599987E-02  0.10223485776E+01  0.10221207640E+01 0.  0.
     999903    2    3    3    0    0  0.69326304675E-01 -0.10006464399E-01  0.11299458471E+00  0.13454968885E+00  0.20726233259E-01 0.  0.
         14    1    1    2    0    0 -0.17237119636E-01  0.10409407665E-01 -0.77642599987E-02  0.21581422442E-01  0.00000000000E+00 0.  1.
     999901    1    3    3    0    0 -0.52089185039E-01 -0.40294326560E-03 -0.10523032471E+00  0.88779888871E+00  0.88000000000E+00 0.  1.
        -11    1    4    4    0    0  0.13883065511E-01  0.30745501620E-02  0.36480881031E-01  0.39157479088E-01  0.51100000000E-03 0.  1.
         11    1    4    4    0    0  0.55443239164E-01 -0.13081014561E-01  0.76513703677E-01  0.95392209757E-01  0.51100000000E-03 0. -1.
</event>
<event>
 8    1  0.1191842E+005  0.1043930E+01  0.7957747E-01            NaN
         13   -1    0    0    0    0  0.00000000000E+00  0.00000000000E+00  0.74505805969E-08  0.10566000000E+00  0.10566000000E+00 0.  1.
     999900   -1    0    0    0    0 -0.00000000000E+00 -0.00000000000E+00 -0.74505805969E-08  0.93827000000E+00  0.93827000000E+00 0. -1.
     999902    2    1    2    0    0 -0.93695179785E-02  0.20738124275E-01  0.61628366415E-02  0.10203537785E+01  0.10200813669E+01 0.  0.
     999903    2    3    3    0    0  0.68310456187E-01 -0.49110208547E-02  0.10937737666E+00  0.13055307141E+00  0.19754933034E-01 0.  0.
         14    1    1    2    0    0  0.93695179785E-02 -0.20738124275E-01 -0.61628366415E-02  0.23576221518E-01  0.00000000000E+00 0. -1.
     999901    1    3    3    0    0 -0.77679974165E-01  0.25649145130E-01 -0.10321454002E+00  0.88980070707E+00  0.88000000000E+00 0. -1.
        -11    1    4    4    0    0  0.42624708207E-01 -0.11931279645E-01  0.61621728805E-01  0.75873050325E-01  0.51100000000E-03 0. -1.
         11    1    4    4    0    0  0.25685747979E-01  0.70202587898E-02  0.47755647856E-01  0.54680021086E-01  0.51100000000E-03 0.  1.
</event>
<event>
 8    1  0.1191842E+005  0.1043930E+01  0.7957747E-01            NaN
         13   -1    0    0    0    0  0.00000000000E+00  0.00000000000E+00  0.74505805969E-08  0.10566000000E+00  0.10566000000E+00 0.  1.
     999900   -1    0    0    0    0 -0.00000000000E+00 -0.00000000000E+00 -0.74505805969E-08  0.93827000000E+00  0.93827000000E+00 0.  1.
     999902    2    1    2    0    0 -0.10584228406E-01 -0.19799416925E-01 -0.54252157875E-02  0.10208329056E+01  0.10205715778E+01 0.  0.
     999903    2    3    3    0    0  0.72791045230E-02 -0.10331596290E+00 -0.81460416925E-01  0.13343476279E+00  0.21020533847E-01 0.  0.
         14    1    1    2    0    0  0.10584228406E-01  0.19799416925E-01  0.54252157875E-02  0.23097094359E-01  0.00000000000E+00 0. -1.
     999901    1    3    3    0    0 -0.17863332929E-01  0.83516545978E-01  0.76035201137E-01  0.88739814285E+00  0.88000000000E+00 0. -1.
        -11    1    4    4    0    0 -0.80517317060E-03 -0.76285405780E-01 -0.50219841741E-01  0.91336767319E-01  0.51100000000E-03 0.  1.
         11    1    4    4    0    0  0.80842776936E-02 -0.27030557123E-01 -0.31240575184E-01  0.42097995475E-01  0.51100000000E-03 0. -1.
</event>
<event>
 8    1  0.1191842E+005  0.1043930E+01  0.7957747E-01            NaN
         13   -1    0    0    0    0  0.00000000000E+00  0.00000000000E+00  0.74505805969E-08  0.10566000000E+00  0.10566000000E+00 0. -1.
     999900   -1    0    0    0    0 -0.00000000000E+00 -0.00000000000E+00 -0.74505805969E-08  0.93827000000E+00  0.93827000000E+00 0. -1.
     999902    2    1    2    0    0 -0.23727791577E-01 -0.11788161237E-02  0.10917980070E-02  0.10201478697E+01  0.10198706223E+01 0.  0.
     999903    2    3    3    0    0 -0.14116760765E-01  0.11751950900E+00 -0.50921473983E-01  0.13060470333E+00  0.21318397918E-01 0.  0.
         14    1    1    2    0    0  0.23727791577E-01  0.11788161237E-02 -0.10917980070E-02  0.23782130339E-01  0.00000000000E+00 0.  1.
     999901    1    3    3    0    0 -0.96110308114E-02 -0.11869832512E+00  0.52013271990E-01  0.88954316633E+00  0.88000000000E+00 0.  1.
        -11    1    4    4    0    0 -0.10251481785E-02  0.57220515586E-01 -0.14842640232E-01  0.59125319642E-01  0.51100000000E-03 0. -1.
         11    1    4    4    0    0 -0.13091612587E-01  0.60298993413E-01 -0.36078833751E-01  0.71479383690E-01  0.51100000000E-03 0.  1.
</event>
<event>
 8    1  0.1191842E+005  0.1043930E+01  0.7957747E-01            NaN
         13   -1    0    0    0    0  0.00000000000E+00  0.00000000000E+00  0.74505805969E-08  0.10566000000E+00  0.10566000000E+00 0.  1.
     999900   -1    0    0    0    0 -0.00000000000E+00 -0.00000000000E+00 -0.74505805969E-08  0.93827000000E+00  0.93827000000E+00 0.  1.
     999902    2    1    2    0    0 -0.15772504666E-01  0.18147684056E-01  0.75953890622E-04  0.10198859548E+01  0.10196024935E+01 0.  0.
     999903    2    3    3    0    0 -0.11292001079E+00  0.96446719490E-02  0.64938128871E-01  0.13212639226E+00  0.19911665298E-01 0.  0.
         14    1    1    2    0    0  0.15772504666E-01 -0.18147684056E-01 -0.75953890622E-04  0.24044045189E-01  0.00000000000E+00 0. -1.
     999901    1    3    3    0    0  0.97147506128E-01  0.85030121070E-02 -0.64862174981E-01  0.88775956255E+00  0.88000000000E+00 0.  1.
        -11    1    4    4    0    0 -0.69415804416E-01  0.53014265244E-02  0.50766761755E-01  0.86163706084E-01  0.51100000000E-03 0.  1.
         11    1    4    4    0    0 -0.43504206378E-01  0.43432454247E-02  0.14171367116E-01  0.45962686174E-01  0.51100000000E-03 0. -1.
</event>
<event>
 8    1  0.1191842E+005  0.1043930E+01  0.7957747E-01            NaN
         13   -1    0    0    0    0  0.00000000000E+00  0.00000000000E+00  0.74505805969E-08  0.10566000000E+00  0.10566000000E+00 0.  1.
     999900   -1    0    0    0    0 -0.00000000000E+00 -0.00000000000E+00 -0.74505805969E-08  0.93827000000E+00  0.93827000000E+00 0.  1.
     999902    2    1    2    0    0 -0.13170688309E-01  0.92373973300E-02 -0.94484301932E-02  0.10252733826E+01  0.10251036239E+01 0.  0.
     999903    2    3    3    0    0 -0.11375793118E+00  0.72493342482E-01  0.11110947133E-01  0.13704942659E+00  0.21516053806E-01 0.  0.
         14    1    1    2    0    0  0.13170688309E-01 -0.92373973300E-02  0.94484301932E-02  0.18656617408E-01  0.00000000000E+00 0. -1.
     999901    1    3    3    0    0  0.10058724287E+00 -0.63255945152E-01 -0.20559377326E-01  0.88822395601E+00  0.88000000000E+00 0. -1.
        -11    1    4    4    0    0 -0.60661312926E-01  0.44133020564E-01  0.15816118962E-01  0.76667653741E-01  0.51100000000E-03 0. -1.
         11    1    4    4    0    0 -0.53096618253E-01  0.28360321918E-01 -0.47051718292E-02  0.60381772847E-01  0.51100000000E-03 0.  1.
</event>
<event>
 8    1  0.1191842E+005  0.1043930E+01  0.7957747E-01            NaN
         13   -1    0    0    0    0  0.00000000000E+00  0.00000000000E+00  0.74505805969E-08  0.10566000000E+00  0.10566000000E+00 0. -1.
     999900   -1    0    0    0    0 -0.00000000000E+00 -0.00000000000E+00 -0.74505805969E-08  0.93827000000E+00  0.93827000000E+00 0. -1.
     999902    2    1    2    0    0 -0.16947393656E-01 -0.92713871958E-02  0.12193226020E-01  0.10210860176E+01  0.10208304501E+01 0.  0.
     999903    2    3    3    0    0  0.29695331690E-01  0.12391659784E+00  0.15390691396E-01  0.12983700244E+00  0.19586676001E-01 0.  0.
         14    1    1    2    0    0  0.16947393656E-01  0.92713871958E-02 -0.12193226020E-01  0.22843982425E-01  0.00000000000E+00 0.  1.
     999901    1    3    3    0    0 -0.46642725346E-01 -0.13318798504E+00 -0.31974653761E-02  0.89124901513E+00  0.88000000000E+00 0.  1.
        -11    1    4    4    0    0  0.64970366413E-02  0.20953840531E-01 -0.45862273087E-02  0.22418062362E-01  0.51100000000E-03 0.  1.
         11    1    4    4    0    0  0.23198295049E-01  0.10296275731E+00  0.19976918704E-01  0.10741894008E+00  0.51100000000E-03 0. -1.
</event>
<event>
 8    1  0.1191842E+005  0.1043930E+01  0.7957747E-01            NaN
         13   -1    0    0    0    0  0.00000000000E+00  0.00000000000E+00  0.74505805969E-08  0.10566000000E+00  0.10566000000E+00 0.  1.
     999900   -1    0    0    0    0 -0.00000000000E+00 -0.00000000000E+00 -0.74505805969E-08  0.93827000000E+00  0.93827000000E+00 0.  1.
     999902    2    1    2    0    0 -0.26119059283E-02  0.19022373392E-01 -0.16826823457E-01  0.10183993375E+01  0.10180792679E+01 0.  0.
     999903    2    3    3    0    0 -0.28102380330E-01  0.11824553276E+00  0.43780173622E-01  0.13038570708E+00  0.17662933300E-01 0.  0.
         14    1    1    2    0    0  0.26119059283E-02 -0.19022373392E-01  0.16826823457E-01  0.25530662539E-01  0.00000000000E+00 0.  1.
     999901    1    3    3    0    0  0.25490474401E-01 -0.99223159363E-01 -0.60606997080E-01  0.88801363038E+00  0.88000000000E+00 0.  1.
        -11    1    4    4    0    0 -0.11889206744E-01  0.62609966405E-01  0.14085938132E-01  0.65268950538E-01  0.51100000000E-03 0. -1.
         11    1    4    4    0    0 -0.16213173585E-01  0.55635566350E-01  0.29694235490E-01  0.65116756547E-01  0.51100000000E-03 0.  1.
</event>
<event>
 8    1  0.1191842E+005  0.1043930E+01  0.7957747E-01            NaN
         13   -1    0    0    0    0  0.00000000000E+00  0.00000000000E+00  0.74505805969E-08  0.10566000000E+00  0.10566000000E+00 0.  1.
     999900   -1    0    0    0    0 -0.00000000000E+00 -0.00000000000E+00 -0.74505805969E-08  0.93827000000E+00  0.93827000000E+00 0.  1.
     999902    2    1    2    0    0  0.23009796729E-01 -0.58306840147E-02  0.75511736075E-02  0.10190208080E+01  0.10187163194E+01 0.  0.
     999903    2    3    3    0    0 -0.48390112354E-01  0.45350234607E-01  0.10852427282E+00  0.12890115304E+00  0.20970043178E-01 0.  0.
         14    1    1    2    0    0 -0.23009796729E-01  0.58306840147E-02 -0.75511736075E-02  0.24909191967E-01  0.00000000000E+00 0. -1.
     999901    1    3    3    0    0  0.71399909083E-01 -0.51180918622E-01 -0.10097309921E+00  0.89011965500E+00  0.88000000000E+00 0. -1.
        -11    1    4    4    0    0 -0.33430742014E-01  0.40007768819E-01  0.93369350646E-01  0.10694079127E+00  0.51100000000E-03 0. -1.
         11    1    4    4    0    0 -0.14959370339E-01  0.53424657887E-02  0.15154922172E-01  0.21960361762E-01  0.51100000000E-03 0.  1.
</event>
<event>
 8    1  0.1191842E+005  0.1043930E+01  0.7957747E-01            NaN
         13   -1    0    0    0    0  0.00000000000E+00  0.00000000000E+00  0.74505805969E-08  0.10566000000E+00  0.10566000000E+00 0.  1.
     999900   -1    0    0    0    0 -0.00000000000E+00 -0.00000000000E+00 -0.74505805969E-08  0.93827000000E+00  0.93827000000E+00 0. -1.
     999902    2    1    2    0    0 -0.89338648710E-02 -0.10938397956E-01  0.19005327649E-01  0.10202516350E+01  0.10199768300E+01 0.  0.
     999903    2    3    3    0    0 -0.30589642496E-01  0.83747411539E-01 -0.89901799580E-01  0.12823418134E+00  0.20305578751E-01 0.  0.
         14    1    1    2    0    0  0.89338648710E-02  0.10938397956E-01 -0.19005327649E-01  0.23678365028E-01  0.00000000000E+00 0. -1.
     999901    1    3    3    0    0  0.21655777625E-01 -0.94685809495E-01  0.10890712723E+00  0.89201745363E+00  0.88000000000E+00 0.  1.
        -11    1    4    4    0    0 -0.10134795256E-01  0.31228252108E-01 -0.20031616903E-01  0.38463548996E-01  0.51100000000E-03 0. -1.
         11    1    4    4    0    0 -0.20454847239E-01  0.52519159431E-01 -0.69870182677E-01  0.89770632343E-01  0.51100000000E-03 0.  1.
</event>
<event>
 8    1  0.1191842E+005  0.1043930E+01  0.7957747E-01            NaN
         13   -1    0    0    0    0  0.00000000000E+00  0.00000000000E+00  0.74505805969E-08  0.10566000000E+00  0.10566000000E+00 0.  1.
     999900   -1    0    0    0    0 -0.00000000000E+00 -0.00000000000E+00 -0.74505805969E-08  0.93827000000E+00  0.93827000000E+00 0.  1.
     999902    2    1    2    0    0  0.11602058613E-01 -0.12907230637E-01  0.16686418610E-01  0.10198542667E+01  0.10195700488E+01 0.  0.
     999903    2    3    3    0    0 -0.62869956204E-02 -0.12236875338E+00 -0.41865427365E-01  0.13096160622E+00  0.19610970873E-01 0.  0.
         14    1    1    2    0    0 -0.11602058613E-01  0.12907230637E-01 -0.16686418610E-01  0.24075733276E-01  0.00000000000E+00 0. -1.
     999901    1    3    3    0    0  0.17889054233E-01  0.10946152274E+00  0.58551845975E-01  0.88889266050E+00  0.88000000000E+00 0. -1.
        -11    1    4    4    0    0  0.43474700957E-02 -0.60509693105E-01 -0.27288988962E-01  0.66522729165E-01  0.51100000000E-03 0.  1.
         11    1    4    4    0    0 -0.10634465716E-01 -0.61859060275E-01 -0.14576438403E-01  0.64438877060E-01  0.51100000000E-03 0. -1.
</event>
<event>
 8    1  0.1191842E+005  0.1043930E+01  0.7957747E-01            NaN
         13   -1    0    0    0    0  0.00000000000E+00  0.00000000000E+00  0.74505805969E-08  0.10566000000E+00  0.10566000000E+00 0.  1.
     999900   -1    0    0    0    0 -0.00000000000E+00 -0.00000000000E+00 -0.74505805969E-08  0.93827000000E+00  0.93827000000E+00 0.  1.
     999902    2    1    2    0    0 -0.17206638308E-01 -0.11834578049E-01 -0.11469805246E-01  0.10201039203E+01  0.10198256352E+01 0.  0.
     999903    2    3    3    0    0 -0.12857152820E+00 -0.25021005581E-01 -0.96041400190E-02  0.13298526916E+00  0.20884293681E-01 0.  0.
         14    1    1    2    0    0  0.17206638308E-01  0.11834578049E-01  0.11469805246E-01  0.23826079657E-01  0.00000000000E+00 0.  1.
     999901    1    3    3    0    0  0.11136488990E+00  0.13186427532E-01 -0.18656652270E-02  0.88711865118E+00  0.88000000000E+00 0. -1.
        -11    1    4    4    0    0 -0.10743572443E+00 -0.28391216858E-01 -0.61073589891E-02  0.11129266388E+00  0.51100000000E-03 0.  1.
         11    1    4    4    0    0 -0.21135803774E-01  0.33702112770E-02 -0.34967810299E-02  0.21692605279E-01  0.51100000000E-03 0. -1.
</event>
<event>
 8    1  0.1191842E+005  0.1043930E+01  0.7957747E-01            NaN
         13   -1    0    0    0    0  0.00000000000E+00  0.00000000000E+00  0.74505805969E-08  0.10566000000E+00  0.10566000000E+00 0. -1.
     999900   -1    0    0    0    0 -0.00000000000E+00 -0.00000000000E+00 -0.74505805969E-08  0.93827000000E+00  0.93827000000E+00 0.  1.
     999902    2    1    2    0    0  0.14702755998E-01  0.12640553008E-01 -0.13429048244E-01  0.10203441154E+01  0.10200714779E+01 0.  0.
     999903    2    3    3    0    0 -0.10605411906E+00 -0.10780133500E-01 -0.71502127478E-01  0.12989297473E+00  0.19898321615E-01 0.  0.
         14    1    1    2    0    0 -0.14702755998E-01 -0.12640553008E-01  0.13429048244E-01  0.23585884572E-01  0.00000000000E+00 0. -1.
     999901    1    3    3    0    0  0.12075687506E+00  0.23420686508E-01  0.58073079234E-01  0.89045114069E+00  0.88000000000E+00 0.  1.
        -11    1    4    4    0    0 -0.36434204416E-01 -0.13188048967E-01 -0.26963086032E-01  0.47208526945E-01  0.51100000000E-03 0.  1.
         11    1    4    4    0    0 -0.69619914647E-01  0.24079154666E-02 -0.44539041445E-01  0.82684447789E-01  0.51100000000E-03 0. -1.
</event>
<event>
 8    1  0.1191842E+005  0.1043930E+01  0.7957747E-01            NaN
         13   -1    0    0    0    0  0.00000000000E+00  0.00000000000E+00  0.74505805969E-08  0.10566000000E+00  0.10566000000E+00 0. -1.
     999900   -1    0    0    0    0 -0.00000000000E+00 -0.00000000000E+00 -0.74505805969E-08  0.93827000000E+00  0.93827000000E+00 0.  1.
     999902    2    1    2    0    0  0.21365224127E-01 -0.81729014149E-02  0.70616523045E-02  0.10199897399E+01  0.10197087493E+01 0.  0.
     999903    2    3    3    0    0  0.64553921320E-01  0.65619416716E-01  0.91898807691E-01  0.13178485775E+00  0.21183514061E-01 0.  0.
         14    1    1    2    0    0 -0.21365224127E-01  0.81729014149E-02 -0.70616523045E-02  0.23940260082E-01  0.00000000000E+00 0.  1.
     999901    1    3    3    0    0 -0.43188697193E-01 -0.73792318131E-01 -0.84837155387E-01  0.88820488217E+00  0.88000000000E+00 0.  1.
        -11    1    4    4    0    0  0.14816674512E-01  0.16193579117E-01  0.35750742572E-01  0.41954053007E-01  0.51100000000E-03 0. -1.
         11    1    4    4    0    0  0.49737246809E-01  0.49425837599E-01  0.56148065119E-01  0.89830804739E-01  0.51100000000E-03 0.  1.
</event>
<event>
 8    1  0.1191842E+005  0.1043930E+01  0.7957747E-01            NaN
         13   -1    0    0    0    0  0.00000000000E+00  0.00000000000E+00  0.74505805969E-08  0.10566000000E+00  0.10566000000E+00 0. -1.
     999900   -1    0    0    0    0 -0.00000000000E+00 -0.00000000000E+00 -0.74505805969E-08  0.93827000000E+00  0.93827000000E+00 0. -1.
     999902    2    1    2    0    0  0.50872371842E-02 -0.14260351391E-02  0.22198577501E-01  0.10211113585E+01  0.10208563640E+01 0.  0.
     999903    2    3    3    0    0  0.30070791357E-01  0.86334320092E-01 -0.89311107902E-01  0.12939365209E+00  0.20208312337E-01 0.  0.
         14    1    1    2    0    0 -0.50872371842E-02  0.14260351391E-02 -0.22198577501E-01  0.22818641534E-01  0.00000000000E+00 0.  1.
     999901    1    3    3    0    0 -0.24983554173E-01 -0.87760355231E-01  0.11150968540E+00  0.89171770638E+00  0.88000000000E+00 0.  1.
        -11    1    4    4    0    0  0.91121421022E-02  0.34988345738E-01 -0.48687961294E-01  0.60646468712E-01  0.51100000000E-03 0.  1.
         11    1    4    4    0    0  0.20958649255E-01  0.51345974354E-01 -0.40623146607E-01  0.68747183376E-01  0.51100000000E-03 0. -1.
</event>
<event>
 8    1  0.1191842E+005  0.1043930E+01  0.7957747E-01            NaN
         13   -1    0    0    0    0  0.00000000000E+00  0.00000000000E+00  0.74505805969E-08  0.10566000000E+00  0.10566000000E+00 0. -1.
     999900   -1    0    0    0    0 -0.00000000000E+00 -0.00000000000E+00 -0.74505805969E-08  0.93827000000E+00  0.93827000000E+00 0. -1.
     999902    2    1    2    0    0 -0.14009724255E-01 -0.97340817800E-02  0.15864563574E-01  0.10206338823E+01  0.10203679790E+01 0.  0.
     999903    2    3    3    0    0  0.10610103942E-01  0.12482384794E+00 -0.24020949798E-01  0.12917281947E+00  0.20372627246E-01 0.  0.
         14    1    1    2    0    0  0.14009724255E-01  0.97340817800E-02 -0.15864563574E-01  0.23296117685E-01  0.00000000000E+00 0.  1.
     999901    1    3    3    0    0 -0.24619828197E-01 -0.13455792972E+00  0.39885513372E-01  0.89146106284E+00  0.88000000000E+00 0.  1.
        -11    1    4    4    0    0 -0.35410023137E-02  0.72047775259E-01 -0.16672358492E-01  0.74038160943E-01  0.51100000000E-03 0. -1.
         11    1    4    4    0    0  0.14151106256E-01  0.52776072679E-01 -0.73485913062E-02  0.55134658527E-01  0.51100000000E-03 0.  1.
</event>
<event>
 8    1  0.1191842E+005  0.1043930E+01  0.7957747E-01            NaN
         13   -1    0    0    0    0  0.00000000000E+00  0.00000000000E+00  0.74505805969E-08  0.10566000000E+00  0.10566000000E+00 0. -1.
     999900   -1    0    0    0    0 -0.00000000000E+00 -0.00000000000E+00 -0.74505805969E-08  0.93827000000E+00  0.93827000000E+00 0.  1.
     999902    2    1    2    0    0 -0.18893601910E-01  0.13135855615E-01 -0.85534117235E-02  0.10193804634E+01  0.10190848097E+01 0.  0.
     999903    2    3    3    0    0 -0.76116072594E-01 -0.41085718262E-01  0.94408722605E-01  0.12987746096E+00  0.21759025903E-01 0.  0.
         14    1    1    2    0    0  0.18893601910E-01 -0.13135855615E-01  0.85534117235E-02  0.24549536615E-01  0.00000000000E+00 0.  1.
     999901    1    3    3    0    0  0.57222470684E-01  0.54221573877E-01 -0.10296213433E+00  0.88950300243E+00  0.88000000000E+00 0.  1.
        -11    1    4    4    0    0 -0.52283530536E-01 -0.17961690196E-01  0.50954209554E-01  0.75184988344E-01  0.51100000000E-03 0.  1.
         11    1    4    4    0    0 -0.23832542059E-01 -0.23124028066E-01  0.43454513051E-01  0.54692472612E-01  0.51100000000E-03 0. -1.
</event>
<event>
 8    1  0.1191842E+005  0.1043930E+01  0.7957747E-01            NaN
         13   -1    0    0    0    0  0.00000000000E+00  0.00000000000E+00  0.74505805969E-08  0.10566000000E+00  0.10566000000E+00 0. -1.
     999900   -1    0    0    0    0 -0.00000000000E+00 -0.00000000000E+00 -0.74505805969E-08  0.93827000000E+00  0.93827000000E+00 0.  1.
     999902    2    1    2    0    0 -0.36210999436E-02  0.16813911299E-01  0.14826575675E-01  0.10212221308E+01  0.10209696338E+01 0.  0.
     999903    2    3    3    0    0 -0.10814588075E+00 -0.20313740033E-01 -0.67255839798E-01  0.13046884551E+00  0.19763403163E-01 0.  0.
         14    1    1    2    0    0  0.36210999436E-02 -0.16813911299E-01 -0.14826575675E-01  0.22707869213E-01  0.00000000000E+00 0.  1.
     999901    1    3    3    0    0  0.10452478081E+00  0.37127651332E-01  0.82082415473E-01  0.89075328527E+00  0.88000000000E+00 0.  1.
        -11    1    4    4    0    0 -0.18621448810E-01 -0.27255736041E-02 -0.34656418910E-02  0.19143116308E-01  0.51100000000E-03 0. -1.
         11    1    4    4    0    0 -0.89524431943E-01 -0.17588166428E-01 -0.63790197907E-01  0.11132572920E+00  0.51100000000E-03 0.  1.
</event>
<event>
 8    1  0.1191842E+005  0.1043930E+01  0.7957747E-01            NaN
         13   -1    0    0    0    0  0.00000000000E+00  0.00000000000E+00  0.74505805969E-08  0.10566000000E+00  0.10566000000E+00 0. -1.
     999900   -1    0    0    0    0 -0.00000000000E+00 -0.00000000000E+00 -0.74505805969E-08  0.93827000000E+00  0.93827000000E+00 0.  1.
     999902    2    1    2    0    0 -0.16377954734E-02 -0.23156594053E-01 -0.25905017379E-02  0.10205714701E+01  0.10203041236E+01 0.  0.
     999903    2    3    3    0    0 -0.28974422137E-01 -0.14784800389E-02  0.12569813342E+00  0.13058539954E+00  0.20268763845E-01 0.  0.
         14    1    1    2    0    0  0.16377954734E-02  0.23156594053E-01  0.25905017379E-02  0.23358529950E-01  0.00000000000E+00 0. -1.
     999901    1    3    3    0    0  0.27336626664E-01 -0.21678114014E-01 -0.12828863516E+00  0.88998607051E+00  0.88000000000E+00 0.  1.
        -11    1    4    4    0    0 -0.13323754570E-01  0.59116829631E-02  0.86669260778E-01  0.87887953191E-01  0.51100000000E-03 0.  1.
         11    1    4    4    0    0 -0.15650667567E-01 -0.73901630020E-02  0.39028872641E-01  0.42697446353E-01  0.51100000000E-03 0. -1.
</event>
<event>
 8    1  0.1191842E+005  0.1043930E+01  0.7957747E-01            NaN
         13   -1    0    0    0    0  0.00000000000E+00  0.00000000000E+00  0.74505805969E-08  0.10566000000E+00  0.10566000000E+00 0.  1.
     999900   -1    0    0    0    0 -0.00000000000E+00 -0.00000000000E+00 -0.74505805969E-08  0.93827000000E+00  0.93827000000E+00 0.  1.
     999902    2    1    2    0    0 -0.11188857660E-01  0.10572572957E-01 -0.17937652026E-01  0.10202925468E+01  0.10200187017E+01 0.  0.
     999903    2    3    3    0    0 -0.67585796488E-01  0.19716145815E-01 -0.11158700115E+00  0.13348116873E+00  0.20223681362E-01 0.  0.
         14    1    1    2    0    0  0.11188857660E-01 -0.10572572957E-01  0.17937652026E-01  0.23637453223E-01  0.00000000000E+00 0.  1.
     999901    1    3    3    0    0  0.56396938828E-01 -0.91435728586E-02  0.93649349126E-01  0.88681137804E+00  0.88000000000E+00 0. -1.
        -11    1    4    4    0    0 -0.40761832942E-01  0.14805771088E-02 -0.63647065892E-01  0.75597151077E-01  0.51100000000E-03 0. -1.
         11    1    4    4    0    0 -0.26823963547E-01  0.18235568706E-01 -0.47939935260E-01  0.57884017657E-01  0.51100000000E-03 0.  1.
</event>
<event>
 8    1  0.1191842E+005  0.1043930E+01  0.7957747E-01            NaN
         13   -1    0    0    0    0  0.00000000000E+00  0.00000000000E+00  0.74505805969E-08  0.10566000000E+00  0.10566000000E+00 0. -1.
     999900   -1    0    0    0    0 -0.00000000000E+00 -0.00000000000E+00 -0.74505805969E-08  0.93827000000E+00  0.93827000000E+00 0. -1.
     999902    2    1    2    0    0 -0.13811497885E-01 -0.10057586935E-01 -0.15174230005E-01  0.10210789653E+01  0.10208232382E+01 0.  0.
     999903    2    3    3    0    0 -0.93429999691E-01 -0.33849398049E-01  0.83935782612E-01  0.13162522809E+00  0.20125567735E-01 0.  0.
         14    1    1    2    0    0  0.13811497885E-01  0.10057586935E-01  0.15174230005E-01  0.22851034660E-01  0.00000000000E+00 0. -1.
     999901    1    3    3    0    0  0.79618501805E-01  0.23791811113E-01 -0.99110012618E-01  0.88945373725E+00  0.88000000000E+00 0. -1.
        -11    1    4    4    0    0 -0.80731676005E-01 -0.35965156341E-01  0.75359454451E-01  0.11614820049E+00  0.51100000000E-03 0. -1.
         11    1    4    4    0    0 -0.12698323685E-01  0.21157582923E-02  0.85763281618E-02  0.15477027599E-01  0.51100000000E-03 0.  1.
</event>
<event>
 8    1  0.1191842E+005  0.1043930E+01  0.7957747E-01            NaN
         13   -1    0    0    0    0  0.00000000000E+00  0.00000000000E+00  0.74505805969E-08  0.10566000000E+00  0.10566000000E+00 0. -1.
     999900   -1    0    0    0    0 -0.00000000000E+00 -0.00000000000E+00 -0.74505805969E-08  0.93827000000E+00  0.93827000000E+00 0. -1.
     999902    2    1    2    0    0  0.14156474777E-01  0.19364785622E-01 -0.24923334539E-02  0.10198133579E+01  0.10195281617E+01 0.  0.
     999903    2    3    3    0    0 -0.11198579943E+00  0.50832354114E-01 -0.35797608032E-01  0.12963847479E+00  0.19997947540E-01 0.  0.
         14    1    1    2    0    0 -0.14156474777E-01 -0.19364785622E-01  0.24923334539E-02  0.24116642103E-01  0.00000000000E+00 0.  1.
     999901    1    3    3    0    0  0.12614227420E+00 -0.31467568492E-01  0.33305274578E-01  0.89017488311E+00  0.88000000000E+00 0.  1.
        -11    1    4    4    0    0 -0.80923259092E-01  0.34487901058E-01 -0.16239108053E-01  0.89453669197E-01  0.51100000000E-03 0. -1.
         11    1    4    4    0    0 -0.31062540335E-01  0.16344453056E-01 -0.19558499978E-01  0.40184805588E-01  0.51100000000E-03 0.  1.
</event>
<event>
 8    1  0.1191842E+005  0.1043930E+01  0.7957747E-01            NaN
         13   -1    0    0    0    0  0.00000000000E+00  0.00000000000E+00  0.74505805969E-08  0.10566000000E+00  0.10566000000E+00 0.  1.
     999900   -1    0    0    0    0 -0.00000000000E+00 -0.00000000000E+00 -0.74505805969E-08  0.93827000000E+00  0.93827000000E+00 0.  1.
     999902    2    1    2    0    0 -0.23261945397E-01  0.19385122809E-02 -0.25574211571E-02  0.10204477442E+01  0.10201775249E+01 0.  0.
     999903    2    3    3    0    0 -0.10370789822E+00  0.81368565748E-01  0.35405924982E-02  0.13319475297E+00  0.18765254525E-01 0.  0.
         14    1    1    2    0    0  0.23261945397E-01 -0.19385122809E-02  0.25574211571E-02  0.23482255779E-01  0.00000000000E+00 0. -1.
     999901    1    3    3    0    0  0.80445952823E-01 -0.79430053467E-01 -0.60980136553E-02  0.88725299125E+00  0.88000000000E+00 0.  1.
        -11    1    4    4    0    0 -0.24522268053E-01  0.23177093092E-01  0.85014865872E-02  0.34800225140E-01  0.51100000000E-03 0. -1.
         11    1    4    4    0    0 -0.79185630167E-01  0.58191472656E-01 -0.49608940890E-02  0.98394527826E-01  0.51100000000E-03 0.  1.
</event>
<event>
 8    1  0.1191842E+005  0.1043930E+01  0.7957747E-01            NaN
         13   -1    0    0    0    0  0.00000000000E+00  0.00000000000E+00  0.74505805969E-08  0.10566000000E+00  0.10566000000E+00 0. -1.
     999900   -1    0    0    0    0 -0.00000000000E+00 -0.00000000000E+00 -0.74505805969E-08  0.93827000000E+00  0.93827000000E+00 0. -1.
     999902    2    1    2    0    0  0.18814098757E-01  0.54723679512E-02  0.16455120806E-01  0.10183431259E+01  0.10180216275E+01 0.  0.
     999903    2    3    3    0    0 -0.75821664238E-01 -0.66490792035E-01  0.76514496289E-01  0.12831966973E+00  0.21012360746E-01 0.  0.
         14    1    1    2    0    0 -0.18814098757E-01 -0.54723679512E-02 -0.16455120806E-01  0.25586874052E-01  0.00000000000E+00 0. -1.
     999901    1    3    3    0    0  0.94635762995E-01  0.71963159986E-01 -0.60059375483E-01  0.89002345622E+00  0.88000000000E+00 0. -1.
        -11    1    4    4    0    0 -0.54582807474E-01 -0.37946213298E-01  0.57919345581E-01  0.88170911807E-01  0.51100000000E-03 0. -1.
         11    1    4    4    0    0 -0.21238856764E-01 -0.28544578738E-01  0.18595150708E-01  0.40148757924E-01  0.51100000000E-03 0.  1.
</event>
<event>
 8    1  0.1191842E+005  0.1043930E+01  0.7957747E-01            NaN
         13   -1    0    0    0    0  0.00000000000E+00  0.00000000000E+00  0.74505805969E-08  0.10566000000E+00  0.10566000000E+00 0. -1.
     999900   -1    0    0    0    0 -0.00000000000E+00 -0.00000000000E+00 -0.74505805969E-08  0.93827000000E+00  0.93827000000E+00 0. -1.
     999902    2    1    2    0    0  0.41086695146E-02 -0.24337291491E-01  0.65275217636E-02  0.10183997540E+01  0.10180796950E+01 0.  0.
     999903    2    3    3    0    0  0.55179178321E-01 -0.95243811798E-01  0.69567963775E-01  0.13182768762E+00  0.20559966768E-01 0.  0.
         14    1    1    2    0    0 -0.41086695146E-02  0.24337291491E-01 -0.65275217636E-02  0.25530246036E-01  0.00000000000E+00 0. -1.
     999901    1    3    3    0    0 -0.51070508807E-01  0.70906520307E-01 -0.63040442011E-01  0.88657206634E+00  0.88000000000E+00 0.  1.
        -11    1    4    4    0    0  0.36801527165E-01 -0.44194812350E-01  0.31809382438E-01  0.65723905639E-01  0.51100000000E-03 0. -1.
         11    1    4    4    0    0  0.18377651156E-01 -0.51048999448E-01  0.37758581337E-01  0.66103781981E-01  0.51100000000E-03 0.  1.
</event>
<event>
 8    1  0.1191842E+005  0.1043930E+01  0.7957747E-01            NaN
         13   -1    0    0    0    0  0.00000000000E+00  0.00000000000E+00  0.74505805969E-08  0.10566000000E+00  0.10566000000E+00 0.  1.
     999900   -1    0    0    0    0 -0.00000000000E+00 -0.00000000000E+00 -0.74505805969E-08  0.93827000000E+00  0.93827000000E+00 0. -1.
     999902    2    1    2    0    0  0.11783369947E-01 -0.16365794844E-01  0.11183110559E-01  0.10208703164E+01  0.10206098441E+01 0.  0.
     999903    2    3    3    0    0 -0.27977073019E-01 -0.46220778429E-01 -0.11682541040E+00  0.13021977079E+00  0.19746777380E-01 0.  0.
         14    1    1    2    0    0 -0.11783369947E-01  0.16365794844E-01 -0.11183110559E-01  0.23059683648E-01  0.00000000000E+00 0. -1.
     999901    1    3    3    0    0  0.39760442966E-01  0.29854983586E-01  0.12800852096E+00  0.89065054556E+00  0.88000000000E+00 0.  1.
        -11    1    4    4    0    0 -0.53217500847E-02 -0.27743412895E-01 -0.59544690621E-01  0.65907884848E-01  0.51100000000E-03 0. -1.
         11    1    4    4    0    0 -0.22655322934E-01 -0.18477365534E-01 -0.57280719778E-01  0.64311885943E-01  0.51100000000E-03 0.  1.
</event>
<event>
 8    1  0.1191842E+005  0.1043930E+01  0.7957747E-01            NaN
         13   -1    0    0    0    0  0.00000000000E+00  0.00000000000E+00  0.74505805969E-08  0.10566000000E+00  0.10566000000E+00 0.  1.
     999900   -1    0    0    0    0 -0.00000000000E+00 -0.00000000000E+00 -0.74505805969E-08  0.93827000000E+00  0.93827000000E+00 0.  1.
     999902    2    1    2    0    0 -0.23496564378E-01  0.92786059632E-02 -0.10244449801E-01  0.10166695925E+01  0.10163040541E+01 0.  0.
     999903    2    3    3    0    0  0.55712536091E-02 -0.12375737659E+00 -0.12951778757E-01  0.12619172059E+00  0.20240421098E-01 0.  0.
         14    1    1    2    0    0  0.23496564378E-01 -0.92786059632E-02  0.10244449801E-01  0.27260407515E-01  0.00000000000E+00 0.  1.
     999901    1    3    3    0    0 -0.29067817987E-01  0.13303598255E+00  0.27073289568E-02  0.89047787189E+00  0.88000000000E+00 0. -1.
        -11    1    4    4    0    0 -0.65963415186E-02 -0.72549903479E-01 -0.59732457447E-02  0.73095423947E-01  0.51100000000E-03 0. -1.
         11    1    4    4    0    0  0.12167595128E-01 -0.51207473111E-01 -0.69785330127E-02  0.53096296647E-01  0.51100000000E-03 0.  1.
</event>
<event>
 8    1  0.1191842E+005  0.1043930E+01  0.7957747E-01            NaN
         13   -1    0    0    0    0  0.00000000000E+00  0.00000000000E+00  0.74505805969E-08  0.10566000000E+00  0.10566000000E+00 0.  1.
     999900   -1    0    0    0    0 -0.00000000000E+00 -0.00000000000E+00 -0.74505805969E-08  0.93827000000E+00  0.93827000000E+00 0. -1.
     999902    2    1    2    0    0  0.74320476564E-02 -0.17105226247E-01  0.14507481994E-01  0.10203018149E+01  0.10200281870E+01 0.  0.
     999903    2    3    3    0    0  0.23202654702E-01 -0.12598305091E+00  0.33666012168E-01  0.13324480319E+00  0.14514988769E-01 0.  0.
         14    1    1    2    0    0 -0.74320476564E-02  0.17105226247E-01 -0.14507481994E-01  0.23628185101E-01  0.00000000000E+00 0. -1.
     999901    1    3    3    0    0 -0.15770607045E-01  0.10887782466E+00 -0.19158530173E-01  0.88705701171E+00  0.88000000000E+00 0.  1.
        -11    1    4    4    0    0  0.58638116175E-02 -0.60938959882E-01  0.21156328490E-01  0.64774937085E-01  0.51100000000E-03 0.  1.
         11    1    4    4    0    0  0.17338843084E-01 -0.65044091029E-01  0.12509683678E-01  0.68469866102E-01  0.51100000000E-03 0. -1.
</event>
<event>
 8    1  0.1191842E+005  0.1043930E+01  0.7957747E-01            NaN
         13   -1    0    0    0    0  0.00000000000E+00  0.00000000000E+00  0.74505805969E-08  0.10566000000E+00  0.10566000000E+00 0. -1.
     999900   -1    0    0    0    0 -0.00000000000E+00 -0.00000000000E+00 -0.74505805969E-08  0.93827000000E+00  0.93827000000E+00 0.  1.
     999902    2    1    2    0    0  0.90968939052E-02 -0.17569448054E-01  0.14032606468E-01  0.10196740105E+01  0.10193854691E+01 0.  0.
     999903    2    3    3    0    0  0.63477854550E-01 -0.59194239993E-01 -0.95059024538E-01  0.13029732080E+00  0.20193503755E-01 0.  0.
         14    1    1    2    0    0 -0.90968939052E-02  0.17569448054E-01 -0.14032606468E-01  0.24255989527E-01  0.00000000000E+00 0.  1.
     999901    1    3    3    0    0 -0.54380960644E-01  0.41624791939E-01  0.10909163101E+00  0.88937668968E+00  0.88000000000E+00 0. -1.
        -11    1    4    4    0    0  0.47266325838E-01 -0.31834433601E-01 -0.55641815912E-01  0.79648035255E-01  0.51100000000E-03 0.  1.
         11    1    4    4    0    0  0.16211528711E-01 -0.27359806392E-01 -0.39417208626E-01  0.50649285541E-01  0.51100000000E-03 0. -1.
</event>
<event>
 8    1  0.1191842E+005  0.1043930E+01  0.7957747E-01            NaN
         13   -1    0    0    0    0  0.00000000000E+00  0.00000000000E+00  0.74505805969E-08  0.10566000000E+00  0.10566000000E+00 0. -1.
     999900   -1    0    0    0    0 -0.00000000000E+00 -0.00000000000E+00 -0.74505805969E-08  0.93827000000E+00  0.93827000000E+00 0. -1.
     999902    2    1    2    0    0 -0.18815812880E-01  0.14159541319E-01  0.39926601729E-02  0.10200455121E+01  0.10197658447E+01 0.  0.
     999903    2    3    3    0    0  0.22303140168E-01  0.10817412155E+00 -0.67861793378E-01  0.13117399607E+00  0.20058006166E-01 0.  0.
         14    1    1    2    0    0  0.18815812880E-01 -0.14159541319E-01 -0.39926601729E-02  0.23884487852E-01  0.00000000000E+00 0.  1.
     999901    1    3    3    0    0 -0.41118953048E-01 -0.94014580228E-01  0.71854453550E-01  0.88887151608E+00  0.88000000000E+00 0.  1.
        -11    1    4    4    0    0  0.30272931173E-02  0.27059164413E-01 -0.26905595041E-01  0.38282307243E-01  0.51100000000E-03 0.  1.
         11    1    4    4    0    0  0.19275847051E-01  0.81114957134E-01 -0.40956198337E-01  0.92891688830E-01  0.51100000000E-03 0. -1.
</event>
<event>
 7    1  0.1191842E+005  0.1043930E+01  0.7957747E-01            NaN
         13   -1    0    0    0    0  0.00000000000E+00  0.00000000000E+00  0.74505805969E-08  0.10566000000E+00  0.10566000000E+00 0. -1.
     999900   -1    0    0    0    0 -0.00000000000E+00 -0.00000000000E+00 -0.74505805969E-08  0.93827000000E+00  0.93827000000E+00 0.  1.
     999903    2    1    2    0    0  0.81233807819E-02 -0.36066494331E-01  0.98649967261E-01  0.10732044066E+00  0.20471434079E-01 0.  0.
         14    1    1    2    0    0  0.40104999139E-01 -0.43607658897E-02 -0.32647350735E-01  0.51896789352E-01  0.00000000000E+00 0.  1.
     999901    1    1    2    0    0 -0.48228379921E-01  0.40427260220E-01 -0.66002616526E-01  0.88471276999E+00  0.88000000000E+00 0.  1.
        -11    1    3    3    0    0 -0.48080089961E-02 -0.18122272534E-02  0.76504918926E-02  0.92299656187E-02  0.51100000000E-03 0. -1.
         11    1    3    3    0    0  0.12931389778E-01 -0.34254267077E-01  0.90999475369E-01  0.98090475037E-01  0.51100000000E-03 0.  1.
</event>
<event>
 8    1  0.1191842E+005  0.1043930E+01  0.7957747E-01            NaN
         13   -1    0    0    0    0  0.00000000000E+00  0.00000000000E+00  0.74505805969E-08  0.10566000000E+00  0.10566000000E+00 0.  1.
     999900   -1    0    0    0    0 -0.00000000000E+00 -0.00000000000E+00 -0.74505805969E-08  0.93827000000E+00  0.93827000000E+00 0. -1.
     999902    2    1    2    0    0  0.12648391081E-01 -0.20124813765E-01 -0.21822618355E-02  0.10200605175E+01  0.10197812056E+01 0.  0.
     999903    2    3    3    0    0  0.90212652658E-01 -0.19704924465E-01  0.92190063492E-01  0.13162226602E+00  0.17286016256E-01 0.  0.
         14    1    1    2    0    0 -0.12648391081E-01  0.20124813765E-01  0.21822618355E-02  0.23869482457E-01  0.00000000000E+00 0.  1.
     999901    1    3    3    0    0 -0.77564261576E-01 -0.41988929968E-03 -0.94372325327E-01  0.88843825152E+00  0.88000000000E+00 0. -1.
        -11    1    4    4    0    0  0.45389840386E-01 -0.18375111815E-01  0.44693801893E-01  0.66299920008E-01  0.51100000000E-03 0. -1.
         11    1    4    4    0    0  0.44822812272E-01 -0.13298126502E-02  0.47496261599E-01  0.65322346012E-01  0.51100000000E-03 0.  1.
</event>
<event>
 8    1  0.1269406E+005  0.1043930E+01  0.7957747E-01            NaN
         13   -1    0    0    0    0  0.00000000000E+00  0.00000000000E+00  0.74505805969E-08  0.10566000000E+00  0.10566000000E+00 0. -1.
     999900   -1    0    0    0    0 -0.00000000000E+00 -0.00000000000E+00 -0.74505805969E-08  0.93827000000E+00  0.93827000000E+00 0. -1.
     999902    2    1    2    0    0 -0.14895686691E-03  0.20308488945E-01  0.13313692528E-01  0.10196460275E+01  0.10193568120E+01 0.  0.
     999903    2    3    3    0    0 -0.78992671028E-01  0.10210567877E+00  0.20168629020E-01  0.13231626824E+00  0.20866469071E-01 0.  0.
         14    1    1    2    0    0  0.14895686691E-03 -0.20308488945E-01 -0.13313692528E-01  0.24283972494E-01  0.00000000000E+00 0.  1.
     999901    1    3    3    0    0  0.78843714161E-01 -0.81797189823E-01 -0.68549364927E-02  0.88732975927E+00  0.88000000000E+00 0. -1.
        -11    1    4    4    0    0 -0.43667873991E-01  0.39729074775E-01  0.73783003566E-02  0.59497756584E-01  0.51100000000E-03 0. -1.
         11    1    4    4    0    0 -0.35324797036E-01  0.62376603992E-01  0.12790328664E-01  0.72818511655E-01  0.51100000000E-03 0.  1.
</event>
<event>
 8    1  0.1191842E+005  0.1043930E+01  0.7957747E-01            NaN
         13   -1    0    0    0    0  0.00000000000E+00  0.00000000000E+00  0.74505805969E-08  0.10566000000E+00  0.10566000000E+00 0.  1.
     999900   -1    0    0    0    0 -0.00000000000E+00 -0.00000000000E+00 -0.74505805969E-08  0.93827000000E+00  0.93827000000E+00 0.  1.
     999902    2    1    2    0    0 -0.20274702465E-01  0.10647396847E-01 -0.95372460341E-02  0.10191229510E+01  0.10188209850E+01 0.  0.
     999903    2    3    3    0    0  0.91877471525E-01  0.87296053285E-01 -0.12049128119E-01  0.12869640363E+00  0.18855029161E-01 0.  0.
         14    1    1    2    0    0  0.20274702465E-01 -0.10647396847E-01  0.95372460341E-02  0.24807049030E-01  0.00000000000E+00 0.  1.
     999901    1    3    3    0    0 -0.11215217399E+00 -0.76648656438E-01  0.25118820848E-02  0.89042654734E+00  0.88000000000E+00 0.  1.
        -11    1    4    4    0    0  0.40807138924E-01  0.46776616793E-01  0.15626378103E-02  0.62096517001E-01  0.51100000000E-03 0. -1.
         11    1    4    4    0    0  0.51070332601E-01  0.40519436492E-01 -0.13611765929E-01  0.66599886624E-01  0.51100000000E-03 0.  1.
</event>
<event>
 8    1  0.1191842E+005  0.1043930E+01  0.7957747E-01            NaN
         13   -1    0    0    0    0  0.00000000000E+00  0.00000000000E+00  0.74505805969E-08  0.10566000000E+00  0.10566000000E+00 0.  1.
     999900   -1    0    0    0    0 -0.00000000000E+00 -0.00000000000E+00 -0.74505805969E-08  0.93827000000E+00  0.93827000000E+00 0.  1.
     999902    2    1    2    0    0  0.10186855731E-01  0.15305630687E-02  0.21242612524E-01  0.10203214583E+01  0.10200482906E+01 0.  0.
     999903    2    3    3    0    0  0.71744116511E-02  0.10188893799E+00 -0.77745938613E-01  0.12909779869E+00  0.13747101147E-01 0.  0.
         14    1    1    2    0    0 -0.10186855731E-01 -0.15305630687E-02 -0.21242612524E-01  0.23608541671E-01  0.00000000000E+00 0. -1.
     999901    1    3    3    0    0  0.30124440796E-02 -0.10035837492E+00  0.98988551137E-01  0.89122365963E+00  0.88000000000E+00 0.  1.
        -11    1    4    4    0    0 -0.30656734530E-02  0.35531948256E-01 -0.22749517124E-01  0.42305074766E-01  0.51100000000E-03 0.  1.
         11    1    4    4    0    0  0.10240085104E-01  0.66356989733E-01 -0.54996421489E-01  0.86792723929E-01  0.51100000000E-03 0. -1.
</event>
<event>
 8    1  0.1191842E+005  0.1043930E+01  0.7957747E-01            NaN
         13   -1    0    0    0    0  0.00000000000E+00  0.00000000000E+00  0.74505805969E-08  0.10566000000E+00  0.10566000000E+00 0.  1.
     999900   -1    0    0    0    0 -0.00000000000E+00 -0.00000000000E+00 -0.74505805969E-08  0.93827000000E+00  0.93827000000E+00 0. -1.
     999902    2    1    2    0    0  0.17773105112E-01  0.15058744371E-01  0.13192431563E-03  0.10206347977E+01  0.10203689155E+01 0.  0.
     999903    2    3    3    0    0  0.20094260938E-01 -0.10893138984E+00  0.64700261152E-01  0.12959719394E+00  0.18425033744E-01 0.  0.
         14    1    1    2    0    0 -0.17773105112E-01 -0.15058744371E-01 -0.13192431563E-03  0.23295202325E-01  0.00000000000E+00 0.  1.
     999901    1    3    3    0    0 -0.23211558260E-02  0.12399013421E+00 -0.64568336836E-01  0.89103760373E+00  0.88000000000E+00 0. -1.
        -11    1    4    4    0    0  0.12638534967E-01 -0.74821784613E-01  0.53788110161E-01  0.93013192261E-01  0.51100000000E-03 0.  1.
         11    1    4    4    0    0  0.74557259708E-02 -0.34109605230E-01  0.10912150990E-01  0.36584001680E-01  0.51100000000E-03 0. -1.
</event>
<event>
 8    1  0.1191842E+005  0.1043930E+01  0.7957747E-01            NaN
         13   -1    0    0    0    0  0.00000000000E+00  0.00000000000E+00  0.74505805969E-08  0.10566000000E+00  0.10566000000E+00 0. -1.
     999900   -1    0    0    0    0 -0.00000000000E+00 -0.00000000000E+00 -0.74505805969E-08  0.93827000000E+00  0.93827000000E+00 0. -1.
     999902    2    1    2    0    0  0.13676007502E-01  0.12301491629E-01 -0.13125635585E-01  0.10213326066E+01  0.10210825878E+01 0.  0.
     999903    2    3    3    0    0  0.84992900781E-01 -0.88291742561E-01 -0.43478549539E-01  0.13221709253E+00  0.23911300669E-01 0.  0.
         14    1    1    2    0    0 -0.13676007502E-01 -0.12301491629E-01  0.13125635585E-01  0.22597393367E-01  0.00000000000E+00 0. -1.
     999901    1    3    3    0    0 -0.71316893279E-01  0.10059323419E+00  0.30352913954E-01  0.88911551410E+00  0.88000000000E+00 0.  1.
        -11    1    4    4    0    0  0.66032875170E-01 -0.62208112010E-01 -0.41893599196E-01  0.99927596677E-01  0.51100000000E-03 0. -1.
         11    1    4    4    0    0  0.18960025611E-01 -0.26083630552E-01 -0.15849503428E-02  0.32289495854E-01  0.51100000000E-03 0.  1.
</event>
<event>
 8    1  0.1191842E+005  0.1043930E+01  0.7957747E-01            NaN
         13   -1    0    0    0    0  0.00000000000E+00  0.00000000000E+00  0.74505805969E-08  0.10566000000E+00  0.10566000000E+00 0. -1.
     999900   -1    0    0    0    0 -0.00000000000E+00 -0.00000000000E+00 -0.74505805969E-08  0.93827000000E+00  0.93827000000E+00 0.  1.
     999902    2    1    2    0    0 -0.18517735449E-01  0.10621811168E-01  0.98946205374E-02  0.10204005947E+01  0.10201292765E+01 0.  0.
     999903    2    3    3    0    0  0.23759088210E-01 -0.11170356087E+00 -0.55493342528E-01  0.12853378166E+00  0.19981045529E-01 0.  0.
         14    1    1    2    0    0  0.18517735449E-01 -0.10621811168E-01 -0.98946205374E-02  0.23529405309E-01  0.00000000000E+00 0.  1.
     999901    1    3    3    0    0 -0.42276823659E-01  0.12232537204E+00  0.65387963066E-01  0.89186681303E+00  0.88000000000E+00 0. -1.
        -11    1    4    4    0    0  0.10157914940E-01 -0.18570780715E-01 -0.51373671435E-02  0.21787858878E-01  0.51100000000E-03 0. -1.
         11    1    4    4    0    0  0.13601173270E-01 -0.93132780155E-01 -0.50355975385E-01  0.10674592279E+00  0.51100000000E-03 0.  1.
</event>
<event>
 8    1  0.1191842E+005  0.1043930E+01  0.7957747E-01            NaN
         13   -1    0    0    0    0  0.00000000000E+00  0.00000000000E+00  0.74505805969E-08  0.10566000000E+00  0.10566000000E+00 0.  1.
     999900   -1    0    0    0    0 -0.00000000000E+00 -0.00000000000E+00 -0.74505805969E-08  0.93827000000E+00  0.93827000000E+00 0. -1.
     999902    2    1    2    0    0 -0.20601708554E-01 -0.36481956821E-02 -0.12205880607E-01  0.10197076292E+01  0.10194198967E+01 0.  0.
     999903    2    3    3    0    0 -0.12649397515E+00  0.28022580383E-01  0.18097298109E-01  0.13227622742E+00  0.19583089167E-01 0.  0.
         14    1    1    2    0    0  0.20601708554E-01  0.36481956821E-02  0.12205880607E-01  0.24222370827E-01  0.00000000000E+00 0.  1.
     999901    1    3    3    0    0  0.10589226659E+00 -0.31670776065E-01 -0.30303178716E-01  0.88743140176E+00  0.88000000000E+00 0. -1.
        -11    1    4    4    0    0 -0.29874311392E-01  0.15282331993E-01  0.55065794506E-02  0.34008935452E-01  0.51100000000E-03 0. -1.
         11    1    4    4    0    0 -0.96619663754E-01  0.12740248390E-01  0.12590718658E-01  0.98267291966E-01  0.51100000000E-03 0.  1.
</event>
<event>
 8    1  0.1191842E+005  0.1043930E+01  0.7957747E-01            NaN
         13   -1    0    0    0    0  0.00000000000E+00  0.00000000000E+00  0.74505805969E-08  0.10566000000E+00  0.10566000000E+00 0. -1.
     999900   -1    0    0    0    0 -0.00000000000E+00 -0.00000000000E+00 -0.74505805969E-08  0.93827000000E+00  0.93827000000E+00 0.  1.
     999902    2    1    2    0    0  0.19578775148E-03 -0.22341521019E-01  0.10035448088E-01  0.10194373049E+01  0.10191430354E+01 0.  0.
     999903    2    3    3    0    0 -0.44735779475E-01 -0.12338134660E+00  0.71950242555E-02  0.13251230239E+00  0.16837317438E-01 0.  0.
         14    1    1    2    0    0 -0.19578775148E-03  0.22341521019E-01 -0.10035448088E-01  0.24492695087E-01  0.00000000000E+00 0.  1.
     999901    1    3    3    0    0  0.44931567226E-01  0.10103982558E+00  0.28404238323E-02  0.88692500252E+00  0.88000000000E+00 0.  1.
        -11    1    4    4    0    0 -0.20902477591E-01 -0.49568610636E-01 -0.48488503217E-02  0.54016045766E-01  0.51100000000E-03 0.  1.
         11    1    4    4    0    0 -0.23833301884E-01 -0.73812735961E-01  0.12043874577E-01  0.78496256628E-01  0.51100000000E-03 0. -1.
</event>
<event>
 8    1  0.1191842E+005  0.1043930E+01  0.7957747E-01            NaN
         13   -1    0    0    0    0  0.00000000000E+00  0.00000000000E+00  0.74505805969E-08  0.10566000000E+00  0.10566000000E+00 0.  1.
     999900   -1    0    0    0    0 -0.00000000000E+00 -0.00000000000E+00 -0.74505805969E-08  0.93827000000E+00  0.93827000000E+00 0. -1.
     999902    2    1    2    0    0 -0.18913167289E-01 -0.59159409703E-02  0.12192433239E-01  0.10206628196E+01  0.10203975841E+01 0.  0.
     999903    2    3    3    0    0  0.73054186810E-01 -0.85994001999E-01 -0.60129120550E-01  0.12931502150E+00  0.19364427610E-01 0.  0.
         14    1    1    2    0    0  0.18913167289E-01  0.59159409703E-02 -0.12192433239E-01  0.23267180378E-01  0.00000000000E+00 0. -1.
     999901    1    3    3    0    0 -0.91967354099E-01  0.80078061029E-01  0.72321553789E-01  0.89134779812E+00  0.88000000000E+00 0.  1.
        -11    1    4    4    0    0  0.44329425102E-01 -0.40447162119E-01 -0.38402656201E-01  0.71246726083E-01  0.51100000000E-03 0.  1.
         11    1    4    4    0    0  0.28724761708E-01 -0.45546839880E-01 -0.21726464350E-01  0.58068295415E-01  0.51100000000E-03 0. -1.
</event>
<event>
 8    1  0.1191842E+005  0.1043930E+01  0.7957747E-01            NaN
         13   -1    0    0    0    0  0.00000000000E+00  0.00000000000E+00  0.74505805969E-08  0.10566000000E+00  0.10566000000E+00 0.  1.
     999900   -1    0    0    0    0 -0.00000000000E+00 -0.00000000000E+00 -0.74505805969E-08  0.93827000000E+00  0.93827000000E+00 0.  1.
     999902    2    1    2    0    0 -0.49658459801E-02  0.11065354456E-01  0.20606577520E-01  0.10200190667E+01  0.10197387723E+01 0.  0.
     999903    2    3    3    0    0 -0.51825846608E-01  0.10339723389E+00 -0.57105105537E-01  0.13054723390E+00  0.20116680785E-01 0.  0.
         14    1    1    2    0    0  0.49658459801E-02 -0.11065354456E-01 -0.20606577520E-01  0.23910933328E-01  0.00000000000E+00 0. -1.
     999901    1    3    3    0    0  0.46860000628E-01 -0.92331879437E-01  0.77711683057E-01  0.88947183278E+00  0.88000000000E+00 0. -1.
        -11    1    4    4    0    0 -0.41314678248E-01  0.96050183764E-01 -0.50974041118E-01  0.11632349044E+00  0.51100000000E-03 0.  1.
         11    1    4    4    0    0 -0.10511168360E-01  0.73470501297E-02 -0.61310644190E-02  0.14223743453E-01  0.51100000000E-03 0. -1.
</event>
<event>
 8    1  0.1191842E+005  0.1043930E+01  0.7957747E-01            NaN
         13   -1    0    0    0    0  0.00000000000E+00  0.00000000000E+00  0.74505805969E-08  0.10566000000E+00  0.10566000000E+00 0.  1.
     999900   -1    0    0    0    0 -0.00000000000E+00 -0.00000000000E+00 -0.74505805969E-08  0.93827000000E+00  0.93827000000E+00 0. -1.
     999902    2    1    2    0    0  0.19523168458E-01  0.32795137317E-02  0.12510289838E-01  0.10205117023E+01  0.10202429700E+01 0.  0.
     999903    2    3    3    0    0 -0.45410774165E-01 -0.42375497986E-02 -0.11830990503E+00  0.12844284476E+00  0.20499646421E-01 0.  0.
         14    1    1    2    0    0 -0.19523168458E-01 -0.32795137317E-02 -0.12510289838E-01  0.23418297735E-01  0.00000000000E+00 0. -1.
     999901    1    3    3    0    0  0.64933942624E-01  0.75170635303E-02  0.13082019487E+00  0.89206885751E+00  0.88000000000E+00 0. -1.
        -11    1    4    4    0    0 -0.30676942198E-01  0.69931526939E-02 -0.75029514268E-01  0.81361342783E-01  0.51100000000E-03 0. -1.
         11    1    4    4    0    0 -0.14733831967E-01 -0.11230702492E-01 -0.43280390760E-01  0.47081501975E-01  0.51100000000E-03 0.  1.
</event>
<event>
 8    1  0.1191842E+005  0.1043930E+01  0.7957747E-01            NaN
         13   -1    0    0    0    0  0.00000000000E+00  0.00000000000E+00  0.74505805969E-08  0.10566000000E+00  0.10566000000E+00 0.  1.
     999900   -1    0    0    0    0 -0.00000000000E+00 -0.00000000000E+00 -0.74505805969E-08  0.93827000000E+00  0.93827000000E+00 0.  1.
     999902    2    1    2    0    0 -0.14520401910E-02 -0.22280272878E-01  0.42710056606E-02  0.10211976339E+01  0.10209445856E+01 0.  0.
     999903    2    3    3    0    0 -0.86447466548E-01 -0.95310136108E-01  0.29404662707E-01  0.13373536192E+00  0.21525016192E-01 0.  0.
         14    1    1    2    0    0  0.14520401910E-02  0.22280272878E-01 -0.42710056606E-02  0.22732366124E-01  0.00000000000E+00 0. -1.
     999901    1    3    3    0    0  0.84995426357E-01  0.73029863230E-01 -0.25133657046E-01  0.88746227195E+00  0.88000000000E+00 0.  1.
        -11    1    4    4    0    0 -0.21046911459E-01 -0.14919839431E-01  0.12712343034E-01  0.28765237302E-01  0.51100000000E-03 0. -1.
         11    1    4    4    0    0 -0.65400555088E-01 -0.80390296678E-01  0.16692319673E-01  0.10497012462E+00  0.51100000000E-03 0.  1.
</event>
<event>
 7    1  0.1191842E+005  0.1043930E+01  0.7957747E-01            NaN
         13   -1    0    0    0    0  0.00000000000E+00  0.00000000000E+00  0.74505805969E-08  0.10566000000E+00  0.10566000000E+00 0. -1.
     999900   -1    0    0    0    0 -0.00000000000E+00 -0.00000000000E+00 -0.74505805969E-08  0.93827000000E+00  0.93827000000E+00 0. -1.
     999902    2    1    2    0    0 -0.13552491996E-01  0.11803455528E-01  0.15372491378E-01  0.10202803680E+01  0.10200062374E+01 0.  0.
         14    1    1    2    0    0  0.13552491996E-01 -0.11803455528E-01 -0.15372491378E-01  0.23649631982E-01  0.00000000000E+00 0.  1.
     999901    1    3    3    0    0  0.91128468028E-01 -0.41152526960E-01  0.50595769655E-02  0.88567687532E+00  0.88000000000E+00 0. -1.
        -11    1    3    3    0    0 -0.21922393361E-01 -0.58092265416E-02  0.23008598343E-01  0.32310913983E-01  0.51100000000E-03 0.  1.
         11    1    3    3    0    0 -0.82758566663E-01  0.58765209030E-01 -0.12695683931E-01  0.10229257871E+00  0.51100000000E-03 0. -1.
</event>
<event>
 8    1  0.1191842E+005  0.1043930E+01  0.7957747E-01            NaN
         13   -1    0    0    0    0  0.00000000000E+00  0.00000000000E+00  0.74505805969E-08  0.10566000000E+00  0.10566000000E+00 0. -1.
     999900   -1    0    0    0    0 -0.00000000000E+00 -0.00000000000E+00 -0.74505805969E-08  0.93827000000E+00  0.93827000000E+00 0. -1.
     999902    2    1    2    0    0 -0.13825780874E-01 -0.16178363611E-01 -0.81566558170E-02  0.10211391532E+01  0.10208847865E+01 0.  0.
     999903    2    3    3    0    0  0.10535420846E+00 -0.75264264494E-01  0.33228000159E-02  0.13106792485E+00  0.20088334288E-01 0.  0.
         14    1    1    2    0    0  0.13825780874E-01  0.16178363611E-01  0.81566558170E-02  0.22790846847E-01  0.00000000000E+00 0. -1.
     999901    1    3    3    0    0 -0.11917998934E+00  0.59085900883E-01 -0.11479455833E-01  0.89007122830E+00  0.88000000000E+00 0.  1.
        -11    1    4    4    0    0  0.66507137635E-01 -0.54120807120E-01 -0.56611832589E-02  0.85933528012E-01  0.51100000000E-03 0.  1.
         11    1    4    4    0    0  0.38847070829E-01 -0.21143457374E-01  0.89839832748E-02  0.45134396841E-01  0.51100000000E-03 0. -1.
</event>
<event>
 8    1  0.1191842E+005  0.1043930E+01  0.7957747E-01            NaN
         13   -1    0    0    0    0  0.00000000000E+00  0.00000000000E+00  0.74505805969E-08  0.10566000000E+00  0.10566000000E+00 0. -1.
     999900   -1    0    0    0    0 -0.00000000000E+00 -0.00000000000E+00 -0.74505805969E-08  0.93827000000E+00  0.93827000000E+00 0.  1.
     999902    2    1    2    0    0 -0.18717940038E-01  0.20042472556E-02 -0.14319733928E-01  0.10202776626E+01  0.10200034685E+01 0.  0.
     999903    2    3    3    0    0 -0.12977428968E+00  0.20255555225E-01  0.21192920696E-02  0.13295761624E+00  0.20532475212E-01 0.  0.
         14    1    1    2    0    0  0.18717940038E-01 -0.20042472556E-02  0.14319733928E-01  0.23652337434E-01  0.00000000000E+00 0. -1.
     999901    1    3    3    0    0  0.11105634964E+00 -0.18251307970E-01 -0.16439025997E-01  0.88732004633E+00  0.88000000000E+00 0.  1.
        -11    1    4    4    0    0 -0.10482223224E+00  0.21766592918E-01  0.77113670216E-02  0.10733690530E+00  0.51100000000E-03 0. -1.
         11    1    4    4    0    0 -0.24952057442E-01 -0.15110376931E-02 -0.55920749520E-02  0.25620710935E-01  0.51100000000E-03 0.  1.
</event>
<event>
 8    1  0.1191842E+005  0.1043930E+01  0.7957747E-01            NaN
         13   -1    0    0    0    0  0.00000000000E+00  0.00000000000E+00  0.74505805969E-08  0.10566000000E+00  0.10566000000E+00 0.  1.
     999900   -1    0    0    0    0 -0.00000000000E+00 -0.00000000000E+00 -0.74505805969E-08  0.93827000000E+00  0.93827000000E+00 0.  1.
     999902    2    1    2    0    0 -0.91634948618E-02  0.41958308018E-02 -0.20016074421E-01  0.10215197820E+01  0.10212739335E+01 0.  0.
     999903    2    3    3    0    0 -0.44605297684E-01 -0.86664881953E-01 -0.88910104283E-01  0.13345549502E+00  0.20122826902E-01 0.  0.
         14    1    1    2    0    0  0.91634948618E-02 -0.41958308018E-02  0.20016074421E-01  0.22410217970E-01  0.00000000000E+00 0. -1.
     999901    1    3    3    0    0  0.35441802822E-01  0.90860712755E-01  0.68894029862E-01  0.88806428701E+00  0.88000000000E+00 0.  1.
        -11    1    4    4    0    0 -0.23574241446E-01 -0.25752881920E-01 -0.34966660637E-01  0.49415425365E-01  0.51100000000E-03 0.  1.
         11    1    4    4    0    0 -0.21031056238E-01 -0.60912000033E-01 -0.53943443646E-01  0.84040069657E-01  0.51100000000E-03 0. -1.
</event>
<event>
 8    1  0.1191842E+005  0.1043930E+01  0.7957747E-01            NaN
         13   -1    0    0    0    0  0.00000000000E+00  0.00000000000E+00  0.74505805969E-08  0.10566000000E+00  0.10566000000E+00 0. -1.
     999900   -1    0    0    0    0 -0.00000000000E+00 -0.00000000000E+00 -0.74505805969E-08  0.93827000000E+00  0.93827000000E+00 0. -1.
     999902    2    1    2    0    0  0.13966587498E-01  0.98589905471E-06 -0.18683296315E-01  0.10206033815E+01  0.10203367735E+01 0.  0.
     999903    2    3    3    0    0 -0.11016682034E+00 -0.10303480141E-01 -0.66322451363E-01  0.13055575695E+00  0.20081038602E-01 0.  0.
         14    1    1    2    0    0 -0.13966587498E-01 -0.98589905471E-06  0.18683296315E-01  0.23326618454E-01  0.00000000000E+00 0. -1.
     999901    1    3    3    0    0  0.12413340783E+00  0.10304466040E-01  0.47639155048E-01  0.89004762460E+00  0.88000000000E+00 0. -1.
        -11    1    4    4    0    0 -0.65924133683E-01  0.33742654437E-02 -0.42066530490E-01  0.78276632385E-01  0.51100000000E-03 0.  1.
         11    1    4    4    0    0 -0.44242686653E-01 -0.13677745585E-01 -0.24255920873E-01  0.52279124562E-01  0.51100000000E-03 0. -1.
</event>
<event>
 8    1  0.1191842E+005  0.1043930E+01  0.7957747E-01            NaN
         13   -1    0    0    0    0  0.00000000000E+00  0.00000000000E+00  0.74505805969E-08  0.10566000000E+00  0.10566000000E+00 0.  1.
     999900   -1    0    0    0    0 -0.00000000000E+00 -0.00000000000E+00 -0.74505805969E-08  0.93827000000E+00  0.93827000000E+00 0.  1.
     999902    2    1    2    0    0  0.15168959207E-01  0.12923000489E-01  0.11886451311E-01  0.10207267892E+01  0.10204630269E+01 0.  0.
     999903    2    3    3    0    0  0.11230355254E+00 -0.50936721634E-01  0.44058366419E-01  0.13249921397E+00  0.20205556899E-01 0.  0.
         14    1    1    2    0    0 -0.15168959207E-01 -0.12923000489E-01 -0.11886451311E-01  0.23203210765E-01  0.00000000000E+00 0. -1.
     999901    1    3    3    0    0 -0.97134593329E-01  0.63859722123E-01 -0.32171915108E-01  0.88822757526E+00  0.88000000000E+00 0.  1.
        -11    1    4    4    0    0  0.48732277039E-01 -0.15876484085E-01  0.26955789161E-01  0.57911771365E-01  0.51100000000E-03 0. -1.
         11    1    4    4    0    0  0.63571275496E-01 -0.35060237550E-01  0.17102577257E-01  0.74587442610E-01  0.51100000000E-03 0.  1.
</event>
<event>
 8    1  0.1191842E+005  0.1043930E+01  0.7957747E-01            NaN
         13   -1    0    0    0    0  0.00000000000E+00  0.00000000000E+00  0.74505805969E-08  0.10566000000E+00  0.10566000000E+00 0. -1.
     999900   -1    0    0    0    0 -0.00000000000E+00 -0.00000000000E+00 -0.74505805969E-08  0.93827000000E+00  0.93827000000E+00 0.  1.
     999902    2    1    2    0    0  0.21372312901E-01  0.62225051608E-02 -0.97044754068E-02  0.10196468336E+01  0.10193576374E+01 0.  0.
     999903    2    3    3    0    0  0.12346264317E+00  0.28439104256E-01 -0.35294714278E-01  0.13309685013E+00  0.20426643071E-01 0.  0.
         14    1    1    2    0    0 -0.21372312901E-01 -0.62225051608E-02  0.97044754068E-02  0.24283166436E-01  0.00000000000E+00 0. -1.
     999901    1    3    3    0    0 -0.10209033027E+00 -0.22216599095E-01  0.25590238872E-01  0.88654998344E+00  0.88000000000E+00 0. -1.
        -11    1    4    4    0    0  0.40713777613E-01  0.42063259745E-02 -0.19873659351E-01  0.45503058389E-01  0.51100000000E-03 0.  1.
         11    1    4    4    0    0  0.82748865560E-01  0.24232778281E-01 -0.15421054927E-01  0.87593791736E-01  0.51100000000E-03 0. -1.
</event>
<event>
 8    1  0.1191842E+005  0.1043930E+01  0.7957747E-01            NaN
         13   -1    0    0    0    0  0.00000000000E+00  0.00000000000E+00  0.74505805969E-08  0.10566000000E+00  0.10566000000E+00 0.  1.
     999900   -1    0    0    0    0 -0.00000000000E+00 -0.00000000000E+00 -0.74505805969E-08  0.93827000000E+00  0.93827000000E+00 0. -1.
     999902    2    1    2    0    0  0.22003846992E-01 -0.59732782709E-03 -0.85254527165E-02  0.10203247161E+01  0.10200516246E+01 0.  0.
     999903    2    3    3    0    0  0.50870317738E-01  0.38026302703E-01  0.11231085372E+00  0.13075938917E+00  0.21225010413E-01 0.  0.
         14    1    1    2    0    0 -0.22003846992E-01  0.59732782709E-03  0.85254527165E-02  0.23605283878E-01  0.00000000000E+00 0.  1.
     999901    1    3    3    0    0 -0.28866470746E-01 -0.38623630530E-01 -0.12083630644E+00  0.88956532696E+00  0.88000000000E+00 0. -1.
        -11    1    4    4    0    0  0.44030260059E-01  0.29706690287E-01  0.10518223574E+00  0.11783342092E+00  0.51100000000E-03 0.  1.
         11    1    4    4    0    0  0.68400576784E-02  0.83196124153E-02  0.71286179788E-02  0.12925968245E-01  0.51100000000E-03 0. -1.
</event>
<event>
 8    1  0.1191842E+005  0.1043930E+01  0.7957747E-01            NaN
         13   -1    0    0    0    0  0.00000000000E+00  0.00000000000E+00  0.74505805969E-08  0.10566000000E+00  0.10566000000E+00 0.  1.
     999900   -1    0    0    0    0 -0.00000000000E+00 -0.00000000000E+00 -0.74505805969E-08  0.93827000000E+00  0.93827000000E+00 0. -1.
     999902    2    1    2    0    0  0.21779009776E-01  0.27228071554E-02 -0.81175289512E-02  0.10205284355E+01  0.10202600915E+01 0.  0.
     999903    2    3    3    0    0  0.18306313579E-02  0.38212684272E-01 -0.12462833317E+00  0.13191590086E+00  0.20150012948E-01 0.  0.
         14    1    1    2    0    0 -0.21779009776E-01 -0.27228071554E-02  0.81175289512E-02  0.23401564518E-01  0.00000000000E+00 0.  1.
     999901    1    3    3    0    0  0.19948378418E-01 -0.35489877116E-01  0.11651080422E+00  0.88861253462E+00  0.88000000000E+00 0.  1.
        -11    1    4    4    0    0 -0.18410111381E-02  0.27716792483E-01 -0.11044693582E+00  0.11388764929E+00  0.51100000000E-03 0. -1.
         11    1    4    4    0    0  0.36716424961E-02  0.10495891789E-01 -0.14181397347E-01  0.18028251573E-01  0.51100000000E-03 0.  1.
</event>
<event>
 8    1  0.1191842E+005  0.1043930E+01  0.7957747E-01            NaN
         13   -1    0    0    0    0  0.00000000000E+00  0.00000000000E+00  0.74505805969E-08  0.10566000000E+00  0.10566000000E+00 0.  1.
     999900   -1    0    0    0    0 -0.00000000000E+00 -0.00000000000E+00 -0.74505805969E-08  0.93827000000E+00  0.93827000000E+00 0. -1.
     999902    2    1    2    0    0  0.17373815703E-01 -0.59035565362E-02 -0.14596748019E-01  0.10204828999E+01  0.10202134984E+01 0.  0.
     999903    2    3    3    0    0  0.49356037305E-01  0.86792270736E-01  0.80828463345E-01  0.12990929266E+00  0.19345985490E-01 0.  0.
         14    1    1    2    0    0 -0.17373815703E-01  0.59035565362E-02  0.14596748019E-01  0.23447100132E-01  0.00000000000E+00 0.  1.
     999901    1    3    3    0    0 -0.31982221602E-01 -0.92695827272E-01 -0.95425211364E-01  0.89057360721E+00  0.88000000000E+00 0. -1.
        -11    1    4    4    0    0  0.30397348095E-01  0.36084940912E-01  0.32073113630E-01  0.57053198602E-01  0.51100000000E-03 0.  1.
         11    1    4    4    0    0  0.18958689211E-01  0.50707329824E-01  0.48755349715E-01  0.72856094058E-01  0.51100000000E-03 0. -1.
</event>
<event>
 8    1  0.1191842E+005  0.1043930E+01  0.7957747E-01            NaN
         13   -1    0    0    0    0  0.00000000000E+00  0.00000000000E+00  0.74505805969E-08  0.10566000000E+00  0.10566000000E+00 0.  1.
     999900   -1    0    0    0    0 -0.00000000000E+00 -0.00000000000E+00 -0.74505805969E-08  0.93827000000E+00  0.93827000000E+00 0.  1.
     999902    2    1    2    0    0 -0.86965958214E-02 -0.22834642335E-01 -0.12049345657E-02  0.10194656681E+01  0.10191720879E+01 0.  0.
     999903    2    3    3    0    0 -0.75535085973E-01 -0.90912638862E-01 -0.56603603835E-01  0.13257728167E+00  0.20052693834E-01 0.  0.
         14    1    1    2    0    0  0.86965958214E-02  0.22834642335E-01  0.12049345657E-02  0.24464331929E-01  0.00000000000E+00 0.  1.
     999901    1    3    3    0    0  0.66838490152E-01  0.68077996527E-01  0.55398669269E-01  0.88688838640E+00  0.88000000000E+00 0.  1.
        -11    1    4    4    0    0 -0.48878424367E-01 -0.46317721900E-01 -0.25405731416E-01  0.71973217521E-01  0.51100000000E-03 0.  1.
         11    1    4    4    0    0 -0.26656661607E-01 -0.44594916962E-01 -0.31197872419E-01  0.60604064148E-01  0.51100000000E-03 0. -1.
</event>
<event>
 8    1  0.1191842E+005  0.1043930E+01  0.7957747E-01            NaN
         13   -1    0    0    0    0  0.00000000000E+00  0.00000000000E+00  0.74505805969E-08  0.10566000000E+00  0.10566000000E+00 0. -1.
     999900   -1    0    0    0    0 -0.00000000000E+00 -0.00000000000E+00 -0.74505805969E-08  0.93827000000E+00  0.93827000000E+00 0.  1.
     999902    2    1    2    0    0 -0.22372939830E-01 -0.45122516287E-02  0.89062330629E-02  0.10194304115E+01  0.10191359742E+01 0.  0.
     999903    2    3    3    0    0 -0.33309698308E-01 -0.49575819780E-01  0.11567609287E+00  0.13176485460E+00  0.20340121399E-01 0.  0.
         14    1    1    2    0    0  0.22372939830E-01  0.45122516287E-02 -0.89062330629E-02  0.24499588543E-01  0.00000000000E+00 0.  1.
     999901    1    3    3    0    0  0.10936758477E-01  0.45063568151E-01 -0.10676985981E+00  0.88766555685E+00  0.88000000000E+00 0.  1.
        -11    1    4    4    0    0 -0.22745716364E-01 -0.28125465904E-01  0.48838250395E-01  0.60777012660E-01  0.51100000000E-03 0. -1.
         11    1    4    4    0    0 -0.10563981943E-01 -0.21450353876E-01  0.66837842477E-01  0.70987841944E-01  0.51100000000E-03 0.  1.
</event>
<event>
 8    1  0.1191842E+005  0.1043930E+01  0.7957747E-01            NaN
         13   -1    0    0    0    0  0.00000000000E+00  0.00000000000E+00  0.74505805969E-08  0.10566000000E+00  0.10566000000E+00 0. -1.
     999900   -1    0    0    0    0 -0.00000000000E+00 -0.00000000000E+00 -0.74505805969E-08  0.93827000000E+00  0.93827000000E+00 0. -1.
     999902    2    1    2    0    0  0.11244936269E-01 -0.17872625782E-01 -0.12369503621E-01  0.10194578942E+01  0.10191641252E+01 0.  0.
     999903    2    3    3    0    0  0.11207783942E+00  0.60006375134E-01  0.16683934042E-01  0.12980823538E+00  0.20239001223E-01 0.  0.
         14    1    1    2    0    0 -0.11244936269E-01  0.17872625782E-01  0.12369503621E-01  0.24472105833E-01  0.00000000000E+00 0. -1.
     999901    1    3    3    0    0 -0.10083290315E+00 -0.77879000917E-01 -0.29053437663E-01  0.88964965879E+00  0.88000000000E+00 0. -1.
        -11    1    4    4    0    0  0.29968949957E-01  0.90328662972E-02  0.10283631425E-01  0.32950642351E-01  0.51100000000E-03 0.  1.
         11    1    4    4    0    0  0.82108889467E-01  0.50973508837E-01  0.64003026174E-02  0.96857593028E-01  0.51100000000E-03 0. -1.
</event>
<event>
 8    1  0.1191842E+005  0.1043930E+01  0.7957747E-01            NaN
         13   -1    0    0    0    0  0.00000000000E+00  0.00000000000E+00  0.74505805969E-08  0.10566000000E+00  0.10566000000E+00 0.  1.
     999900   -1    0    0    0    0 -0.00000000000E+00 -0.00000000000E+00 -0.74505805969E-08  0.93827000000E+00  0.93827000000E+00 0.  1.
     999902    2    1    2    0    0  0.24023588541E-01 -0.39041673002E-02  0.41953495545E-02  0.10192323020E+01  0.10189330249E+01 0.  0.
     999903    2    3    3    0    0  0.22966386302E-01  0.99717695230E-01  0.77796441328E-01  0.13010029336E+00  0.20068044443E-01 0.  0.
         14    1    1    2    0    0 -0.24023588541E-01  0.39041673002E-02 -0.41953495545E-02  0.24697698002E-01  0.00000000000E+00 0.  1.
     999901    1    3    3    0    0  0.10572022395E-02 -0.10362186253E+00 -0.73601091774E-01  0.88913200864E+00  0.88000000000E+00 0.  1.
        -11    1    4    4    0    0  0.17981124772E-02  0.16551140686E-01  0.45344159859E-02  0.17262546620E-01  0.51100000000E-03 0. -1.
         11    1    4    4    0    0  0.21168273825E-01  0.83166554544E-01  0.73262025343E-01  0.11283774674E+00  0.51100000000E-03 0.  1.
</event>
<event>
 8    1  0.1191842E+005  0.1043930E+01  0.7957747E-01            NaN
         13   -1    0    0    0    0  0.00000000000E+00  0.00000000000E+00  0.74505805969E-08  0.10566000000E+00  0.10566000000E+00 0.  1.
     999900   -1    0    0    0    0 -0.00000000000E+00 -0.00000000000E+00 -0.74505805969E-08  0.93827000000E+00  0.93827000000E+00 0. -1.
     999902    2    1    2    0    0  0.65947114130E-02  0.18281640615E-01 -0.13264888337E-01  0.10203998945E+01  0.10201285600E+01 0.  0.
     999903    2    3    3    0    0 -0.91858502290E-01 -0.76786896068E-02  0.85643898524E-01  0.12902459635E+00  0.28557352683E-01 0.  0.
         14    1    1    2    0    0 -0.65947114130E-02 -0.18281640615E-01  0.13264888337E-01  0.23530105499E-01  0.00000000000E+00 0.  1.
     999901    1    3    3    0    0  0.98453213703E-01  0.25960330222E-01 -0.98908786861E-01  0.89137529815E+00  0.88000000000E+00 0. -1.
        -11    1    4    4    0    0 -0.37629635029E-01  0.52957772507E-02  0.20174313190E-01  0.43026721032E-01  0.51100000000E-03 0. -1.
         11    1    4    4    0    0 -0.54228867261E-01 -0.12974466857E-01  0.65469585333E-01  0.85997875319E-01  0.51100000000E-03 0.  1.
</event>
<event>
 8    1  0.1191842E+005  0.1043930E+01  0.7957747E-01            NaN
         13   -1    0    0    0    0  0.00000000000E+00  0.00000000000E+00  0.74505805969E-08  0.10566000000E+00  0.10566000000E+00 0.  1.
     999900   -1    0    0    0    0 -0.00000000000E+00 -0.00000000000E+00 -0.74505805969E-08  0.93827000000E+00  0.93827000000E+00 0. -1.
     999902    2    1    2    0    0 -0.57448568605E-02 -0.11445675612E-01  0.17231576712E-01  0.10224606240E+01  0.10222351948E+01 0.  0.
     999903    2    3    3    0    0  0.38254832842E-01  0.43420143495E-01  0.11895788621E+00  0.13381307133E+00  0.20154857231E-01 0.  0.
         14    1    1    2    0    0  0.57448568605E-02  0.11445675612E-01 -0.17231576712E-01  0.21469376016E-01  0.00000000000E+00 0. -1.
     999901    1    3    3    0    0 -0.43999689703E-01 -0.54865819106E-01 -0.10172630950E+00  0.88864755266E+00  0.88000000000E+00 0. -1.
        -11    1    4    4    0    0  0.37112320239E-01  0.31472236079E-01  0.87209437215E-01  0.99867777675E-01  0.51100000000E-03 0. -1.
         11    1    4    4    0    0  0.11425126026E-02  0.11947907416E-01  0.31748448992E-01  0.33945293651E-01  0.51100000000E-03 0.  1.
</event>
<event>
 8    1  0.1191842E+005  0.1043930E+01  0.7957747E-01            NaN
         13   -1    0    0    0    0  0.00000000000E+00  0.00000000000E+00  0.74505805969E-08  0.10566000000E+00  0.10566000000E+00 0. -1.
     999900   -1    0    0    0    0 -0.00000000000E+00 -0.00000000000E+00 -0.74505805969E-08  0.93827000000E+00  0.93827000000E+00 0.  1.
     999902    2    1    2    0    0 -0.14278387190E-01 -0.11137599272E-01  0.94301730279E-02  0.10235131780E+01  0.10233095225E+01 0.  0.
     999903    2    3    3    0    0 -0.11700952828E+00  0.30094351446E-01 -0.55112437322E-01  0.13423284554E+00  0.19600417759E-01 0.  0.
         14    1    1    2    0    0  0.14278387190E-01  0.11137599272E-01 -0.94301730279E-02  0.20416822026E-01  0.00000000000E+00 0.  1.
     999901    1    3    3    0    0  0.10273114109E+00 -0.41231950718E-01  0.64542610350E-01  0.88928033244E+00  0.88000000000E+00 0. -1.
        -11    1    4    4    0    0 -0.54352828051E-01  0.23674652987E-01 -0.29732743199E-01  0.66325080101E-01  0.51100000000E-03 0.  1.
         11    1    4    4    0    0 -0.62656700228E-01  0.64196984582E-02 -0.25379694123E-01  0.67907765436E-01  0.51100000000E-03 0. -1.
</event>
<event>
 8    1  0.1191842E+005  0.1043930E+01  0.7957747E-01            NaN
         13   -1    0    0    0    0  0.00000000000E+00  0.00000000000E+00  0.74505805969E-08  0.10566000000E+00  0.10566000000E+00 0.  1.
     999900   -1    0    0    0    0 -0.00000000000E+00 -0.00000000000E+00 -0.74505805969E-08  0.93827000000E+00  0.93827000000E+00 0.  1.
     999902    2    1    2    0    0 -0.43598196717E-02 -0.20916999049E-01  0.66470519626E-02  0.10215534011E+01  0.10213082978E+01 0.  0.
     999903    2    3    3    0    0 -0.10291589547E+00  0.56318339524E-01  0.57231758764E-01  0.13125153651E+00  0.13713304441E-01 0.  0.
         14    1    1    2    0    0  0.43598196717E-02  0.20916999049E-01 -0.66470519626E-02  0.22376598861E-01  0.00000000000E+00 0.  1.
     999901    1    3    3    0    0  0.98556075794E-01 -0.77235338574E-01 -0.50584706801E-01  0.89030186463E+00  0.88000000000E+00 0.  1.
        -11    1    4    4    0    0 -0.77186953463E-01  0.45063935311E-01  0.37512324093E-01  0.96933067787E-01  0.51100000000E-03 0. -1.
         11    1    4    4    0    0 -0.25728942002E-01  0.11254404213E-01  0.19719434671E-01  0.34318468723E-01  0.51100000000E-03 0.  1.
</event>
<event>
 8    1  0.1191842E+005  0.1043930E+01  0.7957747E-01            NaN
         13   -1    0    0    0    0  0.00000000000E+00  0.00000000000E+00  0.74505805969E-08  0.10566000000E+00  0.10566000000E+00 0.  1.
     999900   -1    0    0    0    0 -0.00000000000E+00 -0.00000000000E+00 -0.74505805969E-08  0.93827000000E+00  0.93827000000E+00 0. -1.
     999902    2    1    2    0    0  0.13385123586E-01  0.12714428878E-01  0.15057428063E-01  0.10201068101E+01  0.10198285933E+01 0.  0.
     999903    2    3    3    0    0  0.92834916653E-01  0.68465328260E-01  0.64127566059E-01  0.13341164784E+00  0.19506412487E-01 0.  0.
         14    1    1    2    0    0 -0.13385123586E-01 -0.12714428878E-01 -0.15057428063E-01  0.23823189857E-01  0.00000000000E+00 0. -1.
     999901    1    3    3    0    0 -0.79449793067E-01 -0.55750899382E-01 -0.49070137996E-01  0.88669516230E+00  0.88000000000E+00 0. -1.
        -11    1    4    4    0    0  0.32781397280E-01  0.28304849892E-01  0.34301260587E-01  0.55250539670E-01  0.51100000000E-03 0.  1.
         11    1    4    4    0    0  0.60053519373E-01  0.40160478368E-01  0.29826305472E-01  0.78161108174E-01  0.51100000000E-03 0. -1.
</event>
<event>
 8    1  0.1191842E+005  0.1043930E+01  0.7957747E-01            NaN
         13   -1    0    0    0    0  0.00000000000E+00  0.00000000000E+00  0.74505805969E-08  0.10566000000E+00  0.10566000000E+00 0. -1.
     999900   -1    0    0    0    0 -0.00000000000E+00 -0.00000000000E+00 -0.74505805969E-08  0.93827000000E+00  0.93827000000E+00 0. -1.
     999902    2    1    2    0    0  0.98856466745E-02 -0.47641813560E-02  0.18701051600E-01  0.10222469936E+01  0.10220170073E+01 0.  0.
     999903    2    3    3    0    0 -0.26967695430E-01  0.12387811705E+00  0.30700231595E-01  0.13204983003E+00  0.20533117446E-01 0.  0.
         14    1    1    2    0    0 -0.98856466745E-02  0.47641813560E-02 -0.18701051600E-01  0.21683006367E-01  0.00000000000E+00 0.  1.
     999901    1    3    3    0    0  0.36853342105E-01 -0.12864229840E+00 -0.11999179995E-01  0.89019716360E+00  0.88000000000E+00 0. -1.
        -11    1    4    4    0    0 -0.60783974389E-02  0.70762058374E-01  0.21705269855E-01  0.74267056501E-01  0.51100000000E-03 0. -1.
         11    1    4    4    0    0 -0.20889297991E-01  0.53116058671E-01  0.89949617403E-02  0.57782773532E-01  0.51100000000E-03 0.  1.
</event>
<event>
 8    1  0.1191842E+005  0.1043930E+01  0.7957747E-01            NaN
         13   -1    0    0    0    0  0.00000000000E+00  0.00000000000E+00  0.74505805969E-08  0.10566000000E+00  0.10566000000E+00 0. -1.
     999900   -1    0    0    0    0 -0.00000000000E+00 -0.00000000000E+00 -0.74505805969E-08  0.93827000000E+00  0.93827000000E+00 0.  1.
     999902    2    1    2    0    0 -0.20880740623E-01 -0.15663011922E-02  0.10380977103E-01  0.10205585791E+01  0.10202909340E+01 0.  0.
     999903    2    3    3    0    0  0.54662352898E-01 -0.68563830745E-01 -0.92235127513E-01  0.12886048398E+00  0.20217167799E-01 0.  0.
         14    1    1    2    0    0  0.20880740623E-01  0.15663011922E-02 -0.10380977103E-01  0.23371420881E-01  0.00000000000E+00 0. -1.
     999901    1    3    3    0    0 -0.75543093522E-01  0.66997529553E-01  0.10261610462E+00  0.89169809514E+00  0.88000000000E+00 0.  1.
        -11    1    4    4    0    0  0.40293365017E-02 -0.78547069635E-02 -0.19606655691E-01  0.21508464439E-01  0.51100000000E-03 0. -1.
         11    1    4    4    0    0  0.50633016397E-01 -0.60709123782E-01 -0.72628471822E-01  0.10735201954E+00  0.51100000000E-03 0.  1.
</event>
<event>
 8    1  0.1191842E+005  0.1043930E+01  0.7957747E-01            NaN
         13   -1    0    0    0    0  0.00000000000E+00  0.00000000000E+00  0.74505805969E-08  0.10566000000E+00  0.10566000000E+00 0.  1.
     999900   -1    0    0    0    0 -0.00000000000E+00 -0.00000000000E+00 -0.74505805969E-08  0.93827000000E+00  0.93827000000E+00 0. -1.
     999902    2    1    2    0    0 -0.14128967112E-01 -0.85794071518E-02  0.16915110903E-01  0.10202793147E+01  0.10200051593E+01 0.  0.
     999903    2    3    3    0    0  0.17270434305E-01  0.34784236798E-01 -0.12033695961E+00  0.12803245486E+00  0.20077714446E-01 0.  0.
         14    1    1    2    0    0  0.14128967112E-01  0.85794071518E-02 -0.16915110903E-01  0.23650685309E-01  0.00000000000E+00 0. -1.
     999901    1    3    3    0    0 -0.31399401417E-01 -0.43363643950E-01  0.13725207051E+00  0.89224685984E+00  0.88000000000E+00 0.  1.
        -11    1    4    4    0    0  0.17187066127E-01  0.15264211507E-01 -0.49962125491E-01  0.54998786347E-01  0.51100000000E-03 0.  1.
         11    1    4    4    0    0  0.83368178234E-04  0.19520025291E-01 -0.70374834119E-01  0.73033668509E-01  0.51100000000E-03 0. -1.
</event>
<event>
 8    1  0.1191842E+005  0.1043930E+01  0.7957747E-01            NaN
         13   -1    0    0    0    0  0.00000000000E+00  0.00000000000E+00  0.74505805969E-08  0.10566000000E+00  0.10566000000E+00 0. -1.
     999900   -1    0    0    0    0 -0.00000000000E+00 -0.00000000000E+00 -0.74505805969E-08  0.93827000000E+00  0.93827000000E+00 0.  1.
     999902    2    1    2    0    0  0.13589193762E-01 -0.16423660296E-02 -0.15325134628E-01  0.10233819270E+01  0.10231756180E+01 0.  0.
     999903    2    3    3    0    0 -0.14167848313E-01  0.59844887470E-01  0.11439281053E+00  0.13131809461E+00  0.19405885457E-01 0.  0.
         14    1    1    2    0    0 -0.13589193762E-01  0.16423660296E-02  0.15325134628E-01  0.20548073015E-01  0.00000000000E+00 0. -1.
     999901    1    3    3    0    0  0.27757042075E-01 -0.61487253500E-01 -0.12971794516E+00  0.89206383237E+00  0.88000000000E+00 0.  1.
        -11    1    4    4    0    0 -0.60835714661E-02  0.97075474523E-02  0.37106584667E-01  0.38838203691E-01  0.51100000000E-03 0.  1.
         11    1    4    4    0    0 -0.80842768468E-02  0.50137340018E-01  0.77286225862E-01  0.92479890923E-01  0.51100000000E-03 0. -1.
</event>
<event>
 8    1  0.1191842E+005  0.1043930E+01  0.7957747E-01            NaN
         13   -1    0    0    0    0  0.00000000000E+00  0.00000000000E+00  0.74505805969E-08  0.10566000000E+00  0.10566000000E+00 0.  1.
     999900   -1    0    0    0    0 -0.00000000000E+00 -0.00000000000E+00 -0.74505805969E-08  0.93827000000E+00  0.93827000000E+00 0. -1.
     999902    2    1    2    0    0 -0.50729856485E-02 -0.20277617777E-01 -0.88168258062E-02  0.10212440267E+01  0.10209920219E+01 0.  0.
     999903    2    3    3    0    0  0.93169432209E-01 -0.47298195663E-01 -0.79131364752E-01  0.13257883742E+00  0.19942738857E-01 0.  0.
         14    1    1    2    0    0  0.50729856485E-02  0.20277617777E-01  0.88168258062E-02  0.22685973275E-01  0.00000000000E+00 0.  1.
     999901    1    3    3    0    0 -0.98242417857E-01  0.27020577885E-01  0.70314538946E-01  0.88866518931E+00  0.88000000000E+00 0.  1.
        -11    1    4    4    0    0  0.34674962221E-01 -0.71073050511E-02 -0.26041281761E-01  0.43946288431E-01  0.51100000000E-03 0. -1.
         11    1    4    4    0    0  0.58494469988E-01 -0.40190890612E-01 -0.53090082991E-01  0.88632548989E-01  0.51100000000E-03 0.  1.
</event>
<event>
 8    1  0.1191842E+005  0.1043930E+01  0.7957747E-01            NaN
         13   -1    0    0    0    0  0.00000000000E+00  0.00000000000E+00  0.74505805969E-08  0.10566000000E+00  0.10566000000E+00 0. -1.
     999900   -1    0    0    0    0 -0.00000000000E+00 -0.00000000000E+00 -0.74505805969E-08  0.93827000000E+00  0.93827000000E+00 0.  1.
     999902    2    1    2    0    0  0.48321081056E-03  0.21847113735E-01  0.10159014127E-01  0.10198315470E+01  0.10195467859E+01 0.  0.
     999903    2    3    3    0    0 -0.62203449070E-01 -0.10308839403E+00  0.37832707403E-01  0.12836963990E+00  0.23472635973E-01 0.  0.
         14    1    1    2    0    0 -0.48321081056E-03 -0.21847113735E-01 -0.10159014127E-01  0.24098453047E-01  0.00000000000E+00 0.  1.
     999901    1    3    3    0    0  0.62686659881E-01  0.12493550776E+00 -0.27673693276E-01  0.89146190705E+00  0.88000000000E+00 0.  1.
        -11    1    4    4    0    0 -0.28613333934E-01 -0.68277059520E-01  0.26936646907E-01  0.78780224696E-01  0.51100000000E-03 0. -1.
         11    1    4    4    0    0 -0.33590115137E-01 -0.34811334506E-01  0.10896060496E-01  0.49589415204E-01  0.51100000000E-03 0.  1.
</event>
<event>
 8    1  0.1191842E+005  0.1043930E+01  0.7957747E-01            NaN
         13   -1    0    0    0    0  0.00000000000E+00  0.00000000000E+00  0.74505805969E-08  0.10566000000E+00  0.10566000000E+00 0. -1.
     999900   -1    0    0    0    0 -0.00000000000E+00 -0.00000000000E+00 -0.74505805969E-08  0.93827000000E+00  0.93827000000E+00 0.  1.
     999902    2    1    2    0    0  0.82768036280E-02 -0.59931347522E-02  0.19452218562E-01  0.10219570177E+01  0.10217207711E+01 0.  0.
     999903    2    3    3    0    0  0.11214714935E+00  0.66364072791E-01 -0.10199661560E-01  0.13240440648E+00  0.21112093559E-01 0.  0.
         14    1    1    2    0    0 -0.82768036280E-02  0.59931347522E-02 -0.19452218562E-01  0.21972982261E-01  0.00000000000E+00 0.  1.
     999901    1    3    3    0    0 -0.10387034572E+00 -0.72357207543E-01  0.29651880122E-01  0.88955261126E+00  0.88000000000E+00 0. -1.
        -11    1    4    4    0    0  0.91684418762E-01  0.45931469916E-01 -0.29602590639E-02  0.10259023748E+00  0.51100000000E-03 0. -1.
         11    1    4    4    0    0  0.20462730589E-01  0.20432602875E-01 -0.72394024961E-02  0.29814168996E-01  0.51100000000E-03 0.  1.
</event>
<event>
 8    1  0.1191842E+005  0.1043930E+01  0.7957747E-01            NaN
         13   -1    0    0    0    0  0.00000000000E+00  0.00000000000E+00  0.74505805969E-08  0.10566000000E+00  0.10566000000E+00 0.  1.
     999900   -1    0    0    0    0 -0.00000000000E+00 -0.00000000000E+00 -0.74505805969E-08  0.93827000000E+00  0.93827000000E+00 0. -1.
     999902    2    1    2    0    0  0.66468723760E-02 -0.18527983888E-01  0.12607726288E-01  0.10205543318E+01  0.10202865884E+01 0.  0.
     999903    2    3    3    0    0  0.11315603003E+00  0.23841036165E-01  0.60354753510E-01  0.13183665276E+00  0.19118697687E-01 0.  0.
         14    1    1    2    0    0 -0.66468723760E-02  0.18527983888E-01 -0.12607726288E-01  0.23375668151E-01  0.00000000000E+00 0. -1.
     999901    1    3    3    0    0 -0.10650915765E+00 -0.42369020053E-01 -0.47747027222E-01  0.88871767909E+00  0.88000000000E+00 0. -1.
        -11    1    4    4    0    0  0.33234996616E-01  0.99127669091E-02  0.27680318022E-01  0.44376672640E-01  0.51100000000E-03 0.  1.
         11    1    4    4    0    0  0.79921033414E-01  0.13928269256E-01  0.32674435488E-01  0.87459980116E-01  0.51100000000E-03 0. -1.
</event>
<event>
 8    1  0.1191842E+005  0.1043930E+01  0.7957747E-01            NaN
         13   -1    0    0    0    0  0.00000000000E+00  0.00000000000E+00  0.74505805969E-08  0.10566000000E+00  0.10566000000E+00 0.  1.
     999900   -1    0    0    0    0 -0.00000000000E+00 -0.00000000000E+00 -0.74505805969E-08  0.93827000000E+00  0.93827000000E+00 0. -1.
     999902    2    1    2    0    0 -0.13670513522E-01  0.44055169195E-02 -0.18473346508E-01  0.10205300844E+01  0.10202617787E+01 0.  0.
     999903    2    3    3    0    0 -0.12408759127E+00 -0.39764289992E-01  0.87013590128E-02  0.13211499699E+00  0.19993241713E-01 0.  0.
         14    1    1    2    0    0  0.13670513522E-01 -0.44055169195E-02  0.18473346508E-01  0.23399915608E-01  0.00000000000E+00 0.  1.
     999901    1    3    3    0    0  0.11041707775E+00  0.44169806912E-01 -0.27174705521E-01  0.88841508740E+00  0.88000000000E+00 0.  1.
        -11    1    4    4    0    0 -0.96061215288E-01 -0.32399073617E-01  0.14924951524E-01  0.10247181248E+00  0.51100000000E-03 0.  1.
         11    1    4    4    0    0 -0.28026375986E-01 -0.73652163750E-02 -0.62235925116E-02  0.29643184511E-01  0.51100000000E-03 0. -1.
</event>
<event>
 8    1  0.1191842E+005  0.1043930E+01  0.7957747E-01            NaN
         13   -1    0    0    0    0  0.00000000000E+00  0.00000000000E+00  0.74505805969E-08  0.10566000000E+00  0.10566000000E+00 0. -1.
     999900   -1    0    0    0    0 -0.00000000000E+00 -0.00000000000E+00 -0.74505805969E-08  0.93827000000E+00  0.93827000000E+00 0. -1.
     999902    2    1    2    0    0  0.10528254856E-01 -0.17808252582E-01 -0.98672250640E-02  0.10210097002E+01  0.10207524028E+01 0.  0.
     999903    2    3    3    0    0  0.69238451087E-01 -0.21058541453E-01 -0.11009060593E+00  0.13337116030E+00  0.20748484495E-01 0.  0.
         14    1    1    2    0    0 -0.10528254856E-01  0.17808252582E-01  0.98672250640E-02  0.22920299754E-01  0.00000000000E+00 0. -1.
     999901    1    3    3    0    0 -0.58710196231E-01  0.32502888714E-02  0.10022338087E+00  0.88763853994E+00  0.88000000000E+00 0.  1.
        -11    1    4    4    0    0  0.30655934493E-01 -0.82228874716E-02 -0.66902373280E-01  0.74051271896E-01  0.51100000000E-03 0.  1.
         11    1    4    4    0    0  0.38582516594E-01 -0.12835653982E-01 -0.43188232654E-01  0.59319888407E-01  0.51100000000E-03 0. -1.
</event>
<event>
 8    1  0.1191842E+005  0.1043930E+01  0.7957747E-01            NaN
         13   -1    0    0    0    0  0.00000000000E+00  0.00000000000E+00  0.74505805969E-08  0.10566000000E+00  0.10566000000E+00 0.  1.
     999900   -1    0    0    0    0 -0.00000000000E+00 -0.00000000000E+00 -0.74505805969E-08  0.93827000000E+00  0.93827000000E+00 0.  1.
     999902    2    1    2    0    0  0.12509260151E-01  0.38403076637E-02 -0.20516047636E-01  0.10195961190E+01  0.10193056991E+01 0.  0.
     999903    2    3    3    0    0  0.40807756152E-01 -0.55668326060E-01 -0.11117714532E+00  0.13248760425E+00  0.20697153151E-01 0.  0.
         14    1    1    2    0    0 -0.12509260151E-01 -0.38403076637E-02  0.20516047636E-01  0.24333880970E-01  0.00000000000E+00 0.  1.
     999901    1    3    3    0    0 -0.28298496001E-01  0.59508633723E-01  0.90661097688E-01  0.88710851478E+00  0.88000000000E+00 0.  1.
        -11    1    4    4    0    0  0.12715536808E-01 -0.29793662948E-01 -0.37955039010E-01  0.49901836994E-01  0.51100000000E-03 0. -1.
         11    1    4    4    0    0  0.28092219344E-01 -0.25874663112E-01 -0.73222106314E-01  0.82585767254E-01  0.51100000000E-03 0.  1.
</event>
<event>
 8    1  0.1191842E+005  0.1043930E+01  0.7957747E-01            NaN
         13   -1    0    0    0    0  0.00000000000E+00  0.00000000000E+00  0.74505805969E-08  0.10566000000E+00  0.10566000000E+00 0. -1.
     999900   -1    0    0    0    0 -0.00000000000E+00 -0.00000000000E+00 -0.74505805969E-08  0.93827000000E+00  0.93827000000E+00 0.  1.
     999902    2    1    2    0    0 -0.81795967789E-02 -0.22978991085E-01  0.16014017061E-01  0.10147514363E+01  0.10143318436E+01 0.  0.
     999903    2    3    3    0    0 -0.79793327502E-01  0.89059942025E-01  0.28991864688E-01  0.12466735408E+00  0.20069194520E-01 0.  0.
         14    1    1    2    0    0  0.81795967789E-02  0.22978991085E-01 -0.16014017061E-01  0.29178563658E-01  0.00000000000E+00 0.  1.
     999901    1    3    3    0    0  0.71613730723E-01 -0.11203893311E+00 -0.12977847627E-01  0.89008408226E+00  0.88000000000E+00 0. -1.
        -11    1    4    4    0    0 -0.69174080379E-01  0.84606139019E-01  0.29266742556E-01  0.11313733025E+00  0.51100000000E-03 0.  1.
         11    1    4    4    0    0 -0.10619247123E-01  0.44538030057E-02 -0.27487786810E-03  0.11530023830E-01  0.51100000000E-03 0. -1.
</event>
<event>
 8    1  0.1191842E+005  0.1043930E+01  0.7957747E-01            NaN
         13   -1    0    0    0    0  0.00000000000E+00  0.00000000000E+00  0.74505805969E-08  0.10566000000E+00  0.10566000000E+00 0.  1.
     999900   -1    0    0    0    0 -0.00000000000E+00 -0.00000000000E+00 -0.74505805969E-08  0.93827000000E+00  0.93827000000E+00 0. -1.
     999902    2    1    2    0    0  0.26352355998E-02 -0.18334355783E-01 -0.15385223457E-01  0.10198510015E+01  0.10195667055E+01 0.  0.
     999903    2    3    3    0    0 -0.13809699010E-01  0.53316321133E-01 -0.11782385385E+00  0.13086397775E+00  0.14476955828E-01 0.  0.
         14    1    1    2    0    0 -0.26352355998E-02  0.18334355783E-01  0.15385223457E-01  0.24078998515E-01  0.00000000000E+00 0.  1.
     999901    1    3    3    0    0  0.16444934610E-01 -0.71650676915E-01  0.10243863039E+00  0.88898702374E+00  0.88000000000E+00 0.  1.
        -11    1    4    4    0    0 -0.44854272393E-02  0.41057542158E-01 -0.80344932817E-01  0.90340523443E-01  0.51100000000E-03 0.  1.
         11    1    4    4    0    0 -0.93242717705E-02  0.12258778974E-01 -0.37478921033E-01  0.40523454305E-01  0.51100000000E-03 0. -1.
</event>
<event>
 8    1  0.1191842E+005  0.1043930E+01  0.7957747E-01            NaN
         13   -1    0    0    0    0  0.00000000000E+00  0.00000000000E+00  0.74505805969E-08  0.10566000000E+00  0.10566000000E+00 0.  1.
     999900   -1    0    0    0    0 -0.00000000000E+00 -0.00000000000E+00 -0.74505805969E-08  0.93827000000E+00  0.93827000000E+00 0.  1.
     999902    2    1    2    0    0  0.16256205382E-01  0.41439099444E-02  0.17404409675E-01  0.10197566742E+01  0.10194701197E+01 0.  0.
     999903    2    3    3    0    0  0.75442691533E-01 -0.91074406240E-01  0.54286813138E-01  0.13187724572E+00  0.21410340466E-01 0.  0.
         14    1    1    2    0    0 -0.16256205382E-01 -0.41439099444E-02 -0.17404409675E-01  0.24173325778E-01  0.00000000000E+00 0. -1.
     999901    1    3    3    0    0 -0.59186486151E-01  0.95218316185E-01 -0.36882403463E-01  0.88787942851E+00  0.88000000000E+00 0. -1.
        -11    1    4    4    0    0  0.63799447183E-01 -0.75236198958E-01  0.53447816999E-01  0.11219530007E+00  0.51100000000E-03 0. -1.
         11    1    4    4    0    0  0.11643244350E-01 -0.15838207282E-01  0.83899613954E-03  0.19681945647E-01  0.51100000000E-03 0.  1.
</event>
<event>
 8    1  0.1191842E+005  0.1043930E+01  0.7957747E-01            NaN
         13   -1    0    0    0    0  0.00000000000E+00  0.00000000000E+00  0.74505805969E-08  0.10566000000E+00  0.10566000000E+00 0. -1.
     999900   -1    0    0    0    0 -0.00000000000E+00 -0.00000000000E+00 -0.74505805969E-08  0.93827000000E+00  0.93827000000E+00 0.  1.
     999902    2    1    2    0    0  0.10542474530E-01  0.10398776396E-01  0.18970416203E-01  0.10198643604E+01  0.10195803836E+01 0.  0.
     999903    2    3    3    0    0  0.85816552785E-02  0.10203961400E+00 -0.77405095123E-01  0.12986990696E+00  0.19720962194E-01 0.  0.
         14    1    1    2    0    0 -0.10542474530E-01 -0.10398776396E-01 -0.18970416203E-01  0.24065639627E-01  0.00000000000E+00 0.  1.
     999901    1    3    3    0    0  0.19608192511E-02 -0.91640837601E-01  0.96375511327E-01  0.88999445342E+00  0.88000000000E+00 0. -1.
        -11    1    4    4    0    0 -0.41845116392E-02  0.26225028820E-01 -0.27364427807E-01  0.38135748379E-01  0.51100000000E-03 0.  1.
         11    1    4    4    0    0  0.12766166918E-01  0.75814585178E-01 -0.50040667317E-01  0.91734158577E-01  0.51100000000E-03 0. -1.
</event>
<event>
 8    1  0.1191842E+005  0.1043930E+01  0.7957747E-01            NaN
         13   -1    0    0    0    0  0.00000000000E+00  0.00000000000E+00  0.74505805969E-08  0.10566000000E+00  0.10566000000E+00 0. -1.
     999900   -1    0    0    0    0 -0.00000000000E+00 -0.00000000000E+00 -0.74505805969E-08  0.93827000000E+00  0.93827000000E+00 0.  1.
     999902    2    1    2    0    0  0.22057880207E-01 -0.36275037777E-02  0.88170565159E-03  0.10215584496E+01  0.10213134581E+01 0.  0.
     999903    2    3    3    0    0 -0.21898535181E-01  0.11104622167E+00 -0.62466844313E-01  0.13077493574E+00  0.19727341189E-01 0.  0.
         14    1    1    2    0    0 -0.22057880207E-01  0.36275037777E-02 -0.88170565159E-03  0.22371550410E-01  0.00000000000E+00 0.  1.
     999901    1    3    3    0    0  0.43956415388E-01 -0.11467372544E+00  0.63348549964E-01  0.89078351385E+00  0.88000000000E+00 0.  1.
        -11    1    4    4    0    0 -0.99351044918E-02  0.77336294048E-01 -0.34029867238E-01  0.85075858289E-01  0.51100000000E-03 0. -1.
         11    1    4    4    0    0 -0.11963430689E-01  0.33709927618E-01 -0.28436977075E-01  0.45699077453E-01  0.51100000000E-03 0.  1.
</event>
<event>
 8    1  0.1191842E+005  0.1043930E+01  0.7957747E-01            NaN
         13   -1    0    0    0    0  0.00000000000E+00  0.00000000000E+00  0.74505805969E-08  0.10566000000E+00  0.10566000000E+00 0.  1.
     999900   -1    0    0    0    0 -0.00000000000E+00 -0.00000000000E+00 -0.74505805969E-08  0.93827000000E+00  0.93827000000E+00 0. -1.
     999902    2    1    2    0    0  0.17808158169E-01  0.42039161269E-02  0.13592014370E-01  0.10211364425E+01  0.10208820147E+01 0.  0.
     999903    2    3    3    0    0  0.17922699875E-02  0.12987162590E+00 -0.86821514439E-02  0.13178554415E+00  0.20547468142E-01 0.  0.
         14    1    1    2    0    0 -0.17808158169E-01 -0.42039161269E-02 -0.13592014370E-01  0.22793557485E-01  0.00000000000E+00 0. -1.
     999901    1    3    3    0    0  0.16015888182E-01 -0.12566770978E+00  0.22274165814E-01  0.88935089836E+00  0.88000000000E+00 0. -1.
        -11    1    4    4    0    0  0.10351647300E-01  0.91611499274E-01 -0.38075321695E-02  0.92274491726E-01  0.51100000000E-03 0. -1.
         11    1    4    4    0    0 -0.85593773129E-02  0.38260126631E-01 -0.48746192745E-02  0.39511052426E-01  0.51100000000E-03 0.  1.
</event>
<event>
 8    1  0.1191842E+005  0.1043930E+01  0.7957747E-01            NaN
         13   -1    0    0    0    0  0.00000000000E+00  0.00000000000E+00  0.74505805969E-08  0.10566000000E+00  0.10566000000E+00 0.  1.
     999900   -1    0    0    0    0 -0.00000000000E+00 -0.00000000000E+00 -0.74505805969E-08  0.93827000000E+00  0.93827000000E+00 0.  1.
     999902    2    1    2    0    0  0.21368361437E-01  0.37483801637E-02  0.94369338809E-02  0.10202717468E+01  0.10199974139E+01 0.  0.
     999903    2    3    3    0    0  0.92762072529E-02 -0.28631697295E-01 -0.12444564969E+00  0.12947478013E+00  0.19265950560E-01 0.  0.
         14    1    1    2    0    0 -0.21368361437E-01 -0.37483801637E-02 -0.94369338809E-02  0.23658253221E-01  0.00000000000E+00 0. -1.
     999901    1    3    3    0    0  0.12092154185E-01  0.32380077459E-01  0.13388258357E+00  0.89079696665E+00  0.88000000000E+00 0. -1.
        -11    1    4    4    0    0  0.31650336071E-02 -0.25168188543E-01 -0.67777008265E-01  0.72370153534E-01  0.51100000000E-03 0. -1.
         11    1    4    4    0    0  0.61111736457E-02 -0.34635087523E-02 -0.56668641428E-01  0.57104626595E-01  0.51100000000E-03 0.  1.
</event>
<event>
 8    1  0.1191842E+005  0.1043930E+01  0.7957747E-01            NaN
         13   -1    0    0    0    0  0.00000000000E+00  0.00000000000E+00  0.74505805969E-08  0.10566000000E+00  0.10566000000E+00 0.  1.
     999900   -1    0    0    0    0 -0.00000000000E+00 -0.00000000000E+00 -0.74505805969E-08  0.93827000000E+00  0.93827000000E+00 0. -1.
     999902    2    1    2    0    0 -0.36351015815E-02  0.13916244980E-02 -0.23788599289E-01  0.10198250620E+01  0.10195401458E+01 0.  0.
     999903    2    3    3    0    0  0.21486473289E-01 -0.77970798843E-01 -0.10291142347E+00  0.13236243791E+00  0.19696189520E-01 0.  0.
         14    1    1    2    0    0  0.36351015815E-02 -0.13916244980E-02  0.23788599289E-01  0.24104938050E-01  0.00000000000E+00 0.  1.
     999901    1    3    3    0    0 -0.25121574871E-01  0.79362423341E-01  0.79122824183E-01  0.88746262404E+00  0.88000000000E+00 0.  1.
        -11    1    4    4    0    0  0.86526218489E-02 -0.37065030900E-01 -0.63992361360E-01  0.74457825740E-01  0.51100000000E-03 0. -1.
         11    1    4    4    0    0  0.12833851440E-01 -0.40905767943E-01 -0.38919062112E-01  0.57904612170E-01  0.51100000000E-03 0.  1.
</event>
<event>
 8    1  0.1191842E+005  0.1043930E+01  0.7957747E-01            NaN
         13   -1    0    0    0    0  0.00000000000E+00  0.00000000000E+00  0.74505805969E-08  0.10566000000E+00  0.10566000000E+00 0. -1.
     999900   -1    0    0    0    0 -0.00000000000E+00 -0.00000000000E+00 -0.74505805969E-08  0.93827000000E+00  0.93827000000E+00 0.  1.
     999902    2    1    2    0    0 -0.41696584958E-02  0.14676314919E-01  0.19127761184E-01  0.10194626438E+01  0.10191689902E+01 0.  0.
     999903    2    3    3    0    0 -0.22705423856E-01  0.30564027055E-01 -0.12088261832E+00  0.12805987268E+00  0.18358310293E-01 0.  0.
         14    1    1    2    0    0  0.41696584958E-02 -0.14676314919E-01 -0.19127761184E-01  0.24467356202E-01  0.00000000000E+00 0.  1.
     999901    1    3    3    0    0  0.18535765360E-01 -0.15887712136E-01  0.14001037950E+00  0.89140277112E+00  0.88000000000E+00 0. -1.
        -11    1    4    4    0    0 -0.59962215812E-02  0.72122870631E-02 -0.60154729248E-01  0.60883695107E-01  0.51100000000E-03 0.  1.
         11    1    4    4    0    0 -0.16709202274E-01  0.23351739992E-01 -0.60727889068E-01  0.67176177570E-01  0.51100000000E-03 0. -1.
</event>
<event>
 8    1  0.1191842E+005  0.1043930E+01  0.7957747E-01            NaN
         13   -1    0    0    0    0  0.00000000000E+00  0.00000000000E+00  0.74505805969E-08  0.10566000000E+00  0.10566000000E+00 0.  1.
     999900   -1    0    0    0    0 -0.00000000000E+00 -0.00000000000E+00 -0.74505805969E-08  0.93827000000E+00  0.93827000000E+00 0. -1.
     999902    2    1    2    0    0 -0.20930032092E-01  0.61639233763E-02  0.10717238567E-01  0.10196211663E+01  0.10193313511E+01 0.  0.
     999903    2    3    3    0    0  0.24270027110E-01 -0.12334928103E+00  0.22602418142E-01  0.12891472026E+00  0.17437214449E-01 0.  0.
         14    1    1    2    0    0  0.20930032092E-01 -0.61639233763E-02 -0.10717238567E-01  0.24308833729E-01  0.00000000000E+00 0.  1.
     999901    1    3    3    0    0 -0.45200059202E-01  0.12951320441E+00 -0.11885179575E-01  0.89070644601E+00  0.88000000000E+00 0.  1.
        -11    1    4    4    0    0 -0.58904007338E-04 -0.31509482189E-01  0.10065716808E-01  0.33082181206E-01  0.51100000000E-03 0.  1.
         11    1    4    4    0    0  0.24328931118E-01 -0.91839798842E-01  0.12536701333E-01  0.95832539056E-01  0.51100000000E-03 0. -1.
</event>
<event>
 8    1  0.1191842E+005  0.1043930E+01  0.7957747E-01            NaN
         13   -1    0    0    0    0  0.00000000000E+00  0.00000000000E+00  0.74505805969E-08  0.10566000000E+00  0.10566000000E+00 0.  1.
     999900   -1    0    0    0    0 -0.00000000000E+00 -0.00000000000E+00 -0.74505805969E-08  0.93827000000E+00  0.93827000000E+00 0. -1.
     999902    2    1    2    0    0  0.56088841563E-02 -0.18148959695E-01 -0.14965371956E-01  0.10197472235E+01  0.10194604422E+01 0.  0.
     999903    2    3    3    0    0 -0.25328422004E-01  0.77222446098E-01 -0.99747595769E-01  0.13000521181E+00  0.18626247468E-01 0.  0.
         14    1    1    2    0    0 -0.56088841563E-02  0.18148959695E-01  0.14965371956E-01  0.24182776460E-01  0.00000000000E+00 0.  1.
     999901    1    3    3    0    0  0.30937306161E-01 -0.95371405793E-01  0.84782223813E-01  0.88974201173E+00  0.88000000000E+00 0.  1.
        -11    1    4    4    0    0  0.22943824516E-02  0.16254887330E-01 -0.20743645105E-01  0.26458372705E-01  0.51100000000E-03 0.  1.
         11    1    4    4    0    0 -0.27622804456E-01  0.60967558767E-01 -0.79003950664E-01  0.10354683911E+00  0.51100000000E-03 0. -1.
</event>
<event>
 8    1  0.1191842E+005  0.1043930E+01  0.7957747E-01            NaN
         13   -1    0    0    0    0  0.00000000000E+00  0.00000000000E+00  0.74505805969E-08  0.10566000000E+00  0.10566000000E+00 0.  1.
     999900   -1    0    0    0    0 -0.00000000000E+00 -0.00000000000E+00 -0.74505805969E-08  0.93827000000E+00  0.93827000000E+00 0. -1.
     999902    2    1    2    0    0  0.81921822692E-02  0.31711473579E-02 -0.23242751020E-01  0.10190825957E+01  0.10187796343E+01 0.  0.
     999903    2    3    3    0    0 -0.91844380192E-01 -0.55137865422E-01 -0.70812397716E-01  0.13022370583E+00  0.21638935122E-01 0.  0.
         14    1    1    2    0    0 -0.81921822692E-02 -0.31711473579E-02  0.23242751020E-01  0.24847404309E-01  0.00000000000E+00 0.  1.
     999901    1    3    3    0    0  0.10003656246E+00  0.58309012780E-01  0.47569646696E-01  0.88885888986E+00  0.88000000000E+00 0. -1.
        -11    1    4    4    0    0 -0.41340920764E-01 -0.20146815771E-01 -0.42305408307E-01  0.62489796034E-01  0.51100000000E-03 0.  1.
         11    1    4    4    0    0 -0.50503459428E-01 -0.34991049651E-01 -0.28506989409E-01  0.67733909795E-01  0.51100000000E-03 0. -1.
</event>
<event>
 8    1  0.1191842E+005  0.1043930E+01  0.7957747E-01            NaN
         13   -1    0    0    0    0  0.00000000000E+00  0.00000000000E+00  0.74505805969E-08  0.10566000000E+00  0.10566000000E+00 0.  1.
     999900   -1    0    0    0    0 -0.00000000000E+00 -0.00000000000E+00 -0.74505805969E-08  0.93827000000E+00  0.93827000000E+00 0.  1.
     999902    2    1    2    0    0  0.14584245441E-01  0.11075395746E-01  0.14303352494E-01  0.10206931650E+01  0.10204286289E+01 0.  0.
     999903    2    3    3    0    0 -0.23387742526E-01  0.77371852628E-01 -0.99769518647E-01  0.13004749364E+00  0.20615617186E-01 0.  0.
         14    1    1    2    0    0 -0.14584245441E-01 -0.11075395746E-01 -0.14303352494E-01  0.23236834952E-01  0.00000000000E+00 0.  1.
     999901    1    3    3    0    0  0.37971987967E-01 -0.66296456881E-01  0.11407287114E+00  0.89064567141E+00  0.88000000000E+00 0. -1.
        -11    1    4    4    0    0 -0.76097641588E-03  0.20959204177E-01 -0.37877514286E-01  0.43299359514E-01  0.51100000000E-03 0. -1.
         11    1    4    4    0    0 -0.22626766110E-01  0.56412648451E-01 -0.61892004361E-01  0.86748134128E-01  0.51100000000E-03 0.  1.
</event>
<event>
 8    1  0.1191842E+005  0.1043930E+01  0.7957747E-01            NaN
         13   -1    0    0    0    0  0.00000000000E+00  0.00000000000E+00  0.74505805969E-08  0.10566000000E+00  0.10566000000E+00 0. -1.
     999900   -1    0    0    0    0 -0.00000000000E+00 -0.00000000000E+00 -0.74505805969E-08  0.93827000000E+00  0.93827000000E+00 0.  1.
     999902    2    1    2    0    0 -0.15103987031E-02 -0.96006954241E-02 -0.21939967852E-01  0.10199338160E+01  0.10196514955E+01 0.  0.
     999903    2    3    3    0    0  0.24804641358E-02 -0.12843975546E+00 -0.22306308898E-01  0.13193675330E+00  0.20169580262E-01 0.  0.
         14    1    1    2    0    0  0.15103987031E-02  0.96006954241E-02  0.21939967852E-01  0.23996183993E-01  0.00000000000E+00 0. -1.
     999901    1    3    3    0    0 -0.39908628389E-02  0.11883906004E+00  0.36634104644E-03  0.88799706271E+00  0.88000000000E+00 0. -1.
        -11    1    4    4    0    0  0.26971101571E-02 -0.77748279858E-01 -0.23370021722E-01  0.81231080630E-01  0.51100000000E-03 0. -1.
         11    1    4    4    0    0 -0.21664602127E-03 -0.50691475606E-01  0.10637128242E-02  0.50705672666E-01  0.51100000000E-03 0.  1.
</event>
<event>
 8    1  0.1191842E+005  0.1043930E+01  0.7957747E-01            NaN
         13   -1    0    0    0    0  0.00000000000E+00  0.00000000000E+00  0.74505805969E-08  0.10566000000E+00  0.10566000000E+00 0.  1.
     999900   -1    0    0    0    0 -0.00000000000E+00 -0.00000000000E+00 -0.74505805969E-08  0.93827000000E+00  0.93827000000E+00 0.  1.
     999902    2    1    2    0    0  0.14915135215E-01 -0.95527010416E-02 -0.16106654482E-01  0.10199896643E+01  0.10197086719E+01 0.  0.
     999903    2    3    3    0    0 -0.84530868330E-01 -0.73776175932E-01  0.60184177151E-01  0.12879133992E+00  0.19408302971E-01 0.  0.
         14    1    1    2    0    0 -0.14915135215E-01  0.95527010416E-02  0.16106654482E-01  0.23940335718E-01  0.00000000000E+00 0.  1.
     999901    1    3    3    0    0  0.99446003545E-01  0.64223474890E-01 -0.76290831633E-01  0.89119832436E+00  0.88000000000E+00 0.  1.
        -11    1    4    4    0    0 -0.60824629999E-01 -0.58013363878E-01  0.36028312007E-01  0.91452098882E-01  0.51100000000E-03 0.  1.
         11    1    4    4    0    0 -0.23706238332E-01 -0.15762812054E-01  0.24155865145E-01  0.37339241041E-01  0.51100000000E-03 0. -1.
</event>
<event>
 8    1  0.1191842E+005  0.1043930E+01  0.7957747E-01            NaN
         13   -1    0    0    0    0  0.00000000000E+00  0.00000000000E+00  0.74505805969E-08  0.10566000000E+00  0.10566000000E+00 0.  1.
     999900   -1    0    0    0    0 -0.00000000000E+00 -0.00000000000E+00 -0.74505805969E-08  0.93827000000E+00  0.93827000000E+00 0. -1.
     999902    2    1    2    0    0 -0.12644604421E-01 -0.17696291935E-01  0.12942044269E-01  0.10186210830E+01  0.10183066186E+01 0.  0.
     999903    2    3    3    0    0  0.83052573754E-01 -0.29071597472E-01 -0.89937700783E-01  0.12740192398E+00  0.19989307763E-01 0.  0.
         14    1    1    2    0    0  0.12644604421E-01  0.17696291935E-01 -0.12942044269E-01  0.25308916987E-01  0.00000000000E+00 0.  1.
     999901    1    3    3    0    0 -0.95697178174E-01  0.11375305537E-01  0.10287974505E+00  0.89121915903E+00  0.88000000000E+00 0.  1.
        -11    1    4    4    0    0  0.50131012323E-01 -0.24285708137E-01 -0.66259724227E-01  0.86565155761E-01  0.51100000000E-03 0.  1.
         11    1    4    4    0    0  0.32921561431E-01 -0.47858893350E-02 -0.23677976556E-01  0.40836768218E-01  0.51100000000E-03 0. -1.
</event>
<event>
 8    1  0.1191842E+005  0.1043930E+01  0.7957747E-01            NaN
         13   -1    0    0    0    0  0.00000000000E+00  0.00000000000E+00  0.74505805969E-08  0.10566000000E+00  0.10566000000E+00 0. -1.
     999900   -1    0    0    0    0 -0.00000000000E+00 -0.00000000000E+00 -0.74505805969E-08  0.93827000000E+00  0.93827000000E+00 0.  1.
     999902    2    1    2    0    0 -0.21005600990E-01  0.10616446408E-01 -0.38388003392E-02  0.10200829751E+01  0.10198041947E+01 0.  0.
     999903    2    3    3    0    0  0.95662312383E-01  0.33463733010E-01 -0.77572366111E-01  0.12903301063E+00  0.18998589670E-01 0.  0.
         14    1    1    2    0    0  0.21005600990E-01 -0.10616446408E-01  0.38388003392E-02  0.23847024874E-01  0.00000000000E+00 0. -1.
     999901    1    3    3    0    0 -0.11666791337E+00 -0.22847286602E-01  0.73733565772E-01  0.89104996450E+00  0.88000000000E+00 0.  1.
        -11    1    4    4    0    0  0.56524549586E-01  0.97977193866E-02 -0.43614399960E-01  0.72065921322E-01  0.51100000000E-03 0.  1.
         11    1    4    4    0    0  0.39137762798E-01  0.23666013623E-01 -0.33957966151E-01  0.56967089303E-01  0.51100000000E-03 0. -1.
</event>
<event>
 8    1  0.1191842E+005  0.1043930E+01  0.7957747E-01            NaN
         13   -1    0    0    0    0  0.00000000000E+00  0.00000000000E+00  0.74505805969E-08  0.10566000000E+00  0.10566000000E+00 0. -1.
     999900   -1    0    0    0    0 -0.00000000000E+00 -0.00000000000E+00 -0.74505805969E-08  0.93827000000E+00  0.93827000000E+00 0. -1.
     999902    2    1    2    0    0  0.52165960507E-02 -0.16478634177E-01 -0.16110356326E-01  0.10203015883E+01  0.10200279551E+01 0.  0.
     999903    2    3    3    0    0 -0.78253558129E-01  0.26959646341E-01 -0.10005356147E+00  0.13131305488E+00  0.19543830967E-01 0.  0.
         14    1    1    2    0    0 -0.52165960507E-02  0.16478634177E-01  0.16110356326E-01  0.23628411704E-01  0.00000000000E+00 0. -1.
     999901    1    3    3    0    0  0.83470154180E-01 -0.43438280518E-01  0.83943205144E-01  0.88898853341E+00  0.88000000000E+00 0. -1.
        -11    1    4    4    0    0 -0.47719598956E-01  0.14476535013E-01 -0.45215130765E-01  0.67315669510E-01  0.51100000000E-03 0. -1.
         11    1    4    4    0    0 -0.30533959173E-01  0.12483111328E-01 -0.54838430705E-01  0.63997385371E-01  0.51100000000E-03 0.  1.
</event>
<event>
 8    1  0.1191842E+005  0.1043930E+01  0.7957747E-01            NaN
         13   -1    0    0    0    0  0.00000000000E+00  0.00000000000E+00  0.74505805969E-08  0.10566000000E+00  0.10566000000E+00 0. -1.
     999900   -1    0    0    0    0 -0.00000000000E+00 -0.00000000000E+00 -0.74505805969E-08  0.93827000000E+00  0.93827000000E+00 0.  1.
     999902    2    1    2    0    0 -0.10242470188E-01  0.13159803654E-01  0.17180423154E-01  0.10199872439E+01  0.10197061941E+01 0.  0.
     999903    2    3    3    0    0 -0.23926901887E-01  0.97678321615E-01  0.85194669051E-01  0.13321975402E+00  0.19386079494E-01 0.  0.
         14    1    1    2    0    0  0.10242470188E-01 -0.13159803654E-01 -0.17180423154E-01  0.23942756055E-01  0.00000000000E+00 0.  1.
     999901    1    3    3    0    0  0.13684431699E-01 -0.84518517961E-01 -0.68014245896E-01  0.88676748993E+00  0.88000000000E+00 0. -1.
        -11    1    4    4    0    0  0.89162069330E-03  0.95236696937E-02  0.26791055233E-02  0.99465571581E-02  0.51100000000E-03 0.  1.
         11    1    4    4    0    0 -0.24818522581E-01  0.88154651921E-01  0.82515563527E-01  0.12327319686E+00  0.51100000000E-03 0. -1.
</event>
<event>
 8    1  0.1191842E+005  0.1043930E+01  0.7957747E-01            NaN
         13   -1    0    0    0    0  0.00000000000E+00  0.00000000000E+00  0.74505805969E-08  0.10566000000E+00  0.10566000000E+00 0. -1.
     999900   -1    0    0    0    0 -0.00000000000E+00 -0.00000000000E+00 -0.74505805969E-08  0.93827000000E+00  0.93827000000E+00 0. -1.
     999902    2    1    2    0    0  0.88751371380E-02  0.48088325625E-03  0.21911774819E-01  0.10202841720E+01  0.10200101305E+01 0.  0.
     999903    2    3    3    0    0  0.88500128786E-01  0.93176832245E-01  0.21745048441E-01  0.13184019171E+00  0.19869427648E-01 0.  0.
         14    1    1    2    0    0 -0.88751371380E-02 -0.48088325625E-03 -0.21911774819E-01  0.23645828038E-01  0.00000000000E+00 0.  1.
     999901    1    3    3    0    0 -0.79624991648E-01 -0.92695948989E-01  0.16672637723E-03  0.88844398026E+00  0.88000000000E+00 0.  1.
        -11    1    4    4    0    0  0.55870462733E-01  0.45526362358E-01  0.15774435777E-01  0.73778399418E-01  0.51100000000E-03 0. -1.
         11    1    4    4    0    0  0.32629666053E-01  0.47650469887E-01  0.59706126648E-02  0.58061792289E-01  0.51100000000E-03 0.  1.
</event>
<event>
 8    1  0.1191842E+005  0.1043930E+01  0.7957747E-01            NaN
         13   -1    0    0    0    0  0.00000000000E+00  0.00000000000E+00  0.74505805969E-08  0.10566000000E+00  0.10566000000E+00 0.  1.
     999900   -1    0    0    0    0 -0.00000000000E+00 -0.00000000000E+00 -0.74505805969E-08  0.93827000000E+00  0.93827000000E+00 0.  1.
     999902    2    1    2    0    0  0.12187128750E-01 -0.50731539011E-02  0.19605429877E-01  0.10202945208E+01  0.10200207220E+01 0.  0.
     999903    2    3    3    0    0 -0.95806516417E-01 -0.60852535413E-01 -0.57199514350E-01  0.12862587926E+00  0.19771512822E-01 0.  0.
         14    1    1    2    0    0 -0.12187128750E-01  0.50731539011E-02 -0.19605429877E-01  0.23635479228E-01  0.00000000000E+00 0. -1.
     999901    1    3    3    0    0  0.10799364517E+00  0.55779381512E-01  0.76804944228E-01  0.89166864151E+00  0.88000000000E+00 0. -1.
        -11    1    4    4    0    0 -0.37397889429E-01 -0.20669683464E-01 -0.31987065192E-01  0.53378566943E-01  0.51100000000E-03 0. -1.
         11    1    4    4    0    0 -0.58408626988E-01 -0.40182851949E-01 -0.25212449158E-01  0.75247312317E-01  0.51100000000E-03 0.  1.
</event>
<event>
 8    1  0.1191842E+005  0.1043930E+01  0.7957747E-01            NaN
         13   -1    0    0    0    0  0.00000000000E+00  0.00000000000E+00  0.74505805969E-08  0.10566000000E+00  0.10566000000E+00 0.  1.
     999900   -1    0    0    0    0 -0.00000000000E+00 -0.00000000000E+00 -0.74505805969E-08  0.93827000000E+00  0.93827000000E+00 0.  1.
     999902    2    1    2    0    0  0.13846796529E-01 -0.15919787615E-01 -0.62077203864E-02  0.10219366100E+01  0.10216999196E+01 0.  0.
     999903    2    3    3    0    0  0.77446709420E-01  0.17395518288E-01 -0.10511559531E+00  0.13348986074E+00  0.21671587059E-01 0.  0.
         14    1    1    2    0    0 -0.13846796529E-01  0.15919787615E-01  0.62077203864E-02  0.21993390012E-01  0.00000000000E+00 0. -1.
     999901    1    3    3    0    0 -0.63599912891E-01 -0.33315305903E-01  0.98907874927E-01  0.88844674925E+00  0.88000000000E+00 0. -1.
        -11    1    4    4    0    0  0.45959073486E-01  0.14561364876E-01 -0.78673201525E-01  0.92271358189E-01  0.51100000000E-03 0.  1.
         11    1    4    4    0    0  0.31487635934E-01  0.28341534120E-02 -0.26442393788E-01  0.41218502550E-01  0.51100000000E-03 0. -1.
</event>
<event>
 8    1  0.1191842E+005  0.1043930E+01  0.7957747E-01            NaN
         13   -1    0    0    0    0  0.00000000000E+00  0.00000000000E+00  0.74505805969E-08  0.10566000000E+00  0.10566000000E+00 0. -1.
     999900   -1    0    0    0    0 -0.00000000000E+00 -0.00000000000E+00 -0.74505805969E-08  0.93827000000E+00  0.93827000000E+00 0.  1.
     999902    2    1    2    0    0 -0.17654249547E-01 -0.93915148271E-02  0.14964491477E-01  0.10189538297E+01  0.10186476810E+01 0.  0.
     999903    2    3    3    0    0  0.10154661196E+00  0.71361561454E-01  0.19834056407E-01  0.12723996450E+00  0.19809894475E-01 0.  0.
         14    1    1    2    0    0  0.17654249547E-01  0.93915148271E-02 -0.14964491477E-01  0.24976170303E-01  0.00000000000E+00 0. -1.
     999901    1    3    3    0    0 -0.11920086151E+00 -0.80753076282E-01 -0.48695649300E-02  0.89171386519E+00  0.88000000000E+00 0.  1.
        -11    1    4    4    0    0  0.94779881763E-01  0.71677633721E-01  0.19634381291E-01  0.12044367651E+00  0.51100000000E-03 0. -1.
         11    1    4    4    0    0  0.67667302008E-02 -0.31607226639E-03  0.19967511663E-03  0.67962879898E-02  0.51100000000E-03 0.  1.
</event>
<event>
 8    1  0.1191842E+005  0.1043930E+01  0.7957747E-01            NaN
         13   -1    0    0    0    0  0.00000000000E+00  0.00000000000E+00  0.74505805969E-08  0.10566000000E+00  0.10566000000E+00 0. -1.
     999900   -1    0    0    0    0 -0.00000000000E+00 -0.00000000000E+00 -0.74505805969E-08  0.93827000000E+00  0.93827000000E+00 0.  1.
     999902    2    1    2    0    0 -0.16153598873E-01  0.13029853029E-01 -0.11345727830E-01  0.10202774871E+01  0.10200032889E+01 0.  0.
     999903    2    3    3    0    0  0.11248020775E+00 -0.25954950426E-01  0.51374672880E-01  0.12786484725E+00  0.19611363056E-01 0.  0.
         14    1    1    2    0    0  0.16153598873E-01 -0.13029853029E-01  0.11345727830E-01  0.23652512900E-01  0.00000000000E+00 0. -1.
     999901    1    3    3    0    0 -0.12863380662E+00  0.38984803455E-01 -0.62720400710E-01  0.89241263985E+00  0.88000000000E+00 0.  1.
        -11    1    4    4    0    0  0.54686364895E-01 -0.49461691176E-02  0.31130710641E-01  0.63122463199E-01  0.51100000000E-03 0.  1.
         11    1    4    4    0    0  0.57793842854E-01 -0.21008781309E-01  0.20243962238E-01  0.64742384046E-01  0.51100000000E-03 0. -1.
</event>
<event>
 8    1  0.1191842E+005  0.1043930E+01  0.7957747E-01            NaN
         13   -1    0    0    0    0  0.00000000000E+00  0.00000000000E+00  0.74505805969E-08  0.10566000000E+00  0.10566000000E+00 0. -1.
     999900   -1    0    0    0    0 -0.00000000000E+00 -0.00000000000E+00 -0.74505805969E-08  0.93827000000E+00  0.93827000000E+00 0. -1.
     999902    2    1    2    0    0  0.22508166712E-01 -0.21437791661E-02  0.89466141987E-02  0.10196142589E+01  0.10193242770E+01 0.  0.
     999903    2    3    3    0    0 -0.65376386519E-01  0.68878843614E-01 -0.82981134184E-01  0.12763969732E+00  0.19688999224E-01 0.  0.
         14    1    1    2    0    0 -0.22508166712E-01  0.21437791661E-02 -0.89466141987E-02  0.24315741063E-01  0.00000000000E+00 0.  1.
     999901    1    3    3    0    0  0.87884553230E-01 -0.71022622781E-01  0.91927748383E-01  0.89197456161E+00  0.88000000000E+00 0.  1.
        -11    1    4    4    0    0 -0.42589247414E-01  0.42926077214E-01 -0.64698800709E-01  0.88558952311E-01  0.51100000000E-03 0.  1.
         11    1    4    4    0    0 -0.22787139105E-01  0.25952766400E-01 -0.18282333475E-01  0.39080745012E-01  0.51100000000E-03 0. -1.
</event>
<event>
 8    1  0.1191842E+005  0.1043930E+01  0.7957747E-01            NaN
         13   -1    0    0    0    0  0.00000000000E+00  0.00000000000E+00  0.74505805969E-08  0.10566000000E+00  0.10566000000E+00 0.  1.
     999900   -1    0    0    0    0 -0.00000000000E+00 -0.00000000000E+00 -0.74505805969E-08  0.93827000000E+00  0.93827000000E+00 0. -1.
     999902    2    1    2    0    0  0.19671382496E-01  0.41333786742E-02 -0.11393944648E-01  0.10208243712E+01  0.10205628480E+01 0.  0.
     999903    2    3    3    0    0 -0.90890284946E-01  0.61568577483E-01 -0.67612315433E-01  0.13027218878E+00  0.18646295597E-01 0.  0.
         14    1    1    2    0    0 -0.19671382496E-01 -0.41333786742E-02  0.11393944648E-01  0.23105628821E-01  0.00000000000E+00 0. -1.
     999901    1    3    3    0    0  0.11056166744E+00 -0.57435198808E-01  0.56218370785E-01  0.89055218240E+00  0.88000000000E+00 0. -1.
        -11    1    4    4    0    0 -0.53000452840E-01  0.36929595249E-01 -0.28936377524E-01  0.70784306677E-01  0.51100000000E-03 0. -1.
         11    1    4    4    0    0 -0.37889832106E-01  0.24638982234E-01 -0.38675937908E-01  0.59487882099E-01  0.51100000000E-03 0.  1.
</event>
<event>
 8    1  0.1191842E+005  0.1043930E+01  0.7957747E-01            NaN
         13   -1    0    0    0    0  0.00000000000E+00  0.00000000000E+00  0.74505805969E-08  0.10566000000E+00  0.10566000000E+00 0. -1.
     999900   -1    0    0    0    0 -0.00000000000E+00 -0.00000000000E+00 -0.74505805969E-08  0.93827000000E+00  0.93827000000E+00 0. -1.
     999902    2    1    2    0    0 -0.28023812474E-02  0.23307871387E-01  0.25379113986E-02  0.10203174778E+01  0.10200442169E+01 0.  0.
     999903    2    3    3    0    0  0.50524112677E-01  0.11003706980E+00  0.51050035868E-01  0.13312015195E+00  0.21307885899E-01 0.  0.
         14    1    1    2    0    0  0.28023812474E-02 -0.23307871387E-01 -0.25379113986E-02  0.23612522176E-01  0.00000000000E+00 0.  1.
     999901    1    3    3    0    0 -0.53326493924E-01 -0.86729198415E-01 -0.48512124470E-01  0.88719732587E+00  0.88000000000E+00 0.  1.
        -11    1    4    4    0    0  0.24678803834E-01  0.77339242175E-01  0.31481120834E-01  0.87073094747E-01  0.51100000000E-03 0.  1.
         11    1    4    4    0    0  0.25845308843E-01  0.32697827627E-01  0.19568915035E-01  0.46047057206E-01  0.51100000000E-03 0. -1.
</event>
<event>
 7    1  0.1191842E+005  0.1043930E+01  0.7957747E-01            NaN
         13   -1    0    0    0    0  0.00000000000E+00  0.00000000000E+00  0.74505805969E-08  0.10566000000E+00  0.10566000000E+00 0. -1.
     999900   -1    0    0    0    0 -0.00000000000E+00 -0.00000000000E+00 -0.74505805969E-08  0.93827000000E+00  0.93827000000E+00 0.  1.
     999903    2    1    2    0    0  0.42944977726E-01 -0.19462400130E-01 -0.68283844533E-01  0.85206231721E-01  0.19348446170E-01 0.  0.
         14    1    1    2    0    0 -0.53941395240E-02  0.26537878591E-01 -0.62616050501E-01  0.68221151571E-01  0.00000000000E+00 0.  1.
     999901    1    1    2    0    0 -0.37550838202E-01 -0.70754784611E-02  0.13089989503E+00  0.89050261671E+00  0.88000000000E+00 0. -1.
        -11    1    3    3    0    0  0.25239250101E-01 -0.15087952151E-01 -0.55871520804E-01  0.63139163787E-01  0.51100000000E-03 0. -1.
         11    1    3    3    0    0  0.17705727625E-01 -0.43744479788E-02 -0.12412323729E-01  0.22067067934E-01  0.51100000000E-03 0.  1.
</event>
<event>
 8    1  0.1191842E+005  0.1043930E+01  0.7957747E-01            NaN
         13   -1    0    0    0    0  0.00000000000E+00  0.00000000000E+00  0.74505805969E-08  0.10566000000E+00  0.10566000000E+00 0.  1.
     999900   -1    0    0    0    0 -0.00000000000E+00 -0.00000000000E+00 -0.74505805969E-08  0.93827000000E+00  0.93827000000E+00 0.  1.
     999902    2    1    2    0    0  0.10352360848E-01  0.16156525077E-01  0.12459068798E-01  0.10210513402E+01  0.10207949874E+01 0.  0.
     999903    2    3    3    0    0  0.43596137927E-01  0.83915561323E-01 -0.89852265185E-01  0.13191465514E+00  0.19636751447E-01 0.  0.
         14    1    1    2    0    0 -0.10352360848E-01 -0.16156525077E-01 -0.12459068798E-01  0.22878659772E-01  0.00000000000E+00 0. -1.
     999901    1    3    3    0    0 -0.33243777079E-01 -0.67759036246E-01  0.10231133398E+00  0.88913668509E+00  0.88000000000E+00 0. -1.
        -11    1    4    4    0    0  0.11868414063E-01  0.31063277175E-01 -0.43651293841E-01  0.54876980750E-01  0.51100000000E-03 0. -1.
         11    1    4    4    0    0  0.31727723864E-01  0.52852284148E-01 -0.46200971344E-01  0.77037674390E-01  0.51100000000E-03 0.  1.
</event>
<event>
 8    1  0.1191842E+005  0.1043930E+01  0.7957747E-01            NaN
         13   -1    0    0    0    0  0.00000000000E+00  0.00000000000E+00  0.74505805969E-08  0.10566000000E+00  0.10566000000E+00 0. -1.
     999900   -1    0    0    0    0 -0.00000000000E+00 -0.00000000000E+00 -0.74505805969E-08  0.93827000000E+00  0.93827000000E+00 0. -1.
     999902    2    1    2    0    0 -0.85437197050E-02 -0.15823175208E-02 -0.22368807565E-01  0.10199328663E+01  0.10196505231E+01 0.  0.
     999903    2    3    3    0    0  0.75497655332E-01  0.10324016477E+00 -0.48756993369E-02  0.12956400207E+00  0.20115432047E-01 0.  0.
         14    1    1    2    0    0  0.85437197050E-02  0.15823175208E-02  0.22368807565E-01  0.23997133725E-01  0.00000000000E+00 0. -1.
     999901    1    3    3    0    0 -0.84041375037E-01 -0.10482248229E+00 -0.17493108228E-01  0.89036886421E+00  0.88000000000E+00 0. -1.
        -11    1    4    4    0    0  0.35685569064E-01  0.36805075236E-01 -0.87777757468E-02  0.52013304746E-01  0.51100000000E-03 0.  1.
         11    1    4    4    0    0  0.39812086268E-01  0.66435089532E-01  0.39020764099E-02  0.77550697324E-01  0.51100000000E-03 0. -1.
</event>
<event>
 8    1  0.1191842E+005  0.1043930E+01  0.7957747E-01            NaN
         13   -1    0    0    0    0  0.00000000000E+00  0.00000000000E+00  0.74505805969E-08  0.10566000000E+00  0.10566000000E+00 0. -1.
     999900   -1    0    0    0    0 -0.00000000000E+00 -0.00000000000E+00 -0.74505805969E-08  0.93827000000E+00  0.93827000000E+00 0.  1.
     999902    2    1    2    0    0  0.15633668982E-01 -0.46920123465E-02  0.20754265127E-01  0.10175260968E+01  0.10171834601E+01 0.  0.
     999903    2    3    3    0    0  0.10928632605E+00  0.10514597634E-01 -0.63515127431E-01  0.12842352017E+00  0.20108985426E-01 0.  0.
         14    1    1    2    0    0 -0.15633668982E-01  0.46920123465E-02 -0.20754265127E-01  0.26403903247E-01  0.00000000000E+00 0.  1.
     999901    1    3    3    0    0 -0.93652657071E-01 -0.15206609980E-01  0.84269392557E-01  0.88910257658E+00  0.88000000000E+00 0. -1.
        -11    1    4    4    0    0  0.68120551737E-01  0.15502276973E-01 -0.35394440519E-01  0.78318310125E-01  0.51100000000E-03 0.  1.
         11    1    4    4    0    0  0.41165774317E-01 -0.49876793396E-02 -0.28120686912E-01  0.50105210045E-01  0.51100000000E-03 0. -1.
</event>
<event>
 8    1  0.1191842E+005  0.1043930E+01  0.7957747E-01            NaN
         13   -1    0    0    0    0  0.00000000000E+00  0.00000000000E+00  0.74505805969E-08  0.10566000000E+00  0.10566000000E+00 0. -1.
     999900   -1    0    0    0    0 -0.00000000000E+00 -0.00000000000E+00 -0.74505805969E-08  0.93827000000E+00  0.93827000000E+00 0. -1.
     999902    2    1    2    0    0  0.11094697328E-01 -0.15324335034E-01 -0.31156119668E-03  0.10250084614E+01  0.10248338018E+01 0.  0.
     999903    2    3    3    0    0 -0.42084455783E-01 -0.11301535846E+00  0.59639794805E-01  0.13598330794E+00  0.19773271007E-01 0.  0.
         14    1    1    2    0    0 -0.11094697328E-01  0.15324335034E-01  0.31156119668E-03  0.18921538611E-01  0.00000000000E+00 0.  1.
     999901    1    3    3    0    0  0.53179153111E-01  0.97691023429E-01 -0.59951356001E-01  0.88902515345E+00  0.88000000000E+00 0. -1.
        -11    1    4    4    0    0 -0.11267161709E-01 -0.15951500419E-01  0.40221018209E-02  0.19945869815E-01  0.51100000000E-03 0.  1.
         11    1    4    4    0    0 -0.30817294074E-01 -0.97063858043E-01  0.55617692984E-01  0.11603743812E+00  0.51100000000E-03 0. -1.
</event>
<event>
 8    1  0.1191842E+005  0.1043930E+01  0.7957747E-01            NaN
         13   -1    0    0    0    0  0.00000000000E+00  0.00000000000E+00  0.74505805969E-08  0.10566000000E+00  0.10566000000E+00 0. -1.
     999900   -1    0    0    0    0 -0.00000000000E+00 -0.00000000000E+00 -0.74505805969E-08  0.93827000000E+00  0.93827000000E+00 0.  1.
     999902    2    1    2    0    0 -0.21244869755E-01  0.72322650841E-02  0.35353414449E-02  0.10212110918E+01  0.10209583465E+01 0.  0.
     999903    2    3    3    0    0  0.51944228535E-01 -0.59480190723E-01  0.10163781429E+00  0.13023898731E+00  0.19896043671E-01 0.  0.
         14    1    1    2    0    0  0.21244869755E-01 -0.72322650841E-02 -0.35353414449E-02  0.22718908167E-01  0.00000000000E+00 0.  1.
     999901    1    3    3    0    0 -0.73189098290E-01  0.66712455807E-01 -0.98102472847E-01  0.89097210453E+00  0.88000000000E+00 0.  1.
        -11    1    4    4    0    0  0.13934622131E-01 -0.24972997832E-01  0.48817719870E-01  0.56579635992E-01  0.51100000000E-03 0.  1.
         11    1    4    4    0    0  0.38009606404E-01 -0.34507192890E-01  0.52820094422E-01  0.73659351313E-01  0.51100000000E-03 0. -1.
</event>
<event>
 8    1  0.1191842E+005  0.1043930E+01  0.7957747E-01            NaN
         13   -1    0    0    0    0  0.00000000000E+00  0.00000000000E+00  0.74505805969E-08  0.10566000000E+00  0.10566000000E+00 0. -1.
     999900   -1    0    0    0    0 -0.00000000000E+00 -0.00000000000E+00 -0.74505805969E-08  0.93827000000E+00  0.93827000000E+00 0.  1.
     999902    2    1    2    0    0 -0.99849339411E-02  0.79670876057E-02  0.20039126438E-01  0.10201657416E+01  0.10198889157E+01 0.  0.
     999903    2    3    3    0    0 -0.64460041638E-01 -0.10021993725E+00  0.51144180188E-01  0.13132408296E+00  0.20764267565E-01 0.  0.
         14    1    1    2    0    0  0.99849339411E-02 -0.79670876057E-02 -0.20039126438E-01  0.23764258438E-01  0.00000000000E+00 0.  1.
     999901    1    3    3    0    0  0.54475107697E-01  0.10818702485E+00 -0.31105053750E-01  0.88884165861E+00  0.88000000000E+00 0. -1.
        -11    1    4    4    0    0 -0.20810447132E-01 -0.48745663039E-01  0.16844633412E-01  0.55616698668E-01  0.51100000000E-03 0.  1.
         11    1    4    4    0    0 -0.43649594505E-01 -0.51474274207E-01  0.34299546776E-01  0.75707384288E-01  0.51100000000E-03 0. -1.
</event>
<event>
 8    1  0.1191842E+005  0.1043930E+01  0.7957747E-01            NaN
         13   -1    0    0    0    0  0.00000000000E+00  0.00000000000E+00  0.74505805969E-08  0.10566000000E+00  0.10566000000E+00 0. -1.
     999900   -1    0    0    0    0 -0.00000000000E+00 -0.00000000000E+00 -0.74505805969E-08  0.93827000000E+00  0.93827000000E+00 0. -1.
     999902    2    1    2    0    0  0.96534454360E-02  0.23825341977E-01  0.65534447142E-02  0.10174010806E+01  0.10170551485E+01 0.  0.
     999903    2    3    3    0    0 -0.15295216316E-01 -0.11500048293E+00  0.43400912319E-01  0.12540736912E+00  0.19603936401E-01 0.  0.
         14    1    1    2    0    0 -0.96534454360E-02 -0.23825341977E-01 -0.65534447142E-02  0.26528919442E-01  0.00000000000E+00 0. -1.
     999901    1    3    3    0    0  0.24948661752E-01  0.13882582491E+00 -0.36847467605E-01  0.89199371144E+00  0.88000000000E+00 0. -1.
        -11    1    4    4    0    0 -0.87658337101E-02 -0.66856566211E-01  0.14829982939E-01  0.69042232012E-01  0.51100000000E-03 0. -1.
         11    1    4    4    0    0 -0.65293826060E-02 -0.48143916718E-01  0.28570929380E-01  0.56365137104E-01  0.51100000000E-03 0.  1.
</event>
<event>
 8    1  0.1191842E+005  0.1043930E+01  0.7957747E-01            NaN
         13   -1    0    0    0    0  0.00000000000E+00  0.00000000000E+00  0.74505805969E-08  0.10566000000E+00  0.10566000000E+00 0. -1.
     999900   -1    0    0    0    0 -0.00000000000E+00 -0.00000000000E+00 -0.74505805969E-08  0.93827000000E+00  0.93827000000E+00 0. -1.
     999902    2    1    2    0    0  0.10228510280E-01 -0.13509272286E-01  0.16350015065E-01  0.10203833261E+01  0.10201116048E+01 0.  0.
     999903    2    3    3    0    0 -0.74652772345E-01  0.89887039350E-02  0.10607483423E+00  0.13147301888E+00  0.19479502518E-01 0.  0.
         14    1    1    2    0    0 -0.10228510280E-01  0.13509272286E-01 -0.16350015065E-01  0.23546673923E-01  0.00000000000E+00 0.  1.
     999901    1    3    3    0    0  0.84881282625E-01 -0.22497976221E-01 -0.89724819164E-01  0.88891030720E+00  0.88000000000E+00 0. -1.
        -11    1    4    4    0    0 -0.62591987834E-01  0.13247076636E-01  0.80105317578E-01  0.10252007123E+00  0.51100000000E-03 0. -1.
         11    1    4    4    0    0 -0.12060784511E-01 -0.42583727012E-02  0.25969516651E-01  0.28952947642E-01  0.51100000000E-03 0.  1.
</event>
<event>
 8    1  0.1191842E+005  0.1043930E+01  0.7957747E-01            NaN
         13   -1    0    0    0    0  0.00000000000E+00  0.00000000000E+00  0.74505805969E-08  0.10566000000E+00  0.10566000000E+00 0. -1.
     999900   -1    0    0    0    0 -0.00000000000E+00 -0.00000000000E+00 -0.74505805969E-08  0.93827000000E+00  0.93827000000E+00 0. -1.
     999902    2    1    2    0    0 -0.23327457745E-01  0.23998068035E-02 -0.71069969565E-02  0.10194261480E+01  0.10191316070E+01 0.  0.
     999903    2    3    3    0    0  0.11203297001E+00  0.56593459931E-01 -0.94884265161E-02  0.12742554897E+00  0.19825090606E-01 0.  0.
         14    1    1    2    0    0  0.23327457745E-01 -0.23998068035E-02  0.71069969565E-02  0.24503852009E-01  0.00000000000E+00 0.  1.
     999901    1    3    3    0    0 -0.13536042775E+00 -0.54193653127E-01  0.23814295596E-02  0.89200059902E+00  0.88000000000E+00 0. -1.
        -11    1    4    4    0    0  0.57487551934E-01  0.27338869415E-01 -0.14617713930E-01  0.65315932894E-01  0.51100000000E-03 0. -1.
         11    1    4    4    0    0  0.54545418075E-01  0.29254590516E-01  0.51292874135E-02  0.62109616080E-01  0.51100000000E-03 0.  1.
</event>
<event>
 8    1  0.1191842E+005  0.1043930E+01  0.7957747E-01            NaN
         13   -1    0    0    0    0  0.00000000000E+00  0.00000000000E+00  0.74505805969E-08  0.10566000000E+00  0.10566000000E+00 0. -1.
     999900   -1    0    0    0    0 -0.00000000000E+00 -0.00000000000E+00 -0.74505805969E-08  0.93827000000E+00  0.93827000000E+00 0. -1.
     999902    2    1    2    0    0  0.19025884566E-01 -0.71963744803E-02  0.11997973392E-01  0.10203138307E+01  0.10200404843E+01 0.  0.
     999903    2    3    3    0    0 -0.11683132186E+00  0.39840869809E-01 -0.26561894822E-01  0.12781366464E+00  0.19848071413E-01 0.  0.
         14    1    1    2    0    0 -0.19025884566E-01  0.71963744803E-02 -0.11997973392E-01  0.23616169349E-01  0.00000000000E+00 0. -1.
     999901    1    3    3    0    0  0.13585720642E+00 -0.47037244290E-01  0.38559868214E-01  0.89250016601E+00  0.88000000000E+00 0.  1.
        -11    1    4    4    0    0 -0.10363460035E+00  0.28165131593E-01 -0.22686130827E-01  0.10976486998E+00  0.51100000000E-03 0. -1.
         11    1    4    4    0    0 -0.13196721503E-01  0.11675738217E-01 -0.38757639950E-02  0.18048794665E-01  0.51100000000E-03 0.  1.
</event>
<event>
 8    1  0.1191842E+005  0.1043930E+01  0.7957747E-01            NaN
         13   -1    0    0    0    0  0.00000000000E+00  0.00000000000E+00  0.74505805969E-08  0.10566000000E+00  0.10566000000E+00 0. -1.
     999900   -1    0    0    0    0 -0.00000000000E+00 -0.00000000000E+00 -0.74505805969E-08  0.93827000000E+00  0.93827000000E+00 0.  1.
     999902    2    1    2    0    0  0.18573290079E-01 -0.10101969547E-01 -0.18502706986E-01  0.10158343231E+01  0.10154457174E+01 0.  0.
     999903    2    3    3    0    0  0.11569227075E+00  0.27922613100E-01 -0.49034681575E-01  0.12914939218E+00  0.10525762203E-01 0.  0.
         14    1    1    2    0    0 -0.18573290079E-01  0.10101969547E-01  0.18502706986E-01  0.28095676872E-01  0.00000000000E+00 0. -1.
     999901    1    3    3    0    0 -0.97118980673E-01 -0.38024582647E-01  0.30531974589E-01  0.88668493094E+00  0.88000000000E+00 0. -1.
        -11    1    4    4    0    0  0.18187300456E-01  0.13291648593E-02 -0.50781548005E-02  0.18936561311E-01  0.51100000000E-03 0.  1.
         11    1    4    4    0    0  0.97504970297E-01  0.26593448241E-01 -0.43956526775E-01  0.11021283087E+00  0.51100000000E-03 0. -1.
</event>
<event>
 8    1  0.1191842E+005  0.1043930E+01  0.7957747E-01            NaN
         13   -1    0    0    0    0  0.00000000000E+00  0.00000000000E+00  0.74505805969E-08  0.10566000000E+00  0.10566000000E+00 0. -1.
     999900   -1    0    0    0    0 -0.00000000000E+00 -0.00000000000E+00 -0.74505805969E-08  0.93827000000E+00  0.93827000000E+00 0. -1.
     999902    2    1    2    0    0  0.12132885659E-01  0.10756988177E-01  0.19113902992E-01  0.10188648649E+01  0.10185565041E+01 0.  0.
     999903    2    3    3    0    0 -0.21174831711E-02 -0.56796497260E-01 -0.11129970368E+00  0.12657889326E+00  0.20106375750E-01 0.  0.
         14    1    1    2    0    0 -0.12132885659E-01 -0.10756988177E-01 -0.19113902992E-01  0.25065135082E-01  0.00000000000E+00 0.  1.
     999901    1    3    3    0    0  0.14250368830E-01  0.67553485437E-01  0.13041360667E+00  0.89228597165E+00  0.88000000000E+00 0.  1.
        -11    1    4    4    0    0  0.31911677829E-02 -0.27872707254E-01 -0.73574850232E-01  0.78743831943E-01  0.51100000000E-03 0.  1.
         11    1    4    4    0    0 -0.53086509539E-02 -0.28923790005E-01 -0.37724853444E-01  0.47835061321E-01  0.51100000000E-03 0. -1.
</event>
<event>
 8    1  0.1191842E+005  0.1043930E+01  0.7957747E-01            NaN
         13   -1    0    0    0    0  0.00000000000E+00  0.00000000000E+00  0.74505805969E-08  0.10566000000E+00  0.10566000000E+00 0. -1.
     999900   -1    0    0    0    0 -0.00000000000E+00 -0.00000000000E+00 -0.74505805969E-08  0.93827000000E+00  0.93827000000E+00 0. -1.
     999902    2    1    2    0    0  0.10732105110E-01 -0.17563823306E-01  0.10344994931E-01  0.10208934011E+01  0.10206334560E+01 0.  0.
     999903    2    3    3    0    0  0.17378565872E-01 -0.74592932226E-01 -0.10535015395E+00  0.13146557255E+00  0.17844375592E-01 0.  0.
         14    1    1    2    0    0 -0.10732105110E-01  0.17563823306E-01 -0.10344994931E-01  0.23036598910E-01  0.00000000000E+00 0.  1.
     999901    1    3    3    0    0 -0.66464607618E-02  0.57029108920E-01  0.11569514888E+00  0.88942782854E+00  0.88000000000E+00 0.  1.
        -11    1    4    4    0    0  0.56279225623E-02 -0.43834692309E-02 -0.66064252517E-02  0.97362359499E-02  0.51100000000E-03 0.  1.
         11    1    4    4    0    0  0.11750643309E-01 -0.70209462995E-01 -0.98743728694E-01  0.12172933660E+00  0.51100000000E-03 0. -1.
</event>
<event>
 8    1  0.1191842E+005  0.1043930E+01  0.7957747E-01            NaN
         13   -1    0    0    0    0  0.00000000000E+00  0.00000000000E+00  0.74505805969E-08  0.10566000000E+00  0.10566000000E+00 0.  1.
     999900   -1    0    0    0    0 -0.00000000000E+00 -0.00000000000E+00 -0.74505805969E-08  0.93827000000E+00  0.93827000000E+00 0.  1.
     999902    2    1    2    0    0 -0.12900499604E-02 -0.23006771832E-01 -0.78890970561E-02  0.10195740227E+01  0.10192830687E+01 0.  0.
     999903    2    3    3    0    0 -0.81849288883E-01  0.92714764839E-01 -0.26970621645E-01  0.12814518670E+00  0.19960980271E-01 0.  0.
         14    1    1    2    0    0  0.12900499604E-02  0.23006771832E-01  0.78890970561E-02  0.24355977323E-01  0.00000000000E+00 0. -1.
     999901    1    3    3    0    0  0.80559238923E-01 -0.11572153667E+00  0.19081524589E-01  0.89142883597E+00  0.88000000000E+00 0.  1.
        -11    1    4    4    0    0 -0.41188028089E-01  0.42774486487E-01 -0.31085843741E-02  0.59464567348E-01  0.51100000000E-03 0. -1.
         11    1    4    4    0    0 -0.40661260795E-01  0.49940278352E-01 -0.23862037271E-01  0.68680619355E-01  0.51100000000E-03 0.  1.
</event>
<event>
 8    1  0.1191842E+005  0.1043930E+01  0.7957747E-01            NaN
         13   -1    0    0    0    0  0.00000000000E+00  0.00000000000E+00  0.74505805969E-08  0.10566000000E+00  0.10566000000E+00 0.  1.
     999900   -1    0    0    0    0 -0.00000000000E+00 -0.00000000000E+00 -0.74505805969E-08  0.93827000000E+00  0.93827000000E+00 0. -1.
     999902    2    1    2    0    0  0.16842078786E-01 -0.99542250234E-03 -0.16755811780E-01  0.10201517807E+01  0.10198746256E+01 0.  0.
     999903    2    3    3    0    0 -0.85712711122E-01 -0.94116948269E-01 -0.10307408828E-01  0.12929226015E+00  0.20138943805E-01 0.  0.
         14    1    1    2    0    0 -0.16842078786E-01  0.99542250234E-03  0.16755811780E-01  0.23778219281E-01  0.00000000000E+00 0.  1.
     999901    1    3    3    0    0  0.10255478991E+00  0.93121525767E-01 -0.64484029524E-02  0.89085952057E+00  0.88000000000E+00 0. -1.
        -11    1    4    4    0    0 -0.37676033363E-01 -0.39105491707E-01 -0.14276913099E-01  0.56149927340E-01  0.51100000000E-03 0.  1.
         11    1    4    4    0    0 -0.48036677759E-01 -0.55011456562E-01  0.39695042714E-02  0.73142332806E-01  0.51100000000E-03 0. -1.
</event>
<event>
 8    1  0.1191842E+005  0.1043930E+01  0.7957747E-01            NaN
         13   -1    0    0    0    0  0.00000000000E+00  0.00000000000E+00  0.74505805969E-08  0.10566000000E+00  0.10566000000E+00 0.  1.
     999900   -1    0    0    0    0 -0.00000000000E+00 -0.00000000000E+00 -0.74505805969E-08  0.93827000000E+00  0.93827000000E+00 0.  1.
     999902    2    1    2    0    0  0.21867635044E-01  0.59125203333E-02  0.10610861728E-01  0.10189151695E+01  0.10186080605E+01 0.  0.
     999903    2    3    3    0    0  0.60986470634E-01 -0.33041416259E-01 -0.10731224605E+00  0.12933462124E+00  0.20011029715E-01 0.  0.
         14    1    1    2    0    0 -0.21867635044E-01 -0.59125203333E-02 -0.10610861728E-01  0.25014830515E-01  0.00000000000E+00 0.  1.
     999901    1    3    3    0    0 -0.39118835590E-01  0.38953936593E-01  0.11792310777E+00  0.88958054825E+00  0.88000000000E+00 0. -1.
        -11    1    4    4    0    0  0.15761265258E-01 -0.14720325518E-01 -0.20565208062E-01  0.29804267640E-01  0.51100000000E-03 0. -1.
         11    1    4    4    0    0  0.45225205376E-01 -0.18321090741E-01 -0.86747037984E-01  0.99530353597E-01  0.51100000000E-03 0.  1.
</event>
<event>
 8    1  0.1191842E+005  0.1043930E+01  0.7957747E-01            NaN
         13   -1    0    0    0    0  0.00000000000E+00  0.00000000000E+00  0.74505805969E-08  0.10566000000E+00  0.10566000000E+00 0. -1.
     999900   -1    0    0    0    0 -0.00000000000E+00 -0.00000000000E+00 -0.74505805969E-08  0.93827000000E+00  0.93827000000E+00 0. -1.
     999902    2    1    2    0    0 -0.13853254820E-01  0.18486369304E-01 -0.18067472573E-02  0.10207584041E+01  0.10204953683E+01 0.  0.
     999903    2    3    3    0    0  0.49998517746E-01 -0.20780117101E-01 -0.11676606407E+00  0.13012124438E+00  0.19119609799E-01 0.  0.
         14    1    1    2    0    0  0.13853254820E-01 -0.18486369304E-01  0.18067472573E-02  0.23171595862E-01  0.00000000000E+00 0. -1.
     999901    1    3    3    0    0 -0.63851772566E-01  0.39266486405E-01  0.11495931681E+00  0.89063715975E+00  0.88000000000E+00 0.  1.
        -11    1    4    4    0    0  0.21839338841E-01  0.92243179025E-03 -0.44849906430E-01  0.49895719548E-01  0.51100000000E-03 0. -1.
         11    1    4    4    0    0  0.28159178905E-01 -0.21702548892E-01 -0.71916157636E-01  0.80225524835E-01  0.51100000000E-03 0.  1.
</event>
<event>
 8    1  0.1191842E+005  0.1043930E+01  0.7957747E-01            NaN
         13   -1    0    0    0    0  0.00000000000E+00  0.00000000000E+00  0.74505805969E-08  0.10566000000E+00  0.10566000000E+00 0. -1.
     999900   -1    0    0    0    0 -0.00000000000E+00 -0.00000000000E+00 -0.74505805969E-08  0.93827000000E+00  0.93827000000E+00 0.  1.
     999902    2    1    2    0    0  0.12644747978E-01 -0.13727812147E-01  0.14492235109E-01  0.10203002019E+01  0.10200265363E+01 0.  0.
     999903    2    3    3    0    0 -0.10959248353E+00 -0.58975983599E-01 -0.30252693178E-01  0.12957496575E+00  0.19640957646E-01 0.  0.
         14    1    1    2    0    0 -0.12644747978E-01  0.13727812147E-01 -0.14492235109E-01  0.23629798057E-01  0.00000000000E+00 0.  1.
     999901    1    3    3    0    0  0.12223723150E+00  0.45248171452E-01  0.44744928286E-01  0.89072523619E+00  0.88000000000E+00 0. -1.
        -11    1    4    4    0    0 -0.54545123150E-01 -0.40295326450E-01 -0.14583747712E-01  0.69367359842E-01  0.51100000000E-03 0. -1.
         11    1    4    4    0    0 -0.55047360377E-01 -0.18680657149E-01 -0.15668945466E-01  0.60207605907E-01  0.51100000000E-03 0.  1.
</event>
<event>
 8    1  0.1191842E+005  0.1043930E+01  0.7957747E-01            NaN
         13   -1    0    0    0    0  0.00000000000E+00  0.00000000000E+00  0.74505805969E-08  0.10566000000E+00  0.10566000000E+00 0.  1.
     999900   -1    0    0    0    0 -0.00000000000E+00 -0.00000000000E+00 -0.74505805969E-08  0.93827000000E+00  0.93827000000E+00 0. -1.
     999902    2    1    2    0    0 -0.20713480726E-01 -0.81884091886E-02  0.74203625670E-02  0.10204532006E+01  0.10201831083E+01 0.  0.
     999903    2    3    3    0    0 -0.76071457346E-01 -0.58361281946E-01  0.90496696788E-01  0.13338865953E+00  0.20247876655E-01 0.  0.
         14    1    1    2    0    0  0.20713480726E-01  0.81884091886E-02 -0.74203625670E-02  0.23476799387E-01  0.00000000000E+00 0. -1.
     999901    1    3    3    0    0  0.55357976620E-01  0.50172872758E-01 -0.83076334221E-01  0.88706454108E+00  0.88000000000E+00 0. -1.
        -11    1    4    4    0    0 -0.48158789845E-01 -0.35175103233E-01  0.69029873828E-01  0.91224676094E-01  0.51100000000E-03 0. -1.
         11    1    4    4    0    0 -0.27912667500E-01 -0.23186178713E-01  0.21466822960E-01  0.42163983437E-01  0.51100000000E-03 0.  1.
</event>
<event>
 8    1  0.1191842E+005  0.1043930E+01  0.7957747E-01            NaN
         13   -1    0    0    0    0  0.00000000000E+00  0.00000000000E+00  0.74505805969E-08  0.10566000000E+00  0.10566000000E+00 0.  1.
     999900   -1    0    0    0    0 -0.00000000000E+00 -0.00000000000E+00 -0.74505805969E-08  0.93827000000E+00  0.93827000000E+00 0. -1.
     999902    2    1    2    0    0 -0.22784895922E-01  0.69614697378E-02 -0.77252064379E-02  0.10188841948E+01  0.10185763153E+01 0.  0.
     999903    2    3    3    0    0  0.70172965463E-01 -0.51636440925E-01 -0.91750050027E-01  0.12807834982E+00  0.19885293553E-01 0.  0.
         14    1    1    2    0    0  0.22784895922E-01 -0.69614697378E-02  0.77252064379E-02  0.25045805189E-01  0.00000000000E+00 0.  1.
     999901    1    3    3    0    0 -0.92957861384E-01  0.58597910663E-01  0.84024843590E-01  0.89080584499E+00  0.88000000000E+00 0. -1.
        -11    1    4    4    0    0  0.65150994303E-01 -0.39521889401E-01 -0.76933430407E-01  0.10828502037E+00  0.51100000000E-03 0.  1.
         11    1    4    4    0    0  0.50219711601E-02 -0.12114551524E-01 -0.14816619620E-01  0.19793329455E-01  0.51100000000E-03 0. -1.
</event>
<event>
 8    1  0.1191842E+005  0.1043930E+01  0.7957747E-01            NaN
         13   -1    0    0    0    0  0.00000000000E+00  0.00000000000E+00  0.74505805969E-08  0.10566000000E+00  0.10566000000E+00 0. -1.
     999900   -1    0    0    0    0 -0.00000000000E+00 -0.00000000000E+00 -0.74505805969E-08  0.93827000000E+00  0.93827000000E+00 0.  1.
     999902    2    1    2    0    0  0.11754178838E-01 -0.13771061196E-01  0.16243008782E-01  0.10196063864E+01  0.10193162144E+01 0.  0.
     999903    2    3    3    0    0  0.10596674490E+00  0.72961843140E-01  0.44298519333E-02  0.13025934780E+00  0.19886993807E-01 0.  0.
         14    1    1    2    0    0 -0.11754178838E-01  0.13771061196E-01 -0.16243008782E-01  0.24323613648E-01  0.00000000000E+00 0.  1.
     999901    1    3    3    0    0 -0.94212566065E-01 -0.86732904336E-01  0.11813156849E-01  0.88934703855E+00  0.88000000000E+00 0. -1.
        -11    1    4    4    0    0  0.26796399735E-01  0.19540002117E-01  0.98390277187E-02  0.34596622797E-01  0.51100000000E-03 0. -1.
         11    1    4    4    0    0  0.79170345167E-01  0.53421841022E-01 -0.54091757854E-02  0.95662725007E-01  0.51100000000E-03 0.  1.
</event>
<event>
 8    1  0.1191842E+005  0.1043930E+01  0.7957747E-01            NaN
         13   -1    0    0    0    0  0.00000000000E+00  0.00000000000E+00  0.74505805969E-08  0.10566000000E+00  0.10566000000E+00 0.  1.
     999900   -1    0    0    0    0 -0.00000000000E+00 -0.00000000000E+00 -0.74505805969E-08  0.93827000000E+00  0.93827000000E+00 0. -1.
     999902    2    1    2    0    0  0.13475823871E-01 -0.50461713566E-02 -0.19098970604E-01  0.10200169836E+01  0.10197366398E+01 0.  0.
     999903    2    3    3    0    0  0.41651225532E-01  0.10399117039E+00 -0.65977718420E-01  0.13160232134E+00  0.20423602686E-01 0.  0.
         14    1    1    2    0    0 -0.13475823871E-01  0.50461713566E-02  0.19098970604E-01  0.23913016383E-01  0.00000000000E+00 0.  1.
     999901    1    3    3    0    0 -0.28175401661E-01 -0.10903734175E+00  0.46878747816E-01  0.88841466228E+00  0.88000000000E+00 0. -1.
        -11    1    4    4    0    0  0.98363016156E-02  0.39899631703E-01 -0.33500558440E-01  0.53021523708E-01  0.51100000000E-03 0. -1.
         11    1    4    4    0    0  0.31814923916E-01  0.64091538687E-01 -0.32477159980E-01  0.78580797631E-01  0.51100000000E-03 0.  1.
</event>
<event>
 8    1  0.1191842E+005  0.1043930E+01  0.7957747E-01            NaN
         13   -1    0    0    0    0  0.00000000000E+00  0.00000000000E+00  0.74505805969E-08  0.10566000000E+00  0.10566000000E+00 0.  1.
     999900   -1    0    0    0    0 -0.00000000000E+00 -0.00000000000E+00 -0.74505805969E-08  0.93827000000E+00  0.93827000000E+00 0. -1.
     999902    2    1    2    0    0 -0.21280059259E-02 -0.17789397757E-01 -0.17541617925E-01  0.10188561203E+01  0.10185475416E+01 0.  0.
     999903    2    3    3    0    0  0.34096912243E-01 -0.60968045633E-01 -0.11020003808E+00  0.13219822512E+00  0.21274875333E-01 0.  0.
         14    1    1    2    0    0  0.21280059259E-02  0.17789397757E-01  0.17541617925E-01  0.25073879660E-01  0.00000000000E+00 0.  1.
     999901    1    3    3    0    0 -0.36224918169E-01  0.43178647877E-01  0.92658420151E-01  0.88665789522E+00  0.88000000000E+00 0.  1.
        -11    1    4    4    0    0  0.10026429947E-01 -0.19119879043E-01 -0.17962965602E-01  0.28089648027E-01  0.51100000000E-03 0. -1.
         11    1    4    4    0    0  0.24070482296E-01 -0.41848166591E-01 -0.92237072474E-01  0.10410857709E+00  0.51100000000E-03 0.  1.
</event>
<event>
 8    1  0.1191842E+005  0.1043930E+01  0.7957747E-01            NaN
         13   -1    0    0    0    0  0.00000000000E+00  0.00000000000E+00  0.74505805969E-08  0.10566000000E+00  0.10566000000E+00 0.  1.
     999900   -1    0    0    0    0 -0.00000000000E+00 -0.00000000000E+00 -0.74505805969E-08  0.93827000000E+00  0.93827000000E+00 0. -1.
     999902    2    1    2    0    0  0.32685786231E-02  0.93091150490E-02 -0.21707257622E-01  0.10200857499E+01  0.10198070351E+01 0.  0.
     999903    2    3    3    0    0  0.67193647202E-01 -0.10646669301E+00  0.20848913451E-01  0.12918649644E+00  0.20107976653E-01 0.  0.
         14    1    1    2    0    0 -0.32685786231E-02 -0.93091150490E-02  0.21707257622E-01  0.23844250097E-01  0.00000000000E+00 0.  1.
     999901    1    3    3    0    0 -0.63925068579E-01  0.11577580806E+00 -0.42556171072E-01  0.89089925346E+00  0.88000000000E+00 0. -1.
        -11    1    4    4    0    0  0.31181396420E-01 -0.31527982651E-01  0.76750859224E-02  0.45005124571E-01  0.51100000000E-03 0.  1.
         11    1    4    4    0    0  0.36012250783E-01 -0.74938710361E-01  0.13173827528E-01  0.84181371869E-01  0.51100000000E-03 0. -1.
</event>
<event>
 8    1  0.1191842E+005  0.1043930E+01  0.7957747E-01            NaN
         13   -1    0    0    0    0  0.00000000000E+00  0.00000000000E+00  0.74505805969E-08  0.10566000000E+00  0.10566000000E+00 0. -1.
     999900   -1    0    0    0    0 -0.00000000000E+00 -0.00000000000E+00 -0.74505805969E-08  0.93827000000E+00  0.93827000000E+00 0.  1.
     999902    2    1    2    0    0 -0.14464237274E-01 -0.17747781218E-01 -0.24515770308E-02  0.10209037513E+01  0.10206440424E+01 0.  0.
     999903    2    3    3    0    0  0.10321228658E-01 -0.92772748534E-01  0.91716194438E-01  0.13235964200E+00  0.19847011749E-01 0.  0.
         14    1    1    2    0    0  0.14464237274E-01  0.17747781218E-01  0.24515770308E-02  0.23026248674E-01  0.00000000000E+00 0.  1.
     999901    1    3    3    0    0 -0.24785465932E-01  0.75024967316E-01 -0.94167771469E-01  0.88854410933E+00  0.88000000000E+00 0.  1.
        -11    1    4    4    0    0 -0.36770826696E-02 -0.50940857402E-01  0.44507727519E-01  0.67747256917E-01  0.51100000000E-03 0. -1.
         11    1    4    4    0    0  0.13998311328E-01 -0.41831891132E-01  0.47208466919E-01  0.64612385079E-01  0.51100000000E-03 0.  1.
</event>
<event>
 8    1  0.1191842E+005  0.1043930E+01  0.7957747E-01            NaN
         13   -1    0    0    0    0  0.00000000000E+00  0.00000000000E+00  0.74505805969E-08  0.10566000000E+00  0.10566000000E+00 0. -1.
     999900   -1    0    0    0    0 -0.00000000000E+00 -0.00000000000E+00 -0.74505805969E-08  0.93827000000E+00  0.93827000000E+00 0. -1.
     999902    2    1    2    0    0  0.11533432032E-01  0.21276057480E-01  0.79955730037E-03  0.10197157487E+01  0.10194282113E+01 0.  0.
     999903    2    3    3    0    0  0.71450457173E-01 -0.38206727797E-01 -0.99461889367E-01  0.13000758901E+00  0.21080414731E-01 0.  0.
         14    1    1    2    0    0 -0.11533432032E-01 -0.21276057480E-01 -0.79955730037E-03  0.24214251345E-01  0.00000000000E+00 0.  1.
     999901    1    3    3    0    0 -0.59917025141E-01  0.59482785277E-01  0.10026144667E+00  0.88970815964E+00  0.88000000000E+00 0.  1.
        -11    1    4    4    0    0  0.53497119262E-01 -0.37692566014E-01 -0.73228044650E-01  0.98210381052E-01  0.51100000000E-03 0.  1.
         11    1    4    4    0    0  0.17953337911E-01 -0.51416178364E-03 -0.26233844717E-01  0.31797207961E-01  0.51100000000E-03 0. -1.
</event>
<event>
 8    1  0.1191842E+005  0.1043930E+01  0.7957747E-01            NaN
         13   -1    0    0    0    0  0.00000000000E+00  0.00000000000E+00  0.74505805969E-08  0.10566000000E+00  0.10566000000E+00 0. -1.
     999900   -1    0    0    0    0 -0.00000000000E+00 -0.00000000000E+00 -0.74505805969E-08  0.93827000000E+00  0.93827000000E+00 0.  1.
     999902    2    1    2    0    0 -0.83073105049E-02 -0.12532095605E-01  0.17595955511E-01  0.10207851846E+01  0.10205227634E+01 0.  0.
     999903    2    3    3    0    0  0.10810019077E+00  0.66736687459E-01  0.16074959959E-01  0.12958567849E+00  0.19864718316E-01 0.  0.
         14    1    1    2    0    0  0.83073105049E-02  0.12532095605E-01 -0.17595955511E-01  0.23144815368E-01  0.00000000000E+00 0. -1.
     999901    1    3    3    0    0 -0.11640750128E+00 -0.79268783063E-01  0.15209955517E-02  0.89119950614E+00  0.88000000000E+00 0. -1.
        -11    1    4    4    0    0  0.98557264301E-01  0.65322465018E-01  0.11214308675E-01  0.11877112706E+00  0.51100000000E-03 0. -1.
         11    1    4    4    0    0  0.95429264717E-02  0.14142224407E-02  0.48606512845E-02  0.10814551432E-01  0.51100000000E-03 0.  1.
</event>
<event>
 8    1  0.1191842E+005  0.1043930E+01  0.7957747E-01            NaN
         13   -1    0    0    0    0  0.00000000000E+00  0.00000000000E+00  0.74505805969E-08  0.10566000000E+00  0.10566000000E+00 0.  1.
     999900   -1    0    0    0    0 -0.00000000000E+00 -0.00000000000E+00 -0.74505805969E-08  0.93827000000E+00  0.93827000000E+00 0. -1.
     999902    2    1    2    0    0 -0.21392947714E-02  0.36872658899E-02 -0.23176964234E-01  0.10203642583E+01  0.10200920916E+01 0.  0.
     999903    2    3    3    0    0  0.99206239093E-01  0.66549695923E-01 -0.52038313847E-01  0.13185112959E+00  0.20149301826E-01 0.  0.
         14    1    1    2    0    0  0.21392947714E-02 -0.36872658899E-02  0.23176964234E-01  0.23565741724E-01  0.00000000000E+00 0.  1.
     999901    1    3    3    0    0 -0.10134553386E+00 -0.62862430033E-01  0.28861349613E-01  0.88851312868E+00  0.88000000000E+00 0.  1.
        -11    1    4    4    0    0  0.21888581710E-01  0.21134099343E-01 -0.20946836916E-01  0.36943081384E-01  0.51100000000E-03 0. -1.
         11    1    4    4    0    0  0.77317657382E-01  0.45415596580E-01 -0.31091476932E-01  0.94908048208E-01  0.51100000000E-03 0.  1.
</event>
<event>
 8    1  0.1191842E+005  0.1043930E+01  0.7957747E-01            NaN
         13   -1    0    0    0    0  0.00000000000E+00  0.00000000000E+00  0.74505805969E-08  0.10566000000E+00  0.10566000000E+00 0. -1.
     999900   -1    0    0    0    0 -0.00000000000E+00 -0.00000000000E+00 -0.74505805969E-08  0.93827000000E+00  0.93827000000E+00 0.  1.
     999902    2    1    2    0    0 -0.23297726683E-03  0.17658469345E-01  0.14763146008E-01  0.10209120440E+01  0.10206525243E+01 0.  0.
     999903    2    3    3    0    0 -0.25520498550E-01 -0.94663656308E-01 -0.80352822916E-01  0.12832996588E+00  0.19987504123E-01 0.  0.
         14    1    1    2    0    0  0.23297726683E-03 -0.17658469345E-01 -0.14763146008E-01  0.23017955992E-01  0.00000000000E+00 0.  1.
     999901    1    3    3    0    0  0.25287521283E-01  0.11232212565E+00  0.95115968924E-01  0.89258207812E+00  0.88000000000E+00 0. -1.
        -11    1    4    4    0    0 -0.81904426881E-02 -0.50183488369E-01 -0.30452987220E-01  0.59271505869E-01  0.51100000000E-03 0.  1.
         11    1    4    4    0    0 -0.17330055862E-01 -0.44480167940E-01 -0.49899835696E-01  0.69058460015E-01  0.51100000000E-03 0. -1.
</event>
<event>
 8    1  0.1191842E+005  0.1043930E+01  0.7957747E-01            NaN
         13   -1    0    0    0    0  0.00000000000E+00  0.00000000000E+00  0.74505805969E-08  0.10566000000E+00  0.10566000000E+00 0.  1.
     999900   -1    0    0    0    0 -0.00000000000E+00 -0.00000000000E+00 -0.74505805969E-08  0.93827000000E+00  0.93827000000E+00 0. -1.
     999902    2    1    2    0    0 -0.18547926772E-02 -0.13192464833E-01 -0.19693679813E-01  0.10201534904E+01  0.10198763756E+01 0.  0.
     999903    2    3    3    0    0 -0.38546536891E-01 -0.24093682832E-01 -0.12380473816E+00  0.13319000010E+00  0.18590908499E-01 0.  0.
         14    1    1    2    0    0  0.18547926772E-02  0.13192464833E-01  0.19693679813E-01  0.23776509601E-01  0.00000000000E+00 0.  1.
     999901    1    3    3    0    0  0.36691744214E-01  0.10901217999E-01  0.10411105834E+00  0.88696349030E+00  0.88000000000E+00 0.  1.
        -11    1    4    4    0    0 -0.20004319722E-01 -0.22122814930E-01 -0.86144432409E-01  0.91163129082E-01  0.51100000000E-03 0. -1.
         11    1    4    4    0    0 -0.18542217170E-01 -0.19708679017E-02 -0.37660305748E-01  0.42026871022E-01  0.51100000000E-03 0.  1.
</event>
<event>
 8    1  0.1191842E+005  0.1043930E+01  0.7957747E-01            NaN
         13   -1    0    0    0    0  0.00000000000E+00  0.00000000000E+00  0.74505805969E-08  0.10566000000E+00  0.10566000000E+00 0.  1.
     999900   -1    0    0    0    0 -0.00000000000E+00 -0.00000000000E+00 -0.74505805969E-08  0.93827000000E+00  0.93827000000E+00 0.  1.
     999902    2    1    2    0    0  0.14259644239E-01  0.71526239579E-02  0.18103159870E-01  0.10198007257E+01  0.10195152270E+01 0.  0.
     999903    2    3    3    0    0  0.43030367328E-01  0.14868022195E-01  0.12317689311E+00  0.13304948021E+00  0.21376309136E-01 0.  0.
         14    1    1    2    0    0 -0.14259644239E-01 -0.71526239579E-02 -0.18103159870E-01  0.24129274349E-01  0.00000000000E+00 0. -1.
     999901    1    3    3    0    0 -0.28770723089E-01 -0.77153982371E-02 -0.10507373324E+00  0.88675124544E+00  0.88000000000E+00 0.  1.
        -11    1    4    4    0    0  0.78108956305E-02  0.10265020544E-01  0.50948840585E-01  0.52558788183E-01  0.51100000000E-03 0. -1.
         11    1    4    4    0    0  0.35219471698E-01  0.46030016513E-02  0.72228052521E-01  0.80490692026E-01  0.51100000000E-03 0.  1.
</event>
<event>
 8    1  0.1191842E+005  0.1043930E+01  0.7957747E-01            NaN
         13   -1    0    0    0    0  0.00000000000E+00  0.00000000000E+00  0.74505805969E-08  0.10566000000E+00  0.10566000000E+00 0. -1.
     999900   -1    0    0    0    0 -0.00000000000E+00 -0.00000000000E+00 -0.74505805969E-08  0.93827000000E+00  0.93827000000E+00 0. -1.
     999902    2    1    2    0    0  0.65842860356E-02 -0.19200440375E-01 -0.11142257133E-01  0.10207748790E+01  0.10205122214E+01 0.  0.
     999903    2    3    3    0    0  0.11890262652E+00  0.30118010231E-01  0.40334577044E-01  0.13077623654E+00  0.20751308456E-01 0.  0.
         14    1    1    2    0    0 -0.65842860356E-02  0.19200440375E-01  0.11142257133E-01  0.23155120972E-01  0.00000000000E+00 0. -1.
     999901    1    3    3    0    0 -0.11231834049E+00 -0.49318450606E-01 -0.51476834178E-01  0.88999864249E+00  0.88000000000E+00 0. -1.
        -11    1    4    4    0    0  0.76553319055E-01  0.27221641919E-01  0.19846893643E-01  0.83639636270E-01  0.51100000000E-03 0.  1.
         11    1    4    4    0    0  0.42349307469E-01  0.28963683123E-02  0.20487683401E-01  0.47136600266E-01  0.51100000000E-03 0. -1.
</event>
<event>
 8    1  0.1191842E+005  0.1043930E+01  0.7957747E-01            NaN
         13   -1    0    0    0    0  0.00000000000E+00  0.00000000000E+00  0.74505805969E-08  0.10566000000E+00  0.10566000000E+00 0.  1.
     999900   -1    0    0    0    0 -0.00000000000E+00 -0.00000000000E+00 -0.74505805969E-08  0.93827000000E+00  0.93827000000E+00 0.  1.
     999902    2    1    2    0    0  0.19965803864E-01  0.18110975478E-02  0.12549667014E-01  0.10202782022E+01  0.10200040207E+01 0.  0.
     999903    2    3    3    0    0  0.48050002218E-01 -0.11579712633E+00 -0.31700290737E-01  0.13090849542E+00  0.20355553569E-01 0.  0.
         14    1    1    2    0    0 -0.19965803864E-01 -0.18110975478E-02 -0.12549667014E-01  0.23651797827E-01  0.00000000000E+00 0.  1.
     999901    1    3    3    0    0 -0.28084198354E-01  0.11760822388E+00  0.44249957751E-01  0.88936970675E+00  0.88000000000E+00 0.  1.
        -11    1    4    4    0    0  0.16312440645E-01 -0.62741503707E-01 -0.11320771817E-01  0.65810432325E-01  0.51100000000E-03 0. -1.
         11    1    4    4    0    0  0.31737561573E-01 -0.53055622626E-01 -0.20379518920E-01  0.65098063099E-01  0.51100000000E-03 0.  1.
</event>
<event>
 8    1  0.1191842E+005  0.1043930E+01  0.7957747E-01            NaN
         13   -1    0    0    0    0  0.00000000000E+00  0.00000000000E+00  0.74505805969E-08  0.10566000000E+00  0.10566000000E+00 0.  1.
     999900   -1    0    0    0    0 -0.00000000000E+00 -0.00000000000E+00 -0.74505805969E-08  0.93827000000E+00  0.93827000000E+00 0.  1.
     999902    2    1    2    0    0  0.73100616717E-02  0.22316016687E-01  0.37747513422E-02  0.10201457542E+01  0.10198684569E+01 0.  0.
     999903    2    3    3    0    0 -0.51897941453E-01  0.11427523396E+00  0.39082431228E-01  0.13267253342E+00  0.17953809344E-01 0.  0.
         14    1    1    2    0    0 -0.73100616717E-02 -0.22316016687E-01 -0.37747513422E-02  0.23784245839E-01  0.00000000000E+00 0.  1.
     999901    1    3    3    0    0  0.59208003124E-01 -0.91959217271E-01 -0.35307679885E-01  0.88747322074E+00  0.88000000000E+00 0.  1.
        -11    1    4    4    0    0 -0.21882095816E-01  0.63431836344E-01  0.27414438048E-01  0.72486112558E-01  0.51100000000E-03 0.  1.
         11    1    4    4    0    0 -0.30015845636E-01  0.50843397615E-01  0.11667993179E-01  0.60186420862E-01  0.51100000000E-03 0. -1.
</event>
<event>
 8    1  0.1191842E+005  0.1043930E+01  0.7957747E-01            NaN
         13   -1    0    0    0    0  0.00000000000E+00  0.00000000000E+00  0.74505805969E-08  0.10566000000E+00  0.10566000000E+00 0. -1.
     999900   -1    0    0    0    0 -0.00000000000E+00 -0.00000000000E+00 -0.74505805969E-08  0.93827000000E+00  0.93827000000E+00 0.  1.
     999902    2    1    2    0    0 -0.20398402830E-01  0.52982536537E-02  0.12007419607E-01  0.10196741872E+01  0.10193856501E+01 0.  0.
     999903    2    3    3    0    0  0.51841552278E-01  0.11512016955E+00 -0.19427428065E-01  0.12935536004E+00  0.20376069995E-01 0.  0.
         14    1    1    2    0    0  0.20398402830E-01 -0.52982536537E-02 -0.12007419607E-01  0.24255812816E-01  0.00000000000E+00 0.  1.
     999901    1    3    3    0    0 -0.72239955107E-01 -0.10982191590E+00  0.31434847672E-01  0.89031882715E+00  0.88000000000E+00 0. -1.
        -11    1    4    4    0    0  0.35863419821E-01  0.61654159319E-01 -0.17853236461E-01  0.73528357902E-01  0.51100000000E-03 0. -1.
         11    1    4    4    0    0  0.15978132457E-01  0.53466010233E-01 -0.15741916046E-02  0.55827002134E-01  0.51100000000E-03 0.  1.
</event>
<event>
 8    1  0.1191842E+005  0.1043930E+01  0.7957747E-01            NaN
         13   -1    0    0    0    0  0.00000000000E+00  0.00000000000E+00  0.74505805969E-08  0.10566000000E+00  0.10566000000E+00 0. -1.
     999900   -1    0    0    0    0 -0.00000000000E+00 -0.00000000000E+00 -0.74505805969E-08  0.93827000000E+00  0.93827000000E+00 0. -1.
     999902    2    1    2    0    0  0.21339759646E-01 -0.72067946046E-03 -0.97665406854E-02  0.10204504336E+01  0.10201802769E+01 0.  0.
     999903    2    3    3    0    0  0.64458364183E-01  0.27419470517E-01 -0.11116712891E+00  0.13313247404E+00  0.21434015382E-01 0.  0.
         14    1    1    2    0    0 -0.21339759646E-01  0.72067946046E-03  0.97665406854E-02  0.23479566384E-01  0.00000000000E+00 0.  1.
     999901    1    3    3    0    0 -0.43118604537E-01 -0.28140149978E-01  0.10140058823E+00  0.88731795958E+00  0.88000000000E+00 0.  1.
        -11    1    4    4    0    0  0.66150544882E-01  0.26752828247E-01 -0.10799073448E+00  0.12943673459E+00  0.51100000000E-03 0. -1.
         11    1    4    4    0    0 -0.16921806991E-02  0.66664227002E-03 -0.31763944392E-02  0.36957394480E-02  0.51100000000E-03 0.  1.
</event>
<event>
 8    1  0.1191842E+005  0.1043930E+01  0.7957747E-01            NaN
         13   -1    0    0    0    0  0.00000000000E+00  0.00000000000E+00  0.74505805969E-08  0.10566000000E+00  0.10566000000E+00 0.  1.
     999900   -1    0    0    0    0 -0.00000000000E+00 -0.00000000000E+00 -0.74505805969E-08  0.93827000000E+00  0.93827000000E+00 0. -1.
     999902    2    1    2    0    0 -0.14528398615E-02  0.21333711022E-01 -0.98127427090E-02  0.10204028266E+01  0.10201315604E+01 0.  0.
     999903    2    3    3    0    0  0.18464317167E-01  0.66388732440E-01 -0.11200921790E+00  0.13312002632E+00  0.20651433602E-01 0.  0.
         14    1    1    2    0    0  0.14528398615E-02 -0.21333711022E-01  0.98127427090E-02  0.23527173420E-01  0.00000000000E+00 0.  1.
     999901    1    3    3    0    0 -0.19917157029E-01 -0.45055021418E-01  0.10219647519E+00  0.88728280026E+00  0.88000000000E+00 0.  1.
        -11    1    4    4    0    0  0.14123151906E-01  0.17077464177E-01 -0.40081937537E-01  0.45803122603E-01  0.51100000000E-03 0. -1.
         11    1    4    4    0    0  0.43411652613E-02  0.49311268263E-01 -0.71927280360E-01  0.87316903716E-01  0.51100000000E-03 0.  1.
</event>
<event>
 8    1  0.1191842E+005  0.1043930E+01  0.7957747E-01            NaN
         13   -1    0    0    0    0  0.00000000000E+00  0.00000000000E+00  0.74505805969E-08  0.10566000000E+00  0.10566000000E+00 0. -1.
     999900   -1    0    0    0    0 -0.00000000000E+00 -0.00000000000E+00 -0.74505805969E-08  0.93827000000E+00  0.93827000000E+00 0.  1.
     999902    2    1    2    0    0  0.83169521292E-02 -0.21522954469E-01 -0.34621798009E-02  0.10205977058E+01  0.10203309665E+01 0.  0.
     999903    2    3    3    0    0  0.12574108840E+00 -0.11762567169E-01  0.32606206707E-01  0.13201196353E+00  0.20366995320E-01 0.  0.
         14    1    1    2    0    0 -0.83169521292E-02  0.21522954469E-01  0.34621798009E-02  0.23332294160E-01  0.00000000000E+00 0.  1.
     999901    1    3    3    0    0 -0.11742413628E+00 -0.97603872999E-02 -0.36068386508E-01  0.88858574232E+00  0.88000000000E+00 0. -1.
        -11    1    4    4    0    0  0.66630801493E-01 -0.16397931513E-01  0.18182643083E-01  0.70988911077E-01  0.51100000000E-03 0.  1.
         11    1    4    4    0    0  0.59110286912E-01  0.46353643446E-02  0.14423563624E-01  0.61023052448E-01  0.51100000000E-03 0. -1.
</event>
<event>
 8    1  0.1191842E+005  0.1043930E+01  0.7957747E-01            NaN
         13   -1    0    0    0    0  0.00000000000E+00  0.00000000000E+00  0.74505805969E-08  0.10566000000E+00  0.10566000000E+00 0.  1.
     999900   -1    0    0    0    0 -0.00000000000E+00 -0.00000000000E+00 -0.74505805969E-08  0.93827000000E+00  0.93827000000E+00 0.  1.
     999902    2    1    2    0    0 -0.14072421278E-01 -0.59476022009E-02  0.17968284271E-01  0.10203447026E+01  0.10200720788E+01 0.  0.
     999903    2    3    3    0    0  0.12081967877E+00 -0.24839354033E-01 -0.30673044041E-01  0.12853824618E+00  0.19153506520E-01 0.  0.
         14    1    1    2    0    0  0.14072421278E-01  0.59476022009E-02 -0.17968284271E-01  0.23585297374E-01  0.00000000000E+00 0. -1.
     999901    1    3    3    0    0 -0.13489210005E+00  0.18891751832E-01  0.48641328312E-01  0.89180645645E+00  0.88000000000E+00 0. -1.
        -11    1    4    4    0    0  0.54535609998E-01 -0.15336500096E-02 -0.13090037121E-01  0.56107887440E-01  0.51100000000E-03 0. -1.
         11    1    4    4    0    0  0.66284068775E-01 -0.23305704024E-01 -0.17583006920E-01  0.72430358737E-01  0.51100000000E-03 0.  1.
</event>
<event>
 8    1  0.1191842E+005  0.1043930E+01  0.7957747E-01            NaN
         13   -1    0    0    0    0  0.00000000000E+00  0.00000000000E+00  0.74505805969E-08  0.10566000000E+00  0.10566000000E+00 0. -1.
     999900   -1    0    0    0    0 -0.00000000000E+00 -0.00000000000E+00 -0.74505805969E-08  0.93827000000E+00  0.93827000000E+00 0. -1.
     999902    2    1    2    0    0  0.26202929258E-02 -0.16330935472E-01 -0.83269909124E-02  0.10254123283E+01  0.10252451116E+01 0.  0.
     999903    2    3    3    0    0  0.95950821593E-01 -0.91811110731E-01  0.24964369116E-01  0.13664005199E+00  0.20284079103E-01 0.  0.
         14    1    1    2    0    0 -0.26202929258E-02  0.16330935472E-01  0.83269909124E-02  0.18517671724E-01  0.00000000000E+00 0. -1.
     999901    1    3    3    0    0 -0.93330528667E-01  0.75480175258E-01 -0.33291360029E-01  0.88877227628E+00  0.88000000000E+00 0. -1.
        -11    1    4    4    0    0  0.33570521914E-01 -0.37861329121E-01  0.47454441165E-03  0.50605795101E-01  0.51100000000E-03 0.  1.
         11    1    4    4    0    0  0.62380299679E-01 -0.53949781610E-01  0.24489824705E-01  0.86034256892E-01  0.51100000000E-03 0. -1.
</event>
<event>
 7    1  0.1191842E+005  0.1043930E+01  0.7957747E-01            NaN
         13   -1    0    0    0    0  0.00000000000E+00  0.00000000000E+00  0.74505805969E-08  0.10566000000E+00  0.10566000000E+00 0.  1.
     999900   -1    0    0    0    0 -0.00000000000E+00 -0.00000000000E+00 -0.74505805969E-08  0.93827000000E+00  0.93827000000E+00 0.  1.
     999903    2    1    2    0    0 -0.93081845052E-01  0.45289818835E-01 -0.53779533198E-01  0.11834374035E+00  0.19940038131E-01 0.  0.
         14    1    1    2    0    0 -0.47366661574E-02 -0.19386741223E-02  0.38638921704E-01  0.38976412535E-01  0.00000000000E+00 0.  1.
     999901    1    1    2    0    0  0.97818511210E-01 -0.43351144713E-01  0.15140611494E-01  0.88660984711E+00  0.88000000000E+00 0.  1.
        -11    1    3    3    0    0 -0.60555382074E-01  0.38734410771E-01 -0.41197580614E-01  0.82854152855E-01  0.51100000000E-03 0. -1.
         11    1    3    3    0    0 -0.32526462978E-01  0.65554080648E-02 -0.12581952584E-01  0.35489587495E-01  0.51100000000E-03 0.  1.
</event>
<event>
 8    1  0.1191842E+005  0.1043930E+01  0.7957747E-01            NaN
         13   -1    0    0    0    0  0.00000000000E+00  0.00000000000E+00  0.74505805969E-08  0.10566000000E+00  0.10566000000E+00 0.  1.
     999900   -1    0    0    0    0 -0.00000000000E+00 -0.00000000000E+00 -0.74505805969E-08  0.93827000000E+00  0.93827000000E+00 0.  1.
     999902    2    1    2    0    0  0.28120930028E-02  0.12708344423E-01  0.20638173030E-01  0.10195303264E+01  0.10192383148E+01 0.  0.
     999903    2    3    3    0    0  0.36326913317E-01  0.97112724559E-01  0.79114088003E-01  0.13292625740E+00  0.25687060611E-01 0.  0.
         14    1    1    2    0    0 -0.28120930028E-02 -0.12708344423E-01 -0.20638173030E-01  0.24399673585E-01  0.00000000000E+00 0. -1.
     999901    1    3    3    0    0 -0.33514820314E-01 -0.84404380136E-01 -0.58475914973E-01  0.88660406902E+00  0.88000000000E+00 0.  1.
        -11    1    4    4    0    0  0.40198094155E-01  0.85230914412E-01  0.68186267273E-01  0.11631777040E+00  0.51100000000E-03 0.  1.
         11    1    4    4    0    0 -0.38711808379E-02  0.11881810147E-01  0.10927820731E-01  0.16608486998E-01  0.51100000000E-03 0. -1.
</event>
<event>
 8    1  0.1191842E+005  0.1043930E+01  0.7957747E-01            NaN
         13   -1    0    0    0    0  0.00000000000E+00  0.00000000000E+00  0.74505805969E-08  0.10566000000E+00  0.10566000000E+00 0. -1.
     999900   -1    0    0    0    0 -0.00000000000E+00 -0.00000000000E+00 -0.74505805969E-08  0.93827000000E+00  0.93827000000E+00 0. -1.
     999902    2    1    2    0    0 -0.17694957498E-01  0.13709762988E-01 -0.61477039733E-02  0.10207165688E+01  0.10204525714E+01 0.  0.
     999903    2    3    3    0    0 -0.71444367654E-01 -0.99681000181E-03  0.10857708069E+00  0.13152195651E+00  0.20093563498E-01 0.  0.
         14    1    1    2    0    0  0.17694957498E-01 -0.13709762988E-01  0.61477039733E-02  0.23213431159E-01  0.00000000000E+00 0. -1.
     999901    1    3    3    0    0  0.53749410155E-01  0.14706572989E-01 -0.11472478466E+00  0.88919461233E+00  0.88000000000E+00 0. -1.
        -11    1    4    4    0    0 -0.52567041181E-01  0.82196394859E-02  0.78201446536E-01  0.94586381965E-01  0.51100000000E-03 0.  1.
         11    1    4    4    0    0 -0.18877326472E-01 -0.92164494877E-02  0.30375634152E-01  0.36935574546E-01  0.51100000000E-03 0. -1.
</event>
<event>
 8    1  0.1191842E+005  0.1043930E+01  0.7957747E-01            NaN
         13   -1    0    0    0    0  0.00000000000E+00  0.00000000000E+00  0.74505805969E-08  0.10566000000E+00  0.10566000000E+00 0. -1.
     999900   -1    0    0    0    0 -0.00000000000E+00 -0.00000000000E+00 -0.74505805969E-08  0.93827000000E+00  0.93827000000E+00 0.  1.
     999902    2    1    2    0    0 -0.68862620188E-02  0.21708953267E-01  0.14496929225E-02  0.10211089381E+01  0.10208538890E+01 0.  0.
     999903    2    3    3    0    0 -0.79009667583E-01 -0.47698169109E-01  0.90497098073E-01  0.13096930039E+00  0.21109002264E-01 0.  0.
         14    1    1    2    0    0  0.68862620188E-02 -0.21708953267E-01 -0.14496929225E-02  0.22821061897E-01  0.00000000000E+00 0. -1.
     999901    1    3    3    0    0  0.72123405564E-01  0.69407122376E-01 -0.89047405151E-01  0.89013963771E+00  0.88000000000E+00 0.  1.
        -11    1    4    4    0    0 -0.18367834674E-01 -0.27303442877E-02  0.12331622980E-01  0.22297133826E-01  0.51100000000E-03 0.  1.
         11    1    4    4    0    0 -0.60641832909E-01 -0.44967824821E-01  0.78165475093E-01  0.10867216656E+00  0.51100000000E-03 0. -1.
</event>
<event>
 7    1  0.1191842E+005  0.1043930E+01  0.7957747E-01            NaN
         13   -1    0    0    0    0  0.00000000000E+00  0.00000000000E+00  0.74505805969E-08  0.10566000000E+00  0.10566000000E+00 0. -1.
     999900   -1    0    0    0    0 -0.00000000000E+00 -0.00000000000E+00 -0.74505805969E-08  0.93827000000E+00  0.93827000000E+00 0. -1.
     999903    2    1    2    0    0 -0.77043345826E-01 -0.59577567672E-01  0.56772495057E-01  0.11470554020E+00  0.21191532539E-01 0.  0.
         14    1    1    2    0    0  0.26179056505E-03  0.44006627657E-01 -0.24710711131E-02  0.44076728605E-01  0.00000000000E+00 0.  1.
     999901    1    1    2    0    0  0.76781555261E-01  0.15570940015E-01 -0.54301423944E-01  0.88514773120E+00  0.88000000000E+00 0. -1.
        -11    1    3    3    0    0 -0.46728650786E-01 -0.43877860183E-01  0.27577543689E-01  0.69782630041E-01  0.51100000000E-03 0. -1.
         11    1    3    3    0    0 -0.30314695040E-01 -0.15699707489E-01  0.29194951368E-01  0.44922910157E-01  0.51100000000E-03 0.  1.
</event>
<event>
 8    1  0.1191842E+005  0.1043930E+01  0.7957747E-01            NaN
         13   -1    0    0    0    0  0.00000000000E+00  0.00000000000E+00  0.74505805969E-08  0.10566000000E+00  0.10566000000E+00 0.  1.
     999900   -1    0    0    0    0 -0.00000000000E+00 -0.00000000000E+00 -0.74505805969E-08  0.93827000000E+00  0.93827000000E+00 0. -1.
     999902    2    1    2    0    0 -0.44571391189E-02  0.59508950073E-02  0.22536475859E-01  0.10201987551E+01  0.10199227068E+01 0.  0.
     999903    2    3    3    0    0  0.49071874823E-01 -0.19579422638E-01 -0.11413446541E+00  0.12767643121E+00  0.21981633288E-01 0.  0.
         14    1    1    2    0    0  0.44571391189E-02 -0.59508950073E-02 -0.22536475859E-01  0.23731244903E-01  0.00000000000E+00 0. -1.
     999901    1    3    3    0    0 -0.53529013941E-01  0.25530317645E-01  0.13667094127E+00  0.89252232389E+00  0.88000000000E+00 0.  1.
        -11    1    4    4    0    0  0.34532623171E-01 -0.22949877758E-02 -0.67425157640E-01  0.75790382211E-01  0.51100000000E-03 0. -1.
         11    1    4    4    0    0  0.14539251652E-01 -0.17284434862E-01 -0.46709307770E-01  0.51886048996E-01  0.51100000000E-03 0.  1.
</event>
<event>
 8    1  0.1191842E+005  0.1043930E+01  0.7957747E-01            NaN
         13   -1    0    0    0    0  0.00000000000E+00  0.00000000000E+00  0.74505805969E-08  0.10566000000E+00  0.10566000000E+00 0. -1.
     999900   -1    0    0    0    0 -0.00000000000E+00 -0.00000000000E+00 -0.74505805969E-08  0.93827000000E+00  0.93827000000E+00 0. -1.
     999902    2    1    2    0    0 -0.11034868432E-01 -0.69099220276E-02 -0.19718783634E-01  0.10203006587E+01  0.10200270037E+01 0.  0.
     999903    2    3    3    0    0 -0.43578827945E-02  0.12806222848E+00  0.76538388542E-03  0.12974933243E+00  0.20380823054E-01 0.  0.
         14    1    1    2    0    0  0.11034868432E-01  0.69099220276E-02  0.19718783634E-01  0.23629341331E-01  0.00000000000E+00 0. -1.
     999901    1    3    3    0    0 -0.66769856374E-02 -0.13497215050E+00 -0.20484167519E-01  0.89055132624E+00  0.88000000000E+00 0.  1.
        -11    1    4    4    0    0  0.20953919047E-02  0.57024883524E-01  0.96176907125E-02  0.57870451042E-01  0.51100000000E-03 0.  1.
         11    1    4    4    0    0 -0.64532746992E-02  0.71037344952E-01 -0.88523068270E-02  0.71878881387E-01  0.51100000000E-03 0. -1.
</event>
<event>
 8    1  0.1191842E+005  0.1043930E+01  0.7957747E-01            NaN
         13   -1    0    0    0    0  0.00000000000E+00  0.00000000000E+00  0.74505805969E-08  0.10566000000E+00  0.10566000000E+00 0.  1.
     999900   -1    0    0    0    0 -0.00000000000E+00 -0.00000000000E+00 -0.74505805969E-08  0.93827000000E+00  0.93827000000E+00 0. -1.
     999902    2    1    2    0    0  0.72553217732E-02 -0.52986644593E-02 -0.23490096883E-01  0.10187804435E+01  0.10184699760E+01 0.  0.
     999903    2    3    3    0    0 -0.73642393731E-01 -0.23416527461E-01 -0.10437235299E+00  0.13119121608E+00  0.18601376141E-01 0.  0.
         14    1    1    2    0    0 -0.72553217732E-02  0.52986644593E-02  0.23490096883E-01  0.25149556470E-01  0.00000000000E+00 0.  1.
     999901    1    3    3    0    0  0.80897715504E-01  0.18117863002E-01  0.80882256110E-01  0.88758922745E+00  0.88000000000E+00 0.  1.
        -11    1    4    4    0    0 -0.52574916020E-01 -0.75779251248E-02 -0.69891214758E-01  0.87787184514E-01  0.51100000000E-03 0.  1.
         11    1    4    4    0    0 -0.21067477711E-01 -0.15838602337E-01 -0.34481138235E-01  0.43404031565E-01  0.51100000000E-03 0. -1.
</event>
<event>
 8    1  0.1191842E+005  0.1043930E+01  0.7957747E-01            NaN
         13   -1    0    0    0    0  0.00000000000E+00  0.00000000000E+00  0.74505805969E-08  0.10566000000E+00  0.10566000000E+00 0.  1.
     999900   -1    0    0    0    0 -0.00000000000E+00 -0.00000000000E+00 -0.74505805969E-08  0.93827000000E+00  0.93827000000E+00 0.  1.
     999902    2    1    2    0    0  0.20058454721E-01  0.13165016407E-01  0.10588729200E-02  0.10199137456E+01  0.10196309470E+01 0.  0.
     999903    2    3    3    0    0 -0.74863578341E-02  0.10735052159E+00 -0.73016141989E-01  0.13136620388E+00  0.18588773266E-01 0.  0.
         14    1    1    2    0    0 -0.20058454721E-01 -0.13165016407E-01 -0.10588729200E-02  0.24016254384E-01  0.00000000000E+00 0. -1.
     999901    1    3    3    0    0  0.27544812555E-01 -0.94185505187E-01  0.74075014909E-01  0.88854754173E+00  0.88000000000E+00 0. -1.
        -11    1    4    4    0    0  0.29657693123E-02  0.77563951137E-01 -0.51043791650E-01  0.92901518236E-01  0.51100000000E-03 0. -1.
         11    1    4    4    0    0 -0.10452127146E-01  0.29786570457E-01 -0.21972350339E-01  0.38464685647E-01  0.51100000000E-03 0.  1.
</event>
<event>
 7    1  0.1191842E+005  0.1043930E+01  0.7957747E-01            NaN
         13   -1    0    0    0    0  0.00000000000E+00  0.00000000000E+00  0.74505805969E-08  0.10566000000E+00  0.10566000000E+00 0. -1.
     999900   -1    0    0    0    0 -0.00000000000E+00 -0.00000000000E+00 -0.74505805969E-08  0.93827000000E+00  0.93827000000E+00 0. -1.
     999903    2    1    2    0    0 -0.33325964640E-01  0.75907747816E-01 -0.25125142166E-01  0.88894476516E-01  0.19958684540E-01 0.  0.
         14    1    1    2    0    0  0.61793620757E-01  0.71609497945E-02 -0.29768959457E-01  0.68963191019E-01  0.00000000000E+00 0.  1.
     999901    1    1    2    0    0 -0.28467656117E-01 -0.83068697610E-01  0.54894101624E-01  0.88607233247E+00  0.88000000000E+00 0.  1.
        -11    1    3    3    0    0 -0.29501279902E-01  0.46355245220E-01 -0.20916798846E-01  0.58795474913E-01  0.51100000000E-03 0. -1.
         11    1    3    3    0    0 -0.38246847380E-02  0.29552502596E-01 -0.42083433203E-02  0.30099001603E-01  0.51100000000E-03 0.  1.
</event>
<event>
 8    1  0.1191842E+005  0.1043930E+01  0.7957747E-01            NaN
         13   -1    0    0    0    0  0.00000000000E+00  0.00000000000E+00  0.74505805969E-08  0.10566000000E+00  0.10566000000E+00 0.  1.
     999900   -1    0    0    0    0 -0.00000000000E+00 -0.00000000000E+00 -0.74505805969E-08  0.93827000000E+00  0.93827000000E+00 0.  1.
     999902    2    1    2    0    0 -0.71726629350E-02  0.21659304052E-01 -0.32778672826E-02  0.10208796863E+01  0.10206194281E+01 0.  0.
     999903    2    3    3    0    0  0.66591393962E-01  0.84018043336E-01 -0.75391824273E-01  0.13266227420E+00  0.20540362019E-01 0.  0.
         14    1    1    2    0    0  0.71726629350E-02 -0.21659304052E-01  0.32778672826E-02  0.23050313653E-01  0.00000000000E+00 0. -1.
     999901    1    3    3    0    0 -0.73764056897E-01 -0.62358739283E-01  0.72113956990E-01  0.88821741215E+00  0.88000000000E+00 0.  1.
        -11    1    4    4    0    0  0.42672240616E-01  0.67342472295E-01 -0.50989043368E-01  0.94636527613E-01  0.51100000000E-03 0.  1.
         11    1    4    4    0    0  0.23919153347E-01  0.16675571041E-01 -0.24402780904E-01  0.38025746583E-01  0.51100000000E-03 0. -1.
</event>
<event>
 8    1  0.1191842E+005  0.1043930E+01  0.7957747E-01            NaN
         13   -1    0    0    0    0  0.00000000000E+00  0.00000000000E+00  0.74505805969E-08  0.10566000000E+00  0.10566000000E+00 0.  1.
     999900   -1    0    0    0    0 -0.00000000000E+00 -0.00000000000E+00 -0.74505805969E-08  0.93827000000E+00  0.93827000000E+00 0.  1.
     999902    2    1    2    0    0  0.59574751157E-02  0.20950370967E-01 -0.86306149630E-02  0.10205014476E+01  0.10202324772E+01 0.  0.
     999903    2    3    3    0    0  0.12609207961E+00 -0.20305681254E-01  0.24629714103E-01  0.13075955550E+00  0.13412878440E-01 0.  0.
         14    1    1    2    0    0 -0.59574751157E-02 -0.20950370967E-01  0.86306149630E-02  0.23428552410E-01  0.00000000000E+00 0.  1.
     999901    1    3    3    0    0 -0.12013460449E+00  0.41256052220E-01 -0.33260329066E-01  0.88974189208E+00  0.88000000000E+00 0. -1.
        -11    1    4    4    0    0  0.11167764340E+00 -0.20679237915E-01  0.25123690095E-01  0.11632277439E+00  0.51100000000E-03 0.  1.
         11    1    4    4    0    0  0.14414436208E-01  0.37355666090E-03 -0.49397599148E-03  0.14436781119E-01  0.51100000000E-03 0. -1.
</event>
<event>
 8    1  0.1191842E+005  0.1043930E+01  0.7957747E-01            NaN
         13   -1    0    0    0    0  0.00000000000E+00  0.00000000000E+00  0.74505805969E-08  0.10566000000E+00  0.10566000000E+00 0. -1.
     999900   -1    0    0    0    0 -0.00000000000E+00 -0.00000000000E+00 -0.74505805969E-08  0.93827000000E+00  0.93827000000E+00 0.  1.
     999902    2    1    2    0    0 -0.22619325884E-02  0.13272775745E-01 -0.16915031232E-01  0.10223105366E+01  0.10220819107E+01 0.  0.
     999903    2    3    3    0    0  0.57553619611E-01 -0.24489390396E-01  0.11222920275E+00  0.13007619821E+00  0.20304531986E-01 0.  0.
         14    1    1    2    0    0  0.22619325884E-02 -0.13272775745E-01  0.16915031232E-01  0.21619463374E-01  0.00000000000E+00 0. -1.
     999901    1    3    3    0    0 -0.59815552199E-01  0.37762166141E-01 -0.12914423398E+00  0.89223433842E+00  0.88000000000E+00 0.  1.
        -11    1    4    4    0    0  0.32722351070E-01 -0.32690371445E-02  0.51187176781E-01  0.60842641718E-01  0.51100000000E-03 0. -1.
         11    1    4    4    0    0  0.24831268542E-01 -0.21220353252E-01  0.61042025967E-01  0.69233556493E-01  0.51100000000E-03 0.  1.
</event>
<event>
 8    1  0.1191842E+005  0.1043930E+01  0.7957747E-01            NaN
         13   -1    0    0    0    0  0.00000000000E+00  0.00000000000E+00  0.74505805969E-08  0.10566000000E+00  0.10566000000E+00 0.  1.
     999900   -1    0    0    0    0 -0.00000000000E+00 -0.00000000000E+00 -0.74505805969E-08  0.93827000000E+00  0.93827000000E+00 0.  1.
     999902    2    1    2    0    0  0.17363497203E-01 -0.51745282110E-02 -0.14731286584E-01  0.10205788205E+01  0.10203116442E+01 0.  0.
     999903    2    3    3    0    0  0.11566617683E+00 -0.26714560817E-01  0.56136514491E-01  0.13201276501E+00  0.13554690887E-01 0.  0.
         14    1    1    2    0    0 -0.17363497203E-01  0.51745282110E-02  0.14731286584E-01  0.23351179451E-01  0.00000000000E+00 0.  1.
     999901    1    3    3    0    0 -0.98302679624E-01  0.21540032606E-01 -0.70867801075E-01  0.88856605554E+00  0.88000000000E+00 0. -1.
        -11    1    4    4    0    0  0.36562211706E-01 -0.24324392825E-02  0.19574100422E-01  0.41546583663E-01  0.51100000000E-03 0. -1.
         11    1    4    4    0    0  0.79103965121E-01 -0.24282121535E-01  0.36562414068E-01  0.90466181348E-01  0.51100000000E-03 0.  1.
</event>
<event>
 8    1  0.1191842E+005  0.1043930E+01  0.7957747E-01            NaN
         13   -1    0    0    0    0  0.00000000000E+00  0.00000000000E+00  0.74505805969E-08  0.10566000000E+00  0.10566000000E+00 0.  1.
     999900   -1    0    0    0    0 -0.00000000000E+00 -0.00000000000E+00 -0.74505805969E-08  0.93827000000E+00  0.93827000000E+00 0. -1.
     999902    2    1    2    0    0 -0.46542981434E-02  0.10622101342E-01 -0.20551096214E-01  0.10203325619E+01  0.10200596541E+01 0.  0.
     999903    2    3    3    0    0 -0.86248534473E-01 -0.87668241511E-01  0.35586531585E-01  0.12933871001E+00  0.18373089227E-01 0.  0.
         14    1    1    2    0    0  0.46542981434E-02 -0.10622101342E-01  0.20551096214E-01  0.23597438075E-01  0.00000000000E+00 0.  1.
     999901    1    3    3    0    0  0.81594236330E-01  0.98290342852E-01 -0.56137627798E-01  0.89099385192E+00  0.88000000000E+00 0. -1.
        -11    1    4    4    0    0 -0.29076782918E-01 -0.32034466984E-01  0.36867540124E-02  0.43422570812E-01  0.51100000000E-03 0.  1.
         11    1    4    4    0    0 -0.57171751556E-01 -0.55633774527E-01  0.31899777572E-01  0.85916139195E-01  0.51100000000E-03 0. -1.
</event>
<event>
 8    1  0.1191842E+005  0.1043930E+01  0.7957747E-01            NaN
         13   -1    0    0    0    0  0.00000000000E+00  0.00000000000E+00  0.74505805969E-08  0.10566000000E+00  0.10566000000E+00 0.  1.
     999900   -1    0    0    0    0 -0.00000000000E+00 -0.00000000000E+00 -0.74505805969E-08  0.93827000000E+00  0.93827000000E+00 0.  1.
     999902    2    1    2    0    0  0.11001087692E-01 -0.98127293096E-02 -0.14529041105E-01  0.10232320141E+01  0.10230226527E+01 0.  0.
     999903    2    3    3    0    0  0.34426519880E-02  0.12985957920E+00  0.21739305216E-05  0.13206612606E+00  0.23792845226E-01 0.  0.
         14    1    1    2    0    0 -0.11001087692E-01  0.98127293096E-02  0.14529041105E-01  0.20697985949E-01  0.00000000000E+00 0.  1.
     999901    1    3    3    0    0  0.75584357040E-02 -0.13967230851E+00 -0.14531215035E-01  0.89116588799E+00  0.88000000000E+00 0. -1.
        -11    1    4    4    0    0 -0.62538384315E-03  0.39550600226E-01  0.10839042387E-01  0.41016911684E-01  0.51100000000E-03 0. -1.
         11    1    4    4    0    0  0.40680358312E-02  0.90308978975E-01 -0.10836868457E-01  0.91049214373E-01  0.51100000000E-03 0.  1.
</event>
<event>
 8    1  0.1191842E+005  0.1043930E+01  0.7957747E-01            NaN
         13   -1    0    0    0    0  0.00000000000E+00  0.00000000000E+00  0.74505805969E-08  0.10566000000E+00  0.10566000000E+00 0.  1.
     999900   -1    0    0    0    0 -0.00000000000E+00 -0.00000000000E+00 -0.74505805969E-08  0.93827000000E+00  0.93827000000E+00 0.  1.
     999902    2    1    2    0    0  0.61035036804E-02  0.10262791216E-01  0.19226739175E-01  0.10212971668E+01  0.10210463543E+01 0.  0.
     999903    2    3    3    0    0 -0.22652631814E-01  0.12256761574E+00 -0.37141368926E-01  0.13190599718E+00  0.21994286739E-01 0.  0.
         14    1    1    2    0    0 -0.61035036804E-02 -0.10262791216E-01 -0.19226739175E-01  0.22632833230E-01  0.00000000000E+00 0. -1.
     999901    1    3    3    0    0  0.28756135494E-01 -0.11230482452E+00  0.56368108101E-01  0.88939116959E+00  0.88000000000E+00 0. -1.
        -11    1    4    4    0    0 -0.16316876228E-01  0.65079344270E-01 -0.30448982055E-01  0.73681497878E-01  0.51100000000E-03 0.  1.
         11    1    4    4    0    0 -0.63357555852E-02  0.57488271470E-01 -0.66923868707E-02  0.58224499298E-01  0.51100000000E-03 0. -1.
</event>
<event>
 8    1  0.1191842E+005  0.1043930E+01  0.7957747E-01            NaN
         13   -1    0    0    0    0  0.00000000000E+00  0.00000000000E+00  0.74505805969E-08  0.10566000000E+00  0.10566000000E+00 0. -1.
     999900   -1    0    0    0    0 -0.00000000000E+00 -0.00000000000E+00 -0.74505805969E-08  0.93827000000E+00  0.93827000000E+00 0. -1.
     999902    2    1    2    0    0  0.81774966320E-02 -0.12474965324E-01 -0.10799410676E-01  0.10255146944E+01  0.10253493380E+01 0.  0.
     999903    2    3    3    0    0  0.11344348763E+00  0.69410696407E-01 -0.17409428606E-01  0.13544172949E+00  0.18817657146E-01 0.  0.
         14    1    1    2    0    0 -0.81774966320E-02  0.12474965324E-01  0.10799410676E-01  0.18415305644E-01  0.00000000000E+00 0. -1.
     999901    1    3    3    0    0 -0.10526599100E+00 -0.81885661730E-01  0.66100179296E-02  0.89007296487E+00  0.88000000000E+00 0. -1.
        -11    1    4    4    0    0  0.16952257515E-01  0.53993481153E-02  0.24186559600E-02  0.17962266354E-01  0.51100000000E-03 0.  1.
         11    1    4    4    0    0  0.96491230114E-01  0.64011348292E-01 -0.19828084566E-01  0.11747946313E+00  0.51100000000E-03 0. -1.
</event>
<event>
 8    1  0.1191842E+005  0.1043930E+01  0.7957747E-01            NaN
         13   -1    0    0    0    0  0.00000000000E+00  0.00000000000E+00  0.74505805969E-08  0.10566000000E+00  0.10566000000E+00 0. -1.
     999900   -1    0    0    0    0 -0.00000000000E+00 -0.00000000000E+00 -0.74505805969E-08  0.93827000000E+00  0.93827000000E+00 0. -1.
     999902    2    1    2    0    0  0.30218008776E-02  0.19458377919E-01 -0.12848705697E-01  0.10204172590E+01  0.10201463294E+01 0.  0.
     999903    2    3    3    0    0 -0.56380230467E-01  0.11299971148E+00  0.33409482931E-01  0.13226276656E+00  0.20726328333E-01 0.  0.
         14    1    1    2    0    0 -0.30218008776E-02 -0.19458377919E-01  0.12848705697E-01  0.23512741012E-01  0.00000000000E+00 0.  1.
     999901    1    3    3    0    0  0.59402031345E-01 -0.93541333557E-01 -0.46258188629E-01  0.88815449243E+00  0.88000000000E+00 0.  1.
        -11    1    4    4    0    0 -0.23994204626E-01  0.35591222442E-01  0.30773666794E-02  0.43037057023E-01  0.51100000000E-03 0. -1.
         11    1    4    4    0    0 -0.32386025841E-01  0.77408489035E-01  0.30332116252E-01  0.89225709533E-01  0.51100000000E-03 0.  1.
</event>
<event>
 8    1  0.1191842E+005  0.1043930E+01  0.7957747E-01            NaN
         13   -1    0    0    0    0  0.00000000000E+00  0.00000000000E+00  0.74505805969E-08  0.10566000000E+00  0.10566000000E+00 0. -1.
     999900   -1    0    0    0    0 -0.00000000000E+00 -0.00000000000E+00 -0.74505805969E-08  0.93827000000E+00  0.93827000000E+00 0.  1.
     999902    2    1    2    0    0  0.11354539855E-01 -0.13958312099E-02 -0.23318502471E-01  0.10179564273E+01  0.10176250102E+01 0.  0.
     999903    2    3    3    0    0  0.12420303508E+00  0.10496609535E-01 -0.33288593455E-01  0.13061454522E+00  0.20382743537E-01 0.  0.
         14    1    1    2    0    0 -0.11354539855E-01  0.13958312099E-02  0.23318502471E-01  0.25973572676E-01  0.00000000000E+00 0. -1.
     999901    1    3    3    0    0 -0.11284849522E+00 -0.11892440745E-01  0.99700909840E-02  0.88734188210E+00  0.88000000000E+00 0. -1.
        -11    1    4    4    0    0  0.71510811333E-01  0.12982232927E-01 -0.26793945633E-01  0.77462966331E-01  0.51100000000E-03 0. -1.
         11    1    4    4    0    0  0.52692223747E-01 -0.24856233926E-02 -0.64946478224E-02  0.53151578888E-01  0.51100000000E-03 0.  1.
</event>
<event>
 8    1  0.1191842E+005  0.1043930E+01  0.7957747E-01            NaN
         13   -1    0    0    0    0  0.00000000000E+00  0.00000000000E+00  0.74505805969E-08  0.10566000000E+00  0.10566000000E+00 0. -1.
     999900   -1    0    0    0    0 -0.00000000000E+00 -0.00000000000E+00 -0.74505805969E-08  0.93827000000E+00  0.93827000000E+00 0. -1.
     999902    2    1    2    0    0 -0.15595147723E-01 -0.16110404829E-01  0.72968358382E-03  0.10214959586E+01  0.10212495812E+01 0.  0.
     999903    2    3    3    0    0 -0.50350947512E-01 -0.11791836383E+00  0.34582607445E-01  0.13429877273E+00  0.20006128435E-01 0.  0.
         14    1    1    2    0    0  0.15595147723E-01  0.16110404829E-01 -0.72968358382E-03  0.22434041419E-01  0.00000000000E+00 0.  1.
     999901    1    3    3    0    0  0.34755799789E-01  0.10180795900E+00 -0.33852923861E-01  0.88719718585E+00  0.88000000000E+00 0. -1.
        -11    1    4    4    0    0 -0.53860506305E-02 -0.33064152456E-01  0.54506365588E-02  0.33944340897E-01  0.51100000000E-03 0. -1.
         11    1    4    4    0    0 -0.44964896882E-01 -0.84854211371E-01  0.29131970886E-01  0.10035443183E+00  0.51100000000E-03 0.  1.
</event>
<event>
 8    1  0.1191842E+005  0.1043930E+01  0.7957747E-01            NaN
         13   -1    0    0    0    0  0.00000000000E+00  0.00000000000E+00  0.74505805969E-08  0.10566000000E+00  0.10566000000E+00 0.  1.
     999900   -1    0    0    0    0 -0.00000000000E+00 -0.00000000000E+00 -0.74505805969E-08  0.93827000000E+00  0.93827000000E+00 0.  1.
     999902    2    1    2    0    0  0.21985558774E-01  0.14954744050E-01 -0.16846503946E-01  0.10124528041E+01  0.10119633722E+01 0.  0.
     999903    2    3    3    0    0 -0.44925574336E-01  0.56634175486E-01 -0.10000857421E+00  0.12502381843E+00  0.20087389038E-01 0.  0.
         14    1    1    2    0    0 -0.21985558774E-01 -0.14954744050E-01  0.16846503946E-01  0.31477195863E-01  0.00000000000E+00 0.  1.
     999901    1    3    3    0    0  0.66911133110E-01 -0.41679431436E-01  0.83162070260E-01  0.88742898570E+00  0.88000000000E+00 0. -1.
        -11    1    4    4    0    0 -0.67206610785E-02  0.13187102246E-01 -0.34958810702E-01  0.37966386682E-01  0.51100000000E-03 0.  1.
         11    1    4    4    0    0 -0.38204913257E-01  0.43447073240E-01 -0.65049763504E-01  0.87057431751E-01  0.51100000000E-03 0. -1.
</event>
<event>
 8    1  0.1191842E+005  0.1043930E+01  0.7957747E-01            NaN
         13   -1    0    0    0    0  0.00000000000E+00  0.00000000000E+00  0.74505805969E-08  0.10566000000E+00  0.10566000000E+00 0. -1.
     999900   -1    0    0    0    0 -0.00000000000E+00 -0.00000000000E+00 -0.74505805969E-08  0.93827000000E+00  0.93827000000E+00 0. -1.
     999902    2    1    2    0    0  0.78240134775E-02 -0.10340474745E-01 -0.19917983599E-01  0.10201630760E+01  0.10198861873E+01 0.  0.
     999903    2    3    3    0    0  0.71664827734E-02  0.38834302391E-01 -0.12497259144E+00  0.13255107651E+00  0.19803478344E-01 0.  0.
         14    1    1    2    0    0 -0.78240134775E-02  0.10340474745E-01  0.19917983599E-01  0.23766923980E-01  0.00000000000E+00 0. -1.
     999901    1    3    3    0    0  0.65753070408E-03 -0.49174777135E-01  0.10505460784E+00  0.88761199951E+00  0.88000000000E+00 0.  1.
        -11    1    4    4    0    0  0.80782011916E-02  0.37548213148E-01 -0.94148670308E-01  0.10168263808E+00  0.51100000000E-03 0.  1.
         11    1    4    4    0    0 -0.91171841824E-03  0.12860892429E-02 -0.30823921130E-01  0.30868438426E-01  0.51100000000E-03 0. -1.
</event>
<event>
 8    1  0.1191842E+005  0.1043930E+01  0.7957747E-01            NaN
         13   -1    0    0    0    0  0.00000000000E+00  0.00000000000E+00  0.74505805969E-08  0.10566000000E+00  0.10566000000E+00 0.  1.
     999900   -1    0    0    0    0 -0.00000000000E+00 -0.00000000000E+00 -0.74505805969E-08  0.93827000000E+00  0.93827000000E+00 0.  1.
     999902    2    1    2    0    0 -0.15623508990E-02 -0.17906566243E-02 -0.23329596710E-01  0.10204796807E+01  0.10202102045E+01 0.  0.
     999903    2    3    3    0    0 -0.81965509450E-01 -0.20017506582E-01  0.95211958056E-01  0.12871234214E+00  0.19557728716E-01 0.  0.
         14    1    1    2    0    0  0.15623508990E-02  0.17906566243E-02  0.23329596710E-01  0.23450319275E-01  0.00000000000E+00 0.  1.
     999901    1    3    3    0    0  0.80403158551E-01  0.18226849958E-01 -0.11854155477E+00  0.89176733859E+00  0.88000000000E+00 0.  1.
        -11    1    4    4    0    0 -0.62792986710E-01 -0.14117991709E-01  0.59002487889E-01  0.87314555304E-01  0.51100000000E-03 0.  1.
         11    1    4    4    0    0 -0.19172522741E-01 -0.58995148728E-02  0.36209470166E-01  0.41397786833E-01  0.51100000000E-03 0. -1.
</event>
<event>
 8    1  0.1191842E+005  0.1043930E+01  0.7957747E-01            NaN
         13   -1    0    0    0    0  0.00000000000E+00  0.00000000000E+00  0.74505805969E-08  0.10566000000E+00  0.10566000000E+00 0. -1.
     999900   -1    0    0    0    0 -0.00000000000E+00 -0.00000000000E+00 -0.74505805969E-08  0.93827000000E+00  0.93827000000E+00 0. -1.
     999902    2    1    2    0    0  0.18106113214E-01  0.23183177027E-01  0.20551413776E-01  0.10080461368E+01  0.10074072474E+01 0.  0.
     999903    2    3    3    0    0 -0.31324164165E-01  0.66921811419E-01 -0.90549263383E-01  0.11860823509E+00  0.20224050735E-01 0.  0.
         14    1    1    2    0    0 -0.18106113214E-01 -0.23183177027E-01 -0.20551413776E-01  0.35883863240E-01  0.00000000000E+00 0.  1.
     999901    1    3    3    0    0  0.49430277379E-01 -0.43738634392E-01  0.11110067716E+00  0.88943790167E+00  0.88000000000E+00 0.  1.
        -11    1    4    4    0    0 -0.81282773977E-02  0.19233016480E-01 -0.41077186826E-01  0.46082254881E-01  0.51100000000E-03 0.  1.
         11    1    4    4    0    0 -0.23195886767E-01  0.47688794939E-01 -0.49472076556E-01  0.72525980210E-01  0.51100000000E-03 0. -1.
</event>
<event>
 8    1  0.1191842E+005  0.1043930E+01  0.7957747E-01            NaN
         13   -1    0    0    0    0  0.00000000000E+00  0.00000000000E+00  0.74505805969E-08  0.10566000000E+00  0.10566000000E+00 0.  1.
     999900   -1    0    0    0    0 -0.00000000000E+00 -0.00000000000E+00 -0.74505805969E-08  0.93827000000E+00  0.93827000000E+00 0. -1.
     999902    2    1    2    0    0 -0.21999465916E-01 -0.38909712361E-02 -0.98715267504E-02  0.10195053567E+01  0.10192127399E+01 0.  0.
     999903    2    3    3    0    0  0.10510830765E+00 -0.45089169842E-01  0.51796467224E-01  0.12728530589E+00  0.20925713971E-01 0.  0.
         14    1    1    2    0    0  0.21999465916E-01  0.38909712361E-02  0.98715267504E-02  0.24424643255E-01  0.00000000000E+00 0. -1.
     999901    1    3    3    0    0 -0.12710777356E+00  0.41198198606E-01 -0.61667993974E-01  0.89222005086E+00  0.88000000000E+00 0. -1.
        -11    1    4    4    0    0  0.22839244834E-01 -0.87233364507E-03  0.95911157904E-02  0.24791988498E-01  0.51100000000E-03 0.  1.
         11    1    4    4    0    0  0.82269062812E-01 -0.44216836197E-01  0.42205351434E-01  0.10249331739E+00  0.51100000000E-03 0. -1.
</event>
<event>
 7    1  0.1191842E+005  0.1043930E+01  0.7957747E-01            NaN
         13   -1    0    0    0    0  0.00000000000E+00  0.00000000000E+00  0.74505805969E-08  0.10566000000E+00  0.10566000000E+00 0.  1.
     999900   -1    0    0    0    0 -0.00000000000E+00 -0.00000000000E+00 -0.74505805969E-08  0.93827000000E+00  0.93827000000E+00 0.  1.
     999903    2    1    2    0    0  0.39936925893E-03 -0.29409325071E-01 -0.10604745846E+00  0.11191820391E+00  0.20360575249E-01 0.  0.
         14    1    1    2    0    0 -0.35669766285E-01 -0.24993587878E-01  0.62545992348E-02  0.44001496264E-01  0.00000000000E+00 0.  1.
     999901    1    1    2    0    0  0.35270397026E-01  0.54402912949E-01  0.99792859223E-01  0.88801029983E+00  0.88000000000E+00 0. -1.
        -11    1    3    3    0    0  0.10335155837E-01 -0.16421919316E-01 -0.58048535660E-01  0.61207748639E-01  0.51100000000E-03 0.  1.
         11    1    3    3    0    0 -0.99357865783E-02 -0.12987405755E-01 -0.47998922797E-01  0.50710455272E-01  0.51100000000E-03 0. -1.
</event>
<event>
 8    1  0.1191842E+005  0.1043930E+01  0.7957747E-01            NaN
         13   -1    0    0    0    0  0.00000000000E+00  0.00000000000E+00  0.74505805969E-08  0.10566000000E+00  0.10566000000E+00 0.  1.
     999900   -1    0    0    0    0 -0.00000000000E+00 -0.00000000000E+00 -0.74505805969E-08  0.93827000000E+00  0.93827000000E+00 0.  1.
     999902    2    1    2    0    0  0.32512581530E-02  0.23630557584E-01 -0.28265744917E-02  0.10199099364E+01  0.10196270470E+01 0.  0.
     999903    2    3    3    0    0 -0.11522860177E+00  0.32108645030E-01  0.48813679645E-01  0.13042914909E+00  0.17899493318E-01 0.  0.
         14    1    1    2    0    0 -0.32512581530E-02 -0.23630557584E-01  0.28265744917E-02  0.24020063585E-01  0.00000000000E+00 0.  1.
     999901    1    3    3    0    0  0.11847985992E+00 -0.84780874467E-02 -0.51640254137E-01  0.88948078733E+00  0.88000000000E+00 0. -1.
        -11    1    4    4    0    0 -0.45659640090E-01  0.15992042432E-01  0.28631061740E-01  0.56218742175E-01  0.51100000000E-03 0.  1.
         11    1    4    4    0    0 -0.69568961676E-01  0.16116602598E-01  0.20182617905E-01  0.74210406915E-01  0.51100000000E-03 0. -1.
</event>
<event>
 8    1  0.1191842E+005  0.1043930E+01  0.7957747E-01            NaN
         13   -1    0    0    0    0  0.00000000000E+00  0.00000000000E+00  0.74505805969E-08  0.10566000000E+00  0.10566000000E+00 0.  1.
     999900   -1    0    0    0    0 -0.00000000000E+00 -0.00000000000E+00 -0.74505805969E-08  0.93827000000E+00  0.93827000000E+00 0. -1.
     999902    2    1    2    0    0 -0.54106407482E-02 -0.13368730057E-01  0.16814401779E-01  0.10217777522E+01  0.10215375924E+01 0.  0.
     999903    2    3    3    0    0 -0.54069218773E-01  0.15633947213E-01  0.11986814675E+00  0.13395519847E+00  0.20192123942E-01 0.  0.
         14    1    1    2    0    0  0.54106407482E-02  0.13368730057E-01 -0.16814401779E-01  0.22152247828E-01  0.00000000000E+00 0. -1.
     999901    1    3    3    0    0  0.48658578025E-01 -0.29002677270E-01 -0.10305374497E+00  0.88782255370E+00  0.88000000000E+00 0. -1.
        -11    1    4    4    0    0 -0.45079719668E-01  0.19450531899E-01  0.10754540959E+00  0.11822343491E+00  0.51100000000E-03 0.  1.
         11    1    4    4    0    0 -0.89894991052E-02 -0.38165846866E-02  0.12322737154E-01  0.15731763563E-01  0.51100000000E-03 0. -1.
</event>
<event>
 8    1  0.1191842E+005  0.1043930E+01  0.7957747E-01            NaN
         13   -1    0    0    0    0  0.00000000000E+00  0.00000000000E+00  0.74505805969E-08  0.10566000000E+00  0.10566000000E+00 0. -1.
     999900   -1    0    0    0    0 -0.00000000000E+00 -0.00000000000E+00 -0.74505805969E-08  0.93827000000E+00  0.93827000000E+00 0.  1.
     999902    2    1    2    0    0 -0.67045677640E-02 -0.17247293109E-01 -0.20736224351E-02  0.10253095742E+01  0.10251404794E+01 0.  0.
     999903    2    3    3    0    0 -0.10011710963E+00 -0.46857430114E-01  0.77162017561E-01  0.13633209985E+00  0.20332488680E-01 0.  0.
         14    1    1    2    0    0  0.67045677640E-02  0.17247293109E-01  0.20736224351E-02  0.18620425841E-01  0.00000000000E+00 0. -1.
     999901    1    3    3    0    0  0.93412541869E-01  0.29610137005E-01 -0.79235639996E-01  0.88897747431E+00  0.88000000000E+00 0.  1.
        -11    1    4    4    0    0 -0.81120989672E-01 -0.31057717473E-01  0.52927312665E-01  0.10171901654E+00  0.51100000000E-03 0. -1.
         11    1    4    4    0    0 -0.18996119961E-01 -0.15799712642E-01  0.24234704896E-01  0.34613083300E-01  0.51100000000E-03 0.  1.
</event>
<event>
 8    1  0.1191842E+005  0.1043930E+01  0.7957747E-01            NaN
         13   -1    0    0    0    0  0.00000000000E+00  0.00000000000E+00  0.74505805969E-08  0.10566000000E+00  0.10566000000E+00 0. -1.
     999900   -1    0    0    0    0 -0.00000000000E+00 -0.00000000000E+00 -0.74505805969E-08  0.93827000000E+00  0.93827000000E+00 0.  1.
     999902    2    1    2    0    0  0.29742181028E-02 -0.91050889994E-02 -0.21700482569E-01  0.10202095539E+01  0.10199337598E+01 0.  0.
     999903    2    3    3    0    0 -0.39081826984E-01 -0.11598037434E+00  0.40451306196E-01  0.13057261538E+00  0.20834185402E-01 0.  0.
         14    1    1    2    0    0 -0.29742181028E-02  0.91050889994E-02  0.21700482569E-01  0.23720446091E-01  0.00000000000E+00 0. -1.
     999901    1    3    3    0    0  0.42056045087E-01  0.10687528534E+00 -0.62151788765E-01  0.88963693853E+00  0.88000000000E+00 0. -1.
        -11    1    4    4    0    0 -0.22751363315E-02 -0.16637687912E-01 -0.95002978174E-03  0.16827138258E-01  0.51100000000E-03 0. -1.
         11    1    4    4    0    0 -0.36806690652E-01 -0.99342686432E-01  0.41401335978E-01  0.11374547712E+00  0.51100000000E-03 0.  1.
</event>
<event>
 8    1  0.1191842E+005  0.1043930E+01  0.7957747E-01            NaN
         13   -1    0    0    0    0  0.00000000000E+00  0.00000000000E+00  0.74505805969E-08  0.10566000000E+00  0.10566000000E+00 0.  1.
     999900   -1    0    0    0    0 -0.00000000000E+00 -0.00000000000E+00 -0.74505805969E-08  0.93827000000E+00  0.93827000000E+00 0.  1.
     999902    2    1    2    0    0  0.15943425102E-01 -0.17174115703E-01  0.92450817788E-02  0.10187384421E+01  0.10184269236E+01 0.  0.
     999903    2    3    3    0    0 -0.60858513907E-01  0.76782350510E-02  0.11184139236E+00  0.12910808055E+00  0.19942051308E-01 0.  0.
         14    1    1    2    0    0 -0.15943425102E-01  0.17174115703E-01 -0.92450817788E-02  0.25191557936E-01  0.00000000000E+00 0. -1.
     999901    1    3    3    0    0  0.76801939009E-01 -0.24852350754E-01 -0.10259631058E+00  0.88963036151E+00  0.88000000000E+00 0. -1.
        -11    1    4    4    0    0 -0.83489972557E-02  0.84864926907E-02  0.23043318178E-01  0.25941895594E-01  0.51100000000E-03 0. -1.
         11    1    4    4    0    0 -0.52509516651E-01 -0.80825763962E-03  0.88798074185E-01  0.10316618496E+00  0.51100000000E-03 0.  1.
</event>
<event>
 7    1  0.1191842E+005  0.1043930E+01  0.7957747E-01            NaN
         13   -1    0    0    0    0  0.00000000000E+00  0.00000000000E+00  0.74505805969E-08  0.10566000000E+00  0.10566000000E+00 0. -1.
     999900   -1    0    0    0    0 -0.00000000000E+00 -0.00000000000E+00 -0.74505805969E-08  0.93827000000E+00  0.93827000000E+00 0. -1.
     999903    2    1    2    0    0  0.90453426008E-01 -0.31957269747E-01 -0.48739892656E-01  0.10944682057E+00  0.19998500692E-01 0.  0.
         14    1    1    2    0    0 -0.49358499773E-01  0.23952548236E-02 -0.12277471068E-01  0.50918906521E-01  0.00000000000E+00 0.  1.
     999901    1    1    2    0    0 -0.41094926235E-01  0.29562014924E-01  0.61017363724E-01  0.88356427291E+00  0.88000000000E+00 0.  1.
        -11    1    3    3    0    0  0.70580021732E-01 -0.27118243022E-01 -0.28900442914E-01  0.80947114179E-01  0.51100000000E-03 0. -1.
         11    1    3    3    0    0  0.19873404276E-01 -0.48390267253E-02 -0.19839449742E-01  0.28499706389E-01  0.51100000000E-03 0.  1.
</event>
<event>
 8    1  0.1191842E+005  0.1043930E+01  0.7957747E-01            NaN
         13   -1    0    0    0    0  0.00000000000E+00  0.00000000000E+00  0.74505805969E-08  0.10566000000E+00  0.10566000000E+00 0.  1.
     999900   -1    0    0    0    0 -0.00000000000E+00 -0.00000000000E+00 -0.74505805969E-08  0.93827000000E+00  0.93827000000E+00 0.  1.
     999902    2    1    2    0    0  0.46596144184E-02  0.23181261383E-01 -0.28194759262E-02  0.10201175593E+01  0.10198395965E+01 0.  0.
     999903    2    3    3    0    0  0.41627239127E-01  0.71534609202E-01  0.10074992545E+00  0.13195582158E+00  0.20291969331E-01 0.  0.
         14    1    1    2    0    0 -0.46596144184E-02 -0.23181261383E-01  0.28194759262E-02  0.23812440664E-01  0.00000000000E+00 0.  1.
     999901    1    3    3    0    0 -0.36967624709E-01 -0.48353347819E-01 -0.10356940137E+00  0.88816173776E+00  0.88000000000E+00 0.  1.
        -11    1    4    4    0    0  0.25011332791E-01  0.28941779666E-01  0.34858099188E-01  0.51754628568E-01  0.51100000000E-03 0. -1.
         11    1    4    4    0    0  0.16615906337E-01  0.42592829536E-01  0.65891826257E-01  0.80201193007E-01  0.51100000000E-03 0.  1.
</event>
<event>
 8    1  0.1191842E+005  0.1043930E+01  0.7957747E-01            NaN
         13   -1    0    0    0    0  0.00000000000E+00  0.00000000000E+00  0.74505805969E-08  0.10566000000E+00  0.10566000000E+00 0. -1.
     999900   -1    0    0    0    0 -0.00000000000E+00 -0.00000000000E+00 -0.74505805969E-08  0.93827000000E+00  0.93827000000E+00 0. -1.
     999902    2    1    2    0    0  0.18730073217E-01  0.15338606985E-01  0.17860733971E-01  0.10138452144E+01  0.10133987490E+01 0.  0.
     999903    2    3    3    0    0  0.41056891414E-04  0.12096325512E+00 -0.29295446564E-01  0.12607860600E+00  0.20136556938E-01 0.  0.
         14    1    1    2    0    0 -0.18730073217E-01 -0.15338606985E-01 -0.17860733971E-01  0.30084785606E-01  0.00000000000E+00 0.  1.
     999901    1    3    3    0    0  0.18689016326E-01 -0.10562464814E+00  0.47156180535E-01  0.88776660840E+00  0.88000000000E+00 0.  1.
        -11    1    4    4    0    0 -0.42946376737E-02  0.14520851443E-01 -0.90246029095E-02  0.17635294668E-01  0.51100000000E-03 0. -1.
         11    1    4    4    0    0  0.43356945651E-02  0.10644240368E+00 -0.20270843654E-01  0.10844331133E+00  0.51100000000E-03 0.  1.
</event>
<event>
 8    1  0.1191842E+005  0.1043930E+01  0.7957747E-01            NaN
         13   -1    0    0    0    0  0.00000000000E+00  0.00000000000E+00  0.74505805969E-08  0.10566000000E+00  0.10566000000E+00 0.  1.
     999900   -1    0    0    0    0 -0.00000000000E+00 -0.00000000000E+00 -0.74505805969E-08  0.93827000000E+00  0.93827000000E+00 0. -1.
     999902    2    1    2    0    0  0.20425763495E-01 -0.10433576279E-02 -0.98600079125E-02  0.10212249308E+01  0.10209724968E+01 0.  0.
     999903    2    3    3    0    0  0.95131642012E-01 -0.83221072790E-01 -0.36498907510E-01  0.13384464251E+00  0.24626039259E-01 0.  0.
         14    1    1    2    0    0 -0.20425763495E-01  0.10433576279E-02  0.98600079125E-02  0.22705069159E-01  0.00000000000E+00 0.  1.
     999901    1    3    3    0    0 -0.74705878517E-01  0.82177715162E-01  0.26638899597E-01  0.88738028834E+00  0.88000000000E+00 0.  1.
        -11    1    4    4    0    0  0.26019606702E-01 -0.34582238976E-01 -0.46507842606E-02  0.43529784065E-01  0.51100000000E-03 0.  1.
         11    1    4    4    0    0  0.69112035311E-01 -0.48638833814E-01 -0.31848123249E-01  0.90314858440E-01  0.51100000000E-03 0. -1.
</event>
<event>
 8    1  0.1191842E+005  0.1043930E+01  0.7957747E-01            NaN
         13   -1    0    0    0    0  0.00000000000E+00  0.00000000000E+00  0.74505805969E-08  0.10566000000E+00  0.10566000000E+00 0. -1.
     999900   -1    0    0    0    0 -0.00000000000E+00 -0.00000000000E+00 -0.74505805969E-08  0.93827000000E+00  0.93827000000E+00 0.  1.
     999902    2    1    2    0    0  0.15279944300E-01  0.12125303133E-01 -0.13359643837E-01  0.10202872473E+01  0.10200132779E+01 0.  0.
     999903    2    3    3    0    0 -0.29920082707E-01 -0.10719868410E+00 -0.63611996284E-01  0.12966580394E+00  0.19492701678E-01 0.  0.
         14    1    1    2    0    0 -0.15279944300E-01 -0.12125303133E-01  0.13359643837E-01  0.23642752745E-01  0.00000000000E+00 0.  1.
     999901    1    3    3    0    0  0.45200027008E-01  0.11932398723E+00  0.50252352447E-01  0.89062144332E+00  0.88000000000E+00 0. -1.
        -11    1    4    4    0    0 -0.29916720659E-01 -0.93199248390E-01 -0.61225198460E-01  0.11545516932E+00  0.51100000000E-03 0. -1.
         11    1    4    4    0    0 -0.33620479735E-05 -0.13999435705E-01 -0.23867978239E-02  0.14210634617E-01  0.51100000000E-03 0.  1.
</event>
<event>
 8    1  0.1191842E+005  0.1043930E+01  0.7957747E-01            NaN
         13   -1    0    0    0    0  0.00000000000E+00  0.00000000000E+00  0.74505805969E-08  0.10566000000E+00  0.10566000000E+00 0.  1.
     999900   -1    0    0    0    0 -0.00000000000E+00 -0.00000000000E+00 -0.74505805969E-08  0.93827000000E+00  0.93827000000E+00 0. -1.
     999902    2    1    2    0    0  0.58666186095E-02 -0.10791454671E-01  0.21094478042E-02  0.10314671561E+01  0.10313918613E+01 0.  0.
     999903    2    3    3    0    0 -0.41792492188E-01  0.39940522483E-01  0.12564545000E+00  0.14011634516E+00  0.22448904995E-01 0.  0.
         14    1    1    2    0    0 -0.58666186095E-02  0.10791454671E-01 -0.21094478042E-02  0.12462843892E-01  0.00000000000E+00 0.  1.
     999901    1    3    3    0    0  0.47659110797E-01 -0.50731977154E-01 -0.12353600219E+00  0.89135081095E+00  0.88000000000E+00 0. -1.
        -11    1    4    4    0    0 -0.14056171923E-01  0.48924222409E-02  0.50818140022E-01  0.52955228645E-01  0.51100000000E-03 0. -1.
         11    1    4    4    0    0 -0.27736320265E-01  0.35048100242E-01  0.74827309974E-01  0.87161116511E-01  0.51100000000E-03 0.  1.
</event>
<event>
 8    1  0.1191842E+005  0.1043930E+01  0.7957747E-01            NaN
         13   -1    0    0    0    0  0.00000000000E+00  0.00000000000E+00  0.74505805969E-08  0.10566000000E+00  0.10566000000E+00 0.  1.
     999900   -1    0    0    0    0 -0.00000000000E+00 -0.00000000000E+00 -0.74505805969E-08  0.93827000000E+00  0.93827000000E+00 0. -1.
     999902    2    1    2    0    0  0.52339433787E-02  0.16084651377E-01 -0.16638826353E-01  0.10202032068E+01  0.10199272633E+01 0.  0.
     999903    2    3    3    0    0 -0.11222701983E+00  0.50474070320E-01  0.40280341827E-01  0.12991139974E+00  0.10579701759E-01 0.  0.
         14    1    1    2    0    0 -0.52339433787E-02 -0.16084651377E-01  0.16638826353E-01  0.23726793201E-01  0.00000000000E+00 0.  1.
     999901    1    3    3    0    0  0.11746096321E+00 -0.34389418944E-01 -0.56919168180E-01  0.89029180706E+00  0.88000000000E+00 0. -1.
        -11    1    4    4    0    0 -0.60072862656E-01  0.22448943273E-01  0.24320021389E-01  0.68588836141E-01  0.51100000000E-03 0.  1.
         11    1    4    4    0    0 -0.52154157175E-01  0.28025127048E-01  0.15960320438E-01  0.61322563598E-01  0.51100000000E-03 0. -1.
</event>
<event>
 8    1  0.1191842E+005  0.1043930E+01  0.7957747E-01            NaN
         13   -1    0    0    0    0  0.00000000000E+00  0.00000000000E+00  0.74505805969E-08  0.10566000000E+00  0.10566000000E+00 0. -1.
     999900   -1    0    0    0    0 -0.00000000000E+00 -0.00000000000E+00 -0.74505805969E-08  0.93827000000E+00  0.93827000000E+00 0. -1.
     999902    2    1    2    0    0  0.82010093905E-02  0.20346793500E-01  0.10834236070E-01  0.10194630993E+01  0.10191694567E+01 0.  0.
     999903    2    3    3    0    0  0.62969330614E-01 -0.98046671586E-01 -0.48864140013E-01  0.12784632188E+00  0.19459995711E-01 0.  0.
         14    1    1    2    0    0 -0.82010093905E-02 -0.20346793500E-01 -0.10834236070E-01  0.24466900743E-01  0.00000000000E+00 0.  1.
     999901    1    3    3    0    0 -0.54768321224E-01  0.11839346509E+00  0.59698376084E-01  0.89161677737E+00  0.88000000000E+00 0. -1.
        -11    1    4    4    0    0  0.61895300798E-02 -0.11353485979E-01  0.72089457334E-03  0.12961201197E-01  0.51100000000E-03 0.  1.
         11    1    4    4    0    0  0.56779800534E-01 -0.86693185607E-01 -0.49585034586E-01  0.11488512069E+00  0.51100000000E-03 0. -1.
</event>
<event>
 8    1  0.1191842E+005  0.1043930E+01  0.7957747E-01            NaN
         13   -1    0    0    0    0  0.00000000000E+00  0.00000000000E+00  0.74505805969E-08  0.10566000000E+00  0.10566000000E+00 0.  1.
     999900   -1    0    0    0    0 -0.00000000000E+00 -0.00000000000E+00 -0.74505805969E-08  0.93827000000E+00  0.93827000000E+00 0. -1.
     999902    2    1    2    0    0  0.13965469140E-01 -0.15562505822E-01 -0.11075208266E-01  0.10202680864E+01  0.10199936676E+01 0.  0.
     999903    2    3    3    0    0  0.10933488775E+00  0.58185203600E-01 -0.39417756087E-01  0.13159640877E+00  0.20596594591E-01 0.  0.
         14    1    1    2    0    0 -0.13965469140E-01  0.15562505822E-01  0.11075208266E-01  0.23661913572E-01  0.00000000000E+00 0.  1.
     999901    1    3    3    0    0 -0.95369418612E-01 -0.73747709422E-01  0.28342547821E-01  0.88867167766E+00  0.88000000000E+00 0.  1.
        -11    1    4    4    0    0  0.46886967688E-01  0.35883069849E-01 -0.22247644705E-01  0.63096761063E-01  0.51100000000E-03 0. -1.
         11    1    4    4    0    0  0.62447920065E-01  0.22302133751E-01 -0.17170111382E-01  0.68499647708E-01  0.51100000000E-03 0.  1.
</event>
<event>
 8    1  0.1191842E+005  0.1043930E+01  0.7957747E-01            NaN
         13   -1    0    0    0    0  0.00000000000E+00  0.00000000000E+00  0.74505805969E-08  0.10566000000E+00  0.10566000000E+00 0.  1.
     999900   -1    0    0    0    0 -0.00000000000E+00 -0.00000000000E+00 -0.74505805969E-08  0.93827000000E+00  0.93827000000E+00 0.  1.
     999902    2    1    2    0    0  0.10030418895E-01 -0.16707148332E-01  0.13187771162E-01  0.10204001165E+01  0.10201287871E+01 0.  0.
     999903    2    3    3    0    0  0.10204662612E+00 -0.27198953327E-01 -0.75054072955E-01  0.13115117307E+00  0.20352379868E-01 0.  0.
         14    1    1    2    0    0 -0.10030418895E-01  0.16707148332E-01 -0.13187771162E-01  0.23529883485E-01  0.00000000000E+00 0. -1.
     999901    1    3    3    0    0 -0.92016207224E-01  0.10491804996E-01  0.88241844117E-01  0.88924894344E+00  0.88000000000E+00 0. -1.
        -11    1    4    4    0    0  0.43257083399E-01 -0.11686444132E-01 -0.44301117413E-01  0.63012684165E-01  0.51100000000E-03 0.  1.
         11    1    4    4    0    0  0.58789542721E-01 -0.15512509195E-01 -0.30752955542E-01  0.68138488906E-01  0.51100000000E-03 0. -1.
</event>
<event>
 8    1  0.1191842E+005  0.1043930E+01  0.7957747E-01            NaN
         13   -1    0    0    0    0  0.00000000000E+00  0.00000000000E+00  0.74505805969E-08  0.10566000000E+00  0.10566000000E+00 0. -1.
     999900   -1    0    0    0    0 -0.00000000000E+00 -0.00000000000E+00 -0.74505805969E-08  0.93827000000E+00  0.93827000000E+00 0. -1.
     999902    2    1    2    0    0  0.43141530356E-02 -0.16730791738E-01 -0.16238576435E-01  0.10202187648E+01  0.10199431874E+01 0.  0.
     999903    2    3    3    0    0 -0.66518259180E-01  0.80894754789E-01  0.70256198925E-01  0.12778987460E+00  0.20631975335E-01 0.  0.
         14    1    1    2    0    0 -0.43141530356E-02  0.16730791738E-01  0.16238576435E-01  0.23711235169E-01  0.00000000000E+00 0. -1.
     999901    1    3    3    0    0  0.70832412215E-01 -0.97625546527E-01 -0.86494775360E-01  0.89242889023E+00  0.88000000000E+00 0. -1.
        -11    1    4    4    0    0 -0.40835497774E-01  0.45458869743E-01  0.52478225623E-01  0.80549810691E-01  0.51100000000E-03 0.  1.
         11    1    4    4    0    0 -0.25682761405E-01  0.35435885046E-01  0.17777973302E-01  0.47240063909E-01  0.51100000000E-03 0. -1.
</event>
<event>
 8    1  0.1191842E+005  0.1043930E+01  0.7957747E-01            NaN
         13   -1    0    0    0    0  0.00000000000E+00  0.00000000000E+00  0.74505805969E-08  0.10566000000E+00  0.10566000000E+00 0. -1.
     999900   -1    0    0    0    0 -0.00000000000E+00 -0.00000000000E+00 -0.74505805969E-08  0.93827000000E+00  0.93827000000E+00 0.  1.
     999902    2    1    2    0    0  0.11389135914E-03 -0.18264641126E-01 -0.14233093163E-01  0.10207742010E+01  0.10205115278E+01 0.  0.
     999903    2    3    3    0    0 -0.11325214530E+00 -0.64179943445E-01  0.70087174311E-02  0.13206092452E+00  0.21115210404E-01 0.  0.
         14    1    1    2    0    0 -0.11389135914E-03  0.18264641126E-01  0.14233093163E-01  0.23155799008E-01  0.00000000000E+00 0.  1.
     999901    1    3    3    0    0  0.11336603666E+00  0.45915302319E-01 -0.21241810594E-01  0.88871327647E+00  0.88000000000E+00 0. -1.
        -11    1    4    4    0    0 -0.55740913172E-01 -0.42934208100E-01  0.10225614080E-03  0.70360977848E-01  0.51100000000E-03 0. -1.
         11    1    4    4    0    0 -0.57511232127E-01 -0.21245735345E-01  0.69064612903E-02  0.61699946675E-01  0.51100000000E-03 0.  1.
</event>
<event>
 8    1  0.1191842E+005  0.1043930E+01  0.7957747E-01            NaN
         13   -1    0    0    0    0  0.00000000000E+00  0.00000000000E+00  0.74505805969E-08  0.10566000000E+00  0.10566000000E+00 0.  1.
     999900   -1    0    0    0    0 -0.00000000000E+00 -0.00000000000E+00 -0.74505805969E-08  0.93827000000E+00  0.93827000000E+00 0. -1.
     999902    2    1    2    0    0 -0.11967177381E-01  0.17474780392E-02 -0.19941987789E-01  0.10206072666E+01  0.10203407484E+01 0.  0.
     999903    2    3    3    0    0  0.10198822358E+00 -0.53714117788E-01 -0.57853826171E-01  0.13072012240E+00  0.21304483047E-01 0.  0.
         14    1    1    2    0    0  0.11967177381E-01 -0.17474780392E-02  0.19941987789E-01  0.23322733350E-01  0.00000000000E+00 0.  1.
     999901    1    3    3    0    0 -0.11395540096E+00  0.55461595827E-01  0.37911838382E-01  0.88988714425E+00  0.88000000000E+00 0.  1.
        -11    1    4    4    0    0  0.78849467757E-01 -0.41765211864E-01 -0.54246380458E-01  0.10442462545E+00  0.51100000000E-03 0.  1.
         11    1    4    4    0    0  0.23138755822E-01 -0.11948905923E-01 -0.36074457127E-02  0.26295496940E-01  0.51100000000E-03 0. -1.
</event>
<event>
 8    1  0.1191842E+005  0.1043930E+01  0.7957747E-01            NaN
         13   -1    0    0    0    0  0.00000000000E+00  0.00000000000E+00  0.74505805969E-08  0.10566000000E+00  0.10566000000E+00 0. -1.
     999900   -1    0    0    0    0 -0.00000000000E+00 -0.00000000000E+00 -0.74505805969E-08  0.93827000000E+00  0.93827000000E+00 0.  1.
     999902    2    1    2    0    0 -0.10393852244E-01 -0.10588300430E-02  0.75642037267E-02  0.10310315325E+01  0.10309508478E+01 0.  0.
     999903    2    3    3    0    0  0.84632092656E-01 -0.78941517182E-01 -0.73379820471E-01  0.13881654821E+00  0.22160364662E-01 0.  0.
         14    1    1    2    0    0  0.10393852244E-01  0.10588300430E-02 -0.75642037267E-02  0.12898467489E-01  0.00000000000E+00 0.  1.
     999901    1    3    3    0    0 -0.95025944901E-01  0.77882687139E-01  0.80944024198E-01  0.89221498430E+00  0.88000000000E+00 0. -1.
        -11    1    4    4    0    0  0.30045080724E-01 -0.14775303314E-01 -0.23549093352E-01  0.40936992836E-01  0.51100000000E-03 0. -1.
         11    1    4    4    0    0  0.54587011932E-01 -0.64166213868E-01 -0.49830727119E-01  0.97879555373E-01  0.51100000000E-03 0.  1.
</event>
<event>
 7    1  0.1191842E+005  0.1043930E+01  0.7957747E-01            NaN
         13   -1    0    0    0    0  0.00000000000E+00  0.00000000000E+00  0.74505805969E-08  0.10566000000E+00  0.10566000000E+00 0.  1.
     999900   -1    0    0    0    0 -0.00000000000E+00 -0.00000000000E+00 -0.74505805969E-08  0.93827000000E+00  0.93827000000E+00 0.  1.
     999902    2    1    2    0    0 -0.11727505897E-01 -0.15056117384E-01 -0.16801119427E-01  0.10185036617E+01  0.10181862355E+01 0.  0.
         14    1    1    2    0    0  0.11727505897E-01  0.15056117384E-01  0.16801119427E-01  0.25426338298E-01  0.00000000000E+00 0. -1.
     999901    1    3    3    0    0 -0.13846590225E-01 -0.48650108178E-01 -0.12897331703E+00  0.89083818822E+00  0.88000000000E+00 0.  1.
        -11    1    3    3    0    0 -0.15849405877E-01  0.20533127835E-01  0.97847641636E-01  0.10122862787E+00  0.51100000000E-03 0. -1.
         11    1    3    3    0    0  0.17968490205E-01  0.13060862960E-01  0.14324555963E-01  0.26436845614E-01  0.51100000000E-03 0.  1.
</event>
<event>
 8    1  0.1191842E+005  0.1043930E+01  0.7957747E-01            NaN
         13   -1    0    0    0    0  0.00000000000E+00  0.00000000000E+00  0.74505805969E-08  0.10566000000E+00  0.10566000000E+00 0. -1.
     999900   -1    0    0    0    0 -0.00000000000E+00 -0.00000000000E+00 -0.74505805969E-08  0.93827000000E+00  0.93827000000E+00 0. -1.
     999902    2    1    2    0    0  0.21677661080E-01 -0.21161221007E-02 -0.98525193021E-02  0.10200245383E+01  0.10197443737E+01 0.  0.
     999903    2    3    3    0    0 -0.11181588632E+00 -0.54789415513E-01 -0.24557332729E-01  0.12827836669E+00  0.18644148805E-01 0.  0.
         14    1    1    2    0    0 -0.21677661080E-01  0.21161221007E-02  0.98525193021E-02  0.23905461703E-01  0.00000000000E+00 0. -1.
     999901    1    3    3    0    0  0.13349354740E+00  0.52673293413E-01  0.14704813427E-01  0.89174617161E+00  0.88000000000E+00 0. -1.
        -11    1    4    4    0    0 -0.61707358806E-01 -0.32034082146E-01 -0.44015134306E-02  0.69667890676E-01  0.51100000000E-03 0. -1.
         11    1    4    4    0    0 -0.50108527512E-01 -0.22755333367E-01 -0.20155819299E-01  0.58610476015E-01  0.51100000000E-03 0.  1.
</event>
<event>
 8    1  0.1191842E+005  0.1043930E+01  0.7957747E-01            NaN
         13   -1    0    0    0    0  0.00000000000E+00  0.00000000000E+00  0.74505805969E-08  0.10566000000E+00  0.10566000000E+00 0. -1.
     999900   -1    0    0    0    0 -0.00000000000E+00 -0.00000000000E+00 -0.74505805969E-08  0.93827000000E+00  0.93827000000E+00 0. -1.
     999902    2    1    2    0    0  0.14047138028E-01  0.17665512307E-01 -0.50936070171E-02  0.10207926440E+01  0.10205303938E+01 0.  0.
     999903    2    3    3    0    0 -0.12612066063E+00  0.21595249050E-01  0.51423027864E-02  0.12963203641E+00  0.20130716969E-01 0.  0.
         14    1    1    2    0    0 -0.14047138028E-01 -0.17665512307E-01  0.50936070171E-02  0.23137356035E-01  0.00000000000E+00 0. -1.
     999901    1    3    3    0    0  0.14016779866E+00 -0.39297367428E-02 -0.10235909803E-01  0.89116060756E+00  0.88000000000E+00 0.  1.
        -11    1    4    4    0    0 -0.48410800475E-01  0.10936715087E-01  0.11458939814E-01  0.50939039667E-01  0.51100000000E-03 0. -1.
         11    1    4    4    0    0 -0.77709860156E-01  0.10658533963E-01 -0.63166370271E-02  0.78692996741E-01  0.51100000000E-03 0.  1.
</event>
<event>
 8    1  0.1191842E+005  0.1043930E+01  0.7957747E-01            NaN
         13   -1    0    0    0    0  0.00000000000E+00  0.00000000000E+00  0.74505805969E-08  0.10566000000E+00  0.10566000000E+00 0.  1.
     999900   -1    0    0    0    0 -0.00000000000E+00 -0.00000000000E+00 -0.74505805969E-08  0.93827000000E+00  0.93827000000E+00 0.  1.
     999902    2    1    2    0    0  0.16433073782E-01 -0.78734327558E-02 -0.15521034850E-01  0.10199938478E+01  0.10197129548E+01 0.  0.
     999903    2    3    3    0    0 -0.11665173626E-01  0.54164698747E-01  0.11366111019E+00  0.12795894501E+00  0.19615115929E-01 0.  0.
         14    1    1    2    0    0 -0.16433073782E-01  0.78734327558E-02  0.15521034850E-01  0.23936152157E-01  0.00000000000E+00 0.  1.
     999901    1    3    3    0    0  0.28098247408E-01 -0.62038131503E-01 -0.12918214504E+00  0.89203490283E+00  0.88000000000E+00 0.  1.
        -11    1    4    4    0    0  0.19805091046E-02  0.72209229762E-02  0.56356417425E-02  0.93853995009E-02  0.51100000000E-03 0. -1.
         11    1    4    4    0    0 -0.13645682731E-01  0.46943775771E-01  0.10802546845E+00  0.11857354551E+00  0.51100000000E-03 0.  1.
</event>
<event>
 8    1  0.1191842E+005  0.1043930E+01  0.7957747E-01            NaN
         13   -1    0    0    0    0  0.00000000000E+00  0.00000000000E+00  0.74505805969E-08  0.10566000000E+00  0.10566000000E+00 0.  1.
     999900   -1    0    0    0    0 -0.00000000000E+00 -0.00000000000E+00 -0.74505805969E-08  0.93827000000E+00  0.93827000000E+00 0. -1.
     999902    2    1    2    0    0  0.17351194496E-01 -0.12017766755E-01  0.11698500836E-01  0.10197981623E+01  0.10195126023E+01 0.  0.
     999903    2    3    3    0    0  0.45303282329E-01 -0.12236656519E+00  0.11403652459E-01  0.13246605793E+00  0.19780029033E-01 0.  0.
         14    1    1    2    0    0 -0.17351194496E-01  0.12017766755E-01 -0.11698500836E-01  0.24131837685E-01  0.00000000000E+00 0.  1.
     999901    1    3    3    0    0 -0.27952087833E-01  0.11034879844E+00  0.29484837722E-03  0.88733210438E+00  0.88000000000E+00 0. -1.
        -11    1    4    4    0    0  0.12594109886E-01 -0.22526456021E-01  0.91252202434E-02  0.27378524251E-01  0.51100000000E-03 0.  1.
         11    1    4    4    0    0  0.32709172443E-01 -0.99840109171E-01  0.22784322159E-02  0.10508753368E+00  0.51100000000E-03 0. -1.
</event>
<event>
 8    1  0.1191842E+005  0.1043930E+01  0.7957747E-01            NaN
         13   -1    0    0    0    0  0.00000000000E+00  0.00000000000E+00  0.74505805969E-08  0.10566000000E+00  0.10566000000E+00 0.  1.
     999900   -1    0    0    0    0 -0.00000000000E+00 -0.00000000000E+00 -0.74505805969E-08  0.93827000000E+00  0.93827000000E+00 0.  1.
     999902    2    1    2    0    0  0.13664339974E-01 -0.22653444131E-01 -0.97296178774E-02  0.10157420916E+01  0.10153508942E+01 0.  0.
     999903    2    3    3    0    0 -0.97780626582E-01 -0.41188074526E-01  0.63727304017E-01  0.12548402085E+00  0.20677567410E-01 0.  0.
         14    1    1    2    0    0 -0.13664339974E-01  0.22653444131E-01  0.97296178774E-02  0.28187908436E-01  0.00000000000E+00 0.  1.
     999901    1    3    3    0    0  0.11144496656E+00  0.18534630395E-01 -0.73456921894E-01  0.89025807071E+00  0.88000000000E+00 0.  1.
        -11    1    4    4    0    0 -0.42148897444E-02 -0.39642856179E-02 -0.82987831216E-03  0.58677657614E-02  0.51100000000E-03 0.  1.
         11    1    4    4    0    0 -0.93565736837E-01 -0.37223788908E-01  0.64557182329E-01  0.11961625509E+00  0.51100000000E-03 0. -1.
</event>
<event>
 8    1  0.1286365E+005  0.1043930E+01  0.7957747E-01            NaN
         13   -1    0    0    0    0  0.00000000000E+00  0.00000000000E+00  0.74505805969E-08  0.10566000000E+00  0.10566000000E+00 0.  1.
     999900   -1    0    0    0    0 -0.00000000000E+00 -0.00000000000E+00 -0.74505805969E-08  0.93827000000E+00  0.93827000000E+00 0. -1.
     999902    2    1    2    0    0 -0.44813227754E-03  0.15630687912E-01 -0.17321787640E-01  0.10205941145E+01  0.10203272921E+01 0.  0.
     999903    2    3    3    0    0  0.10456905661E-01 -0.98966883151E-01  0.78135295929E-01  0.12797797190E+00  0.19220977735E-01 0.  0.
         14    1    1    2    0    0  0.44813227754E-03 -0.15630687912E-01  0.17321787640E-01  0.23335885545E-01  0.00000000000E+00 0.  1.
     999901    1    3    3    0    0 -0.10905037939E-01  0.11459757106E+00 -0.95457083568E-01  0.89261614255E+00  0.88000000000E+00 0. -1.
        -11    1    4    4    0    0  0.50463294498E-02 -0.23175447208E-01  0.29094269293E-01  0.37540703521E-01  0.51100000000E-03 0. -1.
         11    1    4    4    0    0  0.54105762113E-02 -0.75791435943E-01  0.49041026636E-01  0.90437268379E-01  0.51100000000E-03 0.  1.
</event>
<event>
 8    1  0.1191842E+005  0.1043930E+01  0.7957747E-01            NaN
         13   -1    0    0    0    0  0.00000000000E+00  0.00000000000E+00  0.74505805969E-08  0.10566000000E+00  0.10566000000E+00 0.  1.
     999900   -1    0    0    0    0 -0.00000000000E+00 -0.00000000000E+00 -0.74505805969E-08  0.93827000000E+00  0.93827000000E+00 0. -1.
     999902    2    1    2    0    0 -0.38118708227E-02 -0.15038975125E-01 -0.16760400720E-01  0.10210911698E+01  0.10208357189E+01 0.  0.
     999903    2    3    3    0    0 -0.64000746218E-01  0.42023647034E-01  0.10207331493E+00  0.12923899846E+00  0.20534718812E-01 0.  0.
         14    1    1    2    0    0  0.38118708227E-02  0.15038975125E-01  0.16760400720E-01  0.22838830186E-01  0.00000000000E+00 0.  1.
     999901    1    3    3    0    0  0.60188875395E-01 -0.57062622158E-01 -0.11883371565E+00  0.89185217135E+00  0.88000000000E+00 0. -1.
        -11    1    4    4    0    0 -0.29042579524E-01  0.30114809697E-01  0.46978523371E-01  0.62909585658E-01  0.51100000000E-03 0. -1.
         11    1    4    4    0    0 -0.34958166694E-01  0.11908837337E-01  0.55094791558E-01  0.66329412805E-01  0.51100000000E-03 0.  1.
</event>
<event>
 8    1  0.1191842E+005  0.1043930E+01  0.7957747E-01            NaN
         13   -1    0    0    0    0  0.00000000000E+00  0.00000000000E+00  0.74505805969E-08  0.10566000000E+00  0.10566000000E+00 0. -1.
     999900   -1    0    0    0    0 -0.00000000000E+00 -0.00000000000E+00 -0.74505805969E-08  0.93827000000E+00  0.93827000000E+00 0.  1.
     999902    2    1    2    0    0  0.21266889970E-02  0.19707529153E-01  0.13428226774E-01  0.10199878450E+01  0.10197068094E+01 0.  0.
     999903    2    3    3    0    0  0.58086201095E-01  0.11616201495E+00  0.18761174002E-01  0.13293464753E+00  0.21260724138E-01 0.  0.
         14    1    1    2    0    0 -0.21266889970E-02 -0.19707529153E-01 -0.13428226774E-01  0.23942154993E-01  0.00000000000E+00 0.  1.
     999901    1    3    3    0    0 -0.55959512098E-01 -0.96454485793E-01 -0.53329472282E-02  0.88705319747E+00  0.88000000000E+00 0. -1.
        -11    1    4    4    0    0  0.46630564425E-01  0.90950065468E-01  0.23396645398E-01  0.10485222022E+00  0.51100000000E-03 0. -1.
         11    1    4    4    0    0  0.11455636670E-01  0.25211949477E-01 -0.46354713958E-02  0.28082427317E-01  0.51100000000E-03 0.  1.
</event>
<event>
 8    1  0.1191842E+005  0.1043930E+01  0.7957747E-01            NaN
         13   -1    0    0    0    0  0.00000000000E+00  0.00000000000E+00  0.74505805969E-08  0.10566000000E+00  0.10566000000E+00 0.  1.
     999900   -1    0    0    0    0 -0.00000000000E+00 -0.00000000000E+00 -0.74505805969E-08  0.93827000000E+00  0.93827000000E+00 0.  1.
     999902    2    1    2    0    0 -0.22520525713E-01 -0.96663376783E-02 -0.56848695149E-02  0.10187719018E+01  0.10184612207E+01 0.  0.
     999903    2    3    3    0    0 -0.34877213283E-01 -0.11538690011E+00  0.46627515369E-01  0.13081575952E+00  0.20201015469E-01 0.  0.
         14    1    1    2    0    0  0.22520525713E-01  0.96663376783E-02  0.56848695149E-02  0.25158098177E-01  0.00000000000E+00 0. -1.
     999901    1    3    3    0    0  0.12356687570E-01  0.10572056243E+00 -0.52312384883E-01  0.88795614231E+00  0.88000000000E+00 0. -1.
        -11    1    4    4    0    0 -0.27975223386E-01 -0.96370065991E-01  0.30332703525E-01  0.10483385315E+00  0.51100000000E-03 0.  1.
         11    1    4    4    0    0 -0.69019898967E-02 -0.19016834114E-01  0.16294811844E-01  0.25981906364E-01  0.51100000000E-03 0. -1.
</event>
<event>
 8    1  0.1191842E+005  0.1043930E+01  0.7957747E-01            NaN
         13   -1    0    0    0    0  0.00000000000E+00  0.00000000000E+00  0.74505805969E-08  0.10566000000E+00  0.10566000000E+00 0.  1.
     999900   -1    0    0    0    0 -0.00000000000E+00 -0.00000000000E+00 -0.74505805969E-08  0.93827000000E+00  0.93827000000E+00 0. -1.
     999902    2    1    2    0    0  0.13984581198E-01  0.13180159007E-01  0.13531325220E-01  0.10204271945E+01  0.10201564966E+01 0.  0.
     999903    2    3    3    0    0  0.30954485456E-01  0.85257935475E-01  0.95851545018E-01  0.13348875129E+00  0.20115474320E-01 0.  0.
         14    1    1    2    0    0 -0.13984581198E-01 -0.13180159007E-01 -0.13531325220E-01  0.23502805470E-01  0.00000000000E+00 0. -1.
     999901    1    3    3    0    0 -0.16969904258E-01 -0.72077776468E-01 -0.82320219798E-01  0.88693844324E+00  0.88000000000E+00 0. -1.
        -11    1    4    4    0    0  0.29059211791E-01  0.51966696659E-01  0.60241095226E-01  0.84700802987E-01  0.51100000000E-03 0. -1.
         11    1    4    4    0    0  0.18952736645E-02  0.33291238816E-01  0.35610449793E-01  0.48787948303E-01  0.51100000000E-03 0.  1.
</event>
<event>
 8    1  0.1191842E+005  0.1043930E+01  0.7957747E-01            NaN
         13   -1    0    0    0    0  0.00000000000E+00  0.00000000000E+00  0.74505805969E-08  0.10566000000E+00  0.10566000000E+00 0. -1.
     999900   -1    0    0    0    0 -0.00000000000E+00 -0.00000000000E+00 -0.74505805969E-08  0.93827000000E+00  0.93827000000E+00 0. -1.
     999902    2    1    2    0    0 -0.55088150902E-03 -0.12531229019E-01 -0.18976768388E-01  0.10211824087E+01  0.10209290176E+01 0.  0.
     999903    2    3    3    0    0  0.15139586894E-01 -0.71340193302E-01 -0.11109691326E+00  0.13428286188E+00  0.19254417331E-01 0.  0.
         14    1    1    2    0    0  0.55088150902E-03  0.12531229019E-01  0.18976768388E-01  0.22747591293E-01  0.00000000000E+00 0. -1.
     999901    1    3    3    0    0 -0.15690468403E-01  0.58808964282E-01  0.92120144869E-01  0.88689954683E+00  0.88000000000E+00 0. -1.
        -11    1    4    4    0    0  0.16342075028E-01 -0.44465666401E-01 -0.81612753513E-01  0.94367163577E-01  0.51100000000E-03 0. -1.
         11    1    4    4    0    0 -0.12024881340E-02 -0.26874526901E-01 -0.29484159744E-01  0.39915698299E-01  0.51100000000E-03 0.  1.
</event>
<event>
 8    1  0.1191842E+005  0.1043930E+01  0.7957747E-01            NaN
         13   -1    0    0    0    0  0.00000000000E+00  0.00000000000E+00  0.74505805969E-08  0.10566000000E+00  0.10566000000E+00 0. -1.
     999900   -1    0    0    0    0 -0.00000000000E+00 -0.00000000000E+00 -0.74505805969E-08  0.93827000000E+00  0.93827000000E+00 0.  1.
     999902    2    1    2    0    0  0.10769209872E-01 -0.43866071317E-02 -0.21046393062E-01  0.10198848578E+01  0.10196013703E+01 0.  0.
     999903    2    3    3    0    0  0.40084677254E-01 -0.12323628372E+00 -0.26924955220E-02  0.13122209396E+00  0.20445670309E-01 0.  0.
         14    1    1    2    0    0 -0.10769209872E-01  0.43866071317E-02  0.21046393062E-01  0.24045142219E-01  0.00000000000E+00 0. -1.
     999901    1    3    3    0    0 -0.29315467382E-01  0.11884967659E+00 -0.18353897540E-01  0.88866276382E+00  0.88000000000E+00 0. -1.
        -11    1    4    4    0    0  0.13432351610E-01 -0.29326534305E-01  0.73495820858E-02  0.33087024072E-01  0.51100000000E-03 0. -1.
         11    1    4    4    0    0  0.26652325644E-01 -0.93909749415E-01 -0.10042077608E-01  0.98135069884E-01  0.51100000000E-03 0.  1.
</event>
<event>
 8    1  0.1191842E+005  0.1043930E+01  0.7957747E-01            NaN
         13   -1    0    0    0    0  0.00000000000E+00  0.00000000000E+00  0.74505805969E-08  0.10566000000E+00  0.10566000000E+00 0.  1.
     999900   -1    0    0    0    0 -0.00000000000E+00 -0.00000000000E+00 -0.74505805969E-08  0.93827000000E+00  0.93827000000E+00 0.  1.
     999902    2    1    2    0    0  0.57888119988E-02  0.22043430144E-01 -0.11252062597E-01  0.10185128391E+01  0.10181956449E+01 0.  0.
     999903    2    3    3    0    0  0.28134796264E-01 -0.43974511664E-01  0.11387242201E+00  0.12693342685E+00  0.20490044426E-01 0.  0.
         14    1    1    2    0    0 -0.57888119988E-02 -0.22043430144E-01  0.11252062597E-01  0.25417160926E-01  0.00000000000E+00 0. -1.
     999901    1    3    3    0    0 -0.22345984265E-01  0.66017941808E-01 -0.12512448461E+00  0.89157941222E+00  0.88000000000E+00 0.  1.
        -11    1    4    4    0    0  0.16348839439E-01 -0.12386669101E-01  0.59667521898E-01  0.63096659285E-01  0.51100000000E-03 0.  1.
         11    1    4    4    0    0  0.11785956825E-01 -0.31587842563E-01  0.54204900111E-01  0.63836767565E-01  0.51100000000E-03 0. -1.
</event>
<event>
 8    1  0.1191842E+005  0.1043930E+01  0.7957747E-01            NaN
         13   -1    0    0    0    0  0.00000000000E+00  0.00000000000E+00  0.74505805969E-08  0.10566000000E+00  0.10566000000E+00 0. -1.
     999900   -1    0    0    0    0 -0.00000000000E+00 -0.00000000000E+00 -0.74505805969E-08  0.93827000000E+00  0.93827000000E+00 0.  1.
     999902    2    1    2    0    0 -0.73453729903E-02  0.18191893943E-01  0.13152440067E-01  0.10203103855E+01  0.10200369584E+01 0.  0.
     999903    2    3    3    0    0 -0.10517196446E+00  0.18060746839E-01 -0.72730498745E-01  0.13073411649E+00  0.20355615476E-01 0.  0.
         14    1    1    2    0    0  0.73453729903E-02 -0.18191893943E-01 -0.13152440067E-01  0.23619614504E-01  0.00000000000E+00 0.  1.
     999901    1    3    3    0    0  0.97826591473E-01  0.13114710464E-03  0.85882938812E-01  0.88957626901E+00  0.88000000000E+00 0. -1.
        -11    1    4    4    0    0 -0.17152016263E-01  0.97289108561E-02 -0.18305212180E-01  0.26910690854E-01  0.51100000000E-03 0. -1.
         11    1    4    4    0    0 -0.88019948200E-01  0.83318359826E-02 -0.54425286565E-01  0.10382342564E+00  0.51100000000E-03 0.  1.
</event>
<event>
 8    1  0.1191842E+005  0.1043930E+01  0.7957747E-01            NaN
         13   -1    0    0    0    0  0.00000000000E+00  0.00000000000E+00  0.74505805969E-08  0.10566000000E+00  0.10566000000E+00 0.  1.
     999900   -1    0    0    0    0 -0.00000000000E+00 -0.00000000000E+00 -0.74505805969E-08  0.93827000000E+00  0.93827000000E+00 0. -1.
     999902    2    1    2    0    0  0.68093262519E-02 -0.23135556405E-02  0.22689677416E-01  0.10201278798E+01  0.10198501607E+01 0.  0.
     999903    2    3    3    0    0  0.10495180878E+00 -0.22728058441E-01 -0.69352961263E-01  0.12966701817E+00  0.21731441685E-01 0.  0.
         14    1    1    2    0    0 -0.68093262519E-02  0.23135556405E-02 -0.22689677416E-01  0.23802120178E-01  0.00000000000E+00 0. -1.
     999901    1    3    3    0    0 -0.98142482530E-01  0.20414502801E-01  0.92042638679E-01  0.89046086165E+00  0.88000000000E+00 0.  1.
        -11    1    4    4    0    0  0.61115271414E-01 -0.50265290394E-02 -0.47572804517E-01  0.77612983738E-01  0.51100000000E-03 0.  1.
         11    1    4    4    0    0  0.43836537368E-01 -0.17701529402E-01 -0.21780156746E-01  0.52054034430E-01  0.51100000000E-03 0. -1.
</event>
<event>
 8    1  0.1191842E+005  0.1043930E+01  0.7957747E-01            NaN
         13   -1    0    0    0    0  0.00000000000E+00  0.00000000000E+00  0.74505805969E-08  0.10566000000E+00  0.10566000000E+00 0. -1.
     999900   -1    0    0    0    0 -0.00000000000E+00 -0.00000000000E+00 -0.74505805969E-08  0.93827000000E+00  0.93827000000E+00 0. -1.
     999902    2    1    2    0    0  0.14919146042E-01 -0.12114791638E-01 -0.13162787615E-01  0.10206360507E+01  0.10203701975E+01 0.  0.
     999903    2    3    3    0    0 -0.11762269238E+00 -0.14973856437E-01  0.46368802379E-01  0.12871703905E+00  0.18939275782E-01 0.  0.
         14    1    1    2    0    0 -0.14919146042E-01  0.12114791638E-01  0.13162787615E-01  0.23293949276E-01  0.00000000000E+00 0. -1.
     999901    1    3    3    0    0  0.13254183842E+00  0.28590647990E-02 -0.59531589994E-01  0.89191901168E+00  0.88000000000E+00 0.  1.
        -11    1    4    4    0    0 -0.85269320483E-01 -0.90924779230E-02  0.24368833438E-01  0.89149488695E-01  0.51100000000E-03 0. -1.
         11    1    4    4    0    0 -0.32353371899E-01 -0.58813785141E-02  0.21999968941E-01  0.39567550352E-01  0.51100000000E-03 0.  1.
</event>
<event>
 8    1  0.1191842E+005  0.1043930E+01  0.7957747E-01            NaN
         13   -1    0    0    0    0  0.00000000000E+00  0.00000000000E+00  0.74505805969E-08  0.10566000000E+00  0.10566000000E+00 0.  1.
     999900   -1    0    0    0    0 -0.00000000000E+00 -0.00000000000E+00 -0.74505805969E-08  0.93827000000E+00  0.93827000000E+00 0. -1.
     999902    2    1    2    0    0  0.59418593599E-02  0.23940857120E-01  0.22665858084E-02  0.10191588930E+01  0.10188578121E+01 0.  0.
     999903    2    3    3    0    0 -0.47640725173E-01  0.90162159277E-01  0.80695107993E-01  0.13157374927E+00  0.20027415770E-01 0.  0.
         14    1    1    2    0    0 -0.59418593599E-02 -0.23940857120E-01 -0.22665858084E-02  0.24771107030E-01  0.00000000000E+00 0.  1.
     999901    1    3    3    0    0  0.53582584533E-01 -0.66221302158E-01 -0.78428522184E-01  0.88758514370E+00  0.88000000000E+00 0.  1.
        -11    1    4    4    0    0 -0.28397786696E-01  0.33215430639E-01  0.36937054108E-01  0.57221553710E-01  0.51100000000E-03 0. -1.
         11    1    4    4    0    0 -0.19242938476E-01  0.56946728638E-01  0.43758053885E-01  0.74352195560E-01  0.51100000000E-03 0.  1.
</event>
<event>
 8    1  0.1191842E+005  0.1043930E+01  0.7957747E-01            NaN
         13   -1    0    0    0    0  0.00000000000E+00  0.00000000000E+00  0.74505805969E-08  0.10566000000E+00  0.10566000000E+00 0. -1.
     999900   -1    0    0    0    0 -0.00000000000E+00 -0.00000000000E+00 -0.74505805969E-08  0.93827000000E+00  0.93827000000E+00 0. -1.
     999902    2    1    2    0    0 -0.94002519140E-02 -0.20531139587E-01 -0.52813016397E-02  0.10207398173E+01  0.10204763544E+01 0.  0.
     999903    2    3    3    0    0  0.37217390535E-01 -0.83557174890E-01 -0.94138608841E-01  0.13279775453E+00  0.20155155659E-01 0.  0.
         14    1    1    2    0    0  0.94002519140E-02  0.20531139587E-01  0.52813016397E-02  0.23190182746E-01  0.00000000000E+00 0. -1.
     999901    1    3    3    0    0 -0.46617642449E-01  0.63026035303E-01  0.88857307201E-01  0.88794206273E+00  0.88000000000E+00 0.  1.
        -11    1    4    4    0    0  0.19317257208E-01 -0.47030946412E-01 -0.38034733735E-01  0.63497782936E-01  0.51100000000E-03 0.  1.
         11    1    4    4    0    0  0.17900133327E-01 -0.36526228478E-01 -0.56103875106E-01  0.69299971593E-01  0.51100000000E-03 0. -1.
</event>
<event>
 8    1  0.1191842E+005  0.1043930E+01  0.7957747E-01            NaN
         13   -1    0    0    0    0  0.00000000000E+00  0.00000000000E+00  0.74505805969E-08  0.10566000000E+00  0.10566000000E+00 0. -1.
     999900   -1    0    0    0    0 -0.00000000000E+00 -0.00000000000E+00 -0.74505805969E-08  0.93827000000E+00  0.93827000000E+00 0.  1.
     999902    2    1    2    0    0 -0.41807317432E-02 -0.16774681473E-02  0.23203791574E-01  0.10202929875E+01  0.10200191527E+01 0.  0.
     999903    2    3    3    0    0 -0.57197873470E-01 -0.81714111034E-01 -0.79716165100E-01  0.12910883199E+00  0.19121476093E-01 0.  0.
         14    1    1    2    0    0  0.41807317432E-02  0.16774681473E-02 -0.23203791574E-01  0.23637012516E-01  0.00000000000E+00 0.  1.
     999901    1    3    3    0    0  0.53017141727E-01  0.80036642887E-01  0.10291995667E+00  0.89118415549E+00  0.88000000000E+00 0.  1.
        -11    1    4    4    0    0 -0.21243523379E-01 -0.46075480073E-01 -0.35919325055E-01  0.62166680649E-01  0.51100000000E-03 0. -1.
         11    1    4    4    0    0 -0.35954350090E-01 -0.35638630961E-01 -0.43796840045E-01  0.66942151341E-01  0.51100000000E-03 0.  1.
</event>
<event>
 8    1  0.1191842E+005  0.1043930E+01  0.7957747E-01            NaN
         13   -1    0    0    0    0  0.00000000000E+00  0.00000000000E+00  0.74505805969E-08  0.10566000000E+00  0.10566000000E+00 0. -1.
     999900   -1    0    0    0    0 -0.00000000000E+00 -0.00000000000E+00 -0.74505805969E-08  0.93827000000E+00  0.93827000000E+00 0. -1.
     999902    2    1    2    0    0 -0.17559895335E-01  0.13088509121E-01  0.10877996694E-01  0.10194761699E+01  0.10191828448E+01 0.  0.
     999903    2    3    3    0    0  0.90172043025E-01  0.87642486576E-01 -0.21932290200E-01  0.12917229984E+00  0.19805425904E-01 0.  0.
         14    1    1    2    0    0  0.17559895335E-01 -0.13088509121E-01 -0.10877996694E-01  0.24453830115E-01  0.00000000000E+00 0.  1.
     999901    1    3    3    0    0 -0.10773193836E+00 -0.74553977455E-01  0.32810286895E-01  0.89030387005E+00  0.88000000000E+00 0. -1.
        -11    1    4    4    0    0  0.84840231859E-02  0.20380000856E-02  0.42861288308E-03  0.87508241767E-02  0.51100000000E-03 0. -1.
         11    1    4    4    0    0  0.81688019839E-01  0.85604486490E-01 -0.22360903083E-01  0.12042147566E+00  0.51100000000E-03 0.  1.
</event>
<event>
 8    1  0.1257632E+005  0.1043930E+01  0.7957747E-01            NaN
         13   -1    0    0    0    0  0.00000000000E+00  0.00000000000E+00  0.74505805969E-08  0.10566000000E+00  0.10566000000E+00 0.  1.
     999900   -1    0    0    0    0 -0.00000000000E+00 -0.00000000000E+00 -0.74505805969E-08  0.93827000000E+00  0.93827000000E+00 0. -1.
     999902    2    1    2    0    0 -0.11891182752E-01  0.12754306745E-01 -0.16493531036E-01  0.10199277265E+01  0.10196452609E+01 0.  0.
     999903    2    3    3    0    0 -0.12438026341E+00  0.36412289647E-01  0.14209219536E-01  0.13192088399E+00  0.20122448917E-01 0.  0.
         14    1    1    2    0    0  0.11891182752E-01 -0.12754306745E-01  0.16493531036E-01  0.24002273514E-01  0.00000000000E+00 0.  1.
     999901    1    3    3    0    0  0.11248908066E+00 -0.23657982902E-01 -0.30702750572E-01  0.88800684249E+00  0.88000000000E+00 0. -1.
        -11    1    4    4    0    0 -0.78583868614E-01  0.31929354538E-01  0.13537870364E-01  0.85897864599E-01  0.51100000000E-03 0. -1.
         11    1    4    4    0    0 -0.45796394796E-01  0.44829351093E-02  0.67134917188E-03  0.46023019395E-01  0.51100000000E-03 0.  1.
</event>
<event>
 8    1  0.1191842E+005  0.1043930E+01  0.7957747E-01            NaN
         13   -1    0    0    0    0  0.00000000000E+00  0.00000000000E+00  0.74505805969E-08  0.10566000000E+00  0.10566000000E+00 0.  1.
     999900   -1    0    0    0    0 -0.00000000000E+00 -0.00000000000E+00 -0.74505805969E-08  0.93827000000E+00  0.93827000000E+00 0. -1.
     999902    2    1    2    0    0  0.67848884994E-03 -0.22831923286E-01  0.47611461201E-02  0.10205970709E+01  0.10203303169E+01 0.  0.
     999903    2    3    3    0    0  0.80862648890E-01  0.77191166042E-01  0.62303200680E-01  0.12944881950E+00  0.19443866792E-01 0.  0.
         14    1    1    2    0    0 -0.67848884994E-03  0.22831923286E-01 -0.47611461201E-02  0.23332929101E-01  0.00000000000E+00 0. -1.
     999901    1    3    3    0    0 -0.80184160040E-01 -0.10002308933E+00 -0.57542054559E-01  0.89114825139E+00  0.88000000000E+00 0. -1.
        -11    1    4    4    0    0  0.34315618676E-01  0.30918181384E-01  0.36696099144E-01  0.58994579739E-01  0.51100000000E-03 0. -1.
         11    1    4    4    0    0  0.46547030214E-01  0.46272984658E-01  0.25607101536E-01  0.70454239766E-01  0.51100000000E-03 0.  1.
</event>
<event>
 7    1  0.1191842E+005  0.1043930E+01  0.7957747E-01            NaN
         13   -1    0    0    0    0  0.00000000000E+00  0.00000000000E+00  0.74505805969E-08  0.10566000000E+00  0.10566000000E+00 0.  1.
     999900   -1    0    0    0    0 -0.00000000000E+00 -0.00000000000E+00 -0.74505805969E-08  0.93827000000E+00  0.93827000000E+00 0. -1.
     999903    2    1    2    0    0 -0.53282396535E-01  0.17855287697E-01  0.29025914197E-01  0.66571018596E-01  0.20769490668E-01 0.  0.
         14    1    1    2    0    0 -0.54278968674E-01 -0.23585975969E-01 -0.67734032371E-01  0.89946672223E-01  0.00000000000E+00 0.  1.
     999901    1    1    2    0    0  0.10756136521E+00  0.57306882721E-02  0.38708118174E-01  0.88741230918E+00  0.88000000000E+00 0.  1.
        -11    1    3    3    0    0 -0.30246680466E-01  0.71745419102E-02  0.47732538773E-02  0.31454424242E-01  0.51100000000E-03 0.  1.
         11    1    3    3    0    0 -0.23035716069E-01  0.10680745787E-01  0.24252660320E-01  0.35116594353E-01  0.51100000000E-03 0. -1.
</event>
<event>
 8    1  0.1191842E+005  0.1043930E+01  0.7957747E-01            NaN
         13   -1    0    0    0    0  0.00000000000E+00  0.00000000000E+00  0.74505805969E-08  0.10566000000E+00  0.10566000000E+00 0. -1.
     999900   -1    0    0    0    0 -0.00000000000E+00 -0.00000000000E+00 -0.74505805969E-08  0.93827000000E+00  0.93827000000E+00 0.  1.
     999902    2    1    2    0    0  0.22004535680E-01  0.46353305003E-02  0.10328266457E-01  0.10191841121E+01  0.10188836516E+01 0.  0.
     999903    2    3    3    0    0 -0.27301339108E-01  0.80607824420E-01  0.96764171357E-01  0.13032301229E+00  0.19437031642E-01 0.  0.
         14    1    1    2    0    0 -0.22004535680E-01 -0.46353305003E-02 -0.10328266457E-01  0.24745887888E-01  0.00000000000E+00 0. -1.
     999901    1    3    3    0    0  0.49305874789E-01 -0.75972493920E-01 -0.86435904901E-01  0.88886109982E+00  0.88000000000E+00 0.  1.
        -11    1    4    4    0    0 -0.26761092421E-01  0.50288416114E-01  0.62903945594E-01  0.84866061268E-01  0.51100000000E-03 0. -1.
         11    1    4    4    0    0 -0.54024668779E-03  0.30319408306E-01  0.33860225763E-01  0.45456951022E-01  0.51100000000E-03 0.  1.
</event>
<event>
 8    1  0.1191842E+005  0.1043930E+01  0.7957747E-01            NaN
         13   -1    0    0    0    0  0.00000000000E+00  0.00000000000E+00  0.74505805969E-08  0.10566000000E+00  0.10566000000E+00 0. -1.
     999900   -1    0    0    0    0 -0.00000000000E+00 -0.00000000000E+00 -0.74505805969E-08  0.93827000000E+00  0.93827000000E+00 0.  1.
     999902    2    1    2    0    0 -0.17162510646E-02  0.22826483921E-01 -0.74115885921E-02  0.10198691286E+01  0.10195852657E+01 0.  0.
     999903    2    3    3    0    0  0.49951749422E-01 -0.49019973750E-01 -0.10750728453E+00  0.12978450113E+00  0.19699375895E-01 0.  0.
         14    1    1    2    0    0  0.17162510646E-02 -0.22826483921E-01  0.74115885921E-02  0.24060871376E-01  0.00000000000E+00 0. -1.
     999901    1    3    3    0    0 -0.51668000487E-01  0.71846457671E-01  0.10009569594E+00  0.89008462749E+00  0.88000000000E+00 0. -1.
        -11    1    4    4    0    0  0.25341384370E-01 -0.23555807339E-01 -0.70651272808E-01  0.78669722839E-01  0.51100000000E-03 0. -1.
         11    1    4    4    0    0  0.24610365052E-01 -0.25464166411E-01 -0.36856011720E-01  0.51114778292E-01  0.51100000000E-03 0.  1.
</event>
<event>
 8    1  0.1191842E+005  0.1043930E+01  0.7957747E-01            NaN
         13   -1    0    0    0    0  0.00000000000E+00  0.00000000000E+00  0.74505805969E-08  0.10566000000E+00  0.10566000000E+00 0. -1.
     999900   -1    0    0    0    0 -0.00000000000E+00 -0.00000000000E+00 -0.74505805969E-08  0.93827000000E+00  0.93827000000E+00 0. -1.
     999902    2    1    2    0    0 -0.14787113246E-01  0.70386704232E-02 -0.82706536894E-02  0.10255831934E+01  0.10254190759E+01 0.  0.
     999903    2    3    3    0    0 -0.82311271122E-01  0.10438928170E+00  0.26495271772E-01  0.13696329549E+00  0.19613194466E-01 0.  0.
         14    1    1    2    0    0  0.14787113246E-01 -0.70386704232E-02  0.82706536894E-02  0.18346806587E-01  0.00000000000E+00 0.  1.
     999901    1    3    3    0    0  0.67524157876E-01 -0.97350611278E-01 -0.34765925461E-01  0.88861989792E+00  0.88000000000E+00 0. -1.
        -11    1    4    4    0    0 -0.67046862408E-01  0.84489943223E-01  0.29170233786E-01  0.11173627846E+00  0.51100000000E-03 0. -1.
         11    1    4    4    0    0 -0.15264408714E-01  0.19899338479E-01 -0.26749620147E-02  0.25227017027E-01  0.51100000000E-03 0.  1.
</event>
<event>
 8    1  0.1191842E+005  0.1043930E+01  0.7957747E-01            NaN
         13   -1    0    0    0    0  0.00000000000E+00  0.00000000000E+00  0.74505805969E-08  0.10566000000E+00  0.10566000000E+00 0.  1.
     999900   -1    0    0    0    0 -0.00000000000E+00 -0.00000000000E+00 -0.74505805969E-08  0.93827000000E+00  0.93827000000E+00 0.  1.
     999902    2    1    2    0    0  0.14236551397E-01 -0.74677401473E-02  0.16778163597E-01  0.10206931045E+01  0.10204285670E+01 0.  0.
     999903    2    3    3    0    0 -0.11344237635E+00 -0.49341552565E-01  0.36046524499E-01  0.13028499892E+00  0.19263111254E-01 0.  0.
         14    1    1    2    0    0 -0.14236551397E-01  0.74677401473E-02 -0.16778163597E-01  0.23236895495E-01  0.00000000000E+00 0.  1.
     999901    1    3    3    0    0  0.12767892774E+00  0.41873812417E-01 -0.19268360903E-01  0.89040810558E+00  0.88000000000E+00 0.  1.
        -11    1    4    4    0    0 -0.31641871172E-01 -0.17075636152E-01  0.19151868620E-01  0.40741140803E-01  0.51100000000E-03 0. -1.
         11    1    4    4    0    0 -0.81800505173E-01 -0.32265916412E-01  0.16894655879E-01  0.89543858119E-01  0.51100000000E-03 0.  1.
</event>
<event>
 8    1  0.1191842E+005  0.1043930E+01  0.7957747E-01            NaN
         13   -1    0    0    0    0  0.00000000000E+00  0.00000000000E+00  0.74505805969E-08  0.10566000000E+00  0.10566000000E+00 0. -1.
     999900   -1    0    0    0    0 -0.00000000000E+00 -0.00000000000E+00 -0.74505805969E-08  0.93827000000E+00  0.93827000000E+00 0. -1.
     999902    2    1    2    0    0 -0.19844549120E-01 -0.99533054514E-02 -0.19101788827E-02  0.10216471994E+01  0.10214041692E+01 0.  0.
     999903    2    3    3    0    0 -0.26330641259E-01  0.37903297948E-01  0.12153131987E+00  0.13172016447E+00  0.21222095952E-01 0.  0.
         14    1    1    2    0    0  0.19844549120E-01  0.99533054514E-02  0.19101788827E-02  0.22282800599E-01  0.00000000000E+00 0. -1.
     999901    1    3    3    0    0  0.64860921399E-02 -0.47856603399E-01 -0.12344149875E+00  0.88992703493E+00  0.88000000000E+00 0. -1.
        -11    1    4    4    0    0 -0.69310517051E-02  0.15975495907E-01  0.72906915770E-01  0.74959558665E-01  0.51100000000E-03 0. -1.
         11    1    4    4    0    0 -0.19399589554E-01  0.21927802041E-01  0.48624404095E-01  0.56760605809E-01  0.51100000000E-03 0.  1.
</event>
<event>
 8    1  0.1191842E+005  0.1043930E+01  0.7957747E-01            NaN
         13   -1    0    0    0    0  0.00000000000E+00  0.00000000000E+00  0.74505805969E-08  0.10566000000E+00  0.10566000000E+00 0.  1.
     999900   -1    0    0    0    0 -0.00000000000E+00 -0.00000000000E+00 -0.74505805969E-08  0.93827000000E+00  0.93827000000E+00 0.  1.
     999902    2    1    2    0    0  0.17868388227E-01  0.88234578411E-02  0.99148634221E-02  0.10216715809E+01  0.10214290880E+01 0.  0.
     999903    2    3    3    0    0 -0.12044666384E+00  0.35538532898E-01 -0.26037145060E-01  0.12974260623E+00  0.19616951768E-01 0.  0.
         14    1    1    2    0    0 -0.17868388227E-01 -0.88234578411E-02 -0.99148634221E-02  0.22258419144E-01  0.00000000000E+00 0.  1.
     999901    1    3    3    0    0  0.13831505207E+00 -0.26715075057E-01  0.35952008482E-01  0.89192897463E+00  0.88000000000E+00 0.  1.
        -11    1    4    4    0    0 -0.50035829472E-01  0.11026812876E-01 -0.19776332483E-01  0.54923030512E-01  0.51100000000E-03 0.  1.
         11    1    4    4    0    0 -0.70410834372E-01  0.24511720023E-01 -0.62608125772E-02  0.74819575718E-01  0.51100000000E-03 0. -1.
</event>
<event>
 8    1  0.1191842E+005  0.1043930E+01  0.7957747E-01            NaN
         13   -1    0    0    0    0  0.00000000000E+00  0.00000000000E+00  0.74505805969E-08  0.10566000000E+00  0.10566000000E+00 0.  1.
     999900   -1    0    0    0    0 -0.00000000000E+00 -0.00000000000E+00 -0.74505805969E-08  0.93827000000E+00  0.93827000000E+00 0.  1.
     999902    2    1    2    0    0  0.90103597008E-02  0.20962674309E-01 -0.58421784625E-02  0.10203768400E+01  0.10201049673E+01 0.  0.
     999903    2    3    3    0    0 -0.94661417597E-01  0.55538388953E-01  0.67789152169E-01  0.13056512381E+00  0.20163972169E-01 0.  0.
         14    1    1    2    0    0 -0.90103597008E-02 -0.20962674309E-01  0.58421784625E-02  0.23553159986E-01  0.00000000000E+00 0.  1.
     999901    1    3    3    0    0  0.10367177730E+00 -0.34575714643E-01 -0.73631330631E-01  0.88981171621E+00  0.88000000000E+00 0.  1.
        -11    1    4    4    0    0 -0.56345326222E-01  0.27436522171E-01  0.28240177096E-01  0.68741015845E-01  0.51100000000E-03 0.  1.
         11    1    4    4    0    0 -0.38316091375E-01  0.28101866781E-01  0.39548975073E-01  0.61824107961E-01  0.51100000000E-03 0. -1.
</event>
<event>
 8    1  0.1191842E+005  0.1043930E+01  0.7957747E-01            NaN
         13   -1    0    0    0    0  0.00000000000E+00  0.00000000000E+00  0.74505805969E-08  0.10566000000E+00  0.10566000000E+00 0. -1.
     999900   -1    0    0    0    0 -0.00000000000E+00 -0.00000000000E+00 -0.74505805969E-08  0.93827000000E+00  0.93827000000E+00 0.  1.
     999902    2    1    2    0    0 -0.58036490330E-03  0.15620869648E-01  0.18046279142E-01  0.10200549799E+01  0.10197755368E+01 0.  0.
     999903    2    3    3    0    0  0.12788915855E+00 -0.13610193039E-01  0.13750143202E-02  0.13009048371E+00  0.19513304678E-01 0.  0.
         14    1    1    2    0    0  0.58036490330E-03 -0.15620869648E-01 -0.18046279142E-01  0.23875020059E-01  0.00000000000E+00 0.  1.
     999901    1    3    3    0    0 -0.12846952345E+00  0.29231062686E-01  0.16671264822E-01  0.88996449623E+00  0.88000000000E+00 0.  1.
        -11    1    4    4    0    0  0.45697343284E-01 -0.86531223676E-02 -0.80725366095E-02  0.47207527771E-01  0.51100000000E-03 0.  1.
         11    1    4    4    0    0  0.82191815261E-01 -0.49570706711E-02  0.94475509297E-02  0.82882955939E-01  0.51100000000E-03 0. -1.
</event>
<event>
 8    1  0.1191842E+005  0.1043930E+01  0.7957747E-01            NaN
         13   -1    0    0    0    0  0.00000000000E+00  0.00000000000E+00  0.74505805969E-08  0.10566000000E+00  0.10566000000E+00 0. -1.
     999900   -1    0    0    0    0 -0.00000000000E+00 -0.00000000000E+00 -0.74505805969E-08  0.93827000000E+00  0.93827000000E+00 0. -1.
     999902    2    1    2    0    0 -0.28904953839E-02 -0.17568017923E-02 -0.23935710172E-01  0.10197564703E+01  0.10194699109E+01 0.  0.
     999903    2    3    3    0    0  0.85243695739E-01 -0.54984318779E-01 -0.81760596853E-01  0.13186879626E+00  0.20367161201E-01 0.  0.
         14    1    1    2    0    0  0.28904953839E-02  0.17568017923E-02  0.23935710172E-01  0.24173529687E-01  0.00000000000E+00 0. -1.
     999901    1    3    3    0    0 -0.88134191123E-01  0.53227516987E-01  0.57824886681E-01  0.88788767405E+00  0.88000000000E+00 0. -1.
        -11    1    4    4    0    0  0.41731566455E-01 -0.17775416744E-01 -0.44579251518E-01  0.63600785106E-01  0.51100000000E-03 0. -1.
         11    1    4    4    0    0  0.43512129284E-01 -0.37208902035E-01 -0.37181345335E-01  0.68268011157E-01  0.51100000000E-03 0.  1.
</event>
<event>
 8    1  0.1191842E+005  0.1043930E+01  0.7957747E-01            NaN
         13   -1    0    0    0    0  0.00000000000E+00  0.00000000000E+00  0.74505805969E-08  0.10566000000E+00  0.10566000000E+00 0. -1.
     999900   -1    0    0    0    0 -0.00000000000E+00 -0.00000000000E+00 -0.74505805969E-08  0.93827000000E+00  0.93827000000E+00 0. -1.
     999902    2    1    2    0    0  0.93386677416E-03  0.90712222459E-02 -0.22505556834E-01  0.10196470993E+01  0.10193579095E+01 0.  0.
     999903    2    3    3    0    0  0.86106779456E-01 -0.84323315948E-01  0.39912427797E-01  0.12842716589E+00  0.19383909965E-01 0.  0.
         14    1    1    2    0    0 -0.93386677416E-03 -0.90712222459E-02  0.22505556834E-01  0.24282900745E-01  0.00000000000E+00 0. -1.
     999901    1    3    3    0    0 -0.85172912682E-01  0.93394538193E-01 -0.62417984631E-01  0.89121993336E+00  0.88000000000E+00 0. -1.
        -11    1    4    4    0    0  0.57702222036E-01 -0.62049715705E-01  0.36177818101E-01  0.92134734441E-01  0.51100000000E-03 0. -1.
         11    1    4    4    0    0  0.28404557420E-01 -0.22273600243E-01  0.37346096960E-02  0.36292431450E-01  0.51100000000E-03 0.  1.
</event>
<event>
 7    1  0.1191842E+005  0.1043930E+01  0.7957747E-01            NaN
         13   -1    0    0    0    0  0.00000000000E+00  0.00000000000E+00  0.74505805969E-08  0.10566000000E+00  0.10566000000E+00 0. -1.
     999900   -1    0    0    0    0 -0.00000000000E+00 -0.00000000000E+00 -0.74505805969E-08  0.93827000000E+00  0.93827000000E+00 0.  1.
     999903    2    1    2    0    0 -0.35945896696E-01  0.71723511639E-01  0.64637679293E-01  0.10473468506E+00  0.18840251036E-01 0.  0.
         14    1    1    2    0    0  0.19256502093E-01  0.44964331198E-01  0.87462677892E-03  0.48922069916E-01  0.00000000000E+00 0. -1.
     999901    1    1    2    0    0  0.16689394603E-01 -0.11668784284E+00 -0.65512306072E-01  0.89027324502E+00  0.88000000000E+00 0.  1.
        -11    1    3    3    0    0 -0.23994092472E-01  0.55022079580E-01  0.57110529265E-01  0.82855412550E-01  0.51100000000E-03 0. -1.
         11    1    3    3    0    0 -0.11951804224E-01  0.16701432058E-01  0.75271500281E-02  0.21879272510E-01  0.51100000000E-03 0.  1.
</event>
<event>
 8    1  0.1191842E+005  0.1043930E+01  0.7957747E-01            NaN
         13   -1    0    0    0    0  0.00000000000E+00  0.00000000000E+00  0.74505805969E-08  0.10566000000E+00  0.10566000000E+00 0.  1.
     999900   -1    0    0    0    0 -0.00000000000E+00 -0.00000000000E+00 -0.74505805969E-08  0.93827000000E+00  0.93827000000E+00 0. -1.
     999902    2    1    2    0    0  0.18994177975E-02 -0.98501564738E-02 -0.20901540848E-01  0.10207457860E+01  0.10204824603E+01 0.  0.
     999903    2    3    3    0    0  0.22487692884E-01 -0.10899538885E+00 -0.70588106503E-01  0.13354659245E+00  0.21594454194E-01 0.  0.
         14    1    1    2    0    0 -0.18994177975E-02  0.98501564738E-02  0.20901540848E-01  0.23184214034E-01  0.00000000000E+00 0.  1.
     999901    1    3    3    0    0 -0.20588275087E-01  0.99145232380E-01  0.49686565655E-01  0.88719919352E+00  0.88000000000E+00 0. -1.
        -11    1    4    4    0    0  0.12557088341E-01 -0.20049352599E-01 -0.11574516806E-01  0.26341745720E-01  0.51100000000E-03 0. -1.
         11    1    4    4    0    0  0.99306045431E-02 -0.88946036254E-01 -0.59013589697E-01  0.10720484673E+00  0.51100000000E-03 0.  1.
</event>
<event>
 8    1  0.1191842E+005  0.1043930E+01  0.7957747E-01            NaN
         13   -1    0    0    0    0  0.00000000000E+00  0.00000000000E+00  0.74505805969E-08  0.10566000000E+00  0.10566000000E+00 0. -1.
     999900   -1    0    0    0    0 -0.00000000000E+00 -0.00000000000E+00 -0.74505805969E-08  0.93827000000E+00  0.93827000000E+00 0.  1.
     999902    2    1    2    0    0  0.14302891727E-01 -0.22965024631E-03 -0.18191341526E-01  0.10207880390E+01  0.10205256833E+01 0.  0.
     999903    2    3    3    0    0  0.94015891229E-01  0.41087198708E-01 -0.83458980738E-01  0.13381503548E+00  0.20344939270E-01 0.  0.
         14    1    1    2    0    0 -0.14302891727E-01  0.22965024631E-03  0.18191341526E-01  0.23141960969E-01  0.00000000000E+00 0. -1.
     999901    1    3    3    0    0 -0.79712999502E-01 -0.41316848954E-01  0.65267639212E-01  0.88697300355E+00  0.88000000000E+00 0. -1.
        -11    1    4    4    0    0  0.31149862568E-01  0.44092621528E-02 -0.20276597525E-01  0.37432032525E-01  0.51100000000E-03 0.  1.
         11    1    4    4    0    0  0.62866028661E-01  0.36677936555E-01 -0.63182383213E-01  0.96383002957E-01  0.51100000000E-03 0. -1.
</event>
<event>
 8    1  0.1191842E+005  0.1043930E+01  0.7957747E-01            NaN
         13   -1    0    0    0    0  0.00000000000E+00  0.00000000000E+00  0.74505805969E-08  0.10566000000E+00  0.10566000000E+00 0.  1.
     999900   -1    0    0    0    0 -0.00000000000E+00 -0.00000000000E+00 -0.74505805969E-08  0.93827000000E+00  0.93827000000E+00 0.  1.
     999902    2    1    2    0    0 -0.22147639448E-01 -0.66868148624E-02 -0.21875990542E-02  0.10206917338E+01  0.10204271647E+01 0.  0.
     999903    2    3    3    0    0 -0.20994272867E-01  0.34444947501E-01  0.12294422295E+00  0.13088775258E+00  0.19725818554E-01 0.  0.
         14    1    1    2    0    0  0.22147639448E-01  0.66868148624E-02  0.21875990542E-02  0.23238266195E-01  0.00000000000E+00 0.  1.
     999901    1    3    3    0    0 -0.11533665809E-02 -0.41131762364E-01 -0.12513182200E+00  0.88980398123E+00  0.88000000000E+00 0.  1.
        -11    1    4    4    0    0 -0.11469119237E-01  0.33116988417E-01  0.90739508944E-01  0.97273815707E-01  0.51100000000E-03 0.  1.
         11    1    4    4    0    0 -0.95251536300E-02  0.13279590840E-02  0.32204714003E-01  0.33613936871E-01  0.51100000000E-03 0. -1.
</event>
<event>
 8    1  0.1191842E+005  0.1043930E+01  0.7957747E-01            NaN
         13   -1    0    0    0    0  0.00000000000E+00  0.00000000000E+00  0.74505805969E-08  0.10566000000E+00  0.10566000000E+00 0. -1.
     999900   -1    0    0    0    0 -0.00000000000E+00 -0.00000000000E+00 -0.74505805969E-08  0.93827000000E+00  0.93827000000E+00 0. -1.
     999902    2    1    2    0    0  0.86791821757E-02  0.19969233797E-01  0.11881808745E-01  0.10191252448E+01  0.10188233354E+01 0.  0.
     999903    2    3    3    0    0  0.56914881611E-01  0.19264911425E-01 -0.11246780649E+00  0.12907468130E+00  0.20020621769E-01 0.  0.
         14    1    1    2    0    0 -0.86791821757E-02 -0.19969233797E-01 -0.11881808745E-01  0.24804755204E-01  0.00000000000E+00 0.  1.
     999901    1    3    3    0    0 -0.48235699435E-01  0.70432237198E-03  0.12434961523E+00  0.89005056350E+00  0.88000000000E+00 0.  1.
        -11    1    4    4    0    0  0.29156904525E-01  0.19182578862E-01 -0.71789051848E-01  0.79824967895E-01  0.51100000000E-03 0.  1.
         11    1    4    4    0    0  0.27757977086E-01  0.82332562361E-04 -0.40678754639E-01  0.49249713406E-01  0.51100000000E-03 0. -1.
</event>
<event>
 8    1  0.1191842E+005  0.1043930E+01  0.7957747E-01            NaN
         13   -1    0    0    0    0  0.00000000000E+00  0.00000000000E+00  0.74505805969E-08  0.10566000000E+00  0.10566000000E+00 0. -1.
     999900   -1    0    0    0    0 -0.00000000000E+00 -0.00000000000E+00 -0.74505805969E-08  0.93827000000E+00  0.93827000000E+00 0.  1.
     999902    2    1    2    0    0  0.17300857640E-01 -0.96843780479E-02  0.12025430222E-01  0.10207412565E+01  0.10204778268E+01 0.  0.
     999903    2    3    3    0    0 -0.14001302396E-01  0.12585539486E+00  0.19099106129E-01  0.12978621153E+00  0.21072920153E-01 0.  0.
         14    1    1    2    0    0 -0.17300857640E-01  0.96843780479E-02 -0.12025430222E-01  0.23188743504E-01  0.00000000000E+00 0. -1.
     999901    1    3    3    0    0  0.31302160036E-01 -0.13553977291E+00 -0.70736759074E-02  0.89095504497E+00  0.88000000000E+00 0. -1.
        -11    1    4    4    0    0 -0.53626570769E-02  0.11037561167E+00  0.14411935659E-01  0.11144280485E+00  0.51100000000E-03 0. -1.
         11    1    4    4    0    0 -0.86386453192E-02  0.15479783194E-01  0.46871704702E-02  0.18343406682E-01  0.51100000000E-03 0.  1.
</event>
<event>
 8    1  0.1191842E+005  0.1043930E+01  0.7957747E-01            NaN
         13   -1    0    0    0    0  0.00000000000E+00  0.00000000000E+00  0.74505805969E-08  0.10566000000E+00  0.10566000000E+00 0.  1.
     999900   -1    0    0    0    0 -0.00000000000E+00 -0.00000000000E+00 -0.74505805969E-08  0.93827000000E+00  0.93827000000E+00 0.  1.
     999902    2    1    2    0    0  0.21422462804E-01  0.10121872437E-01  0.37779134822E-02  0.10199373585E+01  0.10196551223E+01 0.  0.
     999903    2    3    3    0    0  0.33223550475E-01  0.32473701638E-02 -0.12445617415E+00  0.13053840099E+00  0.20894619624E-01 0.  0.
         14    1    1    2    0    0 -0.21422462804E-01 -0.10121872437E-01 -0.37779134822E-02  0.23992641466E-01  0.00000000000E+00 0.  1.
     999901    1    3    3    0    0 -0.11801087671E-01  0.68745022731E-02  0.12823408763E+00  0.88939895755E+00  0.88000000000E+00 0. -1.
        -11    1    4    4    0    0  0.17718623721E-02  0.27471489072E-02 -0.44392921515E-01  0.44516052442E-01  0.51100000000E-03 0.  1.
         11    1    4    4    0    0  0.31451688103E-01  0.50022125652E-03 -0.80063252636E-01  0.86022348547E-01  0.51100000000E-03 0. -1.
</event>
<event>
 8    1  0.1191842E+005  0.1043930E+01  0.7957747E-01            NaN
         13   -1    0    0    0    0  0.00000000000E+00  0.00000000000E+00  0.74505805969E-08  0.10566000000E+00  0.10566000000E+00 0. -1.
     999900   -1    0    0    0    0 -0.00000000000E+00 -0.00000000000E+00 -0.74505805969E-08  0.93827000000E+00  0.93827000000E+00 0.  1.
     999902    2    1    2    0    0  0.22145318529E-01 -0.89664815515E-02 -0.45157197185E-02  0.10196152997E+01  0.10193253430E+01 0.  0.
     999903    2    3    3    0    0 -0.28111180052E-01  0.11030081712E+00 -0.56333293841E-01  0.12864085276E+00  0.20457768765E-01 0.  0.
         14    1    1    2    0    0 -0.22145318529E-01  0.89664815515E-02  0.45157197185E-02  0.24314700260E-01  0.00000000000E+00 0. -1.
     999901    1    3    3    0    0  0.50256498581E-01 -0.11926729867E+00  0.51817574122E-01  0.89097444698E+00  0.88000000000E+00 0. -1.
        -11    1    4    4    0    0 -0.16867453799E-01  0.68269472000E-01 -0.23555939542E-01  0.74164514517E-01  0.51100000000E-03 0.  1.
         11    1    4    4    0    0 -0.11243726253E-01  0.42031345119E-01 -0.32777354298E-01  0.54476338243E-01  0.51100000000E-03 0. -1.
</event>
<event>
 8    1  0.1191842E+005  0.1043930E+01  0.7957747E-01            NaN
         13   -1    0    0    0    0  0.00000000000E+00  0.00000000000E+00  0.74505805969E-08  0.10566000000E+00  0.10566000000E+00 0.  1.
     999900   -1    0    0    0    0 -0.00000000000E+00 -0.00000000000E+00 -0.74505805969E-08  0.93827000000E+00  0.93827000000E+00 0. -1.
     999902    2    1    2    0    0  0.11696455446E-01  0.20548249505E-02 -0.21532788738E-01  0.10193395473E+01  0.10190428952E+01 0.  0.
     999903    2    3    3    0    0  0.98970628937E-01  0.79116063753E-01  0.24323068856E-01  0.13048749232E+00  0.19515046416E-01 0.  0.
         14    1    1    2    0    0 -0.11696455446E-01 -0.20548249505E-02  0.21532788738E-01  0.24590452749E-01  0.00000000000E+00 0. -1.
     999901    1    3    3    0    0 -0.87274173491E-01 -0.77061238803E-01 -0.45855857594E-01  0.88885205493E+00  0.88000000000E+00 0.  1.
        -11    1    4    4    0    0  0.52362510058E-01  0.53914094055E-01  0.12399354414E-01  0.76174583086E-01  0.51100000000E-03 0.  1.
         11    1    4    4    0    0  0.46608118879E-01  0.25201969698E-01  0.11923714442E-01  0.54312909231E-01  0.51100000000E-03 0. -1.
</event>
<event>
 8    1  0.1191842E+005  0.1043930E+01  0.7957747E-01            NaN
         13   -1    0    0    0    0  0.00000000000E+00  0.00000000000E+00  0.74505805969E-08  0.10566000000E+00  0.10566000000E+00 0. -1.
     999900   -1    0    0    0    0 -0.00000000000E+00 -0.00000000000E+00 -0.74505805969E-08  0.93827000000E+00  0.93827000000E+00 0. -1.
     999902    2    1    2    0    0  0.13477843606E-01  0.64298800413E-02 -0.18086064500E-01  0.10204757604E+01  0.10202061930E+01 0.  0.
     999903    2    3    3    0    0 -0.11406548039E+00 -0.52980476760E-01  0.17768426778E-01  0.12857754058E+00  0.19965024830E-01 0.  0.
         14    1    1    2    0    0 -0.13477843606E-01 -0.64298800413E-02  0.18086064500E-01  0.23454239589E-01  0.00000000000E+00 0. -1.
     999901    1    3    3    0    0  0.12754332400E+00  0.59410356801E-01 -0.35854491278E-01  0.89189821983E+00  0.88000000000E+00 0. -1.
        -11    1    4    4    0    0 -0.11036607516E+00 -0.48648248151E-01  0.20322531036E-01  0.12231348651E+00  0.51100000000E-03 0. -1.
         11    1    4    4    0    0 -0.36994052366E-02 -0.43322286092E-02 -0.25541042585E-02  0.62640540699E-02  0.51100000000E-03 0.  1.
</event>
<event>
 8    1  0.1191842E+005  0.1043930E+01  0.7957747E-01            NaN
         13   -1    0    0    0    0  0.00000000000E+00  0.00000000000E+00  0.74505805969E-08  0.10566000000E+00  0.10566000000E+00 0.  1.
     999900   -1    0    0    0    0 -0.00000000000E+00 -0.00000000000E+00 -0.74505805969E-08  0.93827000000E+00  0.93827000000E+00 0. -1.
     999902    2    1    2    0    0 -0.27384238734E-02  0.23571792825E-01 -0.21164350080E-02  0.10201054815E+01  0.10198272333E+01 0.  0.
     999903    2    3    3    0    0 -0.52736512181E-01 -0.10303919787E+00  0.51280787863E-01  0.12803966828E+00  0.19136912855E-01 0.  0.
         14    1    1    2    0    0  0.27384238734E-02 -0.23571792825E-01  0.21164350080E-02  0.23824518451E-01  0.00000000000E+00 0. -1.
     999901    1    3    3    0    0  0.49998088308E-01  0.12661099070E+00 -0.53397222871E-01  0.89206581327E+00  0.88000000000E+00 0. -1.
        -11    1    4    4    0    0 -0.22782194236E-01 -0.55359475237E-01  0.17490851943E-01  0.62368989854E-01  0.51100000000E-03 0.  1.
         11    1    4    4    0    0 -0.29954317945E-01 -0.47679722634E-01  0.33789935920E-01  0.65670678422E-01  0.51100000000E-03 0. -1.
</event>
<event>
 8    1  0.1191842E+005  0.1043930E+01  0.7957747E-01            NaN
         13   -1    0    0    0    0  0.00000000000E+00  0.00000000000E+00  0.74505805969E-08  0.10566000000E+00  0.10566000000E+00 0. -1.
     999900   -1    0    0    0    0 -0.00000000000E+00 -0.00000000000E+00 -0.74505805969E-08  0.93827000000E+00  0.93827000000E+00 0. -1.
     999902    2    1    2    0    0 -0.24599498202E-01  0.88262004328E-02 -0.96052293148E-02  0.10160858344E+01  0.10157042509E+01 0.  0.
     999903    2    3    3    0    0  0.85088149539E-01  0.18981728818E-01  0.85853814759E-01  0.12409539507E+00  0.20700008399E-01 0.  0.
         14    1    1    2    0    0  0.24599498202E-01 -0.88262004328E-02  0.96052293148E-02  0.27844165566E-01  0.00000000000E+00 0.  1.
     999901    1    3    3    0    0 -0.10968764774E+00 -0.10155528385E-01 -0.95459044073E-01  0.89199043937E+00  0.88000000000E+00 0. -1.
        -11    1    4    4    0    0  0.38847653877E-01  0.14671512658E-01  0.52381461022E-01  0.66846630994E-01  0.51100000000E-03 0.  1.
         11    1    4    4    0    0  0.46240495662E-01  0.43102161594E-02  0.33472353736E-01  0.57248764075E-01  0.51100000000E-03 0. -1.
</event>
<event>
 8    1  0.1191842E+005  0.1043930E+01  0.7957747E-01            NaN
         13   -1    0    0    0    0  0.00000000000E+00  0.00000000000E+00  0.74505805969E-08  0.10566000000E+00  0.10566000000E+00 0.  1.
     999900   -1    0    0    0    0 -0.00000000000E+00 -0.00000000000E+00 -0.74505805969E-08  0.93827000000E+00  0.93827000000E+00 0. -1.
     999902    2    1    2    0    0 -0.13448887765E-01 -0.10487274165E-01  0.17181633687E-01  0.10197212405E+01  0.10194338351E+01 0.  0.
     999903    2    3    3    0    0 -0.43278861713E-01 -0.59624407794E-01  0.10905910159E+00  0.13307263231E+00  0.19654718391E-01 0.  0.
         14    1    1    2    0    0  0.13448887765E-01  0.10487274165E-01 -0.17181633687E-01  0.24208759524E-01  0.00000000000E+00 0. -1.
     999901    1    3    3    0    0  0.29829973948E-01  0.49137133629E-01 -0.91877467905E-01  0.88664860816E+00  0.88000000000E+00 0. -1.
        -11    1    4    4    0    0  0.48138168163E-03 -0.94839911629E-02  0.10726184197E-01  0.14334921177E-01  0.51100000000E-03 0. -1.
         11    1    4    4    0    0 -0.43760243394E-01 -0.50140416631E-01  0.98332917395E-01  0.11873771114E+00  0.51100000000E-03 0.  1.
</event>
<event>
 8    1  0.1191842E+005  0.1043930E+01  0.7957747E-01            NaN
         13   -1    0    0    0    0  0.00000000000E+00  0.00000000000E+00  0.74505805969E-08  0.10566000000E+00  0.10566000000E+00 0.  1.
     999900   -1    0    0    0    0 -0.00000000000E+00 -0.00000000000E+00 -0.74505805969E-08  0.93827000000E+00  0.93827000000E+00 0.  1.
     999902    2    1    2    0    0  0.22767893300E-01  0.42680612929E-02 -0.63091814943E-02  0.10199216872E+01  0.10196390778E+01 0.  0.
     999903    2    3    3    0    0 -0.52985858266E-02  0.94809457394E-01  0.87416160115E-01  0.12988241204E+00  0.14524038191E-01 0.  0.
         14    1    1    2    0    0 -0.22767893300E-01 -0.42680612929E-02  0.63091814943E-02  0.24008312803E-01  0.00000000000E+00 0.  1.
     999901    1    3    3    0    0  0.28066479127E-01 -0.90541396102E-01 -0.93725341609E-01  0.89003927515E+00  0.88000000000E+00 0.  1.
        -11    1    4    4    0    0  0.48057659177E-02  0.20403193715E-01  0.18657326052E-01  0.28066753219E-01  0.51100000000E-03 0. -1.
         11    1    4    4    0    0 -0.10104351744E-01  0.74406263679E-01  0.68758834063E-01  0.10181565882E+00  0.51100000000E-03 0.  1.
</event>
<event>
 8    1  0.1191842E+005  0.1043930E+01  0.7957747E-01            NaN
         13   -1    0    0    0    0  0.00000000000E+00  0.00000000000E+00  0.74505805969E-08  0.10566000000E+00  0.10566000000E+00 0.  1.
     999900   -1    0    0    0    0 -0.00000000000E+00 -0.00000000000E+00 -0.74505805969E-08  0.93827000000E+00  0.93827000000E+00 0.  1.
     999902    2    1    2    0    0 -0.18699429915E-01 -0.24865625311E-02 -0.16275261424E-01  0.10190154298E+01  0.10187108080E+01 0.  0.
     999903    2    3    3    0    0  0.36459454283E-01 -0.12179206852E+00  0.80196436132E-02  0.12892186807E+00  0.19847761148E-01 0.  0.
         14    1    1    2    0    0  0.18699429915E-01  0.24865625311E-02  0.16275261424E-01  0.24914570171E-01  0.00000000000E+00 0.  1.
     999901    1    3    3    0    0 -0.55158884198E-01  0.11930550599E+00 -0.24294905037E-01  0.89009356175E+00  0.88000000000E+00 0.  1.
        -11    1    4    4    0    0  0.27498789753E-01 -0.11176620034E+00  0.55012152560E-02  0.11523190299E+00  0.51100000000E-03 0.  1.
         11    1    4    4    0    0  0.89606645301E-02 -0.10025868181E-01  0.25184283572E-02  0.13689965084E-01  0.51100000000E-03 0. -1.
</event>
<event>
 8    1  0.1191842E+005  0.1043930E+01  0.7957747E-01            NaN
         13   -1    0    0    0    0  0.00000000000E+00  0.00000000000E+00  0.74505805969E-08  0.10566000000E+00  0.10566000000E+00 0. -1.
     999900   -1    0    0    0    0 -0.00000000000E+00 -0.00000000000E+00 -0.74505805969E-08  0.93827000000E+00  0.93827000000E+00 0.  1.
     999902    2    1    2    0    0 -0.49303169487E-02  0.14184523119E-01 -0.17595417046E-01  0.10207976110E+01  0.10205354747E+01 0.  0.
     999903    2    3    3    0    0 -0.11908136337E+00  0.32092348552E-01  0.40105547288E-01  0.13137051845E+00  0.20963498213E-01 0.  0.
         14    1    1    2    0    0  0.49303169487E-02 -0.14184523119E-01  0.17595417046E-01  0.23132389032E-01  0.00000000000E+00 0. -1.
     999901    1    3    3    0    0  0.11415104642E+00 -0.17907825432E-01 -0.57700964334E-01  0.88942709251E+00  0.88000000000E+00 0.  1.
        -11    1    4    4    0    0 -0.62083553836E-01  0.16222656629E-01  0.98700929926E-02  0.64924741830E-01  0.51100000000E-03 0.  1.
         11    1    4    4    0    0 -0.56997809537E-01  0.15869691922E-01  0.30235454295E-01  0.66445776624E-01  0.51100000000E-03 0. -1.
</event>
<event>
 8    1  0.1191842E+005  0.1043930E+01  0.7957747E-01            NaN
         13   -1    0    0    0    0  0.00000000000E+00  0.00000000000E+00  0.74505805969E-08  0.10566000000E+00  0.10566000000E+00 0.  1.
     999900   -1    0    0    0    0 -0.00000000000E+00 -0.00000000000E+00 -0.74505805969E-08  0.93827000000E+00  0.93827000000E+00 0.  1.
     999902    2    1    2    0    0  0.34590620657E-02  0.25508155796E-01 -0.28329939512E-02  0.10180329543E+01  0.10177035123E+01 0.  0.
     999903    2    3    3    0    0  0.27749149417E-01 -0.62193514503E-01 -0.10472744527E+00  0.12749150632E+00  0.25459729995E-01 0.  0.
         14    1    1    2    0    0 -0.34590620657E-02 -0.25508155796E-01  0.28329939512E-02  0.25897045723E-01  0.00000000000E+00 0. -1.
     999901    1    3    3    0    0 -0.24290087351E-01  0.87701670299E-01  0.10189445132E+00  0.89054144796E+00  0.88000000000E+00 0. -1.
        -11    1    4    4    0    0  0.79438515010E-02 -0.33927333858E-01 -0.71689528343E-01  0.79710842139E-01  0.51100000000E-03 0. -1.
         11    1    4    4    0    0  0.19805297916E-01 -0.28266180645E-01 -0.33037916928E-01  0.47780664183E-01  0.51100000000E-03 0.  1.
</event>
<event>
 8    1  0.1191842E+005  0.1043930E+01  0.7957747E-01            NaN
         13   -1    0    0    0    0  0.00000000000E+00  0.00000000000E+00  0.74505805969E-08  0.10566000000E+00  0.10566000000E+00 0.  1.
     999900   -1    0    0    0    0 -0.00000000000E+00 -0.00000000000E+00 -0.74505805969E-08  0.93827000000E+00  0.93827000000E+00 0. -1.
     999902    2    1    2    0    0 -0.30733722351E-02 -0.23061380865E-01 -0.68086758195E-03  0.10206547667E+01  0.10203893455E+01 0.  0.
     999903    2    3    3    0    0 -0.12693710865E-01 -0.10951406893E+00 -0.72640503543E-01  0.13344295017E+00  0.19388568930E-01 0.  0.
         14    1    1    2    0    0  0.30733722351E-02  0.23061380865E-01  0.68086758195E-03  0.23275233295E-01  0.00000000000E+00 0. -1.
     999901    1    3    3    0    0  0.96203386301E-02  0.86452688070E-01  0.71959635961E-01  0.88721181653E+00  0.88000000000E+00 0.  1.
        -11    1    4    4    0    0  0.24059491030E-02 -0.48907153566E-01 -0.38268674409E-01  0.62148618834E-01  0.51100000000E-03 0. -1.
         11    1    4    4    0    0 -0.15099659968E-01 -0.60606915369E-01 -0.34371829133E-01  0.71294331336E-01  0.51100000000E-03 0.  1.
</event>
<event>
 8    1  0.1191842E+005  0.1043930E+01  0.7957747E-01            NaN
         13   -1    0    0    0    0  0.00000000000E+00  0.00000000000E+00  0.74505805969E-08  0.10566000000E+00  0.10566000000E+00 0. -1.
     999900   -1    0    0    0    0 -0.00000000000E+00 -0.00000000000E+00 -0.74505805969E-08  0.93827000000E+00  0.93827000000E+00 0. -1.
     999902    2    1    2    0    0 -0.14481895712E-01  0.15443485460E-01  0.10937223969E-01  0.10201004088E+01  0.10198220407E+01 0.  0.
     999903    2    3    3    0    0 -0.47842252638E-01 -0.85954416395E-01  0.83238306576E-01  0.13070629234E+00  0.21874102071E-01 0.  0.
         14    1    1    2    0    0  0.14481895712E-01 -0.15443485460E-01 -0.10937223969E-01  0.23829591158E-01  0.00000000000E+00 0.  1.
     999901    1    3    3    0    0  0.33360356926E-01  0.10139790186E+00 -0.72301082607E-01  0.88939411650E+00  0.88000000000E+00 0. -1.
        -11    1    4    4    0    0 -0.29240858820E-01 -0.67200594720E-01  0.69166706746E-01  0.10077322163E+00  0.51100000000E-03 0. -1.
         11    1    4    4    0    0 -0.18601393819E-01 -0.18753821675E-01  0.14071599830E-01  0.29933070711E-01  0.51100000000E-03 0.  1.
</event>
<event>
 8    1  0.1191842E+005  0.1043930E+01  0.7957747E-01            NaN
         13   -1    0    0    0    0  0.00000000000E+00  0.00000000000E+00  0.74505805969E-08  0.10566000000E+00  0.10566000000E+00 0.  1.
     999900   -1    0    0    0    0 -0.00000000000E+00 -0.00000000000E+00 -0.74505805969E-08  0.93827000000E+00  0.93827000000E+00 0.  1.
     999902    2    1    2    0    0 -0.73921719979E-02 -0.20620464606E-02 -0.22629663618E-01  0.10200344373E+01  0.10197545074E+01 0.  0.
     999903    2    3    3    0    0 -0.99761658715E-01 -0.16589427848E-01 -0.84154607612E-01  0.13294454013E+00  0.19095944647E-01 0.  0.
         14    1    1    2    0    0  0.73921719979E-02  0.20620464606E-02  0.22629663618E-01  0.23895562724E-01  0.00000000000E+00 0.  1.
     999901    1    3    3    0    0  0.92369486717E-01  0.14527381387E-01  0.61524943994E-01  0.88708989715E+00  0.88000000000E+00 0. -1.
        -11    1    4    4    0    0 -0.23254535455E-01  0.40492300319E-02 -0.21334447170E-01  0.31821210538E-01  0.51100000000E-03 0. -1.
         11    1    4    4    0    0 -0.76507123260E-01 -0.20638657879E-01 -0.62820160442E-01  0.10112332959E+00  0.51100000000E-03 0.  1.
</event>
<event>
 8    1  0.1191842E+005  0.1043930E+01  0.7957747E-01            NaN
         13   -1    0    0    0    0  0.00000000000E+00  0.00000000000E+00  0.74505805969E-08  0.10566000000E+00  0.10566000000E+00 0.  1.
     999900   -1    0    0    0    0 -0.00000000000E+00 -0.00000000000E+00 -0.74505805969E-08  0.93827000000E+00  0.93827000000E+00 0.  1.
     999902    2    1    2    0    0  0.19391181669E-01  0.11347273348E-01  0.59121175833E-02  0.10206978741E+01  0.10204334464E+01 0.  0.
     999903    2    3    3    0    0  0.21579702105E-01 -0.10979766056E+00 -0.62107569290E-01  0.12979520691E+00  0.21638756080E-01 0.  0.
         14    1    1    2    0    0 -0.19391181669E-01 -0.11347273348E-01 -0.59121175833E-02  0.23232125888E-01  0.00000000000E+00 0. -1.
     999901    1    3    3    0    0 -0.21885204360E-02  0.12114493391E+00  0.68019686873E-01  0.89090266721E+00  0.88000000000E+00 0. -1.
        -11    1    4    4    0    0  0.11223385720E-01 -0.47226673609E-01 -0.15063064381E-01  0.50827946218E-01  0.51100000000E-03 0.  1.
         11    1    4    4    0    0  0.10356316385E-01 -0.62570986953E-01 -0.47044504909E-01  0.78967260687E-01  0.51100000000E-03 0. -1.
</event>
<event>
 8    1  0.1191842E+005  0.1043930E+01  0.7957747E-01            NaN
         13   -1    0    0    0    0  0.00000000000E+00  0.00000000000E+00  0.74505805969E-08  0.10566000000E+00  0.10566000000E+00 0.  1.
     999900   -1    0    0    0    0 -0.00000000000E+00 -0.00000000000E+00 -0.74505805969E-08  0.93827000000E+00  0.93827000000E+00 0. -1.
     999902    2    1    2    0    0  0.17787020820E-01  0.11675265126E-01  0.79962165062E-02  0.10212005169E+01  0.10209475335E+01 0.  0.
     999903    2    3    3    0    0 -0.78950846472E-01 -0.80129201252E-01  0.61070035244E-01  0.12957105052E+00  0.20129154860E-01 0.  0.
         14    1    1    2    0    0 -0.17787020820E-01 -0.11675265126E-01 -0.79962165062E-02  0.22729483140E-01  0.00000000000E+00 0. -1.
     999901    1    3    3    0    0  0.96737867292E-01  0.91804466378E-01 -0.53073818738E-01  0.89162946634E+00  0.88000000000E+00 0.  1.
        -11    1    4    4    0    0 -0.45195608857E-01 -0.55422940467E-01  0.30453520457E-01  0.77730453615E-01  0.51100000000E-03 0.  1.
         11    1    4    4    0    0 -0.33755237615E-01 -0.24706260785E-01  0.30616514787E-01  0.51840596902E-01  0.51100000000E-03 0. -1.
</event>
<event>
 8    1  0.1191842E+005  0.1043930E+01  0.7957747E-01            NaN
         13   -1    0    0    0    0  0.00000000000E+00  0.00000000000E+00  0.74505805969E-08  0.10566000000E+00  0.10566000000E+00 0.  1.
     999900   -1    0    0    0    0 -0.00000000000E+00 -0.00000000000E+00 -0.74505805969E-08  0.93827000000E+00  0.93827000000E+00 0. -1.
     999902    2    1    2    0    0  0.16559503072E-01  0.14822693189E-01 -0.84179375854E-02  0.10201646671E+01  0.10198878159E+01 0.  0.
     999903    2    3    3    0    0 -0.69897833674E-01 -0.17633485749E-01  0.10418171470E+00  0.12819664281E+00  0.19593432020E-01 0.  0.
         14    1    1    2    0    0 -0.16559503072E-01 -0.14822693189E-01  0.84179375854E-02  0.23765332915E-01  0.00000000000E+00 0.  1.
     999901    1    3    3    0    0  0.86457336746E-01  0.32456178937E-01 -0.11259965229E+00  0.89196802427E+00  0.88000000000E+00 0. -1.
        -11    1    4    4    0    0 -0.40483119274E-01 -0.18511762083E-02  0.66269932097E-01  0.77680594878E-01  0.51100000000E-03 0. -1.
         11    1    4    4    0    0 -0.29414714400E-01 -0.15782309540E-01  0.37911782605E-01  0.50516047935E-01  0.51100000000E-03 0.  1.
</event>
<event>
 8    1  0.1191842E+005  0.1043930E+01  0.7957747E-01            NaN
         13   -1    0    0    0    0  0.00000000000E+00  0.00000000000E+00  0.74505805969E-08  0.10566000000E+00  0.10566000000E+00 0. -1.
     999900   -1    0    0    0    0 -0.00000000000E+00 -0.00000000000E+00 -0.74505805969E-08  0.93827000000E+00  0.93827000000E+00 0. -1.
     999902    2    1    2    0    0  0.13589262521E-01 -0.16913693479E-02 -0.24465374941E-01  0.10158928219E+01  0.10155058553E+01 0.  0.
     999903    2    3    3    0    0  0.31315883120E-01  0.45661990585E-01 -0.11552709695E+00  0.12975016350E+00  0.20564359418E-01 0.  0.
         14    1    1    2    0    0 -0.13589262521E-01  0.16913693479E-02  0.24465374941E-01  0.28037178123E-01  0.00000000000E+00 0. -1.
     999901    1    3    3    0    0 -0.17726620600E-01 -0.47353359932E-01  0.91061722014E-01  0.88614265837E+00  0.88000000000E+00 0.  1.
        -11    1    4    4    0    0  0.25346572344E-01  0.20476771236E-01 -0.73322501777E-01  0.80238377836E-01  0.51100000000E-03 0.  1.
         11    1    4    4    0    0  0.59693107763E-02  0.25185219348E-01 -0.42204595178E-01  0.49511785666E-01  0.51100000000E-03 0. -1.
</event>
<event>
 8    1  0.1191842E+005  0.1043930E+01  0.7957747E-01            NaN
         13   -1    0    0    0    0  0.00000000000E+00  0.00000000000E+00  0.74505805969E-08  0.10566000000E+00  0.10566000000E+00 0.  1.
     999900   -1    0    0    0    0 -0.00000000000E+00 -0.00000000000E+00 -0.74505805969E-08  0.93827000000E+00  0.93827000000E+00 0.  1.
     999902    2    1    2    0    0  0.21576353772E-01  0.11678468050E-01  0.64142304869E-02  0.10185712143E+01  0.10182554938E+01 0.  0.
     999903    2    3    3    0    0 -0.85737194667E-02  0.66439959665E-01  0.10995767700E+00  0.13029811826E+00  0.19978287868E-01 0.  0.
         14    1    1    2    0    0 -0.21576353772E-01 -0.11678468050E-01 -0.64142304869E-02  0.25358785673E-01  0.00000000000E+00 0.  1.
     999901    1    3    3    0    0  0.30150073238E-01 -0.54761491615E-01 -0.10354344651E+00  0.88827309607E+00  0.88000000000E+00 0.  1.
        -11    1    4    4    0    0 -0.51789346521E-02  0.52463443061E-01  0.68670444530E-01  0.86574391681E-01  0.51100000000E-03 0. -1.
         11    1    4    4    0    0 -0.33947848146E-02  0.13976516603E-01  0.41287232466E-01  0.43723726580E-01  0.51100000000E-03 0.  1.
</event>
<event>
 8    1  0.1191842E+005  0.1043930E+01  0.7957747E-01            NaN
         13   -1    0    0    0    0  0.00000000000E+00  0.00000000000E+00  0.74505805969E-08  0.10566000000E+00  0.10566000000E+00 0. -1.
     999900   -1    0    0    0    0 -0.00000000000E+00 -0.00000000000E+00 -0.74505805969E-08  0.93827000000E+00  0.93827000000E+00 0.  1.
     999902    2    1    2    0    0  0.16970830934E-01 -0.41479221172E-02 -0.14779997861E-01  0.10210463225E+01  0.10207898559E+01 0.  0.
     999903    2    3    3    0    0 -0.98872249876E-01  0.79911538544E-01  0.11374659118E-01  0.12909919490E+00  0.19381523832E-01 0.  0.
         14    1    1    2    0    0 -0.16970830934E-01  0.41479221172E-02  0.14779997861E-01  0.22883677529E-01  0.00000000000E+00 0. -1.
     999901    1    3    3    0    0  0.11584308081E+00 -0.84059460661E-01 -0.26154656979E-01  0.89194712757E+00  0.88000000000E+00 0. -1.
        -11    1    4    4    0    0 -0.57825292111E-01  0.42365412809E-01  0.15404580633E-01  0.73322266984E-01  0.51100000000E-03 0. -1.
         11    1    4    4    0    0 -0.41046957765E-01  0.37546125735E-01 -0.40299215146E-02  0.55776927917E-01  0.51100000000E-03 0.  1.
</event>
<event>
 8    1  0.1191842E+005  0.1043930E+01  0.7957747E-01            NaN
         13   -1    0    0    0    0  0.00000000000E+00  0.00000000000E+00  0.74505805969E-08  0.10566000000E+00  0.10566000000E+00 0. -1.
     999900   -1    0    0    0    0 -0.00000000000E+00 -0.00000000000E+00 -0.74505805969E-08  0.93827000000E+00  0.93827000000E+00 0. -1.
     999902    2    1    2    0    0 -0.95631597555E-02  0.18542606923E-01  0.11332694001E-01  0.10201873748E+01  0.10199110586E+01 0.  0.
     999903    2    3    3    0    0 -0.10773057689E+00 -0.56370925777E-01 -0.41664685900E-01  0.12998649783E+00  0.19416104053E-01 0.  0.
         14    1    1    2    0    0  0.95631597555E-02 -0.18542606923E-01 -0.11332694001E-01  0.23742625156E-01  0.00000000000E+00 0.  1.
     999901    1    3    3    0    0  0.98167417131E-01  0.74913532700E-01  0.52997379901E-01  0.89020087702E+00  0.88000000000E+00 0. -1.
        -11    1    4    4    0    0 -0.25309051326E-01 -0.19273422558E-01 -0.17991454825E-01  0.36550875008E-01  0.51100000000E-03 0. -1.
         11    1    4    4    0    0 -0.82421525560E-01 -0.37097503219E-01 -0.23673231075E-01  0.93435622818E-01  0.51100000000E-03 0.  1.
</event>
<event>
 8    1  0.1191842E+005  0.1043930E+01  0.7957747E-01            NaN
         13   -1    0    0    0    0  0.00000000000E+00  0.00000000000E+00  0.74505805969E-08  0.10566000000E+00  0.10566000000E+00 0. -1.
     999900   -1    0    0    0    0 -0.00000000000E+00 -0.00000000000E+00 -0.74505805969E-08  0.93827000000E+00  0.93827000000E+00 0. -1.
     999902    2    1    2    0    0 -0.66893341588E-02  0.18508076636E-01 -0.12573442391E-01  0.10205764661E+01  0.10203092353E+01 0.  0.
     999903    2    3    3    0    0  0.12092144803E+00  0.43424410053E-01 -0.18912987732E-01  0.13100042930E+00  0.17196958770E-01 0.  0.
         14    1    1    2    0    0  0.66893341588E-02 -0.18508076636E-01  0.12573442391E-01  0.23353533905E-01  0.00000000000E+00 0.  1.
     999901    1    3    3    0    0 -0.12761078219E+00 -0.24916333417E-01  0.63395453409E-02  0.88957603679E+00  0.88000000000E+00 0. -1.
        -11    1    4    4    0    0  0.71488367209E-01  0.26046799785E-01 -0.26490962965E-02  0.76133443751E-01  0.51100000000E-03 0.  1.
         11    1    4    4    0    0  0.49433080819E-01  0.17377610268E-01 -0.16263891436E-01  0.54866985552E-01  0.51100000000E-03 0. -1.
</event>
<event>
 8    1  0.1191842E+005  0.1043930E+01  0.7957747E-01            NaN
         13   -1    0    0    0    0  0.00000000000E+00  0.00000000000E+00  0.74505805969E-08  0.10566000000E+00  0.10566000000E+00 0.  1.
     999900   -1    0    0    0    0 -0.00000000000E+00 -0.00000000000E+00 -0.74505805969E-08  0.93827000000E+00  0.93827000000E+00 0. -1.
     999902    2    1    2    0    0  0.17789193907E-01 -0.15726149552E-01 -0.19800015522E-02  0.10201038042E+01  0.10198255163E+01 0.  0.
     999903    2    3    3    0    0 -0.45231265351E-01  0.35236833831E-02  0.11911410873E+00  0.12937044462E+00  0.22141755401E-01 0.  0.
         14    1    1    2    0    0 -0.17789193907E-01  0.15726149552E-01  0.19800015522E-02  0.23826195788E-01  0.00000000000E+00 0. -1.
     999901    1    3    3    0    0  0.63020459258E-01 -0.19249832935E-01 -0.12109411028E+00  0.89073335960E+00  0.88000000000E+00 0. -1.
        -11    1    4    4    0    0 -0.18877034825E-01  0.12470103392E-01  0.55099256623E-01  0.59565385282E-01  0.51100000000E-03 0. -1.
         11    1    4    4    0    0 -0.26354230527E-01 -0.89464200090E-02  0.64014852105E-01  0.69805059334E-01  0.51100000000E-03 0.  1.
</event>
<event>
 8    1  0.1191842E+005  0.1043930E+01  0.7957747E-01            NaN
         13   -1    0    0    0    0  0.00000000000E+00  0.00000000000E+00  0.74505805969E-08  0.10566000000E+00  0.10566000000E+00 0. -1.
     999900   -1    0    0    0    0 -0.00000000000E+00 -0.00000000000E+00 -0.74505805969E-08  0.93827000000E+00  0.93827000000E+00 0.  1.
     999902    2    1    2    0    0  0.23161128847E-01  0.17361371346E-01 -0.15880247768E-02  0.10149407446E+01  0.10145266572E+01 0.  0.
     999903    2    3    3    0    0 -0.39407563517E-01 -0.10500880066E+00  0.46804157941E-01  0.12295918450E+00  0.18668893218E-01 0.  0.
         14    1    1    2    0    0 -0.23161128847E-01 -0.17361371346E-01  0.15880247768E-02  0.28989255375E-01  0.00000000000E+00 0. -1.
     999901    1    3    3    0    0  0.62568692363E-01  0.12237017200E+00 -0.48392182718E-01  0.89198156013E+00  0.88000000000E+00 0.  1.
        -11    1    4    4    0    0 -0.21051676186E-01 -0.49389435195E-01  0.32152307928E-01  0.62582117296E-01  0.51100000000E-03 0.  1.
         11    1    4    4    0    0 -0.18355887331E-01 -0.55619365462E-01  0.14651850013E-01  0.60377067202E-01  0.51100000000E-03 0. -1.
</event>
<event>
 8    1  0.1191842E+005  0.1043930E+01  0.7957747E-01            NaN
         13   -1    0    0    0    0  0.00000000000E+00  0.00000000000E+00  0.74505805969E-08  0.10566000000E+00  0.10566000000E+00 0.  1.
     999900   -1    0    0    0    0 -0.00000000000E+00 -0.00000000000E+00 -0.74505805969E-08  0.93827000000E+00  0.93827000000E+00 0. -1.
     999902    2    1    2    0    0 -0.16936242610E-01  0.73668015068E-02  0.15604081688E-01  0.10197516327E+01  0.10194649572E+01 0.  0.
     999903    2    3    3    0    0  0.79862414873E-01  0.50429138450E-01  0.87704463514E-01  0.13046944467E+00  0.20226214627E-01 0.  0.
         14    1    1    2    0    0  0.16936242610E-01 -0.73668015068E-02 -0.15604081688E-01  0.24178367263E-01  0.00000000000E+00 0. -1.
     999901    1    3    3    0    0 -0.96798657483E-01 -0.43062336943E-01 -0.72100381826E-01  0.88928218807E+00  0.88000000000E+00 0. -1.
        -11    1    4    4    0    0  0.22045595346E-01  0.13002961035E-01  0.36783441500E-01  0.44814818525E-01  0.51100000000E-03 0.  1.
         11    1    4    4    0    0  0.57816819528E-01  0.37426177414E-01  0.50921022014E-01  0.85654626145E-01  0.51100000000E-03 0. -1.
</event>
<event>
 8    1  0.1191842E+005  0.1043930E+01  0.7957747E-01            NaN
         13   -1    0    0    0    0  0.00000000000E+00  0.00000000000E+00  0.74505805969E-08  0.10566000000E+00  0.10566000000E+00 0.  1.
     999900   -1    0    0    0    0 -0.00000000000E+00 -0.00000000000E+00 -0.74505805969E-08  0.93827000000E+00  0.93827000000E+00 0.  1.
     999902    2    1    2    0    0  0.33751938704E-02  0.12199121413E-01  0.19974211092E-01  0.10202830212E+01  0.10200089528E+01 0.  0.
     999903    2    3    3    0    0 -0.23197096224E-01  0.11791651933E+00 -0.48017043041E-01  0.13095458612E+00  0.20026392595E-01 0.  0.
         14    1    1    2    0    0 -0.33751938704E-02 -0.12199121413E-01 -0.19974211092E-01  0.23646978785E-01  0.00000000000E+00 0. -1.
     999901    1    3    3    0    0  0.26572290095E-01 -0.10571739792E+00  0.67991254134E-01  0.88932843509E+00  0.88000000000E+00 0. -1.
        -11    1    4    4    0    0 -0.70797149965E-02  0.74510016803E-01 -0.22878744706E-01  0.78265976316E-01  0.51100000000E-03 0. -1.
         11    1    4    4    0    0 -0.16117381228E-01  0.43406502526E-01 -0.25138298336E-01  0.52688609807E-01  0.51100000000E-03 0.  1.
</event>
<event>
 8    1  0.1191842E+005  0.1043930E+01  0.7957747E-01            NaN
         13   -1    0    0    0    0  0.00000000000E+00  0.00000000000E+00  0.74505805969E-08  0.10566000000E+00  0.10566000000E+00 0.  1.
     999900   -1    0    0    0    0 -0.00000000000E+00 -0.00000000000E+00 -0.74505805969E-08  0.93827000000E+00  0.93827000000E+00 0. -1.
     999902    2    1    2    0    0 -0.16080405536E-01  0.15549720198E-01 -0.76022303186E-02  0.10203044387E+01  0.10200308723E+01 0.  0.
     999903    2    3    3    0    0 -0.12690617901E+00  0.27733582546E-01  0.21341705268E-01  0.13279750917E+00  0.17475130507E-01 0.  0.
         14    1    1    2    0    0  0.16080405536E-01 -0.15549720198E-01  0.76022303186E-02  0.23625561289E-01  0.00000000000E+00 0.  1.
     999901    1    3    3    0    0  0.11082577348E+00 -0.12183862348E-01 -0.28943935586E-01  0.88750692954E+00  0.88000000000E+00 0. -1.
        -11    1    4    4    0    0 -0.13237255129E-01  0.47036029430E-02  0.76732583950E-02  0.16015268321E-01  0.51100000000E-03 0. -1.
         11    1    4    4    0    0 -0.11366892388E+00  0.23029979603E-01  0.13668446873E-01  0.11678224085E+00  0.51100000000E-03 0.  1.
</event>
<event>
 8    1  0.1191842E+005  0.1043930E+01  0.7957747E-01            NaN
         13   -1    0    0    0    0  0.00000000000E+00  0.00000000000E+00  0.74505805969E-08  0.10566000000E+00  0.10566000000E+00 0.  1.
     999900   -1    0    0    0    0 -0.00000000000E+00 -0.00000000000E+00 -0.74505805969E-08  0.93827000000E+00  0.93827000000E+00 0.  1.
     999902    2    1    2    0    0  0.18231060638E-01 -0.59373780501E-02  0.17598916104E-01  0.10179041306E+01  0.10175713603E+01 0.  0.
     999903    2    3    3    0    0  0.25481014343E-01  0.64547239366E-01 -0.10405496020E+00  0.12671374199E+00  0.20330013928E-01 0.  0.
         14    1    1    2    0    0 -0.18231060638E-01  0.59373780501E-02 -0.17598916104E-01  0.26025869403E-01  0.00000000000E+00 0. -1.
     999901    1    3    3    0    0 -0.72499537047E-02 -0.70484617416E-01  0.12165387630E+00  0.89119038860E+00  0.88000000000E+00 0. -1.
        -11    1    4    4    0    0 -0.10979835395E-02  0.21318644791E-01 -0.35345509950E-01  0.41294750008E-01  0.51100000000E-03 0. -1.
         11    1    4    4    0    0  0.26578997883E-01  0.43228594575E-01 -0.68709450248E-01  0.85418991985E-01  0.51100000000E-03 0.  1.
</event>
<event>
 8    1  0.1191842E+005  0.1043930E+01  0.7957747E-01            NaN
         13   -1    0    0    0    0  0.00000000000E+00  0.00000000000E+00  0.74505805969E-08  0.10566000000E+00  0.10566000000E+00 0. -1.
     999900   -1    0    0    0    0 -0.00000000000E+00 -0.00000000000E+00 -0.74505805969E-08  0.93827000000E+00  0.93827000000E+00 0.  1.
     999902    2    1    2    0    0 -0.12219146561E-01 -0.18687714489E-01  0.72071312783E-02  0.10204676694E+01  0.10201979138E+01 0.  0.
     999903    2    3    3    0    0  0.35765516305E-01 -0.55367518306E-01  0.11259523335E+00  0.13212393642E+00  0.20840195833E-01 0.  0.
         14    1    1    2    0    0  0.12219146561E-01  0.18687714489E-01 -0.72071312783E-02  0.23462330591E-01  0.00000000000E+00 0.  1.
     999901    1    3    3    0    0 -0.47984662866E-01  0.36679803817E-01 -0.10538810207E+00  0.88834373299E+00  0.88000000000E+00 0.  1.
        -11    1    4    4    0    0  0.11885090240E-02 -0.16906014984E-01  0.21640165788E-01  0.27491522196E-01  0.51100000000E-03 0. -1.
         11    1    4    4    0    0  0.34577007281E-01 -0.38461503322E-01  0.90955067564E-01  0.10463241423E+00  0.51100000000E-03 0.  1.
</event>
<event>
 8    1  0.1191842E+005  0.1043930E+01  0.7957747E-01            NaN
         13   -1    0    0    0    0  0.00000000000E+00  0.00000000000E+00  0.74505805969E-08  0.10566000000E+00  0.10566000000E+00 0. -1.
     999900   -1    0    0    0    0 -0.00000000000E+00 -0.00000000000E+00 -0.74505805969E-08  0.93827000000E+00  0.93827000000E+00 0.  1.
     999902    2    1    2    0    0  0.35983430865E-02  0.16249971064E-01 -0.17554367095E-01  0.10197398070E+01  0.10194528476E+01 0.  0.
     999903    2    3    3    0    0 -0.10810858282E-02 -0.22202032118E-01  0.12379820393E+00  0.12761817689E+00  0.21594091742E-01 0.  0.
         14    1    1    2    0    0 -0.35983430865E-02 -0.16249971064E-01  0.17554367095E-01  0.24190192985E-01  0.00000000000E+00 0. -1.
     999901    1    3    3    0    0  0.46794289148E-02  0.38452003182E-01 -0.14135257103E+00  0.89212163013E+00  0.88000000000E+00 0.  1.
        -11    1    4    4    0    0  0.87723908347E-02 -0.14805801942E-01  0.90202419401E-01  0.91830845575E-01  0.51100000000E-03 0.  1.
         11    1    4    4    0    0 -0.98534766630E-02 -0.73962301758E-02  0.33595784533E-01  0.35787331314E-01  0.51100000000E-03 0. -1.
</event>
<event>
 8    1  0.1191842E+005  0.1043930E+01  0.7957747E-01            NaN
         13   -1    0    0    0    0  0.00000000000E+00  0.00000000000E+00  0.74505805969E-08  0.10566000000E+00  0.10566000000E+00 0.  1.
     999900   -1    0    0    0    0 -0.00000000000E+00 -0.00000000000E+00 -0.74505805969E-08  0.93827000000E+00  0.93827000000E+00 0.  1.
     999902    2    1    2    0    0  0.44804241274E-03 -0.21507514097E-01  0.94338775953E-02  0.10204401735E+01  0.10201697779E+01 0.  0.
     999903    2    3    3    0    0 -0.41936109820E-01 -0.72587168390E-02  0.12437191214E+00  0.13184004045E+00  0.10104328829E-01 0.  0.
         14    1    1    2    0    0 -0.44804241274E-03  0.21507514097E-01 -0.94338775953E-02  0.23489826545E-01  0.00000000000E+00 0. -1.
     999901    1    3    3    0    0  0.42384152232E-01 -0.14248797258E-01 -0.11493803454E+00  0.88860013300E+00  0.88000000000E+00 0. -1.
        -11    1    4    4    0    0 -0.32300485795E-02  0.21365725265E-02  0.11561422128E-01  0.12203514191E-01  0.51100000000E-03 0. -1.
         11    1    4    4    0    0 -0.38706061240E-01 -0.93952893655E-02  0.11281049001E+00  0.11963652626E+00  0.51100000000E-03 0.  1.
</event>
<event>
 8    1  0.1191842E+005  0.1043930E+01  0.7957747E-01            NaN
         13   -1    0    0    0    0  0.00000000000E+00  0.00000000000E+00  0.74505805969E-08  0.10566000000E+00  0.10566000000E+00 0. -1.
     999900   -1    0    0    0    0 -0.00000000000E+00 -0.00000000000E+00 -0.74505805969E-08  0.93827000000E+00  0.93827000000E+00 0. -1.
     999902    2    1    2    0    0 -0.13671862570E-01  0.11855098151E-01  0.13792863166E-01  0.10211768408E+01  0.10209233242E+01 0.  0.
     999903    2    3    3    0    0  0.55236067586E-01 -0.94098853341E-01  0.68962643909E-01  0.13043656028E+00  0.18767861884E-01 0.  0.
         14    1    1    2    0    0  0.13671862570E-01 -0.11855098151E-01 -0.13792863166E-01  0.22753159179E-01  0.00000000000E+00 0.  1.
     999901    1    3    3    0    0 -0.68907930156E-01  0.10595395149E+00 -0.55169780743E-01  0.89074028054E+00  0.88000000000E+00 0.  1.
        -11    1    4    4    0    0  0.18575712285E-01 -0.48326466005E-01  0.27614459500E-01  0.58679842348E-01  0.51100000000E-03 0.  1.
         11    1    4    4    0    0  0.36660355300E-01 -0.45772387336E-01  0.41348184409E-01  0.71756717930E-01  0.51100000000E-03 0. -1.
</event>
<event>
 8    1  0.1191842E+005  0.1043930E+01  0.7957747E-01            NaN
         13   -1    0    0    0    0  0.00000000000E+00  0.00000000000E+00  0.74505805969E-08  0.10566000000E+00  0.10566000000E+00 0.  1.
     999900   -1    0    0    0    0 -0.00000000000E+00 -0.00000000000E+00 -0.74505805969E-08  0.93827000000E+00  0.93827000000E+00 0. -1.
     999902    2    1    2    0    0 -0.98315537161E-02 -0.98872954233E-02  0.17898115448E-01  0.10212416639E+01  0.10209896059E+01 0.  0.
     999903    2    3    3    0    0 -0.69203303015E-01 -0.70402174559E-01 -0.83723051941E-01  0.13134621110E+00  0.22287090752E-01 0.  0.
         14    1    1    2    0    0  0.98315537161E-02  0.98872954233E-02 -0.17898115448E-01  0.22688336119E-01  0.00000000000E+00 0. -1.
     999901    1    3    3    0    0  0.59371749299E-01  0.60514879136E-01  0.10162116739E+00  0.88989545278E+00  0.88000000000E+00 0.  1.
        -11    1    4    4    0    0 -0.36582090311E-01 -0.50285423801E-01 -0.44227180613E-01  0.76309749078E-01  0.51100000000E-03 0.  1.
         11    1    4    4    0    0 -0.32621212704E-01 -0.20116750758E-01 -0.39495871328E-01  0.55036462026E-01  0.51100000000E-03 0. -1.
</event>
<event>
 8    1  0.1191842E+005  0.1043930E+01  0.7957747E-01            NaN
         13   -1    0    0    0    0  0.00000000000E+00  0.00000000000E+00  0.74505805969E-08  0.10566000000E+00  0.10566000000E+00 0.  1.
     999900   -1    0    0    0    0 -0.00000000000E+00 -0.00000000000E+00 -0.74505805969E-08  0.93827000000E+00  0.93827000000E+00 0. -1.
     999902    2    1    2    0    0  0.11484898625E-01 -0.44586665186E-02  0.21279778880E-01  0.10193411490E+01  0.10190445361E+01 0.  0.
     999903    2    3    3    0    0 -0.67318122659E-01 -0.10715896426E+00 -0.16201770979E-01  0.12908156109E+00  0.19615778590E-01 0.  0.
         14    1    1    2    0    0 -0.11484898625E-01  0.44586665186E-02 -0.21279778880E-01  0.24588850984E-01  0.00000000000E+00 0. -1.
     999901    1    3    3    0    0  0.78803021284E-01  0.10270029774E+00  0.37481549859E-01  0.89025958793E+00  0.88000000000E+00 0. -1.
        -11    1    4    4    0    0 -0.29820706052E-01 -0.64709769376E-01 -0.12297526272E-01  0.72305733075E-01  0.51100000000E-03 0.  1.
         11    1    4    4    0    0 -0.37497416607E-01 -0.42449194886E-01 -0.39042447070E-02  0.56775828011E-01  0.51100000000E-03 0. -1.
</event>
<event>
 8    1  0.1191842E+005  0.1043930E+01  0.7957747E-01            NaN
         13   -1    0    0    0    0  0.00000000000E+00  0.00000000000E+00  0.74505805969E-08  0.10566000000E+00  0.10566000000E+00 0.  1.
     999900   -1    0    0    0    0 -0.00000000000E+00 -0.00000000000E+00 -0.74505805969E-08  0.93827000000E+00  0.93827000000E+00 0. -1.
     999902    2    1    2    0    0 -0.11031217228E-02 -0.43640861996E-02  0.23191035947E-01  0.10203061503E+01  0.10200326240E+01 0.  0.
     999903    2    3    3    0    0 -0.34080610606E-01 -0.12491439908E+00  0.11888240989E-01  0.13140365516E+00  0.18986711131E-01 0.  0.
         14    1    1    2    0    0  0.11031217228E-02  0.43640861996E-02 -0.23191035947E-01  0.23623849690E-01  0.00000000000E+00 0. -1.
     999901    1    3    3    0    0  0.32977488883E-01  0.12055031288E+00  0.11302794958E-01  0.88890249515E+00  0.88000000000E+00 0. -1.
        -11    1    4    4    0    0 -0.18871663557E-01 -0.87426002470E-01  0.76947735285E-03  0.89444389482E-01  0.51100000000E-03 0. -1.
         11    1    4    4    0    0 -0.15208947049E-01 -0.37488396608E-01  0.11118763636E-01  0.41959265680E-01  0.51100000000E-03 0.  1.
</event>
<event>
 8    1  0.1191842E+005  0.1043930E+01  0.7957747E-01            NaN
         13   -1    0    0    0    0  0.00000000000E+00  0.00000000000E+00  0.74505805969E-08  0.10566000000E+00  0.10566000000E+00 0.  1.
     999900   -1    0    0    0    0 -0.00000000000E+00 -0.00000000000E+00 -0.74505805969E-08  0.93827000000E+00  0.93827000000E+00 0.  1.
     999902    2    1    2    0    0 -0.21263949770E-01 -0.12729833961E-01  0.12745865823E-02  0.10191141018E+01  0.10188119177E+01 0.  0.
     999903    2    3    3    0    0  0.78819727446E-01  0.55494058338E-02  0.98444358413E-01  0.12793912593E+00  0.20827455475E-01 0.  0.
         14    1    1    2    0    0  0.21263949770E-01  0.12729833961E-01 -0.12745865823E-02  0.24815898200E-01  0.00000000000E+00 0.  1.
     999901    1    3    3    0    0 -0.10008367722E+00 -0.18279239795E-01 -0.97169771831E-01  0.89117497587E+00  0.88000000000E+00 0.  1.
        -11    1    4    4    0    0  0.57864427188E-01 -0.51373534288E-02  0.72753355549E-01  0.93102074084E-01  0.51100000000E-03 0.  1.
         11    1    4    4    0    0  0.20955300258E-01  0.10686759263E-01  0.25691002864E-01  0.34837051850E-01  0.51100000000E-03 0. -1.
</event>
<event>
 8    1  0.1191842E+005  0.1043930E+01  0.7957747E-01            NaN
         13   -1    0    0    0    0  0.00000000000E+00  0.00000000000E+00  0.74505805969E-08  0.10566000000E+00  0.10566000000E+00 0.  1.
     999900   -1    0    0    0    0 -0.00000000000E+00 -0.00000000000E+00 -0.74505805969E-08  0.93827000000E+00  0.93827000000E+00 0. -1.
     999902    2    1    2    0    0  0.25773805526E-03 -0.15858868268E-01  0.16808003840E-01  0.10208198480E+01  0.10205582213E+01 0.  0.
     999903    2    3    3    0    0 -0.60392663969E-01  0.10330432115E+00  0.46962194783E-01  0.13020903952E+00  0.20733779328E-01 0.  0.
         14    1    1    2    0    0 -0.25773805526E-03  0.15858868268E-01 -0.16808003840E-01  0.23110151984E-01  0.00000000000E+00 0. -1.
     999901    1    3    3    0    0  0.60650402024E-01 -0.11916318941E+00 -0.30154190943E-01  0.89061080850E+00  0.88000000000E+00 0. -1.
        -11    1    4    4    0    0 -0.62100459874E-02  0.22103389265E-01  0.15251681837E-01  0.27568086767E-01  0.51100000000E-03 0. -1.
         11    1    4    4    0    0 -0.54182617981E-01  0.81200931882E-01  0.31710512946E-01  0.10264095275E+00  0.51100000000E-03 0.  1.
</event>
<event>
 8    1  0.1191842E+005  0.1043930E+01  0.7957747E-01            NaN
         13   -1    0    0    0    0  0.00000000000E+00  0.00000000000E+00  0.74505805969E-08  0.10566000000E+00  0.10566000000E+00 0.  1.
     999900   -1    0    0    0    0 -0.00000000000E+00 -0.00000000000E+00 -0.74505805969E-08  0.93827000000E+00  0.93827000000E+00 0.  1.
     999902    2    1    2    0    0 -0.13809912484E-01  0.16643781497E-01  0.23952642673E-02  0.10221707161E+01  0.10219390913E+01 0.  0.
     999903    2    3    3    0    0 -0.27503323922E-01 -0.11676323307E+00 -0.47691863904E-01  0.13060262477E+00  0.19810257185E-01 0.  0.
         14    1    1    2    0    0  0.13809912484E-01 -0.16643781497E-01 -0.23952642673E-02  0.21759283910E-01  0.00000000000E+00 0.  1.
     999901    1    3    3    0    0  0.13693411438E-01  0.13340701457E+00  0.50087128171E-01  0.89156809132E+00  0.88000000000E+00 0.  1.
        -11    1    4    4    0    0 -0.39355621656E-02 -0.29089327602E-01 -0.33021228852E-02  0.29543912511E-01  0.51100000000E-03 0.  1.
         11    1    4    4    0    0 -0.23567761757E-01 -0.87673905470E-01 -0.44389741018E-01  0.10105871226E+00  0.51100000000E-03 0. -1.
</event>
<event>
 8    1  0.1191842E+005  0.1043930E+01  0.7957747E-01            NaN
         13   -1    0    0    0    0  0.00000000000E+00  0.00000000000E+00  0.74505805969E-08  0.10566000000E+00  0.10566000000E+00 0. -1.
     999900   -1    0    0    0    0 -0.00000000000E+00 -0.00000000000E+00 -0.74505805969E-08  0.93827000000E+00  0.93827000000E+00 0. -1.
     999902    2    1    2    0    0  0.11446258536E-01 -0.20461093768E-01 -0.47816642525E-02  0.10200022440E+01  0.10197215504E+01 0.  0.
     999903    2    3    3    0    0 -0.68382287077E-01  0.10499516029E+00 -0.12696584732E-01  0.12749201197E+00  0.19821427341E-01 0.  0.
         14    1    1    2    0    0 -0.11446258536E-01  0.20461093768E-01  0.47816642525E-02  0.23927755968E-01  0.00000000000E+00 0.  1.
     999901    1    3    3    0    0  0.79828545613E-01 -0.12545625405E+00  0.79149204795E-02  0.89251023207E+00  0.88000000000E+00 0. -1.
        -11    1    4    4    0    0 -0.55089090523E-01  0.81940297192E-01 -0.17961142844E-01  0.10035877626E+00  0.51100000000E-03 0. -1.
         11    1    4    4    0    0 -0.13293196554E-01  0.23054863094E-01  0.52645581117E-02  0.27133235709E-01  0.51100000000E-03 0.  1.
</event>
<event>
 8    1  0.1191842E+005  0.1043930E+01  0.7957747E-01            NaN
         13   -1    0    0    0    0  0.00000000000E+00  0.00000000000E+00  0.74505805969E-08  0.10566000000E+00  0.10566000000E+00 0.  1.
     999900   -1    0    0    0    0 -0.00000000000E+00 -0.00000000000E+00 -0.74505805969E-08  0.93827000000E+00  0.93827000000E+00 0. -1.
     999902    2    1    2    0    0  0.16556398202E-01 -0.82984492554E-02 -0.14988468505E-01  0.10201049550E+01  0.10198266943E+01 0.  0.
     999903    2    3    3    0    0 -0.76486868676E-01  0.10819853552E-01  0.99657994164E-01  0.12759928531E+00  0.19558923792E-01 0.  0.
         14    1    1    2    0    0 -0.16556398202E-01  0.82984492554E-02  0.14988468505E-01  0.23825045008E-01  0.00000000000E+00 0. -1.
     999901    1    3    3    0    0  0.93043266878E-01 -0.19118302808E-01 -0.11464646267E+00  0.89250566968E+00  0.88000000000E+00 0. -1.
        -11    1    4    4    0    0 -0.37626925803E-01  0.92419226252E-02  0.35389000486E-01  0.52477053610E-01  0.51100000000E-03 0. -1.
         11    1    4    4    0    0 -0.38859942873E-01  0.15779309270E-02  0.64268993678E-01  0.75122231699E-01  0.51100000000E-03 0.  1.
</event>
<event>
 8    1  0.1191842E+005  0.1043930E+01  0.7957747E-01            NaN
         13   -1    0    0    0    0  0.00000000000E+00  0.00000000000E+00  0.74505805969E-08  0.10566000000E+00  0.10566000000E+00 0.  1.
     999900   -1    0    0    0    0 -0.00000000000E+00 -0.00000000000E+00 -0.74505805969E-08  0.93827000000E+00  0.93827000000E+00 0.  1.
     999902    2    1    2    0    0  0.18699441064E-01  0.11558465255E-01 -0.26831391680E-02  0.10217835228E+01  0.10215434896E+01 0.  0.
     999903    2    3    3    0    0  0.10950785092E+00  0.21241515646E-01  0.71363796741E-01  0.13396435347E+00  0.20260432298E-01 0.  0.
         14    1    1    2    0    0 -0.18699441064E-01 -0.11558465255E-01  0.26831391680E-02  0.22146477169E-01  0.00000000000E+00 0. -1.
     999901    1    3    3    0    0 -0.90808409851E-01 -0.96830503904E-02 -0.74046935909E-01  0.88781916936E+00  0.88000000000E+00 0. -1.
        -11    1    4    4    0    0  0.83673818682E-01  0.17080944275E-01  0.43886687317E-01  0.96017545453E-01  0.51100000000E-03 0.  1.
         11    1    4    4    0    0  0.25834032234E-01  0.41605713711E-02  0.27477109424E-01  0.37946808019E-01  0.51100000000E-03 0. -1.
</event>
<event>
 8    1  0.1191842E+005  0.1043930E+01  0.7957747E-01            NaN
         13   -1    0    0    0    0  0.00000000000E+00  0.00000000000E+00  0.74505805969E-08  0.10566000000E+00  0.10566000000E+00 0.  1.
     999900   -1    0    0    0    0 -0.00000000000E+00 -0.00000000000E+00 -0.74505805969E-08  0.93827000000E+00  0.93827000000E+00 0.  1.
     999902    2    1    2    0    0 -0.21204564241E-01 -0.10345613854E-01  0.17333933329E-02  0.10202726560E+01  0.10199983445E+01 0.  0.
     999903    2    3    3    0    0 -0.27071334475E-01  0.75508208386E-03  0.12666390372E+00  0.13136024367E+00  0.21871026755E-01 0.  0.
         14    1    1    2    0    0  0.21204564241E-01  0.10345613854E-01 -0.17333933329E-02  0.23657343957E-01  0.00000000000E+00 0.  1.
     999901    1    3    3    0    0  0.58667702344E-02 -0.11100695937E-01 -0.12493051039E+00  0.88891241237E+00  0.88000000000E+00 0.  1.
        -11    1    4    4    0    0 -0.17658006610E-01  0.94534438544E-02  0.54521664409E-01  0.58086537245E-01  0.51100000000E-03 0.  1.
         11    1    4    4    0    0 -0.94133278652E-02 -0.86983617705E-02  0.72142239315E-01  0.73273706426E-01  0.51100000000E-03 0. -1.
</event>
<event>
 8    1  0.1191842E+005  0.1043930E+01  0.7957747E-01            NaN
         13   -1    0    0    0    0  0.00000000000E+00  0.00000000000E+00  0.74505805969E-08  0.10566000000E+00  0.10566000000E+00 0.  1.
     999900   -1    0    0    0    0 -0.00000000000E+00 -0.00000000000E+00 -0.74505805969E-08  0.93827000000E+00  0.93827000000E+00 0. -1.
     999902    2    1    2    0    0 -0.33025231351E-02 -0.15857609673E-01 -0.17577337307E-01  0.10200274221E+01  0.10197473259E+01 0.  0.
     999903    2    3    3    0    0  0.13207743939E-01  0.12198803250E+00 -0.34380068142E-01  0.12898514378E+00  0.19991339590E-01 0.  0.
         14    1    1    2    0    0  0.33025231351E-02  0.15857609673E-01  0.17577337307E-01  0.23902577903E-01  0.00000000000E+00 0.  1.
     999901    1    3    3    0    0 -0.16510267074E-01 -0.13784564217E+00  0.16802730835E-01  0.89104227832E+00  0.88000000000E+00 0. -1.
        -11    1    4    4    0    0  0.30799657404E-02  0.97261552331E-01 -0.30502511988E-01  0.10198019469E+00  0.51100000000E-03 0.  1.
         11    1    4    4    0    0  0.10127778199E-01  0.24726480165E-01 -0.38775561535E-02  0.27004949089E-01  0.51100000000E-03 0. -1.
</event>
<event>
 8    1  0.1191842E+005  0.1043930E+01  0.7957747E-01            NaN
         13   -1    0    0    0    0  0.00000000000E+00  0.00000000000E+00  0.74505805969E-08  0.10566000000E+00  0.10566000000E+00 0. -1.
     999900   -1    0    0    0    0 -0.00000000000E+00 -0.00000000000E+00 -0.74505805969E-08  0.93827000000E+00  0.93827000000E+00 0. -1.
     999902    2    1    2    0    0  0.20765565268E-03 -0.40454332532E-02 -0.23405553620E-01  0.10201765036E+01  0.10198999313E+01 0.  0.
     999903    2    3    3    0    0  0.54403168813E-01 -0.80804932286E-01 -0.88083504219E-01  0.13281388796E+00  0.19790989383E-01 0.  0.
         14    1    1    2    0    0 -0.20765565268E-03  0.40454332532E-02  0.23405553620E-01  0.23753496402E-01  0.00000000000E+00 0. -1.
     999901    1    3    3    0    0 -0.54195513160E-01  0.76759499033E-01  0.64677950599E-01  0.88736261564E+00  0.88000000000E+00 0.  1.
        -11    1    4    4    0    0  0.29647431602E-01 -0.59738703270E-01 -0.55207656003E-01  0.86578457317E-01  0.51100000000E-03 0. -1.
         11    1    4    4    0    0  0.24755737211E-01 -0.21066229016E-01 -0.32875848216E-01  0.46235430643E-01  0.51100000000E-03 0.  1.
</event>
<event>
 8    1  0.1191842E+005  0.1043930E+01  0.7957747E-01            NaN
         13   -1    0    0    0    0  0.00000000000E+00  0.00000000000E+00  0.74505805969E-08  0.10566000000E+00  0.10566000000E+00 0.  1.
     999900   -1    0    0    0    0 -0.00000000000E+00 -0.00000000000E+00 -0.74505805969E-08  0.93827000000E+00  0.93827000000E+00 0.  1.
     999902    2    1    2    0    0 -0.12432232057E-01  0.16653788276E-01 -0.10958651451E-01  0.10204352964E+01  0.10201647872E+01 0.  0.
     999903    2    3    3    0    0  0.43674285108E-01 -0.23973322539E-01  0.11678905554E+00  0.12851714986E+00  0.19869850048E-01 0.  0.
         14    1    1    2    0    0  0.12432232057E-01 -0.16653788276E-01  0.10958651451E-01  0.23494703647E-01  0.00000000000E+00 0. -1.
     999901    1    3    3    0    0 -0.56106517165E-01  0.40627110815E-01 -0.12774770699E+00  0.89191814649E+00  0.88000000000E+00 0.  1.
        -11    1    4    4    0    0  0.73947673690E-02 -0.11452236015E-01  0.46145301988E-01  0.48119500317E-01  0.51100000000E-03 0. -1.
         11    1    4    4    0    0  0.36279517739E-01 -0.12521086524E-01  0.70643753552E-01  0.80397649543E-01  0.51100000000E-03 0.  1.
</event>
<event>
 8    1  0.1191842E+005  0.1043930E+01  0.7957747E-01            NaN
         13   -1    0    0    0    0  0.00000000000E+00  0.00000000000E+00  0.74505805969E-08  0.10566000000E+00  0.10566000000E+00 0.  1.
     999900   -1    0    0    0    0 -0.00000000000E+00 -0.00000000000E+00 -0.74505805969E-08  0.93827000000E+00  0.93827000000E+00 0. -1.
     999902    2    1    2    0    0 -0.18977899455E-02 -0.23524570460E-01  0.11283683539E-02  0.10203020454E+01  0.10200284230E+01 0.  0.
     999903    2    3    3    0    0 -0.59189984297E-01 -0.59607532408E-01  0.10017759153E+00  0.13216065787E+00  0.19348836760E-01 0.  0.
         14    1    1    2    0    0  0.18977899455E-02  0.23524570460E-01 -0.11283683539E-02  0.23627954570E-01  0.00000000000E+00 0.  1.
     999901    1    3    3    0    0  0.57292194351E-01  0.36082961948E-01 -0.99049223178E-01  0.88814138756E+00  0.88000000000E+00 0. -1.
        -11    1    4    4    0    0 -0.19408664220E-01 -0.26026793496E-01  0.26321761669E-01  0.41799359862E-01  0.51100000000E-03 0. -1.
         11    1    4    4    0    0 -0.39781320077E-01 -0.33580738912E-01  0.73855829862E-01  0.90361298013E-01  0.51100000000E-03 0.  1.
</event>
<event>
 8    1  0.1191842E+005  0.1043930E+01  0.7957747E-01            NaN
         13   -1    0    0    0    0  0.00000000000E+00  0.00000000000E+00  0.74505805969E-08  0.10566000000E+00  0.10566000000E+00 0. -1.
     999900   -1    0    0    0    0 -0.00000000000E+00 -0.00000000000E+00 -0.74505805969E-08  0.93827000000E+00  0.93827000000E+00 0.  1.
     999902    2    1    2    0    0  0.10029012936E-01  0.16719302628E-01 -0.13179780679E-01  0.10203965600E+01  0.10201251476E+01 0.  0.
     999903    2    3    3    0    0  0.12200082729E-01  0.10767440593E+00  0.72079984342E-01  0.13160706189E+00  0.19551851207E-01 0.  0.
         14    1    1    2    0    0 -0.10029012936E-01 -0.16719302628E-01  0.13179780679E-01  0.23533440029E-01  0.00000000000E+00 0. -1.
     999901    1    3    3    0    0 -0.21710697922E-02 -0.90955103306E-01 -0.85259765021E-01  0.88878949808E+00  0.88000000000E+00 0.  1.
        -11    1    4    4    0    0  0.69234744641E-02  0.86551107025E-01  0.65789917013E-01  0.10893852820E+00  0.51100000000E-03 0. -1.
         11    1    4    4    0    0  0.52766082646E-02  0.21123298909E-01  0.62900673295E-02  0.22668533689E-01  0.51100000000E-03 0.  1.
</event>
<event>
 8    1  0.1191842E+005  0.1043930E+01  0.7957747E-01            NaN
         13   -1    0    0    0    0  0.00000000000E+00  0.00000000000E+00  0.74505805969E-08  0.10566000000E+00  0.10566000000E+00 0.  1.
     999900   -1    0    0    0    0 -0.00000000000E+00 -0.00000000000E+00 -0.74505805969E-08  0.93827000000E+00  0.93827000000E+00 0. -1.
     999902    2    1    2    0    0  0.21821533917E-01  0.49859945745E-02  0.71016422630E-02  0.10204465418E+01  0.10201762945E+01 0.  0.
     999903    2    3    3    0    0  0.11278724808E+00 -0.28359476888E-01 -0.60339002413E-01  0.13256427364E+00  0.20180886372E-01 0.  0.
         14    1    1    2    0    0 -0.21821533917E-01 -0.49859945745E-02 -0.71016422630E-02  0.23483458161E-01  0.00000000000E+00 0. -1.
     999901    1    3    3    0    0 -0.90965714167E-01  0.33345471462E-01  0.67440644676E-01  0.88788226820E+00  0.88000000000E+00 0. -1.
        -11    1    4    4    0    0  0.52583861552E-01 -0.23282871523E-01 -0.32242511925E-01  0.65931747272E-01  0.51100000000E-03 0. -1.
         11    1    4    4    0    0  0.60203386532E-01 -0.50766053646E-02 -0.28096490488E-01  0.66632526372E-01  0.51100000000E-03 0.  1.
</event>
<event>
 8    1  0.1191842E+005  0.1043930E+01  0.7957747E-01            NaN
         13   -1    0    0    0    0  0.00000000000E+00  0.00000000000E+00  0.74505805969E-08  0.10566000000E+00  0.10566000000E+00 0. -1.
     999900   -1    0    0    0    0 -0.00000000000E+00 -0.00000000000E+00 -0.74505805969E-08  0.93827000000E+00  0.93827000000E+00 0. -1.
     999902    2    1    2    0    0 -0.74986420864E-02 -0.10926408567E-01  0.19765031844E-01  0.10201335187E+01  0.10198559327E+01 0.  0.
     999903    2    3    3    0    0 -0.11749066000E-02  0.88656580851E-01  0.94657052612E-01  0.13133344211E+00  0.20667502846E-01 0.  0.
         14    1    1    2    0    0  0.74986420864E-02  0.10926408567E-01 -0.19765031844E-01  0.23796481276E-01  0.00000000000E+00 0.  1.
     999901    1    3    3    0    0 -0.63237354863E-02 -0.99582989418E-01 -0.74892020768E-01  0.88880007661E+00  0.88000000000E+00 0. -1.
        -11    1    4    4    0    0  0.56935734832E-02  0.22844842725E-01  0.15643998196E-01  0.28271883890E-01  0.51100000000E-03 0.  1.
         11    1    4    4    0    0 -0.68684800833E-02  0.65811738126E-01  0.79013054417E-01  0.10306155822E+00  0.51100000000E-03 0. -1.
</event>
<event>
 8    1  0.1191842E+005  0.1043930E+01  0.7957747E-01            NaN
         13   -1    0    0    0    0  0.00000000000E+00  0.00000000000E+00  0.74505805969E-08  0.10566000000E+00  0.10566000000E+00 0.  1.
     999900   -1    0    0    0    0 -0.00000000000E+00 -0.00000000000E+00 -0.74505805969E-08  0.93827000000E+00  0.93827000000E+00 0.  1.
     999902    2    1    2    0    0 -0.10856079644E-02  0.14739069690E-02  0.23150609688E-01  0.10207071303E+01  0.10204429157E+01 0.  0.
     999903    2    3    3    0    0 -0.91218767761E-01 -0.90093437045E-01  0.20609577100E-01  0.13137309757E+00  0.19910929355E-01 0.  0.
         14    1    1    2    0    0  0.10856079644E-02 -0.14739069690E-02 -0.23150609688E-01  0.23222869662E-01  0.00000000000E+00 0. -1.
     999901    1    3    3    0    0  0.90133159796E-01  0.91567344014E-01  0.25410325882E-02  0.88933403276E+00  0.88000000000E+00 0. -1.
        -11    1    4    4    0    0 -0.55461245941E-01 -0.43540095359E-01  0.17151397759E-01  0.72568045800E-01  0.51100000000E-03 0. -1.
         11    1    4    4    0    0 -0.35757521820E-01 -0.46553341686E-01  0.34581793404E-02  0.58805051774E-01  0.51100000000E-03 0.  1.
</event>
<event>
 8    1  0.1191842E+005  0.1043930E+01  0.7957747E-01            NaN
         13   -1    0    0    0    0  0.00000000000E+00  0.00000000000E+00  0.74505805969E-08  0.10566000000E+00  0.10566000000E+00 0. -1.
     999900   -1    0    0    0    0 -0.00000000000E+00 -0.00000000000E+00 -0.74505805969E-08  0.93827000000E+00  0.93827000000E+00 0.  1.
     999902    2    1    2    0    0  0.64447400824E-02 -0.21056323739E-01  0.11298020751E-01  0.10191802784E+01  0.10188797236E+01 0.  0.
     999903    2    3    3    0    0  0.95386684451E-01 -0.54586249816E-01  0.70621852367E-01  0.13207586384E+00  0.19450180935E-01 0.  0.
         14    1    1    2    0    0 -0.64447400824E-02  0.21056323739E-01 -0.11298020751E-01  0.24749721554E-01  0.00000000000E+00 0. -1.
     999901    1    3    3    0    0 -0.88941944369E-01  0.33529926077E-01 -0.59323831616E-01  0.88710441460E+00  0.88000000000E+00 0.  1.
        -11    1    4    4    0    0  0.48320831117E-01 -0.30277632240E-01  0.47737810183E-01  0.74369330883E-01  0.51100000000E-03 0. -1.
         11    1    4    4    0    0  0.47065853334E-01 -0.24308617576E-01  0.22884042184E-01  0.57706532959E-01  0.51100000000E-03 0.  1.
</event>
<event>
 8    1  0.1191842E+005  0.1043930E+01  0.7957747E-01            NaN
         13   -1    0    0    0    0  0.00000000000E+00  0.00000000000E+00  0.74505805969E-08  0.10566000000E+00  0.10566000000E+00 0.  1.
     999900   -1    0    0    0    0 -0.00000000000E+00 -0.00000000000E+00 -0.74505805969E-08  0.93827000000E+00  0.93827000000E+00 0. -1.
     999902    2    1    2    0    0 -0.20676946658E-03 -0.23132434025E-01 -0.67145425452E-03  0.10207868993E+01  0.10205245175E+01 0.  0.
     999903    2    3    3    0    0 -0.23318986619E-01 -0.48541398811E-01  0.11860843055E+00  0.13207576461E+00  0.21817544875E-01 0.  0.
         14    1    1    2    0    0  0.20676946658E-03  0.23132434025E-01  0.67145425452E-03  0.23143100665E-01  0.00000000000E+00 0.  1.
     999901    1    3    3    0    0  0.23112217153E-01  0.25408964786E-01 -0.11927988480E+00  0.88871113473E+00  0.88000000000E+00 0. -1.
        -11    1    4    4    0    0 -0.16100637066E-01 -0.26966570553E-01  0.43914420033E-01  0.53992257307E-01  0.51100000000E-03 0.  1.
         11    1    4    4    0    0 -0.72183495535E-02 -0.21574828258E-01  0.74694010513E-01  0.78083507299E-01  0.51100000000E-03 0. -1.
</event>
<event>
 8    1  0.1191842E+005  0.1043930E+01  0.7957747E-01            NaN
         13   -1    0    0    0    0  0.00000000000E+00  0.00000000000E+00  0.74505805969E-08  0.10566000000E+00  0.10566000000E+00 0. -1.
     999900   -1    0    0    0    0 -0.00000000000E+00 -0.00000000000E+00 -0.74505805969E-08  0.93827000000E+00  0.93827000000E+00 0.  1.
     999902    2    1    2    0    0 -0.14171871317E-01 -0.11814814599E-02  0.18588411964E-01  0.10205255796E+01  0.10202571694E+01 0.  0.
     999903    2    3    3    0    0  0.43394094431E-01  0.10736372558E+00 -0.52946162056E-01  0.12911484505E+00  0.21385278450E-01 0.  0.
         14    1    1    2    0    0  0.14171871317E-01  0.11814814599E-02 -0.18588411964E-01  0.23404420403E-01  0.00000000000E+00 0.  1.
     999901    1    3    3    0    0 -0.57565965748E-01 -0.10854520704E+00  0.71534574020E-01  0.89141073455E+00  0.88000000000E+00 0.  1.
        -11    1    4    4    0    0  0.18744991141E-01  0.23130143587E-01 -0.10061017901E-01  0.31430294899E-01  0.51100000000E-03 0. -1.
         11    1    4    4    0    0  0.24649103290E-01  0.84233581992E-01 -0.42885144154E-01  0.97684550151E-01  0.51100000000E-03 0.  1.
</event>
<event>
 8    1  0.1191842E+005  0.1043930E+01  0.7957747E-01            NaN
         13   -1    0    0    0    0  0.00000000000E+00  0.00000000000E+00  0.74505805969E-08  0.10566000000E+00  0.10566000000E+00 0.  1.
     999900   -1    0    0    0    0 -0.00000000000E+00 -0.00000000000E+00 -0.74505805969E-08  0.93827000000E+00  0.93827000000E+00 0.  1.
     999902    2    1    2    0    0  0.15487910319E-02 -0.63723784194E-02  0.23075300528E-01  0.10199409305E+01  0.10196587793E+01 0.  0.
     999903    2    3    3    0    0 -0.12277588080E+00 -0.29355663257E-01  0.27989152606E-01  0.13089143732E+00  0.20334793559E-01 0.  0.
         14    1    1    2    0    0 -0.15487910319E-02  0.63723784194E-02 -0.23075300528E-01  0.23989069487E-01  0.00000000000E+00 0. -1.
     999901    1    3    3    0    0  0.12432467183E+00  0.22983284838E-01 -0.49138520774E-02  0.88904949319E+00  0.88000000000E+00 0.  1.
        -11    1    4    4    0    0 -0.10571956991E+00 -0.18517969054E-01  0.26886487716E-01  0.11064667633E+00  0.51100000000E-03 0. -1.
         11    1    4    4    0    0 -0.17056310890E-01 -0.10837694203E-01  0.11026648891E-02  0.20244760994E-01  0.51100000000E-03 0.  1.
</event>
<event>
 8    1  0.1191842E+005  0.1043930E+01  0.7957747E-01            NaN
         13   -1    0    0    0    0  0.00000000000E+00  0.00000000000E+00  0.74505805969E-08  0.10566000000E+00  0.10566000000E+00 0.  1.
     999900   -1    0    0    0    0 -0.00000000000E+00 -0.00000000000E+00 -0.74505805969E-08  0.93827000000E+00  0.93827000000E+00 0.  1.
     999902    2    1    2    0    0  0.19731256508E-01  0.68350833424E-02  0.10680074235E-01  0.10204756863E+01  0.10202061171E+01 0.  0.
     999903    2    3    3    0    0 -0.10408886024E-01 -0.57242341422E-01  0.11607317736E+00  0.13136261654E+00  0.19953043927E-01 0.  0.
         14    1    1    2    0    0 -0.19731256508E-01 -0.68350833424E-02 -0.10680074235E-01  0.23454313747E-01  0.00000000000E+00 0. -1.
     999901    1    3    3    0    0  0.30140142532E-01  0.64077424764E-01 -0.10539310312E+00  0.88911306972E+00  0.88000000000E+00 0.  1.
        -11    1    4    4    0    0 -0.10147650409E-01 -0.28288336122E-01  0.40534648675E-01  0.50463091796E-01  0.51100000000E-03 0. -1.
         11    1    4    4    0    0 -0.26123561524E-03 -0.28954005300E-01  0.75538528680E-01  0.80899524740E-01  0.51100000000E-03 0.  1.
</event>
<event>
 8    1  0.1191842E+005  0.1043930E+01  0.7957747E-01            NaN
         13   -1    0    0    0    0  0.00000000000E+00  0.00000000000E+00  0.74505805969E-08  0.10566000000E+00  0.10566000000E+00 0. -1.
     999900   -1    0    0    0    0 -0.00000000000E+00 -0.00000000000E+00 -0.74505805969E-08  0.93827000000E+00  0.93827000000E+00 0. -1.
     999902    2    1    2    0    0  0.21231843202E-01 -0.39771597533E-02 -0.95890460865E-02  0.10202961520E+01  0.10200223914E+01 0.  0.
     999903    2    3    3    0    0 -0.71051589003E-02  0.11052958419E+00 -0.66993479857E-01  0.13057144791E+00  0.17131970139E-01 0.  0.
         14    1    1    2    0    0 -0.21231843202E-01  0.39771597533E-02  0.95890460865E-02  0.23633847979E-01  0.00000000000E+00 0.  1.
     999901    1    3    3    0    0  0.28337002102E-01 -0.11450674394E+00  0.57404433770E-01  0.88972470412E+00  0.88000000000E+00 0.  1.
        -11    1    4    4    0    0  0.32763432736E-02  0.64100959840E-01 -0.43248400101E-01  0.77397368883E-01  0.51100000000E-03 0.  1.
         11    1    4    4    0    0 -0.10381502174E-01  0.46428624349E-01 -0.23745079756E-01  0.53174079023E-01  0.51100000000E-03 0. -1.
</event>
<event>
 8    1  0.1191842E+005  0.1043930E+01  0.7957747E-01            NaN
         13   -1    0    0    0    0  0.00000000000E+00  0.00000000000E+00  0.74505805969E-08  0.10566000000E+00  0.10566000000E+00 0. -1.
     999900   -1    0    0    0    0 -0.00000000000E+00 -0.00000000000E+00 -0.74505805969E-08  0.93827000000E+00  0.93827000000E+00 0. -1.
     999902    2    1    2    0    0  0.77455797612E-02 -0.80286341849E-02 -0.21224318091E-01  0.10199524136E+01  0.10196705357E+01 0.  0.
     999903    2    3    3    0    0  0.72453270896E-02  0.12145615255E+00 -0.41335353045E-01  0.13024964636E+00  0.21266574941E-01 0.  0.
         14    1    1    2    0    0 -0.77455797612E-02  0.80286341849E-02  0.21224318091E-01  0.23977586432E-01  0.00000000000E+00 0. -1.
     999901    1    3    3    0    0  0.50025267158E-03 -0.12948478673E+00  0.20111034954E-01  0.88970276721E+00  0.88000000000E+00 0. -1.
        -11    1    4    4    0    0  0.11008995095E-01  0.51408750697E-01 -0.10468970676E-01  0.53608936654E-01  0.51100000000E-03 0.  1.
         11    1    4    4    0    0 -0.37636680053E-02  0.70047401850E-01 -0.30866382369E-01  0.76640709707E-01  0.51100000000E-03 0. -1.
</event>
<event>
 8    1  0.1191842E+005  0.1043930E+01  0.7957747E-01            NaN
         13   -1    0    0    0    0  0.00000000000E+00  0.00000000000E+00  0.74505805969E-08  0.10566000000E+00  0.10566000000E+00 0.  1.
     999900   -1    0    0    0    0 -0.00000000000E+00 -0.00000000000E+00 -0.74505805969E-08  0.93827000000E+00  0.93827000000E+00 0.  1.
     999902    2    1    2    0    0  0.14297275222E-01 -0.19563401301E-01 -0.97764206115E-03  0.10196793395E+01  0.10193909265E+01 0.  0.
     999903    2    3    3    0    0 -0.10071333939E+00  0.45379485422E-01  0.60814119486E-01  0.12767976453E+00  0.20032241853E-01 0.  0.
         14    1    1    2    0    0 -0.14297275222E-01  0.19563401301E-01  0.97764206115E-03  0.24250660470E-01  0.00000000000E+00 0. -1.
     999901    1    3    3    0    0  0.11501061461E+00 -0.64942886723E-01 -0.61791761548E-01  0.89199957500E+00  0.88000000000E+00 0.  1.
        -11    1    4    4    0    0 -0.91506146977E-01  0.34203793550E-01  0.54607154378E-01  0.11191727685E+00  0.51100000000E-03 0. -1.
         11    1    4    4    0    0 -0.92071924081E-02  0.11175691872E-01  0.62069651081E-02  0.15762487675E-01  0.51100000000E-03 0.  1.
</event>
<event>
 8    1  0.1191842E+005  0.1043930E+01  0.7957747E-01            NaN
         13   -1    0    0    0    0  0.00000000000E+00  0.00000000000E+00  0.74505805969E-08  0.10566000000E+00  0.10566000000E+00 0. -1.
     999900   -1    0    0    0    0 -0.00000000000E+00 -0.00000000000E+00 -0.74505805969E-08  0.93827000000E+00  0.93827000000E+00 0. -1.
     999902    2    1    2    0    0 -0.16578403032E-02 -0.62081616415E-02 -0.22546684984E-01  0.10204855399E+01  0.10202161999E+01 0.  0.
     999903    2    3    3    0    0 -0.84440217433E-01  0.93142055127E-01 -0.30781935461E-01  0.13099624436E+00  0.20171656662E-01 0.  0.
         14    1    1    2    0    0  0.16578403032E-02  0.62081616415E-02  0.22546684984E-01  0.23444460096E-01  0.00000000000E+00 0. -1.
     999901    1    3    3    0    0  0.82782377130E-01 -0.99350216768E-01  0.82352504777E-02  0.88948929554E+00  0.88000000000E+00 0.  1.
        -11    1    4    4    0    0 -0.63332786684E-01  0.66063416057E-01 -0.13348775926E-01  0.92487122077E-01  0.51100000000E-03 0.  1.
         11    1    4    4    0    0 -0.21107430749E-01  0.27078639070E-01 -0.17433159536E-01  0.38509122284E-01  0.51100000000E-03 0. -1.
</event>
<event>
 8    1  0.1191842E+005  0.1043930E+01  0.7957747E-01            NaN
         13   -1    0    0    0    0  0.00000000000E+00  0.00000000000E+00  0.74505805969E-08  0.10566000000E+00  0.10566000000E+00 0. -1.
     999900   -1    0    0    0    0 -0.00000000000E+00 -0.00000000000E+00 -0.74505805969E-08  0.93827000000E+00  0.93827000000E+00 0. -1.
     999902    2    1    2    0    0 -0.16845689437E-01 -0.85124004155E-02  0.14186748335E-01  0.10203185189E+01  0.10200452823E+01 0.  0.
     999903    2    3    3    0    0 -0.86865334649E-01  0.43250415425E-01  0.88386263285E-01  0.13291347727E+00  0.20920709924E-01 0.  0.
         14    1    1    2    0    0  0.16845689437E-01  0.85124004155E-02 -0.14186748335E-01  0.23611481143E-01  0.00000000000E+00 0.  1.
     999901    1    3    3    0    0  0.70019645213E-01 -0.51762815841E-01 -0.74199514950E-01  0.88740504159E+00  0.88000000000E+00 0. -1.
        -11    1    4    4    0    0 -0.62605574034E-01  0.36150113843E-01  0.54015049900E-01  0.90245085005E-01  0.51100000000E-03 0.  1.
         11    1    4    4    0    0 -0.24259760616E-01  0.71003015824E-02  0.34371213386E-01  0.42668392263E-01  0.51100000000E-03 0. -1.
</event>
<event>
 8    1  0.1191842E+005  0.1043930E+01  0.7957747E-01            NaN
         13   -1    0    0    0    0  0.00000000000E+00  0.00000000000E+00  0.74505805969E-08  0.10566000000E+00  0.10566000000E+00 0. -1.
     999900   -1    0    0    0    0 -0.00000000000E+00 -0.00000000000E+00 -0.74505805969E-08  0.93827000000E+00  0.93827000000E+00 0.  1.
     999902    2    1    2    0    0  0.11320150984E-01  0.17699178539E-01 -0.11112433380E-01  0.10201625240E+01  0.10198856223E+01 0.  0.
     999903    2    3    3    0    0  0.93577693559E-01  0.38278912804E-01 -0.84159517666E-01  0.13307419397E+00  0.20096188431E-01 0.  0.
         14    1    1    2    0    0 -0.11320150984E-01 -0.17699178539E-01  0.11112433380E-01  0.23767475989E-01  0.00000000000E+00 0. -1.
     999901    1    3    3    0    0 -0.82257542575E-01 -0.20579734264E-01  0.73047084287E-01  0.88708833004E+00  0.88000000000E+00 0. -1.
        -11    1    4    4    0    0  0.59261843210E-01  0.19687732008E-01 -0.62869004523E-01  0.88613462312E-01  0.51100000000E-03 0. -1.
         11    1    4    4    0    0  0.34315850349E-01  0.18591180796E-01 -0.21290513144E-01  0.44460731657E-01  0.51100000000E-03 0.  1.
</event>
<event>
 8    1  0.1191842E+005  0.1043930E+01  0.7957747E-01            NaN
         13   -1    0    0    0    0  0.00000000000E+00  0.00000000000E+00  0.74505805969E-08  0.10566000000E+00  0.10566000000E+00 0.  1.
     999900   -1    0    0    0    0 -0.00000000000E+00 -0.00000000000E+00 -0.74505805969E-08  0.93827000000E+00  0.93827000000E+00 0.  1.
     999902    2    1    2    0    0  0.16970248079E-02 -0.19768585454E-01  0.10532067642E-01  0.10214666674E+01  0.10212196391E+01 0.  0.
     999903    2    3    3    0    0 -0.42713483065E-01 -0.10290993279E+00 -0.69369662606E-01  0.13283341155E+00  0.20436957507E-01 0.  0.
         14    1    1    2    0    0 -0.16970248079E-02  0.19768585454E-01 -0.10532067642E-01  0.22463332631E-01  0.00000000000E+00 0. -1.
     999901    1    3    3    0    0  0.44410507872E-01  0.83141347336E-01  0.79901730248E-01  0.88863325582E+00  0.88000000000E+00 0. -1.
        -11    1    4    4    0    0 -0.29675475741E-01 -0.49234357523E-01 -0.28812438332E-01  0.64304537514E-01  0.51100000000E-03 0. -1.
         11    1    4    4    0    0 -0.13038007323E-01 -0.53675575268E-01 -0.40557224274E-01  0.68528874039E-01  0.51100000000E-03 0.  1.
</event>
<event>
 8    1  0.1191842E+005  0.1043930E+01  0.7957747E-01            NaN
         13   -1    0    0    0    0  0.00000000000E+00  0.00000000000E+00  0.74505805969E-08  0.10566000000E+00  0.10566000000E+00 0.  1.
     999900   -1    0    0    0    0 -0.00000000000E+00 -0.00000000000E+00 -0.74505805969E-08  0.93827000000E+00  0.93827000000E+00 0.  1.
     999902    2    1    2    0    0 -0.31479652615E-02 -0.22986634338E-01  0.94541029156E-02  0.10188765550E+01  0.10185684853E+01 0.  0.
     999903    2    3    3    0    0  0.10040720633E+00 -0.79473411523E-01  0.18787389807E-01  0.13095677272E+00  0.19976988823E-01 0.  0.
         14    1    1    2    0    0  0.31479652615E-02  0.22986634338E-01 -0.94541029156E-02  0.25053444981E-01  0.00000000000E+00 0. -1.
     999901    1    3    3    0    0 -0.10355517159E+00  0.56486777185E-01 -0.93332868915E-02  0.88791978230E+00  0.88000000000E+00 0. -1.
        -11    1    4    4    0    0  0.71542812070E-01 -0.44613459354E-01  0.13461258140E-01  0.85382675679E-01  0.51100000000E-03 0.  1.
         11    1    4    4    0    0  0.28864394260E-01 -0.34859952169E-01  0.53261316666E-02  0.45574097037E-01  0.51100000000E-03 0. -1.
</event>
<event>
 8    1  0.1191842E+005  0.1043930E+01  0.7957747E-01            NaN
         13   -1    0    0    0    0  0.00000000000E+00  0.00000000000E+00  0.74505805969E-08  0.10566000000E+00  0.10566000000E+00 0. -1.
     999900   -1    0    0    0    0 -0.00000000000E+00 -0.00000000000E+00 -0.74505805969E-08  0.93827000000E+00  0.93827000000E+00 0.  1.
     999902    2    1    2    0    0 -0.18588638000E-01  0.85214737328E-02  0.13118770222E-01  0.10196348336E+01  0.10193453482E+01 0.  0.
     999903    2    3    3    0    0  0.70084451064E-01 -0.27625215048E-01 -0.10098073704E+00  0.12711693610E+00  0.16929955774E-01 0.  0.
         14    1    1    2    0    0  0.18588638000E-01 -0.85214737328E-02 -0.13118770222E-01  0.24295166380E-01  0.00000000000E+00 0. -1.
     999901    1    3    3    0    0 -0.88673089064E-01  0.36146688780E-01  0.11409950727E+00  0.89251789752E+00  0.88000000000E+00 0. -1.
        -11    1    4    4    0    0  0.29203377180E-01 -0.43793080659E-02 -0.47137829783E-01  0.55625998378E-01  0.51100000000E-03 0. -1.
         11    1    4    4    0    0  0.40881073884E-01 -0.23245906982E-01 -0.53842907260E-01  0.71490937722E-01  0.51100000000E-03 0.  1.
</event>
<event>
 8    1  0.1191842E+005  0.1043930E+01  0.7957747E-01            NaN
         13   -1    0    0    0    0  0.00000000000E+00  0.00000000000E+00  0.74505805969E-08  0.10566000000E+00  0.10566000000E+00 0.  1.
     999900   -1    0    0    0    0 -0.00000000000E+00 -0.00000000000E+00 -0.74505805969E-08  0.93827000000E+00  0.93827000000E+00 0. -1.
     999902    2    1    2    0    0  0.20687580711E-01  0.58524778559E-02 -0.75225463810E-02  0.10211524629E+01  0.10208983966E+01 0.  0.
     999903    2    3    3    0    0  0.89048006799E-01  0.82020333662E-01  0.51307885404E-01  0.13326975114E+00  0.21712780028E-01 0.  0.
         14    1    1    2    0    0 -0.20687580711E-01 -0.58524778559E-02  0.75225463810E-02  0.22777537110E-01  0.00000000000E+00 0.  1.
     999901    1    3    3    0    0 -0.68360426088E-01 -0.76167855806E-01 -0.58830431785E-01  0.88788271175E+00  0.88000000000E+00 0.  1.
        -11    1    4    4    0    0  0.87159676650E-01  0.72781996135E-01  0.47221378593E-01  0.12298027448E+00  0.51100000000E-03 0.  1.
         11    1    4    4    0    0  0.18883301491E-02  0.92383375268E-02  0.40865068111E-02  0.10289476660E-01  0.51100000000E-03 0. -1.
</event>
<event>
 8    1  0.1191842E+005  0.1043930E+01  0.7957747E-01            NaN
         13   -1    0    0    0    0  0.00000000000E+00  0.00000000000E+00  0.74505805969E-08  0.10566000000E+00  0.10566000000E+00 0. -1.
     999900   -1    0    0    0    0 -0.00000000000E+00 -0.00000000000E+00 -0.74505805969E-08  0.93827000000E+00  0.93827000000E+00 0. -1.
     999902    2    1    2    0    0  0.24475032796E-01  0.16132924833E-01  0.21263459626E-02  0.10145391878E+01  0.10141133782E+01 0.  0.
     999903    2    3    3    0    0  0.12394056461E+00  0.19175453656E-01 -0.21457531879E-01  0.12861659057E+00  0.18784038890E-01 0.  0.
         14    1    1    2    0    0 -0.24475032796E-01 -0.16132924833E-01 -0.21263459626E-02  0.29390812190E-01  0.00000000000E+00 0.  1.
     999901    1    3    3    0    0 -0.99465531816E-01 -0.30425288229E-02  0.23583877842E-01  0.88592259724E+00  0.88000000000E+00 0.  1.
        -11    1    4    4    0    0  0.45213659475E-01  0.34907494920E-02  0.63771946465E-03  0.45355574545E-01  0.51100000000E-03 0. -1.
         11    1    4    4    0    0  0.78726905137E-01  0.15684704164E-01 -0.22095251344E-01  0.83261016029E-01  0.51100000000E-03 0.  1.
</event>
<event>
 8    1  0.1191842E+005  0.1043930E+01  0.7957747E-01            NaN
         13   -1    0    0    0    0  0.00000000000E+00  0.00000000000E+00  0.74505805969E-08  0.10566000000E+00  0.10566000000E+00 0.  1.
     999900   -1    0    0    0    0 -0.00000000000E+00 -0.00000000000E+00 -0.74505805969E-08  0.93827000000E+00  0.93827000000E+00 0. -1.
     999902    2    1    2    0    0  0.25310774807E-02  0.15164738881E-01  0.16681152648E-01  0.10212443986E+01  0.10209924021E+01 0.  0.
     999903    2    3    3    0    0  0.37964945892E-01 -0.10986866397E+00  0.56096825087E-01  0.13082735803E+00  0.21365471775E-01 0.  0.
         14    1    1    2    0    0 -0.25310774807E-02 -0.15164738881E-01 -0.16681152648E-01  0.22685601430E-01  0.00000000000E+00 0.  1.
     999901    1    3    3    0    0 -0.35433868412E-01  0.12503340285E+00 -0.39415672438E-01  0.89041704054E+00  0.88000000000E+00 0. -1.
        -11    1    4    4    0    0  0.33491480237E-01 -0.74278011794E-01  0.31634861473E-01  0.87406680899E-01  0.51100000000E-03 0. -1.
         11    1    4    4    0    0  0.44734656559E-02 -0.35590652175E-01  0.24461963614E-01  0.43420677126E-01  0.51100000000E-03 0.  1.
</event>
<event>
 8    1  0.1191842E+005  0.1043930E+01  0.7957747E-01            NaN
         13   -1    0    0    0    0  0.00000000000E+00  0.00000000000E+00  0.74505805969E-08  0.10566000000E+00  0.10566000000E+00 0. -1.
     999900   -1    0    0    0    0 -0.00000000000E+00 -0.00000000000E+00 -0.74505805969E-08  0.93827000000E+00  0.93827000000E+00 0. -1.
     999902    2    1    2    0    0 -0.72946170360E-02  0.45427532678E-02  0.27018826074E-01  0.10155774868E+01  0.10151816422E+01 0.  0.
     999903    2    3    3    0    0  0.10271084068E+00  0.35267008446E-01  0.63678841698E-01  0.12743946970E+00  0.19812745377E-01 0.  0.
         14    1    1    2    0    0  0.72946170360E-02 -0.45427532678E-02 -0.27018826074E-01  0.28352513246E-01  0.00000000000E+00 0.  1.
     999901    1    3    3    0    0 -0.11000545772E+00 -0.30724255178E-01 -0.36660015624E-01  0.88813801705E+00  0.88000000000E+00 0. -1.
        -11    1    4    4    0    0  0.70008854724E-01  0.14775735646E-01  0.45344952544E-01  0.84711203190E-01  0.51100000000E-03 0.  1.
         11    1    4    4    0    0  0.32701985961E-01  0.20491272800E-01  0.18333889154E-01  0.42728266513E-01  0.51100000000E-03 0. -1.
</event>
<event>
 8    1  0.1191842E+005  0.1043930E+01  0.7957747E-01            NaN
         13   -1    0    0    0    0  0.00000000000E+00  0.00000000000E+00  0.74505805969E-08  0.10566000000E+00  0.10566000000E+00 0. -1.
     999900   -1    0    0    0    0 -0.00000000000E+00 -0.00000000000E+00 -0.74505805969E-08  0.93827000000E+00  0.93827000000E+00 0.  1.
     999902    2    1    2    0    0  0.60416436617E-02  0.30014478561E-02  0.19897706725E-01  0.10229197910E+01  0.10227039992E+01 0.  0.
     999903    2    3    3    0    0  0.12482017770E+00  0.11683957421E-01  0.44300995007E-01  0.13456217916E+00  0.20683575124E-01 0.  0.
         14    1    1    2    0    0 -0.60416436617E-02 -0.30014478561E-02 -0.19897706725E-01  0.21010208954E-01  0.00000000000E+00 0.  1.
     999901    1    3    3    0    0 -0.11877853404E+00 -0.86825095648E-02 -0.24403288283E-01  0.88835761189E+00  0.88000000000E+00 0.  1.
        -11    1    4    4    0    0  0.91276466313E-01  0.15658426354E-01  0.26249081213E-01  0.96259311258E-01  0.51100000000E-03 0. -1.
         11    1    4    4    0    0  0.33543711385E-01 -0.39744689330E-02  0.18051913794E-01  0.38302867900E-01  0.51100000000E-03 0.  1.
</event>
<event>
 8    1  0.1191842E+005  0.1043930E+01  0.7957747E-01            NaN
         13   -1    0    0    0    0  0.00000000000E+00  0.00000000000E+00  0.74505805969E-08  0.10566000000E+00  0.10566000000E+00 0. -1.
     999900   -1    0    0    0    0 -0.00000000000E+00 -0.00000000000E+00 -0.74505805969E-08  0.93827000000E+00  0.93827000000E+00 0.  1.
     999902    2    1    2    0    0  0.15276227299E-01  0.10157974469E-01  0.14206603623E-01  0.10207270874E+01  0.10204633319E+01 0.  0.
     999903    2    3    3    0    0  0.81903855362E-01  0.97892722242E-01  0.34279377035E-01  0.13363095789E+00  0.19771965655E-01 0.  0.
         14    1    1    2    0    0 -0.15276227299E-01 -0.10157974469E-01 -0.14206603623E-01  0.23202912583E-01  0.00000000000E+00 0. -1.
     999901    1    3    3    0    0 -0.66627628063E-01 -0.87734747772E-01 -0.20072773412E-01  0.88709612953E+00  0.88000000000E+00 0. -1.
        -11    1    4    4    0    0  0.69763825757E-01  0.89236047946E-01  0.35389202306E-01  0.11867063831E+00  0.51100000000E-03 0. -1.
         11    1    4    4    0    0  0.12140029606E-01  0.86566742955E-02 -0.11098252704E-02  0.14960319576E-01  0.51100000000E-03 0.  1.
</event>
<event>
 8    1  0.1191842E+005  0.1043930E+01  0.7957747E-01            NaN
         13   -1    0    0    0    0  0.00000000000E+00  0.00000000000E+00  0.74505805969E-08  0.10566000000E+00  0.10566000000E+00 0.  1.
     999900   -1    0    0    0    0 -0.00000000000E+00 -0.00000000000E+00 -0.74505805969E-08  0.93827000000E+00  0.93827000000E+00 0.  1.
     999902    2    1    2    0    0  0.22783411644E-01 -0.18816774782E-02 -0.53595103674E-02  0.10204491800E+01  0.10201789941E+01 0.  0.
     999903    2    3    3    0    0  0.18587802637E-01  0.17018065998E-01 -0.12776931504E+00  0.13176534212E+00  0.20049602027E-01 0.  0.
         14    1    1    2    0    0 -0.22783411644E-01  0.18816774782E-02  0.53595103674E-02  0.23480819996E-01  0.00000000000E+00 0.  1.
     999901    1    3    3    0    0  0.41956090076E-02 -0.18899743476E-01  0.12240980467E+00  0.88868383788E+00  0.88000000000E+00 0. -1.
        -11    1    4    4    0    0  0.19320634780E-01  0.20676088696E-01 -0.10844034735E+00  0.11207300133E+00  0.51100000000E-03 0.  1.
         11    1    4    4    0    0 -0.73283214321E-03 -0.36580226978E-02 -0.19328967690E-01  0.19692340794E-01  0.51100000000E-03 0. -1.
</event>
<event>
 8    1  0.1191842E+005  0.1043930E+01  0.7957747E-01            NaN
         13   -1    0    0    0    0  0.00000000000E+00  0.00000000000E+00  0.74505805969E-08  0.10566000000E+00  0.10566000000E+00 0.  1.
     999900   -1    0    0    0    0 -0.00000000000E+00 -0.00000000000E+00 -0.74505805969E-08  0.93827000000E+00  0.93827000000E+00 0. -1.
     999902    2    1    2    0    0  0.44363607501E-03 -0.26700078301E-03 -0.24054732737E-01  0.10198696952E+01  0.10195858457E+01 0.  0.
     999903    2    3    3    0    0 -0.66594305438E-01 -0.10658166977E+00  0.24888022418E-01  0.12959317197E+00  0.19506991415E-01 0.  0.
         14    1    1    2    0    0 -0.44363607501E-03  0.26700078301E-03  0.24054732737E-01  0.24060304850E-01  0.00000000000E+00 0.  1.
     999901    1    3    3    0    0  0.67037941513E-01  0.10631466898E+00 -0.48942755156E-01  0.89027652318E+00  0.88000000000E+00 0. -1.
        -11    1    4    4    0    0 -0.13516196627E-01 -0.33306466326E-01  0.13495204670E-01  0.38397785620E-01  0.51100000000E-03 0.  1.
         11    1    4    4    0    0 -0.53078108811E-01 -0.73275203441E-01  0.11392817749E-01  0.91195386351E-01  0.51100000000E-03 0. -1.
</event>
<event>
 8    1  0.1191842E+005  0.1043930E+01  0.7957747E-01            NaN
         13   -1    0    0    0    0  0.00000000000E+00  0.00000000000E+00  0.74505805969E-08  0.10566000000E+00  0.10566000000E+00 0. -1.
     999900   -1    0    0    0    0 -0.00000000000E+00 -0.00000000000E+00 -0.74505805969E-08  0.93827000000E+00  0.93827000000E+00 0.  1.
     999902    2    1    2    0    0  0.12388322436E-01 -0.63246209441E-02  0.18140857978E-01  0.10210703830E+01  0.10208144615E+01 0.  0.
     999903    2    3    3    0    0  0.10036148070E+00  0.73442572003E-01  0.41875621818E-01  0.13277683877E+00  0.20245567896E-01 0.  0.
         14    1    1    2    0    0 -0.12388322436E-01  0.63246209441E-02 -0.18140857978E-01  0.22859617036E-01  0.00000000000E+00 0.  1.
     999901    1    3    3    0    0 -0.87973158265E-01 -0.79767192947E-01 -0.23734763840E-01  0.88829354420E+00  0.88000000000E+00 0. -1.
        -11    1    4    4    0    0  0.53595046709E-01  0.47312791674E-01  0.31881217812E-01  0.78279003940E-01  0.51100000000E-03 0. -1.
         11    1    4    4    0    0  0.46766433992E-01  0.26129780329E-01  0.99944040060E-02  0.54497834827E-01  0.51100000000E-03 0.  1.
</event>
<event>
 8    1  0.1191842E+005  0.1043930E+01  0.7957747E-01            NaN
         13   -1    0    0    0    0  0.00000000000E+00  0.00000000000E+00  0.74505805969E-08  0.10566000000E+00  0.10566000000E+00 0. -1.
     999900   -1    0    0    0    0 -0.00000000000E+00 -0.00000000000E+00 -0.74505805969E-08  0.93827000000E+00  0.93827000000E+00 0. -1.
     999902    2    1    2    0    0 -0.23167592741E-01 -0.31031861752E-03  0.47308061764E-02  0.10202822902E+01  0.10200082046E+01 0.  0.
     999903    2    3    3    0    0 -0.49485753143E-02 -0.71667047468E-01  0.10772276583E+00  0.13122039186E+00  0.21305935107E-01 0.  0.
         14    1    1    2    0    0  0.23167592741E-01  0.31031861752E-03 -0.47308061764E-02  0.23647709786E-01  0.00000000000E+00 0.  1.
     999901    1    3    3    0    0 -0.18219017427E-01  0.71356728851E-01 -0.10299195966E+00  0.88906189835E+00  0.88000000000E+00 0. -1.
        -11    1    4    4    0    0 -0.92918861647E-02 -0.16251272586E-01  0.34888954643E-01  0.39597263621E-01  0.51100000000E-03 0. -1.
         11    1    4    4    0    0  0.43433108504E-02 -0.55415774882E-01  0.72833811191E-01  0.91623128240E-01  0.51100000000E-03 0.  1.
</event>
<event>
 8    1  0.1191842E+005  0.1043930E+01  0.7957747E-01            NaN
         13   -1    0    0    0    0  0.00000000000E+00  0.00000000000E+00  0.74505805969E-08  0.10566000000E+00  0.10566000000E+00 0. -1.
     999900   -1    0    0    0    0 -0.00000000000E+00 -0.00000000000E+00 -0.74505805969E-08  0.93827000000E+00  0.93827000000E+00 0.  1.
     999902    2    1    2    0    0  0.64656244352E-02 -0.41944086189E-02  0.23190142347E-01  0.10194927320E+01  0.10191998090E+01 0.  0.
     999903    2    3    3    0    0  0.48661146841E-01 -0.88665808164E-01  0.83067827603E-01  0.13241820494E+00  0.20119251153E-01 0.  0.
         14    1    1    2    0    0 -0.64656244352E-02  0.41944086189E-02 -0.23190142347E-01  0.24437267955E-01  0.00000000000E+00 0. -1.
     999901    1    3    3    0    0 -0.42195522406E-01  0.84471399545E-01 -0.59877685256E-01  0.88707452711E+00  0.88000000000E+00 0.  1.
        -11    1    4    4    0    0  0.22739731309E-01 -0.57105921452E-01  0.57891018674E-01  0.84438218888E-01  0.51100000000E-03 0.  1.
         11    1    4    4    0    0  0.25921415532E-01 -0.31559886711E-01  0.25176808929E-01  0.47979986049E-01  0.51100000000E-03 0. -1.
</event>
<event>
 8    1  0.1191842E+005  0.1043930E+01  0.7957747E-01            NaN
         13   -1    0    0    0    0  0.00000000000E+00  0.00000000000E+00  0.74505805969E-08  0.10566000000E+00  0.10566000000E+00 0.  1.
     999900   -1    0    0    0    0 -0.00000000000E+00 -0.00000000000E+00 -0.74505805969E-08  0.93827000000E+00  0.93827000000E+00 0.  1.
     999902    2    1    2    0    0  0.25104066397E-02  0.84403689633E-02  0.21451319202E-01  0.10207416179E+01  0.10204781964E+01 0.  0.
     999903    2    3    3    0    0  0.11664658692E+00 -0.39038700225E-01  0.43279693652E-01  0.13183340688E+00  0.19402807278E-01 0.  0.
         14    1    1    2    0    0 -0.25104066397E-02 -0.84403689633E-02 -0.21451319202E-01  0.23188382117E-01  0.00000000000E+00 0. -1.
     999901    1    3    3    0    0 -0.11413618028E+00  0.47479069188E-01 -0.21828374451E-01  0.88890821100E+00  0.88000000000E+00 0. -1.
        -11    1    4    4    0    0  0.66885078853E-01 -0.32356103767E-01  0.26792685843E-01  0.78985064157E-01  0.51100000000E-03 0. -1.
         11    1    4    4    0    0  0.49761508071E-01 -0.66825964576E-02  0.16487007809E-01  0.52848342721E-01  0.51100000000E-03 0.  1.
</event>
<event>
 7    1  0.1191842E+005  0.1043930E+01  0.7957747E-01            NaN
         13   -1    0    0    0    0  0.00000000000E+00  0.00000000000E+00  0.74505805969E-08  0.10566000000E+00  0.10566000000E+00 0. -1.
     999900   -1    0    0    0    0 -0.00000000000E+00 -0.00000000000E+00 -0.74505805969E-08  0.93827000000E+00  0.93827000000E+00 0. -1.
     999902    2    1    2    0    0  0.17320100912E-01 -0.15330944020E-02 -0.23190599920E-01  0.10149448280E+01  0.10145308589E+01 0.  0.
         14    1    1    2    0    0 -0.17320100912E-01  0.15330944020E-02  0.23190599920E-01  0.28985172049E-01  0.00000000000E+00 0. -1.
     999901    1    3    3    0    0  0.64353523173E-01  0.76334206651E-02  0.87335986740E-01  0.88669454698E+00  0.88000000000E+00 0.  1.
        -11    1    3    3    0    0 -0.24152661336E-01 -0.26857906711E-01 -0.61945835030E-01  0.71709454056E-01  0.51100000000E-03 0.  1.
         11    1    3    3    0    0 -0.22880760926E-01  0.17691391644E-01 -0.48580751630E-01  0.56540826920E-01  0.51100000000E-03 0. -1.
</event>
<event>
 8    1  0.1191842E+005  0.1043930E+01  0.7957747E-01            NaN
         13   -1    0    0    0    0  0.00000000000E+00  0.00000000000E+00  0.74505805969E-08  0.10566000000E+00  0.10566000000E+00 0. -1.
     999900   -1    0    0    0    0 -0.00000000000E+00 -0.00000000000E+00 -0.74505805969E-08  0.93827000000E+00  0.93827000000E+00 0.  1.
     999902    2    1    2    0    0  0.44350098770E-02 -0.15261554636E-01  0.18553712761E-01  0.10195000057E+01  0.10192072591E+01 0.  0.
     999903    2    3    3    0    0  0.93291424802E-01  0.76928922914E-01 -0.38073070848E-01  0.12843259008E+00  0.20591802942E-01 0.  0.
         14    1    1    2    0    0 -0.44350098770E-02  0.15261554636E-01 -0.18553712761E-01  0.24429994264E-01  0.00000000000E+00 0.  1.
     999901    1    3    3    0    0 -0.88856414925E-01 -0.92190477549E-01  0.56626783609E-01  0.89106741566E+00  0.88000000000E+00 0. -1.
        -11    1    4    4    0    0  0.50546205136E-01  0.36731428145E-01 -0.96283003757E-02  0.63222479834E-01  0.51100000000E-03 0. -1.
         11    1    4    4    0    0  0.42745219665E-01  0.40197494768E-01 -0.28444770473E-01  0.65210110245E-01  0.51100000000E-03 0.  1.
</event>
<event>
 8    1  0.1191842E+005  0.1043930E+01  0.7957747E-01            NaN
         13   -1    0    0    0    0  0.00000000000E+00  0.00000000000E+00  0.74505805969E-08  0.10566000000E+00  0.10566000000E+00 0. -1.
     999900   -1    0    0    0    0 -0.00000000000E+00 -0.00000000000E+00 -0.74505805969E-08  0.93827000000E+00  0.93827000000E+00 0.  1.
     999902    2    1    2    0    0  0.17790219010E-01  0.72363780097E-02 -0.22890233747E-01  0.10140499086E+01  0.10136095882E+01 0.  0.
     999903    2    3    3    0    0  0.72343808827E-01 -0.18677246249E-01  0.96778024924E-01  0.12389930215E+00  0.20064515010E-01 0.  0.
         14    1    1    2    0    0 -0.17790219010E-01 -0.72363780097E-02  0.22890233747E-01  0.29880091367E-01  0.00000000000E+00 0. -1.
     999901    1    3    3    0    0 -0.54553589817E-01  0.25913624259E-01 -0.11966825867E+00  0.89015060648E+00  0.88000000000E+00 0.  1.
        -11    1    4    4    0    0  0.50574268440E-01 -0.18581251021E-01  0.79796966186E-01  0.96285182927E-01  0.51100000000E-03 0. -1.
         11    1    4    4    0    0  0.21769540387E-01 -0.95995228748E-04  0.16981058738E-01  0.27614119226E-01  0.51100000000E-03 0.  1.
</event>
<event>
 8    1  0.1191842E+005  0.1043930E+01  0.7957747E-01            NaN
         13   -1    0    0    0    0  0.00000000000E+00  0.00000000000E+00  0.74505805969E-08  0.10566000000E+00  0.10566000000E+00 0.  1.
     999900   -1    0    0    0    0 -0.00000000000E+00 -0.00000000000E+00 -0.74505805969E-08  0.93827000000E+00  0.93827000000E+00 0. -1.
     999902    2    1    2    0    0  0.17112797240E-01 -0.28480182496E-02 -0.16307314223E-01  0.10201205999E+01  0.10198427088E+01 0.  0.
     999903    2    3    3    0    0 -0.10708383762E+00 -0.65872416969E-01 -0.18871942174E-01  0.12916411594E+00  0.22827506380E-01 0.  0.
         14    1    1    2    0    0 -0.17112797240E-01  0.28480182496E-02  0.16307314223E-01  0.23809400129E-01  0.00000000000E+00 0.  1.
     999901    1    3    3    0    0  0.12419663486E+00  0.63024398720E-01  0.25646279515E-02  0.89095648393E+00  0.88000000000E+00 0. -1.
        -11    1    4    4    0    0 -0.40312707903E-01 -0.33116307242E-01  0.99040858322E-03  0.52182815696E-01  0.51100000000E-03 0. -1.
         11    1    4    4    0    0 -0.66771129719E-01 -0.32756109728E-01 -0.19862350757E-01  0.76981300242E-01  0.51100000000E-03 0.  1.
</event>
<event>
 8    1  0.1191842E+005  0.1043930E+01  0.7957747E-01            NaN
         13   -1    0    0    0    0  0.00000000000E+00  0.00000000000E+00  0.74505805969E-08  0.10566000000E+00  0.10566000000E+00 0. -1.
     999900   -1    0    0    0    0 -0.00000000000E+00 -0.00000000000E+00 -0.74505805969E-08  0.93827000000E+00  0.93827000000E+00 0. -1.
     999902    2    1    2    0    0  0.12171344501E-01 -0.20649171895E-01  0.17895606200E-02  0.10198939343E+01  0.10196106633E+01 0.  0.
     999903    2    3    3    0    0  0.58918600515E-02 -0.12817028419E+00  0.27918924756E-01  0.13294243327E+00  0.20781925807E-01 0.  0.
         14    1    1    2    0    0 -0.12171344501E-01  0.20649171895E-01 -0.17895606200E-02  0.24036065696E-01  0.00000000000E+00 0.  1.
     999901    1    3    3    0    0  0.62794844498E-02  0.10752111229E+00 -0.26129364136E-01  0.88695150103E+00  0.88000000000E+00 0. -1.
        -11    1    4    4    0    0 -0.44535026679E-02 -0.60582797223E-01  0.55567880516E-02  0.61002032915E-01  0.51100000000E-03 0.  1.
         11    1    4    4    0    0  0.10345362719E-01 -0.67587486968E-01  0.22362136705E-01  0.71940400356E-01  0.51100000000E-03 0. -1.
</event>
<event>
 8    1  0.1191842E+005  0.1043930E+01  0.7957747E-01            NaN
         13   -1    0    0    0    0  0.00000000000E+00  0.00000000000E+00  0.74505805969E-08  0.10566000000E+00  0.10566000000E+00 0. -1.
     999900   -1    0    0    0    0 -0.00000000000E+00 -0.00000000000E+00 -0.74505805969E-08  0.93827000000E+00  0.93827000000E+00 0.  1.
     999902    2    1    2    0    0 -0.80403364476E-02 -0.57330491042E-02  0.21393695384E-01  0.10203672102E+01  0.10200951125E+01 0.  0.
     999903    2    3    3    0    0 -0.33517512483E-03 -0.12365159781E+00  0.42356645035E-01  0.13222105165E+00  0.19962242782E-01 0.  0.
         14    1    1    2    0    0  0.80403364476E-02  0.57330491042E-02 -0.21393695384E-01  0.23562789827E-01  0.00000000000E+00 0.  1.
     999901    1    3    3    0    0 -0.77051613228E-02  0.11791854871E+00 -0.20962949651E-01  0.88814615852E+00  0.88000000000E+00 0.  1.
        -11    1    4    4    0    0 -0.86332795576E-02 -0.29692437473E-01  0.10301145216E-01  0.32596764759E-01  0.51100000000E-03 0.  1.
         11    1    4    4    0    0  0.82981044328E-02 -0.93959160340E-01  0.32055499820E-01  0.99624286891E-01  0.51100000000E-03 0. -1.
</event>
<event>
 8    1  0.1191842E+005  0.1043930E+01  0.7957747E-01            NaN
         13   -1    0    0    0    0  0.00000000000E+00  0.00000000000E+00  0.74505805969E-08  0.10566000000E+00  0.10566000000E+00 0. -1.
     999900   -1    0    0    0    0 -0.00000000000E+00 -0.00000000000E+00 -0.74505805969E-08  0.93827000000E+00  0.93827000000E+00 0. -1.
     999902    2    1    2    0    0 -0.20684220172E-01 -0.13015255744E-02 -0.11731265692E-01  0.10201150146E+01  0.10198369917E+01 0.  0.
     999903    2    3    3    0    0 -0.85326828379E-01 -0.12131291037E-01 -0.99612834499E-01  0.13331226276E+00  0.20533064568E-01 0.  0.
         14    1    1    2    0    0  0.20684220172E-01  0.13015255744E-02  0.11731265692E-01  0.23814985359E-01  0.00000000000E+00 0. -1.
     999901    1    3    3    0    0  0.64642608207E-01  0.10829765462E-01  0.87881568807E-01  0.88680275189E+00  0.88000000000E+00 0.  1.
        -11    1    4    4    0    0 -0.30115795937E-01 -0.76547282947E-02 -0.50417736347E-01  0.59226390144E-01  0.51100000000E-03 0.  1.
         11    1    4    4    0    0 -0.55211032442E-01 -0.44765627421E-02 -0.49195098152E-01  0.74085872611E-01  0.51100000000E-03 0. -1.
</event>
<event>
 8    1  0.1191842E+005  0.1043930E+01  0.7957747E-01            NaN
         13   -1    0    0    0    0  0.00000000000E+00  0.00000000000E+00  0.74505805969E-08  0.10566000000E+00  0.10566000000E+00 0.  1.
     999900   -1    0    0    0    0 -0.00000000000E+00 -0.00000000000E+00 -0.74505805969E-08  0.93827000000E+00  0.93827000000E+00 0. -1.
     999902    2    1    2    0    0  0.81966187772E-02  0.35297851846E-02  0.22046479940E-01  0.10201457359E+01  0.10198684382E+01 0.  0.
     999903    2    3    3    0    0  0.13031449741E+00  0.51090840789E-02  0.49201552891E-02  0.13154651154E+00  0.16501690684E-01 0.  0.
         14    1    1    2    0    0 -0.81966187772E-02 -0.35297851846E-02 -0.22046479940E-01  0.23784264138E-01  0.00000000000E+00 0. -1.
     999901    1    3    3    0    0 -0.12211787863E+00 -0.15792988943E-02  0.17126324651E-01  0.88859922432E+00  0.88000000000E+00 0.  1.
        -11    1    4    4    0    0  0.56797452213E-02  0.33839166221E-02  0.17514398668E-02  0.68585027587E-02  0.51100000000E-03 0.  1.
         11    1    4    4    0    0  0.12463475219E+00  0.17251674568E-02  0.31687154223E-02  0.12468800878E+00  0.51100000000E-03 0. -1.
</event>
<event>
 8    1  0.1191842E+005  0.1043930E+01  0.7957747E-01            NaN
         13   -1    0    0    0    0  0.00000000000E+00  0.00000000000E+00  0.74505805969E-08  0.10566000000E+00  0.10566000000E+00 0. -1.
     999900   -1    0    0    0    0 -0.00000000000E+00 -0.00000000000E+00 -0.74505805969E-08  0.93827000000E+00  0.93827000000E+00 0.  1.
     999902    2    1    2    0    0 -0.22754748896E-01  0.73898182894E-02  0.37525405175E-02  0.10197128661E+01  0.10194252596E+01 0.  0.
     999903    2    3    3    0    0  0.98118257315E-01 -0.56061422146E-01  0.55381354066E-01  0.12769163438E+00  0.21632929529E-01 0.  0.
         14    1    1    2    0    0  0.22754748896E-01 -0.73898182894E-02 -0.37525405175E-02  0.24217133852E-01  0.00000000000E+00 0. -1.
     999901    1    3    3    0    0 -0.12087300621E+00  0.63451240436E-01 -0.51628813548E-01  0.89202123177E+00  0.88000000000E+00 0.  1.
        -11    1    4    4    0    0  0.72562637193E-01 -0.50563949603E-01  0.47458063404E-01  0.10037219844E+00  0.51100000000E-03 0.  1.
         11    1    4    4    0    0  0.25555620122E-01 -0.54974725434E-02  0.79232906616E-02  0.27319435940E-01  0.51100000000E-03 0. -1.
</event>
<event>
 7    1  0.1191842E+005  0.1043930E+01  0.7957747E-01            NaN
         13   -1    0    0    0    0  0.00000000000E+00  0.00000000000E+00  0.74505805969E-08  0.10566000000E+00  0.10566000000E+00 0.  1.
     999900   -1    0    0    0    0 -0.00000000000E+00 -0.00000000000E+00 -0.74505805969E-08  0.93827000000E+00  0.93827000000E+00 0.  1.
     999903    2    1    2    0    0  0.89587939110E-01  0.37312748332E-01 -0.54985691358E-01  0.11340928677E+00  0.20493902740E-01 0.  0.
         14    1    1    2    0    0  0.90949675326E-02  0.25389043191E-01  0.32862724323E-01  0.42512122960E-01  0.00000000000E+00 0.  1.
     999901    1    1    2    0    0 -0.98682906643E-01 -0.62701791523E-01  0.22122967035E-01  0.88800859027E+00  0.88000000000E+00 0. -1.
        -11    1    3    3    0    0  0.53456306937E-01  0.11798796391E-01 -0.26752223520E-01  0.60932183056E-01  0.51100000000E-03 0. -1.
         11    1    3    3    0    0  0.36131632173E-01  0.25513951941E-01 -0.28233467837E-01  0.52477103714E-01  0.51100000000E-03 0.  1.
</event>
<event>
 8    1  0.1191842E+005  0.1043930E+01  0.7957747E-01            NaN
         13   -1    0    0    0    0  0.00000000000E+00  0.00000000000E+00  0.74505805969E-08  0.10566000000E+00  0.10566000000E+00 0.  1.
     999900   -1    0    0    0    0 -0.00000000000E+00 -0.00000000000E+00 -0.74505805969E-08  0.93827000000E+00  0.93827000000E+00 0.  1.
     999902    2    1    2    0    0  0.51739825793E-02  0.22812514689E-01  0.26889233485E-02  0.10203840613E+01  0.10201123572E+01 0.  0.
     999903    2    3    3    0    0  0.10423880762E+00 -0.58507156345E-01  0.46950531170E-01  0.12999885340E+00  0.20162667239E-01 0.  0.
         14    1    1    2    0    0 -0.51739825793E-02 -0.22812514689E-01 -0.26889233485E-02  0.23545938735E-01  0.00000000000E+00 0. -1.
     999901    1    3    3    0    0 -0.99064825042E-01  0.81319671034E-01 -0.44261607822E-01  0.89038520786E+00  0.88000000000E+00 0.  1.
        -11    1    4    4    0    0  0.24874641433E-01 -0.14907001724E-01  0.20975093415E-01  0.35793604898E-01  0.51100000000E-03 0.  1.
         11    1    4    4    0    0  0.79364166188E-01 -0.43600154621E-01  0.25975437755E-01  0.94205248502E-01  0.51100000000E-03 0. -1.
</event>
